<event>
 8    3  0.1559595E-003  0.1341560E+03  0.7818608E-02  0.1237109E+00
         -2   -1    0    0    0  501 -0.00000000000E+00  0.00000000000E+00  0.80505561701E+01  0.80505565740E+01  0.25500000000E-02 0.  1.
          2   -1    0    0  501    0  0.00000000000E+00 -0.00000000000E+00 -0.16754105871E+04  0.16754105871E+04  0.25500000000E-02 0. -1.
         25    2    1    2    0    0  0.38148180399E+02  0.30317495807E+02 -0.10484774979E+04  0.10570254897E+04  0.12499355205E+03 0.  0.
         23    2    1    2    0    0 -0.38148180399E+02 -0.30317495807E+02 -0.61888253295E+03  0.62643565390E+03  0.83854663920E+02 0.  0.
        -13    1    4    4    0    0 -0.70949266648E+01 -0.24736687163E+02 -0.46192866396E+02  0.52877535364E+02  0.10566000000E+00 0.  1.
         13    1    4    4    0    0 -0.31053253734E+02 -0.55808086444E+01 -0.57268966656E+03  0.57355811854E+03  0.10566000000E+00 0. -1.
    9000005    1    3    3    0    0  0.41728150834E+02  0.69053762175E+02 -0.89727467246E+03  0.90089538709E+03  0.10000000000E+01 0.  0.
    9000005    1    3    3    0    0 -0.35799704356E+01 -0.38736266368E+02 -0.15120282549E+03  0.15613010266E+03  0.10000000000E+01 0.  0.
<mgrwt>
<rscale>  0 0.12370388E+03</rscale>
<asrwt>0</asrwt>
<pdfrwt beam="2">  1        2 0.25775520E+00 0.13415596E+03</pdfrwt>
<pdfrwt beam="1">  1       -2 0.12385485E-02 0.13415596E+03</pdfrwt>
<totfact> 0.16657029E+04</totfact>
</mgrwt>
</event>
<event>
 8    3  0.1559595E-003  0.1646781E+03  0.7818608E-02  0.1191008E+00
          2   -1    0    0  501    0  0.00000000000E+00  0.00000000000E+00  0.24432798397E+04  0.24432798397E+04  0.25500000000E-02 0. -1.
         -2   -1    0    0    0  501 -0.00000000000E+00 -0.00000000000E+00 -0.94854558820E+01  0.94854562247E+01  0.25500000000E-02 0.  1.
         25    2    1    2    0    0 -0.63550431420E+02  0.86341937434E+02  0.13764769337E+04  0.13862927597E+04  0.12500111690E+03 0.  0.
         23    2    1    2    0    0  0.63550431420E+02 -0.86341937434E+02  0.10573174501E+04  0.10664725362E+04  0.89162170260E+02 0.  0.
        -13    1    4    4    0    0  0.76280262820E+02 -0.31606452684E+02  0.67959750474E+03  0.68459508175E+03  0.10566000000E+00 0. -1.
         13    1    4    4    0    0 -0.12729831400E+02 -0.54735484751E+02  0.37771994540E+03  0.38187745445E+03  0.10566000000E+00 0.  1.
    9000005    1    3    3    0    0  0.15221206369E+02 -0.27900245818E+01  0.23868350728E+02  0.28463441939E+02  0.10000000000E+01 0.  0.
    9000005    1    3    3    0    0 -0.78771637789E+02  0.89131962016E+02  0.13526085829E+04  0.13578293178E+04  0.10000000000E+01 0.  0.
<mgrwt>
<rscale>  0 0.15796962E+03</rscale>
<asrwt>0</asrwt>
<pdfrwt beam="1">  1        2 0.37588988E+00 0.16467807E+03</pdfrwt>
<pdfrwt beam="2">  1       -2 0.14592983E-02 0.16467807E+03</pdfrwt>
<totfact> 0.52917042E+03</totfact>
</mgrwt>
</event>
<event>
 8    3  0.1559595E-003  0.1319623E+03  0.7818608E-02  0.1238648E+00
          2   -1    0    0  501    0  0.00000000000E+00  0.00000000000E+00  0.14835616701E+03  0.14835616703E+03  0.25500000000E-02 0. -1.
         -2   -1    0    0    0  501 -0.00000000000E+00 -0.00000000000E+00 -0.91536050806E+02  0.91536050842E+02  0.25500000000E-02 0.  1.
         25    2    1    2    0    0 -0.16936867197E+01  0.42265056020E+02  0.49226270447E+02  0.14084488188E+03  0.12499940606E+03 0.  0.
         23    2    1    2    0    0  0.16936867197E+01 -0.42265056020E+02  0.75938457529E+01  0.99047335989E+02  0.89238471177E+02 0.  0.
        -13    1    4    4    0    0 -0.54496169178E+01 -0.94902693039E+01 -0.39634971577E+02  0.41118191497E+02  0.10566000000E+00 0.  1.
         13    1    4    4    0    0  0.71433036375E+01 -0.32774786717E+02  0.47228817330E+02  0.57929144492E+02  0.10566000000E+00 0. -1.
    9000005    1    3    3    0    0 -0.58930223606E+02  0.35854595757E+02  0.46463470002E+02  0.83175581367E+02  0.10000000000E+01 0.  0.
    9000005    1    3    3    0    0  0.57236536886E+02  0.64104602637E+01  0.27628004452E+01  0.57669300514E+02  0.10000000000E+01 0.  0.
<mgrwt>
<rscale>  0 0.12273774E+03</rscale>
<asrwt>0</asrwt>
<pdfrwt beam="1">  1        2 0.22824026E-01 0.13196232E+03</pdfrwt>
<pdfrwt beam="2">  1       -2 0.14082469E-01 0.13196232E+03</pdfrwt>
<totfact> 0.85454147E+03</totfact>
</mgrwt>
</event>
<event>
 8    3  0.1559595E-003  0.1511920E+03  0.7818608E-02  0.1206981E+00
          2   -1    0    0  501    0  0.00000000000E+00  0.00000000000E+00  0.95904285777E+02  0.95904285811E+02  0.25500000000E-02 0. -1.
         -2   -1    0    0    0  501 -0.00000000000E+00 -0.00000000000E+00 -0.20235955689E+03  0.20235955691E+03  0.25500000000E-02 0.  1.
         25    2    1    2    0    0  0.85000751421E+02 -0.30357626964E+01 -0.53049751149E+02  0.16022887979E+03  0.12499869689E+03 0.  0.
         23    2    1    2    0    0 -0.85000751421E+02  0.30357626964E+01 -0.53405519967E+02  0.13803496293E+03  0.94695078177E+02 0.  0.
        -13    1    4    4    0    0 -0.62606856136E+02  0.16296715233E+02  0.13639717872E+02  0.66115462869E+02  0.10566000000E+00 0. -1.
         13    1    4    4    0    0 -0.22393895284E+02 -0.13260952537E+02 -0.67045237839E+02  0.71919500061E+02  0.10566000000E+00 0.  1.
    9000005    1    3    3    0    0  0.98932322450E+02  0.35563889379E+02 -0.55916255118E+02  0.11907989855E+03  0.10000000000E+01 0.  0.
    9000005    1    3    3    0    0 -0.13931571029E+02 -0.38599652076E+02  0.28665039692E+01  0.41148981235E+02  0.10000000000E+01 0.  0.
<mgrwt>
<rscale>  0 0.14482415E+03</rscale>
<asrwt>0</asrwt>
<pdfrwt beam="1">  1        2 0.14754505E-01 0.15119199E+03</pdfrwt>
<pdfrwt beam="2">  1       -2 0.31132240E-01 0.15119199E+03</pdfrwt>
<totfact> 0.36626849E+03</totfact>
</mgrwt>
</event>
<event>
 8    3  0.1559595E-003  0.1527045E+03  0.7818608E-02  0.1205938E+00
          2   -1    0    0  501    0  0.00000000000E+00  0.00000000000E+00  0.55691951963E+03  0.55691951964E+03  0.25500000000E-02 0.  1.
         -2   -1    0    0    0  501 -0.00000000000E+00 -0.00000000000E+00 -0.51790407214E+02  0.51790407277E+02  0.25500000000E-02 0. -1.
         25    2    1    2    0    0 -0.22722131449E+02 -0.84721068842E+02  0.95659590231E+02  0.18019272401E+03  0.12499882327E+03 0.  0.
         23    2    1    2    0    0  0.22722131449E+02  0.84721068842E+02  0.40946952218E+03  0.42851720291E+03  0.90927162198E+02 0.  0.
        -13    1    4    4    0    0  0.55132002440E+02  0.33190807562E+02  0.18195868362E+03  0.19300295621E+03  0.10566000000E+00 0.  1.
         13    1    4    4    0    0 -0.32409870992E+02  0.51530261279E+02  0.22751083857E+03  0.23551424669E+03  0.10566000000E+00 0. -1.
    9000005    1    3    3    0    0 -0.53465826162E+02 -0.64614891695E-02  0.72878687651E+01  0.53969506576E+02  0.10000000000E+01 0.  0.
    9000005    1    3    3    0    0  0.30743694713E+02 -0.84714607352E+02  0.88371721466E+02  0.12622321743E+03  0.10000000000E+01 0.  0.
<mgrwt>
<rscale>  0 0.14563768E+03</rscale>
<asrwt>0</asrwt>
<pdfrwt beam="1">  1        2 0.85679917E-01 0.15270449E+03</pdfrwt>
<pdfrwt beam="2">  1       -2 0.79677558E-02 0.15270449E+03</pdfrwt>
<totfact> 0.50854404E+03</totfact>
</mgrwt>
</event>
<event>
 8    3  0.1559595E-003  0.2988462E+03  0.7818608E-02  0.1087261E+00
         -2   -1    0    0    0  501 -0.00000000000E+00  0.00000000000E+00  0.18762516414E+03  0.18762516416E+03  0.25500000000E-02 0.  1.
          2   -1    0    0  501    0  0.00000000000E+00 -0.00000000000E+00 -0.46532717484E+03  0.46532717485E+03  0.25500000000E-02 0. -1.
         25    2    1    2    0    0  0.73132306040E+01 -0.27135099887E+03 -0.10120573966E+03  0.31551802389E+03  0.12499669488E+03 0.  0.
         23    2    1    2    0    0 -0.73132306040E+01  0.27135099887E+03 -0.17649627104E+03  0.33743431512E+03  0.95005975604E+02 0.  0.
        -13    1    4    4    0    0 -0.10580819076E+02  0.10716599647E+03 -0.17954303746E+02  0.10917358984E+03  0.10566000000E+00 0.  1.
         13    1    4    4    0    0  0.32675884725E+01  0.16418500240E+03 -0.15854196729E+03  0.22826072528E+03  0.10566000000E+00 0. -1.
    9000005    1    3    3    0    0  0.38071750792E+02 -0.23239044546E+03 -0.43640896695E+02  0.23950011527E+03  0.10000000000E+01 0.  0.
    9000005    1    3    3    0    0 -0.30758520188E+02 -0.38960553414E+02 -0.57564842965E+02  0.76017908627E+02  0.10000000000E+01 0.  0.
<mgrwt>
<rscale>  0 0.29599280E+03</rscale>
<asrwt>0</asrwt>
<pdfrwt beam="2">  1        2 0.71588796E-01 0.29884615E+03</pdfrwt>
<pdfrwt beam="1">  1       -2 0.28865410E-01 0.29884615E+03</pdfrwt>
<totfact> 0.74296476E+02</totfact>
</mgrwt>
</event>
<event>
 8    3  0.1559595E-003  0.1368056E+03  0.7818608E-02  0.1229753E+00
          2   -1    0    0  501    0  0.00000000000E+00  0.00000000000E+00  0.10278739948E+04  0.10278739948E+04  0.25500000000E-02 0. -1.
         -2   -1    0    0    0  501 -0.00000000000E+00 -0.00000000000E+00 -0.14722168196E+02  0.14722168417E+02  0.25500000000E-02 0.  1.
         25    2    1    2    0    0 -0.52053795038E+02 -0.19524322817E+02  0.48995168181E+03  0.50869285104E+03  0.12499987776E+03 0.  0.
         23    2    1    2    0    0  0.52053795038E+02  0.19524322817E+02  0.52320014477E+03  0.53390331215E+03  0.90683838008E+02 0.  0.
        -13    1    4    4    0    0  0.34163599503E+02 -0.35044804933E+02  0.24117635516E+03  0.24609212774E+03  0.10566000000E+00 0.  1.
         13    1    4    4    0    0  0.17890195535E+02  0.54569127750E+02  0.28202378961E+03  0.28781118441E+03  0.10566000000E+00 0. -1.
    9000005    1    3    3    0    0 -0.42151369404E+01  0.48734933484E+02  0.12261114590E+03  0.13201270476E+03  0.10000000000E+01 0.  0.
    9000005    1    3    3    0    0 -0.47838658097E+02 -0.68259256301E+02  0.36734053591E+03  0.37668014628E+03  0.10000000000E+01 0.  0.
<mgrwt>
<rscale>  0 0.12846404E+03</rscale>
<asrwt>0</asrwt>
<pdfrwt beam="1">  1        2 0.15813451E+00 0.13680558E+03</pdfrwt>
<pdfrwt beam="2">  1       -2 0.22649482E-02 0.13680558E+03</pdfrwt>
<totfact> 0.15565531E+04</totfact>
</mgrwt>
</event>
<event>
 8    3  0.1559595E-003  0.1350139E+03  0.7818608E-02  0.1232636E+00
          2   -1    0    0  501    0  0.00000000000E+00  0.00000000000E+00  0.48190032983E+03  0.48190032984E+03  0.25500000000E-02 0. -1.
         -2   -1    0    0    0  501 -0.00000000000E+00 -0.00000000000E+00 -0.34806745534E+02  0.34806745627E+02  0.25500000000E-02 0.  1.
         25    2    1    2    0    0 -0.47618505559E+02  0.18331515467E+02  0.14984269719E+03  0.20169674498E+03  0.12500070601E+03 0.  0.
         23    2    1    2    0    0  0.47618505559E+02 -0.18331515467E+02  0.29725088711E+03  0.31501033048E+03  0.90938726044E+02 0.  0.
        -13    1    4    4    0    0  0.59533921144E+02 -0.97372029282E+01  0.29378586850E+03  0.29991540238E+03  0.10566000000E+00 0. -1.
         13    1    4    4    0    0 -0.11915415585E+02 -0.85943125390E+01  0.34650186061E+01  0.15094928107E+02  0.10566000000E+00 0.  1.
    9000005    1    3    3    0    0  0.14595137088E+02 -0.31469496454E+02  0.10426142769E+03  0.10988536089E+03  0.10000000000E+01 0.  0.
    9000005    1    3    3    0    0 -0.62213642647E+02  0.49801011921E+02  0.45581269502E+02  0.91811384094E+02  0.10000000000E+01 0.  0.
<mgrwt>
<rscale>  0 0.12656964E+03</rscale>
<asrwt>0</asrwt>
<pdfrwt beam="1">  1        2 0.74138513E-01 0.13501386E+03</pdfrwt>
<pdfrwt beam="2">  1       -2 0.53548839E-02 0.13501386E+03</pdfrwt>
<totfact> 0.10868763E+04</totfact>
</mgrwt>
</event>
<event>
 8    3  0.1559595E-003  0.2908563E+03  0.7818608E-02  0.1090966E+00
          2   -1    0    0  501    0  0.00000000000E+00  0.00000000000E+00  0.30003574040E+04  0.30003574040E+04  0.25500000000E-02 0.  1.
         -2   -1    0    0    0  501 -0.00000000000E+00 -0.00000000000E+00 -0.37948515132E+02  0.37948515218E+02  0.25500000000E-02 0. -1.
         25    2    1    2    0    0 -0.61891264173E+02  0.25523027480E+03  0.22963370223E+04  0.23146837977E+04  0.12499736543E+03 0.  0.
         23    2    1    2    0    0  0.61891264173E+02 -0.25523027480E+03  0.66607186654E+03  0.72362212154E+03  0.10490100874E+03 0.  0.
        -13    1    4    4    0    0 -0.12844951902E+02 -0.16271236838E+02  0.13389355216E+03  0.13548889406E+03  0.10566000000E+00 0.  1.
         13    1    4    4    0    0  0.74736216075E+02 -0.23895903796E+03  0.53217831437E+03  0.58813322748E+03  0.10566000000E+00 0. -1.
    9000005    1    3    3    0    0 -0.47864651587E+02  0.68912596711E+02  0.11652848804E+04  0.11683021113E+04  0.10000000000E+01 0.  0.
    9000005    1    3    3    0    0 -0.14026612585E+02  0.18631767808E+03  0.11310521420E+04  0.11463816864E+04  0.10000000000E+01 0.  0.
<mgrwt>
<rscale>  0 0.28882156E+03</rscale>
<asrwt>0</asrwt>
<pdfrwt beam="1">  1        2 0.46159358E+00 0.29085626E+03</pdfrwt>
<pdfrwt beam="2">  1       -2 0.58382314E-02 0.29085626E+03</pdfrwt>
<totfact> 0.31995918E+02</totfact>
</mgrwt>
</event>
<event>
 8    3  0.1559595E-003  0.1407418E+03  0.7818608E-02  0.1223486E+00
          2   -1    0    0  501    0  0.00000000000E+00  0.00000000000E+00  0.17989649475E+03  0.17989649477E+03  0.25500000000E-02 0. -1.
         -2   -1    0    0    0  501 -0.00000000000E+00 -0.00000000000E+00 -0.88270421749E+02  0.88270421786E+02  0.25500000000E-02 0.  1.
         25    2    1    2    0    0  0.79075979457E+01  0.64198061729E+02  0.52735819788E+02  0.15029748012E+03  0.12499737840E+03 0.  0.
         23    2    1    2    0    0 -0.79075979457E+01 -0.64198061729E+02  0.38890253212E+02  0.11786943644E+03  0.90536351903E+02 0.  0.
        -13    1    4    4    0    0 -0.10683431842E+02 -0.83709468454E+02  0.13081644164E+02  0.85396436710E+02  0.10566000000E+00 0.  1.
         13    1    4    4    0    0  0.27758338965E+01  0.19511406725E+02  0.25808609048E+02  0.32472999726E+02  0.10566000000E+00 0. -1.
    9000005    1    3    3    0    0 -0.37312399211E+02  0.80953299590E+02  0.49474093593E+02  0.10195262521E+03  0.10000000000E+01 0.  0.
    9000005    1    3    3    0    0  0.45219997157E+02 -0.16755237861E+02  0.32617261954E+01  0.48344854912E+02  0.10000000000E+01 0.  0.
<mgrwt>
<rscale>  0 0.13271219E+03</rscale>
<asrwt>0</asrwt>
<pdfrwt beam="1">  1        2 0.27676383E-01 0.14074184E+03</pdfrwt>
<pdfrwt beam="2">  1       -2 0.13580065E-01 0.14074184E+03</pdfrwt>
<totfact> 0.73620139E+03</totfact>
</mgrwt>
</event>
<event>
 8    3  0.1559595E-003  0.1284988E+03  0.7818608E-02  0.1243781E+00
          2   -1    0    0  501    0  0.00000000000E+00  0.00000000000E+00  0.10701647664E+04  0.10701647664E+04  0.25500000000E-02 0. -1.
         -2   -1    0    0    0  501 -0.00000000000E+00 -0.00000000000E+00 -0.12262103408E+02  0.12262103673E+02  0.25500000000E-02 0.  1.
         25    2    1    2    0    0  0.38311140908E+01 -0.29533340872E+02  0.70406763499E+03  0.71569769080E+03  0.12500021727E+03 0.  0.
         23    2    1    2    0    0 -0.38311140908E+01  0.29533340872E+02  0.35383502797E+03  0.36672917925E+03  0.91674250648E+02 0.  0.
        -13    1    4    4    0    0 -0.18500904729E+02 -0.23468222452E+02  0.52434668400E+02  0.60352684738E+02  0.10566000000E+00 0.  1.
         13    1    4    4    0    0  0.14669790639E+02  0.53001563325E+02  0.30140035957E+03  0.30637649451E+03  0.10566000000E+00 0. -1.
    9000005    1    3    3    0    0  0.19787378655E+02  0.46634131319E+02  0.28009579279E+03  0.28464176731E+03  0.10000000000E+01 0.  0.
    9000005    1    3    3    0    0 -0.15956264565E+02 -0.76167472191E+02  0.42397184220E+03  0.43105592349E+03  0.10000000000E+01 0.  0.
<mgrwt>
<rscale>  0 0.11958661E+03</rscale>
<asrwt>0</asrwt>
<pdfrwt beam="1">  1        2 0.16464080E+00 0.12849883E+03</pdfrwt>
<pdfrwt beam="2">  1       -2 0.18864767E-02 0.12849883E+03</pdfrwt>
<totfact> 0.19095909E+04</totfact>
</mgrwt>
</event>
<event>
 8    3  0.1559595E-003  0.1252820E+03  0.7818608E-02  0.1249646E+00
          2   -1    0    0  501    0  0.00000000000E+00  0.00000000000E+00  0.11798942860E+04  0.11798942860E+04  0.25500000000E-02 0.  1.
         -2   -1    0    0    0  501 -0.00000000000E+00 -0.00000000000E+00 -0.11078924894E+02  0.11078925187E+02  0.25500000000E-02 0. -1.
         25    2    1    2    0    0  0.37673730513E+01 -0.75454183068E+01  0.48424707961E+03  0.50019076905E+03  0.12499777956E+03 0.  0.
         23    2    1    2    0    0 -0.37673730513E+01  0.75454183068E+01  0.68456828147E+03  0.69078244211E+03  0.92062608591E+02 0.  0.
        -13    1    4    4    0    0 -0.36557645892E+02 -0.50417300674E+01  0.56390162961E+03  0.56510790080E+03  0.10566000000E+00 0.  1.
         13    1    4    4    0    0  0.32790272841E+02  0.12587148374E+02  0.12066665186E+03  0.12567454131E+03  0.10566000000E+00 0. -1.
    9000005    1    3    3    0    0  0.83448140053E+00 -0.40642810852E+02  0.48996176902E+02  0.63672284270E+02  0.10000000000E+01 0.  0.
    9000005    1    3    3    0    0  0.29328916507E+01  0.33097392545E+02  0.43525090271E+03  0.43651848478E+03  0.10000000000E+01 0.  0.
<mgrwt>
<rscale>  0 0.11611569E+03</rscale>
<asrwt>0</asrwt>
<pdfrwt beam="1">  1        2 0.18152212E+00 0.12528197E+03</pdfrwt>
<pdfrwt beam="2">  1       -2 0.17044508E-02 0.12528197E+03</pdfrwt>
<totfact> 0.19133095E+04</totfact>
</mgrwt>
</event>
<event>
 8    3  0.1559595E-003  0.1846312E+03  0.7818608E-02  0.1169056E+00
          2   -1    0    0  501    0  0.00000000000E+00  0.00000000000E+00  0.66349504297E+03  0.66349504298E+03  0.25500000000E-02 0. -1.
         -2   -1    0    0    0  501 -0.00000000000E+00 -0.00000000000E+00 -0.66525830797E+02  0.66525830846E+02  0.25500000000E-02 0.  1.
         25    2    1    2    0    0 -0.10007344884E+03 -0.91923495849E+02  0.51763712841E+03  0.54957882071E+03  0.12499623681E+03 0.  0.
         23    2    1    2    0    0  0.10007344884E+03  0.91923495849E+02  0.79332083766E+02  0.18044205311E+03  0.88324010116E+02 0.  0.
        -13    1    4    4    0    0  0.97954573801E+01  0.36136189278E+02 -0.13142585282E+02  0.39680144566E+02  0.10566000000E+00 0.  1.
         13    1    4    4    0    0  0.90277991463E+02  0.55787306571E+02  0.92474669048E+02  0.14076190854E+03  0.10566000000E+00 0. -1.
    9000005    1    3    3    0    0 -0.37748704999E+01  0.29372882406E+02  0.90693164729E+02  0.95411037080E+02  0.10000000000E+01 0.  0.
    9000005    1    3    3    0    0 -0.96298578343E+02 -0.12129637825E+03  0.42694396368E+03  0.45416778363E+03  0.10000000000E+01 0.  0.
<mgrwt>
<rscale>  0 0.17871153E+03</rscale>
<asrwt>0</asrwt>
<pdfrwt beam="1">  1        2 0.10207616E+00 0.18463121E+03</pdfrwt>
<pdfrwt beam="2">  1       -2 0.10234743E-01 0.18463121E+03</pdfrwt>
<totfact> 0.28279392E+03</totfact>
</mgrwt>
</event>
<event>
 8    3  0.1559595E-003  0.1484725E+03  0.7818608E-02  0.1210304E+00
          2   -1    0    0  501    0  0.00000000000E+00  0.00000000000E+00  0.58274399501E+03  0.58274399502E+03  0.25500000000E-02 0. -1.
         -2   -1    0    0    0  501 -0.00000000000E+00 -0.00000000000E+00 -0.37887446725E+02  0.37887446810E+02  0.25500000000E-02 0.  1.
         25    2    1    2    0    0  0.51510208323E+02 -0.61371048545E+02  0.17145851860E+03  0.22680855129E+03  0.12499755268E+03 0.  0.
         23    2    1    2    0    0 -0.51510208323E+02  0.61371048545E+02  0.37339802968E+03  0.39382289054E+03  0.96180420975E+02 0.  0.
        -13    1    4    4    0    0  0.12103150839E+00  0.71735343300E+02  0.19321433324E+03  0.20610134366E+03  0.10566000000E+00 0.  1.
         13    1    4    4    0    0 -0.51631239831E+02 -0.10364294755E+02  0.18018369645E+03  0.18772154688E+03  0.10566000000E+00 0. -1.
    9000005    1    3    3    0    0  0.62687366652E+02 -0.94224292508E+02  0.12236067668E+03  0.16667650835E+03  0.10000000000E+01 0.  0.
    9000005    1    3    3    0    0 -0.11177158329E+02  0.32853243963E+02  0.49097841921E+02  0.60132042943E+02  0.10000000000E+01 0.  0.
<mgrwt>
<rscale>  0 0.14227204E+03</rscale>
<asrwt>0</asrwt>
<pdfrwt beam="1">  1        2 0.89652919E-01 0.14847254E+03</pdfrwt>
<pdfrwt beam="2">  1       -2 0.58288382E-02 0.14847254E+03</pdfrwt>
<totfact> 0.77883686E+03</totfact>
</mgrwt>
</event>
<event>
 8    3  0.1559595E-003  0.1322759E+03  0.7818608E-02  0.1237300E+00
          2   -1    0    0  501    0  0.00000000000E+00  0.00000000000E+00  0.13776627378E+04  0.13776627378E+04  0.25500000000E-02 0. -1.
         -2   -1    0    0    0  501 -0.00000000000E+00 -0.00000000000E+00 -0.98993425591E+01  0.98993428875E+01  0.25500000000E-02 0.  1.
         25    2    1    2    0    0 -0.38097341460E+02  0.20505132354E+02  0.82093181906E+03  0.83152027542E+03  0.12500019605E+03 0.  0.
         23    2    1    2    0    0  0.38097341460E+02 -0.20505132354E+02  0.54683157620E+03  0.55604180529E+03  0.91026636868E+02 0.  0.
        -13    1    4    4    0    0  0.25056540373E+02  0.17666975911E+02  0.58500516215E+02  0.66047511798E+02  0.10566000000E+00 0.  1.
         13    1    4    4    0    0  0.13040801087E+02 -0.38172108265E+02  0.48833105998E+03  0.48999429349E+03  0.10566000000E+00 0. -1.
    9000005    1    3    3    0    0 -0.30198792917E+02  0.55071388889E+02  0.74574867573E+03  0.74838954583E+03  0.10000000000E+01 0.  0.
    9000005    1    3    3    0    0 -0.78985485431E+01 -0.34566256535E+02  0.75183143337E+02  0.83130729589E+02  0.10000000000E+01 0.  0.
<mgrwt>
<rscale>  0 0.12358338E+03</rscale>
<asrwt>0</asrwt>
<pdfrwt beam="1">  1        2 0.21194810E+00 0.13227591E+03</pdfrwt>
<pdfrwt beam="2">  1       -2 0.15229759E-02 0.13227591E+03</pdfrwt>
<totfact> 0.17652887E+04</totfact>
</mgrwt>
</event>
<event>
 8    3  0.1559595E-003  0.2325650E+03  0.7818608E-02  0.1127691E+00
          2   -1    0    0  501    0  0.00000000000E+00  0.00000000000E+00  0.73907502552E+03  0.73907502553E+03  0.25500000000E-02 0.  1.
         -2   -1    0    0    0  501 -0.00000000000E+00 -0.00000000000E+00 -0.68438078021E+02  0.68438078069E+02  0.25500000000E-02 0. -1.
         25    2    1    2    0    0 -0.19485585366E+03 -0.22140025898E+02  0.32870186549E+03  0.40265542397E+03  0.12500995810E+03 0.  0.
         23    2    1    2    0    0  0.19485585366E+03  0.22140025898E+02  0.34193508201E+03  0.40485767962E+03  0.92364257080E+02 0.  0.
        -13    1    4    4    0    0  0.44562174498E+02 -0.11356224838E+02  0.16015396797E+03  0.16662549583E+03  0.10566000000E+00 0.  1.
         13    1    4    4    0    0  0.15029367917E+03  0.33496250736E+02  0.18178111404E+03  0.23823218379E+03  0.10566000000E+00 0. -1.
    9000005    1    3    3    0    0  0.75369219685E+00 -0.17953764406E+01 -0.10412131566E+02  0.10639732714E+02  0.10000000000E+01 0.  0.
    9000005    1    3    3    0    0 -0.19560954586E+03 -0.20344649458E+02  0.33911399705E+03  0.39201569126E+03  0.10000000000E+01 0.  0.
<mgrwt>
<rscale>  0 0.22851204E+03</rscale>
<asrwt>0</asrwt>
<pdfrwt beam="1">  1        2 0.11370384E+00 0.23256499E+03</pdfrwt>
<pdfrwt beam="2">  1       -2 0.10528936E-01 0.23256499E+03</pdfrwt>
<totfact> 0.23853787E+03</totfact>
</mgrwt>
</event>
<event>
 8    3  0.1559595E-003  0.2067898E+03  0.7818608E-02  0.1148097E+00
          2   -1    0    0  501    0  0.00000000000E+00  0.00000000000E+00  0.86444768707E+03  0.86444768707E+03  0.25500000000E-02 0. -1.
         -2   -1    0    0    0  501 -0.00000000000E+00 -0.00000000000E+00 -0.45574504489E+02  0.45574504560E+02  0.25500000000E-02 0.  1.
         25    2    1    2    0    0 -0.10758937172E+03  0.12471933276E+03  0.47471223575E+03  0.51779698292E+03  0.12502649269E+03 0.  0.
         23    2    1    2    0    0  0.10758937172E+03 -0.12471933276E+03  0.34416094683E+03  0.39222520871E+03  0.90903642175E+02 0.  0.
        -13    1    4    4    0    0  0.45276948604E+02 -0.46243515645E+02  0.50960158935E+02  0.82373623065E+02  0.10566000000E+00 0. -1.
         13    1    4    4    0    0  0.62312423114E+02 -0.78475817113E+02  0.29320078789E+03  0.30985158565E+03  0.10566000000E+00 0.  1.
    9000005    1    3    3    0    0 -0.55171963253E+02 -0.11433097843E+02  0.88203790946E+02  0.10466885875E+03  0.10000000000E+01 0.  0.
    9000005    1    3    3    0    0 -0.52417408465E+02  0.13615243060E+03  0.38650844481E+03  0.41312812416E+03  0.10000000000E+01 0.  0.
<mgrwt>
<rscale>  0 0.20195880E+03</rscale>
<asrwt>0</asrwt>
<pdfrwt beam="1">  1        2 0.13299195E+00 0.20678977E+03</pdfrwt>
<pdfrwt beam="2">  1       -2 0.70114623E-02 0.20678977E+03</pdfrwt>
<totfact> 0.36933842E+03</totfact>
</mgrwt>
</event>
<event>
 8    3  0.1559595E-003  0.1642599E+03  0.7818608E-02  0.1191945E+00
          2   -1    0    0  501    0  0.00000000000E+00  0.00000000000E+00  0.32259984952E+04  0.32259984952E+04  0.25500000000E-02 0. -1.
         -2   -1    0    0    0  501 -0.00000000000E+00 -0.00000000000E+00 -0.87960566106E+01  0.87960569803E+01  0.25500000000E-02 0.  1.
         25    2    1    2    0    0 -0.10645496476E+03  0.57537227797E+01  0.24381729850E+04  0.24436998221E+04  0.12496219815E+03 0.  0.
         23    2    1    2    0    0  0.10645496476E+03 -0.57537227797E+01  0.77902945354E+03  0.79109473002E+03  0.87052958202E+02 0.  0.
        -13    1    4    4    0    0  0.99634820555E+02 -0.28604854303E+02  0.47741957343E+03  0.48854354506E+03  0.10566000000E+00 0.  1.
         13    1    4    4    0    0  0.68201442075E+01  0.22851131523E+02  0.30160988010E+03  0.30255118496E+03  0.10566000000E+00 0. -1.
    9000005    1    3    3    0    0  0.25573588405E+02  0.12842064376E+02  0.65823512413E+03  0.65885765206E+03  0.10000000000E+01 0.  0.
    9000005    1    3    3    0    0 -0.13202855317E+03 -0.70883415959E+01  0.17799378609E+04  0.17848421701E+04  0.10000000000E+01 0.  0.
<mgrwt>
<rscale>  0 0.15715658E+03</rscale>
<asrwt>0</asrwt>
<pdfrwt beam="1">  1        2 0.49630711E+00 0.16425990E+03</pdfrwt>
<pdfrwt beam="2">  1       -2 0.13532405E-02 0.16425990E+03</pdfrwt>
<totfact> 0.21217697E+03</totfact>
</mgrwt>
</event>
<event>
 8    3  0.1559595E-003  0.1338682E+03  0.7818608E-02  0.1234228E+00
          2   -1    0    0  501    0  0.00000000000E+00  0.00000000000E+00  0.23829101203E+04  0.23829101203E+04  0.25500000000E-02 0. -1.
         -2   -1    0    0    0  501 -0.00000000000E+00 -0.00000000000E+00 -0.65246393242E+01  0.65246398226E+01  0.25500000000E-02 0.  1.
         25    2    1    2    0    0  0.11203634433E+02  0.46592987299E+02  0.96271656487E+03  0.97197935913E+03  0.12499704967E+03 0.  0.
         23    2    1    2    0    0 -0.11203634433E+02 -0.46592987299E+02  0.14136689161E+04  0.14174554009E+04  0.91780071532E+02 0.  0.
        -13    1    4    4    0    0  0.27294998237E+02 -0.14072453839E+02  0.16905298120E+03  0.17181959290E+03  0.10566000000E+00 0.  1.
         13    1    4    4    0    0 -0.38498632670E+02 -0.32520533461E+02  0.12446159349E+04  0.12456358081E+04  0.10566000000E+00 0. -1.
    9000005    1    3    3    0    0 -0.54883947419E+01 -0.40041968439E+02  0.44150214521E+03  0.44334932721E+03  0.10000000000E+01 0.  0.
    9000005    1    3    3    0    0  0.16692029175E+02  0.86634955738E+02  0.52121441966E+03  0.52863003193E+03  0.10000000000E+01 0.  0.
<mgrwt>
<rscale>  0 0.12554009E+03</rscale>
<asrwt>0</asrwt>
<pdfrwt beam="1">  1        2 0.36660167E+00 0.13386818E+03</pdfrwt>
<pdfrwt beam="2">  1       -2 0.10037904E-02 0.13386818E+03</pdfrwt>
<totfact> 0.97330886E+03</totfact>
</mgrwt>
</event>
<event>
 8    3  0.1559595E-003  0.1424180E+03  0.7818608E-02  0.1220171E+00
          2   -1    0    0  501    0  0.00000000000E+00  0.00000000000E+00  0.91605046697E+03  0.91605046697E+03  0.25500000000E-02 0.  1.
         -2   -1    0    0    0  501 -0.00000000000E+00 -0.00000000000E+00 -0.19385541783E+02  0.19385541950E+02  0.25500000000E-02 0. -1.
         25    2    1    2    0    0 -0.61872009022E+02 -0.28809878673E+02  0.37285591921E+03  0.39912958555E+03  0.12499893984E+03 0.  0.
         23    2    1    2    0    0  0.61872009022E+02  0.28809878673E+02  0.52380900597E+03  0.53630642337E+03  0.92685222117E+02 0.  0.
        -13    1    4    4    0    0  0.51048232644E+02  0.50728093374E+02  0.48588988394E+03  0.49119064729E+03  0.10566000000E+00 0.  1.
         13    1    4    4    0    0  0.10823776377E+02 -0.21918214701E+02  0.37919122035E+02  0.45115776074E+02  0.10566000000E+00 0. -1.
    9000005    1    3    3    0    0 -0.99239964534E+02 -0.33294510584E+02  0.26794093005E+03  0.28766375683E+03  0.10000000000E+01 0.  0.
    9000005    1    3    3    0    0  0.37367955513E+02  0.44846319112E+01  0.10491498917E+03  0.11146582873E+03  0.10000000000E+01 0.  0.
<mgrwt>
<rscale>  0 0.13503469E+03</rscale>
<asrwt>0</asrwt>
<pdfrwt beam="1">  1        2 0.14093084E+00 0.14241801E+03</pdfrwt>
<pdfrwt beam="2">  1       -2 0.29823910E-02 0.14241801E+03</pdfrwt>
<totfact> 0.12195125E+04</totfact>
</mgrwt>
</event>
<event>
 8    3  0.1559595E-003  0.1398771E+03  0.7818608E-02  0.1225010E+00
          2   -1    0    0  501    0  0.00000000000E+00  0.00000000000E+00  0.60720576818E+03  0.60720576819E+03  0.25500000000E-02 0. -1.
         -2   -1    0    0    0  501 -0.00000000000E+00 -0.00000000000E+00 -0.25675974850E+02  0.25675974977E+02  0.25500000000E-02 0.  1.
         25    2    1    2    0    0 -0.31987986347E+02 -0.54005684244E+02  0.31961882866E+03  0.34888652805E+03  0.12500307446E+03 0.  0.
         23    2    1    2    0    0  0.31987986347E+02  0.54005684244E+02  0.26191096468E+03  0.28399521511E+03  0.90089308946E+02 0.  0.
        -13    1    4    4    0    0  0.19606387057E+02  0.79057271160E+02  0.18392932281E+03  0.20115782235E+03  0.10566000000E+00 0.  1.
         13    1    4    4    0    0  0.12381599290E+02 -0.25051586917E+02  0.77981641865E+02  0.82837392765E+02  0.10566000000E+00 0. -1.
    9000005    1    3    3    0    0 -0.21171513605E+02 -0.37134048325E+02  0.17658256290E+02  0.46259967019E+02  0.10000000000E+01 0.  0.
    9000005    1    3    3    0    0 -0.10816472742E+02 -0.16871635918E+02  0.30196057237E+03  0.30262656104E+03  0.10000000000E+01 0.  0.
<mgrwt>
<rscale>  0 0.13166191E+03</rscale>
<asrwt>0</asrwt>
<pdfrwt beam="1">  1        2 0.93416267E-01 0.13987714E+03</pdfrwt>
<pdfrwt beam="2">  1       -2 0.39501502E-02 0.13987714E+03</pdfrwt>
<totfact> 0.13275863E+04</totfact>
</mgrwt>
</event>
<event>
 8    3  0.1559595E-003  0.1301542E+03  0.7818608E-02  0.1241515E+00
         -2   -1    0    0    0  501 -0.00000000000E+00  0.00000000000E+00  0.10640410098E+03  0.10640410101E+03  0.25500000000E-02 0.  1.
          2   -1    0    0  501    0  0.00000000000E+00 -0.00000000000E+00 -0.14777702274E+03  0.14777702277E+03  0.25500000000E-02 0. -1.
         25    2    1    2    0    0  0.19629364325E+02 -0.30485100566E+02 -0.76434640438E+02  0.15093828942E+03  0.12500183860E+03 0.  0.
         23    2    1    2    0    0 -0.19629364325E+02  0.30485100566E+02  0.35061718679E+02  0.10324283436E+03  0.90083879966E+02 0.  0.
        -13    1    4    4    0    0 -0.96450522905E+00  0.58635366274E+02  0.64871752872E+01  0.59001110631E+02  0.10566000000E+00 0. -1.
         13    1    4    4    0    0 -0.18664859096E+02 -0.28150265708E+02  0.28574543392E+02  0.44241723730E+02  0.10566000000E+00 0.  1.
    9000005    1    3    3    0    0  0.72583371588E+01 -0.10288660657E+02  0.34896149648E+02  0.37111740147E+02  0.10000000000E+01 0.  0.
    9000005    1    3    3    0    0  0.12371027166E+02 -0.20196439908E+02 -0.11133079009E+03  0.11382654927E+03  0.10000000000E+01 0.  0.
<mgrwt>
<rscale>  0 0.12096401E+03</rscale>
<asrwt>0</asrwt>
<pdfrwt beam="2">  1        2 0.22734926E-01 0.13015419E+03</pdfrwt>
<pdfrwt beam="1">  1       -2 0.16369862E-01 0.13015419E+03</pdfrwt>
<totfact> 0.67035849E+03</totfact>
</mgrwt>
</event>
<event>
 8    3  0.1559595E-003  0.1364107E+03  0.7818608E-02  0.1231287E+00
         -2   -1    0    0    0  501 -0.00000000000E+00  0.00000000000E+00  0.15472435106E+02  0.15472435316E+02  0.25500000000E-02 0.  1.
          2   -1    0    0  501    0  0.00000000000E+00 -0.00000000000E+00 -0.93351107319E+03  0.93351107319E+03  0.25500000000E-02 0. -1.
         25    2    1    2    0    0  0.32257564058E+02 -0.44075082115E+02 -0.52256939382E+03  0.54008021486E+03  0.12499881530E+03 0.  0.
         23    2    1    2    0    0 -0.32257564058E+02  0.44075082115E+02 -0.39546924426E+03  0.40890329364E+03  0.88446690688E+02 0.  0.
        -13    1    4    4    0    0  0.10697396359E+02 -0.22380249858E+02 -0.91282396676E+02  0.94592795600E+02  0.10566000000E+00 0.  1.
         13    1    4    4    0    0 -0.42954960418E+02  0.66455331974E+02 -0.30418684758E+03  0.31431049804E+03  0.10566000000E+00 0. -1.
    9000005    1    3    3    0    0  0.21414340329E+02 -0.31990798637E+01 -0.69985673764E+01  0.22776918778E+02  0.10000000000E+01 0.  0.
    9000005    1    3    3    0    0  0.10843223729E+02 -0.40876002252E+02 -0.51557082644E+03  0.51730329609E+03  0.10000000000E+01 0.  0.
<mgrwt>
<rscale>  0 0.12745129E+03</rscale>
<asrwt>0</asrwt>
<pdfrwt beam="2">  1        2 0.14361704E+00 0.13641066E+03</pdfrwt>
<pdfrwt beam="1">  1       -2 0.23803754E-02 0.13641066E+03</pdfrwt>
<totfact> 0.16502652E+04</totfact>
</mgrwt>
</event>
<event>
 8    3  0.1559595E-003  0.2294010E+03  0.7818608E-02  0.1128578E+00
         -2   -1    0    0    0  501 -0.00000000000E+00  0.00000000000E+00  0.10355089511E+03  0.10355089514E+03  0.25500000000E-02 0. -1.
          2   -1    0    0  501    0  0.00000000000E+00 -0.00000000000E+00 -0.68353567503E+03  0.68353567503E+03  0.25500000000E-02 0.  1.
         25    2    1    2    0    0 -0.21991224854E+02  0.19109143919E+03 -0.50340417240E+03  0.55320934604E+03  0.12500107065E+03 0.  0.
         23    2    1    2    0    0  0.21991224854E+02 -0.19109143919E+03 -0.76580607524E+02  0.23387722413E+03  0.10878609478E+03 0.  0.
        -13    1    4    4    0    0  0.60038809784E+02 -0.63329915740E+02 -0.37304763074E+02  0.94905181207E+02  0.10566000000E+00 0.  1.
         13    1    4    4    0    0 -0.38047584930E+02 -0.12776152345E+03 -0.39275844450E+02  0.13897204292E+03  0.10566000000E+00 0. -1.
    9000005    1    3    3    0    0 -0.59821690668E+01  0.63442884570E+02 -0.47460437549E+02  0.79462438181E+02  0.10000000000E+01 0.  0.
    9000005    1    3    3    0    0 -0.16009055787E+02  0.12764855462E+03 -0.45594373485E+03  0.47374690786E+03  0.10000000000E+01 0.  0.
<mgrwt>
<rscale>  0 0.22726719E+03</rscale>
<asrwt>0</asrwt>
<pdfrwt beam="2">  1        2 0.10515933E+00 0.22940100E+03</pdfrwt>
<pdfrwt beam="1">  1       -2 0.15930907E-01 0.22940100E+03</pdfrwt>
<totfact> 0.13359211E+03</totfact>
</mgrwt>
</event>
<event>
 8    3  0.1559595E-003  0.1430446E+03  0.7818608E-02  0.1219628E+00
          2   -1    0    0  501    0  0.00000000000E+00  0.00000000000E+00  0.14207122578E+04  0.14207122578E+04  0.25500000000E-02 0. -1.
         -2   -1    0    0    0  501 -0.00000000000E+00 -0.00000000000E+00 -0.14216553709E+02  0.14216553937E+02  0.25500000000E-02 0.  1.
         25    2    1    2    0    0  0.26117995818E+02  0.64449047469E+02  0.10663465106E+04  0.10758980613E+04  0.12500371338E+03 0.  0.
         23    2    1    2    0    0 -0.26117995818E+02 -0.64449047469E+02  0.34014919348E+03  0.35903075036E+03  0.91464618596E+02 0.  0.
        -13    1    4    4    0    0 -0.43972769193E+02 -0.47654672763E+02  0.32217256595E+03  0.32863314757E+03  0.10566000000E+00 0. -1.
         13    1    4    4    0    0  0.17854773375E+02 -0.16794374706E+02  0.17976627526E+02  0.30397602789E+02  0.10566000000E+00 0.  1.
    9000005    1    3    3    0    0 -0.20771388235E+02  0.87729000635E+02  0.71794167906E+03  0.72358073679E+03  0.10000000000E+01 0.  0.
    9000005    1    3    3    0    0  0.46889384053E+02 -0.23279953166E+02  0.34840483151E+03  0.35231732455E+03  0.10000000000E+01 0.  0.
<mgrwt>
<rscale>  0 0.13541973E+03</rscale>
<asrwt>0</asrwt>
<pdfrwt beam="1">  1        2 0.21857109E+00 0.14304460E+03</pdfrwt>
<pdfrwt beam="2">  1       -2 0.21871624E-02 0.14304460E+03</pdfrwt>
<totfact> 0.99548114E+03</totfact>
</mgrwt>
</event>
<event>
 8    3  0.1559595E-003  0.1259795E+03  0.7818608E-02  0.1248230E+00
         -2   -1    0    0    0  501 -0.00000000000E+00  0.00000000000E+00  0.44497624301E+02  0.44497624374E+02  0.25500000000E-02 0.  1.
          2   -1    0    0  501    0  0.00000000000E+00 -0.00000000000E+00 -0.27092763920E+03  0.27092763922E+03  0.25500000000E-02 0. -1.
         25    2    1    2    0    0  0.12525026000E+02  0.89612354416E+01 -0.12564429422E+03  0.17792505793E+03  0.12503462541E+03 0.  0.
         23    2    1    2    0    0 -0.12525026000E+02 -0.89612354416E+01 -0.10078572069E+03  0.13750020566E+03  0.92257059603E+02 0.  0.
        -13    1    4    4    0    0 -0.34246712462E+02  0.31373483816E+02 -0.39409314872E+02  0.60911723534E+02  0.10566000000E+00 0.  1.
         13    1    4    4    0    0  0.21721686463E+02 -0.40334719257E+02 -0.61376405813E+02  0.76588482129E+02  0.10566000000E+00 0. -1.
    9000005    1    3    3    0    0  0.48384453099E+02  0.50716068833E+02 -0.60159268729E+02  0.92375930597E+02  0.10000000000E+01 0.  0.
    9000005    1    3    3    0    0 -0.35859427100E+02 -0.41754833392E+02 -0.65485025490E+02  0.85549127330E+02  0.10000000000E+01 0.  0.
<mgrwt>
<rscale>  0 0.11694103E+03</rscale>
<asrwt>0</asrwt>
<pdfrwt beam="2">  1        2 0.41681174E-01 0.12597951E+03</pdfrwt>
<pdfrwt beam="1">  1       -2 0.68457885E-02 0.12597951E+03</pdfrwt>
<totfact> 0.13763043E+04</totfact>
</mgrwt>
</event>
<event>
 8    3  0.1559595E-003  0.1446820E+03  0.7818608E-02  0.1215497E+00
          2   -1    0    0  501    0  0.00000000000E+00  0.00000000000E+00  0.48165611722E+03  0.48165611723E+03  0.25500000000E-02 0. -1.
         -2   -1    0    0    0  501 -0.00000000000E+00 -0.00000000000E+00 -0.36678128278E+02  0.36678128367E+02  0.25500000000E-02 0.  1.
         25    2    1    2    0    0 -0.72817293897E+02  0.24425476058E+01  0.24203852988E+03  0.28198496696E+03  0.12499818925E+03 0.  0.
         23    2    1    2    0    0  0.72817293897E+02 -0.24425476058E+01  0.20293945906E+03  0.23634927863E+03  0.96789633419E+02 0.  0.
        -13    1    4    4    0    0  0.54323715911E+02  0.23738616355E+02  0.43018399616E+02  0.73247401909E+02  0.10566000000E+00 0.  1.
         13    1    4    4    0    0  0.18493577986E+02 -0.26181163961E+02  0.15992105944E+03  0.16310187672E+03  0.10566000000E+00 0. -1.
    9000005    1    3    3    0    0 -0.10082226548E+03 -0.14146995268E+02  0.12894201436E+03  0.16429336492E+03  0.10000000000E+01 0.  0.
    9000005    1    3    3    0    0  0.28004971582E+02  0.16589542874E+02  0.11309651553E+03  0.11769160204E+03  0.10000000000E+01 0.  0.
<mgrwt>
<rscale>  0 0.13840087E+03</rscale>
<asrwt>0</asrwt>
<pdfrwt beam="1">  1        2 0.74100933E-01 0.14468197E+03</pdfrwt>
<pdfrwt beam="2">  1       -2 0.56427896E-02 0.14468197E+03</pdfrwt>
<totfact> 0.10096121E+04</totfact>
</mgrwt>
</event>
<event>
 8    3  0.1559595E-003  0.1305266E+03  0.7818608E-02  0.1240261E+00
          2   -1    0    0  501    0  0.00000000000E+00  0.00000000000E+00  0.20068339523E+04  0.20068339523E+04  0.25500000000E-02 0. -1.
         -2   -1    0    0    0  501 -0.00000000000E+00 -0.00000000000E+00 -0.16763502218E+02  0.16763502412E+02  0.25500000000E-02 0.  1.
         25    2    1    2    0    0  0.20920032591E+01  0.37466304321E+02  0.18357288696E+04  0.18403634653E+04  0.12501640293E+03 0.  0.
         23    2    1    2    0    0 -0.20920032591E+01 -0.37466304321E+02  0.15434158048E+03  0.18323398949E+03  0.91352454824E+02 0.  0.
        -13    1    4    4    0    0 -0.39419183589E+02 -0.44901596329E+02  0.81596684008E+02  0.10113384890E+03  0.10566000000E+00 0.  1.
         13    1    4    4    0    0  0.37327180330E+02  0.74352920080E+01  0.72744896467E+02  0.82100140589E+02  0.10566000000E+00 0. -1.
    9000005    1    3    3    0    0 -0.11880145518E+02  0.64653813602E+02  0.50233577465E+03  0.50661966401E+03  0.10000000000E+01 0.  0.
    9000005    1    3    3    0    0  0.13972148777E+02 -0.27187509281E+02  0.13333930950E+04  0.13337438013E+04  0.10000000000E+01 0.  0.
<mgrwt>
<rscale>  0 0.12173591E+03</rscale>
<asrwt>0</asrwt>
<pdfrwt beam="1">  1        2 0.30874365E+00 0.13052663E+03</pdfrwt>
<pdfrwt beam="2">  1       -2 0.25790006E-02 0.13052663E+03</pdfrwt>
<totfact> 0.38993914E+03</totfact>
</mgrwt>
</event>
<event>
 8    3  0.1559595E-003  0.1303295E+03  0.7818608E-02  0.1240949E+00
          2   -1    0    0  501    0  0.00000000000E+00  0.00000000000E+00  0.35431795677E+04  0.35431795677E+04  0.25500000000E-02 0. -1.
         -2   -1    0    0    0  501 -0.00000000000E+00 -0.00000000000E+00 -0.46957298925E+01  0.46957305849E+01  0.25500000000E-02 0.  1.
         25    2    1    2    0    0 -0.35532257644E+02  0.98667519245E+01  0.27875984980E+04  0.27906435032E+04  0.12500352657E+03 0.  0.
         23    2    1    2    0    0  0.35532257644E+02 -0.98667519245E+01  0.75088533979E+03  0.75723179509E+03  0.90616244991E+02 0.  0.
        -13    1    4    4    0    0  0.23376875992E+02 -0.91342835318E+01  0.47345568068E+02  0.53586634961E+02  0.10566000000E+00 0.  1.
         13    1    4    4    0    0  0.12155381652E+02 -0.73246839264E+00  0.70353977172E+03  0.70364516013E+03  0.10566000000E+00 0. -1.
    9000005    1    3    3    0    0 -0.15858594989E+01 -0.46788903915E+02  0.19054916097E+04  0.19060668905E+04  0.10000000000E+01 0.  0.
    9000005    1    3    3    0    0 -0.33946398145E+02  0.56655655840E+02  0.88210688836E+03  0.88457661272E+03  0.10000000000E+01 0.  0.
<mgrwt>
<rscale>  0 0.12131173E+03</rscale>
<asrwt>0</asrwt>
<pdfrwt beam="1">  1        2 0.54510166E+00 0.13032949E+03</pdfrwt>
<pdfrwt beam="2">  1       -2 0.72242386E-03 0.13032949E+03</pdfrwt>
<totfact> 0.33114991E+03</totfact>
</mgrwt>
</event>
<event>
 8    3  0.1559595E-003  0.1263069E+03  0.7818608E-02  0.1248812E+00
          2   -1    0    0  501    0  0.00000000000E+00  0.00000000000E+00  0.91161684606E+03  0.91161684606E+03  0.25500000000E-02 0. -1.
         -2   -1    0    0    0  501 -0.00000000000E+00 -0.00000000000E+00 -0.24085931088E+02  0.24085931223E+02  0.25500000000E-02 0.  1.
         25    2    1    2    0    0 -0.66826312628E+01 -0.17038994175E+02  0.79655604269E+03  0.80650788422E+03  0.12497381038E+03 0.  0.
         23    2    1    2    0    0  0.66826312628E+01  0.17038994175E+02  0.90974872277E+02  0.12919489306E+03  0.89888309163E+02 0.  0.
        -13    1    4    4    0    0 -0.82494826191E+01 -0.22006490338E+02  0.83479584585E+02  0.86724804912E+02  0.10566000000E+00 0. -1.
         13    1    4    4    0    0  0.14932113882E+02  0.39045484513E+02  0.74952876918E+01  0.42470088149E+02  0.10566000000E+00 0.  1.
    9000005    1    3    3    0    0 -0.21534800683E+02  0.43064745371E+02  0.55702552104E+03  0.55910352443E+03  0.10000000000E+01 0.  0.
    9000005    1    3    3    0    0  0.14852169420E+02 -0.60103739546E+02  0.23953052165E+03  0.24740435979E+03  0.10000000000E+01 0.  0.
<mgrwt>
<rscale>  0 0.11660077E+03</rscale>
<asrwt>0</asrwt>
<pdfrwt beam="1">  1        2 0.14024877E+00 0.12630692E+03</pdfrwt>
<pdfrwt beam="2">  1       -2 0.37055272E-02 0.12630692E+03</pdfrwt>
<totfact> 0.88480980E+03</totfact>
</mgrwt>
</event>
<event>
 8    3  0.1559595E-003  0.1251328E+03  0.7818608E-02  0.1250895E+00
         -2   -1    0    0    0  501 -0.00000000000E+00  0.00000000000E+00  0.65346546154E+02  0.65346546204E+02  0.25500000000E-02 0.  1.
          2   -1    0    0  501    0  0.00000000000E+00 -0.00000000000E+00 -0.17904973541E+03  0.17904973543E+03  0.25500000000E-02 0. -1.
         25    2    1    2    0    0  0.56759485810E+01 -0.81138075579E+00 -0.56164227889E+02  0.13715914564E+03  0.12500134402E+03 0.  0.
         23    2    1    2    0    0 -0.56759485810E+01  0.81138075579E+00 -0.57538961372E+02  0.10723713599E+03  0.90311663308E+02 0.  0.
        -13    1    4    4    0    0  0.32554598530E+02  0.29485714467E+01  0.58244202366E+01  0.33202876294E+02  0.10566000000E+00 0.  1.
         13    1    4    4    0    0 -0.38230547112E+02 -0.21371906909E+01 -0.63363381608E+02  0.74034259700E+02  0.10566000000E+00 0. -1.
    9000005    1    3    3    0    0 -0.82914158655E+01 -0.18046882258E+02  0.36665120140E+02  0.41710533096E+02  0.10000000000E+01 0.  0.
    9000005    1    3    3    0    0  0.13967364447E+02  0.17235501502E+02 -0.92829348029E+02  0.95448612547E+02  0.10000000000E+01 0.  0.
<mgrwt>
<rscale>  0 0.11539384E+03</rscale>
<asrwt>0</asrwt>
<pdfrwt beam="2">  1        2 0.27546113E-01 0.12513277E+03</pdfrwt>
<pdfrwt beam="1">  1       -2 0.10053315E-01 0.12513277E+03</pdfrwt>
<totfact> 0.11836658E+04</totfact>
</mgrwt>
</event>
<event>
 8    3  0.1559595E-003  0.1261003E+03  0.7818608E-02  0.1249586E+00
         -2   -1    0    0    0  501 -0.00000000000E+00  0.00000000000E+00  0.67636070660E+01  0.67636075467E+01  0.25500000000E-02 0.  1.
          2   -1    0    0  501    0  0.00000000000E+00 -0.00000000000E+00 -0.17727854700E+04  0.17727854700E+04  0.25500000000E-02 0. -1.
         25    2    1    2    0    0 -0.36709621444E+01 -0.16216730003E+02 -0.11463004444E+04  0.11532155050E+04  0.12499933552E+03 0.  0.
         23    2    1    2    0    0  0.36709621444E+01  0.16216730003E+02 -0.61972141860E+03  0.62633357260E+03  0.89233677489E+02 0.  0.
        -13    1    4    4    0    0 -0.18962149235E+02  0.47336032461E+02 -0.29971847383E+03  0.30402539005E+03  0.10566000000E+00 0.  1.
         13    1    4    4    0    0  0.22633111379E+02 -0.31119302457E+02 -0.32000294477E+03  0.32230818255E+03  0.10566000000E+00 0. -1.
    9000005    1    3    3    0    0  0.99289152212E+01 -0.41059221985E+02 -0.13369089794E+03  0.14020948349E+03  0.10000000000E+01 0.  0.
    9000005    1    3    3    0    0 -0.13599877366E+02  0.24842491982E+02 -0.10126095464E+04  0.10130060215E+04  0.10000000000E+01 0.  0.
<mgrwt>
<rscale>  0 0.11615079E+03</rscale>
<asrwt>0</asrwt>
<pdfrwt beam="2">  1        2 0.27273585E+00 0.12610033E+03</pdfrwt>
<pdfrwt beam="1">  1       -2 0.10405564E-02 0.12610033E+03</pdfrwt>
<totfact> 0.19001223E+04</totfact>
</mgrwt>
</event>
<event>
 8    3  0.1559595E-003  0.1759421E+03  0.7818608E-02  0.1177162E+00
          2   -1    0    0  501    0  0.00000000000E+00  0.00000000000E+00  0.80935290504E+03  0.80935290505E+03  0.25500000000E-02 0. -1.
         -2   -1    0    0    0  501 -0.00000000000E+00 -0.00000000000E+00 -0.35232231554E+02  0.35232231647E+02  0.25500000000E-02 0.  1.
         25    2    1    2    0    0 -0.11905972244E+03  0.33987936317E+02  0.48917088460E+03  0.51984976941E+03  0.12500092439E+03 0.  0.
         23    2    1    2    0    0  0.11905972244E+03 -0.33987936317E+02  0.28494978889E+03  0.32473536728E+03  0.94478988411E+02 0.  0.
        -13    1    4    4    0    0  0.64785847077E+02 -0.12876072615E+02  0.24590563163E+03  0.25462244610E+03  0.10566000000E+00 0. -1.
         13    1    4    4    0    0  0.54273875365E+02 -0.21111863702E+02  0.39044157262E+02  0.70112921180E+02  0.10566000000E+00 0.  1.
    9000005    1    3    3    0    0 -0.15590513670E+02 -0.39843647853E+02  0.72171010874E+02  0.83906109439E+02  0.10000000000E+01 0.  0.
    9000005    1    3    3    0    0 -0.10346920877E+03  0.73831584170E+02  0.41699987372E+03  0.43594365997E+03  0.10000000000E+01 0.  0.
<mgrwt>
<rscale>  0 0.17065982E+03</rscale>
<asrwt>0</asrwt>
<pdfrwt beam="1">  1        2 0.12451583E+00 0.17594212E+03</pdfrwt>
<pdfrwt beam="2">  1       -2 0.54203435E-02 0.17594212E+03</pdfrwt>
<totfact> 0.59287645E+03</totfact>
</mgrwt>
</event>
<event>
 8    3  0.1559595E-003  0.1272212E+03  0.7818608E-02  0.1240697E+00
         -2   -1    0    0    0  501 -0.00000000000E+00  0.00000000000E+00  0.81027481730E+01  0.81027485743E+01  0.25500000000E-02 0.  1.
          2   -1    0    0  501    0  0.00000000000E+00 -0.00000000000E+00 -0.20810838767E+04  0.20810838767E+04  0.25500000000E-02 0. -1.
         25    2    1    2    0    0  0.20960609637E+02  0.10554929629E+02 -0.65312562748E+03  0.66540086150E+03  0.12503786435E+03 0.  0.
         23    2    1    2    0    0 -0.20960609637E+02 -0.10554929629E+02 -0.14198555011E+04  0.14237857638E+04  0.10308008330E+03 0.  0.
        -13    1    4    4    0    0 -0.62747633326E+02 -0.10482289529E+02 -0.90967846093E+03  0.91190024527E+03  0.10566000000E+00 0. -1.
         13    1    4    4    0    0  0.41787023690E+02 -0.72640100395E-01 -0.51017704013E+03  0.51188551851E+03  0.10566000000E+00 0.  1.
    9000005    1    3    3    0    0 -0.48722293431E+02  0.18524788545E+02 -0.19122456764E+03  0.19820409919E+03  0.10000000000E+01 0.  0.
    9000005    1    3    3    0    0  0.69682903068E+02 -0.79698589163E+01 -0.46190105984E+03  0.46719676231E+03  0.10000000000E+01 0.  0.
<mgrwt>
<rscale>  0 0.12146651E+03</rscale>
<asrwt>0</asrwt>
<pdfrwt beam="2">  1        2 0.32016632E+00 0.12722115E+03</pdfrwt>
<pdfrwt beam="1">  1       -2 0.12465783E-02 0.12722115E+03</pdfrwt>
<totfact> 0.10220472E+04</totfact>
</mgrwt>
</event>
<event>
 8    3  0.1559595E-003  0.1522792E+03  0.7818608E-02  0.1206204E+00
         -2   -1    0    0    0  501 -0.00000000000E+00  0.00000000000E+00  0.12740050903E+02  0.12740051158E+02  0.25500000000E-02 0.  1.
          2   -1    0    0  501    0  0.00000000000E+00 -0.00000000000E+00 -0.15988282845E+04  0.15988282845E+04  0.25500000000E-02 0. -1.
         25    2    1    2    0    0  0.83967389307E+02 -0.22665894510E+02 -0.69244663268E+03  0.70899315763E+03  0.12499877286E+03 0.  0.
         23    2    1    2    0    0 -0.83967389307E+02  0.22665894510E+02 -0.89364160092E+03  0.90257517803E+03  0.92099814678E+02 0.  0.
        -13    1    4    4    0    0 -0.83862222959E+02 -0.14945534650E+02 -0.71220568736E+03  0.71728180914E+03  0.10566000000E+00 0.  1.
         13    1    4    4    0    0 -0.10516634774E+00  0.37611429159E+02 -0.18143591355E+03  0.18529336889E+03  0.10566000000E+00 0. -1.
    9000005    1    3    3    0    0 -0.67571541118E+01  0.26854760090E+02 -0.41563242939E+02  0.49953382616E+02  0.10000000000E+01 0.  0.
    9000005    1    3    3    0    0  0.90724543419E+02 -0.49520654599E+02 -0.65088338974E+03  0.65903977501E+03  0.10000000000E+01 0.  0.
<mgrwt>
<rscale>  0 0.14542983E+03</rscale>
<asrwt>0</asrwt>
<pdfrwt beam="2">  1        2 0.24597342E+00 0.15227921E+03</pdfrwt>
<pdfrwt beam="1">  1       -2 0.19600091E-02 0.15227921E+03</pdfrwt>
<totfact> 0.94494643E+03</totfact>
</mgrwt>
</event>
<event>
 8    3  0.1559595E-003  0.1402977E+03  0.7818608E-02  0.1223949E+00
          2   -1    0    0  501    0  0.00000000000E+00  0.00000000000E+00  0.59192493927E+03  0.59192493927E+03  0.25500000000E-02 0.  1.
         -2   -1    0    0    0  501 -0.00000000000E+00 -0.00000000000E+00 -0.26729963145E+02  0.26729963267E+02  0.25500000000E-02 0. -1.
         25    2    1    2    0    0  0.49574391454E+02  0.39989660988E+02  0.31955343004E+03  0.34899547125E+03  0.12500660395E+03 0.  0.
         23    2    1    2    0    0 -0.49574391454E+02 -0.39989660988E+02  0.24564154608E+03  0.26965943129E+03  0.91212095940E+02 0.  0.
        -13    1    4    4    0    0 -0.17532425248E+02 -0.20936258976E+02  0.70909908281E+01  0.28213581658E+02  0.10566000000E+00 0. -1.
         13    1    4    4    0    0 -0.32041966206E+02 -0.19053402012E+02  0.23855055526E+03  0.24144584963E+03  0.10566000000E+00 0.  1.
    9000005    1    3    3    0    0 -0.22400100674E+02  0.51500239130E+02  0.21017804629E+03  0.21755424676E+03  0.10000000000E+01 0.  0.
    9000005    1    3    3    0    0  0.71974492129E+02 -0.11510578141E+02  0.10937538375E+03  0.13144122449E+03  0.10000000000E+01 0.  0.
<mgrwt>
<rscale>  0 0.13239219E+03</rscale>
<asrwt>0</asrwt>
<pdfrwt beam="1">  1        2 0.91065366E-01 0.14029770E+03</pdfrwt>
<pdfrwt beam="2">  1       -2 0.41123024E-02 0.14029770E+03</pdfrwt>
<totfact> 0.12875800E+04</totfact>
</mgrwt>
</event>
<event>
 8    3  0.1559595E-003  0.1920749E+03  0.7818608E-02  0.1161551E+00
          2   -1    0    0  501    0  0.00000000000E+00  0.00000000000E+00  0.13988482516E+03  0.13988482518E+03  0.25500000000E-02 0. -1.
         -2   -1    0    0    0  501 -0.00000000000E+00 -0.00000000000E+00 -0.24705717378E+03  0.24705717380E+03  0.25500000000E-02 0.  1.
         25    2    1    2    0    0 -0.10067881113E+03  0.10550863569E+03 -0.15269906107E+02  0.19268090697E+03  0.12499786663E+03 0.  0.
         23    2    1    2    0    0  0.10067881113E+03 -0.10550863569E+03 -0.91902442520E+02  0.19426109201E+03  0.89571299600E+02 0.  0.
        -13    1    4    4    0    0  0.21293183659E+02 -0.49905116131E+02 -0.79925059236E+02  0.96602000726E+02  0.10566000000E+00 0.  1.
         13    1    4    4    0    0  0.79385627467E+02 -0.55603519560E+02 -0.11977383285E+02  0.97659091283E+02  0.10566000000E+00 0. -1.
    9000005    1    3    3    0    0  0.57931082163E+01  0.50458173221E+02  0.36049715029E+02  0.62291004979E+02  0.10000000000E+01 0.  0.
    9000005    1    3    3    0    0 -0.10647191934E+03  0.55050462471E+02 -0.51319621136E+02  0.13038990199E+03  0.10000000000E+01 0.  0.
<mgrwt>
<rscale>  0 0.18661446E+03</rscale>
<asrwt>0</asrwt>
<pdfrwt beam="1">  1        2 0.21520742E-01 0.19207489E+03</pdfrwt>
<pdfrwt beam="2">  1       -2 0.38008796E-01 0.19207489E+03</pdfrwt>
<totfact> 0.16558057E+03</totfact>
</mgrwt>
</event>
<event>
 8    3  0.1559595E-003  0.1302096E+03  0.7818608E-02  0.1241699E+00
          2   -1    0    0  501    0  0.00000000000E+00  0.00000000000E+00  0.15917759940E+03  0.15917759943E+03  0.25500000000E-02 0.  1.
         -2   -1    0    0    0  501 -0.00000000000E+00 -0.00000000000E+00 -0.82092862697E+02  0.82092862737E+02  0.25500000000E-02 0. -1.
         25    2    1    2    0    0  0.28599015299E+02  0.22577534670E+02  0.59076314200E+02  0.14298448019E+03  0.12500760749E+03 0.  0.
         23    2    1    2    0    0 -0.28599015299E+02 -0.22577534670E+02  0.18008422508E+02  0.98285981968E+02  0.89488447424E+02 0.  0.
        -13    1    4    4    0    0 -0.35585330998E+02  0.27435757467E+02  0.81801340036E+00  0.44941260329E+02  0.10566000000E+00 0.  1.
         13    1    4    4    0    0  0.69863156987E+01 -0.50013292137E+02  0.17190409107E+02  0.53344721639E+02  0.10566000000E+00 0. -1.
    9000005    1    3    3    0    0  0.84873814316E+01  0.42179507769E+02 -0.28095098703E+02  0.51395341135E+02  0.10000000000E+01 0.  0.
    9000005    1    3    3    0    0  0.20111633867E+02 -0.19601973100E+02  0.87171412903E+02  0.91589139060E+02  0.10000000000E+01 0.  0.
<mgrwt>
<rscale>  0 0.12085134E+03</rscale>
<asrwt>0</asrwt>
<pdfrwt beam="1">  1        2 0.24488861E-01 0.13020964E+03</pdfrwt>
<pdfrwt beam="2">  1       -2 0.12629671E-01 0.13020964E+03</pdfrwt>
<totfact> 0.94107123E+03</totfact>
</mgrwt>
</event>
<event>
 8    3  0.1559595E-003  0.1386823E+03  0.7818608E-02  0.1226656E+00
          2   -1    0    0  501    0  0.00000000000E+00  0.00000000000E+00  0.14834004529E+03  0.14834004531E+03  0.25500000000E-02 0. -1.
         -2   -1    0    0    0  501 -0.00000000000E+00 -0.00000000000E+00 -0.11068653761E+03  0.11068653764E+03  0.25500000000E-02 0.  1.
         25    2    1    2    0    0 -0.14269495025E+02 -0.58348047533E+02 -0.12327737165E+02  0.13922915879E+03  0.12499868966E+03 0.  0.
         23    2    1    2    0    0  0.14269495025E+02  0.58348047533E+02  0.49981244846E+02  0.11979742416E+03  0.90803000277E+02 0.  0.
        -13    1    4    4    0    0  0.22822047961E+02  0.62915231973E+02  0.70435435762E+02  0.97161381538E+02  0.10566000000E+00 0. -1.
         13    1    4    4    0    0 -0.85525529360E+01 -0.45671844398E+01 -0.20454190916E+02  0.22636042620E+02  0.10566000000E+00 0.  1.
    9000005    1    3    3    0    0 -0.32796511532E+02 -0.39590770503E+02  0.49892023208E+02  0.71646732357E+02  0.10000000000E+01 0.  0.
    9000005    1    3    3    0    0  0.18527016507E+02 -0.18757277030E+02 -0.62219760373E+02  0.67582426437E+02  0.10000000000E+01 0.  0.
<mgrwt>
<rscale>  0 0.13054064E+03</rscale>
<asrwt>0</asrwt>
<pdfrwt beam="1">  1        2 0.22821545E-01 0.13868232E+03</pdfrwt>
<pdfrwt beam="2">  1       -2 0.17028698E-01 0.13868232E+03</pdfrwt>
<totfact> 0.62811385E+03</totfact>
</mgrwt>
</event>
<event>
 8    3  0.1559595E-003  0.1311201E+03  0.7818608E-02  0.1238619E+00
          2   -1    0    0  501    0  0.00000000000E+00  0.00000000000E+00  0.18097592216E+04  0.18097592216E+04  0.25500000000E-02 0. -1.
         -2   -1    0    0    0  501 -0.00000000000E+00 -0.00000000000E+00 -0.82222831951E+01  0.82222835905E+01  0.25500000000E-02 0.  1.
         25    2    1    2    0    0 -0.28936389319E+02  0.27040987967E+02  0.12881410618E+04  0.12947972289E+04  0.12499575631E+03 0.  0.
         23    2    1    2    0    0  0.28936389319E+02 -0.27040987967E+02  0.51339587664E+03  0.52318427638E+03  0.92617121724E+02 0.  0.
        -13    1    4    4    0    0 -0.21199754617E+01  0.28168889449E+02  0.73335552336E+02  0.78588135422E+02  0.10566000000E+00 0.  1.
         13    1    4    4    0    0  0.31056364780E+02 -0.55209877416E+02  0.44006032431E+03  0.44459614095E+03  0.10566000000E+00 0. -1.
    9000005    1    3    3    0    0 -0.46681732312E+02 -0.37163687081E+02  0.43747926218E+03  0.44153077877E+03  0.10000000000E+01 0.  0.
    9000005    1    3    3    0    0  0.17745342993E+02  0.64204675048E+02  0.85066179963E+03  0.85326645009E+03  0.10000000000E+01 0.  0.
<mgrwt>
<rscale>  0 0.12275556E+03</rscale>
<asrwt>0</asrwt>
<pdfrwt beam="1">  1        2 0.27842471E+00 0.13112005E+03</pdfrwt>
<pdfrwt beam="2">  1       -2 0.12649657E-02 0.13112005E+03</pdfrwt>
<totfact> 0.13781715E+04</totfact>
</mgrwt>
</event>
<event>
 8    3  0.1559595E-003  0.1535705E+03  0.7818608E-02  0.1204784E+00
          2   -1    0    0  501    0  0.00000000000E+00  0.00000000000E+00  0.16564580336E+04  0.16564580336E+04  0.25500000000E-02 0. -1.
         -2   -1    0    0    0  501 -0.00000000000E+00 -0.00000000000E+00 -0.13837601963E+02  0.13837602197E+02  0.25500000000E-02 0.  1.
         25    2    1    2    0    0 -0.67370092142E+01 -0.88947569305E+02  0.11978946796E+04  0.12076984527E+04  0.12500732769E+03 0.  0.
         23    2    1    2    0    0  0.67370092142E+01  0.88947569305E+02  0.44472575207E+03  0.46259718309E+03  0.90874098979E+02 0.  0.
        -13    1    4    4    0    0 -0.27279413663E+02 -0.46780935831E+01  0.91596117338E+02  0.95686523841E+02  0.10566000000E+00 0. -1.
         13    1    4    4    0    0  0.34016422877E+02  0.93625662888E+02  0.35312963473E+03  0.36691065925E+03  0.10566000000E+00 0.  1.
    9000005    1    3    3    0    0 -0.17191512267E+02 -0.49562233706E+02  0.11051115289E+04  0.11063563867E+04  0.10000000000E+01 0.  0.
    9000005    1    3    3    0    0  0.10454503053E+02 -0.39385335599E+02  0.92783150652E+02  0.10134206599E+03  0.10000000000E+01 0.  0.
<mgrwt>
<rscale>  0 0.14654498E+03</rscale>
<asrwt>0</asrwt>
<pdfrwt beam="1">  1        2 0.25483947E+00 0.15357047E+03</pdfrwt>
<pdfrwt beam="2">  1       -2 0.21288638E-02 0.15357047E+03</pdfrwt>
<totfact> 0.78240098E+03</totfact>
</mgrwt>
</event>
<event>
 8    3  0.1559595E-003  0.1272321E+03  0.7818608E-02  0.1245587E+00
         -2   -1    0    0    0  501 -0.00000000000E+00  0.00000000000E+00  0.13235851704E+02  0.13235851950E+02  0.25500000000E-02 0.  1.
          2   -1    0    0  501    0  0.00000000000E+00 -0.00000000000E+00 -0.94338807761E+03  0.94338807761E+03  0.25500000000E-02 0. -1.
         25    2    1    2    0    0 -0.18683058857E+02  0.14551542810E+02 -0.56231787779E+03  0.57653222883E+03  0.12500884412E+03 0.  0.
         23    2    1    2    0    0  0.18683058857E+02 -0.14551542810E+02 -0.36783434811E+03  0.38009170073E+03  0.92772782797E+02 0.  0.
        -13    1    4    4    0    0 -0.22970319007E+02  0.22428935904E+02 -0.68904503968E+02  0.76016672856E+02  0.10566000000E+00 0.  1.
         13    1    4    4    0    0  0.41653377865E+02 -0.36980478713E+02 -0.29892984414E+03  0.30407502787E+03  0.10566000000E+00 0. -1.
    9000005    1    3    3    0    0 -0.54902859635E+02 -0.18732424203E+02 -0.14276123779E+03  0.15410061235E+03  0.10000000000E+01 0.  0.
    9000005    1    3    3    0    0  0.36219800777E+02  0.33283967013E+02 -0.41955664000E+03  0.42243161648E+03  0.10000000000E+01 0.  0.
<mgrwt>
<rscale>  0 0.11850305E+03</rscale>
<asrwt>0</asrwt>
<pdfrwt beam="2">  1        2 0.14513657E+00 0.12723213E+03</pdfrwt>
<pdfrwt beam="1">  1       -2 0.20362856E-02 0.12723213E+03</pdfrwt>
<totfact> 0.20318333E+04</totfact>
</mgrwt>
</event>
<event>
 8    3  0.1559595E-003  0.1325069E+03  0.7818608E-02  0.1238345E+00
          2   -1    0    0  501    0  0.00000000000E+00  0.00000000000E+00  0.16421974807E+03  0.16421974809E+03  0.25500000000E-02 0. -1.
         -2   -1    0    0    0  501 -0.00000000000E+00 -0.00000000000E+00 -0.82976563964E+02  0.82976564003E+02  0.25500000000E-02 0.  1.
         25    2    1    2    0    0 -0.39442447013E+02 -0.19400134955E+02  0.27616336653E+02  0.13535416497E+03  0.12500406418E+03 0.  0.
         23    2    1    2    0    0  0.39442447013E+02  0.19400134955E+02  0.53626847452E+02  0.11184214712E+03  0.87753947164E+02 0.  0.
        -13    1    4    4    0    0  0.44574548190E+02  0.14755369007E+02 -0.98612259898E+01  0.47977767798E+02  0.10566000000E+00 0.  1.
         13    1    4    4    0    0 -0.51321011764E+01  0.46447659475E+01  0.63488073442E+02  0.63864379325E+02  0.10566000000E+00 0. -1.
    9000005    1    3    3    0    0 -0.62211741179E+01 -0.69164098096E+02  0.86449276456E-02  0.69450525898E+02  0.10000000000E+01 0.  0.
    9000005    1    3    3    0    0 -0.33221272895E+02  0.49763963141E+02  0.27607691725E+02  0.65903639070E+02  0.10000000000E+01 0.  0.
<mgrwt>
<rscale>  0 0.12292725E+03</rscale>
<asrwt>0</asrwt>
<pdfrwt beam="1">  1        2 0.25264576E-01 0.13250694E+03</pdfrwt>
<pdfrwt beam="2">  1       -2 0.12765625E-01 0.13250694E+03</pdfrwt>
<totfact> 0.89502671E+03</totfact>
</mgrwt>
</event>
<event>
 8    3  0.1559595E-003  0.1702138E+03  0.7818608E-02  0.1183903E+00
         -2   -1    0    0    0  501 -0.00000000000E+00  0.00000000000E+00  0.70342117190E+01  0.70342121812E+01  0.25500000000E-02 0.  1.
          2   -1    0    0  501    0  0.00000000000E+00 -0.00000000000E+00 -0.36071455206E+04  0.36071455206E+04  0.25500000000E-02 0. -1.
         25    2    1    2    0    0  0.69818071811E+02 -0.92048343508E+02 -0.18223967707E+04  0.18303285832E+04  0.12500108813E+03 0.  0.
         23    2    1    2    0    0 -0.69818071811E+02  0.92048343508E+02 -0.17777145382E+04  0.17838511495E+04  0.92241442996E+02 0.  0.
        -13    1    4    4    0    0  0.70557116430E+01  0.62347524117E+02 -0.60520011634E+03  0.60844407205E+03  0.10566000000E+00 0. -1.
         13    1    4    4    0    0 -0.76873783454E+02  0.29700819391E+02 -0.11725144218E+04  0.11754070775E+04  0.10566000000E+00 0.  1.
    9000005    1    3    3    0    0  0.23196612925E+02 -0.54047158302E+02 -0.15606530980E+04  0.15617612719E+04  0.10000000000E+01 0.  0.
    9000005    1    3    3    0    0  0.46621458886E+02 -0.38001185205E+02 -0.26174367271E+03  0.26856731132E+03  0.10000000000E+01 0.  0.
<mgrwt>
<rscale>  0 0.16432069E+03</rscale>
<asrwt>0</asrwt>
<pdfrwt beam="2">  1        2 0.55494399E+00 0.17021379E+03</pdfrwt>
<pdfrwt beam="1">  1       -2 0.10821893E-02 0.17021379E+03</pdfrwt>
<totfact> 0.16695650E+03</totfact>
</mgrwt>
</event>
<event>
 8    3  0.1559595E-003  0.1370981E+03  0.7818608E-02  0.1228689E+00
         -2   -1    0    0    0  501 -0.00000000000E+00  0.00000000000E+00  0.61133368077E+03  0.61133368077E+03  0.25500000000E-02 0.  1.
          2   -1    0    0  501    0  0.00000000000E+00 -0.00000000000E+00 -0.24855871752E+02  0.24855871882E+02  0.25500000000E-02 0. -1.
         25    2    1    2    0    0 -0.51615729609E+02 -0.22536541062E+02  0.29398989559E+03  0.32438547166E+03  0.12499518507E+03 0.  0.
         23    2    1    2    0    0  0.51615729609E+02  0.22536541062E+02  0.29248791343E+03  0.31180408100E+03  0.92198298236E+02 0.  0.
        -13    1    4    4    0    0  0.39235216666E+02 -0.28531399035E+00  0.33715221891E+02  0.51732107845E+02  0.10566000000E+00 0. -1.
         13    1    4    4    0    0  0.12380512944E+02  0.22821855052E+02  0.25877269154E+03  0.26007197315E+03  0.10566000000E+00 0.  1.
    9000005    1    3    3    0    0 -0.86936452566E+02 -0.33407256098E+02  0.15751255721E+03  0.18298960961E+03  0.10000000000E+01 0.  0.
    9000005    1    3    3    0    0  0.35320722956E+02  0.10870715036E+02  0.13647733837E+03  0.14139586205E+03  0.10000000000E+01 0.  0.
<mgrwt>
<rscale>  0 0.12917231E+03</rscale>
<asrwt>0</asrwt>
<pdfrwt beam="2">  1        2 0.38239802E-02 0.13709805E+03</pdfrwt>
<pdfrwt beam="1">  1       -2 0.94051338E-01 0.13709805E+03</pdfrwt>
<totfact> 0.21363704E+03</totfact>
</mgrwt>
</event>
<event>
 8    3  0.1559595E-003  0.1274762E+03  0.7818608E-02  0.1245339E+00
          2   -1    0    0  501    0  0.00000000000E+00  0.00000000000E+00  0.32651595848E+03  0.32651595849E+03  0.25500000000E-02 0. -1.
         -2   -1    0    0    0  501 -0.00000000000E+00 -0.00000000000E+00 -0.40434862663E+02  0.40434862744E+02  0.25500000000E-02 0.  1.
         25    2    1    2    0    0  0.23057745062E+02 -0.97132370979E+01  0.20567412665E+03  0.24197524640E+03  0.12499666763E+03 0.  0.
         23    2    1    2    0    0 -0.23057745062E+02  0.97132370979E+01  0.80406969170E+02  0.12497557483E+03  0.92345043344E+02 0.  0.
        -13    1    4    4    0    0 -0.29687445046E+02 -0.11698092425E+02  0.93652931063E+02  0.98939741361E+02  0.10566000000E+00 0. -1.
         13    1    4    4    0    0  0.66296999843E+01  0.21411329523E+02 -0.13245961893E+02  0.26035833467E+02  0.10566000000E+00 0.  1.
    9000005    1    3    3    0    0  0.29414049555E+02 -0.65089836371E+02  0.12359199245E+03  0.14275101999E+03  0.10000000000E+01 0.  0.
    9000005    1    3    3    0    0 -0.63563044930E+01  0.55376599273E+02  0.82082134199E+02  0.99224226419E+02  0.10000000000E+01 0.  0.
<mgrwt>
<rscale>  0 0.11865084E+03</rscale>
<asrwt>0</asrwt>
<pdfrwt beam="1">  1        2 0.50233225E-01 0.12747617E+03</pdfrwt>
<pdfrwt beam="2">  1       -2 0.62207481E-02 0.12747617E+03</pdfrwt>
<totfact> 0.13083099E+04</totfact>
</mgrwt>
</event>
<event>
 8    3  0.1559595E-003  0.1527904E+03  0.7818608E-02  0.1204652E+00
         -2   -1    0    0    0  501 -0.00000000000E+00  0.00000000000E+00  0.60462594334E+02  0.60462594388E+02  0.25500000000E-02 0.  1.
          2   -1    0    0  501    0  0.00000000000E+00 -0.00000000000E+00 -0.33018240456E+03  0.33018240457E+03  0.25500000000E-02 0. -1.
         25    2    1    2    0    0 -0.38250815664E+02 -0.79101323857E+02 -0.14005020005E+03  0.20726541602E+03  0.12499899922E+03 0.  0.
         23    2    1    2    0    0  0.38250815664E+02  0.79101323857E+02 -0.12966961017E+03  0.18337958294E+03  0.95360994654E+02 0.  0.
        -13    1    4    4    0    0  0.25568961160E+02  0.48038495186E+02 -0.13839633596E+03  0.14871121601E+03  0.10566000000E+00 0. -1.
         13    1    4    4    0    0  0.12681854504E+02  0.31062828671E+02  0.87267257887E+01  0.34668366932E+02  0.10566000000E+00 0.  1.
    9000005    1    3    3    0    0 -0.13040738681E+02  0.15405046075E+02 -0.99241192400E+02  0.10127778917E+03  0.10000000000E+01 0.  0.
    9000005    1    3    3    0    0 -0.25210076983E+02 -0.94506369932E+02 -0.40809007651E+02  0.10598762685E+03  0.10000000000E+01 0.  0.
<mgrwt>
<rscale>  0 0.14664944E+03</rscale>
<asrwt>0</asrwt>
<pdfrwt beam="2">  1        2 0.50797292E-01 0.15279036E+03</pdfrwt>
<pdfrwt beam="1">  1       -2 0.93019378E-02 0.15279036E+03</pdfrwt>
<totfact> 0.70476721E+03</totfact>
</mgrwt>
</event>
<event>
 8    3  0.1559595E-003  0.1783534E+03  0.7818608E-02  0.1175274E+00
         -2   -1    0    0    0  501 -0.00000000000E+00  0.00000000000E+00  0.21431465214E+02  0.21431465366E+02  0.25500000000E-02 0.  1.
          2   -1    0    0  501    0  0.00000000000E+00 -0.00000000000E+00 -0.16994358775E+04  0.16994358775E+04  0.25500000000E-02 0. -1.
         25    2    1    2    0    0  0.12618801477E+03  0.16178045881E+02 -0.46781956322E+03  0.50066462518E+03  0.12499911573E+03 0.  0.
         23    2    1    2    0    0 -0.12618801477E+03 -0.16178045881E+02 -0.12101848490E+04  0.12202027177E+04  0.90344668412E+02 0.  0.
        -13    1    4    4    0    0 -0.84235701280E+02 -0.20850015577E+02 -0.41895767032E+03  0.42785034440E+03  0.10566000000E+00 0.  1.
         13    1    4    4    0    0 -0.41952313489E+02  0.46719696956E+01 -0.79122717872E+03  0.79235237327E+03  0.10566000000E+00 0. -1.
    9000005    1    3    3    0    0  0.76182757536E+02  0.59089141766E+01 -0.43098185993E+03  0.43770434245E+03  0.10000000000E+01 0.  0.
    9000005    1    3    3    0    0  0.50005257233E+02  0.10269131705E+02 -0.36837703286E+02  0.62960282721E+02  0.10000000000E+01 0.  0.
<mgrwt>
<rscale>  0 0.17249136E+03</rscale>
<asrwt>0</asrwt>
<pdfrwt beam="2">  1        2 0.26145157E+00 0.17835337E+03</pdfrwt>
<pdfrwt beam="1">  1       -2 0.32971499E-02 0.17835337E+03</pdfrwt>
<totfact> 0.39171392E+03</totfact>
</mgrwt>
</event>
<event>
 8    3  0.1559595E-003  0.1341184E+03  0.7818608E-02  0.1234533E+00
          2   -1    0    0  501    0  0.00000000000E+00  0.00000000000E+00  0.56555459234E+02  0.56555459291E+02  0.25500000000E-02 0.  1.
         -2   -1    0    0    0  501 -0.00000000000E+00 -0.00000000000E+00 -0.25976361252E+03  0.25976361253E+03  0.25500000000E-02 0. -1.
         25    2    1    2    0    0 -0.48277758083E+02 -0.56568373297E+01 -0.14921252557E+03  0.20062934962E+03  0.12500006563E+03 0.  0.
         23    2    1    2    0    0  0.48277758083E+02  0.56568373297E+01 -0.53995627716E+02  0.11568972220E+03  0.90032451245E+02 0.  0.
        -13    1    4    4    0    0  0.26602401182E+02  0.34246435037E+02 -0.65021925631E+02  0.78156049275E+02  0.10566000000E+00 0. -1.
         13    1    4    4    0    0  0.21675356900E+02 -0.28589597707E+02  0.11026297915E+02  0.37533672929E+02  0.10566000000E+00 0.  1.
    9000005    1    3    3    0    0  0.25329651133E+02  0.37112621112E+01 -0.11692976481E+03  0.11970352790E+03  0.10000000000E+01 0.  0.
    9000005    1    3    3    0    0 -0.73607409216E+02 -0.93680994409E+01 -0.32282760758E+02  0.80925821718E+02  0.10000000000E+01 0.  0.
<mgrwt>
<rscale>  0 0.12534366E+03</rscale>
<asrwt>0</asrwt>
<pdfrwt beam="1">  1        2 0.87008400E-02 0.13411845E+03</pdfrwt>
<pdfrwt beam="2">  1       -2 0.39963632E-01 0.13411845E+03</pdfrwt>
<totfact> 0.43407521E+03</totfact>
</mgrwt>
</event>
<event>
 8    3  0.1559595E-003  0.1482173E+03  0.7818608E-02  0.1212393E+00
          2   -1    0    0  501    0  0.00000000000E+00  0.00000000000E+00  0.26817966768E+03  0.26817966769E+03  0.25500000000E-02 0. -1.
         -2   -1    0    0    0  501 -0.00000000000E+00 -0.00000000000E+00 -0.76758785794E+02  0.76758785836E+02  0.25500000000E-02 0.  1.
         25    2    1    2    0    0  0.79316111296E+02  0.71943472280E+01  0.43960170553E+02  0.15459900419E+03  0.12500220541E+03 0.  0.
         23    2    1    2    0    0 -0.79316111296E+02 -0.71943472280E+01  0.14746071133E+03  0.19033944934E+03  0.90231039249E+02 0.  0.
        -13    1    4    4    0    0  0.11428107452E+02 -0.12619195840E+01 -0.52209303388E+01  0.12627880210E+02  0.10566000000E+00 0.  1.
         13    1    4    4    0    0 -0.90744218748E+02 -0.59324276441E+01  0.15268164167E+03  0.17771156913E+03  0.10566000000E+00 0. -1.
    9000005    1    3    3    0    0  0.94130310705E+02 -0.22538187863E+02 -0.32661553054E+01  0.96851190370E+02  0.10000000000E+01 0.  0.
    9000005    1    3    3    0    0 -0.14814199408E+02  0.29732535092E+02  0.47226325858E+02  0.57747813821E+02  0.10000000000E+01 0.  0.
<mgrwt>
<rscale>  0 0.14069764E+03</rscale>
<asrwt>0</asrwt>
<pdfrwt beam="1">  1        2 0.41258410E-01 0.14821726E+03</pdfrwt>
<pdfrwt beam="2">  1       -2 0.11809044E-01 0.14821726E+03</pdfrwt>
<totfact> 0.60167418E+03</totfact>
</mgrwt>
</event>
<event>
 8    3  0.1559595E-003  0.1459034E+03  0.7818608E-02  0.1215104E+00
          2   -1    0    0  501    0  0.00000000000E+00  0.00000000000E+00  0.21696120747E+04  0.21696120747E+04  0.25500000000E-02 0. -1.
         -2   -1    0    0    0  501 -0.00000000000E+00 -0.00000000000E+00 -0.81020817247E+01  0.81020821260E+01  0.25500000000E-02 0.  1.
         25    2    1    2    0    0 -0.55397829337E+02 -0.50894611121E+02  0.12259610791E+04  0.12346126435E+04  0.12501452271E+03 0.  0.
         23    2    1    2    0    0  0.55397829337E+02  0.50894611121E+02  0.93554891384E+03  0.94310151337E+03  0.92355364768E+02 0.  0.
        -13    1    4    4    0    0  0.70213770745E+02  0.65178683116E+02  0.83426671763E+03  0.83974948744E+03  0.10566000000E+00 0. -1.
         13    1    4    4    0    0 -0.14815941408E+02 -0.14284071995E+02  0.10128219620E+03  0.10335202593E+03  0.10566000000E+00 0.  1.
    9000005    1    3    3    0    0  0.18100822923E+02 -0.30700902060E+02  0.10167007493E+03  0.10774037922E+03  0.10000000000E+01 0.  0.
    9000005    1    3    3    0    0 -0.73498652261E+02 -0.20193709061E+02  0.11242910042E+04  0.11268722642E+04  0.10000000000E+01 0.  0.
<mgrwt>
<rscale>  0 0.13868897E+03</rscale>
<asrwt>0</asrwt>
<pdfrwt beam="1">  1        2 0.33378698E+00 0.14590343E+03</pdfrwt>
<pdfrwt beam="2">  1       -2 0.12464723E-02 0.14590343E+03</pdfrwt>
<totfact> 0.92380079E+03</totfact>
</mgrwt>
</event>
<event>
 8    3  0.1559595E-003  0.1285521E+03  0.7818608E-02  0.1244346E+00
         -2   -1    0    0    0  501 -0.00000000000E+00  0.00000000000E+00  0.43020979089E+02  0.43020979164E+02  0.25500000000E-02 0.  1.
          2   -1    0    0  501    0  0.00000000000E+00 -0.00000000000E+00 -0.31259371546E+03  0.31259371547E+03  0.25500000000E-02 0. -1.
         25    2    1    2    0    0 -0.19891296070E+02  0.22477539918E+02 -0.19987122996E+03  0.23764292121E+03  0.12499898390E+03 0.  0.
         23    2    1    2    0    0  0.19891296070E+02 -0.22477539918E+02 -0.69701506409E+02  0.11797177342E+03  0.90322399591E+02 0.  0.
        -13    1    4    4    0    0 -0.49677355612E+01  0.33336057596E+02 -0.29870353268E+02  0.45035766909E+02  0.10566000000E+00 0.  1.
         13    1    4    4    0    0  0.24859031631E+02 -0.55813597514E+02 -0.39831153141E+02  0.72936006510E+02  0.10566000000E+00 0. -1.
    9000005    1    3    3    0    0  0.21269467018E+02  0.17373993315E+02 -0.19376949544E+03  0.19570861819E+03  0.10000000000E+01 0.  0.
    9000005    1    3    3    0    0 -0.41160763087E+02  0.51035466029E+01 -0.61017345206E+01  0.41934303023E+02  0.10000000000E+01 0.  0.
<mgrwt>
<rscale>  0 0.11924625E+03</rscale>
<asrwt>0</asrwt>
<pdfrwt beam="2">  1        2 0.48091339E-01 0.12855213E+03</pdfrwt>
<pdfrwt beam="1">  1       -2 0.66186124E-02 0.12855213E+03</pdfrwt>
<totfact> 0.12476754E+04</totfact>
</mgrwt>
</event>
<event>
 8    3  0.1559595E-003  0.1263082E+03  0.7818608E-02  0.1247898E+00
          2   -1    0    0  501    0  0.00000000000E+00  0.00000000000E+00  0.73399911424E+03  0.73399911425E+03  0.25500000000E-02 0. -1.
         -2   -1    0    0    0  501 -0.00000000000E+00 -0.00000000000E+00 -0.16446030415E+02  0.16446030613E+02  0.25500000000E-02 0.  1.
         25    2    1    2    0    0 -0.15049572382E+02  0.10121822719E+02  0.40962078791E+03  0.42865248777E+03  0.12499929784E+03 0.  0.
         23    2    1    2    0    0  0.15049572382E+02 -0.10121822719E+02  0.30793229592E+03  0.32179265709E+03  0.91647555137E+02 0.  0.
        -13    1    4    4    0    0  0.36712253375E+02 -0.23809927672E+02  0.70459377098E+02  0.82941167032E+02  0.10566000000E+00 0.  1.
         13    1    4    4    0    0 -0.21662680992E+02  0.13688104954E+02  0.23747291882E+03  0.23885149006E+03  0.10566000000E+00 0. -1.
    9000005    1    3    3    0    0  0.16710160851E+02 -0.26665461119E+01 -0.64111241816E+00  0.16963224015E+02  0.10000000000E+01 0.  0.
    9000005    1    3    3    0    0 -0.31759733234E+02  0.12788368831E+02  0.41026190033E+03  0.41168926376E+03  0.10000000000E+01 0.  0.
<mgrwt>
<rscale>  0 0.11713573E+03</rscale>
<asrwt>0</asrwt>
<pdfrwt beam="1">  1        2 0.11292294E+00 0.12630822E+03</pdfrwt>
<pdfrwt beam="2">  1       -2 0.25301585E-02 0.12630822E+03</pdfrwt>
<totfact> 0.20324351E+04</totfact>
</mgrwt>
</event>
<event>
 8    3  0.1559595E-003  0.2128660E+03  0.7818608E-02  0.1143428E+00
          2   -1    0    0  501    0  0.00000000000E+00  0.00000000000E+00  0.70807730737E+03  0.70807730737E+03  0.25500000000E-02 0.  1.
         -2   -1    0    0    0  501 -0.00000000000E+00 -0.00000000000E+00 -0.60696086779E+02  0.60696086832E+02  0.25500000000E-02 0. -1.
         25    2    1    2    0    0 -0.17186785673E+03  0.12202294515E+02  0.25970604372E+03  0.33579631045E+03  0.12499790718E+03 0.  0.
         23    2    1    2    0    0  0.17186785673E+03 -0.12202294515E+02  0.38767517687E+03  0.43297708376E+03  0.86542799403E+02 0.  0.
        -13    1    4    4    0    0  0.77985313463E+02 -0.30515995219E+02  0.26189546106E+03  0.27495850372E+03  0.10566000000E+00 0.  1.
         13    1    4    4    0    0  0.93882543263E+02  0.18313700703E+02  0.12577971581E+03  0.15801858004E+03  0.10566000000E+00 0. -1.
    9000005    1    3    3    0    0 -0.19109244883E+03  0.52654232336E+01  0.24417623877E+03  0.31010818155E+03  0.10000000000E+01 0.  0.
    9000005    1    3    3    0    0  0.19224592105E+02  0.69368712818E+01  0.15529804948E+02  0.25688128902E+02  0.10000000000E+01 0.  0.
<mgrwt>
<rscale>  0 0.20766542E+03</rscale>
<asrwt>0</asrwt>
<pdfrwt beam="1">  1        2 0.10893497E+00 0.21286600E+03</pdfrwt>
<pdfrwt beam="2">  1       -2 0.93378598E-02 0.21286600E+03</pdfrwt>
<totfact> 0.30359691E+03</totfact>
</mgrwt>
</event>
<event>
 8    3  0.1559595E-003  0.1271952E+03  0.7818608E-02  0.1246992E+00
          2   -1    0    0  501    0  0.00000000000E+00  0.00000000000E+00  0.29736458479E+02  0.29736458589E+02  0.25500000000E-02 0. -1.
         -2   -1    0    0    0  501 -0.00000000000E+00 -0.00000000000E+00 -0.40845743752E+03  0.40845743752E+03  0.25500000000E-02 0.  1.
         25    2    1    2    0    0  0.22003407169E+02 -0.82779937218E+01 -0.22364513802E+03  0.25728538183E+03  0.12500377929E+03 0.  0.
         23    2    1    2    0    0 -0.22003407169E+02  0.82779937218E+01 -0.15507584101E+03  0.18090851428E+03  0.90148205561E+02 0.  0.
        -13    1    4    4    0    0 -0.14521052669E+01 -0.40312647939E+02 -0.70585973475E+02  0.81299501899E+02  0.10566000000E+00 0. -1.
         13    1    4    4    0    0 -0.20551301902E+02  0.48590641661E+02 -0.84489867539E+02  0.99609012382E+02  0.10566000000E+00 0.  1.
    9000005    1    3    3    0    0 -0.46103440930E+02  0.78320543046E+01 -0.14323675310E+03  0.15068057532E+03  0.10000000000E+01 0.  0.
    9000005    1    3    3    0    0  0.68106848099E+02 -0.16110048026E+02 -0.80408384919E+02  0.10660480651E+03  0.10000000000E+01 0.  0.
<mgrwt>
<rscale>  0 0.11766955E+03</rscale>
<asrwt>0</asrwt>
<pdfrwt beam="1">  1        2 0.45748401E-02 0.12719520E+03</pdfrwt>
<pdfrwt beam="2">  1       -2 0.62839602E-01 0.12719520E+03</pdfrwt>
<totfact> 0.40202167E+03</totfact>
</mgrwt>
</event>
<event>
 8    3  0.1559595E-003  0.1292290E+03  0.7818608E-02  0.1243590E+00
          2   -1    0    0  501    0  0.00000000000E+00  0.00000000000E+00  0.11589503278E+04  0.11589503278E+04  0.25500000000E-02 0. -1.
         -2   -1    0    0    0  501 -0.00000000000E+00 -0.00000000000E+00 -0.10951437162E+02  0.10951437459E+02  0.25500000000E-02 0.  1.
         25    2    1    2    0    0 -0.18957928933E+01 -0.32740872546E+02  0.60720687342E+03  0.62080618000E+03  0.12499826891E+03 0.  0.
         23    2    1    2    0    0  0.18957928933E+01  0.32740872546E+02  0.54079201724E+03  0.54909558529E+03  0.89299479862E+02 0.  0.
        -13    1    4    4    0    0 -0.26243726830E+02  0.28200913009E+02  0.96717100690E+02  0.10410683658E+03  0.10566000000E+00 0.  1.
         13    1    4    4    0    0  0.28139519723E+02  0.45399595371E+01  0.44407491655E+03  0.44498874871E+03  0.10566000000E+00 0. -1.
    9000005    1    3    3    0    0 -0.34551950132E+02 -0.56551808693E+02  0.18219981235E+03  0.19388067450E+03  0.10000000000E+01 0.  0.
    9000005    1    3    3    0    0  0.32656157239E+02  0.23810936147E+02  0.42500706107E+03  0.42692550550E+03  0.10000000000E+01 0.  0.
<mgrwt>
<rscale>  0 0.11970181E+03</rscale>
<asrwt>0</asrwt>
<pdfrwt beam="1">  1        2 0.17830000E+00 0.12922897E+03</pdfrwt>
<pdfrwt beam="2">  1       -2 0.16848370E-02 0.12922897E+03</pdfrwt>
<totfact> 0.20028518E+04</totfact>
</mgrwt>
</event>
<event>
 8    3  0.1559595E-003  0.1276076E+03  0.7818608E-02  0.1245647E+00
         -2   -1    0    0    0  501 -0.00000000000E+00  0.00000000000E+00  0.10982539124E+03  0.10982539127E+03  0.25500000000E-02 0.  1.
          2   -1    0    0  501    0  0.00000000000E+00 -0.00000000000E+00 -0.12746689154E+03  0.12746689157E+03  0.25500000000E-02 0. -1.
         25    2    1    2    0    0  0.22175074649E+02 -0.12928707116E+02  0.30172115628E+02  0.13112607031E+03  0.12499921740E+03 0.  0.
         23    2    1    2    0    0 -0.22175074649E+02  0.12928707116E+02 -0.47813615930E+02  0.10616621253E+03  0.91248218676E+02 0.  0.
        -13    1    4    4    0    0  0.40824675878E+01 -0.35533371292E+02 -0.33987491058E+02  0.49340122917E+02  0.10566000000E+00 0. -1.
         13    1    4    4    0    0 -0.26257542237E+02  0.48462078408E+02 -0.13826124872E+02  0.56826089615E+02  0.10566000000E+00 0.  1.
    9000005    1    3    3    0    0  0.29544665061E+02 -0.64241509512E+02 -0.81819829458E+00  0.70721483485E+02  0.10000000000E+01 0.  0.
    9000005    1    3    3    0    0 -0.73695904116E+01  0.51312802396E+02  0.30990313922E+02  0.60404586826E+02  0.10000000000E+01 0.  0.
<mgrwt>
<rscale>  0 0.11846711E+03</rscale>
<asrwt>0</asrwt>
<pdfrwt beam="2">  1        2 0.19610291E-01 0.12760756E+03</pdfrwt>
<pdfrwt beam="1">  1       -2 0.16896214E-01 0.12760756E+03</pdfrwt>
<totfact> 0.74990356E+03</totfact>
</mgrwt>
</event>
<event>
 8    3  0.1559595E-003  0.1401496E+03  0.7818608E-02  0.1220454E+00
          2   -1    0    0  501    0  0.00000000000E+00  0.00000000000E+00  0.11454001366E+02  0.11454001650E+02  0.25500000000E-02 0.  1.
         -2   -1    0    0    0  501 -0.00000000000E+00 -0.00000000000E+00 -0.15892011667E+04  0.15892011667E+04  0.25500000000E-02 0. -1.
         25    2    1    2    0    0 -0.13877402382E+02  0.61842337133E+02 -0.63430636516E+03  0.64960485567E+03  0.12499938666E+03 0.  0.
         23    2    1    2    0    0  0.13877402382E+02 -0.61842337133E+02 -0.94344080020E+03  0.95105031271E+03  0.10197596220E+03 0.  0.
        -13    1    4    4    0    0  0.37964480587E+02  0.12996948876E+02 -0.25555987887E+03  0.25869110019E+03  0.10566000000E+00 0.  1.
         13    1    4    4    0    0 -0.24087078205E+02 -0.74839286009E+02 -0.68788092133E+03  0.69235921252E+03  0.10566000000E+00 0. -1.
    9000005    1    3    3    0    0  0.54448159763E+02  0.22502070706E+02 -0.33180470130E+03  0.33699600160E+03  0.10000000000E+01 0.  0.
    9000005    1    3    3    0    0 -0.68325562145E+02  0.39340266426E+02 -0.30250166386E+03  0.31260885407E+03  0.10000000000E+01 0.  0.
<mgrwt>
<rscale>  0 0.13483419E+03</rscale>
<asrwt>0</asrwt>
<pdfrwt beam="1">  1        2 0.17621553E-02 0.14014958E+03</pdfrwt>
<pdfrwt beam="2">  1       -2 0.24449231E+00 0.14014958E+03</pdfrwt>
<totfact> 0.49570432E+02</totfact>
</mgrwt>
</event>
<event>
 8    3  0.1559595E-003  0.1562267E+03  0.7818608E-02  0.1200681E+00
          2   -1    0    0  501    0  0.00000000000E+00  0.00000000000E+00  0.28769278858E+03  0.28769278859E+03  0.25500000000E-02 0.  1.
         -2   -1    0    0    0  501 -0.00000000000E+00 -0.00000000000E+00 -0.10200049750E+03  0.10200049753E+03  0.25500000000E-02 0. -1.
         25    2    1    2    0    0 -0.23145550772E+01  0.93684695291E+02  0.20325614266E+03  0.25635879998E+03  0.12499838199E+03 0.  0.
         23    2    1    2    0    0  0.23145550772E+01 -0.93684695291E+02 -0.17563851587E+02  0.13333448614E+03  0.93206314241E+02 0.  0.
        -13    1    4    4    0    0 -0.29356858115E+02 -0.88059420730E+02  0.66654217420E+01  0.93063020092E+02  0.10566000000E+00 0.  1.
         13    1    4    4    0    0  0.31671413192E+02 -0.56252745619E+01 -0.24229273329E+02  0.40271466047E+02  0.10566000000E+00 0. -1.
    9000005    1    3    3    0    0 -0.10464673508E+02 -0.29782513540E+02  0.30910649811E+02  0.44192485516E+02  0.10000000000E+01 0.  0.
    9000005    1    3    3    0    0  0.81501184309E+01  0.12346720883E+03  0.17234549285E+03  0.21216631446E+03  0.10000000000E+01 0.  0.
<mgrwt>
<rscale>  0 0.14983103E+03</rscale>
<asrwt>0</asrwt>
<pdfrwt beam="1">  1        2 0.44260429E-01 0.15622668E+03</pdfrwt>
<pdfrwt beam="2">  1       -2 0.15692384E-01 0.15622668E+03</pdfrwt>
<totfact> 0.35310121E+03</totfact>
</mgrwt>
</event>
<event>
 8    3  0.1559595E-003  0.3000228E+03  0.7818608E-02  0.1086879E+00
          2   -1    0    0  501    0  0.00000000000E+00  0.00000000000E+00  0.13412568326E+04  0.13412568326E+04  0.25500000000E-02 0. -1.
         -2   -1    0    0    0  501 -0.00000000000E+00 -0.00000000000E+00 -0.69108433053E+02  0.69108433100E+02  0.25500000000E-02 0.  1.
         25    2    1    2    0    0 -0.23979401317E+03 -0.12994993710E+03  0.83583380420E+03  0.88804945149E+03  0.12500210059E+03 0.  0.
         23    2    1    2    0    0  0.23979401317E+03  0.12994993710E+03  0.43631459539E+03  0.52231581425E+03  0.89750926230E+02 0.  0.
        -13    1    4    4    0    0  0.66826319387E+02 -0.48874046394E+01  0.86143709509E+02  0.10913474946E+03  0.10566000000E+00 0.  1.
         13    1    4    4    0    0  0.17296769378E+03  0.13483734174E+03  0.35017088588E+03  0.41318106479E+03  0.10566000000E+00 0. -1.
    9000005    1    3    3    0    0 -0.24851310548E+03 -0.98915530586E+02  0.73305169177E+03  0.78032610401E+03  0.10000000000E+01 0.  0.
    9000005    1    3    3    0    0  0.87190923123E+01 -0.31034406514E+02  0.10278211243E+03  0.10772334748E+03  0.10000000000E+01 0.  0.
<mgrwt>
<rscale>  0 0.29674620E+03</rscale>
<asrwt>0</asrwt>
<pdfrwt beam="1">  1        2 0.20634722E+00 0.30002280E+03</pdfrwt>
<pdfrwt beam="2">  1       -2 0.10632066E-01 0.30002280E+03</pdfrwt>
<totfact> 0.10010280E+03</totfact>
</mgrwt>
</event>
<event>
 8    3  0.1559595E-003  0.1535542E+03  0.7818608E-02  0.1204601E+00
          2   -1    0    0  501    0  0.00000000000E+00  0.00000000000E+00  0.18148554322E+02  0.18148554501E+02  0.25500000000E-02 0. -1.
         -2   -1    0    0    0  501 -0.00000000000E+00 -0.00000000000E+00 -0.11238169382E+04  0.11238169382E+04  0.25500000000E-02 0.  1.
         25    2    1    2    0    0  0.36846060337E+02 -0.81211505803E+02 -0.50474392722E+03  0.52758443017E+03  0.12500383218E+03 0.  0.
         23    2    1    2    0    0 -0.36846060337E+02  0.81211505803E+02 -0.60092445664E+03  0.61438106251E+03  0.91656677589E+02 0.  0.
        -13    1    4    4    0    0 -0.25233763026E+02  0.67017927062E+02 -0.18999344494E+03  0.20304104420E+03  0.10566000000E+00 0. -1.
         13    1    4    4    0    0 -0.11612297312E+02  0.14193578741E+02 -0.41093101169E+03  0.41134001831E+03  0.10566000000E+00 0.  1.
    9000005    1    3    3    0    0 -0.38013536335E+01  0.27188389883E+02 -0.39245294384E+02  0.47904613193E+02  0.10000000000E+01 0.  0.
    9000005    1    3    3    0    0  0.40647413971E+02 -0.10839989569E+03 -0.46549863284E+03  0.47967981698E+03  0.10000000000E+01 0.  0.
<mgrwt>
<rscale>  0 0.14668947E+03</rscale>
<asrwt>0</asrwt>
<pdfrwt beam="1">  1        2 0.27920862E-02 0.15355422E+03</pdfrwt>
<pdfrwt beam="2">  1       -2 0.17289486E+00 0.15355422E+03</pdfrwt>
<totfact> 0.73501800E+02</totfact>
</mgrwt>
</event>
<event>
 8    3  0.1559595E-003  0.1303222E+03  0.7818608E-02  0.1241163E+00
         -2   -1    0    0    0  501 -0.00000000000E+00  0.00000000000E+00  0.36783853313E+03  0.36783853314E+03  0.25500000000E-02 0. -1.
          2   -1    0    0  501    0  0.00000000000E+00 -0.00000000000E+00 -0.35362478820E+02  0.35362478912E+02  0.25500000000E-02 0.  1.
         25    2    1    2    0    0 -0.17461182868E+01  0.36814481098E+02  0.20130870643E+03  0.23981050209E+03  0.12500210672E+03 0.  0.
         23    2    1    2    0    0  0.17461182868E+01 -0.36814481098E+02  0.13116734788E+03  0.16339050995E+03  0.90184425735E+02 0.  0.
        -13    1    4    4    0    0  0.29042965992E+01 -0.32700025913E+02  0.68288958148E+00  0.32836018877E+02  0.10566000000E+00 0.  1.
         13    1    4    4    0    0 -0.11581783124E+01 -0.41144551845E+01  0.13048445830E+03  0.13055449108E+03  0.10566000000E+00 0. -1.
    9000005    1    3    3    0    0  0.34484855187E+01  0.30241561105E+02 -0.70677092066E+01  0.31263342493E+02  0.10000000000E+01 0.  0.
    9000005    1    3    3    0    0 -0.51946038055E+01  0.65729199931E+01  0.20837641563E+03  0.20854715960E+03  0.10000000000E+01 0.  0.
<mgrwt>
<rscale>  0 0.12118007E+03</rscale>
<asrwt>0</asrwt>
<pdfrwt beam="2">  1        2 0.54403811E-02 0.13032222E+03</pdfrwt>
<pdfrwt beam="1">  1       -2 0.56590547E-01 0.13032222E+03</pdfrwt>
<totfact> 0.39827038E+03</totfact>
</mgrwt>
</event>
<event>
 8    3  0.1559595E-003  0.1620931E+03  0.7818608E-02  0.1194035E+00
          2   -1    0    0  501    0  0.00000000000E+00  0.00000000000E+00  0.96903981169E+02  0.96903981202E+02  0.25500000000E-02 0. -1.
         -2   -1    0    0    0  501 -0.00000000000E+00 -0.00000000000E+00 -0.23133726629E+03  0.23133726631E+03  0.25500000000E-02 0.  1.
         25    2    1    2    0    0 -0.10318407125E+03 -0.11052832945E+01 -0.82844875046E+02  0.18203694207E+03  0.12500400293E+03 0.  0.
         23    2    1    2    0    0  0.10318407125E+03  0.11052832945E+01 -0.51588410077E+02  0.14620430543E+03  0.89811806918E+02 0.  0.
        -13    1    4    4    0    0  0.10809544927E+03 -0.11646175968E+02 -0.65317952541E+02  0.12683337753E+03  0.10566000000E+00 0.  1.
         13    1    4    4    0    0 -0.49113780226E+01  0.12751459263E+02  0.13729542464E+02  0.19370927900E+02  0.10566000000E+00 0. -1.
    9000005    1    3    3    0    0  0.66342081290E+01  0.42286828233E+02 -0.12567448965E+02  0.44622072263E+02  0.10000000000E+01 0.  0.
    9000005    1    3    3    0    0 -0.10981827938E+03 -0.43392111528E+02 -0.70277426082E+02  0.13741486981E+03  0.10000000000E+01 0.  0.
<mgrwt>
<rscale>  0 0.15536214E+03</rscale>
<asrwt>0</asrwt>
<pdfrwt beam="1">  1        2 0.14908305E-01 0.16209311E+03</pdfrwt>
<pdfrwt beam="2">  1       -2 0.35590348E-01 0.16209311E+03</pdfrwt>
<totfact> 0.28409125E+03</totfact>
</mgrwt>
</event>
<event>
 8    3  0.1559595E-003  0.1726126E+03  0.7818608E-02  0.1181662E+00
          2   -1    0    0  501    0  0.00000000000E+00  0.00000000000E+00  0.62029259106E+03  0.62029259107E+03  0.25500000000E-02 0. -1.
         -2   -1    0    0    0  501 -0.00000000000E+00 -0.00000000000E+00 -0.42296655713E+02  0.42296655790E+02  0.25500000000E-02 0.  1.
         25    2    1    2    0    0 -0.10780800400E+03  0.50451396074E+02  0.27064727963E+03  0.32100634983E+03  0.12500886995E+03 0.  0.
         23    2    1    2    0    0  0.10780800400E+03 -0.50451396074E+02  0.30734865571E+03  0.34158289703E+03  0.89709365623E+02 0.  0.
        -13    1    4    4    0    0  0.59666110756E+02  0.57847212374E+01  0.21513678550E+03  0.22333238774E+03  0.10566000000E+00 0.  1.
         13    1    4    4    0    0  0.48141893240E+02 -0.56236117312E+02  0.92211870212E+02  0.11825050929E+03  0.10566000000E+00 0. -1.
    9000005    1    3    3    0    0 -0.11765925170E+02 -0.38097182293E+02  0.43853143005E+02  0.59278414664E+02  0.10000000000E+01 0.  0.
    9000005    1    3    3    0    0 -0.96042078826E+02  0.88548578367E+02  0.22679413663E+03  0.26172793517E+03  0.10000000000E+01 0.  0.
<mgrwt>
<rscale>  0 0.16639371E+03</rscale>
<asrwt>0</asrwt>
<pdfrwt beam="1">  1        2 0.95429625E-01 0.17261265E+03</pdfrwt>
<pdfrwt beam="2">  1       -2 0.65071781E-02 0.17261265E+03</pdfrwt>
<totfact> 0.61793301E+03</totfact>
</mgrwt>
</event>
<event>
 8    3  0.1559595E-003  0.1417876E+03  0.7818608E-02  0.1222519E+00
         -2   -1    0    0    0  501 -0.00000000000E+00  0.00000000000E+00  0.14401671043E+02  0.14401671268E+02  0.25500000000E-02 0.  1.
          2   -1    0    0  501    0  0.00000000000E+00 -0.00000000000E+00 -0.12598642823E+04  0.12598642823E+04  0.25500000000E-02 0. -1.
         25    2    1    2    0    0 -0.45554593260E+02 -0.49020530685E+02 -0.90797071646E+03  0.91897473220E+03  0.12500201228E+03 0.  0.
         23    2    1    2    0    0  0.45554593260E+02  0.49020530685E+02 -0.33749189484E+03  0.35529122142E+03  0.88616248713E+02 0.  0.
        -13    1    4    4    0    0  0.14699394243E+02  0.27087681157E+02 -0.30145058532E+03  0.30302191541E+03  0.10566000000E+00 0. -1.
         13    1    4    4    0    0  0.30855199017E+02  0.21932849528E+02 -0.36041309519E+02  0.52269306010E+02  0.10566000000E+00 0.  1.
    9000005    1    3    3    0    0  0.41413839251E+02 -0.31871016389E+02 -0.28904728996E+03  0.29373492064E+03  0.10000000000E+01 0.  0.
    9000005    1    3    3    0    0 -0.86968432511E+02 -0.17149514297E+02 -0.61892342650E+03  0.62523981156E+03  0.10000000000E+01 0.  0.
<mgrwt>
<rscale>  0 0.13338405E+03</rscale>
<asrwt>0</asrwt>
<pdfrwt beam="2">  1        2 0.19382519E+00 0.14178765E+03</pdfrwt>
<pdfrwt beam="1">  1       -2 0.22156427E-02 0.14178765E+03</pdfrwt>
<totfact> 0.11908848E+04</totfact>
</mgrwt>
</event>
<event>
 8    3  0.1559595E-003  0.2090451E+03  0.7818608E-02  0.1146835E+00
         -2   -1    0    0    0  501 -0.00000000000E+00  0.00000000000E+00  0.78514281443E+02  0.78514281485E+02  0.25500000000E-02 0. -1.
          2   -1    0    0  501    0  0.00000000000E+00 -0.00000000000E+00 -0.54593594334E+03  0.54593594335E+03  0.25500000000E-02 0.  1.
         25    2    1    2    0    0 -0.10199289935E+03 -0.13293996757E+03 -0.33461933846E+03  0.39455032751E+03  0.12499709104E+03 0.  0.
         23    2    1    2    0    0  0.10199289935E+03  0.13293996757E+03 -0.13280232344E+03  0.22989989733E+03  0.84509876257E+02 0.  0.
        -13    1    4    4    0    0  0.71655114561E+01  0.13311149804E+01 -0.44729348598E+02  0.45319335957E+02  0.10566000000E+00 0.  1.
         13    1    4    4    0    0  0.94827387898E+02  0.13160885259E+03 -0.88072974843E+02  0.18458056137E+03  0.10566000000E+00 0. -1.
    9000005    1    3    3    0    0 -0.35197383416E+02 -0.85113942729E+02 -0.65116010016E+02  0.11280218884E+03  0.10000000000E+01 0.  0.
    9000005    1    3    3    0    0 -0.66795515938E+02 -0.47826024837E+02 -0.26950332844E+03  0.28174813867E+03  0.10000000000E+01 0.  0.
<mgrwt>
<rscale>  0 0.20348146E+03</rscale>
<asrwt>0</asrwt>
<pdfrwt beam="2">  1        2 0.83990143E-01 0.20904511E+03</pdfrwt>
<pdfrwt beam="1">  1       -2 0.12079121E-01 0.20904511E+03</pdfrwt>
<totfact> 0.27275548E+03</totfact>
</mgrwt>
</event>
<event>
 8    3  0.1559595E-003  0.3894950E+03  0.7818608E-02  0.1048430E+00
         -2   -1    0    0    0  501 -0.00000000000E+00  0.00000000000E+00  0.28299967924E+03  0.28299967925E+03  0.25500000000E-02 0.  1.
          2   -1    0    0  501    0  0.00000000000E+00 -0.00000000000E+00 -0.52783118326E+03  0.52783118327E+03  0.25500000000E-02 0. -1.
         25    2    1    2    0    0 -0.36885800524E+03 -0.49538298435E+01 -0.16755036433E+03  0.42400411709E+03  0.12500239303E+03 0.  0.
         23    2    1    2    0    0  0.36885800524E+03  0.49538298435E+01 -0.77281139690E+02  0.38682674543E+03  0.87073463030E+02 0.  0.
        -13    1    4    4    0    0  0.13967201139E+03  0.11013946739E+02 -0.71945842151E+02  0.15749854970E+03  0.10566000000E+00 0. -1.
         13    1    4    4    0    0  0.22918599385E+03 -0.60601168950E+01 -0.53352975391E+01  0.22932819573E+03  0.10566000000E+00 0.  1.
    9000005    1    3    3    0    0 -0.35190807157E+03  0.45853445731E+01 -0.18522385673E+03  0.39770490734E+03  0.10000000000E+01 0.  0.
    9000005    1    3    3    0    0 -0.16949933672E+02 -0.95391744166E+01  0.17673492398E+02  0.26299209752E+02  0.10000000000E+01 0.  0.
<mgrwt>
<rscale>  0 0.38685158E+03</rscale>
<asrwt>0</asrwt>
<pdfrwt beam="2">  1        2 0.81204797E-01 0.38949502E+03</pdfrwt>
<pdfrwt beam="1">  1       -2 0.43538412E-01 0.38949502E+03</pdfrwt>
<totfact> 0.29591702E+02</totfact>
</mgrwt>
</event>
<event>
 8    3  0.1559595E-003  0.1740267E+03  0.7818608E-02  0.1179973E+00
          2   -1    0    0  501    0  0.00000000000E+00  0.00000000000E+00  0.46649871344E+03  0.46649871345E+03  0.25500000000E-02 0.  1.
         -2   -1    0    0    0  501 -0.00000000000E+00 -0.00000000000E+00 -0.59440574001E+02  0.59440574055E+02  0.25500000000E-02 0. -1.
         25    2    1    2    0    0 -0.53301709254E+02  0.10871598565E+03  0.16024703655E+03  0.23656795286E+03  0.12500018342E+03 0.  0.
         23    2    1    2    0    0  0.53301709254E+02 -0.10871598565E+03  0.24681110289E+03  0.28937133464E+03  0.90331672491E+02 0.  0.
        -13    1    4    4    0    0  0.30411704992E+01 -0.98128492815E+02  0.14177204405E+03  0.17244643649E+03  0.10566000000E+00 0. -1.
         13    1    4    4    0    0  0.50260538755E+02 -0.10587492830E+02  0.10503905884E+03  0.11692489814E+03  0.10566000000E+00 0.  1.
    9000005    1    3    3    0    0 -0.34134693867E+01  0.15226461163E+01  0.10669961735E+03  0.10676974556E+03  0.10000000000E+01 0.  0.
    9000005    1    3    3    0    0 -0.49888239868E+02  0.10719333953E+03  0.53547419197E+02  0.12979820730E+03  0.10000000000E+01 0.  0.
<mgrwt>
<rscale>  0 0.16797763E+03</rscale>
<asrwt>0</asrwt>
<pdfrwt beam="1">  1        2 0.71769031E-01 0.17402667E+03</pdfrwt>
<pdfrwt beam="2">  1       -2 0.91447039E-02 0.17402667E+03</pdfrwt>
<totfact> 0.50250957E+03</totfact>
</mgrwt>
</event>
<event>
 8    3  0.1559595E-003  0.1652322E+03  0.7818608E-02  0.1190162E+00
         -2   -1    0    0    0  501 -0.00000000000E+00  0.00000000000E+00  0.96489515092E+02  0.96489515125E+02  0.25500000000E-02 0.  1.
          2   -1    0    0  501    0  0.00000000000E+00 -0.00000000000E+00 -0.33389397473E+03  0.33389397473E+03  0.25500000000E-02 0. -1.
         25    2    1    2    0    0  0.93498673711E+02  0.54172936312E+02 -0.23800459056E+03  0.28973757149E+03  0.12499986476E+03 0.  0.
         23    2    1    2    0    0 -0.93498673711E+02 -0.54172936312E+02  0.60013092767E+00  0.14064591837E+03  0.90023359096E+02 0.  0.
        -13    1    4    4    0    0 -0.25335843229E+02 -0.33089996468E+02 -0.40661055775E+02  0.58225298961E+02  0.10566000000E+00 0.  1.
         13    1    4    4    0    0 -0.68162830482E+02 -0.21082939844E+02  0.41261186702E+02  0.82420619410E+02  0.10566000000E+00 0. -1.
    9000005    1    3    3    0    0 -0.17332234179E+01  0.45510285152E+02 -0.15990768108E+03  0.16626983066E+03  0.10000000000E+01 0.  0.
    9000005    1    3    3    0    0  0.95231897128E+02  0.86626511599E+01 -0.78096909479E+02  0.12346774083E+03  0.10000000000E+01 0.  0.
<mgrwt>
<rscale>  0 0.15870908E+03</rscale>
<asrwt>0</asrwt>
<pdfrwt beam="2">  1        2 0.51368303E-01 0.16523219E+03</pdfrwt>
<pdfrwt beam="1">  1       -2 0.14844541E-01 0.16523219E+03</pdfrwt>
<totfact> 0.33090578E+03</totfact>
</mgrwt>
</event>
<event>
 8    3  0.1559595E-003  0.1349662E+03  0.7818608E-02  0.1231719E+00
         -2   -1    0    0    0  501 -0.00000000000E+00  0.00000000000E+00  0.40233799537E+03  0.40233799538E+03  0.25500000000E-02 0.  1.
          2   -1    0    0  501    0  0.00000000000E+00 -0.00000000000E+00 -0.46641508644E+02  0.46641508713E+02  0.25500000000E-02 0. -1.
         25    2    1    2    0    0 -0.48649102031E+02  0.14872724472E+02  0.88521091863E+02  0.16140590953E+03  0.12501180290E+03 0.  0.
         23    2    1    2    0    0  0.48649102031E+02 -0.14872724472E+02  0.26717539486E+03  0.28757359456E+03  0.93423485303E+02 0.  0.
        -13    1    4    4    0    0 -0.11770176566E+02  0.13335400593E+02  0.72099293915E+01  0.19192816657E+02  0.10566000000E+00 0. -1.
         13    1    4    4    0    0  0.60419278597E+02 -0.28208125065E+02  0.25996546547E+03  0.26838077790E+03  0.10566000000E+00 0.  1.
    9000005    1    3    3    0    0 -0.19944004969E+02  0.34506160831E+02 -0.22002089401E+02  0.45536034165E+02  0.10000000000E+01 0.  0.
    9000005    1    3    3    0    0 -0.28705097062E+02 -0.19633436359E+02  0.11052318126E+03  0.11586987537E+03  0.10000000000E+01 0.  0.
<mgrwt>
<rscale>  0 0.12716860E+03</rscale>
<asrwt>0</asrwt>
<pdfrwt beam="2">  1        2 0.71756171E-02 0.13496623E+03</pdfrwt>
<pdfrwt beam="1">  1       -2 0.61898150E-01 0.13496623E+03</pdfrwt>
<totfact> 0.23298475E+03</totfact>
</mgrwt>
</event>
<event>
 8    3  0.1559595E-003  0.1431920E+03  0.7818608E-02  0.1220282E+00
          2   -1    0    0  501    0  0.00000000000E+00  0.00000000000E+00  0.13785301069E+04  0.13785301069E+04  0.25500000000E-02 0. -1.
         -2   -1    0    0    0  501 -0.00000000000E+00 -0.00000000000E+00 -0.12813130751E+02  0.12813131005E+02  0.25500000000E-02 0.  1.
         25    2    1    2    0    0  0.41975412603E+01 -0.69720616700E+02  0.94202861479E+03  0.95284934014E+03  0.12500148068E+03 0.  0.
         23    2    1    2    0    0 -0.41975412603E+01  0.69720616700E+02  0.42368836135E+03  0.43849389776E+03  0.88805895549E+02 0.  0.
        -13    1    4    4    0    0  0.23312885046E+02 -0.11595447054E+02  0.12670885456E+03  0.12935644549E+03  0.10566000000E+00 0. -1.
         13    1    4    4    0    0 -0.27510426306E+02  0.81316063753E+02  0.29697950679E+03  0.30913745227E+03  0.10566000000E+00 0.  1.
    9000005    1    3    3    0    0  0.13472095147E+02  0.34355012145E+01  0.69275373230E+03  0.69289395555E+03  0.10000000000E+01 0.  0.
    9000005    1    3    3    0    0 -0.92745538869E+01 -0.73156117914E+02  0.24927488249E+03  0.25995538459E+03  0.10000000000E+01 0.  0.
<mgrwt>
<rscale>  0 0.13495594E+03</rscale>
<asrwt>0</asrwt>
<pdfrwt beam="1">  1        2 0.21208161E+00 0.14319202E+03</pdfrwt>
<pdfrwt beam="2">  1       -2 0.19712504E-02 0.14319202E+03</pdfrwt>
<totfact> 0.12192469E+04</totfact>
</mgrwt>
</event>
<event>
 8    3  0.1559595E-003  0.1697329E+03  0.7818608E-02  0.1184516E+00
         -2   -1    0    0    0  501 -0.00000000000E+00  0.00000000000E+00  0.22997882748E+02  0.22997882889E+02  0.25500000000E-02 0.  1.
          2   -1    0    0  501    0  0.00000000000E+00 -0.00000000000E+00 -0.11277723842E+04  0.11277723842E+04  0.25500000000E-02 0. -1.
         25    2    1    2    0    0  0.50702615432E+02  0.10302232574E+03 -0.69419967042E+03  0.71464847177E+03  0.12499960393E+03 0.  0.
         23    2    1    2    0    0 -0.50702615432E+02 -0.10302232574E+03 -0.41057483100E+03  0.43612179529E+03  0.91903066668E+02 0.  0.
        -13    1    4    4    0    0 -0.42245053321E+02  0.14286200470E+01 -0.12043892026E+03  0.12764102069E+03  0.10566000000E+00 0. -1.
         13    1    4    4    0    0 -0.84575621117E+01 -0.10445094578E+03 -0.29013591074E+03  0.30848077460E+03  0.10566000000E+00 0.  1.
    9000005    1    3    3    0    0  0.50507526195E+01  0.88020773127E+02 -0.62002484406E+03  0.62626270355E+03  0.10000000000E+01 0.  0.
    9000005    1    3    3    0    0  0.45651862813E+02  0.15001552609E+02 -0.74174826362E+02  0.88385768226E+02  0.10000000000E+01 0.  0.
<mgrwt>
<rscale>  0 0.16376003E+03</rscale>
<asrwt>0</asrwt>
<pdfrwt beam="2">  1        2 0.17350340E+00 0.16973290E+03</pdfrwt>
<pdfrwt beam="1">  1       -2 0.35381367E-02 0.16973290E+03</pdfrwt>
<totfact> 0.71448326E+03</totfact>
</mgrwt>
</event>
<event>
 8    3  0.1559595E-003  0.1503394E+03  0.7818608E-02  0.1209103E+00
         -2   -1    0    0    0  501 -0.00000000000E+00  0.00000000000E+00  0.20423635964E+03  0.20423635966E+03  0.25500000000E-02 0.  1.
          2   -1    0    0  501    0  0.00000000000E+00 -0.00000000000E+00 -0.14464097786E+03  0.14464097788E+03  0.25500000000E-02 0. -1.
         25    2    1    2    0    0 -0.83279019259E+02  0.65246643078E+01  0.13662487182E+03  0.20314600097E+03  0.12499590321E+03 0.  0.
         23    2    1    2    0    0  0.83279019259E+02 -0.65246643078E+01 -0.77029490036E+02  0.14573133657E+03  0.91247541507E+02 0.  0.
        -13    1    4    4    0    0  0.25892366084E+02 -0.46182869309E+02 -0.42514925937E+02  0.67902887497E+02  0.10566000000E+00 0. -1.
         13    1    4    4    0    0  0.57386653176E+02  0.39658205001E+02 -0.34514564099E+02  0.77828449076E+02  0.10566000000E+00 0.  1.
    9000005    1    3    3    0    0 -0.11166577240E+03 -0.38081152441E+01  0.75190233590E+02  0.13467857177E+03  0.10000000000E+01 0.  0.
    9000005    1    3    3    0    0  0.28386753139E+02  0.10332779552E+02  0.61434638228E+02  0.68467429200E+02  0.10000000000E+01 0.  0.
<mgrwt>
<rscale>  0 0.14318765E+03</rscale>
<asrwt>0</asrwt>
<pdfrwt beam="2">  1        2 0.22252458E-01 0.15033942E+03</pdfrwt>
<pdfrwt beam="1">  1       -2 0.31420978E-01 0.15033942E+03</pdfrwt>
<totfact> 0.22466982E+03</totfact>
</mgrwt>
</event>
<event>
 8    3  0.1559595E-003  0.1295974E+03  0.7818608E-02  0.1242089E+00
         -2   -1    0    0    0  501 -0.00000000000E+00  0.00000000000E+00  0.29201677354E+03  0.29201677355E+03  0.25500000000E-02 0.  1.
          2   -1    0    0  501    0  0.00000000000E+00 -0.00000000000E+00 -0.45975570072E+02  0.45975570143E+02  0.25500000000E-02 0. -1.
         25    2    1    2    0    0  0.12528393847E+02 -0.31845793926E+02  0.10556521677E+03  0.16715116507E+03  0.12499752697E+03 0.  0.
         23    2    1    2    0    0 -0.12528393847E+02  0.31845793926E+02  0.14047598670E+03  0.17084117863E+03  0.91005990097E+02 0.  0.
        -13    1    4    4    0    0  0.15427691377E+02  0.35078430260E+02  0.13261585383E+02  0.40551088045E+02  0.10566000000E+00 0. -1.
         13    1    4    4    0    0 -0.27956085224E+02 -0.32326363340E+01  0.12721440131E+03  0.13029009058E+03  0.10566000000E+00 0.  1.
    9000005    1    3    3    0    0 -0.20827938927E+02 -0.49060642243E+02  0.11643634799E+03  0.12805925500E+03  0.10000000000E+01 0.  0.
    9000005    1    3    3    0    0  0.33356332774E+02  0.17214848317E+02 -0.10871131219E+02  0.39091910068E+02  0.10000000000E+01 0.  0.
<mgrwt>
<rscale>  0 0.12061316E+03</rscale>
<asrwt>0</asrwt>
<pdfrwt beam="2">  1        2 0.70731647E-02 0.12959744E+03</pdfrwt>
<pdfrwt beam="1">  1       -2 0.44925657E-01 0.12959744E+03</pdfrwt>
<totfact> 0.44905910E+03</totfact>
</mgrwt>
</event>
<event>
 8    3  0.1559595E-003  0.1255987E+03  0.7818608E-02  0.1249263E+00
          2   -1    0    0  501    0  0.00000000000E+00  0.00000000000E+00  0.31028461559E+03  0.31028461560E+03  0.25500000000E-02 0. -1.
         -2   -1    0    0    0  501 -0.00000000000E+00 -0.00000000000E+00 -0.44584781819E+02  0.44584781892E+02  0.25500000000E-02 0.  1.
         25    2    1    2    0    0  0.12154346217E+02 -0.14646290845E+01  0.21610097167E+03  0.24994934129E+03  0.12500067994E+03 0.  0.
         23    2    1    2    0    0 -0.12154346217E+02  0.14646290845E+01  0.49598862100E+02  0.10492005620E+03  0.91642227170E+02 0.  0.
        -13    1    4    4    0    0  0.16412859394E+02  0.29143929366E+00 -0.22215968927E+02  0.27622949331E+02  0.10566000000E+00 0.  1.
         13    1    4    4    0    0 -0.28567205610E+02  0.11731897909E+01  0.71814831027E+02  0.77297106867E+02  0.10566000000E+00 0. -1.
    9000005    1    3    3    0    0  0.43637408018E+02 -0.11120041068E+02  0.17005294659E+02  0.48146222472E+02  0.10000000000E+01 0.  0.
    9000005    1    3    3    0    0 -0.31483061802E+02  0.96554119839E+01  0.19909567701E+03  0.20180311882E+03  0.10000000000E+01 0.  0.
<mgrwt>
<rscale>  0 0.11633841E+03</rscale>
<asrwt>0</asrwt>
<pdfrwt beam="1">  1        2 0.47736095E-01 0.12559874E+03</pdfrwt>
<pdfrwt beam="2">  1       -2 0.68591971E-02 0.12559874E+03</pdfrwt>
<totfact> 0.11886133E+04</totfact>
</mgrwt>
</event>
<event>
 8    3  0.1559595E-003  0.1465889E+03  0.7818608E-02  0.1214597E+00
         -2   -1    0    0    0  501 -0.00000000000E+00  0.00000000000E+00  0.25989765417E+02  0.25989765543E+02  0.25500000000E-02 0.  1.
          2   -1    0    0  501    0  0.00000000000E+00 -0.00000000000E+00 -0.71990201600E+03  0.71990201600E+03  0.25500000000E-02 0. -1.
         25    2    1    2    0    0  0.59486865961E+02 -0.48216492947E+02 -0.29076076082E+03  0.32562267671E+03  0.12499916058E+03 0.  0.
         23    2    1    2    0    0 -0.59486865961E+02  0.48216492947E+02 -0.40315148976E+03  0.42026910483E+03  0.90727500585E+02 0.  0.
        -13    1    4    4    0    0 -0.10927072115E+02  0.19948281515E+02 -0.31443053636E+03  0.31525213433E+03  0.10566000000E+00 0. -1.
         13    1    4    4    0    0 -0.48559793846E+02  0.28268211432E+02 -0.88720953400E+02  0.10501697050E+03  0.10566000000E+00 0.  1.
    9000005    1    3    3    0    0  0.84795631141E+02 -0.41632534662E+02 -0.11929126637E+03  0.15216758273E+03  0.10000000000E+01 0.  0.
    9000005    1    3    3    0    0 -0.25308765180E+02 -0.65839582850E+01 -0.17146949445E+03  0.17345509398E+03  0.10000000000E+01 0.  0.
<mgrwt>
<rscale>  0 0.13906215E+03</rscale>
<asrwt>0</asrwt>
<pdfrwt beam="2">  1        2 0.11075414E+00 0.14658891E+03</pdfrwt>
<pdfrwt beam="1">  1       -2 0.39984260E-02 0.14658891E+03</pdfrwt>
<totfact> 0.10716110E+04</totfact>
</mgrwt>
</event>
<event>
 8    3  0.1559595E-003  0.1284110E+03  0.7818608E-02  0.1244828E+00
         -2   -1    0    0    0  501 -0.00000000000E+00  0.00000000000E+00  0.29049288748E+03  0.29049288749E+03  0.25500000000E-02 0.  1.
          2   -1    0    0  501    0  0.00000000000E+00 -0.00000000000E+00 -0.50881931394E+02  0.50881931458E+02  0.25500000000E-02 0. -1.
         25    2    1    2    0    0 -0.23259561344E+01 -0.29300104527E+02  0.20250488610E+03  0.23978661774E+03  0.12500194781E+03 0.  0.
         23    2    1    2    0    0  0.23259561344E+01  0.29300104527E+02  0.37106069989E+02  0.10158820121E+03  0.89885460437E+02 0.  0.
        -13    1    4    4    0    0 -0.41697767141E+02  0.15211377705E+02  0.32749548807E+02  0.55160075302E+02  0.10566000000E+00 0.  1.
         13    1    4    4    0    0  0.44023723276E+02  0.14088726821E+02  0.43565211821E+01  0.46428125908E+02  0.10566000000E+00 0. -1.
    9000005    1    3    3    0    0  0.40045926459E+02 -0.16084849501E+02  0.12900019031E+02  0.45053402762E+02  0.10000000000E+01 0.  0.
    9000005    1    3    3    0    0 -0.42371882593E+02 -0.13215255025E+02  0.18960486707E+03  0.19473321498E+03  0.10000000000E+01 0.  0.
<mgrwt>
<rscale>  0 0.11895672E+03</rscale>
<asrwt>0</asrwt>
<pdfrwt beam="2">  1        2 0.78279897E-02 0.12841103E+03</pdfrwt>
<pdfrwt beam="1">  1       -2 0.44691212E-01 0.12841103E+03</pdfrwt>
<totfact> 0.39887004E+03</totfact>
</mgrwt>
</event>
<event>
 8    3  0.1559595E-003  0.1568136E+03  0.7818608E-02  0.1200850E+00
         -2   -1    0    0    0  501 -0.00000000000E+00  0.00000000000E+00  0.14043367875E+02  0.14043368107E+02  0.25500000000E-02 0.  1.
          2   -1    0    0  501    0  0.00000000000E+00 -0.00000000000E+00 -0.14897460429E+04  0.14897460429E+04  0.25500000000E-02 0. -1.
         25    2    1    2    0    0  0.92636420970E+02 -0.19597158012E+02 -0.71188276326E+03  0.72894963008E+03  0.12499975790E+03 0.  0.
         23    2    1    2    0    0 -0.92636420970E+02  0.19597158012E+02 -0.76381991174E+03  0.77483978091E+03  0.89388329268E+02 0.  0.
        -13    1    4    4    0    0 -0.41271569886E+02 -0.26284242402E+02 -0.49211863555E+03  0.49454521178E+03  0.10566000000E+00 0. -1.
         13    1    4    4    0    0 -0.51364851084E+02  0.45881400414E+02 -0.27170127620E+03  0.28029456913E+03  0.10566000000E+00 0.  1.
    9000005    1    3    3    0    0  0.29489816961E+02  0.48644639600E+02 -0.38199492262E+03  0.38620858506E+03  0.10000000000E+01 0.  0.
    9000005    1    3    3    0    0  0.63146604009E+02 -0.68241797612E+02 -0.32988784064E+03  0.34274104502E+03  0.10000000000E+01 0.  0.
<mgrwt>
<rscale>  0 0.14969338E+03</rscale>
<asrwt>0</asrwt>
<pdfrwt beam="2">  1        2 0.22919157E+00 0.15681357E+03</pdfrwt>
<pdfrwt beam="1">  1       -2 0.21605193E-02 0.15681357E+03</pdfrwt>
<totfact> 0.93559311E+03</totfact>
</mgrwt>
</event>
<event>
 8    3  0.1559595E-003  0.1879258E+03  0.7818608E-02  0.1165212E+00
          2   -1    0    0  501    0  0.00000000000E+00  0.00000000000E+00  0.38447683762E+03  0.38447683763E+03  0.25500000000E-02 0. -1.
         -2   -1    0    0    0  501 -0.00000000000E+00 -0.00000000000E+00 -0.10657312266E+03  0.10657312269E+03  0.25500000000E-02 0.  1.
         25    2    1    2    0    0  0.19510415795E+02 -0.13896278794E+03  0.28020611462E+02  0.19000329357E+03  0.12499913658E+03 0.  0.
         23    2    1    2    0    0 -0.19510415795E+02  0.13896278794E+03  0.24988310350E+03  0.30104666675E+03  0.92174928224E+02 0.  0.
        -13    1    4    4    0    0 -0.46658904043E+02  0.59621849865E+02  0.16593484031E+03  0.18239024288E+03  0.10566000000E+00 0. -1.
         13    1    4    4    0    0  0.27148488248E+02  0.79340938070E+02  0.83948263193E+02  0.11865642387E+03  0.10566000000E+00 0.  1.
    9000005    1    3    3    0    0  0.56983510942E+02 -0.10364669890E+03 -0.19557054037E+02  0.11988843595E+03  0.10000000000E+01 0.  0.
    9000005    1    3    3    0    0 -0.37473095147E+02 -0.35316089035E+02  0.47577665499E+02  0.70114857619E+02  0.10000000000E+01 0.  0.
<mgrwt>
<rscale>  0 0.18270351E+03</rscale>
<asrwt>0</asrwt>
<pdfrwt beam="1">  1        2 0.59150283E-01 0.18792577E+03</pdfrwt>
<pdfrwt beam="2">  1       -2 0.16395865E-01 0.18792577E+03</pdfrwt>
<totfact> 0.24255152E+03</totfact>
</mgrwt>
</event>
<event>
 8    3  0.1559595E-003  0.1700687E+03  0.7818608E-02  0.1184333E+00
         -2   -1    0    0    0  501 -0.00000000000E+00  0.00000000000E+00  0.11962867636E+02  0.11962867908E+02  0.25500000000E-02 0.  1.
          2   -1    0    0  501    0  0.00000000000E+00 -0.00000000000E+00 -0.21209757340E+04  0.21209757340E+04  0.25500000000E-02 0. -1.
         25    2    1    2    0    0 -0.10898936948E+02  0.11480153534E+03 -0.10211576739E+04  0.10352228533E+04  0.12500072621E+03 0.  0.
         23    2    1    2    0    0  0.10898936948E+02 -0.11480153534E+03 -0.10878551924E+04  0.10977157486E+04  0.90844734418E+02 0.  0.
        -13    1    4    4    0    0  0.20781957647E+02 -0.11159721201E+02 -0.51076374856E+03  0.51130817239E+03  0.10566000000E+00 0. -1.
         13    1    4    4    0    0 -0.98830206995E+01 -0.10364181414E+03 -0.57709144385E+03  0.58640757624E+03  0.10566000000E+00 0.  1.
    9000005    1    3    3    0    0 -0.12315411386E+02  0.12298085725E+03 -0.10191585719E+04  0.10266261030E+04  0.10000000000E+01 0.  0.
    9000005    1    3    3    0    0  0.14164744388E+01 -0.81793219108E+01 -0.19991020245E+01  0.85967502965E+01  0.10000000000E+01 0.  0.
<mgrwt>
<rscale>  0 0.16392741E+03</rscale>
<asrwt>0</asrwt>
<pdfrwt beam="2">  1        2 0.32630366E+00 0.17006869E+03</pdfrwt>
<pdfrwt beam="1">  1       -2 0.18404429E-02 0.17006869E+03</pdfrwt>
<totfact> 0.55841551E+03</totfact>
</mgrwt>
</event>
<event>
 8    3  0.1559595E-003  0.1428048E+03  0.7818608E-02  0.1226297E+00
          2   -1    0    0  501    0  0.00000000000E+00  0.00000000000E+00  0.19953841557E+03  0.19953841558E+03  0.25500000000E-02 0. -1.
         -2   -1    0    0    0  501 -0.00000000000E+00 -0.00000000000E+00 -0.75184738293E+02  0.75184738337E+02  0.25500000000E-02 0.  1.
         25    2    1    2    0    0 -0.50304799884E+02 -0.47279456879E+02  0.88779276280E+02  0.16815165339E+03  0.12500919449E+03 0.  0.
         23    2    1    2    0    0  0.50304799884E+02  0.47279456879E+02  0.35574400994E+02  0.10657150053E+03  0.72979632674E+02 0.  0.
        -13    1    4    4    0    0  0.59996305071E+02  0.21682792816E+02  0.44501424004E+02  0.77782311800E+02  0.10566000000E+00 0. -1.
         13    1    4    4    0    0 -0.96915051872E+01  0.25596664063E+02 -0.89270230096E+01  0.28789188731E+02  0.10566000000E+00 0.  1.
    9000005    1    3    3    0    0  0.36877747080E+02  0.10041633995E+02  0.28083269680E+02  0.47439147114E+02  0.10000000000E+01 0.  0.
    9000005    1    3    3    0    0 -0.87182546964E+02 -0.57321090874E+02  0.60696006600E+02  0.12071250628E+03  0.10000000000E+01 0.  0.
<mgrwt>
<rscale>  0 0.13078382E+03</rscale>
<asrwt>0</asrwt>
<pdfrwt beam="1">  1        2 0.30698218E-01 0.14280483E+03</pdfrwt>
<pdfrwt beam="2">  1       -2 0.11566883E-01 0.14280483E+03</pdfrwt>
<totfact> 0.85188225E+03</totfact>
</mgrwt>
</event>
<event>
 8    3  0.1559595E-003  0.1254377E+03  0.7818608E-02  0.1245203E+00
          2   -1    0    0  501    0  0.00000000000E+00  0.00000000000E+00  0.69049257596E+02  0.69049257643E+02  0.25500000000E-02 0. -1.
         -2   -1    0    0    0  501 -0.00000000000E+00 -0.00000000000E+00 -0.21603131129E+03  0.21603131131E+03  0.25500000000E-02 0.  1.
         25    2    1    2    0    0  0.82834821134E+01 -0.64008272189E+01 -0.26756742090E+02  0.12825964057E+03  0.12500010194E+03 0.  0.
         23    2    1    2    0    0 -0.82834821134E+01  0.64008272189E+01 -0.12022531161E+03  0.15682092838E+03  0.10014535118E+03 0.  0.
        -13    1    4    4    0    0 -0.48889152682E+02  0.18962802089E+02 -0.91691409767E+02  0.10562699893E+03  0.10566000000E+00 0.  1.
         13    1    4    4    0    0  0.40605670569E+02 -0.12561974870E+02 -0.28533901838E+02  0.51193929456E+02  0.10566000000E+00 0. -1.
    9000005    1    3    3    0    0 -0.58328258812E+02 -0.21015008944E+01 -0.16947146921E+02  0.60784931281E+02  0.10000000000E+01 0.  0.
    9000005    1    3    3    0    0  0.66611740925E+02 -0.42993263244E+01 -0.98095951684E+01  0.67474709287E+02  0.10000000000E+01 0.  0.
<mgrwt>
<rscale>  0 0.11873225E+03</rscale>
<asrwt>0</asrwt>
<pdfrwt beam="1">  1        2 0.10622963E-01 0.12543768E+03</pdfrwt>
<pdfrwt beam="2">  1       -2 0.33235586E-01 0.12543768E+03</pdfrwt>
<totfact> 0.47604945E+03</totfact>
</mgrwt>
</event>
<event>
 8    3  0.1559595E-003  0.1480903E+03  0.7818608E-02  0.1211323E+00
         -2   -1    0    0    0  501 -0.00000000000E+00  0.00000000000E+00  0.72708111526E+02  0.72708111570E+02  0.25500000000E-02 0.  1.
          2   -1    0    0  501    0  0.00000000000E+00 -0.00000000000E+00 -0.26205979491E+03  0.26205979492E+03  0.25500000000E-02 0. -1.
         25    2    1    2    0    0  0.19273389230E+02  0.77062777693E+02 -0.13310169529E+03  0.19911505238E+03  0.12498242899E+03 0.  0.
         23    2    1    2    0    0 -0.19273389230E+02 -0.77062777693E+02 -0.56249988093E+02  0.13565285412E+03  0.94485450897E+02 0.  0.
        -13    1    4    4    0    0 -0.32830852195E+01 -0.26067861091E+01 -0.59290312788E+02  0.59438424751E+02  0.10566000000E+00 0. -1.
         13    1    4    4    0    0 -0.15990304011E+02 -0.74455991584E+02  0.30403246950E+01  0.76214429365E+02  0.10566000000E+00 0.  1.
    9000005    1    3    3    0    0  0.60841622486E+02  0.59271199147E+02 -0.12797125891E+03  0.15359824602E+03  0.10000000000E+01 0.  0.
    9000005    1    3    3    0    0 -0.41568233256E+02  0.17791578546E+02 -0.51304363850E+01  0.45516806354E+02  0.10000000000E+01 0.  0.
<mgrwt>
<rscale>  0 0.14150106E+03</rscale>
<asrwt>0</asrwt>
<pdfrwt beam="2">  1        2 0.40316891E-01 0.14809032E+03</pdfrwt>
<pdfrwt beam="1">  1       -2 0.11185863E-01 0.14809032E+03</pdfrwt>
<totfact> 0.67225357E+03</totfact>
</mgrwt>
</event>
<event>
 8    3  0.1559595E-003  0.2854242E+03  0.7818608E-02  0.1094774E+00
          2   -1    0    0  501    0  0.00000000000E+00  0.00000000000E+00  0.72191181823E+03  0.72191181823E+03  0.25500000000E-02 0. -1.
         -2   -1    0    0    0  501 -0.00000000000E+00 -0.00000000000E+00 -0.10941200446E+03  0.10941200449E+03  0.25500000000E-02 0.  1.
         25    2    1    2    0    0  0.14724245961E+03 -0.21014829456E+03  0.25401290286E+03  0.38208575972E+03  0.12499730133E+03 0.  0.
         23    2    1    2    0    0 -0.14724245961E+03  0.21014829456E+03  0.35848691091E+03  0.44923806300E+03  0.86367380028E+02 0.  0.
        -13    1    4    4    0    0 -0.56780625185E+02  0.75742054697E+02  0.20618688441E+03  0.22687869162E+03  0.10566000000E+00 0. -1.
         13    1    4    4    0    0 -0.90461834429E+02  0.13440623986E+03  0.15230002650E+03  0.22235937138E+03  0.10566000000E+00 0.  1.
    9000005    1    3    3    0    0  0.15141272152E+02 -0.80862827510E+02  0.21470749170E+02  0.85029689317E+02  0.10000000000E+01 0.  0.
    9000005    1    3    3    0    0  0.13210118746E+03 -0.12928546705E+03  0.23254215369E+03  0.29705607040E+03  0.10000000000E+01 0.  0.
<mgrwt>
<rscale>  0 0.28168100E+03</rscale>
<asrwt>0</asrwt>
<pdfrwt beam="1">  1        2 0.11106336E+00 0.28542420E+03</pdfrwt>
<pdfrwt beam="2">  1       -2 0.16832616E-01 0.28542420E+03</pdfrwt>
<totfact> 0.11407564E+03</totfact>
</mgrwt>
</event>
<event>
 8    3  0.1559595E-003  0.1343634E+03  0.7818608E-02  0.1236399E+00
         -2   -1    0    0    0  501 -0.00000000000E+00  0.00000000000E+00  0.18507223162E+02  0.18507223337E+02  0.25500000000E-02 0.  1.
          2   -1    0    0  501    0  0.00000000000E+00 -0.00000000000E+00 -0.73903090764E+03  0.73903090765E+03  0.25500000000E-02 0. -1.
         25    2    1    2    0    0 -0.40878063159E+02 -0.27509584568E+02 -0.37239806931E+03  0.39589626467E+03  0.12500294823E+03 0.  0.
         23    2    1    2    0    0  0.40878063159E+02  0.27509584568E+02 -0.34812561517E+03  0.36164186631E+03  0.84649880327E+02 0.  0.
        -13    1    4    4    0    0 -0.10346341808E+02 -0.12341789833E+02 -0.14211023995E+02  0.21478615693E+02  0.10566000000E+00 0.  1.
         13    1    4    4    0    0  0.51224404967E+02  0.39851374400E+02 -0.33391459118E+03  0.34016325062E+03  0.10566000000E+00 0. -1.
    9000005    1    3    3    0    0 -0.31032844306E+02 -0.73389008138E+02 -0.16474614535E+03  0.18300621943E+03  0.10000000000E+01 0.  0.
    9000005    1    3    3    0    0 -0.98452188529E+01  0.45879423570E+02 -0.20765192396E+03  0.21289004525E+03  0.10000000000E+01 0.  0.
<mgrwt>
<rscale>  0 0.12415304E+03</rscale>
<asrwt>0</asrwt>
<pdfrwt beam="2">  1        2 0.11369704E+00 0.13436343E+03</pdfrwt>
<pdfrwt beam="1">  1       -2 0.28472657E-02 0.13436343E+03</pdfrwt>
<totfact> 0.17044198E+04</totfact>
</mgrwt>
</event>
<event>
 8    3  0.1559595E-003  0.1304815E+03  0.7818608E-02  0.1245484E+00
          2   -1    0    0  501    0  0.00000000000E+00  0.00000000000E+00  0.71954335241E+03  0.71954335242E+03  0.25500000000E-02 0. -1.
         -2   -1    0    0    0  501 -0.00000000000E+00 -0.00000000000E+00 -0.17223826999E+02  0.17223827188E+02  0.25500000000E-02 0.  1.
         25    2    1    2    0    0 -0.35472696001E+02 -0.11938443076E+02  0.35444921701E+03  0.37770316337E+03  0.12499837437E+03 0.  0.
         23    2    1    2    0    0  0.35472696001E+02  0.11938443076E+02  0.34787030840E+03  0.35906401624E+03  0.80699304224E+02 0.  0.
        -13    1    4    4    0    0 -0.38297968280E+01  0.32831020397E+02  0.24157184266E+03  0.24382270110E+03  0.10566000000E+00 0. -1.
         13    1    4    4    0    0  0.39302492829E+02 -0.20892577321E+02  0.10629846574E+03  0.11524131513E+03  0.10566000000E+00 0.  1.
    9000005    1    3    3    0    0 -0.41279609266E+02  0.39679505014E+02  0.80026154512E+02  0.98405562167E+02  0.10000000000E+01 0.  0.
    9000005    1    3    3    0    0  0.58069132655E+01 -0.51617948090E+02  0.27442306250E+03  0.27929760120E+03  0.10000000000E+01 0.  0.
<mgrwt>
<rscale>  0 0.11856484E+03</rscale>
<asrwt>0</asrwt>
<pdfrwt beam="1">  1        2 0.11069896E+00 0.13048154E+03</pdfrwt>
<pdfrwt beam="2">  1       -2 0.26498199E-02 0.13048154E+03</pdfrwt>
<totfact> 0.19508648E+04</totfact>
</mgrwt>
</event>
<event>
 8    3  0.1559595E-003  0.1314017E+03  0.7818608E-02  0.1239382E+00
          2   -1    0    0  501    0  0.00000000000E+00  0.00000000000E+00  0.71983180045E+03  0.71983180046E+03  0.25500000000E-02 0. -1.
         -2   -1    0    0    0  501 -0.00000000000E+00 -0.00000000000E+00 -0.21667357062E+02  0.21667357212E+02  0.25500000000E-02 0.  1.
         25    2    1    2    0    0 -0.32171226712E+02 -0.24614715241E+02  0.24784350165E+03  0.28052239647E+03  0.12500216628E+03 0.  0.
         23    2    1    2    0    0  0.32171226712E+02  0.24614715241E+02  0.45032094174E+03  0.46097676120E+03  0.89831797068E+02 0.  0.
        -13    1    4    4    0    0  0.53734366651E+02  0.28955862096E+02  0.18637704863E+03  0.19611792251E+03  0.10566000000E+00 0.  1.
         13    1    4    4    0    0 -0.21563139939E+02 -0.43411468542E+01  0.26394389311E+03  0.26485883869E+03  0.10566000000E+00 0. -1.
    9000005    1    3    3    0    0 -0.18580309066E+02  0.10751049128E+01  0.25061769604E+03  0.25130979548E+03  0.10000000000E+01 0.  0.
    9000005    1    3    3    0    0 -0.13590917646E+02 -0.25689820154E+02 -0.27741943887E+01  0.29212600989E+02  0.10000000000E+01 0.  0.
<mgrwt>
<rscale>  0 0.12228036E+03</rscale>
<asrwt>0</asrwt>
<pdfrwt beam="1">  1        2 0.11074336E+00 0.13140173E+03</pdfrwt>
<pdfrwt beam="2">  1       -2 0.33334394E-02 0.13140173E+03</pdfrwt>
<totfact> 0.13929482E+04</totfact>
</mgrwt>
</event>
<event>
 8    3  0.1559595E-003  0.1564079E+03  0.7818608E-02  0.1199539E+00
         -2   -1    0    0    0  501 -0.00000000000E+00  0.00000000000E+00  0.21365733445E+03  0.21365733446E+03  0.25500000000E-02 0.  1.
          2   -1    0    0  501    0  0.00000000000E+00 -0.00000000000E+00 -0.10021916412E+03  0.10021916415E+03  0.25500000000E-02 0. -1.
         25    2    1    2    0    0  0.93870407629E+02 -0.52002848142E+01  0.46499932588E+02  0.16317377476E+03  0.12499896258E+03 0.  0.
         23    2    1    2    0    0 -0.93870407629E+02  0.52002848142E+01  0.66938237741E+02  0.15070272386E+03  0.96911748083E+02 0.  0.
        -13    1    4    4    0    0 -0.10343040091E+03  0.61511728335E+01  0.23539869683E+02  0.10625357118E+03  0.10566000000E+00 0. -1.
         13    1    4    4    0    0  0.95599932849E+01 -0.95088801932E+00  0.43398368058E+02  0.44449152678E+02  0.10566000000E+00 0.  1.
    9000005    1    3    3    0    0 -0.10993241367E+02 -0.97006713941E+01 -0.29921819783E+02  0.33335711788E+02  0.10000000000E+01 0.  0.
    9000005    1    3    3    0    0  0.10486364900E+03  0.45003865799E+01  0.76421752371E+02  0.12983806297E+03  0.10000000000E+01 0.  0.
<mgrwt>
<rscale>  0 0.15076278E+03</rscale>
<asrwt>0</asrwt>
<pdfrwt beam="2">  1        2 0.15418333E-01 0.15640792E+03</pdfrwt>
<pdfrwt beam="1">  1       -2 0.32870359E-01 0.15640792E+03</pdfrwt>
<totfact> 0.31563946E+03</totfact>
</mgrwt>
</event>
<event>
 8    3  0.1559595E-003  0.1752893E+03  0.7818608E-02  0.1177627E+00
         -2   -1    0    0    0  501 -0.00000000000E+00  0.00000000000E+00  0.13136833380E+02  0.13136833628E+02  0.25500000000E-02 0.  1.
          2   -1    0    0  501    0  0.00000000000E+00 -0.00000000000E+00 -0.21191472890E+04  0.21191472890E+04  0.25500000000E-02 0. -1.
         25    2    1    2    0    0  0.11300299776E+03  0.48295475581E+02 -0.98220392468E+03  0.99772285817E+03  0.12499688635E+03 0.  0.
         23    2    1    2    0    0 -0.11300299776E+03 -0.48295475581E+02 -0.11238065309E+04  0.11345612644E+04  0.95843692332E+02 0.  0.
        -13    1    4    4    0    0 -0.39434567073E+02  0.12176760346E+02 -0.64828413791E+03  0.64959656187E+03  0.10566000000E+00 0. -1.
         13    1    4    4    0    0 -0.73568430685E+02 -0.60472235927E+02 -0.47552239299E+03  0.48496470254E+03  0.10566000000E+00 0.  1.
    9000005    1    3    3    0    0  0.92815406580E+02  0.12135074985E+02 -0.30007871941E+03  0.31434089392E+03  0.10000000000E+01 0.  0.
    9000005    1    3    3    0    0  0.20187591178E+02  0.36160400596E+02 -0.68212520527E+03  0.68338196426E+03  0.10000000000E+01 0.  0.
<mgrwt>
<rscale>  0 0.17021229E+03</rscale>
<asrwt>0</asrwt>
<pdfrwt beam="2">  1        2 0.32602239E+00 0.17528934E+03</pdfrwt>
<pdfrwt beam="1">  1       -2 0.20210530E-02 0.17528934E+03</pdfrwt>
<totfact> 0.48831563E+03</totfact>
</mgrwt>
</event>
<event>
 8    3  0.1559595E-003  0.1499676E+03  0.7818608E-02  0.1209728E+00
          2   -1    0    0  501    0  0.00000000000E+00  0.00000000000E+00  0.18000614367E+04  0.18000614367E+04  0.25500000000E-02 0. -1.
         -2   -1    0    0    0  501 -0.00000000000E+00 -0.00000000000E+00 -0.11231416327E+02  0.11231416616E+02  0.25500000000E-02 0.  1.
         25    2    1    2    0    0 -0.48553110040E+02 -0.67137340721E+02  0.72286533312E+03  0.73825779170E+03  0.12500180068E+03 0.  0.
         23    2    1    2    0    0  0.48553110040E+02  0.67137340721E+02  0.10659646873E+04  0.10730350616E+04  0.90877400743E+02 0.  0.
        -13    1    4    4    0    0  0.17494225989E+02  0.75345741775E+02  0.48017724271E+03  0.48636737588E+03  0.10566000000E+00 0.  1.
         13    1    4    4    0    0  0.31058884052E+02 -0.82084010541E+01  0.58578744454E+03  0.58666768573E+03  0.10566000000E+00 0. -1.
    9000005    1    3    3    0    0 -0.42930359151E+02  0.92528598198E+01  0.83778489126E+02  0.94596333924E+02  0.10000000000E+01 0.  0.
    9000005    1    3    3    0    0 -0.56227508889E+01 -0.76390200540E+02  0.63908684399E+03  0.64366145778E+03  0.10000000000E+01 0.  0.
<mgrwt>
<rscale>  0 0.14271010E+03</rscale>
<asrwt>0</asrwt>
<pdfrwt beam="1">  1        2 0.27693237E+00 0.14996759E+03</pdfrwt>
<pdfrwt beam="2">  1       -2 0.17279112E-02 0.14996759E+03</pdfrwt>
<totfact> 0.89342420E+03</totfact>
</mgrwt>
</event>
<event>
 8    3  0.1559595E-003  0.1635197E+03  0.7818608E-02  0.1196502E+00
          2   -1    0    0  501    0  0.00000000000E+00  0.00000000000E+00  0.16366926361E+03  0.16366926363E+03  0.25500000000E-02 0.  1.
         -2   -1    0    0    0  501 -0.00000000000E+00 -0.00000000000E+00 -0.19835935023E+03  0.19835935025E+03  0.25500000000E-02 0. -1.
         25    2    1    2    0    0 -0.87999880651E+02 -0.58052748245E+02  0.88250365488E+02  0.18581390482E+03  0.12499831855E+03 0.  0.
         23    2    1    2    0    0  0.87999880651E+02  0.58052748245E+02 -0.12294045211E+03  0.17621470906E+03  0.69449034183E+02 0.  0.
        -13    1    4    4    0    0  0.53706303838E+01  0.18509917577E+02  0.39894432905E+01  0.19682163022E+02  0.10566000000E+00 0.  1.
         13    1    4    4    0    0  0.82629250268E+02  0.39542830668E+02 -0.12692989541E+03  0.15653254604E+03  0.10566000000E+00 0. -1.
    9000005    1    3    3    0    0  0.78065248601E+01  0.21113885270E+02  0.51490133406E+02  0.56204731293E+02  0.10000000000E+01 0.  0.
    9000005    1    3    3    0    0 -0.95806405511E+02 -0.79166633515E+02  0.36760232082E+02  0.12960917352E+03  0.10000000000E+01 0.  0.
<mgrwt>
<rscale>  0 0.15327779E+03</rscale>
<asrwt>0</asrwt>
<pdfrwt beam="1">  1        2 0.25179887E-01 0.16351966E+03</pdfrwt>
<pdfrwt beam="2">  1       -2 0.30516823E-01 0.16351966E+03</pdfrwt>
<totfact> 0.20713847E+03</totfact>
</mgrwt>
</event>
<event>
 8    3  0.1559595E-003  0.1279217E+03  0.7818608E-02  0.1244899E+00
          2   -1    0    0  501    0  0.00000000000E+00  0.00000000000E+00  0.57293525697E+03  0.57293525698E+03  0.25500000000E-02 0. -1.
         -2   -1    0    0    0  501 -0.00000000000E+00 -0.00000000000E+00 -0.28233233558E+02  0.28233233673E+02  0.25500000000E-02 0.  1.
         25    2    1    2    0    0 -0.27070362027E+02  0.23495573651E+01  0.16035011839E+03  0.20512466326E+03  0.12500256833E+03 0.  0.
         23    2    1    2    0    0  0.27070362027E+02 -0.23495573651E+01  0.38435190502E+03  0.39604382739E+03  0.91575113425E+02 0.  0.
        -13    1    4    4    0    0  0.37007431717E+02 -0.21879667546E+02  0.79284503361E+02  0.90190429046E+02  0.10566000000E+00 0.  1.
         13    1    4    4    0    0 -0.99370696902E+01  0.19530110181E+02  0.30506740166E+03  0.30585339835E+03  0.10566000000E+00 0. -1.
    9000005    1    3    3    0    0 -0.42752389208E+01  0.31465693430E+02  0.16482910459E+03  0.16786304314E+03  0.10000000000E+01 0.  0.
    9000005    1    3    3    0    0 -0.22795123106E+02 -0.29116136065E+02 -0.44789862009E+01  0.37261620123E+02  0.10000000000E+01 0.  0.
<mgrwt>
<rscale>  0 0.11891409E+03</rscale>
<asrwt>0</asrwt>
<pdfrwt beam="1">  1        2 0.88143886E-01 0.12792172E+03</pdfrwt>
<pdfrwt beam="2">  1       -2 0.43435744E-02 0.12792172E+03</pdfrwt>
<totfact> 0.12231416E+04</totfact>
</mgrwt>
</event>
<event>
 8    3  0.1559595E-003  0.1402991E+03  0.7818608E-02  0.1226337E+00
         -2   -1    0    0    0  501 -0.00000000000E+00  0.00000000000E+00  0.10815457102E+02  0.10815457402E+02  0.25500000000E-02 0.  1.
          2   -1    0    0  501    0  0.00000000000E+00 -0.00000000000E+00 -0.17949863100E+04  0.17949863100E+04  0.25500000000E-02 0. -1.
         25    2    1    2    0    0  0.63458324039E+02 -0.56967458916E+01 -0.56948626076E+03  0.58651380491E+03  0.12499772138E+03 0.  0.
         23    2    1    2    0    0 -0.63458324039E+02  0.56967458916E+01 -0.12146845922E+04  0.12192879625E+04  0.84528488123E+02 0.  0.
        -13    1    4    4    0    0 -0.27079079507E+02  0.10973639239E+02 -0.10485652586E+03  0.10885127232E+03  0.10566000000E+00 0.  1.
         13    1    4    4    0    0 -0.36379244533E+02 -0.52768933476E+01 -0.11098280663E+04  0.11104366902E+04  0.10566000000E+00 0. -1.
    9000005    1    3    3    0    0 -0.11494443828E+02  0.19603454627E+02 -0.17014361313E+02  0.28406093767E+02  0.10000000000E+01 0.  0.
    9000005    1    3    3    0    0  0.74952767867E+02 -0.25300200518E+02 -0.55247189945E+03  0.55810771114E+03  0.10000000000E+01 0.  0.
<mgrwt>
<rscale>  0 0.13075706E+03</rscale>
<asrwt>0</asrwt>
<pdfrwt beam="2">  1        2 0.27615150E+00 0.14029912E+03</pdfrwt>
<pdfrwt beam="1">  1       -2 0.16639179E-02 0.14029912E+03</pdfrwt>
<totfact> 0.94724423E+03</totfact>
</mgrwt>
</event>
<event>
 8    3  0.1559595E-003  0.1416560E+03  0.7818608E-02  0.1221796E+00
         -2   -1    0    0    0  501 -0.00000000000E+00  0.00000000000E+00  0.43514582450E+02  0.43514582524E+02  0.25500000000E-02 0.  1.
          2   -1    0    0  501    0  0.00000000000E+00 -0.00000000000E+00 -0.38136889194E+03  0.38136889195E+03  0.25500000000E-02 0. -1.
         25    2    1    2    0    0 -0.49711148713E+02 -0.44398132020E+02 -0.21924336268E+03  0.26102506864E+03  0.12499616774E+03 0.  0.
         23    2    1    2    0    0  0.49711148713E+02  0.44398132020E+02 -0.11861094681E+03  0.16385840583E+03  0.91316088528E+02 0.  0.
        -13    1    4    4    0    0  0.39022281249E+02  0.13866821885E+02 -0.51924054840E+00  0.41416276485E+02  0.10566000000E+00 0.  1.
         13    1    4    4    0    0  0.10688867464E+02  0.30531310135E+02 -0.11809170626E+03  0.12244212934E+03  0.10566000000E+00 0. -1.
    9000005    1    3    3    0    0 -0.35655348304E+01  0.39366633111E+02 -0.10401424353E+03  0.11127626746E+03  0.10000000000E+01 0.  0.
    9000005    1    3    3    0    0 -0.46145613883E+02 -0.83764765132E+02 -0.11522911915E+03  0.14974880119E+03  0.10000000000E+01 0.  0.
<mgrwt>
<rscale>  0 0.13388965E+03</rscale>
<asrwt>0</asrwt>
<pdfrwt beam="2">  1        2 0.58672135E-01 0.14165604E+03</pdfrwt>
<pdfrwt beam="1">  1       -2 0.66945514E-02 0.14165604E+03</pdfrwt>
<totfact> 0.10000650E+04</totfact>
</mgrwt>
</event>
<event>
 8    3  0.1559595E-003  0.1766356E+03  0.7818608E-02  0.1177049E+00
         -2   -1    0    0    0  501 -0.00000000000E+00  0.00000000000E+00  0.16752349466E+03  0.16752349468E+03  0.25500000000E-02 0.  1.
          2   -1    0    0  501    0  0.00000000000E+00 -0.00000000000E+00 -0.17416454407E+03  0.17416454409E+03  0.25500000000E-02 0. -1.
         25    2    1    2    0    0 -0.11831242111E+03  0.39740172755E+02 -0.45818440562E+02  0.18248140431E+03  0.12499209217E+03 0.  0.
         23    2    1    2    0    0  0.11831242111E+03 -0.39740172755E+02  0.39177391154E+02  0.15920663446E+03  0.90745656417E+02 0.  0.
        -13    1    4    4    0    0  0.67313128011E+02  0.23503475860E+02  0.30330321724E+02  0.77481676286E+02  0.10566000000E+00 0.  1.
         13    1    4    4    0    0  0.50999293097E+02 -0.63243648616E+02  0.88470694304E+01  0.81724958172E+02  0.10566000000E+00 0. -1.
    9000005    1    3    3    0    0  0.96031111568E+01  0.80910241480E+00 -0.47782142513E+02  0.48754564235E+02  0.10000000000E+01 0.  0.
    9000005    1    3    3    0    0 -0.12791553226E+03  0.38931070340E+02  0.19637019503E+01  0.13372684008E+03  0.10000000000E+01 0.  0.
<mgrwt>
<rscale>  0 0.17076855E+03</rscale>
<asrwt>0</asrwt>
<pdfrwt beam="2">  1        2 0.26794545E-01 0.17663560E+03</pdfrwt>
<pdfrwt beam="1">  1       -2 0.25772845E-01 0.17663560E+03</pdfrwt>
<totfact> 0.26234551E+03</totfact>
</mgrwt>
</event>
<event>
 8    3  0.1559595E-003  0.1262990E+03  0.7818608E-02  0.1245980E+00
         -2   -1    0    0    0  501 -0.00000000000E+00  0.00000000000E+00  0.58024761414E+02  0.58024761470E+02  0.25500000000E-02 0.  1.
          2   -1    0    0  501    0  0.00000000000E+00 -0.00000000000E+00 -0.23856818602E+03  0.23856818603E+03  0.25500000000E-02 0. -1.
         25    2    1    2    0    0 -0.17784101235E+02 -0.31000882631E+01 -0.14709989468E+03  0.19388095672E+03  0.12500224622E+03 0.  0.
         23    2    1    2    0    0  0.17784101235E+02  0.31000882631E+01 -0.33443529922E+02  0.10271199078E+03  0.95422212045E+02 0.  0.
        -13    1    4    4    0    0 -0.13962224249E+00 -0.44023483744E+02 -0.37095363409E+01  0.44179842001E+02  0.10566000000E+00 0.  1.
         13    1    4    4    0    0  0.17923723477E+02  0.47123572007E+02 -0.29733993581E+02  0.58532148775E+02  0.10566000000E+00 0. -1.
    9000005    1    3    3    0    0 -0.71008579354E+02 -0.11185582032E+02 -0.93065664218E+02  0.11759912178E+03  0.10000000000E+01 0.  0.
    9000005    1    3    3    0    0  0.53224478119E+02  0.80854937690E+01 -0.54034230462E+02  0.76281834942E+02  0.10000000000E+01 0.  0.
<mgrwt>
<rscale>  0 0.11826912E+03</rscale>
<asrwt>0</asrwt>
<pdfrwt beam="2">  1        2 0.36702797E-01 0.12629904E+03</pdfrwt>
<pdfrwt beam="1">  1       -2 0.89268865E-02 0.12629904E+03</pdfrwt>
<totfact> 0.10472037E+04</totfact>
</mgrwt>
</event>
<event>
 8    3  0.1559595E-003  0.1341437E+03  0.7818608E-02  0.1234214E+00
         -2   -1    0    0    0  501 -0.00000000000E+00  0.00000000000E+00  0.21801277973E+02  0.21801278123E+02  0.25500000000E-02 0.  1.
          2   -1    0    0  501    0  0.00000000000E+00 -0.00000000000E+00 -0.66977212965E+03  0.66977212965E+03  0.25500000000E-02 0. -1.
         25    2    1    2    0    0 -0.42101445119E+02  0.24438595266E+02 -0.43164551471E+03  0.45200926706E+03  0.12499900205E+03 0.  0.
         23    2    1    2    0    0  0.42101445119E+02 -0.24438595266E+02 -0.21632533696E+03  0.23956414072E+03  0.90689301943E+02 0.  0.
        -13    1    4    4    0    0  0.83387829730E+01 -0.84126463484E+01  0.65779353614E+01  0.13549476658E+02  0.10566000000E+00 0.  1.
         13    1    4    4    0    0  0.33762662146E+02 -0.16025948918E+02 -0.22290327233E+03  0.22601466406E+03  0.10566000000E+00 0. -1.
    9000005    1    3    3    0    0 -0.18015155856E+02 -0.30897755228E+02 -0.32535712492E+02  0.48361034997E+02  0.10000000000E+01 0.  0.
    9000005    1    3    3    0    0 -0.24086289264E+02  0.55336350494E+02 -0.39910980222E+03  0.40364823206E+03  0.10000000000E+01 0.  0.
<mgrwt>
<rscale>  0 0.12554859E+03</rscale>
<asrwt>0</asrwt>
<pdfrwt beam="2">  1        2 0.10304185E+00 0.13414368E+03</pdfrwt>
<pdfrwt beam="1">  1       -2 0.33540433E-02 0.13414368E+03</pdfrwt>
<totfact> 0.15055208E+04</totfact>
</mgrwt>
</event>
<event>
 8    3  0.1559595E-003  0.2968657E+03  0.7818608E-02  0.1088386E+00
         -2   -1    0    0    0  501 -0.00000000000E+00  0.00000000000E+00  0.70881509571E+02  0.70881509617E+02  0.25500000000E-02 0.  1.
          2   -1    0    0  501    0  0.00000000000E+00 -0.00000000000E+00 -0.11934810458E+04  0.11934810458E+04  0.25500000000E-02 0. -1.
         25    2    1    2    0    0  0.18452889267E+03  0.19609857988E+03 -0.56240558650E+03  0.63594756066E+03  0.12499476358E+03 0.  0.
         23    2    1    2    0    0 -0.18452889267E+03 -0.19609857988E+03 -0.56019394977E+03  0.62841499480E+03  0.92642209967E+02 0.  0.
        -13    1    4    4    0    0 -0.10303555289E+03 -0.10293844353E+03 -0.19901522498E+03  0.24661654294E+03  0.10566000000E+00 0.  1.
         13    1    4    4    0    0 -0.81493339782E+02 -0.93160136351E+02 -0.36117872480E+03  0.38179845186E+03  0.10566000000E+00 0. -1.
    9000005    1    3    3    0    0  0.11490516063E+03  0.14795826666E+03 -0.25077375658E+03  0.31302287712E+03  0.10000000000E+01 0.  0.
    9000005    1    3    3    0    0  0.69623732041E+02  0.48140313220E+02 -0.31163182992E+03  0.32292468354E+03  0.10000000000E+01 0.  0.
<mgrwt>
<rscale>  0 0.29379183E+03</rscale>
<asrwt>0</asrwt>
<pdfrwt beam="2">  1        2 0.18361245E+00 0.29686572E+03</pdfrwt>
<pdfrwt beam="1">  1       -2 0.10904848E-01 0.29686572E+03</pdfrwt>
<totfact> 0.11638212E+03</totfact>
</mgrwt>
</event>
<event>
 8    3  0.1559595E-003  0.1277984E+03  0.7818608E-02  0.1245246E+00
          2   -1    0    0  501    0  0.00000000000E+00  0.00000000000E+00  0.62762096349E+02  0.62762096401E+02  0.25500000000E-02 0. -1.
         -2   -1    0    0    0  501 -0.00000000000E+00 -0.00000000000E+00 -0.19814973885E+03  0.19814973887E+03  0.25500000000E-02 0.  1.
         25    2    1    2    0    0 -0.69780940724E+01 -0.25626482176E+02 -0.81589118377E+02  0.15162199027E+03  0.12500813298E+03 0.  0.
         23    2    1    2    0    0  0.69780940724E+01  0.25626482176E+02 -0.53798524125E+02  0.10928984500E+03  0.91348665210E+02 0.  0.
        -13    1    4    4    0    0  0.25814726230E+02 -0.28011445953E+02 -0.18228031726E+02  0.42229296695E+02  0.10566000000E+00 0.  1.
         13    1    4    4    0    0 -0.18836632157E+02  0.53637928129E+02 -0.35570492399E+02  0.67060548302E+02  0.10566000000E+00 0. -1.
    9000005    1    3    3    0    0 -0.60528427328E+02  0.12135748226E+02 -0.32734306097E+02  0.69882055604E+02  0.10000000000E+01 0.  0.
    9000005    1    3    3    0    0  0.53550333255E+02 -0.37762230402E+02 -0.48854812281E+02  0.81739934669E+02  0.10000000000E+01 0.  0.
<mgrwt>
<rscale>  0 0.11870669E+03</rscale>
<asrwt>0</asrwt>
<pdfrwt beam="1">  1        2 0.96557072E-02 0.12779845E+03</pdfrwt>
<pdfrwt beam="2">  1       -2 0.30484575E-01 0.12779845E+03</pdfrwt>
<totfact> 0.62660999E+03</totfact>
</mgrwt>
</event>
<event>
 8    3  0.1559595E-003  0.1334475E+03  0.7818608E-02  0.1234822E+00
          2   -1    0    0  501    0  0.00000000000E+00  0.00000000000E+00  0.10392444050E+03  0.10392444053E+03  0.25500000000E-02 0. -1.
         -2   -1    0    0    0  501 -0.00000000000E+00 -0.00000000000E+00 -0.24095676707E+03  0.24095676708E+03  0.25500000000E-02 0.  1.
         25    2    1    2    0    0 -0.46705732838E+02 -0.16332784748E+01  0.40541087150E+02  0.13946976658E+03  0.12499657181E+03 0.  0.
         23    2    1    2    0    0  0.46705732838E+02  0.16332784748E+01 -0.17757341372E+03  0.20541144103E+03  0.92073067540E+02 0.  0.
        -13    1    4    4    0    0  0.30598285244E+02 -0.31610821374E+02 -0.29913577018E+02  0.53200867867E+02  0.10566000000E+00 0. -1.
         13    1    4    4    0    0  0.16107447594E+02  0.33244099849E+02 -0.14765983670E+03  0.15221057316E+03  0.10566000000E+00 0.  1.
    9000005    1    3    3    0    0 -0.33609679074E+02 -0.46294067666E+02  0.65236452634E+02  0.86772956506E+02  0.10000000000E+01 0.  0.
    9000005    1    3    3    0    0 -0.13096053764E+02  0.44660789191E+02 -0.24695365484E+02  0.52696810072E+02  0.10000000000E+01 0.  0.
<mgrwt>
<rscale>  0 0.12515850E+03</rscale>
<asrwt>0</asrwt>
<pdfrwt beam="1">  1        2 0.15988376E-01 0.13344750E+03</pdfrwt>
<pdfrwt beam="2">  1       -2 0.37070272E-01 0.13344750E+03</pdfrwt>
<totfact> 0.24028219E+03</totfact>
</mgrwt>
</event>
<event>
 8    3  0.1559595E-003  0.1870247E+03  0.7818608E-02  0.1166186E+00
          2   -1    0    0  501    0  0.00000000000E+00  0.00000000000E+00  0.53314912167E+02  0.53314912228E+02  0.25500000000E-02 0. -1.
         -2   -1    0    0    0  501 -0.00000000000E+00 -0.00000000000E+00 -0.59501121043E+03  0.59501121043E+03  0.25500000000E-02 0.  1.
         25    2    1    2    0    0  0.10502729604E+03  0.91228731425E+02 -0.24692634246E+03  0.30975937308E+03  0.12499934503E+03 0.  0.
         23    2    1    2    0    0 -0.10502729604E+03 -0.91228731425E+02 -0.29476995580E+03  0.33856674959E+03  0.91568022419E+02 0.  0.
        -13    1    4    4    0    0 -0.63850551235E+02 -0.26388181593E+02 -0.22295230808E+03  0.23341159325E+03  0.10566000000E+00 0.  1.
         13    1    4    4    0    0 -0.41176744808E+02 -0.64840549832E+02 -0.71817647718E+02  0.10515515633E+03  0.10566000000E+00 0. -1.
    9000005    1    3    3    0    0  0.13745052498E+02  0.94661780671E+02 -0.12449668407E+03  0.15700383286E+03  0.10000000000E+01 0.  0.
    9000005    1    3    3    0    0  0.91282243545E+02 -0.34330492464E+01 -0.12242965839E+03  0.15275554022E+03  0.10000000000E+01 0.  0.
<mgrwt>
<rscale>  0 0.18168075E+03</rscale>
<asrwt>0</asrwt>
<pdfrwt beam="1">  1        2 0.82022946E-02 0.18702473E+03</pdfrwt>
<pdfrwt beam="2">  1       -2 0.91540181E-01 0.18702473E+03</pdfrwt>
<totfact> 0.85591381E+02</totfact>
</mgrwt>
</event>
<event>
 8    3  0.1559595E-003  0.1313744E+03  0.7818608E-02  0.1239495E+00
         -2   -1    0    0    0  501 -0.00000000000E+00  0.00000000000E+00  0.45365064177E+01  0.45365071344E+01  0.25500000000E-02 0.  1.
          2   -1    0    0  501    0  0.00000000000E+00 -0.00000000000E+00 -0.29559969620E+04  0.29559969620E+04  0.25500000000E-02 0. -1.
         25    2    1    2    0    0  0.31225335327E+02  0.25676040845E+02 -0.18691885142E+04  0.18737996015E+04  0.12499985696E+03 0.  0.
         23    2    1    2    0    0 -0.31225335327E+02 -0.25676040845E+02 -0.10822719414E+04  0.10867338677E+04  0.89686472624E+02 0.  0.
        -13    1    4    4    0    0 -0.19656517837E+02 -0.31665935710E+02 -0.15674457644E+03  0.16111481491E+03  0.10566000000E+00 0.  1.
         13    1    4    4    0    0 -0.11568817489E+02  0.59898948648E+01 -0.92552736495E+03  0.92561905275E+03  0.10566000000E+00 0. -1.
    9000005    1    3    3    0    0 -0.32181836944E+02  0.52066863580E+02 -0.10215538374E+04  0.10233864722E+04  0.10000000000E+01 0.  0.
    9000005    1    3    3    0    0  0.63407172270E+02 -0.26390822736E+02 -0.84763467681E+03  0.85041312922E+03  0.10000000000E+01 0.  0.
<mgrwt>
<rscale>  0 0.12220981E+03</rscale>
<asrwt>0</asrwt>
<pdfrwt beam="2">  1        2 0.45476722E+00 0.13137445E+03</pdfrwt>
<pdfrwt beam="1">  1       -2 0.69792648E-03 0.13137445E+03</pdfrwt>
<totfact> 0.79344991E+03</totfact>
</mgrwt>
</event>
<event>
 8    3  0.1559595E-003  0.1324423E+03  0.7818608E-02  0.1238967E+00
          2   -1    0    0  501    0  0.00000000000E+00  0.00000000000E+00  0.38831000915E+02  0.38831000999E+02  0.25500000000E-02 0. -1.
         -2   -1    0    0    0  501 -0.00000000000E+00 -0.00000000000E+00 -0.35663059278E+03  0.35663059279E+03  0.25500000000E-02 0.  1.
         25    2    1    2    0    0  0.30364482245E+02  0.31531154104E+02 -0.13884047454E+03  0.19187925276E+03  0.12499901922E+03 0.  0.
         23    2    1    2    0    0 -0.30364482245E+02 -0.31531154104E+02 -0.17895911732E+03  0.20358234103E+03  0.86620946917E+02 0.  0.
        -13    1    4    4    0    0  0.21229025126E+02  0.15387610372E+02 -0.63452453515E+02  0.68656209347E+02  0.10566000000E+00 0.  1.
         13    1    4    4    0    0 -0.51593507371E+02 -0.46918764476E+02 -0.11550666381E+03  0.13492613168E+03  0.10566000000E+00 0. -1.
    9000005    1    3    3    0    0 -0.27931579945E+02  0.60998450568E+02 -0.71905079584E+02  0.98347977101E+02  0.10000000000E+01 0.  0.
    9000005    1    3    3    0    0  0.58296062190E+02 -0.29467296464E+02 -0.66935394957E+02  0.93531275656E+02  0.10000000000E+01 0.  0.
<mgrwt>
<rscale>  0 0.12253863E+03</rscale>
<asrwt>0</asrwt>
<pdfrwt beam="1">  1        2 0.59740004E-02 0.13244233E+03</pdfrwt>
<pdfrwt beam="2">  1       -2 0.54866243E-01 0.13244233E+03</pdfrwt>
<totfact> 0.37616704E+03</totfact>
</mgrwt>
</event>
<event>
 8    3  0.1559595E-003  0.1409676E+03  0.7818608E-02  0.1222724E+00
          2   -1    0    0  501    0  0.00000000000E+00  0.00000000000E+00  0.11303515443E+04  0.11303515443E+04  0.25500000000E-02 0. -1.
         -2   -1    0    0    0  501 -0.00000000000E+00 -0.00000000000E+00 -0.14979675930E+02  0.14979676147E+02  0.25500000000E-02 0.  1.
         25    2    1    2    0    0 -0.57811395628E+02  0.30103399126E+02  0.48808877934E+03  0.50803791160E+03  0.12499396386E+03 0.  0.
         23    2    1    2    0    0  0.57811395628E+02 -0.30103399126E+02  0.62728308902E+03  0.63729330884E+03  0.91707772935E+02 0.  0.
        -13    1    4    4    0    0  0.42666374639E+02 -0.43406860317E+02  0.60146875032E+03  0.60454052290E+03  0.10566000000E+00 0. -1.
         13    1    4    4    0    0  0.15145020989E+02  0.13303461191E+02  0.25814338695E+02  0.32752785938E+02  0.10566000000E+00 0.  1.
    9000005    1    3    3    0    0 -0.56973793943E+02  0.75723821078E+01  0.75797874102E+02  0.95129763404E+02  0.10000000000E+01 0.  0.
    9000005    1    3    3    0    0 -0.83760168546E+00  0.22531017019E+02  0.41229090524E+03  0.41290814819E+03  0.10000000000E+01 0.  0.
<mgrwt>
<rscale>  0 0.13324105E+03</rscale>
<asrwt>0</asrwt>
<pdfrwt beam="1">  1        2 0.17390025E+00 0.14096760E+03</pdfrwt>
<pdfrwt beam="2">  1       -2 0.23045654E-02 0.14096760E+03</pdfrwt>
<totfact> 0.13266723E+04</totfact>
</mgrwt>
</event>
<event>
 8    3  0.1559595E-003  0.1873876E+03  0.7818608E-02  0.1165681E+00
          2   -1    0    0  501    0  0.00000000000E+00  0.00000000000E+00  0.41525494672E+03  0.41525494673E+03  0.25500000000E-02 0. -1.
         -2   -1    0    0    0  501 -0.00000000000E+00 -0.00000000000E+00 -0.21122614452E+03  0.21122614454E+03  0.25500000000E-02 0.  1.
         25    2    1    2    0    0  0.96163278089E+02  0.10119556841E+03 -0.14657964174E+03  0.23790695073E+03  0.12500482676E+03 0.  0.
         23    2    1    2    0    0 -0.96163278089E+02 -0.10119556841E+03  0.35060844394E+03  0.38857414054E+03  0.92604873621E+02 0.  0.
        -13    1    4    4    0    0  0.31621096033E+01 -0.38368594332E+02  0.35914182619E+02  0.52649668995E+02  0.10566000000E+00 0.  1.
         13    1    4    4    0    0 -0.99325387692E+02 -0.62826974074E+02  0.31469426132E+03  0.33592447155E+03  0.10566000000E+00 0. -1.
    9000005    1    3    3    0    0  0.43793692392E+02  0.12133750341E+03 -0.84457718280E+02  0.15419073709E+03  0.10000000000E+01 0.  0.
    9000005    1    3    3    0    0  0.52369585696E+02 -0.20141935000E+02 -0.62121923464E+02  0.83716213641E+02  0.10000000000E+01 0.  0.
<mgrwt>
<rscale>  0 0.18221058E+03</rscale>
<asrwt>0</asrwt>
<pdfrwt beam="1">  1        2 0.63885375E-01 0.18738764E+03</pdfrwt>
<pdfrwt beam="2">  1       -2 0.32496330E-01 0.18738764E+03</pdfrwt>
<totfact> 0.67791940E+02</totfact>
</mgrwt>
</event>
<event>
 8    3  0.1559595E-003  0.1284508E+03  0.7818608E-02  0.1244911E+00
         -2   -1    0    0    0  501 -0.00000000000E+00  0.00000000000E+00  0.84477281448E+01  0.84477285297E+01  0.25500000000E-02 0.  1.
          2   -1    0    0  501    0  0.00000000000E+00 -0.00000000000E+00 -0.16158410623E+04  0.16158410623E+04  0.25500000000E-02 0. -1.
         25    2    1    2    0    0 -0.19895236383E+02  0.21811365143E+02 -0.67314610784E+03  0.68529211949E+03  0.12501220123E+03 0.  0.
         23    2    1    2    0    0  0.19895236383E+02 -0.21811365143E+02 -0.93424722632E+03  0.93899667135E+03  0.89584110365E+02 0.  0.
        -13    1    4    4    0    0  0.44979020413E+02 -0.26423906693E+02 -0.32033282820E+03  0.32455271853E+03  0.10566000000E+00 0.  1.
         13    1    4    4    0    0 -0.25083784029E+02  0.46125415498E+01 -0.61391439812E+03  0.61444395281E+03  0.10566000000E+00 0. -1.
    9000005    1    3    3    0    0  0.33745812743E+02  0.54849035829E+02 -0.29675076572E+03  0.30365970026E+03  0.10000000000E+01 0.  0.
    9000005    1    3    3    0    0 -0.53641049126E+02 -0.33037670686E+02 -0.37639534212E+03  0.38163241922E+03  0.10000000000E+01 0.  0.
<mgrwt>
<rscale>  0 0.11890695E+03</rscale>
<asrwt>0</asrwt>
<pdfrwt beam="2">  1        2 0.24859069E+00 0.12845079E+03</pdfrwt>
<pdfrwt beam="1">  1       -2 0.12996518E-02 0.12845079E+03</pdfrwt>
<totfact> 0.16639493E+04</totfact>
</mgrwt>
</event>
<event>
 8    3  0.1559595E-003  0.1372330E+03  0.7818608E-02  0.1236509E+00
          2   -1    0    0  501    0  0.00000000000E+00  0.00000000000E+00  0.15282229146E+04  0.15282229147E+04  0.25500000000E-02 0.  1.
         -2   -1    0    0    0  501 -0.00000000000E+00 -0.00000000000E+00 -0.92027286802E+01  0.92027290334E+01  0.25500000000E-02 0. -1.
         25    2    1    2    0    0  0.49046575035E+02 -0.28338049638E+02  0.70322904867E+03  0.71649423103E+03  0.12499710644E+03 0.  0.
         23    2    1    2    0    0 -0.49046575035E+02  0.28338049638E+02  0.81579113730E+03  0.82093141266E+03  0.72142865318E+02 0.  0.
        -13    1    4    4    0    0 -0.50470755831E+02  0.28957396923E+02  0.32693410976E+03  0.33207190685E+03  0.10566000000E+00 0. -1.
         13    1    4    4    0    0  0.14241807961E+01 -0.61934728521E+00  0.48885702754E+03  0.48885950581E+03  0.10566000000E+00 0.  1.
    9000005    1    3    3    0    0  0.13908592181E+02 -0.51998820985E+02  0.11763285768E+03  0.12936698004E+03  0.10000000000E+01 0.  0.
    9000005    1    3    3    0    0  0.35137982854E+02  0.23660771347E+02  0.58559619099E+03  0.58712725098E+03  0.10000000000E+01 0.  0.
<mgrwt>
<rscale>  0 0.12408350E+03</rscale>
<asrwt>0</asrwt>
<pdfrwt beam="1">  1        2 0.23511122E+00 0.13723297E+03</pdfrwt>
<pdfrwt beam="2">  1       -2 0.14158044E-02 0.13723297E+03</pdfrwt>
<totfact> 0.16386232E+04</totfact>
</mgrwt>
</event>
<event>
 8    3  0.1559595E-003  0.1790887E+03  0.7818608E-02  0.1174612E+00
         -2   -1    0    0    0  501 -0.00000000000E+00  0.00000000000E+00  0.14663789081E+02  0.14663789303E+02  0.25500000000E-02 0.  1.
          2   -1    0    0  501    0  0.00000000000E+00 -0.00000000000E+00 -0.19269909418E+04  0.19269909418E+04  0.25500000000E-02 0. -1.
         25    2    1    2    0    0  0.12647167451E+03 -0.21335349748E+02 -0.10808331365E+04  0.10955697248E+04  0.12498988489E+03 0.  0.
         23    2    1    2    0    0 -0.12647167451E+03  0.21335349748E+02 -0.83149401618E+03  0.84608500628E+03  0.89594962428E+02 0.  0.
        -13    1    4    4    0    0  0.10698632744E+02  0.94082721457E+01 -0.15920663132E+03  0.15984285704E+03  0.10566000000E+00 0. -1.
         13    1    4    4    0    0 -0.13717030725E+03  0.11927077603E+02 -0.67228738486E+03  0.68624214923E+03  0.10566000000E+00 0.  1.
    9000005    1    3    3    0    0  0.57667331964E+02  0.12100384679E+02 -0.85698772007E+03  0.85901157898E+03  0.10000000000E+01 0.  0.
    9000005    1    3    3    0    0  0.68804342547E+02 -0.33435734428E+02 -0.22384541643E+03  0.23655814580E+03  0.10000000000E+01 0.  0.
<mgrwt>
<rscale>  0 0.17313986E+03</rscale>
<asrwt>0</asrwt>
<pdfrwt beam="2">  1        2 0.29645994E+00 0.17908867E+03</pdfrwt>
<pdfrwt beam="1">  1       -2 0.22559691E-02 0.17908867E+03</pdfrwt>
<totfact> 0.52295286E+03</totfact>
</mgrwt>
</event>
<event>
 8    3  0.1559595E-003  0.1376299E+03  0.7818608E-02  0.1227992E+00
          2   -1    0    0  501    0  0.00000000000E+00  0.00000000000E+00  0.44370144113E+03  0.44370144114E+03  0.25500000000E-02 0.  1.
         -2   -1    0    0    0  501 -0.00000000000E+00 -0.00000000000E+00 -0.36710390882E+02  0.36710390971E+02  0.25500000000E-02 0. -1.
         25    2    1    2    0    0 -0.20819822246E+02  0.53679567474E+02  0.28974675618E+03  0.32077278793E+03  0.12500815091E+03 0.  0.
         23    2    1    2    0    0  0.20819822246E+02 -0.53679567474E+02  0.11724429407E+03  0.15963904418E+03  0.91779294906E+02 0.  0.
        -13    1    4    4    0    0 -0.19355785261E+02 -0.50545278856E+02  0.10396423133E+03  0.11720940320E+03  0.10566000000E+00 0.  1.
         13    1    4    4    0    0  0.40175607507E+02 -0.31342886187E+01  0.13280062736E+02  0.42429640984E+02  0.10566000000E+00 0. -1.
    9000005    1    3    3    0    0  0.82319529071E+01  0.26848435913E+02  0.27812648725E+03  0.27954238761E+03  0.10000000000E+01 0.  0.
    9000005    1    3    3    0    0 -0.29051775153E+02  0.26831131561E+02  0.11620268931E+02  0.41230400319E+02  0.10000000000E+01 0.  0.
<mgrwt>
<rscale>  0 0.12963903E+03</rscale>
<asrwt>0</asrwt>
<pdfrwt beam="1">  1        2 0.68261762E-01 0.13762993E+03</pdfrwt>
<pdfrwt beam="2">  1       -2 0.56477523E-02 0.13762993E+03</pdfrwt>
<totfact> 0.10985463E+04</totfact>
</mgrwt>
</event>
<event>
 8    3  0.1559595E-003  0.1273160E+03  0.7818608E-02  0.1246059E+00
          2   -1    0    0  501    0  0.00000000000E+00  0.00000000000E+00  0.21334384252E+03  0.21334384254E+03  0.25500000000E-02 0. -1.
         -2   -1    0    0    0  501 -0.00000000000E+00 -0.00000000000E+00 -0.70632711165E+02  0.70632711211E+02  0.25500000000E-02 0.  1.
         25    2    1    2    0    0 -0.24152837596E+02 -0.97591390499E-01  0.14006812968E+03  0.18928401226E+03  0.12500394896E+03 0.  0.
         23    2    1    2    0    0  0.24152837596E+02  0.97591390499E-01  0.26430016834E+01  0.94692541494E+02  0.91522253407E+02 0.  0.
        -13    1    4    4    0    0  0.24581659788E+01  0.44528140779E+02  0.66365869455E+01  0.45087175023E+02  0.10566000000E+00 0.  1.
         13    1    4    4    0    0  0.21694671617E+02 -0.44430549388E+02 -0.39935852621E+01  0.49605366472E+02  0.10566000000E+00 0. -1.
    9000005    1    3    3    0    0 -0.71623229971E+02  0.21913044114E+02  0.79260923778E+02  0.10905669448E+03  0.10000000000E+01 0.  0.
    9000005    1    3    3    0    0  0.47470392376E+02 -0.22010635504E+02  0.60807205898E+02  0.80227317771E+02  0.10000000000E+01 0.  0.
<mgrwt>
<rscale>  0 0.11822214E+03</rscale>
<asrwt>0</asrwt>
<pdfrwt beam="1">  1        2 0.32822130E-01 0.12731597E+03</pdfrwt>
<pdfrwt beam="2">  1       -2 0.10866571E-01 0.12731597E+03</pdfrwt>
<totfact> 0.86778975E+03</totfact>
</mgrwt>
</event>
<event>
 8    3  0.1559595E-003  0.1449803E+03  0.7818608E-02  0.1216587E+00
          2   -1    0    0  501    0  0.00000000000E+00  0.00000000000E+00  0.90674886605E+02  0.90674886641E+02  0.25500000000E-02 0. -1.
         -2   -1    0    0    0  501 -0.00000000000E+00 -0.00000000000E+00 -0.19700664634E+03  0.19700664636E+03  0.25500000000E-02 0.  1.
         25    2    1    2    0    0  0.63577012882E+02  0.36757568510E+02 -0.85138325291E+02  0.16813033535E+03  0.12500447921E+03 0.  0.
         23    2    1    2    0    0 -0.63577012882E+02 -0.36757568510E+02 -0.21193434447E+02  0.11955119765E+03  0.91924815939E+02 0.  0.
        -13    1    4    4    0    0 -0.59630225320E+01  0.25479614700E+02 -0.22826146696E+02  0.34724811591E+02  0.10566000000E+00 0. -1.
         13    1    4    4    0    0 -0.57613990350E+02 -0.62237183210E+02  0.16327122494E+01  0.84826386056E+02  0.10566000000E+00 0.  1.
    9000005    1    3    3    0    0 -0.24717329780E+01 -0.32864535259E+02  0.84944521846E+01  0.34049124213E+02  0.10000000000E+01 0.  0.
    9000005    1    3    3    0    0  0.66048745860E+02  0.69622103769E+02 -0.93632777475E+02  0.13408121114E+03  0.10000000000E+01 0.  0.
<mgrwt>
<rscale>  0 0.13760579E+03</rscale>
<asrwt>0</asrwt>
<pdfrwt beam="1">  1        2 0.13949983E-01 0.14498026E+03</pdfrwt>
<pdfrwt beam="2">  1       -2 0.30308715E-01 0.14498026E+03</pdfrwt>
<totfact> 0.40973035E+03</totfact>
</mgrwt>
</event>
<event>
 8    3  0.1559595E-003  0.1542442E+03  0.7818608E-02  0.1204658E+00
          2   -1    0    0  501    0  0.00000000000E+00  0.00000000000E+00  0.66082015434E+03  0.66082015434E+03  0.25500000000E-02 0. -1.
         -2   -1    0    0    0  501 -0.00000000000E+00 -0.00000000000E+00 -0.58277033954E+02  0.58277034010E+02  0.25500000000E-02 0.  1.
         25    2    1    2    0    0 -0.22743009663E+02  0.87487182379E+02  0.65686439237E+02  0.16764835700E+03  0.12498004536E+03 0.  0.
         23    2    1    2    0    0  0.22743009663E+02 -0.87487182379E+02  0.53685668115E+03  0.55144883135E+03  0.87803564469E+02 0.  0.
        -13    1    4    4    0    0  0.21416271382E+02 -0.30882891427E+02  0.57071431233E+02  0.68334245367E+02  0.10566000000E+00 0.  1.
         13    1    4    4    0    0  0.13267382806E+01 -0.56604290952E+02  0.47978524991E+03  0.48311458598E+03  0.10566000000E+00 0. -1.
    9000005    1    3    3    0    0  0.25720200009E+02  0.91523110643E+02  0.71082666101E+02  0.11870869341E+03  0.10000000000E+01 0.  0.
    9000005    1    3    3    0    0 -0.48463209672E+02 -0.40359282646E+01 -0.53962268646E+01  0.48939663598E+02  0.10000000000E+01 0.  0.
<mgrwt>
<rscale>  0 0.14664435E+03</rscale>
<asrwt>0</asrwt>
<pdfrwt beam="1">  1        2 0.10166464E+00 0.15424417E+03</pdfrwt>
<pdfrwt beam="2">  1       -2 0.89656976E-02 0.15424417E+03</pdfrwt>
<totfact> 0.34800759E+03</totfact>
</mgrwt>
</event>
<event>
 8    3  0.1559595E-003  0.1793400E+03  0.7818608E-02  0.1175579E+00
          2   -1    0    0  501    0  0.00000000000E+00  0.00000000000E+00  0.45891704380E+03  0.45891704381E+03  0.25500000000E-02 0. -1.
         -2   -1    0    0    0  501 -0.00000000000E+00 -0.00000000000E+00 -0.11534760655E+03  0.11534760658E+03  0.25500000000E-02 0.  1.
         25    2    1    2    0    0 -0.31230863675E+02 -0.12474961799E+03 -0.19599885738E+02  0.18040784475E+03  0.12500000357E+03 0.  0.
         23    2    1    2    0    0  0.31230863675E+02  0.12474961799E+03  0.36316932298E+03  0.39385680564E+03  0.81813153928E+02 0.  0.
        -13    1    4    4    0    0  0.70769950666E+01  0.12786759413E+03  0.30529503280E+03  0.33106687195E+03  0.10566000000E+00 0.  1.
         13    1    4    4    0    0  0.24153868608E+02 -0.31179761384E+01  0.57874290188E+02  0.62789933689E+02  0.10566000000E+00 0. -1.
    9000005    1    3    3    0    0 -0.57639657589E+02 -0.30303412368E+02 -0.44921822083E+02  0.79117615152E+02  0.10000000000E+01 0.  0.
    9000005    1    3    3    0    0  0.26408793914E+02 -0.94446205620E+02  0.25321936345E+02  0.10129022960E+03  0.10000000000E+01 0.  0.
<mgrwt>
<rscale>  0 0.17219355E+03</rscale>
<asrwt>0</asrwt>
<pdfrwt beam="1">  1        2 0.70602620E-01 0.17934000E+03</pdfrwt>
<pdfrwt beam="2">  1       -2 0.17745786E-01 0.17934000E+03</pdfrwt>
<totfact> 0.17516057E+03</totfact>
</mgrwt>
</event>
<event>
 8    3  0.1559595E-003  0.2982252E+03  0.7818608E-02  0.1087807E+00
         -2   -1    0    0    0  501 -0.00000000000E+00  0.00000000000E+00  0.37110257603E+02  0.37110257691E+02  0.25500000000E-02 0. -1.
          2   -1    0    0  501    0  0.00000000000E+00 -0.00000000000E+00 -0.25427141303E+04  0.25427141303E+04  0.25500000000E-02 0.  1.
         25    2    1    2    0    0  0.19952951258E+03  0.18303698995E+03 -0.16818498568E+04  0.17080858315E+04  0.12499480436E+03 0.  0.
         23    2    1    2    0    0 -0.19952951258E+03 -0.18303698995E+03 -0.82375401593E+03  0.87173855646E+03  0.89682026998E+02 0.  0.
        -13    1    4    4    0    0 -0.71012628070E+02 -0.32604033234E+02 -0.14473902355E+03  0.16448468753E+03  0.10566000000E+00 0. -1.
         13    1    4    4    0    0 -0.12851688451E+03 -0.15043295672E+03 -0.67901499239E+03  0.70725386893E+03  0.10566000000E+00 0.  1.
    9000005    1    3    3    0    0  0.12866599605E+02  0.94432012573E+01 -0.15226405786E+02  0.22080916388E+02  0.10000000000E+01 0.  0.
    9000005    1    3    3    0    0  0.18666291297E+03  0.17359378869E+03 -0.16666234510E+04  0.16860049151E+04  0.10000000000E+01 0.  0.
<mgrwt>
<rscale>  0 0.29492250E+03</rscale>
<asrwt>0</asrwt>
<pdfrwt beam="2">  1        2 0.39118665E+00 0.29822520E+03</pdfrwt>
<pdfrwt beam="1">  1       -2 0.57092724E-02 0.29822520E+03</pdfrwt>
<totfact> 0.60411983E+02</totfact>
</mgrwt>
</event>
<event>
 8    3  0.1559595E-003  0.1788827E+03  0.7818608E-02  0.1174122E+00
         -2   -1    0    0    0  501 -0.00000000000E+00  0.00000000000E+00  0.53411370382E+03  0.53411370383E+03  0.25500000000E-02 0.  1.
          2   -1    0    0  501    0  0.00000000000E+00 -0.00000000000E+00 -0.11550300078E+03  0.11550300081E+03  0.25500000000E-02 0. -1.
         25    2    1    2    0    0 -0.12776780572E+03  0.69896350795E+01  0.45312388565E+03  0.48715527614E+03  0.12500216055E+03 0.  0.
         23    2    1    2    0    0  0.12776780572E+03 -0.69896350795E+01 -0.34513182614E+02  0.16246142851E+03  0.93963231113E+02 0.  0.
        -13    1    4    4    0    0  0.52459911764E+02 -0.49602670124E+02 -0.14200168411E+02  0.73580725552E+02  0.10566000000E+00 0.  1.
         13    1    4    4    0    0  0.75307893955E+02  0.42613035045E+02 -0.20313014203E+02  0.88880702955E+02  0.10566000000E+00 0. -1.
    9000005    1    3    3    0    0 -0.92793091257E+02  0.53103043981E+02  0.37486883208E+03  0.38981807594E+03  0.10000000000E+01 0.  0.
    9000005    1    3    3    0    0 -0.34974714463E+02 -0.46113408902E+02  0.78255053572E+02  0.97337200195E+02  0.10000000000E+01 0.  0.
<mgrwt>
<rscale>  0 0.17362280E+03</rscale>
<asrwt>0</asrwt>
<pdfrwt beam="2">  1        2 0.17769692E-01 0.17888266E+03</pdfrwt>
<pdfrwt beam="1">  1       -2 0.82171339E-01 0.17888266E+03</pdfrwt>
<totfact> 0.42696729E+02</totfact>
</mgrwt>
</event>
<event>
 8    3  0.1559595E-003  0.1671305E+03  0.7818608E-02  0.1187400E+00
         -2   -1    0    0    0  501 -0.00000000000E+00  0.00000000000E+00  0.85603292475E+01  0.85603296274E+01  0.25500000000E-02 0. -1.
          2   -1    0    0  501    0  0.00000000000E+00 -0.00000000000E+00 -0.28765857634E+04  0.28765857634E+04  0.25500000000E-02 0.  1.
         25    2    1    2    0    0 -0.61780536967E+02 -0.92145601274E+02 -0.17082544261E+04  0.17164107296E+04  0.12499984721E+03 0.  0.
         23    2    1    2    0    0  0.61780536967E+02  0.92145601274E+02 -0.11597710081E+04  0.11687353635E+04  0.92552212480E+02 0.  0.
        -13    1    4    4    0    0 -0.19291892246E+02  0.48745643907E+02 -0.44160511506E+03  0.44470597446E+03  0.10566000000E+00 0. -1.
         13    1    4    4    0    0  0.81072429212E+02  0.43399957368E+02 -0.71816589302E+03  0.72402938900E+03  0.10566000000E+00 0.  1.
    9000005    1    3    3    0    0 -0.28462231261E+02  0.11031675361E+02 -0.10133969333E+03  0.10584200449E+03  0.10000000000E+01 0.  0.
    9000005    1    3    3    0    0 -0.33318305706E+02 -0.10317727663E+03 -0.16069147328E+04  0.16105687251E+04  0.10000000000E+01 0.  0.
<mgrwt>
<rscale>  0 0.16115410E+03</rscale>
<asrwt>0</asrwt>
<pdfrwt beam="2">  1        2 0.44255088E+00 0.16713051E+03</pdfrwt>
<pdfrwt beam="1">  1       -2 0.13169761E-02 0.16713051E+03</pdfrwt>
<totfact> 0.35433539E+03</totfact>
</mgrwt>
</event>
<event>
 8    3  0.1559595E-003  0.1300313E+03  0.7818608E-02  0.1240344E+00
         -2   -1    0    0    0  501 -0.00000000000E+00  0.00000000000E+00  0.25200552905E+02  0.25200553034E+02  0.25500000000E-02 0. -1.
          2   -1    0    0  501    0  0.00000000000E+00 -0.00000000000E+00 -0.66466286330E+03  0.66466286330E+03  0.25500000000E-02 0.  1.
         25    2    1    2    0    0 -0.35403326815E+02 -0.54164350139E+01 -0.19518797194E+03  0.23453462852E+03  0.12500165705E+03 0.  0.
         23    2    1    2    0    0  0.35403326815E+02  0.54164350139E+01 -0.44427433845E+03  0.45532878782E+03  0.93069242472E+02 0.  0.
        -13    1    4    4    0    0 -0.15470297311E+02  0.22443563711E+02 -0.46096544825E+02  0.53553209612E+02  0.10566000000E+00 0. -1.
         13    1    4    4    0    0  0.50873624126E+02 -0.17027128698E+02 -0.39817779362E+03  0.40177557821E+03  0.10566000000E+00 0.  1.
    9000005    1    3    3    0    0  0.49902165669E+01  0.55460911522E+02 -0.10089243859E+03  0.11524365116E+03  0.10000000000E+01 0.  0.
    9000005    1    3    3    0    0 -0.40393543382E+02 -0.60877346536E+02 -0.94295533350E+02  0.11929097735E+03  0.10000000000E+01 0.  0.
<mgrwt>
<rscale>  0 0.12168429E+03</rscale>
<asrwt>0</asrwt>
<pdfrwt beam="2">  1        2 0.10225581E+00 0.13003133E+03</pdfrwt>
<pdfrwt beam="1">  1       -2 0.38770087E-02 0.13003133E+03</pdfrwt>
<totfact> 0.12233056E+04</totfact>
</mgrwt>
</event>
<event>
 8    3  0.1559595E-003  0.1576281E+03  0.7818608E-02  0.1200047E+00
         -2   -1    0    0    0  501 -0.00000000000E+00  0.00000000000E+00  0.10199123535E+03  0.10199123538E+03  0.25500000000E-02 0.  1.
          2   -1    0    0  501    0  0.00000000000E+00 -0.00000000000E+00 -0.20444299556E+03  0.20444299557E+03  0.25500000000E-02 0. -1.
         25    2    1    2    0    0 -0.24311399274E+02 -0.92898778215E+02 -0.45329716676E+02  0.16401645012E+03  0.12500154226E+03 0.  0.
         23    2    1    2    0    0  0.24311399274E+02  0.92898778215E+02 -0.57122043533E+02  0.14241778083E+03  0.88310074805E+02 0.  0.
        -13    1    4    4    0    0  0.56271267228E+01  0.63085085487E+02 -0.78794482728E+02  0.10109388824E+03  0.10566000000E+00 0. -1.
         13    1    4    4    0    0  0.18684272551E+02  0.29813692728E+02  0.21672439196E+02  0.41323892599E+02  0.10566000000E+00 0.  1.
    9000005    1    3    3    0    0 -0.57939136316E+02 -0.24404734474E+02 -0.59309951908E+02  0.86436132359E+02  0.10000000000E+01 0.  0.
    9000005    1    3    3    0    0  0.33627737043E+02 -0.68494043741E+02  0.13980235232E+02  0.77580317760E+02  0.10000000000E+01 0.  0.
<mgrwt>
<rscale>  0 0.15034702E+03</rscale>
<asrwt>0</asrwt>
<pdfrwt beam="2">  1        2 0.31452769E-01 0.15762808E+03</pdfrwt>
<pdfrwt beam="1">  1       -2 0.15690959E-01 0.15762808E+03</pdfrwt>
<totfact> 0.50967082E+03</totfact>
</mgrwt>
</event>
<event>
 8    3  0.1559595E-003  0.1469432E+03  0.7818608E-02  0.1213749E+00
          2   -1    0    0  501    0  0.00000000000E+00  0.00000000000E+00  0.63864655576E+03  0.63864655577E+03  0.25500000000E-02 0. -1.
         -2   -1    0    0    0  501 -0.00000000000E+00 -0.00000000000E+00 -0.27894989019E+02  0.27894989135E+02  0.25500000000E-02 0.  1.
         25    2    1    2    0    0 -0.75651648152E+02  0.15617882914E+02  0.33672920334E+03  0.36739470675E+03  0.12500089612E+03 0.  0.
         23    2    1    2    0    0  0.75651648152E+02 -0.15617882914E+02  0.27402236340E+03  0.29914683815E+03  0.91834007843E+02 0.  0.
        -13    1    4    4    0    0 -0.68569852211E+01 -0.30282580500E+02  0.11830666961E+03  0.12231325426E+03  0.10566000000E+00 0. -1.
         13    1    4    4    0    0  0.82508633373E+02  0.14664697586E+02  0.15571569378E+03  0.17683358389E+03  0.10566000000E+00 0.  1.
    9000005    1    3    3    0    0 -0.88064656612E+02 -0.25218908195E+02  0.28987626847E+03  0.30400761190E+03  0.10000000000E+01 0.  0.
    9000005    1    3    3    0    0  0.12413008460E+02  0.40836791109E+02  0.46852934879E+02  0.63387094853E+02  0.10000000000E+01 0.  0.
<mgrwt>
<rscale>  0 0.13968819E+03</rscale>
<asrwt>0</asrwt>
<pdfrwt beam="1">  1        2 0.98253321E-01 0.14694323E+03</pdfrwt>
<pdfrwt beam="2">  1       -2 0.42915366E-02 0.14694323E+03</pdfrwt>
<totfact> 0.11108645E+04</totfact>
</mgrwt>
</event>
<event>
 8    3  0.1559595E-003  0.3148013E+03  0.7818608E-02  0.1079451E+00
          2   -1    0    0  501    0  0.00000000000E+00  0.00000000000E+00  0.17119875089E+04  0.17119875089E+04  0.25500000000E-02 0. -1.
         -2   -1    0    0    0  501 -0.00000000000E+00 -0.00000000000E+00 -0.60348639501E+02  0.60348639555E+02  0.25500000000E-02 0.  1.
         25    2    1    2    0    0  0.10644221281E+03  0.26859817376E+03  0.59635736582E+03  0.67434560429E+03  0.12499985053E+03 0.  0.
         23    2    1    2    0    0 -0.10644221281E+03 -0.26859817376E+03  0.10552815036E+04  0.10979905442E+04  0.92137178625E+02 0.  0.
        -13    1    4    4    0    0 -0.46694419103E+02 -0.22350227405E+03  0.80491160853E+03  0.83666979388E+03  0.10566000000E+00 0.  1.
         13    1    4    4    0    0 -0.59747793707E+02 -0.45095899712E+02  0.25036989504E+03  0.26132075029E+03  0.10566000000E+00 0. -1.
    9000005    1    3    3    0    0  0.38273636694E+02  0.23493220673E+03  0.43152412440E+03  0.49282053829E+03  0.10000000000E+01 0.  0.
    9000005    1    3    3    0    0  0.68168576116E+02  0.33665967033E+02  0.16483324142E+03  0.18152506599E+03  0.10000000000E+01 0.  0.
<mgrwt>
<rscale>  0 0.31187443E+03</rscale>
<asrwt>0</asrwt>
<pdfrwt beam="1">  1        2 0.26338273E+00 0.31480134E+03</pdfrwt>
<pdfrwt beam="2">  1       -2 0.92844047E-02 0.31480134E+03</pdfrwt>
<totfact> 0.78408213E+02</totfact>
</mgrwt>
</event>
<event>
 8    3  0.1559595E-003  0.1316757E+03  0.7818608E-02  0.1238472E+00
          2   -1    0    0  501    0  0.00000000000E+00  0.00000000000E+00  0.35974207535E+04  0.35974207535E+04  0.25500000000E-02 0. -1.
         -2   -1    0    0    0  501 -0.00000000000E+00 -0.00000000000E+00 -0.42220084388E+01  0.42220092089E+01  0.25500000000E-02 0.  1.
         25    2    1    2    0    0 -0.35662896938E+02  0.21021812505E+02  0.26294092412E+04  0.26327042060E+04  0.12499887909E+03 0.  0.
         23    2    1    2    0    0  0.35662896938E+02 -0.21021812505E+02  0.96378950384E+03  0.96893855669E+03  0.90763208972E+02 0.  0.
        -13    1    4    4    0    0  0.53680440033E+02 -0.11623853505E+02  0.90630562670E+03  0.90796839359E+03  0.10566000000E+00 0. -1.
         13    1    4    4    0    0 -0.18017543095E+02 -0.93979590003E+01  0.57483877144E+02  0.60970163097E+02  0.10566000000E+00 0.  1.
    9000005    1    3    3    0    0  0.41060365805E+02  0.76896011003E+01  0.45898920386E+03  0.46088737547E+03  0.10000000000E+01 0.  0.
    9000005    1    3    3    0    0 -0.76723262742E+02  0.13332211405E+02  0.21704200374E+04  0.21718168305E+04  0.10000000000E+01 0.  0.
<mgrwt>
<rscale>  0 0.12284752E+03</rscale>
<asrwt>0</asrwt>
<pdfrwt beam="1">  1        2 0.55344934E+00 0.13167566E+03</pdfrwt>
<pdfrwt beam="2">  1       -2 0.64953983E-03 0.13167566E+03</pdfrwt>
<totfact> 0.35464594E+03</totfact>
</mgrwt>
</event>
<event>
 8    3  0.1559595E-003  0.1315938E+03  0.7818608E-02  0.1238622E+00
         -2   -1    0    0    0  501 -0.00000000000E+00  0.00000000000E+00  0.16366501520E+02  0.16366501719E+02  0.25500000000E-02 0.  1.
          2   -1    0    0  501    0  0.00000000000E+00 -0.00000000000E+00 -0.10762422992E+04  0.10762422992E+04  0.25500000000E-02 0. -1.
         25    2    1    2    0    0 -0.40356377150E+02  0.79660527635E+01 -0.85181020917E+03  0.86191505833E+03  0.12499936065E+03 0.  0.
         23    2    1    2    0    0  0.40356377150E+02 -0.79660527635E+01 -0.20806558848E+03  0.23069374256E+03  0.90753614654E+02 0.  0.
        -13    1    4    4    0    0  0.51556201466E+02 -0.37280342203E+02 -0.10322238918E+03  0.12125484987E+03  0.10566000000E+00 0.  1.
         13    1    4    4    0    0 -0.11199824315E+02  0.29314289439E+02 -0.10484319929E+03  0.10943889269E+03  0.10566000000E+00 0. -1.
    9000005    1    3    3    0    0 -0.24894717103E+02 -0.50543384163E+02 -0.61184007541E+03  0.61442953909E+03  0.10000000000E+01 0.  0.
    9000005    1    3    3    0    0 -0.15461660047E+02  0.58509436926E+02 -0.23997013376E+03  0.24748551925E+03  0.10000000000E+01 0.  0.
<mgrwt>
<rscale>  0 0.12275412E+03</rscale>
<asrwt>0</asrwt>
<pdfrwt beam="2">  1        2 0.16557568E+00 0.13159383E+03</pdfrwt>
<pdfrwt beam="1">  1       -2 0.25179242E-02 0.13159383E+03</pdfrwt>
<totfact> 0.12469055E+04</totfact>
</mgrwt>
</event>
<event>
 8    3  0.1559595E-003  0.1484231E+03  0.7818608E-02  0.1211571E+00
          2   -1    0    0  501    0  0.00000000000E+00  0.00000000000E+00  0.49200472981E+03  0.49200472982E+03  0.25500000000E-02 0. -1.
         -2   -1    0    0    0  501 -0.00000000000E+00 -0.00000000000E+00 -0.42475732086E+02  0.42475732162E+02  0.25500000000E-02 0.  1.
         25    2    1    2    0    0 -0.70562942707E+02  0.37737292749E+02  0.14976180871E+03  0.21085066188E+03  0.12500468040E+03 0.  0.
         23    2    1    2    0    0  0.70562942707E+02 -0.37737292749E+02  0.29976718902E+03  0.32362980010E+03  0.92046986656E+02 0.  0.
        -13    1    4    4    0    0  0.70388624054E+02 -0.58438540628E+02  0.28159455035E+03  0.29608296705E+03  0.10566000000E+00 0. -1.
         13    1    4    4    0    0  0.17431865306E+00  0.20701247880E+02  0.18172638671E+02  0.27546833050E+02  0.10566000000E+00 0.  1.
    9000005    1    3    3    0    0 -0.32608036058E+02 -0.38144039779E+02  0.10150809861E+03  0.11323933004E+03  0.10000000000E+01 0.  0.
    9000005    1    3    3    0    0 -0.37954906649E+02  0.75881332528E+02  0.48253710105E+02  0.97611331842E+02  0.10000000000E+01 0.  0.
<mgrwt>
<rscale>  0 0.14131438E+03</rscale>
<asrwt>0</asrwt>
<pdfrwt beam="1">  1        2 0.75693040E-01 0.14842305E+03</pdfrwt>
<pdfrwt beam="2">  1       -2 0.65347276E-02 0.14842305E+03</pdfrwt>
<totfact> 0.79041769E+03</totfact>
</mgrwt>
</event>
<event>
 8    3  0.1559595E-003  0.1476897E+03  0.7818608E-02  0.1212055E+00
          2   -1    0    0  501    0  0.00000000000E+00  0.00000000000E+00  0.10525504151E+03  0.10525504154E+03  0.25500000000E-02 0. -1.
         -2   -1    0    0    0  501 -0.00000000000E+00 -0.00000000000E+00 -0.17385289728E+03  0.17385289730E+03  0.25500000000E-02 0.  1.
         25    2    1    2    0    0  0.71289236410E+02 -0.33239704787E+02 -0.44386412655E+02  0.15421546382E+03  0.12500088980E+03 0.  0.
         23    2    1    2    0    0 -0.71289236410E+02  0.33239704787E+02 -0.24211443111E+02  0.12489247502E+03  0.93940955591E+02 0.  0.
        -13    1    4    4    0    0  0.17970134733E+01  0.37665428828E+02  0.16449118664E+02  0.41139986085E+02  0.10566000000E+00 0. -1.
         13    1    4    4    0    0 -0.73086249883E+02 -0.44257240409E+01 -0.40660561775E+02  0.83752488937E+02  0.10566000000E+00 0.  1.
    9000005    1    3    3    0    0 -0.54910534168E+01  0.40212260945E+02 -0.50652718284E+01  0.40912523469E+02  0.10000000000E+01 0.  0.
    9000005    1    3    3    0    0  0.76780289826E+02 -0.73451965732E+02 -0.39321140827E+02  0.11330294035E+03  0.10000000000E+01 0.  0.
<mgrwt>
<rscale>  0 0.14095072E+03</rscale>
<asrwt>0</asrwt>
<pdfrwt beam="1">  1        2 0.16193083E-01 0.14768973E+03</pdfrwt>
<pdfrwt beam="2">  1       -2 0.26746600E-01 0.14768973E+03</pdfrwt>
<totfact> 0.43052725E+03</totfact>
</mgrwt>
</event>
<event>
 8    3  0.1559595E-003  0.1635947E+03  0.7818608E-02  0.1192646E+00
         -2   -1    0    0    0  501 -0.00000000000E+00  0.00000000000E+00  0.11062578257E+02  0.11062578551E+02  0.25500000000E-02 0.  1.
          2   -1    0    0  501    0  0.00000000000E+00 -0.00000000000E+00 -0.22423000405E+04  0.22423000405E+04  0.25500000000E-02 0. -1.
         25    2    1    2    0    0  0.67243164443E+02 -0.81338952907E+02 -0.87149258028E+03  0.88671445690E+03  0.12500216860E+03 0.  0.
         23    2    1    2    0    0 -0.67243164443E+02  0.81338952907E+02 -0.13597448820E+04  0.13666481622E+04  0.87654929619E+02 0.  0.
        -13    1    4    4    0    0 -0.50929518322E+02  0.65023942976E+02 -0.12997203829E+04  0.13023421263E+04  0.10566000000E+00 0. -1.
         13    1    4    4    0    0 -0.16313646121E+02  0.16315009931E+02 -0.60024499083E+02  0.64306035898E+02  0.10566000000E+00 0.  1.
    9000005    1    3    3    0    0 -0.30240837979E+01 -0.70456134454E+02 -0.21254888162E+03  0.22394472319E+03  0.10000000000E+01 0.  0.
    9000005    1    3    3    0    0  0.70267248241E+02 -0.10882818453E+02 -0.65894369866E+03  0.66276973371E+03  0.10000000000E+01 0.  0.
<mgrwt>
<rscale>  0 0.15655153E+03</rscale>
<asrwt>0</asrwt>
<pdfrwt beam="2">  1        2 0.34496888E+00 0.16359465E+03</pdfrwt>
<pdfrwt beam="1">  1       -2 0.17019369E-02 0.16359465E+03</pdfrwt>
<totfact> 0.54069145E+03</totfact>
</mgrwt>
</event>
<event>
 8    3  0.1559595E-003  0.1463851E+03  0.7818608E-02  0.1215149E+00
         -2   -1    0    0    0  501 -0.00000000000E+00  0.00000000000E+00  0.21502290575E+03  0.21502290576E+03  0.25500000000E-02 0.  1.
          2   -1    0    0  501    0  0.00000000000E+00 -0.00000000000E+00 -0.10514957712E+03  0.10514957715E+03  0.25500000000E-02 0. -1.
         25    2    1    2    0    0 -0.16061392770E+02  0.74465752463E+02  0.13562737157E+03  0.19955794504E+03  0.12500189151E+03 0.  0.
         23    2    1    2    0    0  0.16061392770E+02 -0.74465752463E+02 -0.25754042945E+02  0.12061453786E+03  0.89897048831E+02 0.  0.
        -13    1    4    4    0    0  0.22779558538E+02 -0.40185254203E+02  0.29813828800E+02  0.54978527575E+02  0.10566000000E+00 0.  1.
         13    1    4    4    0    0 -0.67181657687E+01 -0.34280498260E+02 -0.55567871746E+02  0.65636010289E+02  0.10566000000E+00 0. -1.
    9000005    1    3    3    0    0 -0.19502545835E+02  0.43752411198E+02  0.15555807230E+03  0.16276958143E+03  0.10000000000E+01 0.  0.
    9000005    1    3    3    0    0  0.34411530649E+01  0.30713341266E+02 -0.19930700727E+02  0.36788363617E+02  0.10000000000E+01 0.  0.
<mgrwt>
<rscale>  0 0.13865619E+03</rscale>
<asrwt>0</asrwt>
<pdfrwt beam="2">  1        2 0.16176858E-01 0.14638507E+03</pdfrwt>
<pdfrwt beam="1">  1       -2 0.33080446E-01 0.14638507E+03</pdfrwt>
<totfact> 0.29392531E+03</totfact>
</mgrwt>
</event>
<event>
 8    3  0.1559595E-003  0.1290529E+03  0.7818608E-02  0.1242760E+00
         -2   -1    0    0    0  501 -0.00000000000E+00  0.00000000000E+00  0.16108296670E+02  0.16108296872E+02  0.25500000000E-02 0.  1.
          2   -1    0    0  501    0  0.00000000000E+00 -0.00000000000E+00 -0.19232322876E+04  0.19232322876E+04  0.25500000000E-02 0. -1.
         25    2    1    2    0    0 -0.14880091823E+02  0.28437036909E+02 -0.17490652733E+04  0.17538198290E+04  0.12499832072E+03 0.  0.
         23    2    1    2    0    0  0.14880091823E+02 -0.28437036909E+02 -0.15805871763E+03  0.18552075546E+03  0.91680479306E+02 0.  0.
        -13    1    4    4    0    0  0.50797511935E+02 -0.23719321507E+02 -0.66035628589E+02  0.86623950722E+02  0.10566000000E+00 0. -1.
         13    1    4    4    0    0 -0.35917420112E+02 -0.47177154015E+01 -0.92023089040E+02  0.98896804734E+02  0.10566000000E+00 0.  1.
    9000005    1    3    3    0    0  0.55457320746E+02  0.13091864573E+02 -0.74551561750E+03  0.74769074308E+03  0.10000000000E+01 0.  0.
    9000005    1    3    3    0    0 -0.70337412569E+02  0.15345172336E+02 -0.10035496558E+04  0.10061290859E+04  0.10000000000E+01 0.  0.
<mgrwt>
<rscale>  0 0.12020456E+03</rscale>
<asrwt>0</asrwt>
<pdfrwt beam="2">  1        2 0.29588171E+00 0.12905294E+03</pdfrwt>
<pdfrwt beam="1">  1       -2 0.24782010E-02 0.12905294E+03</pdfrwt>
<totfact> 0.45592270E+03</totfact>
</mgrwt>
</event>
<event>
 8    3  0.1559595E-003  0.1477179E+03  0.7818608E-02  0.1212846E+00
          2   -1    0    0  501    0  0.00000000000E+00  0.00000000000E+00  0.20866953640E+03  0.20866953642E+03  0.25500000000E-02 0.  1.
         -2   -1    0    0    0  501 -0.00000000000E+00 -0.00000000000E+00 -0.86568318709E+02  0.86568318746E+02  0.25500000000E-02 0. -1.
         25    2    1    2    0    0  0.77964897075E+02  0.10835672459E+02  0.77643276349E+02  0.16688040315E+03  0.12499861447E+03 0.  0.
         23    2    1    2    0    0 -0.77964897075E+02 -0.10835672459E+02  0.44457941347E+02  0.12835745201E+03  0.91121841319E+02 0.  0.
        -13    1    4    4    0    0 -0.87979962279E+02 -0.29537063968E+01  0.61275391451E+02  0.10725615556E+03  0.10566000000E+00 0.  1.
         13    1    4    4    0    0  0.10015065203E+02 -0.78819660617E+01 -0.16817450104E+02  0.21101296455E+02  0.10566000000E+00 0. -1.
    9000005    1    3    3    0    0  0.99453348460E+02 -0.27992621593E+02  0.55015242758E+02  0.11705653471E+03  0.10000000000E+01 0.  0.
    9000005    1    3    3    0    0 -0.21488451385E+02  0.38828294052E+02  0.22628033591E+02  0.49823868437E+02  0.10000000000E+01 0.  0.
<mgrwt>
<rscale>  0 0.14035978E+03</rscale>
<asrwt>0</asrwt>
<pdfrwt beam="1">  1        2 0.32103005E-01 0.14771794E+03</pdfrwt>
<pdfrwt beam="2">  1       -2 0.13318203E-01 0.14771794E+03</pdfrwt>
<totfact> 0.64882210E+03</totfact>
</mgrwt>
</event>
<event>
 8    3  0.1559595E-003  0.1893069E+03  0.7818608E-02  0.1163939E+00
          2   -1    0    0  501    0  0.00000000000E+00  0.00000000000E+00  0.27361145506E+04  0.27361145506E+04  0.25500000000E-02 0.  1.
         -2   -1    0    0    0  501 -0.00000000000E+00 -0.00000000000E+00 -0.11753187298E+02  0.11753187575E+02  0.25500000000E-02 0. -1.
         25    2    1    2    0    0 -0.14213969306E+03 -0.27098331987E+01  0.13926937128E+04  0.14055009361E+04  0.12500427251E+03 0.  0.
         23    2    1    2    0    0  0.14213969306E+03  0.27098331987E+01  0.13316676505E+04  0.13423668021E+04  0.91645318510E+02 0.  0.
        -13    1    4    4    0    0  0.31894894419E+02 -0.39700870339E+02  0.42238931945E+03  0.42544822451E+03  0.10566000000E+00 0. -1.
         13    1    4    4    0    0  0.11024479864E+03  0.42410703538E+02  0.90927833109E+03  0.91691857761E+03  0.10566000000E+00 0.  1.
    9000005    1    3    3    0    0 -0.12638538211E+03  0.45124787964E+02  0.11369966823E+04  0.11448894998E+04  0.10000000000E+01 0.  0.
    9000005    1    3    3    0    0 -0.15754310945E+02 -0.47834621163E+02  0.25569703055E+03  0.26061143629E+03  0.10000000000E+01 0.  0.
<mgrwt>
<rscale>  0 0.18405151E+03</rscale>
<asrwt>0</asrwt>
<pdfrwt beam="1">  1        2 0.42094103E+00 0.18930690E+03</pdfrwt>
<pdfrwt beam="2">  1       -2 0.18081813E-02 0.18930690E+03</pdfrwt>
<totfact> 0.26778051E+03</totfact>
</mgrwt>
</event>
<event>
 8    3  0.1559595E-003  0.1456667E+03  0.7818608E-02  0.1216255E+00
         -2   -1    0    0    0  501 -0.00000000000E+00  0.00000000000E+00  0.15257208981E+03  0.15257208983E+03  0.25500000000E-02 0. -1.
          2   -1    0    0  501    0  0.00000000000E+00 -0.00000000000E+00 -0.11290049727E+03  0.11290049730E+03  0.25500000000E-02 0.  1.
         25    2    1    2    0    0  0.54299134530E+02  0.51431178936E+02  0.21232322350E+02  0.14720595312E+03  0.12500087578E+03 0.  0.
         23    2    1    2    0    0 -0.54299134530E+02 -0.51431178936E+02  0.18439270188E+02  0.11826663400E+03  0.89740892883E+02 0.  0.
        -13    1    4    4    0    0 -0.59415921482E+02 -0.52386255596E+02  0.45066701732E+02  0.91135011219E+02  0.10566000000E+00 0. -1.
         13    1    4    4    0    0  0.51167869513E+01  0.95507666034E+00 -0.26627431544E+02  0.27131622782E+02  0.10566000000E+00 0.  1.
    9000005    1    3    3    0    0  0.42971451789E+02  0.29257396332E+02 -0.49758503822E+02  0.71968393143E+02  0.10000000000E+01 0.  0.
    9000005    1    3    3    0    0  0.11327682742E+02  0.22173782604E+02  0.70990826172E+02  0.75237559981E+02  0.10000000000E+01 0.  0.
<mgrwt>
<rscale>  0 0.13784778E+03</rscale>
<asrwt>0</asrwt>
<pdfrwt beam="2">  1        2 0.17369307E-01 0.14566668E+03</pdfrwt>
<pdfrwt beam="1">  1       -2 0.23472629E-01 0.14566668E+03</pdfrwt>
<totfact> 0.49842764E+03</totfact>
</mgrwt>
</event>
<event>
 8    3  0.1559595E-003  0.1697031E+03  0.7818608E-02  0.1184455E+00
          2   -1    0    0  501    0  0.00000000000E+00  0.00000000000E+00  0.39785257031E+03  0.39785257032E+03  0.25500000000E-02 0. -1.
         -2   -1    0    0    0  501 -0.00000000000E+00 -0.00000000000E+00 -0.10428581336E+03  0.10428581339E+03  0.25500000000E-02 0.  1.
         25    2    1    2    0    0 -0.85913063980E+02  0.76112635838E+02  0.31046768338E+03  0.35382101228E+03  0.12499975366E+03 0.  0.
         23    2    1    2    0    0  0.85913063980E+02 -0.76112635838E+02 -0.16900926425E+02  0.14831737142E+03  0.92402453723E+02 0.  0.
        -13    1    4    4    0    0  0.76386078897E+02 -0.18825962257E+02 -0.36901250662E+02  0.86896279372E+02  0.10566000000E+00 0.  1.
         13    1    4    4    0    0  0.95269850829E+01 -0.57286673581E+02  0.20000324236E+02  0.61421092047E+02  0.10566000000E+00 0. -1.
    9000005    1    3    3    0    0 -0.52652337173E+02 -0.26565447671E+02  0.80629974942E+02  0.99900873264E+02  0.10000000000E+01 0.  0.
    9000005    1    3    3    0    0 -0.33260726807E+02  0.10267808351E+03  0.22983770844E+03  0.25392013902E+03  0.10000000000E+01 0.  0.
<mgrwt>
<rscale>  0 0.16381578E+03</rscale>
<asrwt>0</asrwt>
<pdfrwt beam="1">  1        2 0.61208087E-01 0.16970305E+03</pdfrwt>
<pdfrwt beam="2">  1       -2 0.16043971E-01 0.16970305E+03</pdfrwt>
<totfact> 0.24153942E+03</totfact>
</mgrwt>
</event>
<event>
 8    3  0.1559595E-003  0.1423928E+03  0.7818608E-02  0.1220861E+00
         -2   -1    0    0    0  501 -0.00000000000E+00  0.00000000000E+00  0.25247169110E+03  0.25247169111E+03  0.25500000000E-02 0.  1.
          2   -1    0    0  501    0  0.00000000000E+00 -0.00000000000E+00 -0.67868442938E+02  0.67868442986E+02  0.25500000000E-02 0. -1.
         25    2    1    2    0    0 -0.67185156247E+02 -0.11718684357E+02  0.68649771064E+02  0.15807747162E+03  0.12499809272E+03 0.  0.
         23    2    1    2    0    0  0.67185156247E+02  0.11718684357E+02  0.11595347710E+03  0.16226266248E+03  0.90734723242E+02 0.  0.
        -13    1    4    4    0    0  0.37430128381E+01  0.10147025426E+02  0.94730988235E+02  0.95346439714E+02  0.10566000000E+00 0.  1.
         13    1    4    4    0    0  0.63442143409E+02  0.15716589314E+01  0.21222488864E+02  0.66916222769E+02  0.10566000000E+00 0. -1.
    9000005    1    3    3    0    0 -0.52984922272E+02 -0.20971146583E+02 -0.25479618106E+02  0.62429175199E+02  0.10000000000E+01 0.  0.
    9000005    1    3    3    0    0 -0.14200233975E+02  0.92524622258E+01  0.94129389170E+02  0.95648296418E+02  0.10000000000E+01 0.  0.
<mgrwt>
<rscale>  0 0.13454640E+03</rscale>
<asrwt>0</asrwt>
<pdfrwt beam="2">  1        2 0.10441299E-01 0.14239275E+03</pdfrwt>
<pdfrwt beam="1">  1       -2 0.38841799E-01 0.14239275E+03</pdfrwt>
<totfact> 0.36718806E+03</totfact>
</mgrwt>
</event>
<event>
 8    3  0.1559595E-003  0.2143839E+03  0.7818608E-02  0.1141830E+00
         -2   -1    0    0    0  501 -0.00000000000E+00  0.00000000000E+00  0.46120791490E+02  0.46120791561E+02  0.25500000000E-02 0.  1.
          2   -1    0    0  501    0  0.00000000000E+00 -0.00000000000E+00 -0.93694720793E+03  0.93694720793E+03  0.25500000000E-02 0. -1.
         25    2    1    2    0    0  0.11229266237E+03  0.13314287278E+03 -0.38701559646E+03  0.44242687517E+03  0.12499520542E+03 0.  0.
         23    2    1    2    0    0 -0.11229266237E+03 -0.13314287278E+03 -0.50381081998E+03  0.54064112433E+03  0.90171039613E+02 0.  0.
        -13    1    4    4    0    0 -0.45129847352E+01 -0.47457161669E+02 -0.22112742922E+03  0.22620764873E+03  0.10566000000E+00 0. -1.
         13    1    4    4    0    0 -0.10777967763E+03 -0.85685711111E+02 -0.28268339076E+03  0.31443347559E+03  0.10566000000E+00 0.  1.
    9000005    1    3    3    0    0  0.28968401596E+02  0.11431404644E+03 -0.29054135957E+03  0.31356363171E+03  0.10000000000E+01 0.  0.
    9000005    1    3    3    0    0  0.83324260769E+02  0.18828826338E+02 -0.96474236881E+02  0.12886324346E+03  0.10000000000E+01 0.  0.
<mgrwt>
<rscale>  0 0.20966739E+03</rscale>
<asrwt>0</asrwt>
<pdfrwt beam="2">  1        2 0.14414571E+00 0.21438393E+03</pdfrwt>
<pdfrwt beam="1">  1       -2 0.70955071E-02 0.21438393E+03</pdfrwt>
<totfact> 0.32600095E+03</totfact>
</mgrwt>
</event>
<event>
 8    3  0.1559595E-003  0.1339335E+03  0.7818608E-02  0.1232815E+00
         -2   -1    0    0    0  501 -0.00000000000E+00  0.00000000000E+00  0.52700408205E+02  0.52700408267E+02  0.25500000000E-02 0.  1.
          2   -1    0    0  501    0  0.00000000000E+00 -0.00000000000E+00 -0.27728590917E+03  0.27728590918E+03  0.25500000000E-02 0. -1.
         25    2    1    2    0    0 -0.21591982684E+02 -0.43005001915E+02 -0.10732501592E+03  0.17162998913E+03  0.12499020049E+03 0.  0.
         23    2    1    2    0    0  0.21591982684E+02  0.43005001915E+02 -0.11726048505E+03  0.15835632833E+03  0.94926610919E+02 0.  0.
        -13    1    4    4    0    0 -0.27863538133E+02  0.17586835718E+02 -0.91156189976E+02  0.96928508101E+02  0.10566000000E+00 0. -1.
         13    1    4    4    0    0  0.49455520817E+02  0.25418166197E+02 -0.26104295075E+02  0.61427820224E+02  0.10566000000E+00 0.  1.
    9000005    1    3    3    0    0  0.38567261463E+02  0.86823770315E+01 -0.17581047796E+01  0.39584192048E+02  0.10000000000E+01 0.  0.
    9000005    1    3    3    0    0 -0.60159244147E+02 -0.51687378947E+02 -0.10556691114E+03  0.13204579708E+03  0.10000000000E+01 0.  0.
<mgrwt>
<rscale>  0 0.12645324E+03</rscale>
<asrwt>0</asrwt>
<pdfrwt beam="2">  1        2 0.42659370E-01 0.13393354E+03</pdfrwt>
<pdfrwt beam="1">  1       -2 0.81077553E-02 0.13393354E+03</pdfrwt>
<totfact> 0.10409350E+04</totfact>
</mgrwt>
</event>
<event>
 8    3  0.1559595E-003  0.1443725E+03  0.7818608E-02  0.1217522E+00
         -2   -1    0    0    0  501 -0.00000000000E+00  0.00000000000E+00  0.14334241379E+02  0.14334241606E+02  0.25500000000E-02 0.  1.
          2   -1    0    0  501    0  0.00000000000E+00 -0.00000000000E+00 -0.11917363147E+04  0.11917363147E+04  0.25500000000E-02 0. -1.
         25    2    1    2    0    0  0.44796314244E+01 -0.72099840917E+02 -0.67441328089E+03  0.68969319264E+03  0.12499988945E+03 0.  0.
         23    2    1    2    0    0 -0.44796314244E+01  0.72099840917E+02 -0.50298879241E+03  0.51637736366E+03  0.91811776196E+02 0.  0.
        -13    1    4    4    0    0  0.11551776401E+02  0.73898322503E+02 -0.48997309170E+03  0.49564911718E+03  0.10566000000E+00 0. -1.
         13    1    4    4    0    0 -0.16031407826E+02 -0.17984815860E+01 -0.13015700704E+02  0.20728246471E+02  0.10566000000E+00 0.  1.
    9000005    1    3    3    0    0 -0.24818396216E+02 -0.88703883005E+02 -0.30142043114E+03  0.31518186489E+03  0.10000000000E+01 0.  0.
    9000005    1    3    3    0    0  0.29298027640E+02  0.16604042088E+02 -0.37299284976E+03  0.37451132774E+03  0.10000000000E+01 0.  0.
<mgrwt>
<rscale>  0 0.13692933E+03</rscale>
<asrwt>0</asrwt>
<pdfrwt beam="2">  1        2 0.18334397E+00 0.14437253E+03</pdfrwt>
<pdfrwt beam="1">  1       -2 0.22052689E-02 0.14437253E+03</pdfrwt>
<totfact> 0.13085226E+04</totfact>
</mgrwt>
</event>
<event>
 8    3  0.1559595E-003  0.1259044E+03  0.7818608E-02  0.1248986E+00
          2   -1    0    0  501    0  0.00000000000E+00  0.00000000000E+00  0.40210589392E+03  0.40210589392E+03  0.25500000000E-02 0. -1.
         -2   -1    0    0    0  501 -0.00000000000E+00 -0.00000000000E+00 -0.29786070949E+02  0.29786071059E+02  0.25500000000E-02 0.  1.
         25    2    1    2    0    0 -0.18877649980E+01 -0.14954927902E+02  0.23147654903E+03  0.26350199562E+03  0.12499878168E+03 0.  0.
         23    2    1    2    0    0  0.18877649980E+01  0.14954927902E+02  0.14084327394E+03  0.16838996936E+03  0.91055699672E+02 0.  0.
        -13    1    4    4    0    0 -0.42478006259E+02  0.87604311444E+00  0.45270743149E+02  0.62085423544E+02  0.10566000000E+00 0.  1.
         13    1    4    4    0    0  0.44365771257E+02  0.14078884787E+02  0.95572530789E+02  0.10630454582E+03  0.10566000000E+00 0. -1.
    9000005    1    3    3    0    0  0.51865656733E+02  0.12037615057E+02  0.16715130076E+03  0.17542949544E+03  0.10000000000E+01 0.  0.
    9000005    1    3    3    0    0 -0.53753421731E+02 -0.26992542959E+02  0.64325248264E+02  0.88072500177E+02  0.10000000000E+01 0.  0.
<mgrwt>
<rscale>  0 0.11649976E+03</rscale>
<asrwt>0</asrwt>
<pdfrwt beam="1">  1        2 0.61862441E-01 0.12590436E+03</pdfrwt>
<pdfrwt beam="2">  1       -2 0.45824728E-02 0.12590436E+03</pdfrwt>
<totfact> 0.16593219E+04</totfact>
</mgrwt>
</event>
<event>
 8    3  0.1559595E-003  0.1320060E+03  0.7818608E-02  0.1237091E+00
          2   -1    0    0  501    0  0.00000000000E+00  0.00000000000E+00  0.20126318707E+04  0.20126318707E+04  0.25500000000E-02 0. -1.
         -2   -1    0    0    0  501 -0.00000000000E+00 -0.00000000000E+00 -0.68443401888E+01  0.68443406638E+01  0.25500000000E-02 0.  1.
         25    2    1    2    0    0 -0.36105448928E+02  0.22305341076E+02  0.10441059060E+04  0.10524175621E+04  0.12499780212E+03 0.  0.
         23    2    1    2    0    0  0.36105448928E+02 -0.22305341076E+02  0.96168162454E+03  0.96705864922E+03  0.92572957067E+02 0.  0.
        -13    1    4    4    0    0  0.15771179890E+02 -0.57139558866E+02  0.66711551461E+03  0.66974381691E+03  0.10566000000E+00 0. -1.
         13    1    4    4    0    0  0.20334269038E+02  0.34834217790E+02  0.29456610993E+03  0.29731483231E+03  0.10566000000E+00 0.  1.
    9000005    1    3    3    0    0 -0.50513629869E+02 -0.40366248566E+01  0.16075349956E+03  0.16855446824E+03  0.10000000000E+01 0.  0.
    9000005    1    3    3    0    0  0.14408180940E+02  0.26341965932E+02  0.88335240641E+03  0.88386309390E+03  0.10000000000E+01 0.  0.
<mgrwt>
<rscale>  0 0.12371496E+03</rscale>
<asrwt>0</asrwt>
<pdfrwt beam="1">  1        2 0.30963576E+00 0.13200599E+03</pdfrwt>
<pdfrwt beam="2">  1       -2 0.10529752E-02 0.13200599E+03</pdfrwt>
<totfact> 0.14127646E+04</totfact>
</mgrwt>
</event>
<event>
 8    3  0.1559595E-003  0.1364963E+03  0.7818608E-02  0.1229638E+00
         -2   -1    0    0    0  501 -0.00000000000E+00  0.00000000000E+00  0.20175346308E+03  0.20175346309E+03  0.25500000000E-02 0.  1.
          2   -1    0    0  501    0  0.00000000000E+00 -0.00000000000E+00 -0.74190370152E+02  0.74190370195E+02  0.25500000000E-02 0. -1.
         25    2    1    2    0    0  0.48108461004E+02  0.26307622729E+02  0.82730736306E+02  0.15961080316E+03  0.12499887488E+03 0.  0.
         23    2    1    2    0    0 -0.48108461004E+02 -0.26307622729E+02  0.44832356620E+02  0.11633303013E+03  0.92287153304E+02 0.  0.
        -13    1    4    4    0    0  0.84605287074E+01 -0.22209271523E+02  0.53889045751E+02  0.58897136633E+02  0.10566000000E+00 0.  1.
         13    1    4    4    0    0 -0.56568989711E+02 -0.40983512057E+01 -0.90566891310E+01  0.57435893495E+02  0.10566000000E+00 0. -1.
    9000005    1    3    3    0    0  0.10700278371E+02  0.26792798881E+02  0.10972987856E+03  0.11346363417E+03  0.10000000000E+01 0.  0.
    9000005    1    3    3    0    0  0.37408182633E+02 -0.48517615197E+00 -0.26999142255E+02  0.46147168995E+02  0.10000000000E+01 0.  0.
<mgrwt>
<rscale>  0 0.12854001E+03</rscale>
<asrwt>0</asrwt>
<pdfrwt beam="2">  1        2 0.11413903E-01 0.13649628E+03</pdfrwt>
<pdfrwt beam="1">  1       -2 0.31038994E-01 0.13649628E+03</pdfrwt>
<totfact> 0.49702446E+03</totfact>
</mgrwt>
</event>
<event>
 8    3  0.1559595E-003  0.1712439E+03  0.7818608E-02  0.1181416E+00
          2   -1    0    0  501    0  0.00000000000E+00  0.00000000000E+00  0.15472441998E+04  0.15472441999E+04  0.25500000000E-02 0. -1.
         -2   -1    0    0    0  501 -0.00000000000E+00 -0.00000000000E+00 -0.17796395957E+02  0.17796396140E+02  0.25500000000E-02 0.  1.
         25    2    1    2    0    0 -0.93958140115E+02 -0.69762542585E+02  0.96592217119E+03  0.98098426235E+03  0.12501814965E+03 0.  0.
         23    2    1    2    0    0  0.93958140115E+02  0.69762542585E+02  0.56352563270E+03  0.58405633364E+03  0.99326319325E+02 0.  0.
        -13    1    4    4    0    0  0.16536560426E+02  0.13808676280E+02  0.12699336208E+02  0.25008432088E+02  0.10566000000E+00 0.  1.
         13    1    4    4    0    0  0.77421579690E+02  0.55953866305E+02  0.55082629650E+03  0.55904790155E+03  0.10566000000E+00 0. -1.
    9000005    1    3    3    0    0 -0.33646904700E+02  0.25037180971E+02  0.11017770173E+03  0.11789444679E+03  0.10000000000E+01 0.  0.
    9000005    1    3    3    0    0 -0.60311235416E+02 -0.94799723556E+02  0.85574446946E+03  0.86308981556E+03  0.10000000000E+01 0.  0.
<mgrwt>
<rscale>  0 0.16662295E+03</rscale>
<asrwt>0</asrwt>
<pdfrwt beam="1">  1        2 0.23803758E+00 0.17124393E+03</pdfrwt>
<pdfrwt beam="2">  1       -2 0.27379070E-02 0.17124393E+03</pdfrwt>
<totfact> 0.61841713E+03</totfact>
</mgrwt>
</event>
<event>
 8    3  0.1559595E-003  0.1643678E+03  0.7818608E-02  0.1190023E+00
         -2   -1    0    0    0  501 -0.00000000000E+00  0.00000000000E+00  0.34649433249E+02  0.34649433343E+02  0.25500000000E-02 0.  1.
          2   -1    0    0  501    0  0.00000000000E+00 -0.00000000000E+00 -0.91894222160E+03  0.91894222161E+03  0.25500000000E-02 0. -1.
         25    2    1    2    0    0 -0.70855674998E+02 -0.79821220349E+02 -0.22348204907E+03  0.27741846426E+03  0.12499929663E+03 0.  0.
         23    2    1    2    0    0  0.70855674998E+02  0.79821220349E+02 -0.66081073929E+03  0.67617319069E+03  0.95642024017E+02 0.  0.
        -13    1    4    4    0    0 -0.10537706770E+02 -0.39815747593E+00 -0.23671347099E+03  0.23694826504E+03  0.10566000000E+00 0. -1.
         13    1    4    4    0    0  0.81393381768E+02  0.80219377825E+02 -0.42409726830E+03  0.43922492566E+03  0.10566000000E+00 0.  1.
    9000005    1    3    3    0    0 -0.30863662024E+02 -0.56334442946E+02 -0.22188868260E+03  0.23100156398E+03  0.10000000000E+01 0.  0.
    9000005    1    3    3    0    0 -0.39992012974E+02 -0.23486777403E+02 -0.15933664683E+01  0.46416900276E+02  0.10000000000E+01 0.  0.
<mgrwt>
<rscale>  0 0.15883124E+03</rscale>
<asrwt>0</asrwt>
<pdfrwt beam="2">  1        2 0.14137571E+00 0.16436781E+03</pdfrwt>
<pdfrwt beam="1">  1       -2 0.53306827E-02 0.16436781E+03</pdfrwt>
<totfact> 0.51446654E+03</totfact>
</mgrwt>
</event>
<event>
 8    3  0.1559595E-003  0.1443374E+03  0.7818608E-02  0.1217484E+00
         -2   -1    0    0    0  501 -0.00000000000E+00  0.00000000000E+00  0.23686877967E+02  0.23686878104E+02  0.25500000000E-02 0.  1.
          2   -1    0    0  501    0  0.00000000000E+00 -0.00000000000E+00 -0.84919001623E+03  0.84919001623E+03  0.25500000000E-02 0. -1.
         25    2    1    2    0    0 -0.42659786337E+02  0.58210961062E+02 -0.61828678548E+03  0.63491088331E+03  0.12499962914E+03 0.  0.
         23    2    1    2    0    0  0.42659786337E+02 -0.58210961062E+02 -0.20721635278E+03  0.23796601103E+03  0.92091433843E+02 0.  0.
        -13    1    4    4    0    0  0.41951064487E+02 -0.84583443283E+01 -0.17139056782E+03  0.17665269118E+03  0.10566000000E+00 0. -1.
         13    1    4    4    0    0  0.70872185006E+00 -0.49752616734E+02 -0.35825784960E+02  0.61313319846E+02  0.10566000000E+00 0.  1.
    9000005    1    3    3    0    0 -0.17059075556E+01  0.28773051444E+02 -0.54600566735E+03  0.54676684920E+03  0.10000000000E+01 0.  0.
    9000005    1    3    3    0    0 -0.40953878781E+02  0.29437909618E+02 -0.72281118133E+02  0.88144034106E+02  0.10000000000E+01 0.  0.
<mgrwt>
<rscale>  0 0.13695611E+03</rscale>
<asrwt>0</asrwt>
<pdfrwt beam="2">  1        2 0.13064459E+00 0.14433738E+03</pdfrwt>
<pdfrwt beam="1">  1       -2 0.36441357E-02 0.14433738E+03</pdfrwt>
<totfact> 0.10016821E+04</totfact>
</mgrwt>
</event>
<event>
 8    3  0.1559595E-003  0.1258526E+03  0.7818608E-02  0.1249455E+00
         -2   -1    0    0    0  501 -0.00000000000E+00  0.00000000000E+00  0.34585480819E+02  0.34585480913E+02  0.25500000000E-02 0.  1.
          2   -1    0    0  501    0  0.00000000000E+00 -0.00000000000E+00 -0.43712826734E+03  0.43712826735E+03  0.25500000000E-02 0. -1.
         25    2    1    2    0    0  0.33096682679E+00  0.14646109038E+02 -0.33525907085E+03  0.35810267839E+03  0.12499706250E+03 0.  0.
         23    2    1    2    0    0 -0.33096682679E+00 -0.14646109038E+02 -0.67283715667E+02  0.11361106987E+03  0.90364587940E+02 0.  0.
        -13    1    4    4    0    0 -0.38582899730E+01  0.11589591396E+02  0.19427686029E+02  0.22948881862E+02  0.10566000000E+00 0.  1.
         13    1    4    4    0    0  0.35273231463E+01 -0.26235700434E+02 -0.86711401696E+02  0.90662188006E+02  0.10566000000E+00 0. -1.
    9000005    1    3    3    0    0 -0.55640491973E+02  0.35168903934E+02 -0.16166119861E+03  0.17455102201E+03  0.10000000000E+01 0.  0.
    9000005    1    3    3    0    0  0.55971458800E+02 -0.20522794896E+02 -0.17359787225E+03  0.18355165638E+03  0.10000000000E+01 0.  0.
<mgrwt>
<rscale>  0 0.11622637E+03</rscale>
<asrwt>0</asrwt>
<pdfrwt beam="2">  1        2 0.67250499E-01 0.12585263E+03</pdfrwt>
<pdfrwt beam="1">  1       -2 0.53208435E-02 0.12585263E+03</pdfrwt>
<totfact> 0.12131655E+04</totfact>
</mgrwt>
</event>
<event>
 8    3  0.1559595E-003  0.1657863E+03  0.7818608E-02  0.1189247E+00
          2   -1    0    0  501    0  0.00000000000E+00  0.00000000000E+00  0.29128868021E+04  0.29128868021E+04  0.25500000000E-02 0. -1.
         -2   -1    0    0    0  501 -0.00000000000E+00 -0.00000000000E+00 -0.15547874517E+02  0.15547874727E+02  0.25500000000E-02 0.  1.
         25    2    1    2    0    0  0.51454496249E+02  0.95983854057E+02  0.49755701177E+03  0.52445026787E+03  0.12499855233E+03 0.  0.
         23    2    1    2    0    0 -0.51454496249E+02 -0.95983854057E+02  0.23997819158E+04  0.24039844090E+04  0.91254203305E+02 0.  0.
        -13    1    4    4    0    0  0.10769171098E+02 -0.52408937055E+02  0.15159790279E+04  0.15169229038E+04  0.10566000000E+00 0. -1.
         13    1    4    4    0    0 -0.62223667347E+02 -0.43574917002E+02  0.88380288793E+03  0.88706150522E+03  0.10566000000E+00 0.  1.
    9000005    1    3    3    0    0  0.66429996200E+01 -0.13174483617E+02  0.24757747231E+03  0.24801875182E+03  0.10000000000E+01 0.  0.
    9000005    1    3    3    0    0  0.44811496629E+02  0.10915833767E+03  0.24997953946E+03  0.27643151604E+03  0.10000000000E+01 0.  0.
<mgrwt>
<rscale>  0 0.15951357E+03</rscale>
<asrwt>0</asrwt>
<pdfrwt beam="1">  1        2 0.44813635E+00 0.16578632E+03</pdfrwt>
<pdfrwt beam="2">  1       -2 0.23919811E-02 0.16578632E+03</pdfrwt>
<totfact> 0.14177109E+03</totfact>
</mgrwt>
</event>
<event>
 8    3  0.1559595E-003  0.1607850E+03  0.7818608E-02  0.1195250E+00
         -2   -1    0    0    0  501 -0.00000000000E+00  0.00000000000E+00  0.34349532115E+02  0.34349532210E+02  0.25500000000E-02 0.  1.
          2   -1    0    0  501    0  0.00000000000E+00 -0.00000000000E+00 -0.73277243708E+03  0.73277243708E+03  0.25500000000E-02 0. -1.
         25    2    1    2    0    0  0.14284655501E+02  0.10012442082E+03 -0.50801404437E+03  0.53285089016E+03  0.12499140307E+03 0.  0.
         23    2    1    2    0    0 -0.14284655501E+02 -0.10012442082E+03 -0.19040886060E+03  0.23427107913E+03  0.91643075551E+02 0.  0.
        -13    1    4    4    0    0 -0.43630112899E+02 -0.77483913175E+02 -0.86931910033E+02  0.12435638986E+03  0.10566000000E+00 0.  1.
         13    1    4    4    0    0  0.29345457398E+02 -0.22640507648E+02 -0.10347695056E+03  0.10991468927E+03  0.10566000000E+00 0. -1.
    9000005    1    3    3    0    0 -0.26808315884E+02  0.79146581261E+02 -0.45479652936E+03  0.46241080247E+03  0.10000000000E+01 0.  0.
    9000005    1    3    3    0    0  0.41092971385E+02  0.20977839561E+02 -0.53217515010E+02  0.70440087689E+02  0.10000000000E+01 0.  0.
<mgrwt>
<rscale>  0 0.15433097E+03</rscale>
<asrwt>0</asrwt>
<pdfrwt beam="2">  1        2 0.11273421E+00 0.16078496E+03</pdfrwt>
<pdfrwt beam="1">  1       -2 0.52845440E-02 0.16078496E+03</pdfrwt>
<totfact> 0.69392608E+03</totfact>
</mgrwt>
</event>
<event>
 8    3  0.1559595E-003  0.1562312E+03  0.7818608E-02  0.1203292E+00
          2   -1    0    0  501    0  0.00000000000E+00  0.00000000000E+00  0.11235185316E+03  0.11235185319E+03  0.25500000000E-02 0. -1.
         -2   -1    0    0    0  501 -0.00000000000E+00 -0.00000000000E+00 -0.17632435374E+03  0.17632435376E+03  0.25500000000E-02 0.  1.
         25    2    1    2    0    0  0.58962839457E+02 -0.72855830607E+02 -0.28202392229E+02  0.15875631084E+03  0.12499441112E+03 0.  0.
         23    2    1    2    0    0 -0.58962839457E+02  0.72855830607E+02 -0.35770108356E+02  0.12991989611E+03  0.82553559972E+02 0.  0.
        -13    1    4    4    0    0 -0.45174113241E+02  0.30452815923E+02  0.20425800870E+02  0.58183322438E+02  0.10566000000E+00 0. -1.
         13    1    4    4    0    0 -0.13788726216E+02  0.42403014684E+02 -0.56195909225E+02  0.71736573675E+02  0.10566000000E+00 0.  1.
    9000005    1    3    3    0    0  0.94450975069E+02 -0.34402641569E+02 -0.27608800204E+01  0.10056416308E+03  0.10000000000E+01 0.  0.
    9000005    1    3    3    0    0 -0.35488135612E+02 -0.38453189038E+02 -0.25441512209E+02  0.58192147751E+02  0.10000000000E+01 0.  0.
<mgrwt>
<rscale>  0 0.14772885E+03</rscale>
<asrwt>0</asrwt>
<pdfrwt beam="1">  1        2 0.17284901E-01 0.15623121E+03</pdfrwt>
<pdfrwt beam="2">  1       -2 0.27126824E-01 0.15623121E+03</pdfrwt>
<totfact> 0.39061589E+03</totfact>
</mgrwt>
</event>
<event>
 8    3  0.1559595E-003  0.2285376E+03  0.7818608E-02  0.1130615E+00
         -2   -1    0    0    0  501 -0.00000000000E+00  0.00000000000E+00  0.10147717829E+03  0.10147717832E+03  0.25500000000E-02 0.  1.
          2   -1    0    0  501    0  0.00000000000E+00 -0.00000000000E+00 -0.47940369830E+03  0.47940369831E+03  0.25500000000E-02 0. -1.
         25    2    1    2    0    0 -0.12622674961E+03 -0.14377312132E+03 -0.19732568551E+03  0.30193847046E+03  0.12500204420E+03 0.  0.
         23    2    1    2    0    0  0.12622674961E+03  0.14377312132E+03 -0.18060083451E+03  0.27894240616E+03  0.92673091020E+02 0.  0.
        -13    1    4    4    0    0  0.80593694325E+02  0.11692023611E+03 -0.74495299717E+02  0.16035973940E+03  0.10566000000E+00 0. -1.
         13    1    4    4    0    0  0.45633055283E+02  0.26852885212E+02 -0.10610553479E+03  0.11858266676E+03  0.10566000000E+00 0.  1.
    9000005    1    3    3    0    0 -0.12578366233E+02 -0.57877691969E+02 -0.13306597415E+03  0.14565574483E+03  0.10000000000E+01 0.  0.
    9000005    1    3    3    0    0 -0.11364838337E+03 -0.85895429355E+02 -0.64259711352E+02  0.15628272563E+03  0.10000000000E+01 0.  0.
<mgrwt>
<rscale>  0 0.22444045E+03</rscale>
<asrwt>0</asrwt>
<pdfrwt beam="2">  1        2 0.73754414E-01 0.22853755E+03</pdfrwt>
<pdfrwt beam="1">  1       -2 0.15611874E-01 0.22853755E+03</pdfrwt>
<totfact> 0.20784563E+03</totfact>
</mgrwt>
</event>
<event>
 8    3  0.1559595E-003  0.1725907E+03  0.7818608E-02  0.1181452E+00
         -2   -1    0    0    0  501 -0.00000000000E+00  0.00000000000E+00  0.73666215090E+02  0.73666215134E+02  0.25500000000E-02 0.  1.
          2   -1    0    0  501    0  0.00000000000E+00 -0.00000000000E+00 -0.36587002901E+03  0.36587002902E+03  0.25500000000E-02 0. -1.
         25    2    1    2    0    0  0.11724842879E+03 -0.20390847446E+02 -0.19757665947E+03  0.26234346810E+03  0.12499831268E+03 0.  0.
         23    2    1    2    0    0 -0.11724842879E+03  0.20390847446E+02 -0.94627154452E+02  0.17719277606E+03  0.90994509803E+02 0.  0.
        -13    1    4    4    0    0 -0.11132501821E+03  0.46503318128E+02 -0.64213786266E+02  0.13667201537E+03  0.10566000000E+00 0.  1.
         13    1    4    4    0    0 -0.59234105851E+01 -0.26112470682E+02 -0.30413368186E+02  0.40520760686E+02  0.10566000000E+00 0. -1.
    9000005    1    3    3    0    0  0.42846143341E+02 -0.69825270547E+02 -0.78355061665E+02  0.11336611528E+03  0.10000000000E+01 0.  0.
    9000005    1    3    3    0    0  0.74402285450E+02  0.49434423102E+02 -0.11922159781E+03  0.14897735281E+03  0.10000000000E+01 0.  0.
<mgrwt>
<rscale>  0 0.16658971E+03</rscale>
<asrwt>0</asrwt>
<pdfrwt beam="2">  1        2 0.56287696E-01 0.17259073E+03</pdfrwt>
<pdfrwt beam="1">  1       -2 0.11333264E-01 0.17259073E+03</pdfrwt>
<totfact> 0.46521630E+03</totfact>
</mgrwt>
</event>
<event>
 8    3  0.1559595E-003  0.2619171E+03  0.7818608E-02  0.1109017E+00
         -2   -1    0    0    0  501 -0.00000000000E+00  0.00000000000E+00  0.76281325168E+02  0.76281325211E+02  0.25500000000E-02 0.  1.
          2   -1    0    0  501    0  0.00000000000E+00 -0.00000000000E+00 -0.87988308888E+03  0.87988308889E+03  0.25500000000E-02 0. -1.
         25    2    1    2    0    0  0.60392066987E+02  0.22209716864E+03 -0.30702472286E+03  0.40356502355E+03  0.12500477474E+03 0.  0.
         23    2    1    2    0    0 -0.60392066987E+02 -0.22209716864E+03 -0.49657704085E+03  0.55259939055E+03  0.76177259460E+02 0.  0.
        -13    1    4    4    0    0 -0.40577741677E+02 -0.59143845133E+02 -0.97169675148E+02  0.12077460192E+03  0.10566000000E+00 0.  1.
         13    1    4    4    0    0 -0.19814325310E+02 -0.16295332351E+03 -0.39940736571E+03  0.43182478863E+03  0.10566000000E+00 0. -1.
    9000005    1    3    3    0    0  0.33982381122E+02 -0.39445019330E+01 -0.44184863170E+02  0.55889743742E+02  0.10000000000E+01 0.  0.
    9000005    1    3    3    0    0  0.26409685865E+02  0.22604167058E+03 -0.26283985969E+03  0.34767527980E+03  0.10000000000E+01 0.  0.
<mgrwt>
<rscale>  0 0.25690590E+03</rscale>
<asrwt>0</asrwt>
<pdfrwt beam="2">  1        2 0.13536662E+00 0.26191706E+03</pdfrwt>
<pdfrwt beam="1">  1       -2 0.11735589E-01 0.26191706E+03</pdfrwt>
<totfact> 0.16049190E+03</totfact>
</mgrwt>
</event>
<event>
 8    3  0.1559595E-003  0.1706615E+03  0.7818608E-02  0.1183617E+00
         -2   -1    0    0    0  501 -0.00000000000E+00  0.00000000000E+00  0.41978422915E+02  0.41978422992E+02  0.25500000000E-02 0.  1.
          2   -1    0    0  501    0  0.00000000000E+00 -0.00000000000E+00 -0.64274308280E+03  0.64274308281E+03  0.25500000000E-02 0. -1.
         25    2    1    2    0    0  0.73848596528E+02  0.89702745488E+02 -0.40539807711E+03  0.43985559815E+03  0.12500059416E+03 0.  0.
         23    2    1    2    0    0 -0.73848596528E+02 -0.89702745488E+02 -0.19536658278E+03  0.24486590765E+03  0.91055001549E+02 0.  0.
        -13    1    4    4    0    0 -0.68645227564E+02 -0.80950946469E+02 -0.90433001470E+02  0.13943945611E+03  0.10566000000E+00 0.  1.
         13    1    4    4    0    0 -0.52033689634E+01 -0.87517990194E+01 -0.10493358131E+03  0.10542645154E+03  0.10566000000E+00 0. -1.
    9000005    1    3    3    0    0  0.30341246220E+02 -0.18174081103E+02 -0.28554550362E+02  0.45467029730E+02  0.10000000000E+01 0.  0.
    9000005    1    3    3    0    0  0.43507350307E+02  0.10787682659E+03 -0.37684352675E+03  0.39438856842E+03  0.10000000000E+01 0.  0.
<mgrwt>
<rscale>  0 0.16458370E+03</rscale>
<asrwt>0</asrwt>
<pdfrwt beam="2">  1        2 0.98883544E-01 0.17066150E+03</pdfrwt>
<pdfrwt beam="1">  1       -2 0.64582194E-02 0.17066150E+03</pdfrwt>
<totfact> 0.59947179E+03</totfact>
</mgrwt>
</event>
<event>
 8    3  0.1559595E-003  0.1661677E+03  0.7818608E-02  0.1189123E+00
          2   -1    0    0  501    0  0.00000000000E+00  0.00000000000E+00  0.26402121593E+03  0.26402121594E+03  0.25500000000E-02 0. -1.
         -2   -1    0    0    0  501 -0.00000000000E+00 -0.00000000000E+00 -0.10759109632E+03  0.10759109635E+03  0.25500000000E-02 0.  1.
         25    2    1    2    0    0  0.48672505485E+02 -0.98070321603E+02  0.15915485120E+03  0.23009124246E+03  0.12499964971E+03 0.  0.
         23    2    1    2    0    0 -0.48672505485E+02  0.98070321603E+02 -0.27247315818E+01  0.14152106983E+03  0.89632517946E+02 0.  0.
        -13    1    4    4    0    0 -0.32728432321E+02  0.49352491933E+02 -0.45562090278E+02  0.74717695205E+02  0.10566000000E+00 0.  1.
         13    1    4    4    0    0 -0.15944073164E+02  0.48717829669E+02  0.42837358696E+02  0.66803374622E+02  0.10566000000E+00 0. -1.
    9000005    1    3    3    0    0  0.42047318508E+02 -0.55518149901E+01 -0.37899966901E+01  0.42593000813E+02  0.10000000000E+01 0.  0.
    9000005    1    3    3    0    0  0.66251869769E+01 -0.92518506612E+02  0.16294484789E+03  0.18749824165E+03  0.10000000000E+01 0.  0.
<mgrwt>
<rscale>  0 0.15962289E+03</rscale>
<asrwt>0</asrwt>
<pdfrwt beam="1">  1        2 0.40618649E-01 0.16616773E+03</pdfrwt>
<pdfrwt beam="2">  1       -2 0.16552476E-01 0.16616773E+03</pdfrwt>
<totfact> 0.35529188E+03</totfact>
</mgrwt>
</event>
<event>
 8    3  0.1559595E-003  0.1339766E+03  0.7818608E-02  0.1237104E+00
         -2   -1    0    0    0  501 -0.00000000000E+00  0.00000000000E+00  0.40928628711E+01  0.40928636654E+01  0.25500000000E-02 0. -1.
          2   -1    0    0  501    0  0.00000000000E+00 -0.00000000000E+00 -0.33930130748E+04  0.33930130748E+04  0.25500000000E-02 0.  1.
         25    2    1    2    0    0 -0.39127137651E+02  0.28179612815E+02 -0.22727243427E+04  0.22766698658E+04  0.12499886590E+03 0.  0.
         23    2    1    2    0    0  0.39127137651E+02 -0.28179612815E+02 -0.11161958692E+04  0.11204360727E+04  0.84609402329E+02 0.  0.
        -13    1    4    4    0    0  0.33731858848E+02 -0.35096081591E+02 -0.11056386638E+04  0.11067097358E+04  0.10566000000E+00 0.  1.
         13    1    4    4    0    0  0.53952788030E+01  0.69164687761E+01 -0.10557205477E+02  0.13726336919E+02  0.10566000000E+00 0. -1.
    9000005    1    3    3    0    0 -0.64592766460E+02  0.61848650132E+02 -0.17270571455E+04  0.17293712340E+04  0.10000000000E+01 0.  0.
    9000005    1    3    3    0    0  0.25465628809E+02 -0.33669037317E+02 -0.54566719714E+03  0.54729863179E+03  0.10000000000E+01 0.  0.
<mgrwt>
<rscale>  0 0.12370705E+03</rscale>
<asrwt>0</asrwt>
<pdfrwt beam="2">  1        2 0.52199976E+00 0.13397664E+03</pdfrwt>
<pdfrwt beam="1">  1       -2 0.62967398E-03 0.13397664E+03</pdfrwt>
<totfact> 0.50225384E+03</totfact>
</mgrwt>
</event>
<event>
 8    3  0.1559595E-003  0.1813241E+03  0.7818608E-02  0.1166558E+00
          2   -1    0    0  501    0  0.00000000000E+00  0.00000000000E+00  0.50814271059E+03  0.50814271060E+03  0.25500000000E-02 0. -1.
         -2   -1    0    0    0  501 -0.00000000000E+00 -0.00000000000E+00 -0.65373271020E+02  0.65373271070E+02  0.25500000000E-02 0.  1.
         25    2    1    2    0    0 -0.22863728938E+02 -0.12916828127E+03  0.19129768333E+03  0.26348942190E+03  0.12499870726E+03 0.  0.
         23    2    1    2    0    0  0.22863728938E+02  0.12916828127E+03  0.25147175624E+03  0.31002655977E+03  0.12518477778E+03 0.  0.
        -13    1    4    4    0    0 -0.43053799113E+02  0.97939161206E+02  0.13028773243E+03  0.16858414309E+03  0.10566000000E+00 0. -1.
         13    1    4    4    0    0  0.65917528051E+02  0.31229120068E+02  0.12118402381E+03  0.14144241668E+03  0.10566000000E+00 0.  1.
    9000005    1    3    3    0    0 -0.50756771720E+02 -0.17377087287E+02  0.20459780064E+02  0.57426610890E+02  0.10000000000E+01 0.  0.
    9000005    1    3    3    0    0  0.27893042781E+02 -0.11179119399E+03  0.17083790327E+03  0.20606281101E+03  0.10000000000E+01 0.  0.
<mgrwt>
<rscale>  0 0.18129197E+03</rscale>
<asrwt>0</asrwt>
<pdfrwt beam="1">  1        2 0.78175800E-01 0.18132408E+03</pdfrwt>
<pdfrwt beam="2">  1       -2 0.10057427E-01 0.18132408E+03</pdfrwt>
<totfact> 0.39426600E+03</totfact>
</mgrwt>
</event>
<event>
 8    3  0.1559595E-003  0.1582500E+03  0.7818608E-02  0.1198434E+00
          2   -1    0    0  501    0  0.00000000000E+00  0.00000000000E+00  0.84886982661E+02  0.84886982700E+02  0.25500000000E-02 0. -1.
         -2   -1    0    0    0  501 -0.00000000000E+00 -0.00000000000E+00 -0.27079854890E+03  0.27079854891E+03  0.25500000000E-02 0.  1.
         25    2    1    2    0    0  0.23592917525E+00  0.97046755578E+02 -0.51999176287E+02  0.16657427735E+03  0.12499978844E+03 0.  0.
         23    2    1    2    0    0 -0.23592917525E+00 -0.97046755578E+02 -0.13391238995E+03  0.18911125426E+03  0.91719190325E+02 0.  0.
        -13    1    4    4    0    0 -0.35329998519E+02 -0.41858631919E+02 -0.21074371120E+02  0.58689812946E+02  0.10566000000E+00 0. -1.
         13    1    4    4    0    0  0.35094069344E+02 -0.55188123659E+02 -0.11283801883E+03  0.13042144131E+03  0.10566000000E+00 0.  1.
    9000005    1    3    3    0    0 -0.13619985312E+02  0.12346526065E+03 -0.56365299090E+02  0.13640828981E+03  0.10000000000E+01 0.  0.
    9000005    1    3    3    0    0  0.13855914487E+02 -0.26418505068E+02  0.43661228038E+01  0.30165987546E+02  0.10000000000E+01 0.  0.
<mgrwt>
<rscale>  0 0.15167131E+03</rscale>
<asrwt>0</asrwt>
<pdfrwt beam="1">  1        2 0.13059536E-01 0.15825004E+03</pdfrwt>
<pdfrwt beam="2">  1       -2 0.41661315E-01 0.15825004E+03</pdfrwt>
<totfact> 0.24671520E+03</totfact>
</mgrwt>
</event>
<event>
 8    3  0.1559595E-003  0.1470095E+03  0.7818608E-02  0.1212009E+00
         -2   -1    0    0    0  501 -0.00000000000E+00  0.00000000000E+00  0.29209859194E+02  0.29209859305E+02  0.25500000000E-02 0.  1.
          2   -1    0    0  501    0  0.00000000000E+00 -0.00000000000E+00 -0.63072110493E+03  0.63072110493E+03  0.25500000000E-02 0. -1.
         25    2    1    2    0    0  0.16727442669E+02  0.75548374853E+02 -0.33485730296E+03  0.36570644747E+03  0.12499771237E+03 0.  0.
         23    2    1    2    0    0 -0.16727442669E+02 -0.75548374853E+02 -0.26665394278E+03  0.29422451677E+03  0.97346683492E+02 0.  0.
        -13    1    4    4    0    0 -0.32607554726E+02  0.99441965411E+01 -0.47646506326E+02  0.58586179251E+02  0.10566000000E+00 0.  1.
         13    1    4    4    0    0  0.15880112057E+02 -0.85492571394E+02 -0.21900743645E+03  0.23563833751E+03  0.10566000000E+00 0. -1.
    9000005    1    3    3    0    0 -0.42891344301E+02  0.75503385476E+02 -0.18290828206E+03  0.20247683393E+03  0.10000000000E+01 0.  0.
    9000005    1    3    3    0    0  0.59618786970E+02  0.44989377238E-01 -0.15194902090E+03  0.16322961354E+03  0.10000000000E+01 0.  0.
<mgrwt>
<rscale>  0 0.14098515E+03</rscale>
<asrwt>0</asrwt>
<pdfrwt beam="2">  1        2 0.97034006E-01 0.14700950E+03</pdfrwt>
<pdfrwt beam="1">  1       -2 0.44938250E-02 0.14700950E+03</pdfrwt>
<totfact> 0.10520649E+04</totfact>
</mgrwt>
</event>
<event>
 8    3  0.1559595E-003  0.1592679E+03  0.7818608E-02  0.1196916E+00
         -2   -1    0    0    0  501 -0.00000000000E+00  0.00000000000E+00  0.20446978864E+03  0.20446978865E+03  0.25500000000E-02 0.  1.
          2   -1    0    0  501    0  0.00000000000E+00 -0.00000000000E+00 -0.11650589176E+03  0.11650589179E+03  0.25500000000E-02 0. -1.
         25    2    1    2    0    0  0.98691455701E+02 -0.44027806105E-01  0.94910093352E+02  0.18540273885E+03  0.12500497744E+03 0.  0.
         23    2    1    2    0    0 -0.98691455701E+02  0.44027806105E-01 -0.69461964789E+01  0.13557294160E+03  0.92691787558E+02 0.  0.
        -13    1    4    4    0    0 -0.85136411124E+02  0.37784842614E+02 -0.15879806853E+02  0.94488529781E+02  0.10566000000E+00 0. -1.
         13    1    4    4    0    0 -0.13555044577E+02 -0.37740814808E+02  0.89336103742E+01  0.41084411815E+02  0.10566000000E+00 0.  1.
    9000005    1    3    3    0    0  0.35208046035E+02  0.44945700802E+02 -0.66170787975E+01  0.57484852422E+02  0.10000000000E+01 0.  0.
    9000005    1    3    3    0    0  0.63483409666E+02 -0.44989728608E+02  0.10152717215E+03  0.12791788643E+03  0.10000000000E+01 0.  0.
<mgrwt>
<rscale>  0 0.15293140E+03</rscale>
<asrwt>0</asrwt>
<pdfrwt beam="2">  1        2 0.17923983E-01 0.15926786E+03</pdfrwt>
<pdfrwt beam="1">  1       -2 0.31456890E-01 0.15926786E+03</pdfrwt>
<totfact> 0.28740456E+03</totfact>
</mgrwt>
</event>
<event>
 8    3  0.1559595E-003  0.1409443E+03  0.7818608E-02  0.1222257E+00
         -2   -1    0    0    0  501 -0.00000000000E+00  0.00000000000E+00  0.19466953778E+02  0.19466953945E+02  0.25500000000E-02 0.  1.
          2   -1    0    0  501    0  0.00000000000E+00 -0.00000000000E+00 -0.83811978606E+03  0.83811978607E+03  0.25500000000E-02 0. -1.
         25    2    1    2    0    0  0.37828733638E+02  0.52990063576E+02 -0.48762827086E+03  0.50758903455E+03  0.12500535000E+03 0.  0.
         23    2    1    2    0    0 -0.37828733638E+02 -0.52990063576E+02 -0.33102456143E+03  0.34999770547E+03  0.93178182184E+02 0.  0.
        -13    1    4    4    0    0  0.28871997038E+01 -0.30357979568E+02 -0.22301090691E+02  0.37779526937E+02  0.10566000000E+00 0.  1.
         13    1    4    4    0    0 -0.40715933342E+02 -0.22632084008E+02 -0.30872347074E+03  0.31221817853E+03  0.10566000000E+00 0. -1.
    9000005    1    3    3    0    0  0.17533293410E+02  0.88524932383E+02 -0.41014867513E+03  0.41996073119E+03  0.10000000000E+01 0.  0.
    9000005    1    3    3    0    0  0.20295440228E+02 -0.35534868807E+02 -0.77479595724E+02  0.87628303354E+02  0.10000000000E+01 0.  0.
<mgrwt>
<rscale>  0 0.13356671E+03</rscale>
<asrwt>0</asrwt>
<pdfrwt beam="2">  1        2 0.12894148E+00 0.14094431E+03</pdfrwt>
<pdfrwt beam="1">  1       -2 0.29949166E-02 0.14094431E+03</pdfrwt>
<totfact> 0.13588800E+04</totfact>
</mgrwt>
</event>
<event>
 8    3  0.1559595E-003  0.1261454E+03  0.7818608E-02  0.1248339E+00
         -2   -1    0    0    0  501 -0.00000000000E+00  0.00000000000E+00  0.67099280920E+01  0.67099285765E+01  0.25500000000E-02 0.  1.
          2   -1    0    0  501    0  0.00000000000E+00 -0.00000000000E+00 -0.19589124683E+04  0.19589124683E+04  0.25500000000E-02 0. -1.
         25    2    1    2    0    0  0.13345014870E+02 -0.10493727349E+02 -0.82443479995E+03  0.83402961763E+03  0.12499782388E+03 0.  0.
         23    2    1    2    0    0 -0.13345014870E+02  0.10493727349E+02 -0.11277677402E+04  0.11315927792E+04  0.91399859688E+02 0.  0.
        -13    1    4    4    0    0 -0.17708613462E+02  0.31872148986E+02 -0.18426513069E+03  0.18783790465E+03  0.10566000000E+00 0.  1.
         13    1    4    4    0    0  0.43635985916E+01 -0.21378421637E+02 -0.94350260955E+03  0.94375487458E+03  0.10566000000E+00 0. -1.
    9000005    1    3    3    0    0 -0.55082098076E+02  0.40458262309E+01 -0.31389495665E+03  0.31871844950E+03  0.10000000000E+01 0.  0.
    9000005    1    3    3    0    0  0.68427112947E+02 -0.14539553579E+02 -0.51053984330E+03  0.51531116813E+03  0.10000000000E+01 0.  0.
<mgrwt>
<rscale>  0 0.11687759E+03</rscale>
<asrwt>0</asrwt>
<pdfrwt beam="2">  1        2 0.30137069E+00 0.12614541E+03</pdfrwt>
<pdfrwt beam="1">  1       -2 0.10322982E-02 0.12614541E+03</pdfrwt>
<totfact> 0.15451973E+04</totfact>
</mgrwt>
</event>
<event>
 8    3  0.1559595E-003  0.2740608E+03  0.7818608E-02  0.1101168E+00
          2   -1    0    0  501    0  0.00000000000E+00  0.00000000000E+00  0.97563028174E+03  0.97563028174E+03  0.25500000000E-02 0. -1.
         -2   -1    0    0    0  501 -0.00000000000E+00 -0.00000000000E+00 -0.84933199374E+02  0.84933199413E+02  0.25500000000E-02 0.  1.
         25    2    1    2    0    0  0.18788676229E+03 -0.15551000991E+03  0.65662189753E+03  0.71152066774E+03  0.12499818272E+03 0.  0.
         23    2    1    2    0    0 -0.18788676229E+03  0.15551000991E+03  0.23407518483E+03  0.34904281341E+03  0.86918897901E+02 0.  0.
        -13    1    4    4    0    0 -0.10673596078E+03  0.84793577819E+02  0.71142839606E+02  0.15376550639E+03  0.10566000000E+00 0.  1.
         13    1    4    4    0    0 -0.81150801510E+02  0.70716432093E+02  0.16293234522E+03  0.19527730702E+03  0.10566000000E+00 0. -1.
    9000005    1    3    3    0    0  0.12156672621E+02 -0.33559050406E+02  0.24548974703E+03  0.24807299420E+03  0.10000000000E+01 0.  0.
    9000005    1    3    3    0    0  0.17573008967E+03 -0.12195095951E+03  0.41113215050E+03  0.46344767354E+03  0.10000000000E+01 0.  0.
<mgrwt>
<rscale>  0 0.27019465E+03</rscale>
<asrwt>0</asrwt>
<pdfrwt beam="1">  1        2 0.15009696E+00 0.27406084E+03</pdfrwt>
<pdfrwt beam="2">  1       -2 0.13066647E-01 0.27406084E+03</pdfrwt>
<totfact> 0.11706429E+03</totfact>
</mgrwt>
</event>
<event>
 8    3  0.1559595E-003  0.1404879E+03  0.7818608E-02  0.1223998E+00
          2   -1    0    0  501    0  0.00000000000E+00  0.00000000000E+00  0.17051961290E+04  0.17051961290E+04  0.25500000000E-02 0. -1.
         -2   -1    0    0    0  501 -0.00000000000E+00 -0.00000000000E+00 -0.97414142379E+01  0.97414145717E+01  0.25500000000E-02 0.  1.
         25    2    1    2    0    0 -0.63953042169E+02 -0.47741153722E+01  0.11346683506E+04  0.11433324592E+04  0.12499625097E+03 0.  0.
         23    2    1    2    0    0  0.63953042169E+02  0.47741153722E+01  0.56078636416E+03  0.57160508432E+03  0.90212207632E+02 0.  0.
        -13    1    4    4    0    0  0.54623356156E+02  0.27032020240E+02  0.52447856408E+03  0.52800778072E+03  0.10566000000E+00 0. -1.
         13    1    4    4    0    0  0.93296860134E+01 -0.22257904868E+02  0.36307800087E+02  0.43597303602E+02  0.10566000000E+00 0.  1.
    9000005    1    3    3    0    0 -0.41193888341E+02 -0.48800324119E+02  0.27849082600E+03  0.28572110219E+03  0.10000000000E+01 0.  0.
    9000005    1    3    3    0    0 -0.22759153828E+02  0.44026208746E+02  0.85617752456E+03  0.85761135703E+03  0.10000000000E+01 0.  0.
<mgrwt>
<rscale>  0 0.13235816E+03</rscale>
<asrwt>0</asrwt>
<pdfrwt beam="1">  1        2 0.26233761E+00 0.14048789E+03</pdfrwt>
<pdfrwt beam="2">  1       -2 0.14986806E-02 0.14048789E+03</pdfrwt>
<totfact> 0.12248815E+04</totfact>
</mgrwt>
</event>
<event>
 8    3  0.1559595E-003  0.1837692E+03  0.7818608E-02  0.1169519E+00
          2   -1    0    0  501    0  0.00000000000E+00  0.00000000000E+00  0.96762015584E+03  0.96762015585E+03  0.25500000000E-02 0. -1.
         -2   -1    0    0    0  501 -0.00000000000E+00 -0.00000000000E+00 -0.31814880709E+02  0.31814880811E+02  0.25500000000E-02 0.  1.
         25    2    1    2    0    0 -0.12748720498E+03  0.43510331630E+02  0.41594460301E+03  0.45473181828E+03  0.12499990958E+03 0.  0.
         23    2    1    2    0    0  0.12748720498E+03 -0.43510331630E+02  0.51986067213E+03  0.54470321838E+03  0.91106208873E+02 0.  0.
        -13    1    4    4    0    0  0.97845031030E+02 -0.50911495630E+02  0.25168270533E+03  0.27479051259E+03  0.10566000000E+00 0.  1.
         13    1    4    4    0    0  0.29642173946E+02  0.74011639995E+01  0.26817796680E+03  0.26991270579E+03  0.10566000000E+00 0. -1.
    9000005    1    3    3    0    0 -0.13399339093E+03  0.42858778932E+02  0.42256768527E+03  0.44537125231E+03  0.10000000000E+01 0.  0.
    9000005    1    3    3    0    0  0.65061859571E+01  0.65155269794E+00 -0.66230822657E+01  0.93605659725E+01  0.10000000000E+01 0.  0.
<mgrwt>
<rscale>  0 0.17823808E+03</rscale>
<asrwt>0</asrwt>
<pdfrwt beam="1">  1        2 0.14886461E+00 0.18376919E+03</pdfrwt>
<pdfrwt beam="2">  1       -2 0.48945981E-02 0.18376919E+03</pdfrwt>
<totfact> 0.54811970E+03</totfact>
</mgrwt>
</event>
<event>
 8    3  0.1559595E-003  0.2361978E+03  0.7818608E-02  0.1125132E+00
          2   -1    0    0  501    0  0.00000000000E+00  0.00000000000E+00  0.13691177498E+04  0.13691177498E+04  0.25500000000E-02 0. -1.
         -2   -1    0    0    0  501 -0.00000000000E+00 -0.00000000000E+00 -0.39023031213E+02  0.39023031296E+02  0.25500000000E-02 0.  1.
         25    2    1    2    0    0  0.19833256542E+03 -0.28783229965E+02  0.79712010907E+03  0.83137828568E+03  0.12500041908E+03 0.  0.
         23    2    1    2    0    0 -0.19833256542E+03  0.28783229965E+02  0.53297460949E+03  0.57676249540E+03  0.91808283414E+02 0.  0.
        -13    1    4    4    0    0 -0.55581238619E+02  0.30129163544E+02  0.80842141338E+02  0.10262798625E+03  0.10566000000E+00 0. -1.
         13    1    4    4    0    0 -0.14275132680E+03 -0.13459335788E+01  0.45213246815E+03  0.47413450915E+03  0.10566000000E+00 0.  1.
    9000005    1    3    3    0    0  0.53899105569E+02 -0.17773661790E+02  0.70754511497E+02  0.90709522828E+02  0.10000000000E+01 0.  0.
    9000005    1    3    3    0    0  0.14443345985E+03 -0.11009568175E+02  0.72636559758E+03  0.74066876285E+03  0.10000000000E+01 0.  0.
<mgrwt>
<rscale>  0 0.23215530E+03</rscale>
<asrwt>0</asrwt>
<pdfrwt beam="1">  1        2 0.21063348E+00 0.23619777E+03</pdfrwt>
<pdfrwt beam="2">  1       -2 0.60035438E-02 0.23619777E+03</pdfrwt>
<totfact> 0.23753824E+03</totfact>
</mgrwt>
</event>
<event>
 8    3  0.1559595E-003  0.1311161E+03  0.7818608E-02  0.1248496E+00
          2   -1    0    0  501    0  0.00000000000E+00  0.00000000000E+00  0.74016553495E+03  0.74016553495E+03  0.25500000000E-02 0. -1.
         -2   -1    0    0    0  501 -0.00000000000E+00 -0.00000000000E+00 -0.15440264320E+02  0.15440264531E+02  0.25500000000E-02 0.  1.
         25    2    1    2    0    0  0.65127633785E+01  0.38997560083E+02  0.45911693384E+03  0.47747228946E+03  0.12501280929E+03 0.  0.
         23    2    1    2    0    0 -0.65127633785E+01 -0.38997560083E+02  0.26560833679E+03  0.27813351002E+03  0.72437801225E+02 0.  0.
        -13    1    4    4    0    0 -0.15397362431E+02 -0.26172478822E+02  0.32406195521E+02  0.44410022401E+02  0.10566000000E+00 0.  1.
         13    1    4    4    0    0  0.88845990523E+01 -0.12825081261E+02  0.23320214127E+03  0.23372348762E+03  0.10566000000E+00 0. -1.
    9000005    1    3    3    0    0  0.27152645165E+02  0.65475191393E+01  0.15052452127E+02  0.31744487103E+02  0.10000000000E+01 0.  0.
    9000005    1    3    3    0    0 -0.20639881787E+02  0.32450040944E+02  0.44406448171E+03  0.44572780236E+03  0.10000000000E+01 0.  0.
<mgrwt>
<rscale>  0 0.11678553E+03</rscale>
<asrwt>0</asrwt>
<pdfrwt beam="1">  1        2 0.11387160E+00 0.13111609E+03</pdfrwt>
<pdfrwt beam="2">  1       -2 0.23754258E-02 0.13111609E+03</pdfrwt>
<totfact> 0.22129005E+04</totfact>
</mgrwt>
</event>
<event>
 8    3  0.1559595E-003  0.1510525E+03  0.7818608E-02  0.1207630E+00
          2   -1    0    0  501    0  0.00000000000E+00  0.00000000000E+00  0.63135658650E+03  0.63135658651E+03  0.25500000000E-02 0. -1.
         -2   -1    0    0    0  501 -0.00000000000E+00 -0.00000000000E+00 -0.34892449187E+02  0.34892449280E+02  0.25500000000E-02 0.  1.
         25    2    1    2    0    0  0.39832553223E+02 -0.74874364021E+02  0.20228474629E+03  0.25245984566E+03  0.12499620956E+03 0.  0.
         23    2    1    2    0    0 -0.39832553223E+02  0.74874364021E+02  0.39417939102E+03  0.41378919013E+03  0.93012358732E+02 0.  0.
        -13    1    4    4    0    0 -0.58322689714E+02  0.30790185465E+02  0.13512351740E+03  0.15035939537E+03  0.10566000000E+00 0.  1.
         13    1    4    4    0    0  0.18490136491E+02  0.44084178556E+02  0.25905587362E+03  0.26342979476E+03  0.10566000000E+00 0. -1.
    9000005    1    3    3    0    0 -0.33161859329E+02 -0.31464025005E+02  0.13960538363E+03  0.14690254225E+03  0.10000000000E+01 0.  0.
    9000005    1    3    3    0    0  0.72994412552E+02 -0.43410339016E+02  0.62679362666E+02  0.10555730340E+03  0.10000000000E+01 0.  0.
<mgrwt>
<rscale>  0 0.14432095E+03</rscale>
<asrwt>0</asrwt>
<pdfrwt beam="1">  1        2 0.97131782E-01 0.15105249E+03</pdfrwt>
<pdfrwt beam="2">  1       -2 0.53680691E-02 0.15105249E+03</pdfrwt>
<totfact> 0.80568233E+03</totfact>
</mgrwt>
</event>
<event>
 8    3  0.1559595E-003  0.1416513E+03  0.7818608E-02  0.1221534E+00
         -2   -1    0    0    0  501 -0.00000000000E+00  0.00000000000E+00  0.14132705804E+02  0.14132706035E+02  0.25500000000E-02 0. -1.
          2   -1    0    0  501    0  0.00000000000E+00 -0.00000000000E+00 -0.15488625713E+04  0.15488625713E+04  0.25500000000E-02 0.  1.
         25    2    1    2    0    0 -0.41895667256E+02 -0.51812259729E+02 -0.12231214680E+04  0.12312965593E+04  0.12500133688E+03 0.  0.
         23    2    1    2    0    0  0.41895667256E+02  0.51812259729E+02 -0.31160839745E+03  0.33169871801E+03  0.92111285817E+02 0.  0.
        -13    1    4    4    0    0 -0.17448448739E+02  0.27456196879E+02 -0.20276860313E+03  0.20536165341E+03  0.10566000000E+00 0.  1.
         13    1    4    4    0    0  0.59344115995E+02  0.24356062850E+02 -0.10883979432E+03  0.12633706460E+03  0.10566000000E+00 0. -1.
    9000005    1    3    3    0    0 -0.71915438681E+02 -0.52045239381E+02 -0.11292974422E+04  0.11327816428E+04  0.10000000000E+01 0.  0.
    9000005    1    3    3    0    0  0.30019771425E+02  0.23297965177E+00 -0.93824025831E+02  0.98514916531E+02  0.10000000000E+01 0.  0.
<mgrwt>
<rscale>  0 0.13407292E+03</rscale>
<asrwt>0</asrwt>
<pdfrwt beam="2">  1        2 0.23828641E+00 0.14165130E+03</pdfrwt>
<pdfrwt beam="1">  1       -2 0.21742637E-02 0.14165130E+03</pdfrwt>
<totfact> 0.86014632E+03</totfact>
</mgrwt>
</event>
<event>
 8    3  0.1559595E-003  0.2076000E+03  0.7818608E-02  0.1147148E+00
         -2   -1    0    0    0  501 -0.00000000000E+00  0.00000000000E+00  0.26011362952E+03  0.26011362953E+03  0.25500000000E-02 0.  1.
          2   -1    0    0  501    0  0.00000000000E+00 -0.00000000000E+00 -0.17647612819E+03  0.17647612821E+03  0.25500000000E-02 0. -1.
         25    2    1    2    0    0  0.14763299615E+03  0.75346011230E+02 -0.37699493169E+02  0.21099530655E+03  0.12500097855E+03 0.  0.
         23    2    1    2    0    0 -0.14763299615E+03 -0.75346011230E+02  0.12133699450E+03  0.22559445119E+03  0.93261284643E+02 0.  0.
        -13    1    4    4    0    0 -0.87007638576E+02 -0.88722084572E+02  0.10140461347E+03  0.16038966381E+03  0.10566000000E+00 0.  1.
         13    1    4    4    0    0 -0.60625357576E+02  0.13376073343E+02  0.19932381027E+02  0.65204787376E+02  0.10566000000E+00 0. -1.
    9000005    1    3    3    0    0  0.42183195247E+02  0.14229466705E+02  0.45309817801E+02  0.63528570526E+02  0.10000000000E+01 0.  0.
    9000005    1    3    3    0    0  0.10544980091E+03  0.61116544524E+02 -0.83009310970E+02  0.14746673602E+03  0.10000000000E+01 0.  0.
<mgrwt>
<rscale>  0 0.20310209E+03</rscale>
<asrwt>0</asrwt>
<pdfrwt beam="2">  1        2 0.27150174E-01 0.20760002E+03</pdfrwt>
<pdfrwt beam="1">  1       -2 0.40017481E-01 0.20760002E+03</pdfrwt>
<totfact> 0.11601677E+03</totfact>
</mgrwt>
</event>
<event>
 8    3  0.1559595E-003  0.1654473E+03  0.7818608E-02  0.1189601E+00
         -2   -1    0    0    0  501 -0.00000000000E+00  0.00000000000E+00  0.21483030842E+02  0.21483030994E+02  0.25500000000E-02 0.  1.
          2   -1    0    0  501    0  0.00000000000E+00 -0.00000000000E+00 -0.11019934902E+04  0.11019934902E+04  0.25500000000E-02 0. -1.
         25    2    1    2    0    0 -0.10141732003E+03 -0.38272291089E+02 -0.55177383432E+03  0.57604442084E+03  0.12499027753E+03 0.  0.
         23    2    1    2    0    0  0.10141732003E+03  0.38272291089E+02 -0.52873662505E+03  0.54743210037E+03  0.91483576533E+02 0.  0.
        -13    1    4    4    0    0  0.37778470476E+02  0.52632649577E+02 -0.37297146948E+03  0.37855664946E+03  0.10566000000E+00 0. -1.
         13    1    4    4    0    0  0.63638849552E+02 -0.14360358488E+02 -0.15576515557E+03  0.16887545091E+03  0.10566000000E+00 0.  1.
    9000005    1    3    3    0    0 -0.96380497825E+02  0.17965928386E+02 -0.24098808926E+03  0.26016962564E+03  0.10000000000E+01 0.  0.
    9000005    1    3    3    0    0 -0.50368222039E+01 -0.56238219475E+02 -0.31078574507E+03  0.31587479520E+03  0.10000000000E+01 0.  0.
<mgrwt>
<rscale>  0 0.15920140E+03</rscale>
<asrwt>0</asrwt>
<pdfrwt beam="2">  1        2 0.16953742E+00 0.16544730E+03</pdfrwt>
<pdfrwt beam="1">  1       -2 0.33050825E-02 0.16544730E+03</pdfrwt>
<totfact> 0.81711636E+03</totfact>
</mgrwt>
</event>
<event>
 8    3  0.1559595E-003  0.1305310E+03  0.7818608E-02  0.1240577E+00
         -2   -1    0    0    0  501 -0.00000000000E+00  0.00000000000E+00  0.11689286511E+04  0.11689286511E+04  0.25500000000E-02 0.  1.
          2   -1    0    0  501    0  0.00000000000E+00 -0.00000000000E+00 -0.11303053141E+02  0.11303053428E+02  0.25500000000E-02 0. -1.
         25    2    1    2    0    0  0.31532095256E+02 -0.20475360422E+02  0.59929762329E+03  0.61334818135E+03  0.12499934745E+03 0.  0.
         23    2    1    2    0    0 -0.31532095256E+02  0.20475360422E+02  0.55832797471E+03  0.56688352323E+03  0.90627193192E+02 0.  0.
        -13    1    4    4    0    0 -0.49616603083E+02 -0.14033124317E+02  0.42067333274E+03  0.42382166051E+03  0.10566000000E+00 0.  1.
         13    1    4    4    0    0  0.18084507827E+02  0.34508484739E+02  0.13765464198E+03  0.14306186272E+03  0.10566000000E+00 0. -1.
    9000005    1    3    3    0    0  0.27242952699E+02 -0.17638159935E+02  0.60484620772E+03  0.60571711067E+03  0.10000000000E+01 0.  0.
    9000005    1    3    3    0    0  0.42891425574E+01 -0.28372004877E+01 -0.55485844335E+01  0.76310706785E+01  0.10000000000E+01 0.  0.
<mgrwt>
<rscale>  0 0.12154038E+03</rscale>
<asrwt>0</asrwt>
<pdfrwt beam="2">  1        2 0.17389319E-02 0.13053103E+03</pdfrwt>
<pdfrwt beam="1">  1       -2 0.17983511E+00 0.13053103E+03</pdfrwt>
<totfact> 0.12477317E+03</totfact>
</mgrwt>
</event>
<event>
 8    3  0.1559595E-003  0.1353873E+03  0.7818608E-02  0.1230560E+00
         -2   -1    0    0    0  501 -0.00000000000E+00  0.00000000000E+00  0.13404156741E+02  0.13404156983E+02  0.25500000000E-02 0. -1.
          2   -1    0    0  501    0  0.00000000000E+00 -0.00000000000E+00 -0.14643581903E+04  0.14643581903E+04  0.25500000000E-02 0.  1.
         25    2    1    2    0    0  0.41589675739E+02 -0.31203225581E+02 -0.11518640134E+04  0.11597932637E+04  0.12500546720E+03 0.  0.
         23    2    1    2    0    0 -0.41589675739E+02  0.31203225581E+02 -0.29909002014E+03  0.31796908353E+03  0.94584118742E+02 0.  0.
        -13    1    4    4    0    0 -0.31807752307E+02  0.11027430717E+02 -0.22545971326E+02  0.40517518706E+02  0.10566000000E+00 0. -1.
         13    1    4    4    0    0 -0.97819234328E+01  0.20175794864E+02 -0.27654404881E+03  0.27745156482E+03  0.10566000000E+00 0.  1.
    9000005    1    3    3    0    0 -0.18622708985E+02  0.36533010986E+02 -0.49653094667E+03  0.49822228692E+03  0.10000000000E+01 0.  0.
    9000005    1    3    3    0    0  0.60212384724E+02 -0.67736236567E+02 -0.65533306671E+03  0.66157097680E+03  0.10000000000E+01 0.  0.
<mgrwt>
<rscale>  0 0.12792981E+03</rscale>
<asrwt>0</asrwt>
<pdfrwt beam="2">  1        2 0.22528575E+00 0.13538726E+03</pdfrwt>
<pdfrwt beam="1">  1       -2 0.20621791E-02 0.13538726E+03</pdfrwt>
<totfact> 0.10262217E+04</totfact>
</mgrwt>
</event>
<event>
 8    3  0.1559595E-003  0.1324197E+03  0.7818608E-02  0.1238945E+00
         -2   -1    0    0    0  501 -0.00000000000E+00  0.00000000000E+00  0.13112051329E+03  0.13112051332E+03  0.25500000000E-02 0.  1.
          2   -1    0    0  501    0  0.00000000000E+00 -0.00000000000E+00 -0.10053824193E+03  0.10053824197E+03  0.25500000000E-02 0. -1.
         25    2    1    2    0    0 -0.22067176129E+02 -0.37719479364E+02  0.14918964409E+02  0.13325746899E+03  0.12500103262E+03 0.  0.
         23    2    1    2    0    0  0.22067176129E+02  0.37719479364E+02  0.15663306951E+02  0.98401286297E+02  0.86762633515E+02 0.  0.
        -13    1    4    4    0    0  0.54193785651E+02  0.35819269870E+02  0.10787406221E+02  0.65851088026E+02  0.10566000000E+00 0.  1.
         13    1    4    4    0    0 -0.32126609522E+02  0.19002094942E+01  0.48759007302E+01  0.32550198271E+02  0.10566000000E+00 0. -1.
    9000005    1    3    3    0    0 -0.51492911274E+01  0.22160851107E+01  0.65997064579E+02  0.66242273250E+02  0.10000000000E+01 0.  0.
    9000005    1    3    3    0    0 -0.16917885002E+02 -0.39935564475E+02 -0.51078100170E+02  0.67015195738E+02  0.10000000000E+01 0.  0.
<mgrwt>
<rscale>  0 0.12255229E+03</rscale>
<asrwt>0</asrwt>
<pdfrwt beam="2">  1        2 0.15467422E-01 0.13241970E+03</pdfrwt>
<pdfrwt beam="1">  1       -2 0.20172386E-01 0.13241970E+03</pdfrwt>
<totfact> 0.73424714E+03</totfact>
</mgrwt>
</event>
<event>
 8    3  0.1559595E-003  0.1268809E+03  0.7818608E-02  0.1246778E+00
         -2   -1    0    0    0  501 -0.00000000000E+00  0.00000000000E+00  0.11890470507E+02  0.11890470781E+02  0.25500000000E-02 0.  1.
          2   -1    0    0  501    0  0.00000000000E+00 -0.00000000000E+00 -0.10509024748E+04  0.10509024748E+04  0.25500000000E-02 0. -1.
         25    2    1    2    0    0 -0.21773316882E+02 -0.19170498333E+01 -0.51724321386E+03  0.53257798865E+03  0.12498407622E+03 0.  0.
         23    2    1    2    0    0  0.21773316882E+02  0.19170498333E+01 -0.52176879040E+03  0.53021495689E+03  0.91692297773E+02 0.  0.
        -13    1    4    4    0    0  0.13309364232E+02  0.29112542530E+02 -0.63981325632E+02  0.71542298694E+02  0.10566000000E+00 0.  1.
         13    1    4    4    0    0  0.84639526497E+01 -0.27195492697E+02 -0.45778746476E+03  0.45867265820E+03  0.10566000000E+00 0. -1.
    9000005    1    3    3    0    0  0.41799475881E+02 -0.86523827511E+01 -0.36451209751E+03  0.36700426311E+03  0.10000000000E+01 0.  0.
    9000005    1    3    3    0    0 -0.63572792763E+02  0.67353329178E+01 -0.15273111635E+03  0.16557372554E+03  0.10000000000E+01 0.  0.
<mgrwt>
<rscale>  0 0.11779609E+03</rscale>
<asrwt>0</asrwt>
<pdfrwt beam="2">  1        2 0.16167723E+00 0.12688094E+03</pdfrwt>
<pdfrwt beam="1">  1       -2 0.18293040E-02 0.12688094E+03</pdfrwt>
<totfact> 0.20466484E+04</totfact>
</mgrwt>
</event>
<event>
 8    3  0.1559595E-003  0.1412929E+03  0.7818608E-02  0.1222311E+00
          2   -1    0    0  501    0  0.00000000000E+00  0.00000000000E+00  0.84647729581E+03  0.84647729581E+03  0.25500000000E-02 0.  1.
         -2   -1    0    0    0  501 -0.00000000000E+00 -0.00000000000E+00 -0.21885673098E+02  0.21885673247E+02  0.25500000000E-02 0. -1.
         25    2    1    2    0    0 -0.65793277022E+02  0.28355514374E+01  0.60800203100E+03  0.62420360832E+03  0.12500751696E+03 0.  0.
         23    2    1    2    0    0  0.65793277022E+02 -0.28355514374E+01  0.21658959171E+03  0.24415936073E+03  0.91465548386E+02 0.  0.
        -13    1    4    4    0    0 -0.59020017694E+01  0.10813043179E+02 -0.30670699322E+01  0.12695416877E+02  0.10566000000E+00 0. -1.
         13    1    4    4    0    0  0.71695278792E+02 -0.13648594616E+02  0.21965666165E+03  0.23146394386E+03  0.10566000000E+00 0.  1.
    9000005    1    3    3    0    0 -0.52052021150E+02  0.60226731897E+02  0.28781285661E+03  0.29862001368E+03  0.10000000000E+01 0.  0.
    9000005    1    3    3    0    0 -0.13741255873E+02 -0.57391180460E+02  0.32018917438E+03  0.32558359464E+03  0.10000000000E+01 0.  0.
<mgrwt>
<rscale>  0 0.13352955E+03</rscale>
<asrwt>0</asrwt>
<pdfrwt beam="1">  1        2 0.13022726E+00 0.14129287E+03</pdfrwt>
<pdfrwt beam="2">  1       -2 0.33670270E-02 0.14129287E+03</pdfrwt>
<totfact> 0.11292447E+04</totfact>
</mgrwt>
</event>
<event>
 8    3  0.1559595E-003  0.1256503E+03  0.7818608E-02  0.1248486E+00
          2   -1    0    0  501    0  0.00000000000E+00  0.00000000000E+00  0.38209572387E+03  0.38209572388E+03  0.25500000000E-02 0. -1.
         -2   -1    0    0    0  501 -0.00000000000E+00 -0.00000000000E+00 -0.31590659567E+02  0.31590659670E+02  0.25500000000E-02 0.  1.
         25    2    1    2    0    0 -0.12583792372E+02  0.21799334728E+01  0.21120563425E+03  0.24575561975E+03  0.12499960302E+03 0.  0.
         23    2    1    2    0    0  0.12583792372E+02 -0.21799334728E+01  0.13929943005E+03  0.16793076380E+03  0.92915586848E+02 0.  0.
        -13    1    4    4    0    0  0.76727588387E+00 -0.33882796233E+02  0.11594629187E+02  0.35820094680E+02  0.10566000000E+00 0.  1.
         13    1    4    4    0    0  0.11816516489E+02  0.31702862760E+02  0.12770480086E+03  0.13211066912E+03  0.10566000000E+00 0. -1.
    9000005    1    3    3    0    0  0.48336397937E+02 -0.23366023457E+02  0.13268128241E+03  0.14313525463E+03  0.10000000000E+01 0.  0.
    9000005    1    3    3    0    0 -0.60920190309E+02  0.25545956930E+02  0.78524351846E+02  0.10262036511E+03  0.10000000000E+01 0.  0.
<mgrwt>
<rscale>  0 0.11679141E+03</rscale>
<asrwt>0</asrwt>
<pdfrwt beam="1">  1        2 0.58783961E-01 0.12565033E+03</pdfrwt>
<pdfrwt beam="2">  1       -2 0.48601012E-02 0.12565033E+03</pdfrwt>
<totfact> 0.16042467E+04</totfact>
</mgrwt>
</event>
<event>
 8    3  0.1559595E-003  0.1277102E+03  0.7818608E-02  0.1247066E+00
         -2   -1    0    0    0  501 -0.00000000000E+00  0.00000000000E+00  0.34449478130E+03  0.34449478131E+03  0.25500000000E-02 0. -1.
          2   -1    0    0  501    0  0.00000000000E+00 -0.00000000000E+00 -0.35142781766E+02  0.35142781858E+02  0.25500000000E-02 0.  1.
         25    2    1    2    0    0 -0.22234741565E+02  0.13791048933E+02  0.16789349733E+03  0.21094579258E+03  0.12500129678E+03 0.  0.
         23    2    1    2    0    0  0.22234741565E+02 -0.13791048933E+02  0.14145850221E+03  0.16869177059E+03  0.88101242082E+02 0.  0.
        -13    1    4    4    0    0  0.11022319388E+02 -0.29958958786E+02  0.68451654235E+01  0.32648096268E+02  0.10566000000E+00 0.  1.
         13    1    4    4    0    0  0.11212422177E+02  0.16167909853E+02  0.13461333678E+03  0.13604367432E+03  0.10566000000E+00 0. -1.
    9000005    1    3    3    0    0  0.49558618098E+02  0.24172953806E+02  0.74081786002E+02  0.92355288645E+02  0.10000000000E+01 0.  0.
    9000005    1    3    3    0    0 -0.71793359663E+02 -0.10381904873E+02  0.93811711329E+02  0.11859050393E+03  0.10000000000E+01 0.  0.
<mgrwt>
<rscale>  0 0.11762598E+03</rscale>
<asrwt>0</asrwt>
<pdfrwt beam="2">  1        2 0.54065819E-02 0.12771022E+03</pdfrwt>
<pdfrwt beam="1">  1       -2 0.52999196E-01 0.12771022E+03</pdfrwt>
<totfact> 0.45744428E+03</totfact>
</mgrwt>
</event>
<event>
 8    3  0.1559595E-003  0.2120292E+03  0.7818608E-02  0.1143770E+00
          2   -1    0    0  501    0  0.00000000000E+00  0.00000000000E+00  0.27570931766E+03  0.27570931767E+03  0.25500000000E-02 0. -1.
         -2   -1    0    0    0  501 -0.00000000000E+00 -0.00000000000E+00 -0.15086576192E+03  0.15086576194E+03  0.25500000000E-02 0.  1.
         25    2    1    2    0    0  0.13749927596E+03  0.10209748917E+03  0.88107475555E+02  0.22960683161E+03  0.12500568663E+03 0.  0.
         23    2    1    2    0    0 -0.13749927596E+03 -0.10209748917E+03  0.36736080190E+02  0.19696824800E+03  0.90094411301E+02 0.  0.
        -13    1    4    4    0    0  0.12719692300E+02 -0.10182880054E+02 -0.26542375011E+01  0.16508717672E+02  0.10566000000E+00 0. -1.
         13    1    4    4    0    0 -0.15021896826E+03 -0.91914609120E+02  0.39390317691E+02  0.18045953033E+03  0.10566000000E+00 0.  1.
    9000005    1    3    3    0    0  0.11011861284E+03  0.86705002127E+02  0.44383840954E+01  0.14023040163E+03  0.10000000000E+01 0.  0.
    9000005    1    3    3    0    0  0.27380663117E+02  0.15392487048E+02  0.83669091460E+02  0.89376429980E+02  0.10000000000E+01 0.  0.
<mgrwt>
<rscale>  0 0.20724009E+03</rscale>
<asrwt>0</asrwt>
<pdfrwt beam="1">  1        2 0.42416818E-01 0.21202917E+03</pdfrwt>
<pdfrwt beam="2">  1       -2 0.23210117E-01 0.21202917E+03</pdfrwt>
<totfact> 0.19262684E+03</totfact>
</mgrwt>
</event>
<event>
 8    3  0.1559595E-003  0.1347353E+03  0.7818608E-02  0.1233484E+00
          2   -1    0    0  501    0  0.00000000000E+00  0.00000000000E+00  0.28409164274E+03  0.28409164276E+03  0.25500000000E-02 0. -1.
         -2   -1    0    0    0  501 -0.00000000000E+00 -0.00000000000E+00 -0.58468017817E+02  0.58468017873E+02  0.25500000000E-02 0.  1.
         25    2    1    2    0    0  0.43715354563E+02  0.24850055355E+02  0.60068377735E+02  0.14751884594E+03  0.12500016971E+03 0.  0.
         23    2    1    2    0    0 -0.43715354563E+02 -0.24850055355E+02  0.16555524719E+03  0.19504081469E+03  0.90021231090E+02 0.  0.
        -13    1    4    4    0    0 -0.24357380144E+01 -0.16680686901E+02  0.14879277200E+03  0.14974471042E+03  0.10566000000E+00 0. -1.
         13    1    4    4    0    0 -0.41279616549E+02 -0.81693684539E+01  0.16762475188E+02  0.45296104268E+02  0.10566000000E+00 0.  1.
    9000005    1    3    3    0    0  0.54501189313E+02  0.69470415400E+02  0.45564762497E+02  0.99366321426E+02  0.10000000000E+01 0.  0.
    9000005    1    3    3    0    0 -0.10785834749E+02 -0.44620360045E+02  0.14503615237E+02  0.48152524511E+02  0.10000000000E+01 0.  0.
<mgrwt>
<rscale>  0 0.12602011E+03</rscale>
<asrwt>0</asrwt>
<pdfrwt beam="1">  1        2 0.43706406E-01 0.13473530E+03</pdfrwt>
<pdfrwt beam="2">  1       -2 0.89950798E-02 0.13473530E+03</pdfrwt>
<totfact> 0.86394592E+03</totfact>
</mgrwt>
</event>
<event>
 8    3  0.1559595E-003  0.1299481E+03  0.7818608E-02  0.1241458E+00
         -2   -1    0    0    0  501 -0.00000000000E+00  0.00000000000E+00  0.58860513723E+02  0.58860513778E+02  0.25500000000E-02 0.  1.
          2   -1    0    0  501    0  0.00000000000E+00 -0.00000000000E+00 -0.22204357213E+03  0.22204357215E+03  0.25500000000E-02 0. -1.
         25    2    1    2    0    0 -0.26119168095E+02 -0.24008282218E+02 -0.10613109500E+03  0.16778056631E+03  0.12501160166E+03 0.  0.
         23    2    1    2    0    0  0.26119168095E+02  0.24008282218E+02 -0.57051963408E+02  0.11312351961E+03  0.91013161705E+02 0.  0.
        -13    1    4    4    0    0  0.33192133189E+02  0.27066602143E+02  0.11335049290E+02  0.44303647294E+02  0.10566000000E+00 0.  1.
         13    1    4    4    0    0 -0.70729650931E+01 -0.30583199250E+01 -0.68387012698E+02  0.68819872317E+02  0.10566000000E+00 0. -1.
    9000005    1    3    3    0    0  0.41877432773E+02 -0.42110698481E+02 -0.44207025893E+02  0.74042497531E+02  0.10000000000E+01 0.  0.
    9000005    1    3    3    0    0 -0.67996600869E+02  0.18102416263E+02 -0.61924069107E+02  0.93738068782E+02  0.10000000000E+01 0.  0.
<mgrwt>
<rscale>  0 0.12099917E+03</rscale>
<asrwt>0</asrwt>
<pdfrwt beam="2">  1        2 0.34160549E-01 0.12994810E+03</pdfrwt>
<pdfrwt beam="1">  1       -2 0.90554637E-02 0.12994810E+03</pdfrwt>
<totfact> 0.11083690E+04</totfact>
</mgrwt>
</event>
<event>
 8    3  0.1559595E-003  0.1462565E+03  0.7818608E-02  0.1214775E+00
         -2   -1    0    0    0  501 -0.00000000000E+00  0.00000000000E+00  0.29723777734E+02  0.29723777844E+02  0.25500000000E-02 0.  1.
          2   -1    0    0  501    0  0.00000000000E+00 -0.00000000000E+00 -0.70878512281E+03  0.70878512281E+03  0.25500000000E-02 0. -1.
         25    2    1    2    0    0  0.66808309503E+02  0.36092681155E+02 -0.21945433472E+03  0.26372556386E+03  0.12499974462E+03 0.  0.
         23    2    1    2    0    0 -0.66808309503E+02 -0.36092681155E+02 -0.45960701035E+03  0.47478333679E+03  0.91731025711E+02 0.  0.
        -13    1    4    4    0    0 -0.86928214122E+02 -0.26604516663E+02 -0.41614877756E+03  0.42596259336E+03  0.10566000000E+00 0. -1.
         13    1    4    4    0    0  0.20119904618E+02 -0.94881644916E+01 -0.43458232794E+02  0.48820743428E+02  0.10566000000E+00 0.  1.
    9000005    1    3    3    0    0 -0.15061644917E+02  0.57980146495E+02 -0.11041977401E+03  0.12562673691E+03  0.10000000000E+01 0.  0.
    9000005    1    3    3    0    0  0.81869954420E+02 -0.21887465340E+02 -0.10903456071E+03  0.13809882695E+03  0.10000000000E+01 0.  0.
<mgrwt>
<rscale>  0 0.13893072E+03</rscale>
<asrwt>0</asrwt>
<pdfrwt beam="2">  1        2 0.10904385E+00 0.14625651E+03</pdfrwt>
<pdfrwt beam="1">  1       -2 0.45728894E-02 0.14625651E+03</pdfrwt>
<totfact> 0.89334090E+03</totfact>
</mgrwt>
</event>
<event>
 8    3  0.1559595E-003  0.1354582E+03  0.7818608E-02  0.1231446E+00
          2   -1    0    0  501    0  0.00000000000E+00  0.00000000000E+00  0.16956343960E+04  0.16956343961E+04  0.25500000000E-02 0. -1.
         -2   -1    0    0    0  501 -0.00000000000E+00 -0.00000000000E+00 -0.13074003651E+02  0.13074003900E+02  0.25500000000E-02 0.  1.
         25    2    1    2    0    0  0.51467446658E+02  0.86651834574E+01  0.41087135733E+03  0.43262477949E+03  0.12499977633E+03 0.  0.
         23    2    1    2    0    0 -0.51467446658E+02 -0.86651834574E+01  0.12716890351E+04  0.12760836205E+04  0.92045755094E+02 0.  0.
        -13    1    4    4    0    0 -0.10946493781E+02  0.10214497929E+02  0.29422164769E+02  0.33012673896E+02  0.10566000000E+00 0.  1.
         13    1    4    4    0    0 -0.40520952878E+02 -0.18879681387E+02  0.12422668703E+04  0.12430709466E+04  0.10566000000E+00 0. -1.
    9000005    1    3    3    0    0  0.71897910300E+02  0.42991750315E+02  0.34942921682E+03  0.35933184895E+03  0.10000000000E+01 0.  0.
    9000005    1    3    3    0    0 -0.20430463641E+02 -0.34326566857E+02  0.61442140515E+02  0.73292930545E+02  0.10000000000E+01 0.  0.
<mgrwt>
<rscale>  0 0.12734703E+03</rscale>
<asrwt>0</asrwt>
<pdfrwt beam="1">  1        2 0.26086675E+00 0.13545821E+03</pdfrwt>
<pdfrwt beam="2">  1       -2 0.20113858E-02 0.13545821E+03</pdfrwt>
<totfact> 0.80807145E+03</totfact>
</mgrwt>
</event>
<event>
 8    3  0.1559595E-003  0.1786699E+03  0.7818608E-02  0.1175053E+00
          2   -1    0    0  501    0  0.00000000000E+00  0.00000000000E+00  0.63460857458E+03  0.63460857458E+03  0.25500000000E-02 0. -1.
         -2   -1    0    0    0  501 -0.00000000000E+00 -0.00000000000E+00 -0.11123560830E+03  0.11123560833E+03  0.25500000000E-02 0.  1.
         25    2    1    2    0    0 -0.11682184296E+03  0.51459964376E+02  0.55812958856E+03  0.58603036319E+03  0.12500991170E+03 0.  0.
         23    2    1    2    0    0  0.11682184296E+03 -0.51459964376E+02 -0.34756622279E+02  0.15981381973E+03  0.89649111854E+02 0.  0.
        -13    1    4    4    0    0  0.47330458482E+02 -0.51914512394E+02 -0.52958423835E+02  0.87976671433E+02  0.10566000000E+00 0. -1.
         13    1    4    4    0    0  0.69491384481E+02  0.45454801809E+00  0.18201801556E+02  0.71837148293E+02  0.10566000000E+00 0.  1.
    9000005    1    3    3    0    0 -0.37688224655E+02 -0.39885739328E+02  0.22678065644E+03  0.23332753934E+03  0.10000000000E+01 0.  0.
    9000005    1    3    3    0    0 -0.79133618308E+02  0.91345703705E+02  0.33134893212E+03  0.35270282384E+03  0.10000000000E+01 0.  0.
<mgrwt>
<rscale>  0 0.17270775E+03</rscale>
<asrwt>0</asrwt>
<pdfrwt beam="1">  1        2 0.97632087E-01 0.17866994E+03</pdfrwt>
<pdfrwt beam="2">  1       -2 0.17113171E-01 0.17866994E+03</pdfrwt>
<totfact> 0.12917906E+03</totfact>
</mgrwt>
</event>
<event>
 8    3  0.1559595E-003  0.1264737E+03  0.7818608E-02  0.1247899E+00
         -2   -1    0    0    0  501 -0.00000000000E+00  0.00000000000E+00  0.49252644479E+02  0.49252644545E+02  0.25500000000E-02 0.  1.
          2   -1    0    0  501    0  0.00000000000E+00 -0.00000000000E+00 -0.28114347582E+03  0.28114347583E+03  0.25500000000E-02 0. -1.
         25    2    1    2    0    0 -0.18940810288E+02  0.34173976762E+01 -0.19023523199E+03  0.22844046257E+03  0.12500067418E+03 0.  0.
         23    2    1    2    0    0  0.18940810288E+02 -0.34173976762E+01 -0.41655599346E+02  0.10195565781E+03  0.91045781346E+02 0.  0.
        -13    1    4    4    0    0 -0.18865121745E+02  0.21169846151E+02  0.12917555782E+02  0.31159743515E+02  0.10566000000E+00 0.  1.
         13    1    4    4    0    0  0.37805932033E+02 -0.24587243827E+02 -0.54573155128E+02  0.70795914293E+02  0.10566000000E+00 0. -1.
    9000005    1    3    3    0    0 -0.30835192042E+02 -0.24874027314E+02 -0.41588232496E+01  0.39847485666E+02  0.10000000000E+01 0.  0.
    9000005    1    3    3    0    0  0.11894381754E+02  0.28291424990E+02 -0.18607640874E+03  0.18859297690E+03  0.10000000000E+01 0.  0.
<mgrwt>
<rscale>  0 0.11713549E+03</rscale>
<asrwt>0</asrwt>
<pdfrwt beam="2">  1        2 0.43252842E-01 0.12647372E+03</pdfrwt>
<pdfrwt beam="1">  1       -2 0.75773301E-02 0.12647372E+03</pdfrwt>
<totfact> 0.11333519E+04</totfact>
</mgrwt>
</event>
<event>
 8    3  0.1559595E-003  0.1546416E+03  0.7818608E-02  0.1203369E+00
          2   -1    0    0  501    0  0.00000000000E+00  0.00000000000E+00  0.51935838519E+02  0.51935838582E+02  0.25500000000E-02 0.  1.
         -2   -1    0    0    0  501 -0.00000000000E+00 -0.00000000000E+00 -0.47008225687E+03  0.47008225688E+03  0.25500000000E-02 0. -1.
         25    2    1    2    0    0  0.28859350947E+01  0.90988995515E+02 -0.33480624563E+03  0.36879432264E+03  0.12500681729E+03 0.  0.
         23    2    1    2    0    0 -0.28859350947E+01 -0.90988995515E+02 -0.83340172723E+02  0.15322377283E+03  0.90799858166E+02 0.  0.
        -13    1    4    4    0    0 -0.30941500271E+01 -0.93164455242E+02 -0.99833063602E+02  0.13658638745E+03  0.10566000000E+00 0. -1.
         13    1    4    4    0    0  0.20821493235E+00  0.21754597262E+01  0.16492890879E+02  0.16637385373E+02  0.10566000000E+00 0.  1.
    9000005    1    3    3    0    0  0.18794967556E-02  0.12015198347E+03 -0.22420937298E+03  0.25437637875E+03  0.10000000000E+01 0.  0.
    9000005    1    3    3    0    0  0.28840555980E+01 -0.29162987950E+02 -0.11059687265E+03  0.11441794389E+03  0.10000000000E+01 0.  0.
<mgrwt>
<rscale>  0 0.14766762E+03</rscale>
<asrwt>0</asrwt>
<pdfrwt beam="1">  1        2 0.79901293E-02 0.15464162E+03</pdfrwt>
<pdfrwt beam="2">  1       -2 0.72320344E-01 0.15464162E+03</pdfrwt>
<totfact> 0.14761554E+03</totfact>
</mgrwt>
</event>
<event>
 8    3  0.1559595E-003  0.1252151E+03  0.7818608E-02  0.1252324E+00
          2   -1    0    0  501    0  0.00000000000E+00  0.00000000000E+00  0.22826681793E+03  0.22826681794E+03  0.25500000000E-02 0. -1.
         -2   -1    0    0    0  501 -0.00000000000E+00 -0.00000000000E+00 -0.50175714933E+02  0.50175714997E+02  0.25500000000E-02 0.  1.
         25    2    1    2    0    0  0.54399679847E+01 -0.50579238647E+01  0.11808341648E+03  0.17211194540E+03  0.12499461052E+03 0.  0.
         23    2    1    2    0    0 -0.54399679847E+01  0.50579238647E+01  0.60007686514E+02  0.10633058753E+03  0.87464824694E+02 0.  0.
        -13    1    4    4    0    0  0.96801086160E+01 -0.13781805444E+02 -0.18010359261E+02  0.24658200844E+02  0.10566000000E+00 0.  1.
         13    1    4    4    0    0 -0.15120076601E+02  0.18839729308E+02  0.78018045775E+02  0.81672386689E+02  0.10566000000E+00 0. -1.
    9000005    1    3    3    0    0 -0.24338298865E+02  0.52652241937E+02  0.39603012626E+02  0.70242508367E+02  0.10000000000E+01 0.  0.
    9000005    1    3    3    0    0  0.29778266850E+02 -0.57710165802E+02  0.78480403853E+02  0.10186943704E+03  0.10000000000E+01 0.  0.
<mgrwt>
<rscale>  0 0.11457532E+03</rscale>
<asrwt>0</asrwt>
<pdfrwt beam="1">  1        2 0.35117972E-01 0.12521513E+03</pdfrwt>
<pdfrwt beam="2">  1       -2 0.77193408E-02 0.12521513E+03</pdfrwt>
<totfact> 0.13731497E+04</totfact>
</mgrwt>
</event>
<event>
 8    3  0.1559595E-003  0.1250963E+03  0.7818608E-02  0.1250253E+00
          2   -1    0    0  501    0  0.00000000000E+00  0.00000000000E+00  0.39182428944E+02  0.39182429027E+02  0.25500000000E-02 0.  1.
         -2   -1    0    0    0  501 -0.00000000000E+00 -0.00000000000E+00 -0.44499887204E+03  0.44499887204E+03  0.25500000000E-02 0. -1.
         25    2    1    2    0    0 -0.35311198528E+01  0.34339380056E+01 -0.36103739188E+03  0.38209565393E+03  0.12499931871E+03 0.  0.
         23    2    1    2    0    0  0.35311198528E+01 -0.34339380056E+01 -0.44779051212E+02  0.10208564714E+03  0.91608161137E+02 0.  0.
        -13    1    4    4    0    0 -0.42066982872E+02 -0.13787051244E+02 -0.15437936200E+02  0.46883417837E+02  0.10566000000E+00 0. -1.
         13    1    4    4    0    0  0.45598102724E+02  0.10353113239E+02 -0.29341115012E+02  0.55202229303E+02  0.10566000000E+00 0.  1.
    9000005    1    3    3    0    0 -0.56927591086E+02  0.29875433507E+02 -0.21367549738E+03  0.22314011368E+03  0.10000000000E+01 0.  0.
    9000005    1    3    3    0    0  0.53396471233E+02 -0.26441495502E+02 -0.14736189451E+03  0.15895554025E+03  0.10000000000E+01 0.  0.
<mgrwt>
<rscale>  0 0.11576404E+03</rscale>
<asrwt>0</asrwt>
<pdfrwt beam="1">  1        2 0.60280663E-02 0.12509632E+03</pdfrwt>
<pdfrwt beam="2">  1       -2 0.68461361E-01 0.12509632E+03</pdfrwt>
<totfact> 0.23466049E+03</totfact>
</mgrwt>
</event>
<event>
 8    3  0.1559595E-003  0.1496465E+03  0.7818608E-02  0.1210208E+00
          2   -1    0    0  501    0  0.00000000000E+00  0.00000000000E+00  0.19669850655E+03  0.19669850657E+03  0.25500000000E-02 0. -1.
         -2   -1    0    0    0  501 -0.00000000000E+00 -0.00000000000E+00 -0.10324498618E+03  0.10324498621E+03  0.25500000000E-02 0.  1.
         25    2    1    2    0    0 -0.48040308727E+02  0.66795763667E+02  0.95311165873E+02  0.17742121053E+03  0.12499808918E+03 0.  0.
         23    2    1    2    0    0  0.48040308727E+02 -0.66795763667E+02 -0.18576454959E+01  0.12252228225E+03  0.90767359186E+02 0.  0.
        -13    1    4    4    0    0  0.70937338277E+02 -0.64692763416E+02  0.10221062445E+02  0.96549163030E+02  0.10566000000E+00 0. -1.
         13    1    4    4    0    0 -0.22897029550E+02 -0.21030002508E+01 -0.12078707941E+02  0.25973119216E+02  0.10566000000E+00 0.  1.
    9000005    1    3    3    0    0 -0.65336694693E+02 -0.11273572460E+02  0.24766714699E+02  0.70783947802E+02  0.10000000000E+01 0.  0.
    9000005    1    3    3    0    0  0.17296385965E+02  0.78069336127E+02  0.70544451174E+02  0.10663726273E+03  0.10000000000E+01 0.  0.
<mgrwt>
<rscale>  0 0.14234465E+03</rscale>
<asrwt>0</asrwt>
<pdfrwt beam="1">  1        2 0.30261309E-01 0.14964648E+03</pdfrwt>
<pdfrwt beam="2">  1       -2 0.15883844E-01 0.14964648E+03</pdfrwt>
<totfact> 0.51926163E+03</totfact>
</mgrwt>
</event>
<event>
 8    3  0.1559595E-003  0.1386844E+03  0.7818608E-02  0.1226934E+00
          2   -1    0    0  501    0  0.00000000000E+00  0.00000000000E+00  0.82013077927E+02  0.82013077967E+02  0.25500000000E-02 0. -1.
         -2   -1    0    0    0  501 -0.00000000000E+00 -0.00000000000E+00 -0.18586828334E+03  0.18586828335E+03  0.25500000000E-02 0.  1.
         25    2    1    2    0    0  0.33251354795E+02  0.50019790531E+02 -0.59091271155E+02  0.15074855744E+03  0.12500286878E+03 0.  0.
         23    2    1    2    0    0 -0.33251354795E+02 -0.50019790531E+02 -0.44763934255E+02  0.11713280388E+03  0.90048053254E+02 0.  0.
        -13    1    4    4    0    0  0.26031732939E+02 -0.17290848322E+02 -0.37818507249E+02  0.49059914493E+02  0.10566000000E+00 0.  1.
         13    1    4    4    0    0 -0.59283087735E+02 -0.32728942209E+02 -0.69454270062E+01  0.68072889389E+02  0.10566000000E+00 0. -1.
    9000005    1    3    3    0    0  0.60161292501E+02 -0.87836221780E+01  0.32827276636E+01  0.60895890132E+02  0.10000000000E+01 0.  0.
    9000005    1    3    3    0    0 -0.26909937706E+02  0.58803412709E+02 -0.62373998819E+02  0.89852667307E+02  0.10000000000E+01 0.  0.
<mgrwt>
<rscale>  0 0.13035249E+03</rscale>
<asrwt>0</asrwt>
<pdfrwt beam="1">  1        2 0.12617397E-01 0.13868435E+03</pdfrwt>
<pdfrwt beam="2">  1       -2 0.28595120E-01 0.13868435E+03</pdfrwt>
<totfact> 0.51106469E+03</totfact>
</mgrwt>
</event>
<event>
 8    3  0.1559595E-003  0.1370053E+03  0.7818608E-02  0.1229179E+00
         -2   -1    0    0    0  501 -0.00000000000E+00  0.00000000000E+00  0.35489845707E+02  0.35489845799E+02  0.25500000000E-02 0.  1.
          2   -1    0    0  501    0  0.00000000000E+00 -0.00000000000E+00 -0.47632503975E+03  0.47632503976E+03  0.25500000000E-02 0. -1.
         25    2    1    2    0    0  0.56075257001E+02 -0.11045764172E+01 -0.15673251632E+03  0.20817186722E+03  0.12499916037E+03 0.  0.
         23    2    1    2    0    0 -0.56075257001E+02  0.11045764172E+01 -0.28410267773E+03  0.30364301834E+03  0.91318653933E+02 0.  0.
        -13    1    4    4    0    0 -0.54779836121E+02  0.38462085870E+02 -0.14673544430E+03  0.16128070025E+03  0.10566000000E+00 0.  1.
         13    1    4    4    0    0 -0.12954208803E+01 -0.37357509453E+02 -0.13736723343E+03  0.14236231809E+03  0.10566000000E+00 0. -1.
    9000005    1    3    3    0    0 -0.29464978480E+02  0.31626190507E+02 -0.33861793073E+02  0.54918320377E+02  0.10000000000E+01 0.  0.
    9000005    1    3    3    0    0  0.85540235481E+02 -0.32730766925E+02 -0.12287072324E+03  0.15325354684E+03  0.10000000000E+01 0.  0.
<mgrwt>
<rscale>  0 0.12884517E+03</rscale>
<asrwt>0</asrwt>
<pdfrwt beam="2">  1        2 0.73280771E-01 0.13700527E+03</pdfrwt>
<pdfrwt beam="1">  1       -2 0.54599766E-02 0.13700527E+03</pdfrwt>
<totfact> 0.10700765E+04</totfact>
</mgrwt>
</event>
<event>
 8    3  0.1559595E-003  0.1273534E+03  0.7818608E-02  0.1245248E+00
          2   -1    0    0  501    0  0.00000000000E+00  0.00000000000E+00  0.38729062515E+04  0.38729062515E+04  0.25500000000E-02 0.  1.
         -2   -1    0    0    0  501 -0.00000000000E+00 -0.00000000000E+00 -0.32626196610E+01  0.32626206575E+01  0.25500000000E-02 0. -1.
         25    2    1    2    0    0 -0.16377305060E+02  0.18053104847E+02  0.19929497138E+04  0.19970146320E+04  0.12499899164E+03 0.  0.
         23    2    1    2    0    0  0.16377305060E+02 -0.18053104847E+02  0.18766939180E+04  0.18791542402E+04  0.92986373421E+02 0.  0.
        -13    1    4    4    0    0  0.34358596562E+02 -0.34602447390E+02  0.17083455687E+04  0.17090413792E+04  0.10566000000E+00 0.  1.
         13    1    4    4    0    0 -0.17981291502E+02  0.16549342542E+02  0.16834834931E+03  0.17011286096E+03  0.10566000000E+00 0. -1.
    9000005    1    3    3    0    0 -0.70973088325E+02  0.78885663966E+01  0.11980984980E+04  0.12002251537E+04  0.10000000000E+01 0.  0.
    9000005    1    3    3    0    0  0.54595783265E+02  0.10164538451E+02  0.79485121578E+03  0.79678947824E+03  0.10000000000E+01 0.  0.
<mgrwt>
<rscale>  0 0.11870535E+03</rscale>
<asrwt>0</asrwt>
<pdfrwt beam="1">  1        2 0.59583127E+00 0.12735336E+03</pdfrwt>
<pdfrwt beam="2">  1       -2 0.50194195E-03 0.12735336E+03</pdfrwt>
<totfact> 0.33022199E+03</totfact>
</mgrwt>
</event>
<event>
 8    3  0.1559595E-003  0.1337359E+03  0.7818608E-02  0.1227960E+00
         -2   -1    0    0    0  501 -0.00000000000E+00  0.00000000000E+00  0.14263538450E+02  0.14263538678E+02  0.25500000000E-02 0. -1.
          2   -1    0    0  501    0  0.00000000000E+00 -0.00000000000E+00 -0.11255980231E+04  0.11255980232E+04  0.25500000000E-02 0.  1.
         25    2    1    2    0    0 -0.37996149768E+02 -0.28590159382E+02 -0.52750569663E+03  0.54419441113E+03  0.12499677000E+03 0.  0.
         23    2    1    2    0    0  0.37996149768E+02  0.28590159382E+02 -0.58382878807E+03  0.59566715070E+03  0.10817668899E+03 0.  0.
        -13    1    4    4    0    0 -0.70117283142E+01  0.25045280283E+02 -0.28801959147E+02  0.38807143841E+02  0.10566000000E+00 0. -1.
         13    1    4    4    0    0  0.45007878082E+02  0.35448790991E+01 -0.55502682892E+03  0.55686000686E+03  0.10566000000E+00 0.  1.
    9000005    1    3    3    0    0 -0.24484209682E+02  0.39119713463E+02 -0.36098175960E+03  0.36392122674E+03  0.10000000000E+01 0.  0.
    9000005    1    3    3    0    0 -0.13511940086E+02 -0.67709872845E+02 -0.16652393703E+03  0.18027318439E+03  0.10000000000E+01 0.  0.
<mgrwt>
<rscale>  0 0.12966106E+03</rscale>
<asrwt>0</asrwt>
<pdfrwt beam="2">  1        2 0.17316886E+00 0.13373592E+03</pdfrwt>
<pdfrwt beam="1">  1       -2 0.21943914E-02 0.13373592E+03</pdfrwt>
<totfact> 0.14292176E+04</totfact>
</mgrwt>
</event>
<event>
 8    3  0.1559595E-003  0.1394925E+03  0.7818608E-02  0.1224815E+00
         -2   -1    0    0    0  501 -0.00000000000E+00  0.00000000000E+00  0.20264177498E+02  0.20264177658E+02  0.25500000000E-02 0.  1.
          2   -1    0    0  501    0  0.00000000000E+00 -0.00000000000E+00 -0.77583184076E+03  0.77583184076E+03  0.25500000000E-02 0. -1.
         25    2    1    2    0    0  0.41220133124E+02  0.46196630990E+02 -0.40838178569E+03  0.43154819194E+03  0.12499972397E+03 0.  0.
         23    2    1    2    0    0 -0.41220133124E+02 -0.46196630990E+02 -0.34718587757E+03  0.36454782648E+03  0.92324731892E+02 0.  0.
        -13    1    4    4    0    0  0.10339498326E+02 -0.36336796841E+02 -0.49504402499E+02  0.62273309379E+02  0.10566000000E+00 0.  1.
         13    1    4    4    0    0 -0.51559631449E+02 -0.98598341487E+01 -0.29768147507E+03  0.30227451710E+03  0.10566000000E+00 0. -1.
    9000005    1    3    3    0    0  0.46920783106E+02 -0.26094324656E+02 -0.88237635067E+02  0.10329256463E+03  0.10000000000E+01 0.  0.
    9000005    1    3    3    0    0 -0.57006499825E+01  0.72290955646E+02 -0.32014415062E+03  0.32825562730E+03  0.10000000000E+01 0.  0.
<mgrwt>
<rscale>  0 0.13179613E+03</rscale>
<asrwt>0</asrwt>
<pdfrwt beam="2">  1        2 0.11935872E+00 0.13949251E+03</pdfrwt>
<pdfrwt beam="1">  1       -2 0.31175664E-02 0.13949251E+03</pdfrwt>
<totfact> 0.14097010E+04</totfact>
</mgrwt>
</event>
<event>
 8    3  0.1559595E-003  0.1307448E+03  0.7818608E-02  0.1239317E+00
         -2   -1    0    0    0  501 -0.00000000000E+00  0.00000000000E+00  0.10628311786E+02  0.10628312092E+02  0.25500000000E-02 0.  1.
          2   -1    0    0  501    0  0.00000000000E+00 -0.00000000000E+00 -0.13400215337E+04  0.13400215337E+04  0.25500000000E-02 0. -1.
         25    2    1    2    0    0  0.16790776598E+02  0.34449728929E+02 -0.91655771849E+03  0.92583597996E+03  0.12500198582E+03 0.  0.
         23    2    1    2    0    0 -0.16790776598E+02 -0.34449728929E+02 -0.41283550340E+03  0.42481386581E+03  0.92547035165E+02 0.  0.
        -13    1    4    4    0    0 -0.19715509566E+02  0.18362861509E+02 -0.39891802516E+02  0.48137958746E+02  0.10566000000E+00 0.  1.
         13    1    4    4    0    0  0.29247329680E+01 -0.52812590438E+02 -0.37294370088E+03  0.37667590706E+03  0.10566000000E+00 0. -1.
    9000005    1    3    3    0    0  0.54710375147E+02  0.62563912851E+02 -0.61903774178E+03  0.62459282264E+03  0.10000000000E+01 0.  0.
    9000005    1    3    3    0    0 -0.37919598549E+02 -0.28114183922E+02 -0.29751997671E+03  0.30124315732E+03  0.10000000000E+01 0.  0.
<mgrwt>
<rscale>  0 0.12232095E+03</rscale>
<asrwt>0</asrwt>
<pdfrwt beam="2">  1        2 0.20615702E+00 0.13074483E+03</pdfrwt>
<pdfrwt beam="1">  1       -2 0.16351260E-02 0.13074483E+03</pdfrwt>
<totfact> 0.16673089E+04</totfact>
</mgrwt>
</event>
<event>
 8    3  0.1559595E-003  0.2104675E+03  0.7818608E-02  0.1144971E+00
          2   -1    0    0  501    0  0.00000000000E+00  0.00000000000E+00  0.19662914643E+04  0.19662914643E+04  0.25500000000E-02 0. -1.
         -2   -1    0    0    0  501 -0.00000000000E+00 -0.00000000000E+00 -0.27739419137E+02  0.27739419254E+02  0.25500000000E-02 0.  1.
         25    2    1    2    0    0 -0.12547457320E+03 -0.11370422038E+03  0.49715749620E+03  0.53987234220E+03  0.12499620635E+03 0.  0.
         23    2    1    2    0    0  0.12547457320E+03  0.11370422038E+03  0.14413945490E+04  0.14541585414E+04  0.91029112646E+02 0.  0.
        -13    1    4    4    0    0  0.12959850127E+03  0.11471115501E+03  0.11700933107E+04  0.11828240729E+04  0.10566000000E+00 0.  1.
         13    1    4    4    0    0 -0.41239280775E+01 -0.10069346347E+01  0.27130123828E+03  0.27133446843E+03  0.10566000000E+00 0. -1.
    9000005    1    3    3    0    0 -0.10928505087E+03 -0.13947605343E+03  0.45115064133E+03  0.48470062203E+03  0.10000000000E+01 0.  0.
    9000005    1    3    3    0    0 -0.16189522322E+02  0.25771833054E+02  0.46006854871E+02  0.55171720176E+02  0.10000000000E+01 0.  0.
<mgrwt>
<rscale>  0 0.20575649E+03</rscale>
<asrwt>0</asrwt>
<pdfrwt beam="1">  1        2 0.30250636E+00 0.21046750E+03</pdfrwt>
<pdfrwt beam="2">  1       -2 0.42676032E-02 0.21046750E+03</pdfrwt>
<totfact> 0.19355607E+03</totfact>
</mgrwt>
</event>
<event>
 8    3  0.1559595E-003  0.1333176E+03  0.7818608E-02  0.1235405E+00
         -2   -1    0    0    0  501 -0.00000000000E+00  0.00000000000E+00  0.27149566567E+03  0.27149566568E+03  0.25500000000E-02 0.  1.
          2   -1    0    0  501    0  0.00000000000E+00 -0.00000000000E+00 -0.55714293013E+02  0.55714293071E+02  0.25500000000E-02 0. -1.
         25    2    1    2    0    0  0.32542517857E+02 -0.33006874555E+02  0.74366776285E+02  0.15265645090E+03  0.12500042140E+03 0.  0.
         23    2    1    2    0    0 -0.32542517857E+02  0.33006874555E+02  0.14141459637E+03  0.17455350785E+03  0.91227023405E+02 0.  0.
        -13    1    4    4    0    0 -0.39993665303E+02  0.58868642578E+02  0.77590431839E+02  0.10528673525E+03  0.10566000000E+00 0.  1.
         13    1    4    4    0    0  0.74511474456E+01 -0.25861768023E+02  0.63824164533E+02  0.69266772597E+02  0.10566000000E+00 0. -1.
    9000005    1    3    3    0    0  0.66248585880E+02 -0.56979958062E+02  0.68146281121E+02  0.11081744620E+03  0.10000000000E+01 0.  0.
    9000005    1    3    3    0    0 -0.33706068023E+02  0.23973083507E+02  0.62204951638E+01  0.41839004702E+02  0.10000000000E+01 0.  0.
<mgrwt>
<rscale>  0 0.12478524E+03</rscale>
<asrwt>0</asrwt>
<pdfrwt beam="2">  1        2 0.85714298E-02 0.13331757E+03</pdfrwt>
<pdfrwt beam="1">  1       -2 0.41768563E-01 0.13331757E+03</pdfrwt>
<totfact> 0.40649350E+03</totfact>
</mgrwt>
</event>
<event>
 8    3  0.1559595E-003  0.1411946E+03  0.7818608E-02  0.1223092E+00
          2   -1    0    0  501    0  0.00000000000E+00  0.00000000000E+00  0.11174610846E+04  0.11174610846E+04  0.25500000000E-02 0. -1.
         -2   -1    0    0    0  501 -0.00000000000E+00 -0.00000000000E+00 -0.14627572482E+02  0.14627572704E+02  0.25500000000E-02 0.  1.
         25    2    1    2    0    0 -0.59217679751E+02 -0.28357108596E+02  0.70671566226E+03  0.72068227873E+03  0.12500024156E+03 0.  0.
         23    2    1    2    0    0  0.59217679751E+02  0.28357108596E+02  0.39611784987E+03  0.41140637859E+03  0.89638151225E+02 0.  0.
        -13    1    4    4    0    0 -0.61855756797E+01 -0.55129405221E+01  0.22448023958E+03  0.22463312976E+03  0.10566000000E+00 0. -1.
         13    1    4    4    0    0  0.65403255430E+02  0.33870049118E+02  0.17163761029E+03  0.18677324883E+03  0.10566000000E+00 0.  1.
    9000005    1    3    3    0    0 -0.58551854142E+02 -0.71109376323E+02  0.37156938252E+03  0.38281806259E+03  0.10000000000E+01 0.  0.
    9000005    1    3    3    0    0 -0.66582560912E+00  0.42752267727E+02  0.33514627974E+03  0.33786421614E+03  0.10000000000E+01 0.  0.
<mgrwt>
<rscale>  0 0.13298534E+03</rscale>
<asrwt>0</asrwt>
<pdfrwt beam="1">  1        2 0.17191717E+00 0.14119462E+03</pdfrwt>
<pdfrwt beam="2">  1       -2 0.22503947E-02 0.14119462E+03</pdfrwt>
<totfact> 0.13970014E+04</totfact>
</mgrwt>
</event>
<event>
 8    3  0.1559595E-003  0.1721124E+03  0.7818608E-02  0.1181923E+00
         -2   -1    0    0    0  501 -0.00000000000E+00  0.00000000000E+00  0.10164493299E+02  0.10164493618E+02  0.25500000000E-02 0.  1.
          2   -1    0    0  501    0  0.00000000000E+00 -0.00000000000E+00 -0.25441835166E+04  0.25441835166E+04  0.25500000000E-02 0. -1.
         25    2    1    2    0    0 -0.28020747457E+02  0.11494706944E+03 -0.13371255936E+04  0.13481570856E+04  0.12499873372E+03 0.  0.
         23    2    1    2    0    0  0.28020747457E+02 -0.11494706944E+03 -0.11968934297E+04  0.12061909245E+04  0.91349184032E+02 0.  0.
        -13    1    4    4    0    0 -0.12454119801E+02 -0.87479988285E+02 -0.97365410713E+03  0.97765545309E+03  0.10566000000E+00 0. -1.
         13    1    4    4    0    0  0.40474867258E+02 -0.27467081152E+02 -0.22323932253E+03  0.22853547146E+03  0.10566000000E+00 0.  1.
    9000005    1    3    3    0    0 -0.25646557981E+02  0.43533307346E+02 -0.10829134756E+04  0.10840920120E+04  0.10000000000E+01 0.  0.
    9000005    1    3    3    0    0 -0.23741894757E+01  0.71413762091E+02 -0.25421211800E+03  0.26406507367E+03  0.10000000000E+01 0.  0.
<mgrwt>
<rscale>  0 0.16615024E+03</rscale>
<asrwt>0</asrwt>
<pdfrwt beam="2">  1        2 0.39141234E+00 0.17211239E+03</pdfrwt>
<pdfrwt beam="1">  1       -2 0.15637703E-02 0.17211239E+03</pdfrwt>
<totfact> 0.42243862E+03</totfact>
</mgrwt>
</event>
<event>
 8    3  0.1559595E-003  0.1626659E+03  0.7818608E-02  0.1192840E+00
         -2   -1    0    0    0  501 -0.00000000000E+00  0.00000000000E+00  0.15676374761E+02  0.15676374968E+02  0.25500000000E-02 0.  1.
          2   -1    0    0  501    0  0.00000000000E+00 -0.00000000000E+00 -0.17828864459E+04  0.17828864459E+04  0.25500000000E-02 0. -1.
         25    2    1    2    0    0  0.34070774517E+02 -0.98356588878E+02 -0.13272211353E+04  0.13371522481E+04  0.12500142511E+03 0.  0.
         23    2    1    2    0    0 -0.34070774517E+02  0.98356588878E+02 -0.43998893582E+03  0.46141057278E+03  0.92057681800E+02 0.  0.
        -13    1    4    4    0    0  0.58113098785E+01  0.96392826333E+02 -0.26860789317E+03  0.28543923999E+03  0.10566000000E+00 0. -1.
         13    1    4    4    0    0 -0.39882084395E+02  0.19637625445E+01 -0.17138104265E+03  0.17597133279E+03  0.10566000000E+00 0.  1.
    9000005    1    3    3    0    0  0.48753585667E+02  0.10815222458E+02 -0.31212993720E+03  0.31610121614E+03  0.10000000000E+01 0.  0.
    9000005    1    3    3    0    0 -0.14682811150E+02 -0.10917181134E+03 -0.10150911981E+04  0.10210510319E+04  0.10000000000E+01 0.  0.
<mgrwt>
<rscale>  0 0.15638447E+03</rscale>
<asrwt>0</asrwt>
<pdfrwt beam="2">  1        2 0.27429006E+00 0.16266589E+03</pdfrwt>
<pdfrwt beam="1">  1       -2 0.24117514E-02 0.16266589E+03</pdfrwt>
<totfact> 0.56185591E+03</totfact>
</mgrwt>
</event>
<event>
 8    3  0.1559595E-003  0.1498309E+03  0.7818608E-02  0.1211130E+00
         -2   -1    0    0    0  501 -0.00000000000E+00  0.00000000000E+00  0.10435534323E+03  0.10435534326E+03  0.25500000000E-02 0.  1.
          2   -1    0    0  501    0  0.00000000000E+00 -0.00000000000E+00 -0.17732662173E+03  0.17732662175E+03  0.25500000000E-02 0. -1.
         25    2    1    2    0    0 -0.68551967881E+02 -0.46093751094E+02 -0.59624560309E+02  0.16125871995E+03  0.12500112150E+03 0.  0.
         23    2    1    2    0    0  0.68551967881E+02  0.46093751094E+02 -0.13346718191E+02  0.12042324506E+03  0.86600328371E+02 0.  0.
        -13    1    4    4    0    0  0.51425429375E+02  0.33190107681E+02  0.32870209447E+02  0.69473879030E+02  0.10566000000E+00 0.  1.
         13    1    4    4    0    0  0.17126538506E+02  0.12903643413E+02 -0.46216927639E+02  0.50949366031E+02  0.10566000000E+00 0. -1.
    9000005    1    3    3    0    0  0.96053205162E+01 -0.65632787799E+02 -0.11260349000E+02  0.67288338336E+02  0.10000000000E+01 0.  0.
    9000005    1    3    3    0    0 -0.78157288397E+02  0.19539036705E+02 -0.48364211309E+02  0.93970381613E+02  0.10000000000E+01 0.  0.
<mgrwt>
<rscale>  0 0.14164706E+03</rscale>
<asrwt>0</asrwt>
<pdfrwt beam="2">  1        2 0.27281019E-01 0.14983086E+03</pdfrwt>
<pdfrwt beam="1">  1       -2 0.16054668E-01 0.14983086E+03</pdfrwt>
<totfact> 0.57128628E+03</totfact>
</mgrwt>
</event>
<event>
 8    3  0.1559595E-003  0.1953384E+03  0.7818608E-02  0.1157324E+00
          2   -1    0    0  501    0  0.00000000000E+00  0.00000000000E+00  0.14629673717E+04  0.14629673717E+04  0.25500000000E-02 0. -1.
         -2   -1    0    0    0  501 -0.00000000000E+00 -0.00000000000E+00 -0.29617023455E+02  0.29617023565E+02  0.25500000000E-02 0.  1.
         25    2    1    2    0    0  0.12096831378E+03 -0.88874277092E+02  0.41686459191E+03  0.46036202925E+03  0.12500055968E+03 0.  0.
         23    2    1    2    0    0 -0.12096831378E+03  0.88874277092E+02  0.10164857563E+04  0.10322223660E+04  0.98527914860E+02 0.  0.
        -13    1    4    4    0    0 -0.10402652437E+03  0.31632648482E+02  0.46636251352E+03  0.47886965596E+03  0.10566000000E+00 0.  1.
         13    1    4    4    0    0 -0.16941789416E+02  0.57241628610E+02  0.55012324283E+03  0.55335271007E+03  0.10566000000E+00 0. -1.
    9000005    1    3    3    0    0  0.44095105084E+02 -0.34190106380E+02  0.32482905649E+02  0.64571517142E+02  0.10000000000E+01 0.  0.
    9000005    1    3    3    0    0  0.76873208698E+02 -0.54684170712E+02  0.38438168626E+03  0.39579051211E+03  0.10000000000E+01 0.  0.
<mgrwt>
<rscale>  0 0.19126685E+03</rscale>
<asrwt>0</asrwt>
<pdfrwt beam="1">  1        2 0.22507185E+00 0.19533845E+03</pdfrwt>
<pdfrwt beam="2">  1       -2 0.45564663E-02 0.19533845E+03</pdfrwt>
<totfact> 0.32144652E+03</totfact>
</mgrwt>
</event>
<event>
 8    3  0.1559595E-003  0.1531380E+03  0.7818608E-02  0.1205500E+00
          2   -1    0    0  501    0  0.00000000000E+00  0.00000000000E+00  0.50676656508E+03  0.50676656508E+03  0.25500000000E-02 0. -1.
         -2   -1    0    0    0  501 -0.00000000000E+00 -0.00000000000E+00 -0.57867597830E+02  0.57867597886E+02  0.25500000000E-02 0.  1.
         25    2    1    2    0    0 -0.88207101770E+02  0.68080108122E+01  0.40128428773E+03  0.42951171353E+03  0.12499756267E+03 0.  0.
         23    2    1    2    0    0  0.88207101770E+02 -0.68080108122E+01  0.47614679521E+02  0.13512244943E+03  0.90355281092E+02 0.  0.
        -13    1    4    4    0    0  0.39582654953E+02 -0.20221525113E+02  0.67568978001E+02  0.80878146635E+02  0.10566000000E+00 0. -1.
         13    1    4    4    0    0  0.48624446818E+02  0.13413514301E+02 -0.19954298481E+02  0.54244302799E+02  0.10566000000E+00 0.  1.
    9000005    1    3    3    0    0 -0.14864352568E+02  0.16126424605E+02  0.49615549410E+00  0.21960344216E+02  0.10000000000E+01 0.  0.
    9000005    1    3    3    0    0 -0.73342749203E+02 -0.93184137926E+01  0.40078813223E+03  0.40755136932E+03  0.10000000000E+01 0.  0.
<mgrwt>
<rscale>  0 0.14598099E+03</rscale>
<asrwt>0</asrwt>
<pdfrwt beam="1">  1        2 0.77964084E-01 0.15313795E+03</pdfrwt>
<pdfrwt beam="2">  1       -2 0.89027077E-02 0.15313795E+03</pdfrwt>
<totfact> 0.47551481E+03</totfact>
</mgrwt>
</event>
<event>
 8    3  0.1559595E-003  0.1330263E+03  0.7818608E-02  0.1243523E+00
         -2   -1    0    0    0  501 -0.00000000000E+00  0.00000000000E+00  0.78692642392E+01  0.78692646524E+01  0.25500000000E-02 0. -1.
          2   -1    0    0  501    0  0.00000000000E+00 -0.00000000000E+00 -0.17402876965E+04  0.17402876965E+04  0.25500000000E-02 0.  1.
         25    2    1    2    0    0  0.12126197193E+02  0.43866087027E+02 -0.13143313337E+04  0.13210461218E+04  0.12499889215E+03 0.  0.
         23    2    1    2    0    0 -0.12126197193E+02 -0.43866087027E+02 -0.41808709860E+03  0.42711083935E+03  0.74535688272E+02 0.  0.
        -13    1    4    4    0    0 -0.26918217580E+02 -0.76815496721E+01 -0.32426008160E+03  0.32546614006E+03  0.10566000000E+00 0.  1.
         13    1    4    4    0    0  0.14792020387E+02 -0.36184537355E+02 -0.93827017007E+02  0.10164469930E+03  0.10566000000E+00 0. -1.
    9000005    1    3    3    0    0  0.40927527474E+02  0.42793564724E+02 -0.27454509157E+03  0.28086003452E+03  0.10000000000E+01 0.  0.
    9000005    1    3    3    0    0 -0.28801330281E+02  0.10725223032E+01 -0.10397862421E+04  0.10401860873E+04  0.10000000000E+01 0.  0.
<mgrwt>
<rscale>  0 0.11974194E+03</rscale>
<asrwt>0</asrwt>
<pdfrwt beam="2">  1        2 0.26773626E+00 0.13302632E+03</pdfrwt>
<pdfrwt beam="1">  1       -2 0.12106575E-02 0.13302632E+03</pdfrwt>
<totfact> 0.15936923E+04</totfact>
</mgrwt>
</event>
<event>
 8    3  0.1559595E-003  0.1299192E+03  0.7818608E-02  0.1253295E+00
         -2   -1    0    0    0  501 -0.00000000000E+00  0.00000000000E+00  0.64066647947E+01  0.64066653022E+01  0.25500000000E-02 0.  1.
          2   -1    0    0  501    0  0.00000000000E+00 -0.00000000000E+00 -0.18271167045E+04  0.18271167045E+04  0.25500000000E-02 0. -1.
         25    2    1    2    0    0 -0.35420725273E+02  0.35500742661E+00 -0.13819484574E+04  0.13880419791E+04  0.12499697207E+03 0.  0.
         23    2    1    2    0    0  0.35420725273E+02 -0.35500742661E+00 -0.43876158223E+03  0.44548139063E+03  0.68463052412E+02 0.  0.
        -13    1    4    4    0    0  0.51038481733E+02 -0.15096008248E+02 -0.25685796213E+03  0.26231439144E+03  0.10566000000E+00 0. -1.
         13    1    4    4    0    0 -0.15617756460E+02  0.14741000822E+02 -0.18190362011E+03  0.18316699919E+03  0.10566000000E+00 0.  1.
    9000005    1    3    3    0    0 -0.46656049636E+02  0.51885457799E+02 -0.54776948153E+03  0.55219678793E+03  0.10000000000E+01 0.  0.
    9000005    1    3    3    0    0  0.11235324363E+02 -0.51530450372E+02 -0.83417897590E+03  0.83584519120E+03  0.10000000000E+01 0.  0.
<mgrwt>
<rscale>  0 0.11402394E+03</rscale>
<asrwt>0</asrwt>
<pdfrwt beam="2">  1        2 0.28109446E+00 0.12991919E+03</pdfrwt>
<pdfrwt beam="1">  1       -2 0.98564224E-03 0.12991919E+03</pdfrwt>
<totfact> 0.19294653E+04</totfact>
</mgrwt>
</event>
<event>
 8    3  0.1559595E-003  0.2708977E+03  0.7818608E-02  0.1102063E+00
         -2   -1    0    0    0  501 -0.00000000000E+00  0.00000000000E+00  0.11636536998E+03  0.11636537001E+03  0.25500000000E-02 0.  1.
          2   -1    0    0  501    0  0.00000000000E+00 -0.00000000000E+00 -0.90160053112E+03  0.90160053113E+03  0.25500000000E-02 0. -1.
         25    2    1    2    0    0 -0.72703025909E+02 -0.22907523444E+03 -0.10764816339E+03  0.29150250629E+03  0.12499756430E+03 0.  0.
         23    2    1    2    0    0  0.72703025909E+02  0.22907523444E+03 -0.67758699776E+03  0.72646339485E+03  0.10422922584E+03 0.  0.
        -13    1    4    4    0    0 -0.47312302976E+00  0.15672298954E+03 -0.36042757263E+03  0.39302718172E+03  0.10566000000E+00 0.  1.
         13    1    4    4    0    0  0.73176148939E+02  0.72352244901E+02 -0.31715942513E+03  0.33343621313E+03  0.10566000000E+00 0. -1.
    9000005    1    3    3    0    0 -0.81643998577E+02 -0.63926401487E+02 -0.58007028013E+02  0.11881979048E+03  0.10000000000E+01 0.  0.
    9000005    1    3    3    0    0  0.89409726675E+01 -0.16514883295E+03 -0.49641135373E+02  0.17268271581E+03  0.10000000000E+01 0.  0.
<mgrwt>
<rscale>  0 0.26863603E+03</rscale>
<asrwt>0</asrwt>
<pdfrwt beam="2">  1        2 0.13870777E+00 0.27089774E+03</pdfrwt>
<pdfrwt beam="1">  1       -2 0.17902365E-01 0.27089774E+03</pdfrwt>
<totfact> 0.77268961E+02</totfact>
</mgrwt>
</event>
<event>
 8    3  0.1559595E-003  0.1895707E+03  0.7818608E-02  0.1165676E+00
          2   -1    0    0  501    0  0.00000000000E+00  0.00000000000E+00  0.91088504305E+03  0.91088504305E+03  0.25500000000E-02 0. -1.
         -2   -1    0    0    0  501 -0.00000000000E+00 -0.00000000000E+00 -0.38332930853E+02  0.38332930938E+02  0.25500000000E-02 0.  1.
         25    2    1    2    0    0  0.18386425388E+02 -0.14133229031E+03  0.62790247877E+03  0.65589523282E+03  0.12499662666E+03 0.  0.
         23    2    1    2    0    0 -0.18386425388E+02  0.14133229031E+03  0.24464963343E+03  0.29332274116E+03  0.76628391772E+02 0.  0.
        -13    1    4    4    0    0 -0.74429916364E+00  0.12304869269E+03  0.14351412746E+03  0.18904457331E+03  0.10566000000E+00 0.  1.
         13    1    4    4    0    0 -0.17642126225E+02  0.18283597620E+02  0.10113550597E+03  0.10427816785E+03  0.10566000000E+00 0. -1.
    9000005    1    3    3    0    0 -0.26782703550E+01 -0.93127776043E+02  0.16083277627E+03  0.18587129344E+03  0.10000000000E+01 0.  0.
    9000005    1    3    3    0    0  0.21064695743E+02 -0.48204514266E+02  0.46706970249E+03  0.47002393938E+03  0.10000000000E+01 0.  0.
<mgrwt>
<rscale>  0 0.18221514E+03</rscale>
<asrwt>0</asrwt>
<pdfrwt beam="1">  1        2 0.14013614E+00 0.18957066E+03</pdfrwt>
<pdfrwt beam="2">  1       -2 0.58973747E-02 0.18957066E+03</pdfrwt>
<totfact> 0.44858593E+03</totfact>
</mgrwt>
</event>
<event>
 8    3  0.1559595E-003  0.1349571E+03  0.7818608E-02  0.1232867E+00
          2   -1    0    0  501    0  0.00000000000E+00  0.00000000000E+00  0.95056906051E+03  0.95056906051E+03  0.25500000000E-02 0. -1.
         -2   -1    0    0    0  501 -0.00000000000E+00 -0.00000000000E+00 -0.16173059255E+02  0.16173059456E+02  0.25500000000E-02 0.  1.
         25    2    1    2    0    0  0.50065958482E+02 -0.90487737783E+01  0.39474682253E+03  0.41717919305E+03  0.12499977886E+03 0.  0.
         23    2    1    2    0    0 -0.50065958482E+02  0.90487737783E+01  0.53964917872E+03  0.54956292691E+03  0.90607361919E+02 0.  0.
        -13    1    4    4    0    0  0.40759526240E+01  0.43887513829E+01 -0.10995280524E+01  0.60905381099E+01  0.10566000000E+00 0.  1.
         13    1    4    4    0    0 -0.54141911106E+02  0.46600223954E+01  0.54074870678E+03  0.54347238880E+03  0.10566000000E+00 0. -1.
    9000005    1    3    3    0    0  0.79917984238E+02 -0.23814458565E+02  0.35795880980E+03  0.36754526545E+03  0.10000000000E+01 0.  0.
    9000005    1    3    3    0    0 -0.29852025756E+02  0.14765684787E+02  0.36788012732E+02  0.49633927607E+02  0.10000000000E+01 0.  0.
<mgrwt>
<rscale>  0 0.12641996E+03</rscale>
<asrwt>0</asrwt>
<pdfrwt beam="1">  1        2 0.14624145E+00 0.13495712E+03</pdfrwt>
<pdfrwt beam="2">  1       -2 0.24881621E-02 0.13495712E+03</pdfrwt>
<totfact> 0.15089136E+04</totfact>
</mgrwt>
</event>
<event>
 8    3  0.1559595E-003  0.1941202E+03  0.7818608E-02  0.1158752E+00
          2   -1    0    0  501    0  0.00000000000E+00  0.00000000000E+00  0.20427806699E+04  0.20427806699E+04  0.25500000000E-02 0. -1.
         -2   -1    0    0    0  501 -0.00000000000E+00 -0.00000000000E+00 -0.38165386816E+02  0.38165386901E+02  0.25500000000E-02 0.  1.
         25    2    1    2    0    0  0.78718994610E+02  0.12594180819E+03  0.17999709370E+04  0.18104082516E+04  0.12499857685E+03 0.  0.
         23    2    1    2    0    0 -0.78718994610E+02 -0.12594180819E+03  0.20464434611E+03  0.27053780524E+03  0.96194472320E+02 0.  0.
        -13    1    4    4    0    0 -0.68477482677E+01 -0.72514075686E+02  0.14694185900E+03  0.16400336558E+03  0.10566000000E+00 0. -1.
         13    1    4    4    0    0 -0.71871246342E+02 -0.53427732507E+02  0.57702487104E+02  0.10653443966E+03  0.10566000000E+00 0.  1.
    9000005    1    3    3    0    0  0.40857019803E+01 -0.46403284083E+01  0.26430606020E+01  0.67978950974E+01  0.10000000000E+01 0.  0.
    9000005    1    3    3    0    0  0.74633292630E+02  0.13058213660E+03  0.17973278764E+04  0.18036103565E+04  0.10000000000E+01 0.  0.
<mgrwt>
<rscale>  0 0.18967754E+03</rscale>
<asrwt>0</asrwt>
<pdfrwt beam="1">  1        2 0.31427391E+00 0.19412023E+03</pdfrwt>
<pdfrwt beam="2">  1       -2 0.58715987E-02 0.19412023E+03</pdfrwt>
<totfact> 0.10904584E+03</totfact>
</mgrwt>
</event>
<event>
 8    3  0.1559595E-003  0.1567691E+03  0.7818608E-02  0.1200114E+00
         -2   -1    0    0    0  501 -0.00000000000E+00  0.00000000000E+00  0.23700455729E+03  0.23700455730E+03  0.25500000000E-02 0.  1.
          2   -1    0    0  501    0  0.00000000000E+00 -0.00000000000E+00 -0.88449723522E+02  0.88449723558E+02  0.25500000000E-02 0. -1.
         25    2    1    2    0    0 -0.51890561232E+02 -0.79115264183E+02  0.72219634326E+02  0.17260423807E+03  0.12499876818E+03 0.  0.
         23    2    1    2    0    0  0.51890561232E+02  0.79115264183E+02  0.76335199440E+02  0.15285004279E+03  0.92651052532E+02 0.  0.
        -13    1    4    4    0    0  0.64747091946E+02  0.15398374364E+02  0.47355897516E+02  0.81681626098E+02  0.10566000000E+00 0.  1.
         13    1    4    4    0    0 -0.12856530714E+02  0.63716889819E+02  0.28979301924E+02  0.71168416691E+02  0.10566000000E+00 0. -1.
    9000005    1    3    3    0    0 -0.81869089687E+02 -0.12151119197E+02  0.45932048663E+02  0.94662297871E+02  0.10000000000E+01 0.  0.
    9000005    1    3    3    0    0  0.29978528455E+02 -0.66964144986E+02  0.26287585663E+02  0.77941940199E+02  0.10000000000E+01 0.  0.
<mgrwt>
<rscale>  0 0.15029235E+03</rscale>
<asrwt>0</asrwt>
<pdfrwt beam="2">  1        2 0.13607650E-01 0.15676909E+03</pdfrwt>
<pdfrwt beam="1">  1       -2 0.36462239E-01 0.15676909E+03</pdfrwt>
<totfact> 0.30202146E+03</totfact>
</mgrwt>
</event>
<event>
 8    3  0.1559595E-003  0.1914992E+03  0.7818608E-02  0.1162022E+00
          2   -1    0    0  501    0  0.00000000000E+00  0.00000000000E+00  0.27795003047E+03  0.27795003048E+03  0.25500000000E-02 0. -1.
         -2   -1    0    0    0  501 -0.00000000000E+00 -0.00000000000E+00 -0.12358497046E+03  0.12358497049E+03  0.25500000000E-02 0.  1.
         25    2    1    2    0    0 -0.13174263728E+03 -0.60750845252E+02  0.39057695873E+02  0.19544168619E+03  0.12500064567E+03 0.  0.
         23    2    1    2    0    0  0.13174263728E+03  0.60750845252E+02  0.11530736414E+03  0.20609331478E+03  0.90176928853E+02 0.  0.
        -13    1    4    4    0    0  0.70629094699E+02 -0.16061939889E+02  0.43735608604E+02  0.84612466900E+02  0.10566000000E+00 0. -1.
         13    1    4    4    0    0  0.61113542581E+02  0.76812785141E+02  0.71571755535E+02  0.12148084788E+03  0.10566000000E+00 0.  1.
    9000005    1    3    3    0    0 -0.10541556041E+03 -0.89357850306E+02 -0.29070412142E+01  0.13822704756E+03  0.10000000000E+01 0.  0.
    9000005    1    3    3    0    0 -0.26327076865E+02  0.28607005055E+02  0.41964737087E+02  0.57214638627E+02  0.10000000000E+01 0.  0.
<mgrwt>
<rscale>  0 0.18610517E+03</rscale>
<asrwt>0</asrwt>
<pdfrwt beam="1">  1        2 0.42761543E-01 0.19149921E+03</pdfrwt>
<pdfrwt beam="2">  1       -2 0.19013072E-01 0.19149921E+03</pdfrwt>
<totfact> 0.26815251E+03</totfact>
</mgrwt>
</event>
<event>
 8    3  0.1559595E-003  0.1284840E+03  0.7818608E-02  0.1241929E+00
         -2   -1    0    0    0  501 -0.00000000000E+00  0.00000000000E+00  0.14710118299E+02  0.14710118520E+02  0.25500000000E-02 0. -1.
          2   -1    0    0  501    0  0.00000000000E+00 -0.00000000000E+00 -0.13890924750E+04  0.13890924750E+04  0.25500000000E-02 0.  1.
         25    2    1    2    0    0  0.27582492941E+02  0.11098321220E+02 -0.11612217127E+04  0.11683081796E+04  0.12499667945E+03 0.  0.
         23    2    1    2    0    0 -0.27582492941E+02 -0.11098321220E+02 -0.21316064400E+03  0.23549441390E+03  0.95583430451E+02 0.  0.
        -13    1    4    4    0    0 -0.22581199326E+02  0.38990519768E+02 -0.13684819344E+03  0.14407501659E+03  0.10566000000E+00 0.  1.
         13    1    4    4    0    0 -0.50012936143E+01 -0.50088840987E+02 -0.76312450564E+02  0.91419397309E+02  0.10566000000E+00 0. -1.
    9000005    1    3    3    0    0 -0.31392802369E+02  0.16752645768E+02 -0.11438959432E+03  0.11980041098E+03  0.10000000000E+01 0.  0.
    9000005    1    3    3    0    0  0.58975295310E+02 -0.56543245485E+01 -0.10468321184E+04  0.10485077687E+04  0.10000000000E+01 0.  0.
<mgrwt>
<rscale>  0 0.12071079E+03</rscale>
<asrwt>0</asrwt>
<pdfrwt beam="2">  1        2 0.21370643E+00 0.12848399E+03</pdfrwt>
<pdfrwt beam="1">  1       -2 0.22630962E-02 0.12848399E+03</pdfrwt>
<totfact> 0.97965215E+03</totfact>
</mgrwt>
</event>
<event>
 8    3  0.1559595E-003  0.1405064E+03  0.7818608E-02  0.1223031E+00
          2   -1    0    0  501    0  0.00000000000E+00  0.00000000000E+00  0.15149697737E+04  0.15149697737E+04  0.25500000000E-02 0. -1.
         -2   -1    0    0    0  501 -0.00000000000E+00 -0.00000000000E+00 -0.10698376141E+02  0.10698376445E+02  0.25500000000E-02 0.  1.
         25    2    1    2    0    0 -0.57751712198E+02  0.28163789547E+02  0.90729132304E+03  0.91810651894E+03  0.12495429544E+03 0.  0.
         23    2    1    2    0    0  0.57751712198E+02 -0.28163789547E+02  0.59698007449E+03  0.60756163118E+03  0.92830313159E+02 0.  0.
        -13    1    4    4    0    0  0.76822838781E+02  0.99315640503E+00  0.44977881767E+03  0.45629347016E+03  0.10566000000E+00 0. -1.
         13    1    4    4    0    0 -0.19071126583E+02 -0.29156945952E+02  0.14720125681E+03  0.15126816102E+03  0.10566000000E+00 0.  1.
    9000005    1    3    3    0    0  0.15778227473E+02  0.55061262889E+02  0.50721437919E+03  0.51043914582E+03  0.10000000000E+01 0.  0.
    9000005    1    3    3    0    0 -0.73529939672E+02 -0.26897473342E+02  0.40007694386E+03  0.40766737312E+03  0.10000000000E+01 0.  0.
<mgrwt>
<rscale>  0 0.13302810E+03</rscale>
<asrwt>0</asrwt>
<pdfrwt beam="1">  1        2 0.23307240E+00 0.14050635E+03</pdfrwt>
<pdfrwt beam="2">  1       -2 0.16459031E-02 0.14050635E+03</pdfrwt>
<totfact> 0.13412307E+04</totfact>
</mgrwt>
</event>
<event>
 8    3  0.1559595E-003  0.1274676E+03  0.7818608E-02  0.1245098E+00
         -2   -1    0    0    0  501 -0.00000000000E+00  0.00000000000E+00  0.46498061601E+02  0.46498061671E+02  0.25500000000E-02 0.  1.
          2   -1    0    0  501    0  0.00000000000E+00 -0.00000000000E+00 -0.27844946735E+03  0.27844946736E+03  0.25500000000E-02 0. -1.
         25    2    1    2    0    0 -0.13064759740E+02 -0.21284606977E+02 -0.10182094858E+03  0.16314259527E+03  0.12499711349E+03 0.  0.
         23    2    1    2    0    0  0.13064759740E+02  0.21284606977E+02 -0.13013045716E+03  0.16180493376E+03  0.92861069702E+02 0.  0.
        -13    1    4    4    0    0  0.11972574205E+01 -0.19165183879E+02  0.53365230511E+01  0.19930562981E+02  0.10566000000E+00 0.  1.
         13    1    4    4    0    0  0.11867502320E+02  0.40449790855E+02 -0.13546698021E+03  0.14187437078E+03  0.10566000000E+00 0. -1.
    9000005    1    3    3    0    0 -0.31788714674E+02  0.15162559148E+02  0.15778110952E+02  0.38605367059E+02  0.10000000000E+01 0.  0.
    9000005    1    3    3    0    0  0.18723954933E+02 -0.36447166125E+02 -0.11759905954E+03  0.12453722821E+03  0.10000000000E+01 0.  0.
<mgrwt>
<rscale>  0 0.11879537E+03</rscale>
<asrwt>0</asrwt>
<pdfrwt beam="2">  1        2 0.42838379E-01 0.12746765E+03</pdfrwt>
<pdfrwt beam="1">  1       -2 0.71535480E-02 0.12746765E+03</pdfrwt>
<totfact> 0.12513672E+04</totfact>
</mgrwt>
</event>
<event>
 8    3  0.1559595E-003  0.1634696E+03  0.7818608E-02  0.1192116E+00
          2   -1    0    0  501    0  0.00000000000E+00  0.00000000000E+00  0.22372324686E+04  0.22372324686E+04  0.25500000000E-02 0. -1.
         -2   -1    0    0    0  501 -0.00000000000E+00 -0.00000000000E+00 -0.10876981750E+02  0.10876982049E+02  0.25500000000E-02 0.  1.
         25    2    1    2    0    0 -0.83217437739E+02 -0.64617252976E+02  0.92442084209E+03  0.93876312523E+03  0.12498712200E+03 0.  0.
         23    2    1    2    0    0  0.83217437739E+02  0.64617252976E+02  0.13019346448E+04  0.13093463255E+04  0.90848496688E+02 0.  0.
        -13    1    4    4    0    0  0.93343030726E+02  0.44503025732E+02  0.76720773113E+03  0.77414543501E+03  0.10566000000E+00 0.  1.
         13    1    4    4    0    0 -0.10125592988E+02  0.20114227244E+02  0.53472691366E+03  0.53520089044E+03  0.10566000000E+00 0. -1.
    9000005    1    3    3    0    0 -0.88857002775E+02 -0.26358623627E+02  0.84856684159E+03  0.85361409819E+03  0.10000000000E+01 0.  0.
    9000005    1    3    3    0    0  0.56395650361E+01 -0.38258629349E+02  0.75854000508E+02  0.85149027044E+02  0.10000000000E+01 0.  0.
<mgrwt>
<rscale>  0 0.15700882E+03</rscale>
<asrwt>0</asrwt>
<pdfrwt beam="1">  1        2 0.34418964E+00 0.16346961E+03</pdfrwt>
<pdfrwt beam="2">  1       -2 0.16733817E-02 0.16346961E+03</pdfrwt>
<totfact> 0.55753370E+03</totfact>
</mgrwt>
</event>
<event>
 8    3  0.1559595E-003  0.1668746E+03  0.7818608E-02  0.1188052E+00
         -2   -1    0    0    0  501 -0.00000000000E+00  0.00000000000E+00  0.52125516649E+02  0.52125516711E+02  0.25500000000E-02 0.  1.
          2   -1    0    0  501    0  0.00000000000E+00 -0.00000000000E+00 -0.57669578443E+03  0.57669578444E+03  0.25500000000E-02 0. -1.
         25    2    1    2    0    0  0.67575989516E+02 -0.87496904125E+02 -0.41906016301E+03  0.45106379121E+03  0.12499960372E+03 0.  0.
         23    2    1    2    0    0 -0.67575989516E+02  0.87496904125E+02 -0.10551010477E+03  0.17775750994E+03  0.90791671090E+02 0.  0.
        -13    1    4    4    0    0 -0.30464086754E+02  0.97871788601E+02 -0.89320022491E+02  0.13595964536E+03  0.10566000000E+00 0. -1.
         13    1    4    4    0    0 -0.37111902762E+02 -0.10374884476E+02 -0.16190082283E+02  0.41797864573E+02  0.10566000000E+00 0.  1.
    9000005    1    3    3    0    0  0.67005279857E+01 -0.31162882579E+02 -0.96260502430E+01  0.33311907318E+02  0.10000000000E+01 0.  0.
    9000005    1    3    3    0    0  0.60875461530E+02 -0.56334021546E+02 -0.40943411277E+03  0.41775188389E+03  0.10000000000E+01 0.  0.
<mgrwt>
<rscale>  0 0.16057208E+03</rscale>
<asrwt>0</asrwt>
<pdfrwt beam="2">  1        2 0.88722424E-01 0.16687457E+03</pdfrwt>
<pdfrwt beam="1">  1       -2 0.80193107E-02 0.16687457E+03</pdfrwt>
<totfact> 0.48599499E+03</totfact>
</mgrwt>
</event>
<event>
 8    3  0.1559595E-003  0.1257854E+03  0.7818608E-02  0.1249384E+00
         -2   -1    0    0    0  501 -0.00000000000E+00  0.00000000000E+00  0.13425101334E+03  0.13425101337E+03  0.25500000000E-02 0.  1.
          2   -1    0    0  501    0  0.00000000000E+00 -0.00000000000E+00 -0.91258864048E+02  0.91258864084E+02  0.25500000000E-02 0. -1.
         25    2    1    2    0    0  0.11720971037E+02 -0.76906935689E+01  0.42732994170E+01  0.12585797752E+03  0.12500176594E+03 0.  0.
         23    2    1    2    0    0 -0.11720971037E+02  0.76906935689E+01  0.38718849878E+02  0.99651899929E+02  0.90745930454E+02 0.  0.
        -13    1    4    4    0    0 -0.46998567384E+02  0.24110590648E+02  0.20131078618E+02  0.56528377015E+02  0.10566000000E+00 0. -1.
         13    1    4    4    0    0  0.35277596347E+02 -0.16419897079E+02  0.18587771260E+02  0.43123522915E+02  0.10566000000E+00 0.  1.
    9000005    1    3    3    0    0 -0.10702067102E+02  0.41026536179E+02  0.42461022019E+02  0.60013742610E+02  0.10000000000E+01 0.  0.
    9000005    1    3    3    0    0  0.22423038139E+02 -0.48717229748E+02 -0.38187722602E+02  0.65844234913E+02  0.10000000000E+01 0.  0.
<mgrwt>
<rscale>  0 0.11626791E+03</rscale>
<asrwt>0</asrwt>
<pdfrwt beam="2">  1        2 0.14039825E-01 0.12578541E+03</pdfrwt>
<pdfrwt beam="1">  1       -2 0.20654002E-01 0.12578541E+03</pdfrwt>
<totfact> 0.78699906E+03</totfact>
</mgrwt>
</event>
<event>
 8    3  0.1559595E-003  0.1547880E+03  0.7818608E-02  0.1202689E+00
          2   -1    0    0  501    0  0.00000000000E+00  0.00000000000E+00  0.86493167011E+03  0.86493167011E+03  0.25500000000E-02 0. -1.
         -2   -1    0    0    0  501 -0.00000000000E+00 -0.00000000000E+00 -0.23890613276E+02  0.23890613412E+02  0.25500000000E-02 0.  1.
         25    2    1    2    0    0  0.90965469316E+02 -0.79519601826E+01  0.51572021050E+03  0.53844837097E+03  0.12498544873E+03 0.  0.
         23    2    1    2    0    0 -0.90965469316E+02  0.79519601826E+01  0.32532084633E+03  0.35037391256E+03  0.92683737874E+02 0.  0.
        -13    1    4    4    0    0 -0.44095742947E+02 -0.61794510826E+01  0.36903838877E+02  0.57831865348E+02  0.10566000000E+00 0.  1.
         13    1    4    4    0    0 -0.46869726369E+02  0.14131411265E+02  0.28841700745E+03  0.29254204721E+03  0.10566000000E+00 0. -1.
    9000005    1    3    3    0    0 -0.26266983041E+02 -0.12075515845E+02  0.19120715016E+03  0.19338290191E+03  0.10000000000E+01 0.  0.
    9000005    1    3    3    0    0  0.11723245236E+03  0.41235556624E+01  0.32451306035E+03  0.34506546905E+03  0.10000000000E+01 0.  0.
<mgrwt>
<rscale>  0 0.14821062E+03</rscale>
<asrwt>0</asrwt>
<pdfrwt beam="1">  1        2 0.13306642E+00 0.15478796E+03</pdfrwt>
<pdfrwt beam="2">  1       -2 0.36754787E-02 0.15478796E+03</pdfrwt>
<totfact> 0.96980230E+03</totfact>
</mgrwt>
</event>
<event>
 8    3  0.1559595E-003  0.1280975E+03  0.7818608E-02  0.1244770E+00
          2   -1    0    0  501    0  0.00000000000E+00  0.00000000000E+00  0.15012009143E+04  0.15012009144E+04  0.25500000000E-02 0. -1.
         -2   -1    0    0    0  501 -0.00000000000E+00 -0.00000000000E+00 -0.12745807972E+02  0.12745808227E+02  0.25500000000E-02 0.  1.
         25    2    1    2    0    0 -0.20072131291E+02  0.19573052522E+02  0.37224207287E+03  0.39366628221E+03  0.12499194410E+03 0.  0.
         23    2    1    2    0    0  0.20072131291E+02 -0.19573052522E+02  0.11162130335E+04  0.11202804404E+04  0.91163227660E+02 0.  0.
        -13    1    4    4    0    0  0.26269966621E+02 -0.54063435828E+02  0.66726819398E+03  0.66997001433E+03  0.10566000000E+00 0.  1.
         13    1    4    4    0    0 -0.61978353301E+01  0.34490383307E+02  0.44894483952E+03  0.45031042604E+03  0.10566000000E+00 0. -1.
    9000005    1    3    3    0    0 -0.62328533571E+02  0.43687103391E+02  0.18153894577E+03  0.19685222359E+03  0.10000000000E+01 0.  0.
    9000005    1    3    3    0    0  0.42256402281E+02 -0.24114050869E+02  0.19070312711E+03  0.19681405862E+03  0.10000000000E+01 0.  0.
<mgrwt>
<rscale>  0 0.11899159E+03</rscale>
<asrwt>0</asrwt>
<pdfrwt beam="1">  1        2 0.23095406E+00 0.12809754E+03</pdfrwt>
<pdfrwt beam="2">  1       -2 0.19608929E-02 0.12809754E+03</pdfrwt>
<totfact> 0.10536544E+04</totfact>
</mgrwt>
</event>
<event>
 8    3  0.1559595E-003  0.1920254E+03  0.7818608E-02  0.1161347E+00
          2   -1    0    0  501    0  0.00000000000E+00  0.00000000000E+00  0.25988852101E+04  0.25988852101E+04  0.25500000000E-02 0. -1.
         -2   -1    0    0    0  501 -0.00000000000E+00 -0.00000000000E+00 -0.13342312231E+02  0.13342312475E+02  0.25500000000E-02 0.  1.
         25    2    1    2    0    0 -0.66147277590E+02  0.12989783028E+03  0.16344078792E+04  0.16456496822E+04  0.12499940885E+03 0.  0.
         23    2    1    2    0    0  0.66147277590E+02 -0.12989783028E+03  0.95113501865E+03  0.96657784038E+03  0.91465781421E+02 0.  0.
        -13    1    4    4    0    0  0.20920764826E+02  0.22427182832E+01  0.44210606398E+02  0.48962200403E+02  0.10566000000E+00 0.  1.
         13    1    4    4    0    0  0.45226512764E+02 -0.13214054856E+03  0.90692441225E+03  0.91761563998E+03  0.10566000000E+00 0. -1.
    9000005    1    3    3    0    0 -0.70358950628E+02  0.33826092610E+02  0.40305596095E+03  0.41054804120E+03  0.10000000000E+01 0.  0.
    9000005    1    3    3    0    0  0.42116730385E+01  0.96071737666E+02  0.12313519183E+04  0.12351016410E+04  0.10000000000E+01 0.  0.
<mgrwt>
<rscale>  0 0.18683482E+03</rscale>
<asrwt>0</asrwt>
<pdfrwt beam="1">  1        2 0.39982862E+00 0.19202542E+03</pdfrwt>
<pdfrwt beam="2">  1       -2 0.20526628E-02 0.19202542E+03</pdfrwt>
<totfact> 0.26489468E+03</totfact>
</mgrwt>
</event>
<event>
 8    3  0.1559595E-003  0.1281011E+03  0.7818608E-02  0.1252735E+00
         -2   -1    0    0    0  501 -0.00000000000E+00  0.00000000000E+00  0.13437212979E+02  0.13437213221E+02  0.25500000000E-02 0. -1.
          2   -1    0    0  501    0  0.00000000000E+00 -0.00000000000E+00 -0.10138571139E+04  0.10138571139E+04  0.25500000000E-02 0.  1.
         25    2    1    2    0    0  0.25581874099E+02  0.11363294134E+02 -0.36779373365E+03  0.38946388270E+03  0.12500531459E+03 0.  0.
         23    2    1    2    0    0 -0.25581874099E+02 -0.11363294134E+02 -0.63262616722E+03  0.63783044438E+03  0.76342986503E+02 0.  0.
        -13    1    4    4    0    0 -0.19624302765E+02  0.11922098520E+02 -0.57412632617E+03  0.57458532809E+03  0.10566000000E+00 0.  1.
         13    1    4    4    0    0 -0.59575713343E+01 -0.23285392654E+02 -0.58499841052E+02  0.63245116289E+02  0.10566000000E+00 0. -1.
    9000005    1    3    3    0    0  0.71315099811E+01  0.68617453312E+01 -0.37016510331E+03  0.37029872494E+03  0.10000000000E+01 0.  0.
    9000005    1    3    3    0    0  0.18450364118E+02  0.45015488026E+01  0.23713696599E+01  0.19165157755E+02  0.10000000000E+01 0.  0.
<mgrwt>
<rscale>  0 0.11434169E+03</rscale>
<asrwt>0</asrwt>
<pdfrwt beam="2">  1        2 0.15597796E+00 0.12810107E+03</pdfrwt>
<pdfrwt beam="1">  1       -2 0.20672643E-02 0.12810107E+03</pdfrwt>
<totfact> 0.18036902E+04</totfact>
</mgrwt>
</event>
<event>
 8    3  0.1559595E-003  0.1421506E+03  0.7818608E-02  0.1216378E+00
         -2   -1    0    0    0  501 -0.00000000000E+00  0.00000000000E+00  0.52695549913E+02  0.52695549975E+02  0.25500000000E-02 0.  1.
          2   -1    0    0  501    0  0.00000000000E+00 -0.00000000000E+00 -0.35446912456E+03  0.35446912456E+03  0.25500000000E-02 0. -1.
         25    2    1    2    0    0  0.46481845661E+02  0.49220340723E+02 -0.11825980696E+03  0.18491129929E+03  0.12499441086E+03 0.  0.
         23    2    1    2    0    0 -0.46481845661E+02 -0.49220340723E+02 -0.18351376769E+03  0.22225337525E+03  0.10552751283E+03 0.  0.
        -13    1    4    4    0    0 -0.35032534921E+02  0.57927212333E+01 -0.15542984737E+03  0.15943425836E+03  0.10566000000E+00 0. -1.
         13    1    4    4    0    0 -0.11449310740E+02 -0.55013061957E+02 -0.28083920314E+02  0.62819116887E+02  0.10566000000E+00 0.  1.
    9000005    1    3    3    0    0  0.25488011340E+02  0.44733898384E+02  0.12012826645E+02  0.52877862955E+02  0.10000000000E+01 0.  0.
    9000005    1    3    3    0    0  0.20993834321E+02  0.44864423392E+01 -0.13027263360E+03  0.13203343633E+03  0.10000000000E+01 0.  0.
<mgrwt>
<rscale>  0 0.13775762E+03</rscale>
<asrwt>0</asrwt>
<pdfrwt beam="2">  1        2 0.54533710E-01 0.14215065E+03</pdfrwt>
<pdfrwt beam="1">  1       -2 0.81070079E-02 0.14215065E+03</pdfrwt>
<totfact> 0.80569203E+03</totfact>
</mgrwt>
</event>
<event>
 8    3  0.1559595E-003  0.1300622E+03  0.7818608E-02  0.1240325E+00
          2   -1    0    0  501    0  0.00000000000E+00  0.00000000000E+00  0.23775956122E+03  0.23775956124E+03  0.25500000000E-02 0. -1.
         -2   -1    0    0    0  501 -0.00000000000E+00 -0.00000000000E+00 -0.62156639630E+02  0.62156639682E+02  0.25500000000E-02 0.  1.
         25    2    1    2    0    0 -0.35910924944E+02  0.10977456689E+01  0.49489650280E+02  0.13915964641E+03  0.12500152851E+03 0.  0.
         23    2    1    2    0    0  0.35910924944E+02 -0.10977456689E+01  0.12611327131E+03  0.16075655451E+03  0.92990929876E+02 0.  0.
        -13    1    4    4    0    0  0.40684598418E+02  0.40672432449E+02  0.76729664788E+02  0.95900656579E+02  0.10566000000E+00 0. -1.
         13    1    4    4    0    0 -0.47736734738E+01 -0.41770178118E+02  0.49383606525E+02  0.64855897926E+02  0.10566000000E+00 0.  1.
    9000005    1    3    3    0    0 -0.55638540219E+02 -0.36814378652E+02  0.65510318457E+02  0.93506938018E+02  0.10000000000E+01 0.  0.
    9000005    1    3    3    0    0  0.19727615275E+02  0.37912124320E+02 -0.16020668177E+02  0.45652708395E+02  0.10000000000E+01 0.  0.
<mgrwt>
<rscale>  0 0.12169602E+03</rscale>
<asrwt>0</asrwt>
<pdfrwt beam="1">  1        2 0.36578395E-01 0.13006222E+03</pdfrwt>
<pdfrwt beam="2">  1       -2 0.95625597E-02 0.13006222E+03</pdfrwt>
<totfact> 0.94631633E+03</totfact>
</mgrwt>
</event>
<event>
 8    3  0.1559595E-003  0.1270553E+03  0.7818608E-02  0.1243121E+00
         -2   -1    0    0    0  501 -0.00000000000E+00  0.00000000000E+00  0.47228444025E+02  0.47228444094E+02  0.25500000000E-02 0.  1.
          2   -1    0    0  501    0  0.00000000000E+00 -0.00000000000E+00 -0.29045514212E+03  0.29045514213E+03  0.25500000000E-02 0. -1.
         25    2    1    2    0    0  0.21537664612E+02  0.73016589098E+01 -0.96595679522E+02  0.15960505860E+03  0.12500345679E+03 0.  0.
         23    2    1    2    0    0 -0.21537664612E+02 -0.73016589098E+01 -0.14663101857E+03  0.17807852762E+03  0.98458728271E+02 0.  0.
        -13    1    4    4    0    0 -0.24020619888E+02  0.87994998777E+01 -0.15680026500E+03  0.15887339502E+03  0.10566000000E+00 0. -1.
         13    1    4    4    0    0  0.24829552753E+01 -0.16101158788E+02  0.10169246429E+02  0.19205132599E+02  0.10566000000E+00 0.  1.
    9000005    1    3    3    0    0 -0.46881724411E+00  0.43158233759E+02 -0.10774298621E+03  0.11607068540E+03  0.10000000000E+01 0.  0.
    9000005    1    3    3    0    0  0.22006481857E+02 -0.35856574849E+02  0.11147306692E+02  0.43534373202E+02  0.10000000000E+01 0.  0.
<mgrwt>
<rscale>  0 0.11998577E+03</rscale>
<asrwt>0</asrwt>
<pdfrwt beam="2">  1        2 0.44685405E-01 0.12705530E+03</pdfrwt>
<pdfrwt beam="1">  1       -2 0.72659146E-02 0.12705530E+03</pdfrwt>
<totfact> 0.11682030E+04</totfact>
</mgrwt>
</event>
<event>
 8    3  0.1559595E-003  0.1483850E+03  0.7818608E-02  0.1211912E+00
         -2   -1    0    0    0  501 -0.00000000000E+00  0.00000000000E+00  0.52352085203E+02  0.52352085265E+02  0.25500000000E-02 0.  1.
          2   -1    0    0  501    0  0.00000000000E+00 -0.00000000000E+00 -0.34810426487E+03  0.34810426488E+03  0.25500000000E-02 0. -1.
         25    2    1    2    0    0 -0.50566263798E+02 -0.61942644683E+02 -0.15154010572E+03  0.21209080868E+03  0.12499707686E+03 0.  0.
         23    2    1    2    0    0  0.50566263798E+02  0.61942644683E+02 -0.14421207395E+03  0.18836554146E+03  0.91052823523E+02 0.  0.
        -13    1    4    4    0    0  0.74467055218E+01  0.21221337447E+01 -0.10416313249E+03  0.10445059219E+03  0.10566000000E+00 0. -1.
         13    1    4    4    0    0  0.43119558277E+02  0.59820510939E+02 -0.40048941461E+02  0.83914949271E+02  0.10566000000E+00 0.  1.
    9000005    1    3    3    0    0 -0.81971795285E+02 -0.43061497037E+02 -0.52415825290E+02  0.10640529352E+03  0.10000000000E+01 0.  0.
    9000005    1    3    3    0    0  0.31405531486E+02 -0.18881147646E+02 -0.99124280427E+02  0.10568551516E+03  0.10000000000E+01 0.  0.
<mgrwt>
<rscale>  0 0.14105865E+03</rscale>
<asrwt>0</asrwt>
<pdfrwt beam="2">  1        2 0.53554501E-01 0.14838500E+03</pdfrwt>
<pdfrwt beam="1">  1       -2 0.80541672E-02 0.14838500E+03</pdfrwt>
<totfact> 0.83211421E+03</totfact>
</mgrwt>
</event>
<event>
 8    3  0.1559595E-003  0.1542840E+03  0.7818608E-02  0.1204147E+00
         -2   -1    0    0    0  501 -0.00000000000E+00  0.00000000000E+00  0.25622375981E+02  0.25622376108E+02  0.25500000000E-02 0.  1.
          2   -1    0    0  501    0  0.00000000000E+00 -0.00000000000E+00 -0.94525235527E+03  0.94525235528E+03  0.25500000000E-02 0. -1.
         25    2    1    2    0    0  0.80073176558E+02 -0.42024987777E+02 -0.70187278983E+03  0.71862992255E+03  0.12500295711E+03 0.  0.
         23    2    1    2    0    0 -0.80073176558E+02  0.42024987777E+02 -0.21775718946E+03  0.25224480883E+03  0.89618283943E+02 0.  0.
        -13    1    4    4    0    0 -0.54686197240E+02  0.17373966004E+02 -0.37499780938E+02  0.68546915304E+02  0.10566000000E+00 0.  1.
         13    1    4    4    0    0 -0.25386979318E+02  0.24651021773E+02 -0.18025740853E+03  0.18369789353E+03  0.10566000000E+00 0. -1.
    9000005    1    3    3    0    0  0.73447134283E+02 -0.80974570687E+02 -0.41981841198E+03  0.43382007984E+03  0.10000000000E+01 0.  0.
    9000005    1    3    3    0    0  0.66260422748E+01  0.38949582910E+02 -0.28205437785E+03  0.28480984272E+03  0.10000000000E+01 0.  0.
<mgrwt>
<rscale>  0 0.14704865E+03</rscale>
<asrwt>0</asrwt>
<pdfrwt beam="2">  1        2 0.14542341E+00 0.15428400E+03</pdfrwt>
<pdfrwt beam="1">  1       -2 0.39419047E-02 0.15428400E+03</pdfrwt>
<totfact> 0.77731442E+03</totfact>
</mgrwt>
</event>
<event>
 8    3  0.1559595E-003  0.1358554E+03  0.7818608E-02  0.1234216E+00
          2   -1    0    0  501    0  0.00000000000E+00  0.00000000000E+00  0.77746168182E+03  0.77746168183E+03  0.25500000000E-02 0. -1.
         -2   -1    0    0    0  501 -0.00000000000E+00 -0.00000000000E+00 -0.18348335331E+02  0.18348335509E+02  0.25500000000E-02 0.  1.
         25    2    1    2    0    0  0.37232265196E+02  0.38042309270E+02  0.36596217578E+03  0.39036520970E+03  0.12499289570E+03 0.  0.
         23    2    1    2    0    0 -0.37232265196E+02 -0.38042309270E+02  0.39315117071E+03  0.40544480764E+03  0.83571467266E+02 0.  0.
        -13    1    4    4    0    0 -0.44683047295E+02 -0.55367778006E+02  0.36280363176E+03  0.36971428420E+03  0.10566000000E+00 0. -1.
         13    1    4    4    0    0  0.74507820991E+01  0.17325468735E+02  0.30347538950E+02  0.35730523438E+02  0.10566000000E+00 0.  1.
    9000005    1    3    3    0    0  0.25545120480E+02  0.67370669249E+02  0.34502475932E+03  0.35246906928E+03  0.10000000000E+01 0.  0.
    9000005    1    3    3    0    0  0.11687144716E+02 -0.29328359979E+02  0.20937416460E+02  0.37896140419E+02  0.10000000000E+01 0.  0.
<mgrwt>
<rscale>  0 0.12554764E+03</rscale>
<asrwt>0</asrwt>
<pdfrwt beam="1">  1        2 0.11960945E+00 0.13585537E+03</pdfrwt>
<pdfrwt beam="2">  1       -2 0.28228219E-02 0.13585537E+03</pdfrwt>
<totfact> 0.16240023E+04</totfact>
</mgrwt>
</event>
<event>
 8    3  0.1559595E-003  0.1351202E+03  0.7818608E-02  0.1231980E+00
          2   -1    0    0  501    0  0.00000000000E+00  0.00000000000E+00  0.19402567074E+03  0.19402567076E+03  0.25500000000E-02 0. -1.
         -2   -1    0    0    0  501 -0.00000000000E+00 -0.00000000000E+00 -0.75231349167E+02  0.75231349210E+02  0.25500000000E-02 0.  1.
         25    2    1    2    0    0 -0.38741531068E+02 -0.33630087057E+02  0.54090930073E+02  0.14554483881E+03  0.12500232959E+03 0.  0.
         23    2    1    2    0    0  0.38741531068E+02  0.33630087057E+02  0.64703391505E+02  0.12371218116E+03  0.92121039460E+02 0.  0.
        -13    1    4    4    0    0  0.46411048740E+02  0.46080960925E+02  0.88766673068E+01  0.66001869606E+02  0.10566000000E+00 0.  1.
         13    1    4    4    0    0 -0.76695176722E+01 -0.12450873868E+02  0.55826724198E+02  0.57710311558E+02  0.10566000000E+00 0. -1.
    9000005    1    3    3    0    0  0.27193326807E+02  0.18542769194E+02  0.51858139665E+02  0.61429455164E+02  0.10000000000E+01 0.  0.
    9000005    1    3    3    0    0 -0.65934857876E+02 -0.52172856252E+02  0.22327904086E+01  0.84115383644E+02  0.10000000000E+01 0.  0.
<mgrwt>
<rscale>  0 0.12699728E+03</rscale>
<asrwt>0</asrwt>
<pdfrwt beam="1">  1        2 0.29850103E-01 0.13512021E+03</pdfrwt>
<pdfrwt beam="2">  1       -2 0.11574054E-01 0.13512021E+03</pdfrwt>
<totfact> 0.87374391E+03</totfact>
</mgrwt>
</event>
<event>
 8    3  0.1559595E-003  0.2259192E+03  0.7818608E-02  0.1132491E+00
          2   -1    0    0  501    0  0.00000000000E+00  0.00000000000E+00  0.37620574792E+03  0.37620574793E+03  0.25500000000E-02 0. -1.
         -2   -1    0    0    0  501 -0.00000000000E+00 -0.00000000000E+00 -0.21710559307E+03  0.21710559309E+03  0.25500000000E-02 0.  1.
         25    2    1    2    0    0  0.13480375824E+03 -0.13130877942E+03  0.27291591983E+03  0.35429167027E+03  0.12500175814E+03 0.  0.
         23    2    1    2    0    0 -0.13480375824E+03  0.13130877942E+03 -0.11381576498E+03  0.23901967074E+03  0.93607295943E+02 0.  0.
        -13    1    4    4    0    0 -0.16128679603E+02  0.31234974897E+02  0.14094690315E+02  0.37873861985E+02  0.10566000000E+00 0. -1.
         13    1    4    4    0    0 -0.11867507864E+03  0.10007380453E+03 -0.12791045530E+03  0.20114580876E+03  0.10566000000E+00 0.  1.
    9000005    1    3    3    0    0  0.10143274768E+03 -0.61617111194E+02  0.24481086548E+03  0.27206365165E+03  0.10000000000E+01 0.  0.
    9000005    1    3    3    0    0  0.33371010564E+02 -0.69691668229E+02  0.28105054357E+02  0.82228018626E+02  0.10000000000E+01 0.  0.
<mgrwt>
<rscale>  0 0.22187769E+03</rscale>
<asrwt>0</asrwt>
<pdfrwt beam="1">  1        2 0.57877808E-01 0.22591921E+03</pdfrwt>
<pdfrwt beam="2">  1       -2 0.33400860E-01 0.22591921E+03</pdfrwt>
<totfact> 0.71781073E+02</totfact>
</mgrwt>
</event>
<event>
 8    3  0.1559595E-003  0.1671153E+03  0.7818608E-02  0.1186674E+00
         -2   -1    0    0    0  501 -0.00000000000E+00  0.00000000000E+00  0.25571586026E+03  0.25571586028E+03  0.25500000000E-02 0.  1.
          2   -1    0    0  501    0  0.00000000000E+00 -0.00000000000E+00 -0.96392119486E+02  0.96392119520E+02  0.25500000000E-02 0. -1.
         25    2    1    2    0    0  0.82758851398E+02  0.73812603277E+02  0.86740321814E+02  0.18828545457E+03  0.12502080261E+03 0.  0.
         23    2    1    2    0    0 -0.82758851398E+02 -0.73812603277E+02  0.72583418965E+02  0.16382252523E+03  0.96291947626E+02 0.  0.
        -13    1    4    4    0    0 -0.57718465576E+02  0.23674156207E+01  0.33224088210E+01  0.57862556888E+02  0.10566000000E+00 0. -1.
         13    1    4    4    0    0 -0.25040385822E+02 -0.76180018898E+02  0.69261010144E+02  0.10595996834E+03  0.10566000000E+00 0.  1.
    9000005    1    3    3    0    0  0.30087343273E+02  0.10138062727E+03  0.68855018478E+02  0.12619545706E+03  0.10000000000E+01 0.  0.
    9000005    1    3    3    0    0  0.52671508125E+02 -0.27568023998E+02  0.17885303336E+02  0.62089997510E+02  0.10000000000E+01 0.  0.
<mgrwt>
<rscale>  0 0.16180507E+03</rscale>
<asrwt>0</asrwt>
<pdfrwt beam="2">  1        2 0.14829557E-01 0.16711532E+03</pdfrwt>
<pdfrwt beam="1">  1       -2 0.39340901E-01 0.16711532E+03</pdfrwt>
<totfact> 0.23722533E+03</totfact>
</mgrwt>
</event>
<event>
 8    3  0.1559595E-003  0.1463245E+03  0.7818608E-02  0.1214967E+00
          2   -1    0    0  501    0  0.00000000000E+00  0.00000000000E+00  0.11427733990E+04  0.11427733990E+04  0.25500000000E-02 0. -1.
         -2   -1    0    0    0  501 -0.00000000000E+00 -0.00000000000E+00 -0.15632677047E+02  0.15632677255E+02  0.25500000000E-02 0.  1.
         25    2    1    2    0    0  0.30648784121E+01  0.76034610896E+02  0.70132187999E+03  0.71642391433E+03  0.12498075903E+03 0.  0.
         23    2    1    2    0    0 -0.30648784121E+01 -0.76034610896E+02  0.42581884198E+03  0.44198216195E+03  0.90751803097E+02 0.  0.
        -13    1    4    4    0    0  0.21986366614E+02  0.12212686329E+02  0.12423657814E+03  0.12675680864E+03  0.10566000000E+00 0. -1.
         13    1    4    4    0    0 -0.25051245026E+02 -0.88247297225E+02  0.30158226383E+03  0.31522535331E+03  0.10566000000E+00 0.  1.
    9000005    1    3    3    0    0  0.30086372156E+02  0.27750621465E+02  0.59638706946E+03  0.59779078564E+03  0.10000000000E+01 0.  0.
    9000005    1    3    3    0    0 -0.27021493744E+02  0.48283989431E+02  0.10493481054E+03  0.11863312869E+03  0.10000000000E+01 0.  0.
<mgrwt>
<rscale>  0 0.13878947E+03</rscale>
<asrwt>0</asrwt>
<pdfrwt beam="1">  1        2 0.17581124E+00 0.14632445E+03</pdfrwt>
<pdfrwt beam="2">  1       -2 0.24050280E-02 0.14632445E+03</pdfrwt>
<totfact> 0.12290750E+04</totfact>
</mgrwt>
</event>
<event>
 8    3  0.1559595E-003  0.1256818E+03  0.7818608E-02  0.1249443E+00
         -2   -1    0    0    0  501 -0.00000000000E+00  0.00000000000E+00  0.96343187166E+01  0.96343190540E+01  0.25500000000E-02 0. -1.
          2   -1    0    0  501    0  0.00000000000E+00 -0.00000000000E+00 -0.13641871381E+04  0.13641871381E+04  0.25500000000E-02 0.  1.
         25    2    1    2    0    0 -0.13088442426E+02 -0.23763484691E-01 -0.98581025108E+03  0.99378960070E+03  0.12499844571E+03 0.  0.
         23    2    1    2    0    0  0.13088442426E+02  0.23763484691E-01 -0.36874256828E+03  0.38003185644E+03  0.91004518321E+02 0.  0.
        -13    1    4    4    0    0  0.75705437936E+01  0.24346393608E+02 -0.34385091523E+03  0.34479490003E+03  0.10566000000E+00 0.  1.
         13    1    4    4    0    0  0.55178986325E+01 -0.24322630123E+02 -0.24891653048E+02  0.35236956408E+02  0.10566000000E+00 0. -1.
    9000005    1    3    3    0    0  0.46189180279E+02  0.16813041064E+02 -0.21638188082E+03  0.22189690641E+03  0.10000000000E+01 0.  0.
    9000005    1    3    3    0    0 -0.59277622705E+02 -0.16836804549E+02 -0.76942837026E+03  0.77189269429E+03  0.10000000000E+01 0.  0.
<mgrwt>
<rscale>  0 0.11623356E+03</rscale>
<asrwt>0</asrwt>
<pdfrwt beam="2">  1        2 0.20987479E+00 0.12568182E+03</pdfrwt>
<pdfrwt beam="1">  1       -2 0.14822040E-02 0.12568182E+03</pdfrwt>
<totfact> 0.18601393E+04</totfact>
</mgrwt>
</event>
<event>
 8    3  0.1559595E-003  0.1763670E+03  0.7818608E-02  0.1176328E+00
          2   -1    0    0  501    0  0.00000000000E+00  0.00000000000E+00  0.12655236837E+04  0.12655236837E+04  0.25500000000E-02 0. -1.
         -2   -1    0    0    0  501 -0.00000000000E+00 -0.00000000000E+00 -0.33029400170E+02  0.33029400269E+02  0.25500000000E-02 0.  1.
         25    2    1    2    0    0  0.11688853029E+03  0.42624004707E+02  0.10137079390E+04  0.10289359036E+04  0.12500229474E+03 0.  0.
         23    2    1    2    0    0 -0.11688853029E+03 -0.42624004707E+02  0.21878634450E+03  0.26961718041E+03  0.96675876734E+02 0.  0.
        -13    1    4    4    0    0 -0.65568618788E+02 -0.10407831627E+02  0.32880938986E+02  0.74085990859E+02  0.10566000000E+00 0.  1.
         13    1    4    4    0    0 -0.51319911507E+02 -0.32216173080E+02  0.18590540551E+03  0.19553118955E+03  0.10566000000E+00 0. -1.
    9000005    1    3    3    0    0  0.65740706134E+02 -0.19991013076E+02  0.20533605492E+03  0.21653031311E+03  0.10000000000E+01 0.  0.
    9000005    1    3    3    0    0  0.51147824161E+02  0.62615017783E+02  0.80837188411E+03  0.81240559045E+03  0.10000000000E+01 0.  0.
<mgrwt>
<rscale>  0 0.17146528E+03</rscale>
<asrwt>0</asrwt>
<pdfrwt beam="1">  1        2 0.19469594E+00 0.17636697E+03</pdfrwt>
<pdfrwt beam="2">  1       -2 0.50814464E-02 0.17636697E+03</pdfrwt>
<totfact> 0.34800958E+03</totfact>
</mgrwt>
</event>
<event>
 8    3  0.1559595E-003  0.1365741E+03  0.7818608E-02  0.1229544E+00
          2   -1    0    0  501    0  0.00000000000E+00  0.00000000000E+00  0.15021030669E+04  0.15021030669E+04  0.25500000000E-02 0. -1.
         -2   -1    0    0    0  501 -0.00000000000E+00 -0.00000000000E+00 -0.10581975800E+02  0.10581976107E+02  0.25500000000E-02 0.  1.
         25    2    1    2    0    0  0.10487345530E+02 -0.54013404194E+02  0.63922180388E+03  0.65364897862E+03  0.12500016177E+03 0.  0.
         23    2    1    2    0    0 -0.10487345530E+02  0.54013404194E+02  0.85229928723E+03  0.85903606440E+03  0.92203322507E+02 0.  0.
        -13    1    4    4    0    0 -0.47046608095E+02  0.44737520280E+02  0.40735595462E+03  0.41249692603E+03  0.10566000000E+00 0.  1.
         13    1    4    4    0    0  0.36559262565E+02  0.92758839134E+01  0.44494333261E+03  0.44653913837E+03  0.10566000000E+00 0. -1.
    9000005    1    3    3    0    0 -0.55021464167E+02 -0.21270340267E+02  0.36855884528E+03  0.37325113707E+03  0.10000000000E+01 0.  0.
    9000005    1    3    3    0    0  0.65508809697E+02 -0.32743063926E+02  0.27066295860E+03  0.28039784154E+03  0.10000000000E+01 0.  0.
<mgrwt>
<rscale>  0 0.12860255E+03</rscale>
<asrwt>0</asrwt>
<pdfrwt beam="1">  1        2 0.23109256E+00 0.13657406E+03</pdfrwt>
<pdfrwt beam="2">  1       -2 0.16279978E-02 0.13657406E+03</pdfrwt>
<totfact> 0.13818404E+04</totfact>
</mgrwt>
</event>
<event>
 8    3  0.1559595E-003  0.1372454E+03  0.7818608E-02  0.1229006E+00
          2   -1    0    0  501    0  0.00000000000E+00  0.00000000000E+00  0.13651738841E+04  0.13651738841E+04  0.25500000000E-02 0. -1.
         -2   -1    0    0    0  501 -0.00000000000E+00 -0.00000000000E+00 -0.11084456126E+02  0.11084456419E+02  0.25500000000E-02 0.  1.
         25    2    1    2    0    0 -0.45518175571E+02 -0.33760927972E+02  0.84199996388E+03  0.85311209149E+03  0.12499838762E+03 0.  0.
         23    2    1    2    0    0  0.45518175571E+02  0.33760927972E+02  0.51208946405E+03  0.52314624899E+03  0.90745104960E+02 0.  0.
        -13    1    4    4    0    0  0.92732774449E+01  0.55634697431E+01  0.20051348865E+01  0.10998981776E+02  0.10566000000E+00 0.  1.
         13    1    4    4    0    0  0.36244898126E+02  0.28197458229E+02  0.51008432916E+03  0.51214726721E+03  0.10566000000E+00 0. -1.
    9000005    1    3    3    0    0 -0.26947681848E+02 -0.80731615588E+02  0.58893901579E+03  0.59505792629E+03  0.10000000000E+01 0.  0.
    9000005    1    3    3    0    0 -0.18570493722E+02  0.46970687617E+02  0.25306094809E+03  0.25805416520E+03  0.10000000000E+01 0.  0.
<mgrwt>
<rscale>  0 0.12896055E+03</rscale>
<asrwt>0</asrwt>
<pdfrwt beam="1">  1        2 0.21002663E+00 0.13724541E+03</pdfrwt>
<pdfrwt beam="2">  1       -2 0.17053019E-02 0.13724541E+03</pdfrwt>
<totfact> 0.15257168E+04</totfact>
</mgrwt>
</event>
<event>
 8    3  0.1559595E-003  0.1655361E+03  0.7818608E-02  0.1189681E+00
         -2   -1    0    0    0  501 -0.00000000000E+00  0.00000000000E+00  0.25612460980E+03  0.25612460982E+03  0.25500000000E-02 0.  1.
          2   -1    0    0  501    0  0.00000000000E+00 -0.00000000000E+00 -0.92149547780E+02  0.92149547815E+02  0.25500000000E-02 0. -1.
         25    2    1    2    0    0 -0.10373677145E+03  0.31873230344E+02  0.80098310682E+02  0.18389653865E+03  0.12499990796E+03 0.  0.
         23    2    1    2    0    0  0.10373677145E+03 -0.31873230344E+02  0.83876751341E+02  0.16437761898E+03  0.90595097242E+02 0.  0.
        -13    1    4    4    0    0  0.42855603740E+02 -0.13178622473E+02  0.89845502291E+02  0.10041167416E+03  0.10566000000E+00 0.  1.
         13    1    4    4    0    0  0.60881167708E+02 -0.18694607871E+02 -0.59687509495E+01  0.63965944822E+02  0.10566000000E+00 0. -1.
    9000005    1    3    3    0    0 -0.29177978815E+02 -0.17238715112E+02 -0.27801126796E+02  0.43845528821E+02  0.10000000000E+01 0.  0.
    9000005    1    3    3    0    0 -0.74558792633E+02  0.49111945456E+02  0.10789943748E+03  0.14005100983E+03  0.10000000000E+01 0.  0.
<mgrwt>
<rscale>  0 0.15913170E+03</rscale>
<asrwt>0</asrwt>
<pdfrwt beam="2">  1        2 0.14176854E-01 0.16553609E+03</pdfrwt>
<pdfrwt beam="1">  1       -2 0.39403786E-01 0.16553609E+03</pdfrwt>
<totfact> 0.24932500E+03</totfact>
</mgrwt>
</event>
<event>
 8    3  0.1559595E-003  0.1359312E+03  0.7818608E-02  0.1231249E+00
          2   -1    0    0  501    0  0.00000000000E+00  0.00000000000E+00  0.21001618641E+04  0.21001618641E+04  0.25500000000E-02 0. -1.
         -2   -1    0    0    0  501 -0.00000000000E+00 -0.00000000000E+00 -0.73661016015E+01  0.73661020429E+01  0.25500000000E-02 0.  1.
         25    2    1    2    0    0  0.30712526173E+02  0.43681393911E+02  0.91397584013E+03  0.92402875198E+03  0.12500389877E+03 0.  0.
         23    2    1    2    0    0 -0.30712526173E+02 -0.43681393911E+02  0.11788199223E+04  0.11834992141E+04  0.90568521655E+02 0.  0.
        -13    1    4    4    0    0  0.48475475360E+01 -0.51930859058E+02  0.34890486939E+03  0.35278170572E+03  0.10566000000E+00 0.  1.
         13    1    4    4    0    0 -0.35560073709E+02  0.82494651473E+01  0.82991505294E+03  0.83071750841E+03  0.10566000000E+00 0. -1.
    9000005    1    3    3    0    0  0.62173525744E+02  0.67694099982E+02  0.51930875810E+03  0.52738091046E+03  0.10000000000E+01 0.  0.
    9000005    1    3    3    0    0 -0.31460999571E+02 -0.24012706071E+02  0.39466708203E+03  0.39664784152E+03  0.10000000000E+01 0.  0.
<mgrwt>
<rscale>  0 0.12747624E+03</rscale>
<asrwt>0</asrwt>
<pdfrwt beam="1">  1        2 0.32310234E+00 0.13593123E+03</pdfrwt>
<pdfrwt beam="2">  1       -2 0.11332446E-02 0.13593123E+03</pdfrwt>
<totfact> 0.11480178E+04</totfact>
</mgrwt>
</event>
<event>
 8    3  0.1559595E-003  0.2024156E+03  0.7818608E-02  0.1151576E+00
         -2   -1    0    0    0  501 -0.00000000000E+00  0.00000000000E+00  0.63374110324E+02  0.63374110376E+02  0.25500000000E-02 0.  1.
          2   -1    0    0  501    0  0.00000000000E+00 -0.00000000000E+00 -0.60959398186E+03  0.60959398187E+03  0.25500000000E-02 0. -1.
         25    2    1    2    0    0  0.43856927726E+02 -0.15303500257E+03 -0.22685104533E+03  0.30402871969E+03  0.12501569304E+03 0.  0.
         23    2    1    2    0    0 -0.43856927726E+02  0.15303500257E+03 -0.31936882621E+03  0.36893937255E+03  0.93683890535E+02 0.  0.
        -13    1    4    4    0    0 -0.29850535145E+02  0.62753214906E+02 -0.23326922271E+03  0.24340000381E+03  0.10566000000E+00 0. -1.
         13    1    4    4    0    0 -0.14006392581E+02  0.90281787666E+02 -0.86099603502E+02  0.12553936874E+03  0.10566000000E+00 0.  1.
    9000005    1    3    3    0    0  0.73889664452E+02 -0.70631873216E+02 -0.17347521078E+03  0.20135340271E+03  0.10000000000E+01 0.  0.
    9000005    1    3    3    0    0 -0.30032736726E+02 -0.82403129357E+02 -0.53375834546E+02  0.10267531698E+03  0.10000000000E+01 0.  0.
<mgrwt>
<rscale>  0 0.19783757E+03</rscale>
<asrwt>0</asrwt>
<pdfrwt beam="2">  1        2 0.93783686E-01 0.20241558E+03</pdfrwt>
<pdfrwt beam="1">  1       -2 0.97498635E-02 0.20241558E+03</pdfrwt>
<totfact> 0.33816956E+03</totfact>
</mgrwt>
</event>
<event>
 8    3  0.1559595E-003  0.1344876E+03  0.7818608E-02  0.1231806E+00
         -2   -1    0    0    0  501 -0.00000000000E+00  0.00000000000E+00  0.10124466483E+03  0.10124466486E+03  0.25500000000E-02 0.  1.
          2   -1    0    0  501    0  0.00000000000E+00 -0.00000000000E+00 -0.22689348619E+03  0.22689348620E+03  0.25500000000E-02 0. -1.
         25    2    1    2    0    0  0.36965562502E+02 -0.33102588341E+02 -0.16585693997E+03  0.21353090503E+03  0.12499875479E+03 0.  0.
         23    2    1    2    0    0 -0.36965562502E+02  0.33102588341E+02  0.40208118616E+02  0.11460724603E+03  0.95162460422E+02 0.  0.
        -13    1    4    4    0    0 -0.55682393681E+02  0.49015320708E+02  0.48555734760E+02  0.88660595375E+02  0.10566000000E+00 0.  1.
         13    1    4    4    0    0  0.18716831180E+02 -0.15912732367E+02 -0.83476161439E+01  0.25946650653E+02  0.10566000000E+00 0. -1.
    9000005    1    3    3    0    0  0.56159799686E+02 -0.64830779951E+02 -0.69897630740E+02  0.11065094628E+03  0.10000000000E+01 0.  0.
    9000005    1    3    3    0    0 -0.19194237185E+02  0.31728191610E+02 -0.95959309233E+02  0.10287995875E+03  0.10000000000E+01 0.  0.
<mgrwt>
<rscale>  0 0.12711140E+03</rscale>
<asrwt>0</asrwt>
<pdfrwt beam="2">  1        2 0.34906690E-01 0.13448763E+03</pdfrwt>
<pdfrwt beam="1">  1       -2 0.15576102E-01 0.13448763E+03</pdfrwt>
<totfact> 0.45686918E+03</totfact>
</mgrwt>
</event>
<event>
 8    3  0.1559595E-003  0.1669713E+03  0.7818608E-02  0.1188014E+00
         -2   -1    0    0    0  501 -0.00000000000E+00  0.00000000000E+00  0.40434922022E+03  0.40434922023E+03  0.25500000000E-02 0.  1.
          2   -1    0    0  501    0  0.00000000000E+00 -0.00000000000E+00 -0.15128252159E+03  0.15128252161E+03  0.25500000000E-02 0. -1.
         25    2    1    2    0    0 -0.34182910635E+02  0.10529122800E+03 -0.85893450698E+02  0.18776874013E+03  0.12499880329E+03 0.  0.
         23    2    1    2    0    0  0.34182910635E+02 -0.10529122800E+03  0.33896014933E+03  0.36786300171E+03  0.90412892453E+02 0.  0.
        -13    1    4    4    0    0  0.37717705050E+02 -0.10072892768E+03  0.34386107843E+03  0.36029070841E+03  0.10566000000E+00 0.  1.
         13    1    4    4    0    0 -0.35347944150E+01 -0.45623003186E+01 -0.49009290987E+01  0.75722932999E+01  0.10566000000E+00 0. -1.
    9000005    1    3    3    0    0 -0.67825793480E+02  0.32358445371E+02 -0.75918686098E+02  0.10682721632E+03  0.10000000000E+01 0.  0.
    9000005    1    3    3    0    0  0.33642882845E+02  0.72932782628E+02 -0.99747646002E+01  0.80941523811E+02  0.10000000000E+01 0.  0.
<mgrwt>
<rscale>  0 0.16060638E+03</rscale>
<asrwt>0</asrwt>
<pdfrwt beam="2">  1        2 0.23274234E-01 0.16697130E+03</pdfrwt>
<pdfrwt beam="1">  1       -2 0.62207572E-01 0.16697130E+03</pdfrwt>
<totfact> 0.57003570E+02</totfact>
</mgrwt>
</event>
<event>
 8    3  0.1559595E-003  0.2302790E+03  0.7818608E-02  0.1129551E+00
         -2   -1    0    0    0  501 -0.00000000000E+00  0.00000000000E+00  0.85422512054E+02  0.85422512092E+02  0.25500000000E-02 0.  1.
          2   -1    0    0  501    0  0.00000000000E+00 -0.00000000000E+00 -0.64065392938E+03  0.64065392938E+03  0.25500000000E-02 0. -1.
         25    2    1    2    0    0 -0.15128881607E+03  0.12048302185E+03 -0.17178298304E+03  0.28729393054E+03  0.12499577929E+03 0.  0.
         23    2    1    2    0    0  0.15128881607E+03 -0.12048302185E+03 -0.38344843428E+03  0.43878251094E+03  0.89960689916E+02 0.  0.
        -13    1    4    4    0    0  0.15030655770E+03 -0.94725080144E+02 -0.27564886118E+03  0.32794390973E+03  0.10566000000E+00 0.  1.
         13    1    4    4    0    0  0.98225836670E+00 -0.25757941705E+02 -0.10779957310E+03  0.11083860120E+03  0.10566000000E+00 0. -1.
    9000005    1    3    3    0    0 -0.11846470555E+03  0.13115186153E+03 -0.17950915719E+03  0.25191116442E+03  0.10000000000E+01 0.  0.
    9000005    1    3    3    0    0 -0.32824110520E+02 -0.10668839682E+02  0.77261741449E+01  0.35382766123E+02  0.10000000000E+01 0.  0.
<mgrwt>
<rscale>  0 0.22591186E+03</rscale>
<asrwt>0</asrwt>
<pdfrwt beam="2">  1        2 0.98562140E-01 0.23027898E+03</pdfrwt>
<pdfrwt beam="1">  1       -2 0.13141925E-01 0.23027898E+03</pdfrwt>
<totfact> 0.19816268E+03</totfact>
</mgrwt>
</event>
<event>
 8    3  0.1559595E-003  0.1251542E+03  0.7818608E-02  0.1253668E+00
         -2   -1    0    0    0  501 -0.00000000000E+00  0.00000000000E+00  0.70012709862E+01  0.70012714506E+01  0.25500000000E-02 0.  1.
          2   -1    0    0  501    0  0.00000000000E+00 -0.00000000000E+00 -0.18885843910E+04  0.18885843910E+04  0.25500000000E-02 0. -1.
         25    2    1    2    0    0  0.59762396925E+01 -0.16899074191E+01 -0.71532335163E+03  0.72618941478E+03  0.12499999012E+03 0.  0.
         23    2    1    2    0    0 -0.59762396925E+01  0.16899074191E+01 -0.11662597684E+04  0.11693962477E+04  0.85364896062E+02 0.  0.
        -13    1    4    4    0    0 -0.33980225725E+02  0.26519264502E+02 -0.42189440629E+03  0.42409058980E+03  0.10566000000E+00 0.  1.
         13    1    4    4    0    0  0.28003986033E+02 -0.24829357083E+02 -0.74436536209E+03  0.74530565787E+03  0.10566000000E+00 0. -1.
    9000005    1    3    3    0    0 -0.19634889001E+02  0.25385785580E+02 -0.47547664906E+02  0.57373751957E+02  0.10000000000E+01 0.  0.
    9000005    1    3    3    0    0  0.25611128693E+02 -0.27075693000E+02 -0.66777568672E+03  0.66881566282E+03  0.10000000000E+01 0.  0.
<mgrwt>
<rscale>  0 0.11381262E+03</rscale>
<asrwt>0</asrwt>
<pdfrwt beam="2">  1        2 0.29055104E+00 0.12515418E+03</pdfrwt>
<pdfrwt beam="1">  1       -2 0.10771202E-02 0.12515418E+03</pdfrwt>
<totfact> 0.15785307E+04</totfact>
</mgrwt>
</event>
<event>
 8    3  0.1559595E-003  0.1336796E+03  0.7818608E-02  0.1234917E+00
          2   -1    0    0  501    0  0.00000000000E+00  0.00000000000E+00  0.13982824959E+04  0.13982824959E+04  0.25500000000E-02 0. -1.
         -2   -1    0    0    0  501 -0.00000000000E+00 -0.00000000000E+00 -0.10003926172E+02  0.10003926497E+02  0.25500000000E-02 0.  1.
         25    2    1    2    0    0  0.33043235373E+02 -0.34006271348E+02  0.74760539103E+03  0.75946300739E+03  0.12498782743E+03 0.  0.
         23    2    1    2    0    0 -0.33043235373E+02  0.34006271348E+02  0.64067317872E+03  0.64882341502E+03  0.90892354251E+02 0.  0.
        -13    1    4    4    0    0 -0.14544297971E+02 -0.30476599232E+02  0.16288196141E+03  0.16634573701E+03  0.10566000000E+00 0. -1.
         13    1    4    4    0    0 -0.18498937403E+02  0.64482870580E+02  0.47779121731E+03  0.48247767802E+03  0.10566000000E+00 0.  1.
    9000005    1    3    3    0    0  0.72320033004E+02 -0.41015739203E+02  0.62546780241E+03  0.63097024485E+03  0.10000000000E+01 0.  0.
    9000005    1    3    3    0    0 -0.39276797631E+02  0.70094678554E+01  0.12213758862E+03  0.12849276254E+03  0.10000000000E+01 0.  0.
<mgrwt>
<rscale>  0 0.12509723E+03</rscale>
<asrwt>0</asrwt>
<pdfrwt beam="1">  1        2 0.21512050E+00 0.13367961E+03</pdfrwt>
<pdfrwt beam="2">  1       -2 0.15390648E-02 0.13367961E+03</pdfrwt>
<totfact> 0.16966757E+04</totfact>
</mgrwt>
</event>
<event>
 8    3  0.1559595E-003  0.1399963E+03  0.7818608E-02  0.1224316E+00
          2   -1    0    0  501    0  0.00000000000E+00  0.00000000000E+00  0.16431884274E+04  0.16431884274E+04  0.25500000000E-02 0. -1.
         -2   -1    0    0    0  501 -0.00000000000E+00 -0.00000000000E+00 -0.99134367278E+01  0.99134370558E+01  0.25500000000E-02 0.  1.
         25    2    1    2    0    0 -0.62387630165E+02 -0.90537958327E+01  0.10550262670E+04  0.10642741177E+04  0.12499914332E+03 0.  0.
         23    2    1    2    0    0  0.62387630165E+02  0.90537958327E+01  0.57824872365E+03  0.58882774679E+03  0.91500499244E+02 0.  0.
        -13    1    4    4    0    0 -0.17466679619E+02 -0.19166144882E+02  0.16032345715E+03  0.16240704444E+03  0.10566000000E+00 0. -1.
         13    1    4    4    0    0  0.79854309784E+02  0.28219940714E+02  0.41792526650E+03  0.42642070235E+03  0.10566000000E+00 0.  1.
    9000005    1    3    3    0    0 -0.12575535485E+02  0.41897331997E+01  0.70801764538E+01  0.15060772080E+02  0.10000000000E+01 0.  0.
    9000005    1    3    3    0    0 -0.49812094680E+02 -0.13243529032E+02  0.10479460906E+04  0.10492133456E+04  0.10000000000E+01 0.  0.
<mgrwt>
<rscale>  0 0.13213888E+03</rscale>
<asrwt>0</asrwt>
<pdfrwt beam="1">  1        2 0.25279807E+00 0.13999633E+03</pdfrwt>
<pdfrwt beam="2">  1       -2 0.15251450E-02 0.13999633E+03</pdfrwt>
<totfact> 0.12850196E+04</totfact>
</mgrwt>
</event>
<event>
 8    3  0.1559595E-003  0.1775138E+03  0.7818608E-02  0.1175001E+00
         -2   -1    0    0    0  501 -0.00000000000E+00  0.00000000000E+00  0.13207842851E+02  0.13207843097E+02  0.25500000000E-02 0.  1.
          2   -1    0    0  501    0  0.00000000000E+00 -0.00000000000E+00 -0.21622679163E+04  0.21622679163E+04  0.25500000000E-02 0. -1.
         25    2    1    2    0    0  0.43938013958E+02  0.11812709770E+03 -0.12249780332E+04  0.12377731295E+04  0.12500631174E+03 0.  0.
         23    2    1    2    0    0 -0.43938013958E+02 -0.11812709770E+03 -0.92408204021E+03  0.93770262987E+03  0.97334704751E+02 0.  0.
        -13    1    4    4    0    0 -0.57080134307E+02 -0.12968960856E+03 -0.81539497027E+03  0.82761494973E+03  0.10566000000E+00 0.  1.
         13    1    4    4    0    0  0.13142120349E+02  0.11562510853E+02 -0.10868706994E+03  0.11008768015E+03  0.10566000000E+00 0. -1.
    9000005    1    3    3    0    0  0.21043038791E+02  0.21603289016E+02 -0.48506220214E+02  0.57125869598E+02  0.10000000000E+01 0.  0.
    9000005    1    3    3    0    0  0.22894975167E+02  0.96523808687E+02 -0.11764718130E+04  0.11806472599E+04  0.10000000000E+01 0.  0.
<mgrwt>
<rscale>  0 0.17275861E+03</rscale>
<asrwt>0</asrwt>
<pdfrwt beam="2">  1        2 0.33265632E+00 0.17751377E+03</pdfrwt>
<pdfrwt beam="1">  1       -2 0.20319776E-02 0.17751377E+03</pdfrwt>
<totfact> 0.46007740E+03</totfact>
</mgrwt>
</event>
<event>
 8    3  0.1559595E-003  0.1250413E+03  0.7818608E-02  0.1251519E+00
          2   -1    0    0  501    0  0.00000000000E+00  0.00000000000E+00  0.86419679828E+03  0.86419679828E+03  0.25500000000E-02 0. -1.
         -2   -1    0    0    0  501 -0.00000000000E+00 -0.00000000000E+00 -0.13511545666E+02  0.13511545907E+02  0.25500000000E-02 0.  1.
         25    2    1    2    0    0 -0.16688110823E+00 -0.29718032408E+01  0.54566236626E+03  0.55980598785E+03  0.12500586635E+03 0.  0.
         23    2    1    2    0    0  0.16688110823E+00  0.29718032408E+01  0.30502288636E+03  0.31790235634E+03  0.89521435981E+02 0.  0.
        -13    1    4    4    0    0  0.27430428350E+01  0.45988451978E+02  0.17267895537E+03  0.17871903869E+03  0.10566000000E+00 0. -1.
         13    1    4    4    0    0 -0.25761617268E+01 -0.43016648737E+02  0.13234393099E+03  0.13918331765E+03  0.10566000000E+00 0.  1.
    9000005    1    3    3    0    0 -0.37919959203E+02 -0.44034833195E+02  0.39289129482E+03  0.39716691628E+03  0.10000000000E+01 0.  0.
    9000005    1    3    3    0    0  0.37753078094E+02  0.41063029954E+02  0.15277107144E+03  0.16263907158E+03  0.10000000000E+01 0.  0.
<mgrwt>
<rscale>  0 0.11503549E+03</rscale>
<asrwt>0</asrwt>
<pdfrwt beam="1">  1        2 0.13295341E+00 0.12504130E+03</pdfrwt>
<pdfrwt beam="2">  1       -2 0.20786985E-02 0.12504130E+03</pdfrwt>
<totfact> 0.22079132E+04</totfact>
</mgrwt>
</event>
<event>
 8    3  0.1559595E-003  0.1390270E+03  0.7818608E-02  0.1226368E+00
          2   -1    0    0  501    0  0.00000000000E+00  0.00000000000E+00  0.27476371077E+04  0.27476371077E+04  0.25500000000E-02 0. -1.
         -2   -1    0    0    0  501 -0.00000000000E+00 -0.00000000000E+00 -0.56213932587E+01  0.56213938371E+01  0.25500000000E-02 0.  1.
         25    2    1    2    0    0 -0.63968002508E+01  0.60518702640E+02  0.14267164291E+04  0.14334741978E+04  0.12500029749E+03 0.  0.
         23    2    1    2    0    0  0.63968002508E+01 -0.60518702640E+02  0.13152992854E+04  0.13197843037E+04  0.90083105290E+02 0.  0.
        -13    1    4    4    0    0  0.36756049773E+02 -0.48969754230E+02  0.11301442424E+04  0.11318016893E+04  0.10566000000E+00 0. -1.
         13    1    4    4    0    0 -0.30359249523E+02 -0.11548948410E+02  0.18515504291E+03  0.18798261441E+03  0.10566000000E+00 0.  1.
    9000005    1    3    3    0    0  0.13717298489E+02 -0.33747820284E+02  0.61026180084E+03  0.61134895535E+03  0.10000000000E+01 0.  0.
    9000005    1    3    3    0    0 -0.20114098739E+02  0.94266522924E+02  0.81645462822E+03  0.82212524244E+03  0.10000000000E+01 0.  0.
<mgrwt>
<rscale>  0 0.13073570E+03</rscale>
<asrwt>0</asrwt>
<pdfrwt beam="1">  1        2 0.42271260E+00 0.13902700E+03</pdfrwt>
<pdfrwt beam="2">  1       -2 0.86483141E-03 0.13902700E+03</pdfrwt>
<totfact> 0.76631103E+03</totfact>
</mgrwt>
</event>
<event>
 8    3  0.1559595E-003  0.1541791E+03  0.7818608E-02  0.1203913E+00
         -2   -1    0    0    0  501 -0.00000000000E+00  0.00000000000E+00  0.30289125921E+02  0.30289126028E+02  0.25500000000E-02 0. -1.
          2   -1    0    0  501    0  0.00000000000E+00 -0.00000000000E+00 -0.68572692995E+03  0.68572692995E+03  0.25500000000E-02 0.  1.
         25    2    1    2    0    0 -0.85605685392E+02  0.28591718218E+02 -0.28525337575E+03  0.32425406251E+03  0.12500155581E+03 0.  0.
         23    2    1    2    0    0  0.85605685392E+02 -0.28591718218E+02 -0.37018442828E+03  0.39176199347E+03  0.91077598057E+02 0.  0.
        -13    1    4    4    0    0  0.56370533882E+02 -0.11599663568E+02 -0.74451952628E+02  0.94102570099E+02  0.10566000000E+00 0. -1.
         13    1    4    4    0    0  0.29235151509E+02 -0.16992054650E+02 -0.29573247565E+03  0.29765942337E+03  0.10566000000E+00 0.  1.
    9000005    1    3    3    0    0 -0.22688692151E+01  0.31195770687E+02 -0.20878099309E+03  0.21111330359E+03  0.10000000000E+01 0.  0.
    9000005    1    3    3    0    0 -0.83336816177E+02 -0.26040524687E+01 -0.76472382660E+02  0.11314075892E+03  0.10000000000E+01 0.  0.
<mgrwt>
<rscale>  0 0.14723467E+03</rscale>
<asrwt>0</asrwt>
<pdfrwt beam="2">  1        2 0.10549644E+00 0.15417914E+03</pdfrwt>
<pdfrwt beam="1">  1       -2 0.46598660E-02 0.15417914E+03</pdfrwt>
<totfact> 0.90613229E+03</totfact>
</mgrwt>
</event>
<event>
 8    3  0.1559595E-003  0.1276897E+03  0.7818608E-02  0.1245314E+00
         -2   -1    0    0    0  501 -0.00000000000E+00  0.00000000000E+00  0.17849808404E+02  0.17849808586E+02  0.25500000000E-02 0. -1.
          2   -1    0    0  501    0  0.00000000000E+00 -0.00000000000E+00 -0.75025402642E+03  0.75025402643E+03  0.25500000000E-02 0.  1.
         25    2    1    2    0    0  0.13411242156E+02  0.22320439857E+02 -0.31347187440E+03  0.33848082525E+03  0.12500635811E+03 0.  0.
         23    2    1    2    0    0 -0.13411242156E+02 -0.22320439857E+02 -0.41893234362E+03  0.42962300976E+03  0.91616366110E+02 0.  0.
        -13    1    4    4    0    0 -0.29555099965E+02  0.27499584444E+02 -0.23231533456E+03  0.23579685518E+03  0.10566000000E+00 0.  1.
         13    1    4    4    0    0  0.16143857809E+02 -0.49820024301E+02 -0.18661700905E+03  0.19382615458E+03  0.10566000000E+00 0. -1.
    9000005    1    3    3    0    0 -0.80948821907E+01 -0.36963751342E+02 -0.23390212271E+03  0.23694524481E+03  0.10000000000E+01 0.  0.
    9000005    1    3    3    0    0  0.21506124346E+02  0.59284191198E+02 -0.79569751693E+02  0.10153558044E+03  0.10000000000E+01 0.  0.
<mgrwt>
<rscale>  0 0.11866631E+03</rscale>
<asrwt>0</asrwt>
<pdfrwt beam="2">  1        2 0.11542367E+00 0.12768967E+03</pdfrwt>
<pdfrwt beam="1">  1       -2 0.27461250E-02 0.12768967E+03</pdfrwt>
<totfact> 0.17577377E+04</totfact>
</mgrwt>
</event>
<event>
 8    3  0.1559595E-003  0.1405202E+03  0.7818608E-02  0.1223254E+00
         -2   -1    0    0    0  501 -0.00000000000E+00  0.00000000000E+00  0.39158042888E+02  0.39158042971E+02  0.25500000000E-02 0.  1.
          2   -1    0    0  501    0  0.00000000000E+00 -0.00000000000E+00 -0.46777196068E+03  0.46777196068E+03  0.25500000000E-02 0. -1.
         25    2    1    2    0    0  0.42920503158E+02  0.47737851832E+02 -0.14519170062E+03  0.20205580070E+03  0.12499937831E+03 0.  0.
         23    2    1    2    0    0 -0.42920503158E+02 -0.47737851832E+02 -0.28342221717E+03  0.30487420296E+03  0.92190315936E+02 0.  0.
        -13    1    4    4    0    0 -0.45909398840E+02  0.29671183563E+01 -0.59217823634E+02  0.74988255701E+02  0.10566000000E+00 0. -1.
         13    1    4    4    0    0  0.29888956816E+01 -0.50704970188E+02 -0.22420439354E+03  0.22988594725E+03  0.10566000000E+00 0.  1.
    9000005    1    3    3    0    0 -0.16590533125E+02  0.56270406862E+02 -0.18007873968E+02  0.61374978637E+02  0.10000000000E+01 0.  0.
    9000005    1    3    3    0    0  0.59511036283E+02 -0.85325550302E+01 -0.12718382665E+03  0.14068082206E+03  0.10000000000E+01 0.  0.
<mgrwt>
<rscale>  0 0.13287306E+03</rscale>
<asrwt>0</asrwt>
<pdfrwt beam="2">  1        2 0.71964913E-01 0.14052016E+03</pdfrwt>
<pdfrwt beam="1">  1       -2 0.60243146E-02 0.14052016E+03</pdfrwt>
<totfact> 0.94211652E+03</totfact>
</mgrwt>
</event>
<event>
 8    3  0.1559595E-003  0.1305888E+03  0.7818608E-02  0.1239501E+00
         -2   -1    0    0    0  501 -0.00000000000E+00  0.00000000000E+00  0.46753727686E+01  0.46753734640E+01  0.25500000000E-02 0. -1.
          2   -1    0    0  501    0  0.00000000000E+00 -0.00000000000E+00 -0.28470536520E+04  0.28470536520E+04  0.25500000000E-02 0.  1.
         25    2    1    2    0    0 -0.14688186174E+02 -0.34827724853E+02 -0.16191984797E+04  0.16244559561E+04  0.12499889341E+03 0.  0.
         23    2    1    2    0    0  0.14688186174E+02  0.34827724853E+02 -0.12231797995E+04  0.12272730693E+04  0.92745089476E+02 0.  0.
        -13    1    4    4    0    0  0.22454152773E+02  0.75524449374E+00 -0.10667795085E+04  0.10670160684E+04  0.10566000000E+00 0.  1.
         13    1    4    4    0    0 -0.77659665993E+01  0.34072480359E+02 -0.15640029095E+03  0.16025700087E+03  0.10566000000E+00 0. -1.
    9000005    1    3    3    0    0  0.15260701968E+02 -0.70230084323E+02 -0.61481871453E+03  0.61900582025E+03  0.10000000000E+01 0.  0.
    9000005    1    3    3    0    0 -0.29948888142E+02  0.35402359470E+02 -0.10043797652E+04  0.10054501359E+04  0.10000000000E+01 0.  0.
<mgrwt>
<rscale>  0 0.12220643E+03</rscale>
<asrwt>0</asrwt>
<pdfrwt beam="2">  1        2 0.43800687E+00 0.13058881E+03</pdfrwt>
<pdfrwt beam="1">  1       -2 0.71929045E-03 0.13058881E+03</pdfrwt>
<totfact> 0.87634411E+03</totfact>
</mgrwt>
</event>
<event>
 8    3  0.1559595E-003  0.1409338E+03  0.7818608E-02  0.1222946E+00
         -2   -1    0    0    0  501 -0.00000000000E+00  0.00000000000E+00  0.20310326104E+03  0.20310326106E+03  0.25500000000E-02 0.  1.
          2   -1    0    0  501    0  0.00000000000E+00 -0.00000000000E+00 -0.38632883003E+03  0.38632883004E+03  0.25500000000E-02 0. -1.
         25    2    1    2    0    0  0.28331266733E+02  0.58609871896E+02 -0.35634532821E+03  0.38320273675E+03  0.12499826702E+03 0.  0.
         23    2    1    2    0    0 -0.28331266733E+02 -0.58609871896E+02  0.17311975923E+03  0.20622935434E+03  0.91226738409E+02 0.  0.
        -13    1    4    4    0    0 -0.21990901487E+02 -0.15174312819E+02  0.15732579363E+03  0.15957843220E+03  0.10566000000E+00 0.  1.
         13    1    4    4    0    0 -0.63403652458E+01 -0.43435559077E+02  0.15793965596E+02  0.46650922146E+02  0.10566000000E+00 0. -1.
    9000005    1    3    3    0    0 -0.13203758343E+02 -0.39017053855E+01 -0.26327699882E+03  0.26363865544E+03  0.10000000000E+01 0.  0.
    9000005    1    3    3    0    0  0.41535025077E+02  0.62511577281E+02 -0.93068329398E+02  0.11956408131E+03  0.10000000000E+01 0.  0.
<mgrwt>
<rscale>  0 0.13308698E+03</rscale>
<asrwt>0</asrwt>
<pdfrwt beam="2">  1        2 0.59435204E-01 0.14093383E+03</pdfrwt>
<pdfrwt beam="1">  1       -2 0.31246656E-01 0.14093383E+03</pdfrwt>
<totfact> 0.78522968E+02</totfact>
</mgrwt>
</event>
<event>
 8    3  0.1559595E-003  0.1314365E+03  0.7818608E-02  0.1237901E+00
          2   -1    0    0  501    0  0.00000000000E+00  0.00000000000E+00  0.72786863085E+02  0.72786863130E+02  0.25500000000E-02 0. -1.
         -2   -1    0    0    0  501 -0.00000000000E+00 -0.00000000000E+00 -0.26824485624E+03  0.26824485625E+03  0.25500000000E-02 0.  1.
         25    2    1    2    0    0 -0.21852038935E+02  0.34252267325E+02 -0.12774647073E+02  0.13205580631E+03  0.12499925980E+03 0.  0.
         23    2    1    2    0    0  0.21852038935E+02 -0.34252267325E+02 -0.18268334608E+03  0.20897591307E+03  0.92989235321E+02 0.  0.
        -13    1    4    4    0    0 -0.10953542792E+02 -0.58284829260E+02 -0.12549763108E+03  0.13880478375E+03  0.10566000000E+00 0.  1.
         13    1    4    4    0    0  0.32805581727E+02  0.24032561935E+02 -0.57185714998E+02  0.70171129316E+02  0.10566000000E+00 0. -1.
    9000005    1    3    3    0    0  0.11378317200E+02 -0.43987294481E+02  0.31974526392E+01  0.45558444677E+02  0.10000000000E+01 0.  0.
    9000005    1    3    3    0    0 -0.33230356134E+02  0.78239561806E+02 -0.15972099713E+02  0.86497361634E+02  0.10000000000E+01 0.  0.
<mgrwt>
<rscale>  0 0.12320535E+03</rscale>
<asrwt>0</asrwt>
<pdfrwt beam="1">  1        2 0.11197979E-01 0.13143647E+03</pdfrwt>
<pdfrwt beam="2">  1       -2 0.41268439E-01 0.13143647E+03</pdfrwt>
<totfact> 0.29923647E+03</totfact>
</mgrwt>
</event>
<event>
 8    3  0.1559595E-003  0.1253974E+03  0.7818608E-02  0.1249484E+00
         -2   -1    0    0    0  501 -0.00000000000E+00  0.00000000000E+00  0.17446705963E+02  0.17446706150E+02  0.25500000000E-02 0.  1.
          2   -1    0    0  501    0  0.00000000000E+00 -0.00000000000E+00 -0.73641797195E+03  0.73641797195E+03  0.25500000000E-02 0. -1.
         25    2    1    2    0    0 -0.88601971922E+01  0.45057747561E+01 -0.30668939436E+03  0.33133499994E+03  0.12500276984E+03 0.  0.
         23    2    1    2    0    0  0.88601971922E+01 -0.45057747561E+01 -0.41228187162E+03  0.42252967817E+03  0.91957501928E+02 0.  0.
        -13    1    4    4    0    0  0.15512353475E+02 -0.11177949943E+02 -0.12964778695E+02  0.23101435581E+02  0.10566000000E+00 0.  1.
         13    1    4    4    0    0 -0.66521562830E+01  0.66721751872E+01 -0.39931709293E+03  0.39942824258E+03  0.10566000000E+00 0. -1.
    9000005    1    3    3    0    0  0.94789751734E+01  0.37187353904E+01  0.98854762721E+01  0.14226826925E+02  0.10000000000E+01 0.  0.
    9000005    1    3    3    0    0 -0.18339172366E+02  0.78703936574E+00 -0.31657487063E+03  0.31710817301E+03  0.10000000000E+01 0.  0.
<mgrwt>
<rscale>  0 0.11621006E+03</rscale>
<asrwt>0</asrwt>
<pdfrwt beam="2">  1        2 0.11329505E+00 0.12539736E+03</pdfrwt>
<pdfrwt beam="1">  1       -2 0.26841092E-02 0.12539736E+03</pdfrwt>
<totfact> 0.18560466E+04</totfact>
</mgrwt>
</event>
<event>
 8    3  0.1559595E-003  0.1262766E+03  0.7818608E-02  0.1251204E+00
         -2   -1    0    0    0  501 -0.00000000000E+00  0.00000000000E+00  0.13272807264E+03  0.13272807267E+03  0.25500000000E-02 0.  1.
          2   -1    0    0  501    0  0.00000000000E+00 -0.00000000000E+00 -0.10187279128E+03  0.10187279131E+03  0.25500000000E-02 0. -1.
         25    2    1    2    0    0 -0.45753474689E+01  0.17317064289E+02  0.63313678155E+02  0.14126008465E+03  0.12499990061E+03 0.  0.
         23    2    1    2    0    0  0.45753474689E+01 -0.17317064289E+02 -0.32458396793E+02  0.93340779334E+02  0.85662938569E+02 0.  0.
        -13    1    4    4    0    0 -0.85482458532E+01  0.31137019143E+02  0.21600975158E+01  0.32361453205E+02  0.10566000000E+00 0.  1.
         13    1    4    4    0    0  0.13123593322E+02 -0.48454083431E+02 -0.34618494309E+02  0.60979326129E+02  0.10566000000E+00 0. -1.
    9000005    1    3    3    0    0 -0.26138517087E+02  0.57039490851E+02 -0.86461020883E+00  0.62757255698E+02  0.10000000000E+01 0.  0.
    9000005    1    3    3    0    0  0.21563169618E+02 -0.39722426562E+02  0.64178288364E+02  0.78502828951E+02  0.10000000000E+01 0.  0.
<mgrwt>
<rscale>  0 0.11521617E+03</rscale>
<asrwt>0</asrwt>
<pdfrwt beam="2">  1        2 0.15672737E-01 0.12627664E+03</pdfrwt>
<pdfrwt beam="1">  1       -2 0.20419703E-01 0.12627664E+03</pdfrwt>
<totfact> 0.70569822E+03</totfact>
</mgrwt>
</event>
<event>
 8    3  0.1559595E-003  0.1250706E+03  0.7818608E-02  0.1249811E+00
          2   -1    0    0  501    0  0.00000000000E+00  0.00000000000E+00  0.55567359415E+02  0.55567359473E+02  0.25500000000E-02 0. -1.
         -2   -1    0    0    0  501 -0.00000000000E+00 -0.00000000000E+00 -0.24700093703E+03  0.24700093705E+03  0.25500000000E-02 0.  1.
         25    2    1    2    0    0 -0.44570151927E+01 -0.93009647681E+00 -0.16346848114E+03  0.20582659791E+03  0.12498765546E+03 0.  0.
         23    2    1    2    0    0  0.44570151927E+01  0.93009647681E+00 -0.27965096482E+02  0.96741698610E+02  0.92499619269E+02 0.  0.
        -13    1    4    4    0    0 -0.46416035826E+01  0.18876936629E+02  0.29795712293E+02  0.35576380583E+02  0.10566000000E+00 0. -1.
         13    1    4    4    0    0  0.90986187753E+01 -0.17946840152E+02 -0.57760808774E+02  0.61165318027E+02  0.10566000000E+00 0.  1.
    9000005    1    3    3    0    0  0.48771795847E+02 -0.31275956575E+02 -0.48578896690E+02  0.75616021672E+02  0.10000000000E+01 0.  0.
    9000005    1    3    3    0    0 -0.53228811040E+02  0.30345860098E+02 -0.11488958445E+03  0.13021057624E+03  0.10000000000E+01 0.  0.
<mgrwt>
<rscale>  0 0.11601995E+03</rscale>
<asrwt>0</asrwt>
<pdfrwt beam="1">  1        2 0.85488247E-02 0.12507056E+03</pdfrwt>
<pdfrwt beam="2">  1       -2 0.38000144E-01 0.12507056E+03</pdfrwt>
<totfact> 0.48535630E+03</totfact>
</mgrwt>
</event>
<event>
 8    3  0.1559595E-003  0.1651396E+03  0.7818608E-02  0.1190020E+00
          2   -1    0    0  501    0  0.00000000000E+00  0.00000000000E+00  0.14189708271E+04  0.14189708271E+04  0.25500000000E-02 0. -1.
         -2   -1    0    0    0  501 -0.00000000000E+00 -0.00000000000E+00 -0.29273275527E+02  0.29273275638E+02  0.25500000000E-02 0.  1.
         25    2    1    2    0    0 -0.81113453094E+02 -0.71180851095E+02  0.24874164114E+03  0.29856906353E+03  0.12499990331E+03 0.  0.
         23    2    1    2    0    0  0.81113453094E+02  0.71180851095E+02  0.11409559105E+04  0.11496750392E+04  0.91248015777E+02 0.  0.
        -13    1    4    4    0    0  0.62959459610E+02  0.83137611866E+02  0.10787714312E+04  0.10838005204E+04  0.10566000000E+00 0. -1.
         13    1    4    4    0    0  0.18153993484E+02 -0.11956760771E+02  0.62184479239E+02  0.65874518820E+02  0.10566000000E+00 0.  1.
    9000005    1    3    3    0    0  0.50279952472E+01 -0.69839153193E+02  0.16114062180E+03  0.17569885614E+03  0.10000000000E+01 0.  0.
    9000005    1    3    3    0    0 -0.86141448342E+02 -0.13416979018E+01  0.87601019335E+02  0.12287020739E+03  0.10000000000E+01 0.  0.
<mgrwt>
<rscale>  0 0.15883343E+03</rscale>
<asrwt>0</asrwt>
<pdfrwt beam="1">  1        2 0.21830324E+00 0.16513958E+03</pdfrwt>
<pdfrwt beam="2">  1       -2 0.45035801E-02 0.16513958E+03</pdfrwt>
<totfact> 0.34457175E+03</totfact>
</mgrwt>
</event>
<event>
 8    3  0.1559595E-003  0.1404906E+03  0.7818608E-02  0.1223689E+00
         -2   -1    0    0    0  501 -0.00000000000E+00  0.00000000000E+00  0.11015695807E+02  0.11015696102E+02  0.25500000000E-02 0. -1.
          2   -1    0    0  501    0  0.00000000000E+00 -0.00000000000E+00 -0.16621140326E+04  0.16621140326E+04  0.25500000000E-02 0.  1.
         25    2    1    2    0    0 -0.64084095120E+02 -0.34098461845E+01 -0.60404799318E+03  0.62017060138E+03  0.12497679166E+03 0.  0.
         23    2    1    2    0    0  0.64084095120E+02  0.34098461845E+01 -0.10470503436E+04  0.10529591273E+04  0.91050005229E+02 0.  0.
        -13    1    4    4    0    0  0.34709392138E+02 -0.41805245817E+02 -0.64950993936E+03  0.65177879144E+03  0.10566000000E+00 0.  1.
         13    1    4    4    0    0  0.29374702982E+02  0.45215092002E+02 -0.39754040420E+03  0.40118033583E+03  0.10566000000E+00 0. -1.
    9000005    1    3    3    0    0 -0.18123073883E+02 -0.26420509837E+02 -0.30250548269E+02  0.44074763954E+02  0.10000000000E+01 0.  0.
    9000005    1    3    3    0    0 -0.45961021237E+02  0.23010663652E+02 -0.57379744491E+03  0.57609583743E+03  0.10000000000E+01 0.  0.
<mgrwt>
<rscale>  0 0.13257153E+03</rscale>
<asrwt>0</asrwt>
<pdfrwt beam="2">  1        2 0.25570965E+00 0.14049056E+03</pdfrwt>
<pdfrwt beam="1">  1       -2 0.16947238E-02 0.14049056E+03</pdfrwt>
<totfact> 0.10791017E+04</totfact>
</mgrwt>
</event>
<event>
 8    3  0.1559595E-003  0.1303215E+03  0.7818608E-02  0.1240462E+00
         -2   -1    0    0    0  501 -0.00000000000E+00  0.00000000000E+00  0.14702603414E+02  0.14702603635E+02  0.25500000000E-02 0.  1.
          2   -1    0    0  501    0  0.00000000000E+00 -0.00000000000E+00 -0.97627683690E+03  0.97627683690E+03  0.25500000000E-02 0. -1.
         25    2    1    2    0    0 -0.31674233036E+02 -0.18853193792E+02 -0.39761172404E+03  0.41842415028E+03  0.12499994596E+03 0.  0.
         23    2    1    2    0    0  0.31674233036E+02  0.18853193792E+02 -0.56396250944E+03  0.57255529025E+03  0.91690503242E+02 0.  0.
        -13    1    4    4    0    0  0.36880751935E+02  0.24229558051E+02 -0.56331679599E+03  0.56504255163E+03  0.10566000000E+00 0. -1.
         13    1    4    4    0    0 -0.52065188992E+01 -0.53763642591E+01 -0.64571345388E+00  0.75127386215E+01  0.10566000000E+00 0.  1.
    9000005    1    3    3    0    0 -0.60788236735E+01 -0.23023973434E+02 -0.39088945026E+03  0.39161539522E+03  0.10000000000E+01 0.  0.
    9000005    1    3    3    0    0 -0.25595409362E+02  0.41707796427E+01 -0.67222737822E+01  0.26808755063E+02  0.10000000000E+01 0.  0.
<mgrwt>
<rscale>  0 0.12161180E+03</rscale>
<asrwt>0</asrwt>
<pdfrwt beam="2">  1        2 0.15019639E+00 0.13032147E+03</pdfrwt>
<pdfrwt beam="1">  1       -2 0.22619398E-02 0.13032147E+03</pdfrwt>
<totfact> 0.16686025E+04</totfact>
</mgrwt>
</event>
<event>
 8    3  0.1559595E-003  0.1335731E+03  0.7818608E-02  0.1235158E+00
         -2   -1    0    0    0  501 -0.00000000000E+00  0.00000000000E+00  0.10016889866E+03  0.10016889869E+03  0.25500000000E-02 0.  1.
          2   -1    0    0  501    0  0.00000000000E+00 -0.00000000000E+00 -0.14920940170E+03  0.14920940172E+03  0.25500000000E-02 0. -1.
         25    2    1    2    0    0 -0.45172044662E+02 -0.13278840038E+02  0.51058161449E+01  0.13367060687E+03  0.12499968228E+03 0.  0.
         23    2    1    2    0    0  0.45172044662E+02  0.13278840038E+02 -0.54146319188E+02  0.11570769354E+03  0.90772271382E+02 0.  0.
        -13    1    4    4    0    0  0.19517121944E+02  0.50414214487E+02 -0.43360698416E+02  0.69301316023E+02  0.10566000000E+00 0.  1.
         13    1    4    4    0    0  0.25654922718E+02 -0.37135374449E+02 -0.10785620772E+02  0.46406377521E+02  0.10566000000E+00 0. -1.
    9000005    1    3    3    0    0 -0.55863001710E+02 -0.28790924414E+02  0.52985974459E+02  0.82207699019E+02  0.10000000000E+01 0.  0.
    9000005    1    3    3    0    0  0.10690957048E+02  0.15512084375E+02 -0.47880158314E+02  0.51462907850E+02  0.10000000000E+01 0.  0.
<mgrwt>
<rscale>  0 0.12494307E+03</rscale>
<asrwt>0</asrwt>
<pdfrwt beam="2">  1        2 0.22955293E-01 0.13357306E+03</pdfrwt>
<pdfrwt beam="1">  1       -2 0.15410600E-01 0.13357306E+03</pdfrwt>
<totfact> 0.73376608E+03</totfact>
</mgrwt>
</event>
<event>
 8    3  0.1559595E-003  0.1878709E+03  0.7818608E-02  0.1164227E+00
          2   -1    0    0  501    0  0.00000000000E+00  0.00000000000E+00  0.98233474868E+02  0.98233474901E+02  0.25500000000E-02 0.  1.
         -2   -1    0    0    0  501 -0.00000000000E+00 -0.00000000000E+00 -0.34680330571E+03  0.34680330572E+03  0.25500000000E-02 0. -1.
         25    2    1    2    0    0  0.13119425467E+03 -0.49605311894E+02 -0.17930714757E+03  0.25970469674E+03  0.12499142735E+03 0.  0.
         23    2    1    2    0    0 -0.13119425467E+03  0.49605311894E+02 -0.69262683275E+02  0.18533208389E+03  0.99388342364E+02 0.  0.
        -13    1    4    4    0    0 -0.62997884126E+02  0.14441093294E+02 -0.85225003719E+02  0.10696069840E+03  0.10566000000E+00 0. -1.
         13    1    4    4    0    0 -0.68196370541E+02  0.35164218599E+02  0.15962320445E+02  0.78371385484E+02  0.10566000000E+00 0.  1.
    9000005    1    3    3    0    0  0.60239006430E+02  0.28933971716E+02 -0.12257114815E+03  0.13960873530E+03  0.10000000000E+01 0.  0.
    9000005    1    3    3    0    0  0.70955248236E+02 -0.78539283610E+02 -0.56735999425E+02  0.12009596143E+03  0.10000000000E+01 0.  0.
<mgrwt>
<rscale>  0 0.18374501E+03</rscale>
<asrwt>0</asrwt>
<pdfrwt beam="1">  1        2 0.15112842E-01 0.18787090E+03</pdfrwt>
<pdfrwt beam="2">  1       -2 0.53354354E-01 0.18787090E+03</pdfrwt>
<totfact> 0.12851580E+03</totfact>
</mgrwt>
</event>
<event>
 8    3  0.1559595E-003  0.1569765E+03  0.7818608E-02  0.1200436E+00
          2   -1    0    0  501    0  0.00000000000E+00  0.00000000000E+00  0.51025932297E+03  0.51025932297E+03  0.25500000000E-02 0. -1.
         -2   -1    0    0    0  501 -0.00000000000E+00 -0.00000000000E+00 -0.46367395705E+02  0.46367395775E+02  0.25500000000E-02 0.  1.
         25    2    1    2    0    0  0.64093065287E+02  0.70062705140E+02  0.34787050088E+03  0.38164840315E+03  0.12499965831E+03 0.  0.
         23    2    1    2    0    0 -0.64093065287E+02 -0.70062705140E+02  0.11602142638E+03  0.17497831559E+03  0.90220484809E+02 0.  0.
        -13    1    4    4    0    0 -0.61738386593E+02 -0.88222193674E+00  0.53285214915E+02  0.81558150955E+02  0.10566000000E+00 0. -1.
         13    1    4    4    0    0 -0.23546786940E+01 -0.69180483204E+02  0.62736211466E+02  0.93420164639E+02  0.10566000000E+00 0.  1.
    9000005    1    3    3    0    0  0.75066118574E+02  0.47483389171E+02  0.34512648501E+03  0.35637464144E+03  0.10000000000E+01 0.  0.
    9000005    1    3    3    0    0 -0.10973053287E+02  0.22579315970E+02  0.27440158683E+01  0.25273761714E+02  0.10000000000E+01 0.  0.
<mgrwt>
<rscale>  0 0.15003043E+03</rscale>
<asrwt>0</asrwt>
<pdfrwt beam="1">  1        2 0.78501441E-01 0.15697649E+03</pdfrwt>
<pdfrwt beam="2">  1       -2 0.71334449E-02 0.15697649E+03</pdfrwt>
<totfact> 0.66600763E+03</totfact>
</mgrwt>
</event>
<event>
 8    3  0.1559595E-003  0.1414734E+03  0.7818608E-02  0.1222197E+00
         -2   -1    0    0    0  501 -0.00000000000E+00  0.00000000000E+00  0.25085423172E+02  0.25085423302E+02  0.25500000000E-02 0.  1.
          2   -1    0    0  501    0  0.00000000000E+00 -0.00000000000E+00 -0.81543076469E+03  0.81543076469E+03  0.25500000000E-02 0. -1.
         25    2    1    2    0    0 -0.38223221246E+02 -0.54116003322E+02 -0.23842462697E+03  0.27723823575E+03  0.12500072062E+03 0.  0.
         23    2    1    2    0    0  0.38223221246E+02  0.54116003322E+02 -0.55192071454E+03  0.56327795224E+03  0.90972632630E+02 0.  0.
        -13    1    4    4    0    0  0.11101597122E+02  0.57836170791E+01 -0.42002122278E+03  0.42020772771E+03  0.10566000000E+00 0. -1.
         13    1    4    4    0    0  0.27121624124E+02  0.48332386243E+02 -0.13189949176E+03  0.14307022453E+03  0.10566000000E+00 0.  1.
    9000005    1    3    3    0    0  0.38928201131E+02 -0.26234850372E+02 -0.14739916221E+03  0.15469707572E+03  0.10000000000E+01 0.  0.
    9000005    1    3    3    0    0 -0.77151422377E+02 -0.27881152950E+02 -0.91025464763E+02  0.12254116002E+03  0.10000000000E+01 0.  0.
<mgrwt>
<rscale>  0 0.13360857E+03</rscale>
<asrwt>0</asrwt>
<pdfrwt beam="2">  1        2 0.12545087E+00 0.14147345E+03</pdfrwt>
<pdfrwt beam="1">  1       -2 0.38592965E-02 0.14147345E+03</pdfrwt>
<totfact> 0.96730310E+03</totfact>
</mgrwt>
</event>
<event>
 8    3  0.1559595E-003  0.1893880E+03  0.7818608E-02  0.1164032E+00
         -2   -1    0    0    0  501 -0.00000000000E+00  0.00000000000E+00  0.62844586595E+02  0.62844586646E+02  0.25500000000E-02 0.  1.
          2   -1    0    0  501    0  0.00000000000E+00 -0.00000000000E+00 -0.63899529855E+03  0.63899529855E+03  0.25500000000E-02 0. -1.
         25    2    1    2    0    0 -0.62221094542E+02 -0.12794876569E+03 -0.14380999241E+03  0.23780060947E+03  0.12500185877E+03 0.  0.
         23    2    1    2    0    0  0.62221094542E+02  0.12794876569E+03 -0.43234071954E+03  0.46403927573E+03  0.90396904816E+02 0.  0.
        -13    1    4    4    0    0  0.52942304234E+02  0.78573878650E+02 -0.15110957130E+03  0.17835598024E+03  0.10566000000E+00 0.  1.
         13    1    4    4    0    0  0.92787903088E+01  0.49374887043E+02 -0.28123114824E+03  0.28568329550E+03  0.10566000000E+00 0. -1.
    9000005    1    3    3    0    0 -0.87996633846E+02 -0.12922397998E+03 -0.14312933108E+03  0.21196520938E+03  0.10000000000E+01 0.  0.
    9000005    1    3    3    0    0  0.25775539304E+02  0.12752142875E+01 -0.68066132784E+00  0.25835400088E+02  0.10000000000E+01 0.  0.
<mgrwt>
<rscale>  0 0.18395255E+03</rscale>
<asrwt>0</asrwt>
<pdfrwt beam="2">  1        2 0.98306965E-01 0.18938800E+03</pdfrwt>
<pdfrwt beam="1">  1       -2 0.96683984E-02 0.18938800E+03</pdfrwt>
<totfact> 0.32371262E+03</totfact>
</mgrwt>
</event>
<event>
 8    3  0.1559595E-003  0.1257965E+03  0.7818608E-02  0.1249889E+00
          2   -1    0    0  501    0  0.00000000000E+00  0.00000000000E+00  0.43310652442E+03  0.43310652443E+03  0.25500000000E-02 0. -1.
         -2   -1    0    0    0  501 -0.00000000000E+00 -0.00000000000E+00 -0.31743983009E+02  0.31743983111E+02  0.25500000000E-02 0.  1.
         25    2    1    2    0    0  0.69504106948E+01 -0.12181254819E+02  0.31620939614E+03  0.34031328352E+03  0.12501222963E+03 0.  0.
         23    2    1    2    0    0 -0.69504106948E+01  0.12181254819E+02  0.85153145269E+02  0.12453722401E+03  0.89787364580E+02 0.  0.
        -13    1    4    4    0    0  0.50471180358E+01  0.39448748323E+02  0.63282286344E+01  0.40270768386E+02  0.10566000000E+00 0.  1.
         13    1    4    4    0    0 -0.11997528731E+02 -0.27267493504E+02  0.78824916635E+02  0.84266455628E+02  0.10566000000E+00 0. -1.
    9000005    1    3    3    0    0 -0.80577734121E+01 -0.26975874626E+02  0.52713721407E+01  0.28660301611E+02  0.10000000000E+01 0.  0.
    9000005    1    3    3    0    0  0.15008184107E+02  0.14794619807E+02  0.31093802400E+03  0.31165298191E+03  0.10000000000E+01 0.  0.
<mgrwt>
<rscale>  0 0.11597482E+03</rscale>
<asrwt>0</asrwt>
<pdfrwt beam="1">  1        2 0.66631770E-01 0.12579646E+03</pdfrwt>
<pdfrwt beam="2">  1       -2 0.48836900E-02 0.12579646E+03</pdfrwt>
<totfact> 0.13933734E+04</totfact>
</mgrwt>
</event>
<event>
 8    3  0.1559595E-003  0.1253751E+03  0.7818608E-02  0.1249306E+00
          2   -1    0    0  501    0  0.00000000000E+00  0.00000000000E+00  0.93178388876E+03  0.93178388877E+03  0.25500000000E-02 0. -1.
         -2   -1    0    0    0  501 -0.00000000000E+00 -0.00000000000E+00 -0.14979610800E+02  0.14979611017E+02  0.25500000000E-02 0.  1.
         25    2    1    2    0    0  0.95338924137E+01  0.17760370575E+01  0.69632714158E+03  0.70752413111E+03  0.12499943434E+03 0.  0.
         23    2    1    2    0    0 -0.95338924137E+01 -0.17760370575E+01  0.22047713638E+03  0.23923936868E+03  0.92364811725E+02 0.  0.
        -13    1    4    4    0    0 -0.37265983864E+02  0.27151736928E+02  0.72400072501E+02  0.85835610523E+02  0.10566000000E+00 0.  1.
         13    1    4    4    0    0  0.27732091450E+02 -0.28927773985E+02  0.14807706388E+03  0.15340375815E+03  0.10566000000E+00 0. -1.
    9000005    1    3    3    0    0  0.33412882314E+02 -0.44532270593E+02  0.53727078296E+03  0.54014853332E+03  0.10000000000E+01 0.  0.
    9000005    1    3    3    0    0 -0.23878989901E+02  0.46308307650E+02  0.15905635862E+03  0.16737559779E+03  0.10000000000E+01 0.  0.
<mgrwt>
<rscale>  0 0.11631352E+03</rscale>
<asrwt>0</asrwt>
<pdfrwt beam="1">  1        2 0.14335141E+00 0.12537507E+03</pdfrwt>
<pdfrwt beam="2">  1       -2 0.23045549E-02 0.12537507E+03</pdfrwt>
<totfact> 0.17237829E+04</totfact>
</mgrwt>
</event>
<event>
 8    3  0.1559595E-003  0.3567992E+03  0.7818608E-02  0.1060913E+00
          2   -1    0    0  501    0  0.00000000000E+00  0.00000000000E+00  0.15235681432E+04  0.15235681432E+04  0.25500000000E-02 0. -1.
         -2   -1    0    0    0  501 -0.00000000000E+00 -0.00000000000E+00 -0.11745241712E+03  0.11745241715E+03  0.25500000000E-02 0.  1.
         25    2    1    2    0    0  0.23145144560E+03  0.24106185298E+03  0.11663673999E+04  0.12197207067E+04  0.12500040842E+03 0.  0.
         23    2    1    2    0    0 -0.23145144560E+03 -0.24106185298E+03  0.23974832621E+03  0.42129985371E+03  0.91289200775E+02 0.  0.
        -13    1    4    4    0    0 -0.69441758109E+02 -0.13261313266E+03  0.83152947784E+02  0.17123908611E+03  0.10566000000E+00 0.  1.
         13    1    4    4    0    0 -0.16200968749E+03 -0.10844872032E+03  0.15659537843E+03  0.25006076759E+03  0.10566000000E+00 0. -1.
    9000005    1    3    3    0    0  0.11701472413E+03  0.52356459955E+02  0.55865428170E+03  0.57317471247E+03  0.10000000000E+01 0.  0.
    9000005    1    3    3    0    0  0.11443672147E+03  0.18870539303E+03  0.60771311819E+03  0.64654599419E+03  0.10000000000E+01 0.  0.
<mgrwt>
<rscale>  0 0.35417839E+03</rscale>
<asrwt>0</asrwt>
<pdfrwt beam="1">  1        2 0.23439508E+00 0.35679923E+03</pdfrwt>
<pdfrwt beam="2">  1       -2 0.18069604E-01 0.35679923E+03</pdfrwt>
<totfact> 0.32936388E+02</totfact>
</mgrwt>
</event>
<event>
 8    3  0.1559595E-003  0.1661162E+03  0.7818608E-02  0.1188340E+00
          2   -1    0    0  501    0  0.00000000000E+00  0.00000000000E+00  0.18330142058E+04  0.18330142058E+04  0.25500000000E-02 0. -1.
         -2   -1    0    0    0  501 -0.00000000000E+00 -0.00000000000E+00 -0.13904977445E+02  0.13904977679E+02  0.25500000000E-02 0.  1.
         25    2    1    2    0    0  0.10367332120E+03 -0.34947668906E+02  0.11885985632E+04  0.12001504684E+04  0.12500042188E+03 0.  0.
         23    2    1    2    0    0 -0.10367332120E+03  0.34947668906E+02  0.63051066522E+03  0.64676871506E+03  0.93790056697E+02 0.  0.
        -13    1    4    4    0    0 -0.10823378159E+02  0.48692050893E+02  0.24109534342E+03  0.24620121267E+03  0.10566000000E+00 0.  1.
         13    1    4    4    0    0 -0.92849943046E+02 -0.13744381987E+02  0.38941532180E+03  0.40056750240E+03  0.10566000000E+00 0. -1.
    9000005    1    3    3    0    0  0.13014268088E+03 -0.11480364217E+02  0.94981878002E+03  0.95876255196E+03  0.10000000000E+01 0.  0.
    9000005    1    3    3    0    0 -0.26469359680E+02 -0.23467304689E+02  0.23877978314E+03  0.24138791649E+03  0.10000000000E+01 0.  0.
<mgrwt>
<rscale>  0 0.16031655E+03</rscale>
<asrwt>0</asrwt>
<pdfrwt beam="1">  1        2 0.28200198E+00 0.16611623E+03</pdfrwt>
<pdfrwt beam="2">  1       -2 0.21392289E-02 0.16611623E+03</pdfrwt>
<totfact> 0.63127733E+03</totfact>
</mgrwt>
</event>
<event>
 8    3  0.1559595E-003  0.1382829E+03  0.7818608E-02  0.1227543E+00
          2   -1    0    0  501    0  0.00000000000E+00  0.00000000000E+00  0.11225813770E+04  0.11225813770E+04  0.25500000000E-02 0. -1.
         -2   -1    0    0    0  501 -0.00000000000E+00 -0.00000000000E+00 -0.15594989061E+02  0.15594989269E+02  0.25500000000E-02 0.  1.
         25    2    1    2    0    0  0.54117510268E+02  0.23837736512E+02  0.40496087823E+03  0.42791993738E+03  0.12500086926E+03 0.  0.
         23    2    1    2    0    0 -0.54117510268E+02 -0.23837736512E+02  0.70202550967E+03  0.71025642884E+03  0.90152292769E+02 0.  0.
        -13    1    4    4    0    0 -0.67195675874E+02  0.79794644885E+01  0.34472045407E+03  0.35129920770E+03  0.10566000000E+00 0.  1.
         13    1    4    4    0    0  0.13078165606E+02 -0.31817201001E+02  0.35730505559E+03  0.35895722114E+03  0.10566000000E+00 0. -1.
    9000005    1    3    3    0    0 -0.24658169993E+02  0.31627032361E+02  0.25699367543E+03  0.26010583179E+03  0.10000000000E+01 0.  0.
    9000005    1    3    3    0    0  0.78775680261E+02 -0.77892958486E+01  0.14796720280E+03  0.16781410559E+03  0.10000000000E+01 0.  0.
<mgrwt>
<rscale>  0 0.12994141E+03</rscale>
<asrwt>0</asrwt>
<pdfrwt beam="1">  1        2 0.17270487E+00 0.13828290E+03</pdfrwt>
<pdfrwt beam="2">  1       -2 0.23992285E-02 0.13828290E+03</pdfrwt>
<totfact> 0.12623486E+04</totfact>
</mgrwt>
</event>
<event>
 8    3  0.1559595E-003  0.2030550E+03  0.7818608E-02  0.1151589E+00
          2   -1    0    0  501    0  0.00000000000E+00  0.00000000000E+00  0.61474157060E+03  0.61474157061E+03  0.25500000000E-02 0. -1.
         -2   -1    0    0    0  501 -0.00000000000E+00 -0.00000000000E+00 -0.75953319187E+02  0.75953319230E+02  0.25500000000E-02 0.  1.
         25    2    1    2    0    0 -0.12853531457E+02 -0.15950375779E+03  0.43577590159E+03  0.48076188329E+03  0.12499875997E+03 0.  0.
         23    2    1    2    0    0  0.12853531457E+02  0.15950375779E+03  0.10301234982E+03  0.20993300655E+03  0.88620883565E+02 0.  0.
        -13    1    4    4    0    0 -0.21602218796E+02  0.23376893347E+02 -0.57160022120E+01  0.32339122511E+02  0.10566000000E+00 0.  1.
         13    1    4    4    0    0  0.34455750253E+02  0.13612686444E+03  0.10872835203E+03  0.17759388404E+03  0.10566000000E+00 0. -1.
    9000005    1    3    3    0    0 -0.51308466669E+02 -0.50988579463E+02  0.26576684712E+03  0.27543676410E+03  0.10000000000E+01 0.  0.
    9000005    1    3    3    0    0  0.38454935212E+02 -0.10851517832E+03  0.17000905447E+03  0.20532511919E+03  0.10000000000E+01 0.  0.
<mgrwt>
<rscale>  0 0.19782292E+03</rscale>
<asrwt>0</asrwt>
<pdfrwt beam="1">  1        2 0.94575625E-01 0.20305505E+03</pdfrwt>
<pdfrwt beam="2">  1       -2 0.11685126E-01 0.20305505E+03</pdfrwt>
<totfact> 0.25090410E+03</totfact>
</mgrwt>
</event>
<event>
 8    3  0.1559595E-003  0.1300438E+03  0.7818608E-02  0.1241551E+00
         -2   -1    0    0    0  501 -0.00000000000E+00  0.00000000000E+00  0.34146025215E+02  0.34146025310E+02  0.25500000000E-02 0.  1.
          2   -1    0    0  501    0  0.00000000000E+00 -0.00000000000E+00 -0.37854370178E+03  0.37854370179E+03  0.25500000000E-02 0. -1.
         25    2    1    2    0    0  0.20622620992E+02  0.29344492560E+02 -0.20150011388E+03  0.23982012736E+03  0.12500002341E+03 0.  0.
         23    2    1    2    0    0 -0.20622620992E+02 -0.29344492560E+02 -0.14289756268E+03  0.17286959974E+03  0.90431152553E+02 0.  0.
        -13    1    4    4    0    0  0.29235788930E+02 -0.45190786790E+00 -0.15609436835E+02  0.33145154359E+02  0.10566000000E+00 0.  1.
         13    1    4    4    0    0 -0.49858409923E+02 -0.28892584692E+02 -0.12728812585E+03  0.13972444538E+03  0.10566000000E+00 0. -1.
    9000005    1    3    3    0    0  0.68014768207E+02  0.12313626144E+02 -0.67294909078E+02  0.96474032106E+02  0.10000000000E+01 0.  0.
    9000005    1    3    3    0    0 -0.47392147214E+02  0.17030866416E+02 -0.13420520480E+03  0.14334609526E+03  0.10000000000E+01 0.  0.
<mgrwt>
<rscale>  0 0.12094216E+03</rscale>
<asrwt>0</asrwt>
<pdfrwt beam="2">  1        2 0.58237490E-01 0.13004383E+03</pdfrwt>
<pdfrwt beam="1">  1       -2 0.52532349E-02 0.13004383E+03</pdfrwt>
<totfact> 0.14460656E+04</totfact>
</mgrwt>
</event>
<event>
 8    3  0.1559595E-003  0.1334200E+03  0.7818608E-02  0.1237551E+00
         -2   -1    0    0    0  501 -0.00000000000E+00  0.00000000000E+00  0.11854469548E+02  0.11854469822E+02  0.25500000000E-02 0.  1.
          2   -1    0    0  501    0  0.00000000000E+00 -0.00000000000E+00 -0.16029886891E+04  0.16029886891E+04  0.25500000000E-02 0. -1.
         25    2    1    2    0    0  0.10615252891E+02  0.45411780868E+02 -0.13183909425E+04  0.13251247426E+04  0.12500397164E+03 0.  0.
         23    2    1    2    0    0 -0.10615252891E+02 -0.45411780868E+02 -0.27274327708E+03  0.28971841629E+03  0.85865896064E+02 0.  0.
        -13    1    4    4    0    0  0.18854239719E+01 -0.68376668199E+02 -0.22640177208E+03  0.23650940181E+03  0.10566000000E+00 0. -1.
         13    1    4    4    0    0 -0.12500676863E+02  0.22964887331E+02 -0.46341504998E+02  0.53209014477E+02  0.10566000000E+00 0.  1.
    9000005    1    3    3    0    0 -0.40123242608E+01 -0.42603756988E+02 -0.52156599125E+03  0.52331946466E+03  0.10000000000E+01 0.  0.
    9000005    1    3    3    0    0  0.14627577152E+02  0.88015537856E+02 -0.79682495121E+03  0.80180527797E+03  0.10000000000E+01 0.  0.
<mgrwt>
<rscale>  0 0.12342527E+03</rscale>
<asrwt>0</asrwt>
<pdfrwt beam="2">  1        2 0.24661347E+00 0.13342004E+03</pdfrwt>
<pdfrwt beam="1">  1       -2 0.18237658E-02 0.13342004E+03</pdfrwt>
<totfact> 0.10385726E+04</totfact>
</mgrwt>
</event>
<event>
 8    3  0.1559595E-003  0.1547719E+03  0.7818608E-02  0.1204393E+00
          2   -1    0    0  501    0  0.00000000000E+00  0.00000000000E+00  0.50636343865E+03  0.50636343865E+03  0.25500000000E-02 0. -1.
         -2   -1    0    0    0  501 -0.00000000000E+00 -0.00000000000E+00 -0.41389345784E+02  0.41389345863E+02  0.25500000000E-02 0.  1.
         25    2    1    2    0    0 -0.73111092215E+02 -0.54605663995E+02  0.32384142815E+03  0.35892562847E+03  0.12500930302E+03 0.  0.
         23    2    1    2    0    0  0.73111092215E+02  0.54605663995E+02  0.14113266471E+03  0.18882715605E+03  0.86082840718E+02 0.  0.
        -13    1    4    4    0    0  0.33796472236E+02  0.57868736151E+02  0.35009451698E+02  0.75608630668E+02  0.10566000000E+00 0. -1.
         13    1    4    4    0    0  0.39314619979E+02 -0.32630721554E+01  0.10612321302E+03  0.11321852538E+03  0.10566000000E+00 0.  1.
    9000005    1    3    3    0    0 -0.46048834424E+02 -0.90470647087E+02  0.27193631365E+03  0.29026848230E+03  0.10000000000E+01 0.  0.
    9000005    1    3    3    0    0 -0.27062257791E+02  0.35864983092E+02  0.51905114501E+02  0.68657146171E+02  0.10000000000E+01 0.  0.
<mgrwt>
<rscale>  0 0.14685381E+03</rscale>
<asrwt>0</asrwt>
<pdfrwt beam="1">  1        2 0.77902069E-01 0.15477188E+03</pdfrwt>
<pdfrwt beam="2">  1       -2 0.63675915E-02 0.15477188E+03</pdfrwt>
<totfact> 0.79869032E+03</totfact>
</mgrwt>
</event>
<event>
 8    3  0.1559595E-003  0.1382209E+03  0.7818608E-02  0.1227318E+00
         -2   -1    0    0    0  501 -0.00000000000E+00  0.00000000000E+00  0.34163510622E+02  0.34163510717E+02  0.25500000000E-02 0.  1.
          2   -1    0    0  501    0  0.00000000000E+00 -0.00000000000E+00 -0.45445029310E+03  0.45445029311E+03  0.25500000000E-02 0. -1.
         25    2    1    2    0    0  0.35428301950E+02 -0.47170752484E+02 -0.20059542560E+03  0.24360530006E+03  0.12499909191E+03 0.  0.
         23    2    1    2    0    0 -0.35428301950E+02  0.47170752484E+02 -0.21969135688E+03  0.24500850377E+03  0.91019943746E+02 0.  0.
        -13    1    4    4    0    0  0.79307344029E+01  0.61181849319E+02 -0.14400705128E+03  0.15666574998E+03  0.10566000000E+00 0. -1.
         13    1    4    4    0    0 -0.43359036353E+02 -0.14011096834E+02 -0.75684305608E+02  0.88342753791E+02  0.10566000000E+00 0.  1.
    9000005    1    3    3    0    0 -0.33289173119E+02 -0.50700114043E+02 -0.13731777243E+03  0.15011942325E+03  0.10000000000E+01 0.  0.
    9000005    1    3    3    0    0  0.68717475070E+02  0.35293615590E+01 -0.63277653164E+02  0.93485876810E+02  0.10000000000E+01 0.  0.
<mgrwt>
<rscale>  0 0.13009293E+03</rscale>
<asrwt>0</asrwt>
<pdfrwt beam="2">  1        2 0.69915425E-01 0.13822090E+03</pdfrwt>
<pdfrwt beam="1">  1       -2 0.52559250E-02 0.13822090E+03</pdfrwt>
<totfact> 0.11934808E+04</totfact>
</mgrwt>
</event>
<event>
 8    3  0.1559595E-003  0.1514704E+03  0.7818608E-02  0.1207713E+00
         -2   -1    0    0    0  501 -0.00000000000E+00  0.00000000000E+00  0.15884552716E+02  0.15884552920E+02  0.25500000000E-02 0.  1.
          2   -1    0    0  501    0  0.00000000000E+00 -0.00000000000E+00 -0.17858872322E+04  0.17858872322E+04  0.25500000000E-02 0. -1.
         25    2    1    2    0    0  0.79117634813E+02  0.32463338424E+02 -0.14573476942E+04  0.14651981346E+04  0.12501921203E+03 0.  0.
         23    2    1    2    0    0 -0.79117634813E+02 -0.32463338424E+02 -0.31265498530E+03  0.33657365053E+03  0.90637817275E+02 0.  0.
        -13    1    4    4    0    0 -0.32881240123E+02 -0.55664055150E+02 -0.11163471955E+03  0.12900381684E+03  0.10566000000E+00 0.  1.
         13    1    4    4    0    0 -0.46236394690E+02  0.23200716727E+02 -0.20102026575E+03  0.20756983369E+03  0.10566000000E+00 0. -1.
    9000005    1    3    3    0    0 -0.14439588264E+02 -0.33203974475E+02 -0.28548204731E+03  0.28777075071E+03  0.10000000000E+01 0.  0.
    9000005    1    3    3    0    0  0.93557223077E+02  0.65667312899E+02 -0.11718656469E+04  0.11774273839E+04  0.10000000000E+01 0.  0.
<mgrwt>
<rscale>  0 0.14425723E+03</rscale>
<asrwt>0</asrwt>
<pdfrwt beam="2">  1        2 0.27475172E+00 0.15147037E+03</pdfrwt>
<pdfrwt beam="1">  1       -2 0.24437788E-02 0.15147037E+03</pdfrwt>
<totfact> 0.54843219E+03</totfact>
</mgrwt>
</event>
<event>
 8    3  0.1559595E-003  0.1380499E+03  0.7818608E-02  0.1227895E+00
         -2   -1    0    0    0  501 -0.00000000000E+00  0.00000000000E+00  0.26757166720E+02  0.26757166841E+02  0.25500000000E-02 0.  1.
          2   -1    0    0  501    0  0.00000000000E+00 -0.00000000000E+00 -0.66812228984E+03  0.66812228985E+03  0.25500000000E-02 0. -1.
         25    2    1    2    0    0  0.58559186321E+02  0.19363677109E+01 -0.21778544164E+03  0.25785319934E+03  0.12499938398E+03 0.  0.
         23    2    1    2    0    0 -0.58559186321E+02 -0.19363677109E+01 -0.42357968148E+03  0.43702625735E+03  0.90217931850E+02 0.  0.
        -13    1    4    4    0    0 -0.56104349625E+02 -0.35990762305E+02 -0.19901750748E+03  0.20988333060E+03  0.10566000000E+00 0.  1.
         13    1    4    4    0    0 -0.24548366962E+01  0.34054394594E+02 -0.22456217400E+03  0.22714292675E+03  0.10566000000E+00 0. -1.
    9000005    1    3    3    0    0  0.84406655897E+02  0.37440822456E+02 -0.16590933019E+03  0.18987681425E+03  0.10000000000E+01 0.  0.
    9000005    1    3    3    0    0 -0.25847469576E+02 -0.35504454745E+02 -0.51876111449E+02  0.67976385085E+02  0.10000000000E+01 0.  0.
<mgrwt>
<rscale>  0 0.12970421E+03</rscale>
<asrwt>0</asrwt>
<pdfrwt beam="2">  1        2 0.10278803E+00 0.13804990E+03</pdfrwt>
<pdfrwt beam="1">  1       -2 0.41164877E-02 0.13804990E+03</pdfrwt>
<totfact> 0.11168777E+04</totfact>
</mgrwt>
</event>
<event>
 8    3  0.1559595E-003  0.1487789E+03  0.7818608E-02  0.1211729E+00
         -2   -1    0    0    0  501 -0.00000000000E+00  0.00000000000E+00  0.65053726187E+01  0.65053731185E+01  0.25500000000E-02 0.  1.
          2   -1    0    0  501    0  0.00000000000E+00 -0.00000000000E+00 -0.31741668464E+04  0.31741668464E+04  0.25500000000E-02 0. -1.
         25    2    1    2    0    0 -0.76212351604E+02  0.26449107939E+02 -0.22792487994E+04  0.22840994396E+04  0.12500912950E+03 0.  0.
         23    2    1    2    0    0  0.76212351604E+02 -0.26449107939E+02 -0.88841267435E+03  0.89657277992E+03  0.89765204206E+02 0.  0.
        -13    1    4    4    0    0  0.88274074246E+01 -0.48638247081E+02 -0.33358580357E+03  0.33722856004E+03  0.10566000000E+00 0.  1.
         13    1    4    4    0    0  0.67384944180E+02  0.22189139142E+02 -0.55482687078E+03  0.55934421987E+03  0.10566000000E+00 0. -1.
    9000005    1    3    3    0    0 -0.51767609774E+02 -0.46498943945E+02 -0.88674313662E+03  0.88946974515E+03  0.10000000000E+01 0.  0.
    9000005    1    3    3    0    0 -0.24444741830E+02  0.72948051884E+02 -0.13925056628E+04  0.13946296944E+04  0.10000000000E+01 0.  0.
<mgrwt>
<rscale>  0 0.14119597E+03</rscale>
<asrwt>0</asrwt>
<pdfrwt beam="2">  1        2 0.48833213E+00 0.14877890E+03</pdfrwt>
<pdfrwt beam="1">  1       -2 0.10008291E-02 0.14877890E+03</pdfrwt>
<totfact> 0.35303666E+03</totfact>
</mgrwt>
</event>
<event>
 8    3  0.1559595E-003  0.1279635E+03  0.7818608E-02  0.1245229E+00
          2   -1    0    0  501    0  0.00000000000E+00  0.00000000000E+00  0.21222245089E+04  0.21222245089E+04  0.25500000000E-02 0.  1.
         -2   -1    0    0    0  501 -0.00000000000E+00 -0.00000000000E+00 -0.58945875922E+01  0.58945881438E+01  0.25500000000E-02 0. -1.
         25    2    1    2    0    0 -0.24299376365E+01  0.27276841084E+02  0.13104053902E+04  0.13166385010E+04  0.12499890028E+03 0.  0.
         23    2    1    2    0    0  0.24299376365E+01 -0.27276841084E+02  0.80592453109E+03  0.81148059600E+03  0.90755039595E+02 0.  0.
        -13    1    4    4    0    0  0.15146356899E+02  0.16388051116E+02  0.60754602439E+03  0.60795572475E+03  0.10566000000E+00 0.  1.
         13    1    4    4    0    0 -0.12716419262E+02 -0.43664892200E+02  0.19837850670E+03  0.20352487125E+03  0.10566000000E+00 0. -1.
    9000005    1    3    3    0    0  0.19237653281E+02  0.52882427760E+02  0.27554815901E+03  0.28123731332E+03  0.10000000000E+01 0.  0.
    9000005    1    3    3    0    0 -0.21667590918E+02 -0.25605586676E+02  0.10348572312E+04  0.10354011877E+04  0.10000000000E+01 0.  0.
<mgrwt>
<rscale>  0 0.11871698E+03</rscale>
<asrwt>0</asrwt>
<pdfrwt beam="1">  1        2 0.32649655E+00 0.12796349E+03</pdfrwt>
<pdfrwt beam="2">  1       -2 0.90685836E-03 0.12796349E+03</pdfrwt>
<totfact> 0.15347663E+04</totfact>
</mgrwt>
</event>
<event>
 8    3  0.1559595E-003  0.1610319E+03  0.7818608E-02  0.1194810E+00
          2   -1    0    0  501    0  0.00000000000E+00  0.00000000000E+00  0.14589071891E+03  0.14589071893E+03  0.25500000000E-02 0. -1.
         -2   -1    0    0    0  501 -0.00000000000E+00 -0.00000000000E+00 -0.15366078608E+03  0.15366078610E+03  0.25500000000E-02 0.  1.
         25    2    1    2    0    0  0.10080009681E+03  0.12060387552E+02  0.94242462641E+01  0.16130739991E+03  0.12500059353E+03 0.  0.
         23    2    1    2    0    0 -0.10080009681E+03 -0.12060387552E+02 -0.17194313435E+02  0.13824410512E+03  0.92247903621E+02 0.  0.
        -13    1    4    4    0    0  0.81274410450E+00 -0.27605576688E+02  0.13805968460E+02  0.30876274815E+02  0.10566000000E+00 0.  1.
         13    1    4    4    0    0 -0.10161284091E+03  0.15545189136E+02 -0.31000281896E+02  0.10736783031E+03  0.10566000000E+00 0. -1.
    9000005    1    3    3    0    0  0.12807911981E+03  0.60419625150E+01 -0.78194536304E+01  0.12846365283E+03  0.10000000000E+01 0.  0.
    9000005    1    3    3    0    0 -0.27279023005E+02  0.60184250370E+01  0.17243699894E+02  0.32843747077E+02  0.10000000000E+01 0.  0.
<mgrwt>
<rscale>  0 0.15470315E+03</rscale>
<asrwt>0</asrwt>
<pdfrwt beam="1">  1        2 0.22444726E-01 0.16103186E+03</pdfrwt>
<pdfrwt beam="2">  1       -2 0.23640121E-01 0.16103186E+03</pdfrwt>
<totfact> 0.37005942E+03</totfact>
</mgrwt>
</event>
<event>
 8    3  0.1559595E-003  0.1254262E+03  0.7818608E-02  0.1248824E+00
         -2   -1    0    0    0  501 -0.00000000000E+00  0.00000000000E+00  0.50136279393E+02  0.50136279457E+02  0.25500000000E-02 0.  1.
          2   -1    0    0  501    0  0.00000000000E+00 -0.00000000000E+00 -0.32350960119E+03  0.32350960120E+03  0.25500000000E-02 0. -1.
         25    2    1    2    0    0 -0.10313341558E+02  0.95518734744E+00 -0.56798381184E+02  0.13768724407E+03  0.12499777469E+03 0.  0.
         23    2    1    2    0    0  0.10313341558E+02 -0.95518734744E+00 -0.21657494061E+03  0.23595863659E+03  0.93083273917E+02 0.  0.
        -13    1    4    4    0    0  0.39418929924E+02  0.12157774335E+01 -0.19677867233E+03  0.20069177163E+03  0.10566000000E+00 0. -1.
         13    1    4    4    0    0 -0.29105588366E+02 -0.21709647810E+01 -0.19796268279E+02  0.35266864959E+02  0.10566000000E+00 0.  1.
    9000005    1    3    3    0    0  0.31292388606E+02  0.18956245219E+02 -0.79098949564E+02  0.87156162373E+02  0.10000000000E+01 0.  0.
    9000005    1    3    3    0    0 -0.41605730164E+02 -0.18001057871E+02  0.22300568380E+02  0.50531081693E+02  0.10000000000E+01 0.  0.
<mgrwt>
<rscale>  0 0.11659422E+03</rscale>
<asrwt>0</asrwt>
<pdfrwt beam="2">  1        2 0.49770707E-01 0.12542616E+03</pdfrwt>
<pdfrwt beam="1">  1       -2 0.77132740E-02 0.12542616E+03</pdfrwt>
<totfact> 0.95014298E+03</totfact>
</mgrwt>
</event>
<event>
 8    3  0.1559595E-003  0.1279061E+03  0.7818608E-02  0.1244670E+00
         -2   -1    0    0    0  501 -0.00000000000E+00  0.00000000000E+00  0.27737657383E+02  0.27737657501E+02  0.25500000000E-02 0.  1.
          2   -1    0    0  501    0  0.00000000000E+00 -0.00000000000E+00 -0.45547653961E+03  0.45547653962E+03  0.25500000000E-02 0. -1.
         25    2    1    2    0    0  0.13050253468E+02  0.23777983372E+02 -0.22278402070E+03  0.25689041913E+03  0.12499706377E+03 0.  0.
         23    2    1    2    0    0 -0.13050253468E+02 -0.23777983372E+02 -0.20495486153E+03  0.22632377799E+03  0.92088303338E+02 0.  0.
        -13    1    4    4    0    0 -0.24060289813E+02 -0.55981483559E+02 -0.14677544788E+03  0.15892094674E+03  0.10566000000E+00 0.  1.
         13    1    4    4    0    0  0.11010036345E+02  0.32203500188E+02 -0.58179413646E+02  0.67402831253E+02  0.10566000000E+00 0. -1.
    9000005    1    3    3    0    0  0.25829979696E+02  0.53777922315E+02 -0.21530531394E+03  0.22342030120E+03  0.10000000000E+01 0.  0.
    9000005    1    3    3    0    0 -0.12779726228E+02 -0.29999938943E+02 -0.74787067625E+01  0.33470117925E+02  0.10000000000E+01 0.  0.
<mgrwt>
<rscale>  0 0.11905180E+03</rscale>
<asrwt>0</asrwt>
<pdfrwt beam="2">  1        2 0.70073309E-01 0.12790609E+03</pdfrwt>
<pdfrwt beam="1">  1       -2 0.42673322E-02 0.12790609E+03</pdfrwt>
<totfact> 0.16164015E+04</totfact>
</mgrwt>
</event>
<event>
 8    3  0.1559595E-003  0.1920484E+03  0.7818608E-02  0.1161579E+00
         -2   -1    0    0    0  501 -0.00000000000E+00  0.00000000000E+00  0.58847892034E+02  0.58847892089E+02  0.25500000000E-02 0.  1.
          2   -1    0    0  501    0  0.00000000000E+00 -0.00000000000E+00 -0.62552308424E+03  0.62552308425E+03  0.25500000000E-02 0. -1.
         25    2    1    2    0    0 -0.14183913585E+03  0.33706207692E+02 -0.18760953765E+03  0.26847708348E+03  0.12501262671E+03 0.  0.
         23    2    1    2    0    0  0.14183913585E+03 -0.33706207692E+02 -0.37906565455E+03  0.41589389286E+03  0.89568469659E+02 0.  0.
        -13    1    4    4    0    0  0.84363250340E+02 -0.49283373022E+01 -0.10704570477E+03  0.13638269901E+03  0.10566000000E+00 0.  1.
         13    1    4    4    0    0  0.57475885515E+02 -0.28777870390E+02 -0.27201994978E+03  0.27951119384E+03  0.10566000000E+00 0. -1.
    9000005    1    3    3    0    0 -0.10322159884E+03  0.77961788663E+02 -0.10241380179E+03  0.16499189603E+03  0.10000000000E+01 0.  0.
    9000005    1    3    3    0    0 -0.38617537016E+02 -0.44255580970E+02 -0.85195735860E+02  0.10348518745E+03  0.10000000000E+01 0.  0.
<mgrwt>
<rscale>  0 0.18658376E+03</rscale>
<asrwt>0</asrwt>
<pdfrwt beam="2">  1        2 0.96234316E-01 0.19204845E+03</pdfrwt>
<pdfrwt beam="1">  1       -2 0.90535223E-02 0.19204845E+03</pdfrwt>
<totfact> 0.36824581E+03</totfact>
</mgrwt>
</event>
<event>
 8    3  0.1559595E-003  0.1251074E+03  0.7818608E-02  0.1250429E+00
          2   -1    0    0  501    0  0.00000000000E+00  0.00000000000E+00  0.94641127539E+03  0.94641127539E+03  0.25500000000E-02 0. -1.
         -2   -1    0    0    0  501 -0.00000000000E+00 -0.00000000000E+00 -0.18639997445E+02  0.18639997620E+02  0.25500000000E-02 0.  1.
         25    2    1    2    0    0 -0.10169635256E+01  0.51770319644E+01  0.78919920670E+03  0.79905396882E+03  0.12499608541E+03 0.  0.
         23    2    1    2    0    0  0.10169635256E+01 -0.51770319644E+01  0.13857207125E+03  0.16599730419E+03  0.91241713012E+02 0.  0.
        -13    1    4    4    0    0 -0.34383080332E+01  0.11173441958E+02 -0.10650840445E+02  0.15815161508E+02  0.10566000000E+00 0.  1.
         13    1    4    4    0    0  0.44552715588E+01 -0.16350473922E+02  0.14922291169E+03  0.15018214268E+03  0.10566000000E+00 0. -1.
    9000005    1    3    3    0    0  0.51144603251E+01  0.49282556555E+02  0.14342207774E+03  0.15174261256E+03  0.10000000000E+01 0.  0.
    9000005    1    3    3    0    0 -0.61314238507E+01 -0.44105524590E+02  0.64577712896E+03  0.64731135626E+03  0.10000000000E+01 0.  0.
<mgrwt>
<rscale>  0 0.11566229E+03</rscale>
<asrwt>0</asrwt>
<pdfrwt beam="1">  1        2 0.14560169E+00 0.12510738E+03</pdfrwt>
<pdfrwt beam="2">  1       -2 0.28676928E-02 0.12510738E+03</pdfrwt>
<totfact> 0.12271136E+04</totfact>
</mgrwt>
</event>
<event>
 8    3  0.1559595E-003  0.1818512E+03  0.7818608E-02  0.1171439E+00
          2   -1    0    0  501    0  0.00000000000E+00  0.00000000000E+00  0.62002380802E+02  0.62002380855E+02  0.25500000000E-02 0.  1.
         -2   -1    0    0    0  501 -0.00000000000E+00 -0.00000000000E+00 -0.62093568292E+03  0.62093568292E+03  0.25500000000E-02 0. -1.
         25    2    1    2    0    0  0.12867114571E+03 -0.29802504926E+02 -0.12618306564E+03  0.22134141280E+03  0.12500160771E+03 0.  0.
         23    2    1    2    0    0 -0.12867114571E+03  0.29802504926E+02 -0.43275023648E+03  0.46159665098E+03  0.91401575386E+02 0.  0.
        -13    1    4    4    0    0 -0.53839179490E+02 -0.31438885719E+02 -0.20206214255E+03  0.21146200935E+03  0.10566000000E+00 0.  1.
         13    1    4    4    0    0 -0.74831966221E+02  0.61241390645E+02 -0.23068809393E+03  0.25013464163E+03  0.10566000000E+00 0. -1.
    9000005    1    3    3    0    0  0.47316554570E+02 -0.33384655736E+02 -0.12734140399E+03  0.13989361939E+03  0.10000000000E+01 0.  0.
    9000005    1    3    3    0    0  0.81354591141E+02  0.35821508103E+01  0.11583383534E+01  0.81447793414E+02  0.10000000000E+01 0.  0.
<mgrwt>
<rscale>  0 0.17629372E+03</rscale>
<asrwt>0</asrwt>
<pdfrwt beam="1">  1        2 0.95388283E-02 0.18185119E+03</pdfrwt>
<pdfrwt beam="2">  1       -2 0.95528562E-01 0.18185119E+03</pdfrwt>
<totfact> 0.64226462E+02</totfact>
</mgrwt>
</event>
<event>
 8    3  0.1559595E-003  0.1600493E+03  0.7818608E-02  0.1196402E+00
          2   -1    0    0  501    0  0.00000000000E+00  0.00000000000E+00  0.55596612635E+03  0.55596612635E+03  0.25500000000E-02 0. -1.
         -2   -1    0    0    0  501 -0.00000000000E+00 -0.00000000000E+00 -0.47303212436E+02  0.47303212504E+02  0.25500000000E-02 0.  1.
         25    2    1    2    0    0  0.63733901736E+02 -0.77000318837E+02  0.14721782329E+03  0.21746000710E+03  0.12499883145E+03 0.  0.
         23    2    1    2    0    0 -0.63733901736E+02  0.77000318837E+02  0.36144509062E+03  0.38580933175E+03  0.90637892752E+02 0.  0.
        -13    1    4    4    0    0 -0.48215458843E+02 -0.62151903719E+01  0.16217546365E+03  0.16930520144E+03  0.10566000000E+00 0. -1.
         13    1    4    4    0    0 -0.15518442893E+02  0.83215509209E+02  0.19926962697E+03  0.21650413031E+03  0.10566000000E+00 0.  1.
    9000005    1    3    3    0    0 -0.43000303106E+01 -0.78904496525E+02  0.35491282111E+02  0.86631639361E+02  0.10000000000E+01 0.  0.
    9000005    1    3    3    0    0  0.68033932046E+02  0.19041776873E+01  0.11172654118E+03  0.13082836774E+03  0.10000000000E+01 0.  0.
<mgrwt>
<rscale>  0 0.15336206E+03</rscale>
<asrwt>0</asrwt>
<pdfrwt beam="1">  1        2 0.85533244E-01 0.16004926E+03</pdfrwt>
<pdfrwt beam="2">  1       -2 0.72774179E-02 0.16004926E+03</pdfrwt>
<totfact> 0.58745145E+03</totfact>
</mgrwt>
</event>
<event>
 8    3  0.1559595E-003  0.1453428E+03  0.7818608E-02  0.1216488E+00
         -2   -1    0    0    0  501 -0.00000000000E+00  0.00000000000E+00  0.68003441904E+02  0.68003441952E+02  0.25500000000E-02 0.  1.
          2   -1    0    0  501    0  0.00000000000E+00 -0.00000000000E+00 -0.35165040543E+03  0.35165040544E+03  0.25500000000E-02 0. -1.
         25    2    1    2    0    0 -0.99847469712E+01 -0.73468016210E+02 -0.42204782193E+02  0.15134652832E+03  0.12500913333E+03 0.  0.
         23    2    1    2    0    0  0.99847469712E+01  0.73468016210E+02 -0.24144218133E+03  0.26830731907E+03  0.90538643481E+02 0.  0.
        -13    1    4    4    0    0 -0.14333334541E+02  0.56526057602E+02 -0.22874981652E+03  0.23606594288E+03  0.10566000000E+00 0. -1.
         13    1    4    4    0    0  0.24318081513E+02  0.16941958608E+02 -0.12692364809E+02  0.32241376187E+02  0.10566000000E+00 0.  1.
    9000005    1    3    3    0    0 -0.46991418421E+02 -0.23079022680E+02 -0.66172527100E+02  0.84383873079E+02  0.10000000000E+01 0.  0.
    9000005    1    3    3    0    0  0.37006671449E+02 -0.50388993530E+02  0.23967744907E+02  0.66962655239E+02  0.10000000000E+01 0.  0.
<mgrwt>
<rscale>  0 0.13767762E+03</rscale>
<asrwt>0</asrwt>
<pdfrwt beam="2">  1        2 0.54100062E-01 0.14534279E+03</pdfrwt>
<pdfrwt beam="1">  1       -2 0.10462068E-01 0.14534279E+03</pdfrwt>
<totfact> 0.54615909E+03</totfact>
</mgrwt>
</event>
<event>
 8    3  0.1559595E-003  0.1353618E+03  0.7818608E-02  0.1239037E+00
         -2   -1    0    0    0  501 -0.00000000000E+00  0.00000000000E+00  0.11362037181E+03  0.11362037184E+03  0.25500000000E-02 0.  1.
          2   -1    0    0  501    0  0.00000000000E+00 -0.00000000000E+00 -0.11300225376E+03  0.11300225379E+03  0.25500000000E-02 0. -1.
         25    2    1    2    0    0 -0.51573232957E+02 -0.57715336190E+01 -0.68677990666E+01  0.13553587385E+03  0.12501878850E+03 0.  0.
         23    2    1    2    0    0  0.51573232957E+02  0.57715336190E+01  0.74859171127E+01  0.91086751780E+02  0.74482537798E+02 0.  0.
        -13    1    4    4    0    0 -0.23110681602E+01 -0.15080362271E+02 -0.21564915629E+02  0.26416190346E+02  0.10566000000E+00 0. -1.
         13    1    4    4    0    0  0.53884301117E+02  0.20851895890E+02  0.29050832742E+02  0.64670561434E+02  0.10566000000E+00 0.  1.
    9000005    1    3    3    0    0  0.19723019447E+02  0.37100452329E+02 -0.26975303981E+02  0.49941046084E+02  0.10000000000E+01 0.  0.
    9000005    1    3    3    0    0 -0.71296252404E+02 -0.42871985948E+02  0.20107504915E+02  0.85594827764E+02  0.10000000000E+01 0.  0.
<mgrwt>
<rscale>  0 0.12249487E+03</rscale>
<asrwt>0</asrwt>
<pdfrwt beam="2">  1        2 0.17384962E-01 0.13536176E+03</pdfrwt>
<pdfrwt beam="1">  1       -2 0.17480057E-01 0.13536176E+03</pdfrwt>
<totfact> 0.81689578E+03</totfact>
</mgrwt>
</event>
<event>
 8    3  0.1559595E-003  0.1748225E+03  0.7818608E-02  0.1179130E+00
          2   -1    0    0  501    0  0.00000000000E+00  0.00000000000E+00  0.23938019889E+04  0.23938019889E+04  0.25500000000E-02 0.  1.
         -2   -1    0    0    0  501 -0.00000000000E+00 -0.00000000000E+00 -0.12078890014E+02  0.12078890283E+02  0.25500000000E-02 0. -1.
         25    2    1    2    0    0  0.10104125503E+03 -0.68751657827E+02  0.93452614381E+03  0.95073761949E+03  0.12500712771E+03 0.  0.
         23    2    1    2    0    0 -0.10104125503E+03  0.68751657827E+02  0.14471969551E+04  0.14551432597E+04  0.90148509594E+02 0.  0.
        -13    1    4    4    0    0 -0.95521240130E+02  0.88296118840E+02  0.13114785390E+04  0.13179136851E+04  0.10566000000E+00 0.  1.
         13    1    4    4    0    0 -0.55200148977E+01 -0.19544461013E+02  0.13571841607E+03  0.13722957460E+03  0.10566000000E+00 0. -1.
    9000005    1    3    3    0    0  0.12551711175E+03 -0.36622308446E+02  0.62079284220E+03  0.63441350218E+03  0.10000000000E+01 0.  0.
    9000005    1    3    3    0    0 -0.24475856727E+02 -0.32129349381E+02  0.31373330161E+03  0.31632411731E+03  0.10000000000E+01 0.  0.
<mgrwt>
<rscale>  0 0.16877658E+03</rscale>
<asrwt>0</asrwt>
<pdfrwt beam="1">  1        2 0.36827720E+00 0.17482250E+03</pdfrwt>
<pdfrwt beam="2">  1       -2 0.18582909E-02 0.17482250E+03</pdfrwt>
<totfact> 0.39580499E+03</totfact>
</mgrwt>
</event>
<event>
 8    3  0.1559595E-003  0.1480822E+03  0.7818608E-02  0.1211657E+00
         -2   -1    0    0    0  501 -0.00000000000E+00  0.00000000000E+00  0.17026945799E+02  0.17026945990E+02  0.25500000000E-02 0. -1.
          2   -1    0    0  501    0  0.00000000000E+00 -0.00000000000E+00 -0.15323103733E+04  0.15323103733E+04  0.25500000000E-02 0.  1.
         25    2    1    2    0    0 -0.50760393936E+02 -0.61046065982E+02 -0.38616646008E+03  0.41358539066E+03  0.12500040287E+03 0.  0.
         23    2    1    2    0    0  0.50760393936E+02  0.61046065982E+02 -0.11291169675E+04  0.11357519287E+04  0.93402770273E+02 0.  0.
        -13    1    4    4    0    0 -0.27045692111E+02  0.13848463606E+02 -0.35697308897E+03  0.35826393457E+03  0.10566000000E+00 0. -1.
         13    1    4    4    0    0  0.77806086047E+02  0.47197602375E+02 -0.77214387850E+03  0.77748799410E+03  0.10566000000E+00 0.  1.
    9000005    1    3    3    0    0 -0.24930099585E+01  0.23500174365E+02 -0.11172833274E+02  0.26159233499E+02  0.10000000000E+01 0.  0.
    9000005    1    3    3    0    0 -0.48267383977E+02 -0.84546240347E+02 -0.37499362680E+03  0.38742615716E+03  0.10000000000E+01 0.  0.
<mgrwt>
<rscale>  0 0.14124964E+03</rscale>
<asrwt>0</asrwt>
<pdfrwt beam="2">  1        2 0.23573995E+00 0.14808221E+03</pdfrwt>
<pdfrwt beam="1">  1       -2 0.26195314E-02 0.14808221E+03</pdfrwt>
<totfact> 0.66922426E+03</totfact>
</mgrwt>
</event>
<event>
 8    3  0.1559595E-003  0.1383201E+03  0.7818608E-02  0.1227270E+00
          2   -1    0    0  501    0  0.00000000000E+00  0.00000000000E+00  0.87175887363E+03  0.87175887363E+03  0.25500000000E-02 0. -1.
         -2   -1    0    0    0  501 -0.00000000000E+00 -0.00000000000E+00 -0.34283553124E+02  0.34283553219E+02  0.25500000000E-02 0.  1.
         25    2    1    2    0    0 -0.50861371097E+02  0.30385648677E+02  0.12837407272E+03  0.18871233058E+03  0.12498909732E+03 0.  0.
         23    2    1    2    0    0  0.50861371097E+02 -0.30385648677E+02  0.70910124779E+03  0.71733009628E+03  0.90706784191E+02 0.  0.
        -13    1    4    4    0    0  0.67294109543E+02  0.63602297353E+01  0.41049822281E+03  0.41602614317E+03  0.10566000000E+00 0.  1.
         13    1    4    4    0    0 -0.16432738446E+02 -0.36745878412E+02  0.29860302497E+03  0.30130395311E+03  0.10566000000E+00 0. -1.
    9000005    1    3    3    0    0 -0.43765490026E+02  0.72246450669E+02  0.11777910961E+03  0.14494097562E+03  0.10000000000E+01 0.  0.
    9000005    1    3    3    0    0 -0.70958810708E+01 -0.41860801993E+02  0.10594963107E+02  0.43771354958E+02  0.10000000000E+01 0.  0.
<mgrwt>
<rscale>  0 0.13012557E+03</rscale>
<asrwt>0</asrwt>
<pdfrwt beam="1">  1        2 0.13411674E+00 0.13832007E+03</pdfrwt>
<pdfrwt beam="2">  1       -2 0.52743931E-02 0.13832007E+03</pdfrwt>
<totfact> 0.55628878E+03</totfact>
</mgrwt>
</event>
<event>
 8    3  0.1559595E-003  0.1273721E+03  0.7818608E-02  0.1246770E+00
         -2   -1    0    0    0  501 -0.00000000000E+00  0.00000000000E+00  0.41990193105E+02  0.41990193182E+02  0.25500000000E-02 0.  1.
          2   -1    0    0  501    0  0.00000000000E+00 -0.00000000000E+00 -0.36883830623E+03  0.36883830624E+03  0.25500000000E-02 0. -1.
         25    2    1    2    0    0 -0.12466430215E+02  0.21045252347E+02 -0.89026307753E+02  0.15540057641E+03  0.12500136459E+03 0.  0.
         23    2    1    2    0    0  0.12466430215E+02 -0.21045252347E+02 -0.23782180537E+03  0.25542792301E+03  0.89921622616E+02 0.  0.
        -13    1    4    4    0    0 -0.76569152480E+01  0.17712151555E+02 -0.70245140222E+01  0.20535423665E+02  0.10566000000E+00 0.  1.
         13    1    4    4    0    0  0.20123345463E+02 -0.38757403902E+02 -0.23079729135E+03  0.23489249935E+03  0.10566000000E+00 0. -1.
    9000005    1    3    3    0    0 -0.59000160504E+02 -0.20844918241E+02 -0.30216825567E+02  0.69495223601E+02  0.10000000000E+01 0.  0.
    9000005    1    3    3    0    0  0.46533730289E+02  0.41890170588E+02 -0.58809482186E+02  0.85905352811E+02  0.10000000000E+01 0.  0.
<mgrwt>
<rscale>  0 0.11780048E+03</rscale>
<asrwt>0</asrwt>
<pdfrwt beam="2">  1        2 0.56744353E-01 0.12737211E+03</pdfrwt>
<pdfrwt beam="1">  1       -2 0.64600299E-02 0.12737211E+03</pdfrwt>
<totfact> 0.10856238E+04</totfact>
</mgrwt>
</event>
<event>
 8    3  0.1559595E-003  0.1288600E+03  0.7818608E-02  0.1229747E+00
         -2   -1    0    0    0  501 -0.00000000000E+00  0.00000000000E+00  0.58220872083E+02  0.58220872139E+02  0.25500000000E-02 0.  1.
          2   -1    0    0  501    0  0.00000000000E+00 -0.00000000000E+00 -0.32150123965E+03  0.32150123966E+03  0.25500000000E-02 0. -1.
         25    2    1    2    0    0 -0.83629478282E+01 -0.22575350869E+02 -0.64186498040E+02  0.14256547153E+03  0.12500168710E+03 0.  0.
         23    2    1    2    0    0  0.83629478282E+01  0.22575350869E+02 -0.19909386952E+03  0.23715664027E+03  0.12659114415E+03 0.  0.
        -13    1    4    4    0    0  0.28181667159E+02  0.82687475614E+01 -0.20880099060E+03  0.21085645210E+03  0.10566000000E+00 0. -1.
         13    1    4    4    0    0 -0.19818719331E+02  0.14306603307E+02  0.97071210770E+01  0.26300188170E+02  0.10566000000E+00 0.  1.
    9000005    1    3    3    0    0 -0.25987627967E+01 -0.74688756845E+02 -0.40724575709E+02  0.85115539320E+02  0.10000000000E+01 0.  0.
    9000005    1    3    3    0    0 -0.57641850315E+01  0.52113405976E+02 -0.23461922331E+02  0.57449932211E+02  0.10000000000E+01 0.  0.
<mgrwt>
<rscale>  0 0.12846795E+03</rscale>
<asrwt>0</asrwt>
<pdfrwt beam="2">  1        2 0.49461728E-01 0.12886001E+03</pdfrwt>
<pdfrwt beam="1">  1       -2 0.89570574E-02 0.12886001E+03</pdfrwt>
<totfact> 0.76053995E+03</totfact>
</mgrwt>
</event>
<event>
 8    3  0.1559595E-003  0.1282335E+03  0.7818608E-02  0.1244264E+00
          2   -1    0    0  501    0  0.00000000000E+00  0.00000000000E+00  0.10811986218E+03  0.10811986221E+03  0.25500000000E-02 0.  1.
         -2   -1    0    0    0  501 -0.00000000000E+00 -0.00000000000E+00 -0.12307709491E+03  0.12307709494E+03  0.25500000000E-02 0. -1.
         25    2    1    2    0    0 -0.28223883711E+02  0.47855805152E+01 -0.35330258633E+02  0.13301152983E+03  0.12499740197E+03 0.  0.
         23    2    1    2    0    0  0.28223883711E+02 -0.47855805152E+01  0.20373025902E+02  0.98185427323E+02  0.91683305795E+02 0.  0.
        -13    1    4    4    0    0  0.17201420048E+02 -0.42955202965E+02 -0.11001614729E+02  0.47561381436E+02  0.10566000000E+00 0. -1.
         13    1    4    4    0    0  0.11022463663E+02  0.38169622450E+02  0.31374640631E+02  0.50624045887E+02  0.10566000000E+00 0.  1.
    9000005    1    3    3    0    0  0.21480011461E+02  0.49597526295E+02 -0.37919464047E+02  0.66031744340E+02  0.10000000000E+01 0.  0.
    9000005    1    3    3    0    0 -0.49703895172E+02 -0.44811945780E+02  0.25892054134E+01  0.66979785492E+02  0.10000000000E+01 0.  0.
<mgrwt>
<rscale>  0 0.11929545E+03</rscale>
<asrwt>0</asrwt>
<pdfrwt beam="1">  1        2 0.16633825E-01 0.12823354E+03</pdfrwt>
<pdfrwt beam="2">  1       -2 0.18934938E-01 0.12823354E+03</pdfrwt>
<totfact> 0.74899217E+03</totfact>
</mgrwt>
</event>
<event>
 8    3  0.1559595E-003  0.1334646E+03  0.7818608E-02  0.1235485E+00
          2   -1    0    0  501    0  0.00000000000E+00  0.00000000000E+00  0.10080939317E+04  0.10080939317E+04  0.25500000000E-02 0.  1.
         -2   -1    0    0    0  501 -0.00000000000E+00 -0.00000000000E+00 -0.14009572404E+02  0.14009572636E+02  0.25500000000E-02 0. -1.
         25    2    1    2    0    0 -0.27042431532E+01 -0.46698289827E+02  0.63424117098E+03  0.64813166763E+03  0.12499900968E+03 0.  0.
         23    2    1    2    0    0  0.27042431532E+01  0.46698289827E+02  0.35984318833E+03  0.37397183672E+03  0.90442087924E+02 0.  0.
        -13    1    4    4    0    0  0.27715555348E+02  0.16369145820E+02  0.38280634535E+02  0.50015188569E+02  0.10566000000E+00 0. -1.
         13    1    4    4    0    0 -0.25011312195E+02  0.30329144007E+02  0.32156255379E+03  0.32395664815E+03  0.10566000000E+00 0.  1.
    9000005    1    3    3    0    0  0.27235015272E+02 -0.47295378271E+01  0.53998911278E+03  0.54069710237E+03  0.10000000000E+01 0.  0.
    9000005    1    3    3    0    0 -0.29939258425E+02 -0.41968752000E+02  0.94252058193E+02  0.10743456526E+03  0.10000000000E+01 0.  0.
<mgrwt>
<rscale>  0 0.12473417E+03</rscale>
<asrwt>0</asrwt>
<pdfrwt beam="1">  1        2 0.15509143E+00 0.13346459E+03</pdfrwt>
<pdfrwt beam="2">  1       -2 0.21553180E-02 0.13346459E+03</pdfrwt>
<totfact> 0.17160330E+04</totfact>
</mgrwt>
</event>
<event>
 8    3  0.1559595E-003  0.1466897E+03  0.7818608E-02  0.1216803E+00
          2   -1    0    0  501    0  0.00000000000E+00  0.00000000000E+00  0.43118740968E+03  0.43118740968E+03  0.25500000000E-02 0.  1.
         -2   -1    0    0    0  501 -0.00000000000E+00 -0.00000000000E+00 -0.89698640348E+02  0.89698640385E+02  0.25500000000E-02 0. -1.
         25    2    1    2    0    0 -0.75997596190E+02 -0.11084420272E+02  0.37522871160E+03  0.40288267366E+03  0.12497745287E+03 0.  0.
         23    2    1    2    0    0  0.75997596190E+02  0.11084420272E+02 -0.33739942272E+02  0.11800337641E+03  0.82993458419E+02 0.  0.
        -13    1    4    4    0    0  0.52147546512E+02 -0.14185365609E+01 -0.60605433462E+02  0.79965046004E+02  0.10566000000E+00 0. -1.
         13    1    4    4    0    0  0.23850049678E+02  0.12502956833E+02  0.26865491190E+02  0.38038330407E+02  0.10566000000E+00 0.  1.
    9000005    1    3    3    0    0 -0.89979831415E+02 -0.45736045226E+02  0.20382734054E+03  0.22745272178E+03  0.10000000000E+01 0.  0.
    9000005    1    3    3    0    0  0.13982235225E+02  0.34651624953E+02  0.17140137106E+03  0.17542995188E+03  0.10000000000E+01 0.  0.
<mgrwt>
<rscale>  0 0.13744953E+03</rscale>
<asrwt>0</asrwt>
<pdfrwt beam="1">  1        2 0.66336525E-01 0.14668968E+03</pdfrwt>
<pdfrwt beam="2">  1       -2 0.13799791E-01 0.14668968E+03</pdfrwt>
<totfact> 0.28201926E+03</totfact>
</mgrwt>
</event>
<event>
 8    3  0.1559595E-003  0.1347689E+03  0.7818608E-02  0.1231748E+00
         -2   -1    0    0    0  501 -0.00000000000E+00  0.00000000000E+00  0.59172517944E+01  0.59172523438E+01  0.25500000000E-02 0.  1.
          2   -1    0    0  501    0  0.00000000000E+00 -0.00000000000E+00 -0.24876191970E+04  0.24876191970E+04  0.25500000000E-02 0. -1.
         25    2    1    2    0    0 -0.34516481821E+02  0.36785570071E+02 -0.15012286977E+04  0.15072658208E+04  0.12497234154E+03 0.  0.
         23    2    1    2    0    0  0.34516481821E+02 -0.36785570071E+02 -0.98047324757E+03  0.98627062859E+03  0.94113749918E+02 0.  0.
        -13    1    4    4    0    0 -0.26474510583E+02 -0.24867843544E+02 -0.19581380641E+03  0.19915412950E+03  0.10566000000E+00 0.  1.
         13    1    4    4    0    0  0.60990992404E+02 -0.11917726527E+02 -0.78465944117E+03  0.78711649909E+03  0.10566000000E+00 0. -1.
    9000005    1    3    3    0    0 -0.21664657110E+02 -0.33872415655E+02 -0.19715975810E+03  0.20122044659E+03  0.10000000000E+01 0.  0.
    9000005    1    3    3    0    0 -0.12851824710E+02  0.70657985726E+02 -0.13040689396E+04  0.13060453742E+04  0.10000000000E+01 0.  0.
<mgrwt>
<rscale>  0 0.12714951E+03</rscale>
<asrwt>0</asrwt>
<pdfrwt beam="2">  1        2 0.38270981E+00 0.13476888E+03</pdfrwt>
<pdfrwt beam="1">  1       -2 0.91034846E-03 0.13476888E+03</pdfrwt>
<totfact> 0.98518225E+03</totfact>
</mgrwt>
</event>
<event>
 8    3  0.1559595E-003  0.1375689E+03  0.7818608E-02  0.1223184E+00
         -2   -1    0    0    0  501 -0.00000000000E+00  0.00000000000E+00  0.11750127573E+03  0.11750127576E+03  0.25500000000E-02 0.  1.
          2   -1    0    0  501    0  0.00000000000E+00 -0.00000000000E+00 -0.14196130322E+03  0.14196130325E+03  0.25500000000E-02 0. -1.
         25    2    1    2    0    0 -0.55895864381E+02  0.13366651303E+02 -0.26511208752E+01  0.13759439505E+03  0.12498869583E+03 0.  0.
         23    2    1    2    0    0  0.55895864381E+02 -0.13366651303E+02 -0.21808906618E+02  0.12186818395E+03  0.10522932495E+03 0.  0.
        -13    1    4    4    0    0  0.65708850316E+02  0.13687895158E+01  0.26158707387E+02  0.70737654264E+02  0.10566000000E+00 0.  1.
         13    1    4    4    0    0 -0.98129859342E+01 -0.14735440818E+02 -0.47967614005E+02  0.51130529690E+02  0.10566000000E+00 0. -1.
    9000005    1    3    3    0    0 -0.26470757300E+02  0.52294483778E+02 -0.44263679209E+02  0.73455342370E+02  0.10000000000E+01 0.  0.
    9000005    1    3    3    0    0 -0.29425107081E+02 -0.38927832475E+02  0.41612558334E+02  0.64139052683E+02  0.10000000000E+01 0.  0.
<mgrwt>
<rscale>  0 0.13292164E+03</rscale>
<asrwt>0</asrwt>
<pdfrwt beam="2">  1        2 0.21840201E-01 0.13756885E+03</pdfrwt>
<pdfrwt beam="1">  1       -2 0.18077119E-01 0.13756885E+03</pdfrwt>
<totfact> 0.59695922E+03</totfact>
</mgrwt>
</event>
<event>
 8    3  0.1559595E-003  0.1343030E+03  0.7818608E-02  0.1234513E+00
         -2   -1    0    0    0  501 -0.00000000000E+00  0.00000000000E+00  0.65202999507E+02  0.65202999557E+02  0.25500000000E-02 0.  1.
          2   -1    0    0  501    0  0.00000000000E+00 -0.00000000000E+00 -0.21499019760E+03  0.21499019761E+03  0.25500000000E-02 0. -1.
         25    2    1    2    0    0 -0.22294048874E+02 -0.43765429875E+02 -0.75611885325E+02  0.15412477050E+03  0.12499940084E+03 0.  0.
         23    2    1    2    0    0  0.22294048874E+02  0.43765429875E+02 -0.74175312765E+02  0.12606842667E+03  0.89324317587E+02 0.  0.
        -13    1    4    4    0    0 -0.22043236358E+01  0.64210682976E+02 -0.68029383291E+02  0.93572854002E+02  0.10566000000E+00 0. -1.
         13    1    4    4    0    0  0.24498372510E+02 -0.20445253102E+02 -0.61459294737E+01  0.32495572670E+02  0.10566000000E+00 0.  1.
    9000005    1    3    3    0    0 -0.24878386470E+02  0.14013275971E+02 -0.90076055487E+02  0.94498686705E+02  0.10000000000E+01 0.  0.
    9000005    1    3    3    0    0  0.25843375963E+01 -0.57778705845E+02  0.14464170162E+02  0.59626083793E+02  0.10000000000E+01 0.  0.
<mgrwt>
<rscale>  0 0.12535677E+03</rscale>
<asrwt>0</asrwt>
<pdfrwt beam="2">  1        2 0.33075415E-01 0.13430297E+03</pdfrwt>
<pdfrwt beam="1">  1       -2 0.10031231E-01 0.13430297E+03</pdfrwt>
<totfact> 0.98026820E+03</totfact>
</mgrwt>
</event>
<event>
 8    3  0.1559595E-003  0.1868688E+03  0.7818608E-02  0.1166403E+00
         -2   -1    0    0    0  501 -0.00000000000E+00  0.00000000000E+00  0.57228241843E+03  0.57228241844E+03  0.25500000000E-02 0.  1.
          2   -1    0    0  501    0  0.00000000000E+00 -0.00000000000E+00 -0.20950155621E+03  0.20950155622E+03  0.25500000000E-02 0. -1.
         25    2    1    2    0    0 -0.13270912410E+03 -0.40994187973E+02  0.52030309480E+03  0.55284289954E+03  0.12501090369E+03 0.  0.
         23    2    1    2    0    0  0.13270912410E+03  0.40994187973E+02 -0.15752223258E+03  0.22894107512E+03  0.91151122055E+02 0.  0.
        -13    1    4    4    0    0  0.12494197636E+03  0.10551583545E+02 -0.89618158654E+02  0.15412092296E+03  0.10566000000E+00 0.  1.
         13    1    4    4    0    0  0.77671477465E+01  0.30442604428E+02 -0.67904073927E+02  0.74820152155E+02  0.10566000000E+00 0. -1.
    9000005    1    3    3    0    0 -0.12711876694E+03 -0.52747260417E+02  0.27815081002E+03  0.31033905250E+03  0.10000000000E+01 0.  0.
    9000005    1    3    3    0    0 -0.55903571655E+01  0.11753072444E+02  0.24215228478E+03  0.24250384704E+03  0.10000000000E+01 0.  0.
<mgrwt>
<rscale>  0 0.18145452E+03</rscale>
<asrwt>0</asrwt>
<pdfrwt beam="2">  1        2 0.32231009E-01 0.18686883E+03</pdfrwt>
<pdfrwt beam="1">  1       -2 0.88043448E-01 0.18686883E+03</pdfrwt>
<totfact> 0.18807292E+02</totfact>
</mgrwt>
</event>
<event>
 8    3  0.1559595E-003  0.1273664E+03  0.7818608E-02  0.1246538E+00
         -2   -1    0    0    0  501 -0.00000000000E+00  0.00000000000E+00  0.59519440679E+01  0.59519446142E+01  0.25500000000E-02 0.  1.
          2   -1    0    0  501    0  0.00000000000E+00 -0.00000000000E+00 -0.31005303362E+04  0.31005303362E+04  0.25500000000E-02 0. -1.
         25    2    1    2    0    0  0.33767919583E+01 -0.24201953337E+02 -0.25999995850E+04  0.26031173688E+04  0.12500022632E+03 0.  0.
         23    2    1    2    0    0 -0.33767919583E+01  0.24201953337E+02 -0.49457880714E+03  0.50336491201E+03  0.90393035656E+02 0.  0.
        -13    1    4    4    0    0  0.19171294728E+02  0.43764581305E+02 -0.14841450714E+03  0.15591585619E+03  0.10566000000E+00 0.  1.
         13    1    4    4    0    0 -0.22548086686E+02 -0.19562627967E+02 -0.34616430000E+03  0.34744905582E+03  0.10566000000E+00 0. -1.
    9000005    1    3    3    0    0 -0.90054307131E+01  0.50190264303E+02 -0.12077038926E+04  0.12087803162E+04  0.10000000000E+01 0.  0.
    9000005    1    3    3    0    0  0.12382222671E+02 -0.74392217641E+02 -0.13922956923E+04  0.13943370526E+04  0.10000000000E+01 0.  0.
<mgrwt>
<rscale>  0 0.11793804E+03</rscale>
<asrwt>0</asrwt>
<pdfrwt beam="2">  1        2 0.47700338E+00 0.12736638E+03</pdfrwt>
<pdfrwt beam="1">  1       -2 0.91568622E-03 0.12736638E+03</pdfrwt>
<totfact> 0.44435855E+03</totfact>
</mgrwt>
</event>
<event>
 8    3  0.1559595E-003  0.1936857E+03  0.7818608E-02  0.1159900E+00
          2   -1    0    0  501    0  0.00000000000E+00  0.00000000000E+00  0.23526346318E+03  0.23526346319E+03  0.25500000000E-02 0. -1.
         -2   -1    0    0    0  501 -0.00000000000E+00 -0.00000000000E+00 -0.18984800073E+03  0.18984800074E+03  0.25500000000E-02 0.  1.
         25    2    1    2    0    0  0.11337920086E+03  0.95045794244E+02  0.12886604210E+03  0.23263834575E+03  0.12500238763E+03 0.  0.
         23    2    1    2    0    0 -0.11337920086E+03 -0.95045794244E+02 -0.83450579646E+02  0.19247311819E+03  0.90517157429E+02 0.  0.
        -13    1    4    4    0    0 -0.37742044129E+02 -0.44945716819E+01  0.12906688116E+02  0.40140463772E+02  0.10566000000E+00 0. -1.
         13    1    4    4    0    0 -0.75637156736E+02 -0.90551222562E+02 -0.96357267762E+02  0.15233265442E+03  0.10566000000E+00 0.  1.
    9000005    1    3    3    0    0  0.13147909405E+02  0.40572414319E+01 -0.24472122610E+02  0.28092944218E+02  0.10000000000E+01 0.  0.
    9000005    1    3    3    0    0  0.10023129146E+03  0.90988552812E+02  0.15333816471E+03  0.20454540153E+03  0.10000000000E+01 0.  0.
<mgrwt>
<rscale>  0 0.18841319E+03</rscale>
<asrwt>0</asrwt>
<pdfrwt beam="1">  1        2 0.36194379E-01 0.19368568E+03</pdfrwt>
<pdfrwt beam="2">  1       -2 0.29207385E-01 0.19368568E+03</pdfrwt>
<totfact> 0.15169037E+03</totfact>
</mgrwt>
</event>
<event>
 8    3  0.1559595E-003  0.1348021E+03  0.7818608E-02  0.1233918E+00
         -2   -1    0    0    0  501 -0.00000000000E+00  0.00000000000E+00  0.31366165403E+02  0.31366165506E+02  0.25500000000E-02 0. -1.
          2   -1    0    0  501    0  0.00000000000E+00 -0.00000000000E+00 -0.51944517295E+03  0.51944517296E+03  0.25500000000E-02 0.  1.
         25    2    1    2    0    0  0.40720815105E+02  0.29839853481E+02 -0.37500758573E+03  0.39850004912E+03  0.12499199238E+03 0.  0.
         23    2    1    2    0    0 -0.40720815105E+02 -0.29839853481E+02 -0.11307142182E+03  0.15231128934E+03  0.88684726923E+02 0.  0.
        -13    1    4    4    0    0 -0.15120798987E+01 -0.39387614652E+02 -0.86379296442E+01  0.40352144505E+02  0.10566000000E+00 0. -1.
         13    1    4    4    0    0 -0.39208735206E+02  0.95477611707E+01 -0.10443349218E+03  0.11195914484E+03  0.10566000000E+00 0.  1.
    9000005    1    3    3    0    0  0.46259900431E+00  0.98901345914E+00  0.10105726302E+02  0.10213610994E+02  0.10000000000E+01 0.  0.
    9000005    1    3    3    0    0  0.40258216101E+02  0.28850840022E+02 -0.38511331203E+03  0.38828643813E+03  0.10000000000E+01 0.  0.
<mgrwt>
<rscale>  0 0.12573971E+03</rscale>
<asrwt>0</asrwt>
<pdfrwt beam="2">  1        2 0.79914636E-01 0.13480208E+03</pdfrwt>
<pdfrwt beam="1">  1       -2 0.48255643E-02 0.13480208E+03</pdfrwt>
<totfact> 0.11702288E+04</totfact>
</mgrwt>
</event>
<event>
 8    3  0.1559595E-003  0.1456554E+03  0.7818608E-02  0.1215722E+00
         -2   -1    0    0    0  501 -0.00000000000E+00  0.00000000000E+00  0.11648188836E+02  0.11648189115E+02  0.25500000000E-02 0.  1.
          2   -1    0    0  501    0  0.00000000000E+00 -0.00000000000E+00 -0.16785728371E+04  0.16785728371E+04  0.25500000000E-02 0. -1.
         25    2    1    2    0    0  0.64671426279E+02  0.37526362758E+02 -0.63177358536E+03  0.64834664045E+03  0.12499952700E+03 0.  0.
         23    2    1    2    0    0 -0.64671426279E+02 -0.37526362758E+02 -0.10351510629E+04  0.10418743857E+04  0.91508968942E+02 0.  0.
        -13    1    4    4    0    0 -0.28013878230E+02 -0.32147556954E+02 -0.91831519286E+03  0.91930465429E+03  0.10566000000E+00 0. -1.
         13    1    4    4    0    0 -0.36657548048E+02 -0.53788058039E+01 -0.11683587003E+03  0.12256973146E+03  0.10566000000E+00 0.  1.
    9000005    1    3    3    0    0 -0.23787756300E+01 -0.31300420635E+02 -0.52656663339E+02  0.61311492393E+02  0.10000000000E+01 0.  0.
    9000005    1    3    3    0    0  0.67050201908E+02  0.68826783393E+02 -0.57911692202E+03  0.58703514806E+03  0.10000000000E+01 0.  0.
<mgrwt>
<rscale>  0 0.13823666E+03</rscale>
<asrwt>0</asrwt>
<pdfrwt beam="2">  1        2 0.25824178E+00 0.14565543E+03</pdfrwt>
<pdfrwt beam="1">  1       -2 0.17920304E-02 0.14565543E+03</pdfrwt>
<totfact> 0.97739554E+03</totfact>
</mgrwt>
</event>
<event>
 8    3  0.1559595E-003  0.1256822E+03  0.7818608E-02  0.1246879E+00
         -2   -1    0    0    0  501 -0.00000000000E+00  0.00000000000E+00  0.11421233435E+04  0.11421233435E+04  0.25500000000E-02 0.  1.
          2   -1    0    0  501    0  0.00000000000E+00 -0.00000000000E+00 -0.11853270908E+02  0.11853271182E+02  0.25500000000E-02 0. -1.
         25    2    1    2    0    0  0.12490395518E+02  0.37942942389E+01  0.80014306661E+03  0.80995367079E+03  0.12500246047E+03 0.  0.
         23    2    1    2    0    0 -0.12490395518E+02 -0.37942942389E+01  0.33012700597E+03  0.34402294388E+03  0.95903801814E+02 0.  0.
        -13    1    4    4    0    0 -0.28296456024E+02  0.34936592807E+02  0.24594141225E+03  0.25001688816E+03  0.10566000000E+00 0.  1.
         13    1    4    4    0    0  0.15806060505E+02 -0.38730887046E+02  0.84185593715E+02  0.94006055727E+02  0.10566000000E+00 0. -1.
    9000005    1    3    3    0    0 -0.19975874278E+02  0.51840839346E+02  0.21959513456E+03  0.22651607294E+03  0.10000000000E+01 0.  0.
    9000005    1    3    3    0    0  0.32466269796E+02 -0.48046545107E+02  0.58054793206E+03  0.58343759785E+03  0.10000000000E+01 0.  0.
<mgrwt>
<rscale>  0 0.11773645E+03</rscale>
<asrwt>0</asrwt>
<pdfrwt beam="2">  1        2 0.18235795E-02 0.12568223E+03</pdfrwt>
<pdfrwt beam="1">  1       -2 0.17571135E+00 0.12568223E+03</pdfrwt>
<totfact> 0.12421424E+03</totfact>
</mgrwt>
</event>
<event>
 8    3  0.1559595E-003  0.1292812E+03  0.7818608E-02  0.1242620E+00
         -2   -1    0    0    0  501 -0.00000000000E+00  0.00000000000E+00  0.34247954529E+03  0.34247954530E+03  0.25500000000E-02 0.  1.
          2   -1    0    0  501    0  0.00000000000E+00 -0.00000000000E+00 -0.37964040496E+02  0.37964040581E+02  0.25500000000E-02 0. -1.
         25    2    1    2    0    0 -0.91851815203E+01  0.31665951052E+02  0.14961108276E+03  0.19772990601E+03  0.12500615837E+03 0.  0.
         23    2    1    2    0    0  0.91851815203E+01 -0.31665951052E+02  0.15490442203E+03  0.18271367987E+03  0.91114262502E+02 0.  0.
        -13    1    4    4    0    0  0.11085625660E+02 -0.96132659461E+01  0.15944442075E+03  0.16011820774E+03  0.10566000000E+00 0.  1.
         13    1    4    4    0    0 -0.19004441394E+01 -0.22052685106E+02 -0.45399987177E+01  0.22595472128E+02  0.10566000000E+00 0. -1.
    9000005    1    3    3    0    0 -0.58020233460E+02  0.39863342681E+02  0.12244188872E+03  0.14123898079E+03  0.10000000000E+01 0.  0.
    9000005    1    3    3    0    0  0.48835051939E+02 -0.81973916298E+01  0.27169194037E+02  0.56490925219E+02  0.10000000000E+01 0.  0.
<mgrwt>
<rscale>  0 0.12028972E+03</rscale>
<asrwt>0</asrwt>
<pdfrwt beam="2">  1        2 0.58406213E-02 0.12928124E+03</pdfrwt>
<pdfrwt beam="1">  1       -2 0.52689164E-01 0.12928124E+03</pdfrwt>
<totfact> 0.41928051E+03</totfact>
</mgrwt>
</event>
<event>
 8    3  0.1559595E-003  0.1469634E+03  0.7818608E-02  0.1225145E+00
          2   -1    0    0  501    0  0.00000000000E+00  0.00000000000E+00  0.13371942567E+04  0.13371942567E+04  0.25500000000E-02 0. -1.
         -2   -1    0    0    0  501 -0.00000000000E+00 -0.00000000000E+00 -0.11951455811E+02  0.11951456083E+02  0.25500000000E-02 0.  1.
         25    2    1    2    0    0 -0.28070139842E+02  0.72009898331E+02  0.99056505114E+03  0.10014076853E+04  0.12499949394E+03 0.  0.
         23    2    1    2    0    0  0.28070139842E+02 -0.72009898331E+02  0.33467774972E+03  0.34773802743E+03  0.54214217263E+02 0.  0.
        -13    1    4    4    0    0  0.26668953708E+02 -0.48357823064E+01  0.10408556103E+03  0.10755665047E+03  0.10566000000E+00 0. -1.
         13    1    4    4    0    0  0.14011861345E+01 -0.67174116025E+02  0.23059218870E+03  0.24018137696E+03  0.10566000000E+00 0.  1.
    9000005    1    3    3    0    0 -0.55038626352E+02  0.69745464853E+01  0.70914843173E+03  0.71131595857E+03  0.10000000000E+01 0.  0.
    9000005    1    3    3    0    0  0.26968486510E+02  0.65035351846E+02  0.28141661942E+03  0.29009172677E+03  0.10000000000E+01 0.  0.
<mgrwt>
<rscale>  0 0.13157004E+03</rscale>
<asrwt>0</asrwt>
<pdfrwt beam="1">  1        2 0.20572226E+00 0.14696337E+03</pdfrwt>
<pdfrwt beam="2">  1       -2 0.18386850E-02 0.14696337E+03</pdfrwt>
<totfact> 0.14212322E+04</totfact>
</mgrwt>
</event>
<event>
 8    3  0.1559595E-003  0.1451985E+03  0.7818608E-02  0.1216337E+00
         -2   -1    0    0    0  501 -0.00000000000E+00  0.00000000000E+00  0.11748210310E+03  0.11748210313E+03  0.25500000000E-02 0. -1.
          2   -1    0    0  501    0  0.00000000000E+00 -0.00000000000E+00 -0.14841288520E+03  0.14841288522E+03  0.25500000000E-02 0.  1.
         25    2    1    2    0    0 -0.34168635688E+02 -0.65457024720E+02 -0.29352398708E+02  0.14813559857E+03  0.12502189610E+03 0.  0.
         23    2    1    2    0    0  0.34168635688E+02  0.65457024720E+02 -0.15783833861E+01  0.11775938978E+03  0.91720580226E+02 0.  0.
        -13    1    4    4    0    0  0.59634087246E+02  0.66344184010E+02 -0.12421605185E+02  0.90067100280E+02  0.10566000000E+00 0.  1.
         13    1    4    4    0    0 -0.25465451558E+02 -0.88715928973E+00  0.10843221799E+02  0.27692289498E+02  0.10566000000E+00 0. -1.
    9000005    1    3    3    0    0 -0.55402435538E+02 -0.92575566248E+02 -0.34549682611E+02  0.11328877216E+03  0.10000000000E+01 0.  0.
    9000005    1    3    3    0    0  0.21233799850E+02  0.27118541528E+02  0.51972839031E+01  0.34846826407E+02  0.10000000000E+01 0.  0.
<mgrwt>
<rscale>  0 0.13778776E+03</rscale>
<asrwt>0</asrwt>
<pdfrwt beam="2">  1        2 0.22832752E-01 0.14519846E+03</pdfrwt>
<pdfrwt beam="1">  1       -2 0.18074170E-01 0.14519846E+03</pdfrwt>
<totfact> 0.57019076E+03</totfact>
</mgrwt>
</event>
<event>
 8    3  0.1559595E-003  0.1463398E+03  0.7818608E-02  0.1214648E+00
         -2   -1    0    0    0  501 -0.00000000000E+00  0.00000000000E+00  0.40617823262E+02  0.40617823342E+02  0.25500000000E-02 0. -1.
          2   -1    0    0  501    0  0.00000000000E+00 -0.00000000000E+00 -0.44386089750E+03  0.44386089750E+03  0.25500000000E-02 0.  1.
         25    2    1    2    0    0  0.61804430865E+02 -0.44465800423E+02 -0.18582924455E+03  0.23653294081E+03  0.12497331267E+03 0.  0.
         23    2    1    2    0    0 -0.61804430865E+02  0.44465800423E+02 -0.21741382969E+03  0.24794578003E+03  0.91713365516E+02 0.  0.
        -13    1    4    4    0    0 -0.12783119041E+02 -0.25775308425E+02 -0.89422364628E+02  0.93936920944E+02  0.10566000000E+00 0.  1.
         13    1    4    4    0    0 -0.49021311825E+02  0.70241108848E+02 -0.12799146506E+03  0.15400885909E+03  0.10566000000E+00 0. -1.
    9000005    1    3    3    0    0 -0.34712760707E+02 -0.34761296096E+02 -0.56791861143E+02  0.75097529615E+02  0.10000000000E+01 0.  0.
    9000005    1    3    3    0    0  0.96517191572E+02 -0.97045043264E+01 -0.12903738340E+03  0.16143541120E+03  0.10000000000E+01 0.  0.
<mgrwt>
<rscale>  0 0.13902396E+03</rscale>
<asrwt>0</asrwt>
<pdfrwt beam="2">  1        2 0.68286289E-01 0.14633976E+03</pdfrwt>
<pdfrwt beam="1">  1       -2 0.62488962E-02 0.14633976E+03</pdfrwt>
<totfact> 0.94592916E+03</totfact>
</mgrwt>
</event>
<event>
 8    3  0.1559595E-003  0.2963848E+03  0.7818608E-02  0.1088810E+00
         -2   -1    0    0    0  501 -0.00000000000E+00  0.00000000000E+00  0.92679011986E+02  0.92679012021E+02  0.25500000000E-02 0.  1.
          2   -1    0    0  501    0  0.00000000000E+00 -0.00000000000E+00 -0.14989326571E+04  0.14989326571E+04  0.25500000000E-02 0. -1.
         25    2    1    2    0    0  0.20425710915E+03  0.17463863716E+03 -0.21226538756E+03  0.36455526465E+03  0.12499730396E+03 0.  0.
         23    2    1    2    0    0 -0.20425710915E+03 -0.17463863716E+03 -0.11939882576E+04  0.12270564045E+04  0.88542873067E+02 0.  0.
        -13    1    4    4    0    0 -0.63441687058E+02 -0.47025795035E+02 -0.19926022984E+03  0.21433833865E+03  0.10566000000E+00 0.  1.
         13    1    4    4    0    0 -0.14081542209E+03 -0.12761284213E+03 -0.99472802771E+03  0.10127180658E+04  0.10566000000E+00 0. -1.
    9000005    1    3    3    0    0  0.21434229479E+03  0.18231372910E+03 -0.21112902320E+03  0.35179167073E+03  0.10000000000E+01 0.  0.
    9000005    1    3    3    0    0 -0.10085185644E+02 -0.76750919380E+01 -0.11363643603E+01  0.12763593918E+02  0.10000000000E+01 0.  0.
<mgrwt>
<rscale>  0 0.29296688E+03</rscale>
<asrwt>0</asrwt>
<pdfrwt beam="2">  1        2 0.23060501E+00 0.29638479E+03</pdfrwt>
<pdfrwt beam="1">  1       -2 0.14258311E-01 0.29638479E+03</pdfrwt>
<totfact> 0.50930344E+02</totfact>
</mgrwt>
</event>
<event>
 8    3  0.1559595E-003  0.2405996E+03  0.7818608E-02  0.1122087E+00
         -2   -1    0    0    0  501 -0.00000000000E+00  0.00000000000E+00  0.69626814590E+02  0.69626814637E+02  0.25500000000E-02 0.  1.
          2   -1    0    0  501    0  0.00000000000E+00 -0.00000000000E+00 -0.78289806155E+03  0.78289806156E+03  0.25500000000E-02 0. -1.
         25    2    1    2    0    0 -0.18445341917E+03  0.90776924176E+02 -0.33559159591E+03  0.41292844885E+03  0.12499868328E+03 0.  0.
         23    2    1    2    0    0  0.18445341917E+03 -0.90776924176E+02 -0.37767965106E+03  0.43959642734E+03  0.91321335421E+02 0.  0.
        -13    1    4    4    0    0  0.11799523284E+03 -0.73667829774E+02 -0.16337500141E+03  0.21457219383E+03  0.10566000000E+00 0.  1.
         13    1    4    4    0    0  0.66458186325E+02 -0.17109094402E+02 -0.21430464965E+03  0.22502423351E+03  0.10566000000E+00 0. -1.
    9000005    1    3    3    0    0  0.49388844540E-01 -0.19032463365E+01 -0.98539900098E+02  0.98563363869E+02  0.10000000000E+01 0.  0.
    9000005    1    3    3    0    0 -0.18450280801E+03  0.92680170513E+02 -0.23705169581E+03  0.31436508498E+03  0.10000000000E+01 0.  0.
<mgrwt>
<rscale>  0 0.23658835E+03</rscale>
<asrwt>0</asrwt>
<pdfrwt beam="2">  1        2 0.12044585E+00 0.24059964E+03</pdfrwt>
<pdfrwt beam="1">  1       -2 0.10711818E-01 0.24059964E+03</pdfrwt>
<totfact> 0.21606698E+03</totfact>
</mgrwt>
</event>
<event>
 8    3  0.1559595E-003  0.1250762E+03  0.7818608E-02  0.1250635E+00
          2   -1    0    0  501    0  0.00000000000E+00  0.00000000000E+00  0.35260498473E+02  0.35260498565E+02  0.25500000000E-02 0. -1.
         -2   -1    0    0    0  501 -0.00000000000E+00 -0.00000000000E+00 -0.33428027893E+03  0.33428027894E+03  0.25500000000E-02 0.  1.
         25    2    1    2    0    0  0.10173756463E+01 -0.42171568952E+01 -0.15557886993E+03  0.19962175350E+03  0.12500096094E+03 0.  0.
         23    2    1    2    0    0 -0.10173756463E+01  0.42171568952E+01 -0.14344091053E+03  0.16991902401E+03  0.90985495767E+02 0.  0.
        -13    1    4    4    0    0 -0.23494901907E+02  0.37128262723E+02 -0.10796200809E+03  0.11656039063E+03  0.10566000000E+00 0.  1.
         13    1    4    4    0    0  0.22477526261E+02 -0.32911105827E+02 -0.35478902441E+02  0.53358633379E+02  0.10566000000E+00 0. -1.
    9000005    1    3    3    0    0  0.94354959692E+01  0.28854562328E+02 -0.16205071325E+03  0.16487282376E+03  0.10000000000E+01 0.  0.
    9000005    1    3    3    0    0 -0.84181203229E+01 -0.33071719223E+02  0.64718433172E+01  0.34748929740E+02  0.10000000000E+01 0.  0.
<mgrwt>
<rscale>  0 0.11554399E+03</rscale>
<asrwt>0</asrwt>
<pdfrwt beam="1">  1        2 0.54246923E-02 0.12507622E+03</pdfrwt>
<pdfrwt beam="2">  1       -2 0.51427733E-01 0.12507622E+03</pdfrwt>
<totfact> 0.48282236E+03</totfact>
</mgrwt>
</event>
<event>
 8    3  0.1559595E-003  0.1559940E+03  0.7818608E-02  0.1201651E+00
          2   -1    0    0  501    0  0.00000000000E+00  0.00000000000E+00  0.83435559063E+03  0.83435559063E+03  0.25500000000E-02 0. -1.
         -2   -1    0    0    0  501 -0.00000000000E+00 -0.00000000000E+00 -0.25561462369E+02  0.25561462496E+02  0.25500000000E-02 0.  1.
         25    2    1    2    0    0  0.68492445709E+02 -0.63396042575E+02  0.52656219892E+03  0.54918292229E+03  0.12499543782E+03 0.  0.
         23    2    1    2    0    0 -0.68492445709E+02  0.63396042575E+02  0.28223192934E+03  0.31073413083E+03  0.90501739172E+02 0.  0.
        -13    1    4    4    0    0 -0.25191385357E+02 -0.22476975128E+02  0.68958331821E+02  0.76779443855E+02  0.10566000000E+00 0. -1.
         13    1    4    4    0    0 -0.43301060352E+02  0.85873017703E+02  0.21327359752E+03  0.23395468698E+03  0.10566000000E+00 0.  1.
    9000005    1    3    3    0    0  0.73196690327E+02  0.13054357926E+02  0.19042933065E+03  0.20443214451E+03  0.10000000000E+01 0.  0.
    9000005    1    3    3    0    0 -0.47042446184E+01 -0.76450400501E+02  0.33613286827E+03  0.34475077779E+03  0.10000000000E+01 0.  0.
<mgrwt>
<rscale>  0 0.14904571E+03</rscale>
<asrwt>0</asrwt>
<pdfrwt beam="1">  1        2 0.12836238E+00 0.15599402E+03</pdfrwt>
<pdfrwt beam="2">  1       -2 0.39325334E-02 0.15599402E+03</pdfrwt>
<totfact> 0.91879574E+03</totfact>
</mgrwt>
</event>
<event>
 8    3  0.1559595E-003  0.1275642E+03  0.7818608E-02  0.1246281E+00
         -2   -1    0    0    0  501 -0.00000000000E+00  0.00000000000E+00  0.25130256729E+03  0.25130256731E+03  0.25500000000E-02 0.  1.
          2   -1    0    0  501    0  0.00000000000E+00 -0.00000000000E+00 -0.58272087217E+02  0.58272087273E+02  0.25500000000E-02 0. -1.
         25    2    1    2    0    0  0.21407898562E+02 -0.13746264241E+02  0.17098981250E+03  0.21333104151E+03  0.12500143756E+03 0.  0.
         23    2    1    2    0    0 -0.21407898562E+02  0.13746264241E+02  0.22040667577E+02  0.96243613066E+02  0.90165315545E+02 0.  0.
        -13    1    4    4    0    0  0.37193761759E+01  0.46459005822E+02  0.28292779093E+02  0.54523073042E+02  0.10566000000E+00 0.  1.
         13    1    4    4    0    0 -0.25127274738E+02 -0.32712741581E+02 -0.62521115155E+01  0.41720540024E+02  0.10566000000E+00 0. -1.
    9000005    1    3    3    0    0  0.18451961231E+02  0.47520508538E+02  0.12975837549E+03  0.13941631761E+03  0.10000000000E+01 0.  0.
    9000005    1    3    3    0    0  0.29559373317E+01 -0.61266772779E+02  0.41231437005E+02  0.73914723904E+02  0.10000000000E+01 0.  0.
<mgrwt>
<rscale>  0 0.11809052E+03</rscale>
<asrwt>0</asrwt>
<pdfrwt beam="2">  1        2 0.89649366E-02 0.12756417E+03</pdfrwt>
<pdfrwt beam="1">  1       -2 0.38661933E-01 0.12756417E+03</pdfrwt>
<totfact> 0.44361674E+03</totfact>
</mgrwt>
</event>
<event>
 8    3  0.1559595E-003  0.1449003E+03  0.7818608E-02  0.1216747E+00
          2   -1    0    0  501    0  0.00000000000E+00  0.00000000000E+00  0.54096612169E+03  0.54096612169E+03  0.25500000000E-02 0.  1.
         -2   -1    0    0    0  501 -0.00000000000E+00 -0.00000000000E+00 -0.47866221806E+02  0.47866221874E+02  0.25500000000E-02 0. -1.
         25    2    1    2    0    0 -0.12484971243E+02 -0.72213505480E+02  0.93788859708E+02  0.17260486859E+03  0.12500170229E+03 0.  0.
         23    2    1    2    0    0  0.12484971243E+02  0.72213505480E+02  0.39931104017E+03  0.41622747498E+03  0.91789646696E+02 0.  0.
        -13    1    4    4    0    0  0.25789260289E+02 -0.14479096242E+02  0.91182433875E+02  0.95859154939E+02  0.10566000000E+00 0.  1.
         13    1    4    4    0    0 -0.13304289047E+02  0.86692601721E+02  0.30812860630E+03  0.32036832004E+03  0.10566000000E+00 0. -1.
    9000005    1    3    3    0    0 -0.80255737442E+01 -0.27813790808E+02  0.11822332803E+03  0.12172005621E+03  0.10000000000E+01 0.  0.
    9000005    1    3    3    0    0 -0.44593974984E+01 -0.44399714671E+02 -0.24434468322E+02  0.50884812382E+02  0.10000000000E+01 0.  0.
<mgrwt>
<rscale>  0 0.13748999E+03</rscale>
<asrwt>0</asrwt>
<pdfrwt beam="1">  1        2 0.83225560E-01 0.14490028E+03</pdfrwt>
<pdfrwt beam="2">  1       -2 0.73640339E-02 0.14490028E+03</pdfrwt>
<totfact> 0.59171701E+03</totfact>
</mgrwt>
</event>
<event>
 8    3  0.1559595E-003  0.1325638E+03  0.7818608E-02  0.1236578E+00
          2   -1    0    0  501    0  0.00000000000E+00  0.00000000000E+00  0.82554265995E+02  0.82554266034E+02  0.25500000000E-02 0. -1.
         -2   -1    0    0    0  501 -0.00000000000E+00 -0.00000000000E+00 -0.17155937360E+03  0.17155937362E+03  0.25500000000E-02 0.  1.
         25    2    1    2    0    0  0.19454853102E+02  0.39662674851E+02 -0.27671868307E+02  0.13542115892E+03  0.12498615484E+03 0.  0.
         23    2    1    2    0    0 -0.19454853102E+02 -0.39662674851E+02 -0.61333239302E+02  0.11869248074E+03  0.91512401645E+02 0.  0.
        -13    1    4    4    0    0  0.16434150770E+02 -0.30026769777E+02 -0.72261302968E+02  0.79958709878E+02  0.10566000000E+00 0.  1.
         13    1    4    4    0    0 -0.35889003872E+02 -0.96359050736E+01  0.10928063666E+02  0.38733770860E+02  0.10566000000E+00 0. -1.
    9000005    1    3    3    0    0  0.36705874616E+02 -0.37886818776E+02 -0.15883051618E+02  0.55099941896E+02  0.10000000000E+01 0.  0.
    9000005    1    3    3    0    0 -0.17251021514E+02  0.77549493627E+02 -0.11788816689E+02  0.80321217023E+02  0.10000000000E+01 0.  0.
<mgrwt>
<rscale>  0 0.12403976E+03</rscale>
<asrwt>0</asrwt>
<pdfrwt beam="1">  1        2 0.12700656E-01 0.13256379E+03</pdfrwt>
<pdfrwt beam="2">  1       -2 0.26393750E-01 0.13256379E+03</pdfrwt>
<totfact> 0.58261734E+03</totfact>
</mgrwt>
</event>
<event>
 8    3  0.1559595E-003  0.1355804E+03  0.7818608E-02  0.1231877E+00
         -2   -1    0    0    0  501 -0.00000000000E+00  0.00000000000E+00  0.42509987694E+03  0.42509987695E+03  0.25500000000E-02 0.  1.
          2   -1    0    0  501    0  0.00000000000E+00 -0.00000000000E+00 -0.34908302196E+02  0.34908302290E+02  0.25500000000E-02 0. -1.
         25    2    1    2    0    0  0.27592438071E+02  0.44647054783E+02  0.18124405339E+03  0.22634368682E+03  0.12500942178E+03 0.  0.
         23    2    1    2    0    0 -0.27592438071E+02 -0.44647054783E+02  0.20894752136E+03  0.23366449242E+03  0.90472792582E+02 0.  0.
        -13    1    4    4    0    0 -0.43349460598E+02 -0.58097320056E+02  0.19662120911E+03  0.20955759440E+03  0.10566000000E+00 0.  1.
         13    1    4    4    0    0  0.15757022527E+02  0.13450265273E+02  0.12326312245E+02  0.24106898026E+02  0.10566000000E+00 0. -1.
    9000005    1    3    3    0    0  0.51029305732E+02  0.38825710424E+02  0.25949446074E+02  0.69179473726E+02  0.10000000000E+01 0.  0.
    9000005    1    3    3    0    0 -0.23436867661E+02  0.58213443595E+01  0.15529460731E+03  0.15716421309E+03  0.10000000000E+01 0.  0.
<mgrwt>
<rscale>  0 0.12706475E+03</rscale>
<asrwt>0</asrwt>
<pdfrwt beam="2">  1        2 0.53705078E-02 0.13558045E+03</pdfrwt>
<pdfrwt beam="1">  1       -2 0.65399984E-01 0.13558045E+03</pdfrwt>
<totfact> 0.30150283E+03</totfact>
</mgrwt>
</event>
<event>
 8    3  0.1559595E-003  0.1277623E+03  0.7818608E-02  0.1245037E+00
         -2   -1    0    0    0  501 -0.00000000000E+00  0.00000000000E+00  0.11550494917E+02  0.11550495198E+02  0.25500000000E-02 0.  1.
          2   -1    0    0  501    0  0.00000000000E+00 -0.00000000000E+00 -0.10932955698E+04  0.10932955698E+04  0.25500000000E-02 0. -1.
         25    2    1    2    0    0  0.72132518782E+01 -0.25417520523E+02 -0.55742180453E+03  0.57187609049E+03  0.12500045345E+03 0.  0.
         23    2    1    2    0    0 -0.72132518782E+01  0.25417520523E+02 -0.52432327036E+03  0.53296997451E+03  0.91891351818E+02 0.  0.
        -13    1    4    4    0    0 -0.26513954028E+02  0.17249644863E+02 -0.57093193044E+02  0.65270083975E+02  0.10566000000E+00 0.  1.
         13    1    4    4    0    0  0.19300702150E+02  0.81678756598E+01 -0.46723007732E+03  0.46769989054E+03  0.10566000000E+00 0. -1.
    9000005    1    3    3    0    0 -0.32767808990E+02  0.27755517461E+02 -0.89800276515E+02  0.99544903022E+02  0.10000000000E+01 0.  0.
    9000005    1    3    3    0    0  0.39981060868E+02 -0.53173037984E+02 -0.46762152801E+03  0.47233118747E+03  0.10000000000E+01 0.  0.
<mgrwt>
<rscale>  0 0.11883180E+03</rscale>
<asrwt>0</asrwt>
<pdfrwt beam="2">  1        2 0.16819924E+00 0.12776226E+03</pdfrwt>
<pdfrwt beam="1">  1       -2 0.17770001E-02 0.12776226E+03</pdfrwt>
<totfact> 0.20184379E+04</totfact>
</mgrwt>
</event>
<event>
 8    3  0.1559595E-003  0.1409994E+03  0.7818608E-02  0.1220766E+00
          2   -1    0    0  501    0  0.00000000000E+00  0.00000000000E+00  0.11444830861E+04  0.11444830861E+04  0.25500000000E-02 0.  1.
         -2   -1    0    0    0  501 -0.00000000000E+00 -0.00000000000E+00 -0.14568725370E+02  0.14568725593E+02  0.25500000000E-02 0. -1.
         25    2    1    2    0    0  0.43461810427E+02 -0.48653900656E+02  0.59997769546E+03  0.61632301471E+03  0.12499876957E+03 0.  0.
         23    2    1    2    0    0 -0.43461810427E+02  0.48653900656E+02  0.52993666529E+03  0.54272879701E+03  0.97291042081E+02 0.  0.
        -13    1    4    4    0    0 -0.56512532592E+02  0.25790323089E+02  0.49551590570E+03  0.49939446440E+03  0.10566000000E+00 0.  1.
         13    1    4    4    0    0  0.13050722165E+02  0.22863577566E+02  0.34420759594E+02  0.43334332615E+02  0.10566000000E+00 0. -1.
    9000005    1    3    3    0    0  0.59484191148E+02 -0.30868260017E+01  0.51609846309E+03  0.51952528436E+03  0.10000000000E+01 0.  0.
    9000005    1    3    3    0    0 -0.16022380722E+02 -0.45567074654E+02  0.83879232377E+02  0.96797730349E+02  0.10000000000E+01 0.  0.
<mgrwt>
<rscale>  0 0.13461355E+03</rscale>
<asrwt>0</asrwt>
<pdfrwt beam="1">  1        2 0.17607429E+00 0.14099937E+03</pdfrwt>
<pdfrwt beam="2">  1       -2 0.22413427E-02 0.14099937E+03</pdfrwt>
<totfact> 0.13564227E+04</totfact>
</mgrwt>
</event>
<event>
 8    3  0.1559595E-003  0.3662853E+03  0.7818608E-02  0.1057136E+00
         -2   -1    0    0    0  501 -0.00000000000E+00  0.00000000000E+00  0.13680633459E+03  0.13680633461E+03  0.25500000000E-02 0. -1.
          2   -1    0    0  501    0  0.00000000000E+00 -0.00000000000E+00 -0.98799699951E+03  0.98799699952E+03  0.25500000000E-02 0.  1.
         25    2    1    2    0    0  0.31279330677E+03  0.14386410413E+03 -0.32605329386E+03  0.49038315767E+03  0.12501342997E+03 0.  0.
         23    2    1    2    0    0 -0.31279330677E+03 -0.14386410413E+03 -0.52513737107E+03  0.63442017646E+03  0.90460867701E+02 0.  0.
        -13    1    4    4    0    0 -0.23118092063E+03 -0.11098120422E+03 -0.45339129935E+03  0.52088878587E+03  0.10566000000E+00 0. -1.
         13    1    4    4    0    0 -0.81612386141E+02 -0.32882899907E+02 -0.71746071723E+02  0.11353139059E+03  0.10566000000E+00 0.  1.
    9000005    1    3    3    0    0  0.17380278901E+03  0.11349629938E+02 -0.15031724608E+03  0.23007063706E+03  0.10000000000E+01 0.  0.
    9000005    1    3    3    0    0  0.13899051776E+03  0.13251447419E+03 -0.17573604778E+03  0.26031252061E+03  0.10000000000E+01 0.  0.
<mgrwt>
<rscale>  0 0.36368057E+03</rscale>
<asrwt>0</asrwt>
<pdfrwt beam="2">  1        2 0.15199953E+00 0.36628526E+03</pdfrwt>
<pdfrwt beam="1">  1       -2 0.21047129E-01 0.36628526E+03</pdfrwt>
<totfact> 0.51281091E+02</totfact>
</mgrwt>
</event>
<event>
 8    3  0.1559595E-003  0.2006435E+03  0.7818608E-02  0.1153474E+00
         -2   -1    0    0    0  501 -0.00000000000E+00  0.00000000000E+00  0.28033614288E+03  0.28033614289E+03  0.25500000000E-02 0.  1.
          2   -1    0    0  501    0  0.00000000000E+00 -0.00000000000E+00 -0.13100735532E+03  0.13100735535E+03  0.25500000000E-02 0. -1.
         25    2    1    2    0    0 -0.15196014900E+03  0.39252934336E+02  0.61589595643E+02  0.20988348869E+03  0.12500048317E+03 0.  0.
         23    2    1    2    0    0  0.15196014900E+03 -0.39252934336E+02  0.87739191911E+02  0.20146000955E+03  0.90858625959E+02 0.  0.
        -13    1    4    4    0    0  0.16354719417E+01  0.19223242560E+02  0.15390099475E+02  0.24679427645E+02  0.10566000000E+00 0.  1.
         13    1    4    4    0    0  0.15032467706E+03 -0.58476176896E+02  0.72349092436E+02  0.17678058190E+03  0.10566000000E+00 0. -1.
    9000005    1    3    3    0    0  0.77687196985E+01  0.39293584987E+02  0.20227497232E+02  0.44883075554E+02  0.10000000000E+01 0.  0.
    9000005    1    3    3    0    0 -0.15972886870E+03 -0.40650650785E-01  0.41362098411E+02  0.16500041313E+03  0.10000000000E+01 0.  0.
<mgrwt>
<rscale>  0 0.19563583E+03</rscale>
<asrwt>0</asrwt>
<pdfrwt beam="2">  1        2 0.20154978E-01 0.20064347E+03</pdfrwt>
<pdfrwt beam="1">  1       -2 0.43128637E-01 0.20064347E+03</pdfrwt>
<totfact> 0.14032024E+03</totfact>
</mgrwt>
</event>
<event>
 8    3  0.1559595E-003  0.1930899E+03  0.7818608E-02  0.1160356E+00
          2   -1    0    0  501    0  0.00000000000E+00  0.00000000000E+00  0.29587761258E+03  0.29587761259E+03  0.25500000000E-02 0. -1.
         -2   -1    0    0    0  501 -0.00000000000E+00 -0.00000000000E+00 -0.11356485348E+03  0.11356485351E+03  0.25500000000E-02 0.  1.
         25    2    1    2    0    0  0.40454126803E+02 -0.14149508523E+03  0.10460405075E+03  0.21960357107E+03  0.12500530178E+03 0.  0.
         23    2    1    2    0    0 -0.40454126803E+02  0.14149508523E+03  0.77708708348E+02  0.18983889503E+03  0.91338749680E+02 0.  0.
        -13    1    4    4    0    0  0.57222957152E+01  0.40869807452E+02  0.66890977542E+02  0.78597072910E+02  0.10566000000E+00 0. -1.
         13    1    4    4    0    0 -0.46176422518E+02  0.10062527778E+03  0.10817730805E+02  0.11124182212E+03  0.10566000000E+00 0.  1.
    9000005    1    3    3    0    0  0.76347263497E+02 -0.98108561159E+02  0.10584217807E+03  0.16327204621E+03  0.10000000000E+01 0.  0.
    9000005    1    3    3    0    0 -0.35893136694E+02 -0.43386524074E+02 -0.12381273254E+01  0.56331524853E+02  0.10000000000E+01 0.  0.
<mgrwt>
<rscale>  0 0.18791445E+03</rscale>
<asrwt>0</asrwt>
<pdfrwt beam="1">  1        2 0.45519633E-01 0.19308993E+03</pdfrwt>
<pdfrwt beam="2">  1       -2 0.17471516E-01 0.19308993E+03</pdfrwt>
<totfact> 0.28926694E+03</totfact>
</mgrwt>
</event>
<event>
 8    3  0.1559595E-003  0.1465994E+03  0.7818608E-02  0.1215585E+00
         -2   -1    0    0    0  501 -0.00000000000E+00  0.00000000000E+00  0.11482716881E+02  0.11482717164E+02  0.25500000000E-02 0.  1.
          2   -1    0    0  501    0  0.00000000000E+00 -0.00000000000E+00 -0.17618723890E+04  0.17618723890E+04  0.25500000000E-02 0. -1.
         25    2    1    2    0    0 -0.30014275053E+02 -0.70451787820E+02 -0.12987254899E+04  0.13069733247E+04  0.12500824811E+03 0.  0.
         23    2    1    2    0    0  0.30014275053E+02  0.70451787820E+02 -0.45166418220E+03  0.46638178151E+03  0.87447821718E+02 0.  0.
        -13    1    4    4    0    0  0.53411018021E+02  0.14518332248E+02 -0.23116008871E+03  0.23769416609E+03  0.10566000000E+00 0.  1.
         13    1    4    4    0    0 -0.23396742968E+02  0.55933455572E+02 -0.22050409350E+03  0.22868761542E+03  0.10566000000E+00 0. -1.
    9000005    1    3    3    0    0  0.24883546817E+02 -0.25127104024E+02 -0.98895490980E+02  0.10503275868E+03  0.10000000000E+01 0.  0.
    9000005    1    3    3    0    0 -0.54897821870E+02 -0.45324683795E+02 -0.11998299989E+04  0.12019405660E+04  0.10000000000E+01 0.  0.
<mgrwt>
<rscale>  0 0.13833649E+03</rscale>
<asrwt>0</asrwt>
<pdfrwt beam="2">  1        2 0.27105708E+00 0.14659936E+03</pdfrwt>
<pdfrwt beam="1">  1       -2 0.17665732E-02 0.14659936E+03</pdfrwt>
<totfact> 0.90447955E+03</totfact>
</mgrwt>
</event>
<event>
 8    3  0.1559595E-003  0.1595918E+03  0.7818608E-02  0.1196532E+00
         -2   -1    0    0    0  501 -0.00000000000E+00  0.00000000000E+00  0.21736892555E+02  0.21736892705E+02  0.25500000000E-02 0.  1.
          2   -1    0    0  501    0  0.00000000000E+00 -0.00000000000E+00 -0.19223721206E+04  0.19223721206E+04  0.25500000000E-02 0. -1.
         25    2    1    2    0    0  0.17198452871E+02 -0.97756726544E+02 -0.16615263633E+04  0.16691732649E+04  0.12496946810E+03 0.  0.
         23    2    1    2    0    0 -0.17198452871E+02  0.97756726544E+02 -0.23910886475E+03  0.27493574841E+03  0.92544325518E+02 0.  0.
        -13    1    4    4    0    0 -0.44282729816E+02  0.54090034453E+02 -0.73051429000E+02  0.10110991262E+03  0.10566000000E+00 0.  1.
         13    1    4    4    0    0  0.27084276945E+02  0.43666692091E+02 -0.16605743575E+03  0.17382583579E+03  0.10566000000E+00 0. -1.
    9000005    1    3    3    0    0  0.51595187941E+02  0.42056528760E+01 -0.50102768830E+03  0.50369583617E+03  0.10000000000E+01 0.  0.
    9000005    1    3    3    0    0 -0.34396735070E+02 -0.10196237942E+03 -0.11604986750E+04  0.11654774287E+04  0.10000000000E+01 0.  0.
<mgrwt>
<rscale>  0 0.15325304E+03</rscale>
<asrwt>0</asrwt>
<pdfrwt beam="2">  1        2 0.29574942E+00 0.15959177E+03</pdfrwt>
<pdfrwt beam="1">  1       -2 0.33441388E-02 0.15959177E+03</pdfrwt>
<totfact> 0.29419117E+03</totfact>
</mgrwt>
</event>
<event>
 8    3  0.1559595E-003  0.1300468E+03  0.7818608E-02  0.1242810E+00
          2   -1    0    0  501    0  0.00000000000E+00  0.00000000000E+00  0.21808455140E+02  0.21808455289E+02  0.25500000000E-02 0. -1.
         -2   -1    0    0    0  501 -0.00000000000E+00 -0.00000000000E+00 -0.70449885610E+03  0.70449885611E+03  0.25500000000E-02 0.  1.
         25    2    1    2    0    0 -0.10886004572E+02  0.34198812551E+02 -0.23403540998E+03  0.26774007918E+03  0.12499645195E+03 0.  0.
         23    2    1    2    0    0  0.10886004572E+02 -0.34198812551E+02 -0.44865499098E+03  0.45856723221E+03  0.87775518532E+02 0.  0.
        -13    1    4    4    0    0  0.85303398564E+01 -0.36444017815E+02 -0.45220432283E+03  0.45375069574E+03  0.10566000000E+00 0.  1.
         13    1    4    4    0    0  0.23556647157E+01  0.22452052639E+01  0.35493318546E+01  0.48165364713E+01  0.10566000000E+00 0. -1.
    9000005    1    3    3    0    0  0.54047460714E+02  0.30170611279E+02 -0.14317038347E+03  0.15598125688E+03  0.10000000000E+01 0.  0.
    9000005    1    3    3    0    0 -0.64933465286E+02  0.40282012717E+01 -0.90865026510E+02  0.11175882230E+03  0.10000000000E+01 0.  0.
<mgrwt>
<rscale>  0 0.12017400E+03</rscale>
<asrwt>0</asrwt>
<pdfrwt beam="1">  1        2 0.33551475E-02 0.13004683E+03</pdfrwt>
<pdfrwt beam="2">  1       -2 0.10838442E+00 0.13004683E+03</pdfrwt>
<totfact> 0.18265188E+03</totfact>
</mgrwt>
</event>
<event>
 8    3  0.1559595E-003  0.1556846E+03  0.7818608E-02  0.1202544E+00
          2   -1    0    0  501    0  0.00000000000E+00  0.00000000000E+00  0.16265732682E+02  0.16265732882E+02  0.25500000000E-02 0. -1.
         -2   -1    0    0    0  501 -0.00000000000E+00 -0.00000000000E+00 -0.12422314858E+04  0.12422314858E+04  0.25500000000E-02 0.  1.
         25    2    1    2    0    0  0.52696742382E+02 -0.76393287973E+02 -0.70236845043E+03  0.71941583813E+03  0.12499930756E+03 0.  0.
         23    2    1    2    0    0 -0.52696742382E+02  0.76393287973E+02 -0.52359730271E+03  0.53908138058E+03  0.88553477471E+02 0.  0.
        -13    1    4    4    0    0 -0.41815837239E+02  0.52602190227E+02 -0.49788651390E+03  0.50240078279E+03  0.10566000000E+00 0. -1.
         13    1    4    4    0    0 -0.10880905142E+02  0.23791097745E+02 -0.25710788814E+02  0.36680597788E+02  0.10566000000E+00 0.  1.
    9000005    1    3    3    0    0 -0.18128716845E+01  0.32325728350E+02 -0.10900562917E+03  0.11371660568E+03  0.10000000000E+01 0.  0.
    9000005    1    3    3    0    0  0.54509614066E+02 -0.10871901632E+03 -0.59336282126E+03  0.60569923245E+03  0.10000000000E+01 0.  0.
<mgrwt>
<rscale>  0 0.14832701E+03</rscale>
<asrwt>0</asrwt>
<pdfrwt beam="1">  1        2 0.25024214E-02 0.15568464E+03</pdfrwt>
<pdfrwt beam="2">  1       -2 0.19111246E+00 0.15568464E+03</pdfrwt>
<totfact> 0.64765816E+02</totfact>
</mgrwt>
</event>
<event>
 8    3  0.1559595E-003  0.1284067E+03  0.7818608E-02  0.1243867E+00
          2   -1    0    0  501    0  0.00000000000E+00  0.00000000000E+00  0.37837632012E+02  0.37837632098E+02  0.25500000000E-02 0. -1.
         -2   -1    0    0    0  501 -0.00000000000E+00 -0.00000000000E+00 -0.35920950072E+03  0.35920950073E+03  0.25500000000E-02 0.  1.
         25    2    1    2    0    0 -0.17495875996E+02 -0.23601284113E+02 -0.12984077252E+03  0.18261137112E+03  0.12500064145E+03 0.  0.
         23    2    1    2    0    0  0.17495875996E+02  0.23601284113E+02 -0.19153109619E+03  0.21443576171E+03  0.91844481627E+02 0.  0.
        -13    1    4    4    0    0 -0.64317252064E+00  0.53299688040E+02 -0.69784307847E+02  0.87813046877E+02  0.10566000000E+00 0. -1.
         13    1    4    4    0    0  0.18139048517E+02 -0.29698403926E+02 -0.12174678834E+03  0.12662271484E+03  0.10566000000E+00 0.  1.
    9000005    1    3    3    0    0  0.48698985130E+02 -0.74142134754E+01 -0.92737781935E+02  0.10501360823E+03  0.10000000000E+01 0.  0.
    9000005    1    3    3    0    0 -0.66194861126E+02 -0.16187070638E+02 -0.37102990586E+02  0.77597762892E+02  0.10000000000E+01 0.  0.
<mgrwt>
<rscale>  0 0.11953433E+03</rscale>
<asrwt>0</asrwt>
<pdfrwt beam="1">  1        2 0.58211744E-02 0.12840672E+03</pdfrwt>
<pdfrwt beam="2">  1       -2 0.55262998E-01 0.12840672E+03</pdfrwt>
<totfact> 0.38245255E+03</totfact>
</mgrwt>
</event>
<event>
 8    3  0.1559595E-003  0.1338553E+03  0.7818608E-02  0.1235256E+00
         -2   -1    0    0    0  501 -0.00000000000E+00  0.00000000000E+00  0.23510433867E+02  0.23510434005E+02  0.25500000000E-02 0.  1.
          2   -1    0    0  501    0  0.00000000000E+00 -0.00000000000E+00 -0.64244984065E+03  0.64244984065E+03  0.25500000000E-02 0. -1.
         25    2    1    2    0    0 -0.26775450878E+02 -0.39686176947E+02 -0.25297071462E+03  0.28620172127E+03  0.12500130156E+03 0.  0.
         23    2    1    2    0    0  0.26775450878E+02  0.39686176947E+02 -0.36596869216E+03  0.37975855339E+03  0.89395513428E+02 0.  0.
        -13    1    4    4    0    0 -0.11412223903E+02 -0.97105134442E+00 -0.21068262120E+01  0.11646101315E+02  0.10566000000E+00 0.  1.
         13    1    4    4    0    0  0.38187674781E+02  0.40657228291E+02 -0.36386186595E+03  0.36811245207E+03  0.10566000000E+00 0. -1.
    9000005    1    3    3    0    0  0.39470581653E+01 -0.54239851551E+02 -0.24540464450E+03  0.25136026000E+03  0.10000000000E+01 0.  0.
    9000005    1    3    3    0    0 -0.30722509043E+02  0.14553674605E+02 -0.75660701232E+01  0.34841461272E+02  0.10000000000E+01 0.  0.
<mgrwt>
<rscale>  0 0.12488037E+03</rscale>
<asrwt>0</asrwt>
<pdfrwt beam="2">  1        2 0.98838424E-01 0.13385531E+03</pdfrwt>
<pdfrwt beam="1">  1       -2 0.36169903E-02 0.13385531E+03</pdfrwt>
<totfact> 0.14133529E+04</totfact>
</mgrwt>
</event>
<event>
 8    3  0.1559595E-003  0.1295101E+03  0.7818608E-02  0.1241616E+00
         -2   -1    0    0    0  501 -0.00000000000E+00  0.00000000000E+00  0.55415166402E+01  0.55415172269E+01  0.25500000000E-02 0.  1.
          2   -1    0    0  501    0  0.00000000000E+00 -0.00000000000E+00 -0.36553543692E+04  0.36553543692E+04  0.25500000000E-02 0. -1.
         25    2    1    2    0    0 -0.31699858999E+02  0.12026812196E+02 -0.89440396356E+03  0.90373187863E+03  0.12499333246E+03 0.  0.
         23    2    1    2    0    0  0.31699858999E+02 -0.12026812196E+02 -0.27554088890E+04  0.27571640078E+04  0.92334690168E+02 0.  0.
        -13    1    4    4    0    0  0.14688748312E+02 -0.45322190131E+02 -0.21910504511E+04  0.21915683769E+04  0.10566000000E+00 0. -1.
         13    1    4    4    0    0  0.17011110687E+02  0.33295377934E+02 -0.56435843795E+03  0.56559563093E+03  0.10566000000E+00 0.  1.
    9000005    1    3    3    0    0  0.98848029276E-01 -0.25666273567E+01 -0.83336364929E+03  0.83336820752E+03  0.10000000000E+01 0.  0.
    9000005    1    3    3    0    0 -0.31798707028E+02  0.14593439553E+02 -0.61040314261E+02  0.70363671108E+02  0.10000000000E+01 0.  0.
<mgrwt>
<rscale>  0 0.12090249E+03</rscale>
<asrwt>0</asrwt>
<pdfrwt beam="2">  1        2 0.56236028E+00 0.12951007E+03</pdfrwt>
<pdfrwt beam="1">  1       -2 0.85254399E-03 0.12951007E+03</pdfrwt>
<totfact> 0.22044538E+03</totfact>
</mgrwt>
</event>
<event>
 8    3  0.1559595E-003  0.1314945E+03  0.7818608E-02  0.1239131E+00
         -2   -1    0    0    0  501 -0.00000000000E+00  0.00000000000E+00  0.91705039042E+02  0.91705039077E+02  0.25500000000E-02 0. -1.
          2   -1    0    0  501    0  0.00000000000E+00 -0.00000000000E+00 -0.18010506107E+03  0.18010506108E+03  0.25500000000E-02 0.  1.
         25    2    1    2    0    0  0.38666077689E+02 -0.13037747788E+02 -0.10906046268E+03  0.17083617490E+03  0.12500306277E+03 0.  0.
         23    2    1    2    0    0 -0.38666077689E+02  0.13037747788E+02  0.20660440661E+02  0.10097392526E+03  0.90021282720E+02 0.  0.
        -13    1    4    4    0    0  0.19207943895E+02  0.27868094834E+02 -0.78968913864E+01  0.34755544536E+02  0.10566000000E+00 0.  1.
         13    1    4    4    0    0 -0.57874021585E+02 -0.14830347046E+02  0.28557332047E+02  0.66218380723E+02  0.10566000000E+00 0. -1.
    9000005    1    3    3    0    0  0.68762599936E+02 -0.95618920889E+01 -0.13695340843E+02  0.70769253855E+02  0.10000000000E+01 0.  0.
    9000005    1    3    3    0    0 -0.30096522247E+02 -0.34758556992E+01 -0.95365121841E+02  0.10006692105E+03  0.10000000000E+01 0.  0.
<mgrwt>
<rscale>  0 0.12243664E+03</rscale>
<asrwt>0</asrwt>
<pdfrwt beam="2">  1        2 0.27708471E-01 0.13149454E+03</pdfrwt>
<pdfrwt beam="1">  1       -2 0.14108468E-01 0.13149454E+03</pdfrwt>
<totfact> 0.68793662E+03</totfact>
</mgrwt>
</event>
<event>
 8    3  0.1559595E-003  0.2360193E+03  0.7818608E-02  0.1125064E+00
          2   -1    0    0  501    0  0.00000000000E+00  0.00000000000E+00  0.83172395914E+02  0.83172395953E+02  0.25500000000E-02 0. -1.
         -2   -1    0    0    0  501 -0.00000000000E+00 -0.00000000000E+00 -0.62879980280E+03  0.62879980281E+03  0.25500000000E-02 0.  1.
         25    2    1    2    0    0  0.18525622362E+03 -0.75894682941E+02 -0.28680140070E+03  0.37142984838E+03  0.12500087013E+03 0.  0.
         23    2    1    2    0    0 -0.18525622362E+03  0.75894682941E+02 -0.25882600618E+03  0.34054235038E+03  0.94330904999E+02 0.  0.
        -13    1    4    4    0    0 -0.18979019710E+03  0.60086912258E+02 -0.25526740894E+03  0.32371626028E+03  0.10566000000E+00 0. -1.
         13    1    4    4    0    0  0.45339734880E+01  0.15807770683E+02 -0.35585972458E+01  0.16826090097E+02  0.10566000000E+00 0.  1.
    9000005    1    3    3    0    0  0.17458970590E+03 -0.41947314748E+02 -0.16264717245E+03  0.24227308007E+03  0.10000000000E+01 0.  0.
    9000005    1    3    3    0    0  0.10666517720E+02 -0.33947368194E+02 -0.12415422825E+03  0.12915676831E+03  0.10000000000E+01 0.  0.
<mgrwt>
<rscale>  0 0.23225278E+03</rscale>
<asrwt>0</asrwt>
<pdfrwt beam="1">  1        2 0.12795754E-01 0.23601926E+03</pdfrwt>
<pdfrwt beam="2">  1       -2 0.96738428E-01 0.23601926E+03</pdfrwt>
<totfact> 0.43729003E+02</totfact>
</mgrwt>
</event>
<event>
 8    3  0.1559595E-003  0.1884811E+03  0.7818608E-02  0.1165042E+00
         -2   -1    0    0    0  501 -0.00000000000E+00  0.00000000000E+00  0.64246450361E+02  0.64246450412E+02  0.25500000000E-02 0.  1.
          2   -1    0    0  501    0  0.00000000000E+00 -0.00000000000E+00 -0.60197487098E+03  0.60197487099E+03  0.25500000000E-02 0. -1.
         25    2    1    2    0    0  0.13292261932E+03 -0.47241715339E+02 -0.13987244251E+03  0.23471133899E+03  0.12499964033E+03 0.  0.
         23    2    1    2    0    0 -0.13292261932E+03  0.47241715339E+02 -0.39785597812E+03  0.43150998241E+03  0.89505771870E+02 0.  0.
        -13    1    4    4    0    0 -0.35792387375E+02  0.52287736093E+02 -0.10202620175E+03  0.12010187071E+03  0.10566000000E+00 0.  1.
         13    1    4    4    0    0 -0.97130231949E+02 -0.50460207542E+01 -0.29582977636E+03  0.31140811170E+03  0.10566000000E+00 0. -1.
    9000005    1    3    3    0    0  0.59016130593E+02 -0.55534245743E+01  0.12234399416E+02  0.60534492016E+02  0.10000000000E+01 0.  0.
    9000005    1    3    3    0    0  0.73906488732E+02 -0.41688290764E+02 -0.15210684192E+03  0.17417684698E+03  0.10000000000E+01 0.  0.
<mgrwt>
<rscale>  0 0.18288314E+03</rscale>
<asrwt>0</asrwt>
<pdfrwt beam="2">  1        2 0.92611515E-01 0.18848107E+03</pdfrwt>
<pdfrwt beam="1">  1       -2 0.98840697E-02 0.18848107E+03</pdfrwt>
<totfact> 0.33502227E+03</totfact>
</mgrwt>
</event>
<event>
 8    3  0.1559595E-003  0.1621695E+03  0.7818608E-02  0.1193503E+00
         -2   -1    0    0    0  501 -0.00000000000E+00  0.00000000000E+00  0.10254109243E+03  0.10254109246E+03  0.25500000000E-02 0. -1.
          2   -1    0    0  501    0  0.00000000000E+00 -0.00000000000E+00 -0.24223885230E+03  0.24223885232E+03  0.25500000000E-02 0.  1.
         25    2    1    2    0    0 -0.33317563538E+02 -0.97808694984E+02 -0.22802755930E+02  0.16376482950E+03  0.12498941094E+03 0.  0.
         23    2    1    2    0    0  0.33317563538E+02  0.97808694984E+02 -0.11689500394E+03  0.18101511528E+03  0.91790136505E+02 0.  0.
        -13    1    4    4    0    0 -0.16256767617E+02  0.60655268381E+02 -0.97731770595E+02  0.11616735438E+03  0.10566000000E+00 0.  1.
         13    1    4    4    0    0  0.49574331156E+02  0.37153426603E+02 -0.19163233346E+02  0.64847760903E+02  0.10566000000E+00 0. -1.
    9000005    1    3    3    0    0 -0.79179665825E+02 -0.41068054841E+02 -0.13028394971E+02  0.90148453587E+02  0.10000000000E+01 0.  0.
    9000005    1    3    3    0    0  0.45862102287E+02 -0.56740640143E+02 -0.97743609587E+01  0.73616375910E+02  0.10000000000E+01 0.  0.
<mgrwt>
<rscale>  0 0.15581593E+03</rscale>
<asrwt>0</asrwt>
<pdfrwt beam="2">  1        2 0.37267515E-01 0.16216952E+03</pdfrwt>
<pdfrwt beam="1">  1       -2 0.15775553E-01 0.16216952E+03</pdfrwt>
<totfact> 0.42138887E+03</totfact>
</mgrwt>
</event>
<event>
 8    3  0.1559595E-003  0.3325210E+03  0.7818608E-02  0.1071286E+00
         -2   -1    0    0    0  501 -0.00000000000E+00  0.00000000000E+00  0.25011405000E+04  0.25011405000E+04  0.25500000000E-02 0.  1.
          2   -1    0    0  501    0  0.00000000000E+00 -0.00000000000E+00 -0.44270434725E+02  0.44270434799E+02  0.25500000000E-02 0. -1.
         25    2    1    2    0    0  0.26483999550E+03  0.15749322404E+03  0.10108026957E+04  0.10640922319E+04  0.12500339855E+03 0.  0.
         23    2    1    2    0    0 -0.26483999550E+03 -0.15749322404E+03  0.14460673696E+04  0.14813187029E+04  0.90829087801E+02 0.  0.
        -13    1    4    4    0    0 -0.55649631414E+02 -0.48222372171E+02  0.54088871909E+03  0.54587809652E+03  0.10566000000E+00 0.  1.
         13    1    4    4    0    0 -0.20919036409E+03 -0.10927085187E+03  0.90517865050E+03  0.93544060634E+03  0.10566000000E+00 0. -1.
    9000005    1    3    3    0    0  0.16424567526E+03  0.15723066863E+03  0.61439077659E+03  0.65511460932E+03  0.10000000000E+01 0.  0.
    9000005    1    3    3    0    0  0.10059432025E+03  0.26255540851E+00  0.39641191907E+03  0.40897762259E+03  0.10000000000E+01 0.  0.
<mgrwt>
<rscale>  0 0.32966376E+03</rscale>
<asrwt>0</asrwt>
<pdfrwt beam="2">  1        2 0.68108331E-02 0.33252096E+03</pdfrwt>
<pdfrwt beam="1">  1       -2 0.38479102E+00 0.33252096E+03</pdfrwt>
<totfact> 0.11569742E+01</totfact>
</mgrwt>
</event>
<event>
 8    3  0.1559595E-003  0.1267735E+03  0.7818608E-02  0.1246749E+00
         -2   -1    0    0    0  501 -0.00000000000E+00  0.00000000000E+00  0.46740226490E+02  0.46740226559E+02  0.25500000000E-02 0. -1.
          2   -1    0    0  501    0  0.00000000000E+00 -0.00000000000E+00 -0.26536051845E+03  0.26536051846E+03  0.25500000000E-02 0.  1.
         25    2    1    2    0    0  0.20598977059E+02  0.47316447306E+01 -0.14235302224E+03  0.19061980949E+03  0.12499929004E+03 0.  0.
         23    2    1    2    0    0 -0.20598977059E+02 -0.47316447306E+01 -0.76267269718E+02  0.12148093553E+03  0.92164065395E+02 0.  0.
        -13    1    4    4    0    0  0.29783408697E+02  0.65358527507E+00 -0.62087579880E+02  0.68864775805E+02  0.10566000000E+00 0.  1.
         13    1    4    4    0    0 -0.50382385756E+02 -0.53852300057E+01 -0.14179689838E+02  0.52616159729E+02  0.10566000000E+00 0. -1.
    9000005    1    3    3    0    0 -0.27270588408E+02  0.48496047126E+02 -0.36755327125E+02  0.66689621764E+02  0.10000000000E+01 0.  0.
    9000005    1    3    3    0    0  0.47869565467E+02 -0.43764402395E+02 -0.10559769512E+03  0.12393018772E+03  0.10000000000E+01 0.  0.
<mgrwt>
<rscale>  0 0.11781328E+03</rscale>
<asrwt>0</asrwt>
<pdfrwt beam="2">  1        2 0.40824694E-01 0.12677353E+03</pdfrwt>
<pdfrwt beam="1">  1       -2 0.71908043E-02 0.12677353E+03</pdfrwt>
<totfact> 0.13057651E+04</totfact>
</mgrwt>
</event>
<event>
 8    3  0.1559595E-003  0.1526468E+03  0.7818608E-02  0.1205698E+00
         -2   -1    0    0    0  501 -0.00000000000E+00  0.00000000000E+00  0.15228828318E+02  0.15228828532E+02  0.25500000000E-02 0.  1.
          2   -1    0    0  501    0  0.00000000000E+00 -0.00000000000E+00 -0.12923454257E+04  0.12923454257E+04  0.25500000000E-02 0. -1.
         25    2    1    2    0    0  0.35545383260E+02 -0.80079778269E+02 -0.64756329683E+03  0.66531140026E+03  0.12499916299E+03 0.  0.
         23    2    1    2    0    0 -0.35545383260E+02  0.80079778269E+02 -0.62955330057E+03  0.64226285400E+03  0.92130180770E+02 0.  0.
        -13    1    4    4    0    0 -0.64312643048E+02  0.63996084447E+02 -0.52013043032E+03  0.52798417646E+03  0.10566000000E+00 0. -1.
         13    1    4    4    0    0  0.28767259789E+02  0.16083693823E+02 -0.10942287025E+03  0.11427867754E+03  0.10566000000E+00 0.  1.
    9000005    1    3    3    0    0 -0.15952240195E+02 -0.30540112356E+02 -0.36956123799E+02  0.50536397935E+02  0.10000000000E+01 0.  0.
    9000005    1    3    3    0    0  0.51497623455E+02 -0.49539665913E+02 -0.61060717303E+03  0.61477500232E+03  0.10000000000E+01 0.  0.
<mgrwt>
<rscale>  0 0.14582603E+03</rscale>
<asrwt>0</asrwt>
<pdfrwt beam="2">  1        2 0.19882229E+00 0.15264677E+03</pdfrwt>
<pdfrwt beam="1">  1       -2 0.23428977E-02 0.15264677E+03</pdfrwt>
<totfact> 0.10576941E+04</totfact>
</mgrwt>
</event>
<event>
 8    3  0.1559595E-003  0.1289562E+03  0.7818608E-02  0.1242560E+00
         -2   -1    0    0    0  501 -0.00000000000E+00  0.00000000000E+00  0.23387251251E+03  0.23387251252E+03  0.25500000000E-02 0.  1.
          2   -1    0    0  501    0  0.00000000000E+00 -0.00000000000E+00 -0.88065983471E+02  0.88065983508E+02  0.25500000000E-02 0. -1.
         25    2    1    2    0    0 -0.28049912579E+02 -0.14765985566E+02 -0.18975650736E+02  0.13034483571E+03  0.12499947580E+03 0.  0.
         23    2    1    2    0    0  0.28049912579E+02  0.14765985566E+02  0.16478217977E+03  0.19159366033E+03  0.92466923708E+02 0.  0.
        -13    1    4    4    0    0 -0.16391278284E+01 -0.16629388099E+02 -0.41540188621E+01  0.17218894428E+02  0.10566000000E+00 0. -1.
         13    1    4    4    0    0  0.29689040407E+02  0.31395373664E+02  0.16893619864E+03  0.17437476590E+03  0.10566000000E+00 0.  1.
    9000005    1    3    3    0    0 -0.19601789979E+02  0.14827495488E+02  0.49494134679E+02  0.55269830472E+02  0.10000000000E+01 0.  0.
    9000005    1    3    3    0    0 -0.84481226001E+01 -0.29593481053E+02 -0.68469785415E+02  0.75075005235E+02  0.10000000000E+01 0.  0.
<mgrwt>
<rscale>  0 0.12032623E+03</rscale>
<asrwt>0</asrwt>
<pdfrwt beam="2">  1        2 0.13548613E-01 0.12895620E+03</pdfrwt>
<pdfrwt beam="1">  1       -2 0.35980387E-01 0.12895620E+03</pdfrwt>
<totfact> 0.30780687E+03</totfact>
</mgrwt>
</event>
<event>
 8    3  0.1559595E-003  0.1318951E+03  0.7818608E-02  0.1237791E+00
          2   -1    0    0  501    0  0.00000000000E+00  0.00000000000E+00  0.69269068090E+02  0.69269068137E+02  0.25500000000E-02 0. -1.
         -2   -1    0    0    0  501 -0.00000000000E+00 -0.00000000000E+00 -0.20662445945E+03  0.20662445946E+03  0.25500000000E-02 0.  1.
         25    2    1    2    0    0  0.40020689822E+02  0.12951003117E+02 -0.10959750884E+03  0.17148743883E+03  0.12500777431E+03 0.  0.
         23    2    1    2    0    0 -0.40020689822E+02 -0.12951003117E+02 -0.27757882514E+02  0.10440608877E+03  0.91437121753E+02 0.  0.
        -13    1    4    4    0    0 -0.10125901984E+02 -0.54785197729E+01  0.33723470177E+02  0.35634697623E+02  0.10566000000E+00 0. -1.
         13    1    4    4    0    0 -0.29894787839E+02 -0.74724833445E+01 -0.61481352691E+02  0.68771391145E+02  0.10566000000E+00 0.  1.
    9000005    1    3    3    0    0 -0.43682244165E+02  0.15963883164E+02 -0.26687865202E+02  0.53630459349E+02  0.10000000000E+01 0.  0.
    9000005    1    3    3    0    0  0.83702933987E+02 -0.30128800465E+01 -0.82909643639E+02  0.11785697948E+03  0.10000000000E+01 0.  0.
<mgrwt>
<rscale>  0 0.12327456E+03</rscale>
<asrwt>0</asrwt>
<pdfrwt beam="1">  1        2 0.10656780E-01 0.13189514E+03</pdfrwt>
<pdfrwt beam="2">  1       -2 0.31788378E-01 0.13189514E+03</pdfrwt>
<totfact> 0.51611848E+03</totfact>
</mgrwt>
</event>
<event>
 8    3  0.1559595E-003  0.1370656E+03  0.7818608E-02  0.1229175E+00
         -2   -1    0    0    0  501 -0.00000000000E+00  0.00000000000E+00  0.56365018598E+01  0.56365024366E+01  0.25500000000E-02 0.  1.
          2   -1    0    0  501    0  0.00000000000E+00 -0.00000000000E+00 -0.26429948901E+04  0.26429948901E+04  0.25500000000E-02 0. -1.
         25    2    1    2    0    0 -0.41736812323E+02  0.37669155759E+02 -0.14702665826E+04  0.14766417317E+04  0.12500421145E+03 0.  0.
         23    2    1    2    0    0  0.41736812323E+02 -0.37669155759E+02 -0.11670918056E+04  0.11719896609E+04  0.91079941188E+02 0.  0.
        -13    1    4    4    0    0  0.40450581318E+02 -0.49994832333E+02 -0.11437961799E+04  0.11456026558E+04  0.10566000000E+00 0. -1.
         13    1    4    4    0    0  0.12862310050E+01  0.12325676574E+02 -0.23295625782E+02  0.26387005093E+02  0.10566000000E+00 0.  1.
    9000005    1    3    3    0    0  0.34072348387E+02  0.13105376821E+02 -0.16726980377E+03  0.17120999702E+03  0.10000000000E+01 0.  0.
    9000005    1    3    3    0    0 -0.75809160710E+02  0.24563778938E+02 -0.13029967789E+04  0.13054317346E+04  0.10000000000E+01 0.  0.
<mgrwt>
<rscale>  0 0.12884803E+03</rscale>
<asrwt>0</asrwt>
<pdfrwt beam="2">  1        2 0.40661361E+00 0.13706560E+03</pdfrwt>
<pdfrwt beam="1">  1       -2 0.86715629E-03 0.13706560E+03</pdfrwt>
<totfact> 0.87119378E+03</totfact>
</mgrwt>
</event>
<event>
 8    3  0.1559595E-003  0.1680265E+03  0.7818608E-02  0.1183613E+00
          2   -1    0    0  501    0  0.00000000000E+00  0.00000000000E+00  0.14722044318E+04  0.14722044318E+04  0.25500000000E-02 0. -1.
         -2   -1    0    0    0  501 -0.00000000000E+00 -0.00000000000E+00 -0.18897758248E+02  0.18897758420E+02  0.25500000000E-02 0.  1.
         25    2    1    2    0    0 -0.34794132486E+02  0.10675661617E+03  0.56605208514E+03  0.59046411052E+03  0.12500118388E+03 0.  0.
         23    2    1    2    0    0  0.34794132486E+02 -0.10675661617E+03  0.88725458840E+03  0.90063807969E+03  0.10639849246E+03 0.  0.
        -13    1    4    4    0    0  0.59337399712E+02 -0.30786411783E+02  0.55076686642E+03  0.55480887021E+03  0.10566000000E+00 0.  1.
         13    1    4    4    0    0 -0.24543267226E+02 -0.75970204382E+02  0.33648772198E+03  0.34582920948E+03  0.10566000000E+00 0. -1.
    9000005    1    3    3    0    0 -0.66172487112E+01  0.55515477074E+02  0.63874887014E+02  0.84892622567E+02  0.10000000000E+01 0.  0.
    9000005    1    3    3    0    0 -0.28176883774E+02  0.51241139091E+02  0.50217719813E+03  0.50557148795E+03  0.10000000000E+01 0.  0.
<mgrwt>
<rscale>  0 0.16458763E+03</rscale>
<asrwt>0</asrwt>
<pdfrwt beam="1">  1        2 0.22649298E+00 0.16802649E+03</pdfrwt>
<pdfrwt beam="2">  1       -2 0.29073475E-02 0.16802649E+03</pdfrwt>
<totfact> 0.61949419E+03</totfact>
</mgrwt>
</event>
<event>
 8    3  0.1559595E-003  0.1557859E+03  0.7818608E-02  0.1201664E+00
          2   -1    0    0  501    0  0.00000000000E+00  0.00000000000E+00  0.24096069551E+04  0.24096069551E+04  0.25500000000E-02 0. -1.
         -2   -1    0    0    0  501 -0.00000000000E+00 -0.00000000000E+00 -0.17691655543E+02  0.17691655726E+02  0.25500000000E-02 0.  1.
         25    2    1    2    0    0 -0.80073016256E+02 -0.47196665724E+02  0.21197739691E+04  0.21254907474E+04  0.12502009320E+03 0.  0.
         23    2    1    2    0    0  0.80073016256E+02  0.47196665724E+02  0.27214133038E+03  0.30180786343E+03  0.91585312886E+02 0.  0.
        -13    1    4    4    0    0  0.66915643855E+02  0.58245939721E+02  0.27034910346E+03  0.28453284836E+03  0.10566000000E+00 0. -1.
         13    1    4    4    0    0  0.13157372401E+02 -0.11049273997E+02  0.17922269208E+01  0.17275015072E+02  0.10566000000E+00 0.  1.
    9000005    1    3    3    0    0 -0.58497379200E+01  0.25715184592E+02  0.11379930688E+03  0.11681940079E+03  0.10000000000E+01 0.  0.
    9000005    1    3    3    0    0 -0.74223278336E+02 -0.72911850316E+02  0.20059746622E+04  0.20086713466E+04  0.10000000000E+01 0.  0.
<mgrwt>
<rscale>  0 0.14903510E+03</rscale>
<asrwt>0</asrwt>
<pdfrwt beam="1">  1        2 0.37070898E+00 0.15578587E+03</pdfrwt>
<pdfrwt beam="2">  1       -2 0.27217916E-02 0.15578587E+03</pdfrwt>
<totfact> 0.22231159E+03</totfact>
</mgrwt>
</event>
<event>
 8    3  0.1559595E-003  0.1279642E+03  0.7818608E-02  0.1246206E+00
          2   -1    0    0  501    0  0.00000000000E+00  0.00000000000E+00  0.14639469702E+02  0.14639469924E+02  0.25500000000E-02 0. -1.
         -2   -1    0    0    0  501 -0.00000000000E+00 -0.00000000000E+00 -0.91439047984E+03  0.91439047984E+03  0.25500000000E-02 0.  1.
         25    2    1    2    0    0  0.17284691455E+01  0.27327623446E+02 -0.37822102278E+03  0.39928183080E+03  0.12500020691E+03 0.  0.
         23    2    1    2    0    0 -0.17284691455E+01 -0.27327623446E+02 -0.52152998735E+03  0.52974811896E+03  0.88824294114E+02 0.  0.
        -13    1    4    4    0    0  0.13306647991E+02  0.28688595410E+02 -0.12208855913E+03  0.12611792030E+03  0.10566000000E+00 0. -1.
         13    1    4    4    0    0 -0.15035117137E+02 -0.56016218857E+02 -0.39944142823E+03  0.40363019866E+03  0.10566000000E+00 0.  1.
    9000005    1    3    3    0    0 -0.52008661713E+02  0.96823202756E+01 -0.28780038518E+03  0.29262383691E+03  0.10000000000E+01 0.  0.
    9000005    1    3    3    0    0  0.53737130859E+02  0.17645303171E+02 -0.90420637600E+02  0.10665799389E+03  0.10000000000E+01 0.  0.
<mgrwt>
<rscale>  0 0.11813477E+03</rscale>
<asrwt>0</asrwt>
<pdfrwt beam="1">  1        2 0.22522268E-02 0.12796421E+03</pdfrwt>
<pdfrwt beam="2">  1       -2 0.14067541E+00 0.12796421E+03</pdfrwt>
<totfact> 0.16610149E+03</totfact>
</mgrwt>
</event>
<event>
 8    3  0.1559595E-003  0.1393133E+03  0.7818608E-02  0.1225708E+00
         -2   -1    0    0    0  501 -0.00000000000E+00  0.00000000000E+00  0.37367783844E+02  0.37367783931E+02  0.25500000000E-02 0.  1.
          2   -1    0    0  501    0  0.00000000000E+00 -0.00000000000E+00 -0.44343708195E+03  0.44343708196E+03  0.25500000000E-02 0. -1.
         25    2    1    2    0    0 -0.58849409315E+02  0.18030579218E+02 -0.16452249539E+03  0.21558260490E+03  0.12497941144E+03 0.  0.
         23    2    1    2    0    0  0.58849409315E+02 -0.18030579218E+02 -0.24154680272E+03  0.26522226098E+03  0.90607036451E+02 0.  0.
        -13    1    4    4    0    0 -0.20583044228E+02  0.96582643358E+01 -0.30606807828E+02  0.38127832736E+02  0.10566000000E+00 0.  1.
         13    1    4    4    0    0  0.79432453542E+02 -0.27688843554E+02 -0.21093999489E+03  0.22709442825E+03  0.10566000000E+00 0. -1.
    9000005    1    3    3    0    0  0.17805309272E+02  0.36465507031E+02 -0.11624790212E+03  0.12313138100E+03  0.10000000000E+01 0.  0.
    9000005    1    3    3    0    0 -0.76654718587E+02 -0.18434927813E+02 -0.48274593270E+02  0.92451223899E+02  0.10000000000E+01 0.  0.
<mgrwt>
<rscale>  0 0.13118467E+03</rscale>
<asrwt>0</asrwt>
<pdfrwt beam="2">  1        2 0.68221086E-01 0.13931334E+03</pdfrwt>
<pdfrwt beam="1">  1       -2 0.57488901E-02 0.13931334E+03</pdfrwt>
<totfact> 0.10710621E+04</totfact>
</mgrwt>
</event>
<event>
 8    3  0.1559595E-003  0.1419357E+03  0.7818608E-02  0.1221759E+00
         -2   -1    0    0    0  501 -0.00000000000E+00  0.00000000000E+00  0.63494084053E+03  0.63494084054E+03  0.25500000000E-02 0.  1.
          2   -1    0    0  501    0  0.00000000000E+00 -0.00000000000E+00 -0.25508547709E+02  0.25508547837E+02  0.25500000000E-02 0. -1.
         25    2    1    2    0    0  0.32921156634E+02  0.58624344631E+02  0.32978619168E+03  0.35903298221E+03  0.12500053501E+03 0.  0.
         23    2    1    2    0    0 -0.32921156634E+02 -0.58624344631E+02  0.27964610114E+03  0.30141640616E+03  0.90162584723E+02 0.  0.
        -13    1    4    4    0    0  0.22743340689E+02 -0.23135625924E+02  0.33755778086E+02  0.46818590867E+02  0.10566000000E+00 0. -1.
         13    1    4    4    0    0 -0.55664497322E+02 -0.35488718707E+02  0.24589032305E+03  0.25459781530E+03  0.10566000000E+00 0.  1.
    9000005    1    3    3    0    0  0.66069056919E+02  0.52851821157E+02  0.30684429852E+03  0.31829680931E+03  0.10000000000E+01 0.  0.
    9000005    1    3    3    0    0 -0.33147900286E+02  0.57725234745E+01  0.22941893158E+02  0.40736172897E+02  0.10000000000E+01 0.  0.
<mgrwt>
<rscale>  0 0.13391515E+03</rscale>
<asrwt>0</asrwt>
<pdfrwt beam="2">  1        2 0.39243919E-02 0.14193573E+03</pdfrwt>
<pdfrwt beam="1">  1       -2 0.97683207E-01 0.14193573E+03</pdfrwt>
<totfact> 0.18975779E+03</totfact>
</mgrwt>
</event>
<event>
 8    3  0.1559595E-003  0.1537227E+03  0.7818608E-02  0.1203259E+00
          2   -1    0    0  501    0  0.00000000000E+00  0.00000000000E+00  0.13149618240E+04  0.13149618240E+04  0.25500000000E-02 0. -1.
         -2   -1    0    0    0  501 -0.00000000000E+00 -0.00000000000E+00 -0.18727693530E+02  0.18727693704E+02  0.25500000000E-02 0.  1.
         25    2    1    2    0    0 -0.43095592539E+02 -0.78408753989E+02  0.96923687315E+03  0.98135150400E+03  0.12500198127E+03 0.  0.
         23    2    1    2    0    0  0.43095592539E+02  0.78408753989E+02  0.32699725729E+03  0.35233801368E+03  0.95967217376E+02 0.  0.
        -13    1    4    4    0    0  0.12717436293E+02  0.92555644712E+01  0.22432544925E+03  0.22487622596E+03  0.10566000000E+00 0. -1.
         13    1    4    4    0    0  0.30378156246E+02  0.69153189518E+02  0.10267180805E+03  0.12746178772E+03  0.10566000000E+00 0.  1.
    9000005    1    3    3    0    0 -0.68770387276E+02 -0.93293105210E+02  0.87235574463E+03  0.88002188316E+03  0.10000000000E+01 0.  0.
    9000005    1    3    3    0    0  0.25674794737E+02  0.14884351221E+02  0.96881128517E+02  0.10132962084E+03  0.10000000000E+01 0.  0.
<mgrwt>
<rscale>  0 0.14775473E+03</rscale>
<asrwt>0</asrwt>
<pdfrwt beam="1">  1        2 0.20230186E+00 0.15372267E+03</pdfrwt>
<pdfrwt beam="2">  1       -2 0.28811830E-02 0.15372267E+03</pdfrwt>
<totfact> 0.75937315E+03</totfact>
</mgrwt>
</event>
<event>
 8    3  0.1559595E-003  0.1587671E+03  0.7818608E-02  0.1197941E+00
         -2   -1    0    0    0  501 -0.00000000000E+00  0.00000000000E+00  0.24445720912E+02  0.24445721045E+02  0.25500000000E-02 0.  1.
          2   -1    0    0  501    0  0.00000000000E+00 -0.00000000000E+00 -0.88729974316E+03  0.88729974316E+03  0.25500000000E-02 0. -1.
         25    2    1    2    0    0 -0.48095869640E+02 -0.85263432464E+02 -0.41343202484E+03  0.44286910320E+03  0.12499575118E+03 0.  0.
         23    2    1    2    0    0  0.48095869640E+02  0.85263432464E+02 -0.44942199741E+03  0.46887636101E+03  0.91004640357E+02 0.  0.
        -13    1    4    4    0    0 -0.19998346827E+02  0.64897889343E+01 -0.29427255389E+02  0.36166638771E+02  0.10566000000E+00 0.  1.
         13    1    4    4    0    0  0.68094216467E+02  0.78773643530E+02 -0.41999474202E+03  0.43270972224E+03  0.10566000000E+00 0. -1.
    9000005    1    3    3    0    0  0.56267417311E+01 -0.29328401974E+02 -0.92014984323E+01  0.31264723864E+02  0.10000000000E+01 0.  0.
    9000005    1    3    3    0    0 -0.53722611371E+02 -0.55935030490E+02 -0.40423052641E+03  0.41160437934E+03  0.10000000000E+01 0.  0.
<mgrwt>
<rscale>  0 0.15207946E+03</rscale>
<asrwt>0</asrwt>
<pdfrwt beam="2">  1        2 0.13650763E+00 0.15876714E+03</pdfrwt>
<pdfrwt beam="1">  1       -2 0.37608808E-02 0.15876714E+03</pdfrwt>
<totfact> 0.90791215E+03</totfact>
</mgrwt>
</event>
<event>
 8    3  0.1559595E-003  0.1396252E+03  0.7818608E-02  0.1226815E+00
         -2   -1    0    0    0  501 -0.00000000000E+00  0.00000000000E+00  0.17555868862E+02  0.17555869047E+02  0.25500000000E-02 0. -1.
          2   -1    0    0  501    0  0.00000000000E+00 -0.00000000000E+00 -0.92134650740E+03  0.92134650741E+03  0.25500000000E-02 0.  1.
         25    2    1    2    0    0 -0.38376688530E+02 -0.48945608358E+02 -0.39042886255E+03  0.41464430831E+03  0.12500705142E+03 0.  0.
         23    2    1    2    0    0  0.38376688530E+02  0.48945608358E+02 -0.51336177599E+03  0.52425806814E+03  0.86242484659E+02 0.  0.
        -13    1    4    4    0    0  0.55952537491E+01  0.62025276208E+02 -0.21567988725E+03  0.22449112829E+03  0.10566000000E+00 0. -1.
         13    1    4    4    0    0  0.32781434780E+02 -0.13079667850E+02 -0.29768188875E+03  0.29976693985E+03  0.10566000000E+00 0.  1.
    9000005    1    3    3    0    0 -0.32898401504E+02 -0.18266350350E+02 -0.37986099157E+03  0.38172154419E+03  0.10000000000E+01 0.  0.
    9000005    1    3    3    0    0 -0.54782870254E+01 -0.30679258008E+02 -0.10567870971E+02  0.32922764123E+02  0.10000000000E+01 0.  0.
<mgrwt>
<rscale>  0 0.13043302E+03</rscale>
<asrwt>0</asrwt>
<pdfrwt beam="2">  1        2 0.14174558E+00 0.13962523E+03</pdfrwt>
<pdfrwt beam="1">  1       -2 0.27009036E-02 0.13962523E+03</pdfrwt>
<totfact> 0.13981622E+04</totfact>
</mgrwt>
</event>
<event>
 8    3  0.1559595E-003  0.1266722E+03  0.7818608E-02  0.1260647E+00
         -2   -1    0    0    0  501 -0.00000000000E+00  0.00000000000E+00  0.11857389039E+02  0.11857389313E+02  0.25500000000E-02 0.  1.
          2   -1    0    0  501    0  0.00000000000E+00 -0.00000000000E+00 -0.10282201258E+04  0.10282201258E+04  0.25500000000E-02 0. -1.
         25    2    1    2    0    0 -0.13036058652E+02 -0.15843812595E+02 -0.40114402075E+03  0.42066894705E+03  0.12499948960E+03 0.  0.
         23    2    1    2    0    0  0.13036058652E+02  0.15843812595E+02 -0.61521871604E+03  0.61940856811E+03  0.68934319834E+02 0.  0.
        -13    1    4    4    0    0  0.29611996040E+02  0.16295056470E+02 -0.14459658464E+03  0.14849438584E+03  0.10566000000E+00 0.  1.
         13    1    4    4    0    0 -0.16575937387E+02 -0.45124387557E+00 -0.47062213141E+03  0.47091418226E+03  0.10566000000E+00 0. -1.
    9000005    1    3    3    0    0 -0.44955448239E+02 -0.15235681319E+02 -0.53371558429E+02  0.71432776516E+02  0.10000000000E+01 0.  0.
    9000005    1    3    3    0    0  0.31919389586E+02 -0.60813127563E+00 -0.34777246232E+03  0.34923617053E+03  0.10000000000E+01 0.  0.
<mgrwt>
<rscale>  0 0.10995822E+03</rscale>
<asrwt>0</asrwt>
<pdfrwt beam="2">  1        2 0.15818764E+00 0.12667217E+03</pdfrwt>
<pdfrwt beam="1">  1       -2 0.18242145E-02 0.12667217E+03</pdfrwt>
<totfact> 0.21183788E+04</totfact>
</mgrwt>
</event>
<event>
 8    3  0.1559595E-003  0.2274215E+03  0.7818608E-02  0.1131537E+00
          2   -1    0    0  501    0  0.00000000000E+00  0.00000000000E+00  0.53773579576E+03  0.53773579577E+03  0.25500000000E-02 0. -1.
         -2   -1    0    0    0  501 -0.00000000000E+00 -0.00000000000E+00 -0.12310962792E+03  0.12310962795E+03  0.25500000000E-02 0.  1.
         25    2    1    2    0    0  0.18781722825E+03  0.28637766951E+02  0.39977351420E+02  0.23090849685E+03  0.12500044947E+03 0.  0.
         23    2    1    2    0    0 -0.18781722825E+03 -0.28637766951E+02  0.37464881642E+03  0.42993692686E+03  0.91589259803E+02 0.  0.
        -13    1    4    4    0    0 -0.45821045765E+02 -0.19984864177E+02  0.33124257083E+02  0.59968246619E+02  0.10566000000E+00 0.  1.
         13    1    4    4    0    0 -0.14199618249E+03 -0.86529027735E+01  0.34152455933E+03  0.36996868024E+03  0.10566000000E+00 0. -1.
    9000005    1    3    3    0    0  0.18658622444E+03  0.71279381240E+01  0.65145598127E+02  0.19776292779E+03  0.10000000000E+01 0.  0.
    9000005    1    3    3    0    0  0.12310038189E+01  0.21509828827E+02 -0.25168246707E+02  0.33145569069E+02  0.10000000000E+01 0.  0.
<mgrwt>
<rscale>  0 0.22317686E+03</rscale>
<asrwt>0</asrwt>
<pdfrwt beam="1">  1        2 0.82728585E-01 0.22742151E+03</pdfrwt>
<pdfrwt beam="2">  1       -2 0.18939943E-01 0.22742151E+03</pdfrwt>
<totfact> 0.13207906E+03</totfact>
</mgrwt>
</event>
<event>
 8    3  0.1559595E-003  0.1276724E+03  0.7818608E-02  0.1244918E+00
         -2   -1    0    0    0  501 -0.00000000000E+00  0.00000000000E+00  0.13761142450E+02  0.13761142687E+02  0.25500000000E-02 0.  1.
          2   -1    0    0  501    0  0.00000000000E+00 -0.00000000000E+00 -0.96844226324E+03  0.96844226324E+03  0.25500000000E-02 0. -1.
         25    2    1    2    0    0  0.25514103177E+02 -0.50202944285E+01 -0.42044179763E+03  0.43939907766E+03  0.12499628571E+03 0.  0.
         23    2    1    2    0    0 -0.25514103177E+02  0.50202944285E+01 -0.53423932316E+03  0.54280432826E+03  0.92459242677E+02 0.  0.
        -13    1    4    4    0    0 -0.36907819739E+02 -0.14739884514E+02 -0.95063520342E+02  0.10303657320E+03  0.10566000000E+00 0.  1.
         13    1    4    4    0    0  0.11393716561E+02  0.19760178942E+02 -0.43917580282E+03  0.43976775506E+03  0.10566000000E+00 0. -1.
    9000005    1    3    3    0    0  0.74788201989E+02  0.73658489648E+01 -0.28483051345E+03  0.29457928013E+03  0.10000000000E+01 0.  0.
    9000005    1    3    3    0    0 -0.49274098812E+02 -0.12386143393E+02 -0.13561128418E+03  0.14481979754E+03  0.10000000000E+01 0.  0.
<mgrwt>
<rscale>  0 0.11890303E+03</rscale>
<asrwt>0</asrwt>
<pdfrwt beam="2">  1        2 0.14899106E+00 0.12767241E+03</pdfrwt>
<pdfrwt beam="1">  1       -2 0.21170996E-02 0.12767241E+03</pdfrwt>
<totfact> 0.18544512E+04</totfact>
</mgrwt>
</event>
<event>
 8    3  0.1559595E-003  0.1374559E+03  0.7818608E-02  0.1220472E+00
          2   -1    0    0  501    0  0.00000000000E+00  0.00000000000E+00  0.11000496904E+04  0.11000496904E+04  0.25500000000E-02 0. -1.
         -2   -1    0    0    0  501 -0.00000000000E+00 -0.00000000000E+00 -0.16252709830E+02  0.16252710030E+02  0.25500000000E-02 0.  1.
         25    2    1    2    0    0 -0.50580867619E+02 -0.26662116397E+02  0.48265961486E+03  0.50185101183E+03  0.12499936654E+03 0.  0.
         23    2    1    2    0    0  0.50580867619E+02  0.26662116397E+02  0.60113736572E+03  0.61445138862E+03  0.11364455064E+03 0.  0.
        -13    1    4    4    0    0 -0.36684429288E+00 -0.40088073368E+02  0.13562926396E+03  0.14143018281E+03  0.10566000000E+00 0.  1.
         13    1    4    4    0    0  0.50947711912E+02  0.66750189765E+02  0.46550810176E+03  0.47302120582E+03  0.10566000000E+00 0. -1.
    9000005    1    3    3    0    0  0.16200166098E+02  0.28481059448E+02  0.44829636391E+02  0.55536586390E+02  0.10000000000E+01 0.  0.
    9000005    1    3    3    0    0 -0.66781033717E+02 -0.55143175845E+02  0.43782997847E+03  0.44631442544E+03  0.10000000000E+01 0.  0.
<mgrwt>
<rscale>  0 0.13482164E+03</rscale>
<asrwt>0</asrwt>
<pdfrwt beam="1">  1        2 0.16923847E+00 0.13745594E+03</pdfrwt>
<pdfrwt beam="2">  1       -2 0.25004160E-02 0.13745594E+03</pdfrwt>
<totfact> 0.12237038E+04</totfact>
</mgrwt>
</event>
<event>
 8    3  0.1559595E-003  0.1441450E+03  0.7818608E-02  0.1218290E+00
          2   -1    0    0  501    0  0.00000000000E+00  0.00000000000E+00  0.16629474247E+03  0.16629474249E+03  0.25500000000E-02 0. -1.
         -2   -1    0    0    0  501 -0.00000000000E+00 -0.00000000000E+00 -0.11288359355E+03  0.11288359358E+03  0.25500000000E-02 0.  1.
         25    2    1    2    0    0 -0.69350350070E+02  0.18547097350E+02 -0.15034356193E+02  0.14492696587E+03  0.12499731075E+03 0.  0.
         23    2    1    2    0    0  0.69350350070E+02 -0.18547097350E+02  0.68445505111E+02  0.13425137020E+03  0.90471969996E+02 0.  0.
        -13    1    4    4    0    0  0.85438011760E+02 -0.32023608781E+02  0.41875879137E+02  0.10039305649E+03  0.10566000000E+00 0. -1.
         13    1    4    4    0    0 -0.16087661690E+02  0.13476511431E+02  0.26569625974E+02  0.33858313712E+02  0.10566000000E+00 0.  1.
    9000005    1    3    3    0    0 -0.19128650483E+02  0.69793089320E+02 -0.66129647461E+01  0.72675387091E+02  0.10000000000E+01 0.  0.
    9000005    1    3    3    0    0 -0.50221699588E+02 -0.51245991970E+02 -0.84213914471E+01  0.72251578781E+02  0.10000000000E+01 0.  0.
<mgrwt>
<rscale>  0 0.13637625E+03</rscale>
<asrwt>0</asrwt>
<pdfrwt beam="1">  1        2 0.25583806E-01 0.14414504E+03</pdfrwt>
<pdfrwt beam="2">  1       -2 0.17366707E-01 0.14414504E+03</pdfrwt>
<totfact> 0.53696248E+03</totfact>
</mgrwt>
</event>
<event>
 8    3  0.1559595E-003  0.1272632E+03  0.7818608E-02  0.1247393E+00
          2   -1    0    0  501    0  0.00000000000E+00  0.00000000000E+00  0.16859828208E+03  0.16859828210E+03  0.25500000000E-02 0. -1.
         -2   -1    0    0    0  501 -0.00000000000E+00 -0.00000000000E+00 -0.97601189149E+02  0.97601189182E+02  0.25500000000E-02 0.  1.
         25    2    1    2    0    0  0.22102196894E+02 -0.89770302173E+01  0.10787721217E+03  0.16683345730E+03  0.12500726135E+03 0.  0.
         23    2    1    2    0    0 -0.22102196894E+02  0.89770302173E+01 -0.36880119246E+02  0.99366013978E+02  0.89131180623E+02 0.  0.
        -13    1    4    4    0    0 -0.37734399341E+02  0.23103607972E+02  0.12248669877E+02  0.45909723074E+02  0.10566000000E+00 0. -1.
         13    1    4    4    0    0  0.15632202447E+02 -0.14126577755E+02 -0.49128789124E+02  0.53456290904E+02  0.10566000000E+00 0.  1.
    9000005    1    3    3    0    0  0.23545545844E+02 -0.18711080359E+02 -0.21560563811E+02  0.37018308567E+02  0.10000000000E+01 0.  0.
    9000005    1    3    3    0    0 -0.14433489503E+01  0.97340501420E+01  0.12943777599E+03  0.12981514873E+03  0.10000000000E+01 0.  0.
<mgrwt>
<rscale>  0 0.11743303E+03</rscale>
<asrwt>0</asrwt>
<pdfrwt beam="1">  1        2 0.25938197E-01 0.12726315E+03</pdfrwt>
<pdfrwt beam="2">  1       -2 0.15015568E-01 0.12726315E+03</pdfrwt>
<totfact> 0.66658872E+03</totfact>
</mgrwt>
</event>
<event>
 8    3  0.1559595E-003  0.1318306E+03  0.7818608E-02  0.1238178E+00
         -2   -1    0    0    0  501 -0.00000000000E+00  0.00000000000E+00  0.32240824393E+01  0.32240834478E+01  0.25500000000E-02 0.  1.
          2   -1    0    0  501    0  0.00000000000E+00 -0.00000000000E+00 -0.42284175443E+04  0.42284175443E+04  0.25500000000E-02 0. -1.
         25    2    1    2    0    0 -0.23723605569E+02 -0.34515105979E+02 -0.21471625800E+04  0.21512058155E+04  0.12500085508E+03 0.  0.
         23    2    1    2    0    0  0.23723605569E+02  0.34515105979E+02 -0.20780308819E+04  0.20804358122E+04  0.90811457625E+02 0.  0.
        -13    1    4    4    0    0  0.51776044904E+02  0.17942040796E+02 -0.17339632661E+04  0.17348288950E+04  0.10566000000E+00 0. -1.
         13    1    4    4    0    0 -0.28052439336E+02  0.16573065183E+02 -0.34406761577E+03  0.34560691721E+03  0.10566000000E+00 0.  1.
    9000005    1    3    3    0    0 -0.69561065469E+02 -0.83478942585E+01 -0.81802386375E+03  0.82101916594E+03  0.10000000000E+01 0.  0.
    9000005    1    3    3    0    0  0.45837459900E+02 -0.26167211720E+02 -0.13291387163E+04  0.13301866496E+04  0.10000000000E+01 0.  0.
<mgrwt>
<rscale>  0 0.12303161E+03</rscale>
<asrwt>0</asrwt>
<pdfrwt beam="2">  1        2 0.65052134E+00 0.13183063E+03</pdfrwt>
<pdfrwt beam="1">  1       -2 0.49601614E-03 0.13183063E+03</pdfrwt>
<totfact> 0.17954996E+03</totfact>
</mgrwt>
</event>
<event>
 8    3  0.1559595E-003  0.2434056E+03  0.7818608E-02  0.1120441E+00
          2   -1    0    0  501    0  0.00000000000E+00  0.00000000000E+00  0.44482226606E+03  0.44482226606E+03  0.25500000000E-02 0.  1.
         -2   -1    0    0    0  501 -0.00000000000E+00 -0.00000000000E+00 -0.23806371625E+03  0.23806371626E+03  0.25500000000E-02 0. -1.
         25    2    1    2    0    0 -0.16589869470E+03  0.12688169134E+03 -0.13089829344E+03  0.27637050493E+03  0.12499980908E+03 0.  0.
         23    2    1    2    0    0  0.16589869470E+03 -0.12688169134E+03  0.33765684325E+03  0.40651547739E+03  0.87300338282E+02 0.  0.
        -13    1    4    4    0    0  0.16331687806E+03 -0.10625159347E+03  0.25292062875E+03  0.31926581305E+03  0.10566000000E+00 0. -1.
         13    1    4    4    0    0  0.25818166430E+01 -0.20630097876E+02  0.84736214500E+02  0.87249664339E+02  0.10566000000E+00 0.  1.
    9000005    1    3    3    0    0 -0.12287969942E+03  0.27129076707E+02 -0.32922425876E+02  0.13007802834E+03  0.10000000000E+01 0.  0.
    9000005    1    3    3    0    0 -0.43018995284E+02  0.99752614637E+02 -0.97975867565E+02  0.14629247659E+03  0.10000000000E+01 0.  0.
<mgrwt>
<rscale>  0 0.23902974E+03</rscale>
<asrwt>0</asrwt>
<pdfrwt beam="1">  1        2 0.68434194E-01 0.24340561E+03</pdfrwt>
<pdfrwt beam="2">  1       -2 0.36625188E-01 0.24340561E+03</pdfrwt>
<totfact> 0.50334875E+02</totfact>
</mgrwt>
</event>
<event>
 8    3  0.1559595E-003  0.1814339E+03  0.7818608E-02  0.1171957E+00
         -2   -1    0    0    0  501 -0.00000000000E+00  0.00000000000E+00  0.88666410028E+01  0.88666413695E+01  0.25500000000E-02 0. -1.
          2   -1    0    0  501    0  0.00000000000E+00 -0.00000000000E+00 -0.33712645049E+04  0.33712645049E+04  0.25500000000E-02 0.  1.
         25    2    1    2    0    0 -0.11710362260E+03  0.59836081039E+02 -0.15130440534E+04  0.15238833884E+04  0.12499863595E+03 0.  0.
         23    2    1    2    0    0  0.11710362260E+03 -0.59836081039E+02 -0.18493538106E+04  0.18562477579E+04  0.90843860884E+02 0.  0.
        -13    1    4    4    0    0  0.52486057937E+02 -0.68476584955E+02 -0.13339489308E+04  0.13367361707E+04  0.10566000000E+00 0.  1.
         13    1    4    4    0    0  0.64617564665E+02  0.86405039168E+01 -0.51540487977E+03  0.51951158719E+03  0.10566000000E+00 0. -1.
    9000005    1    3    3    0    0 -0.42046631614E+02 -0.37367815394E+02 -0.36867862118E+03  0.37294664306E+03  0.10000000000E+01 0.  0.
    9000005    1    3    3    0    0 -0.75056990989E+02  0.97203896433E+02 -0.11443654322E+04  0.11509367453E+04  0.10000000000E+01 0.  0.
<mgrwt>
<rscale>  0 0.17577404E+03</rscale>
<asrwt>0</asrwt>
<pdfrwt beam="2">  1        2 0.51865505E+00 0.18143394E+03</pdfrwt>
<pdfrwt beam="1">  1       -2 0.13641013E-02 0.18143394E+03</pdfrwt>
<totfact> 0.16976296E+03</totfact>
</mgrwt>
</event>
<event>
 8    3  0.1559595E-003  0.1292104E+03  0.7818608E-02  0.1243082E+00
          2   -1    0    0  501    0  0.00000000000E+00  0.00000000000E+00  0.21700467667E+03  0.21700467669E+03  0.25500000000E-02 0. -1.
         -2   -1    0    0    0  501 -0.00000000000E+00 -0.00000000000E+00 -0.75319424407E+02  0.75319424450E+02  0.25500000000E-02 0.  1.
         25    2    1    2    0    0  0.31457415993E+01 -0.32565493965E+02  0.14738255663E+03  0.19600240219E+03  0.12499966632E+03 0.  0.
         23    2    1    2    0    0 -0.31457415993E+01  0.32565493965E+02 -0.56973043606E+01  0.96321698943E+02  0.90415724976E+02 0.  0.
        -13    1    4    4    0    0  0.45685495424E+00  0.56224474827E+02 -0.28699776564E+02  0.63127558363E+02  0.10566000000E+00 0.  1.
         13    1    4    4    0    0 -0.36025965535E+01 -0.23658980862E+02  0.23002472204E+02  0.33194140580E+02  0.10566000000E+00 0. -1.
    9000005    1    3    3    0    0 -0.33596045203E+02 -0.63280661586E+02  0.12276835292E+03  0.14214853099E+03  0.10000000000E+01 0.  0.
    9000005    1    3    3    0    0  0.36741786803E+02  0.30715167620E+02  0.24614203702E+02  0.53853871201E+02  0.10000000000E+01 0.  0.
<mgrwt>
<rscale>  0 0.12000901E+03</rscale>
<asrwt>0</asrwt>
<pdfrwt beam="1">  1        2 0.33385335E-01 0.12921039E+03</pdfrwt>
<pdfrwt beam="2">  1       -2 0.11587604E-01 0.12921039E+03</pdfrwt>
<totfact> 0.77046449E+03</totfact>
</mgrwt>
</event>
<event>
 8    3  0.1559595E-003  0.1441028E+03  0.7818608E-02  0.1218152E+00
          2   -1    0    0  501    0  0.00000000000E+00  0.00000000000E+00  0.40445830985E+03  0.40445830985E+03  0.25500000000E-02 0. -1.
         -2   -1    0    0    0  501 -0.00000000000E+00 -0.00000000000E+00 -0.49470879675E+02  0.49470879741E+02  0.25500000000E-02 0.  1.
         25    2    1    2    0    0 -0.22539098127E+02 -0.68065726029E+02  0.28269429700E+03  0.31730377301E+03  0.12499865922E+03 0.  0.
         23    2    1    2    0    0  0.22539098127E+02  0.68065726029E+02  0.72293133173E+02  0.13662541659E+03  0.91100237920E+02 0.  0.
        -13    1    4    4    0    0 -0.35327583036E+02  0.30203277549E+02  0.24278231810E+02  0.52437770754E+02  0.10566000000E+00 0. -1.
         13    1    4    4    0    0  0.57866681163E+02  0.37862448480E+02  0.48014901363E+02  0.84187645832E+02  0.10566000000E+00 0.  1.
    9000005    1    3    3    0    0 -0.25011421535E+02 -0.90754044229E+02  0.11762040133E+03  0.15065665123E+03  0.10000000000E+01 0.  0.
    9000005    1    3    3    0    0  0.24723234072E+01  0.22688318201E+02  0.16507389567E+03  0.16664712178E+03  0.10000000000E+01 0.  0.
<mgrwt>
<rscale>  0 0.13647562E+03</rscale>
<asrwt>0</asrwt>
<pdfrwt beam="1">  1        2 0.62224355E-01 0.14410281E+03</pdfrwt>
<pdfrwt beam="2">  1       -2 0.76109046E-02 0.14410281E+03</pdfrwt>
<totfact> 0.77221369E+03</totfact>
</mgrwt>
</event>
<event>
 8    3  0.1559595E-003  0.1375728E+03  0.7818608E-02  0.1232535E+00
          2   -1    0    0  501    0  0.00000000000E+00  0.00000000000E+00  0.24653902832E+03  0.24653902833E+03  0.25500000000E-02 0. -1.
         -2   -1    0    0    0  501 -0.00000000000E+00 -0.00000000000E+00 -0.57116795431E+02  0.57116795488E+02  0.25500000000E-02 0.  1.
         25    2    1    2    0    0 -0.51556073125E+02  0.25302981067E+02  0.96475261925E+02  0.16802902431E+03  0.12501202870E+03 0.  0.
         23    2    1    2    0    0  0.51556073125E+02 -0.25302981067E+02  0.92946970961E+02  0.13562679951E+03  0.80356828012E+02 0.  0.
        -13    1    4    4    0    0 -0.10265985242E+02 -0.19352138677E+01  0.61598065725E+02  0.62477743003E+02  0.10566000000E+00 0. -1.
         13    1    4    4    0    0  0.61822058367E+02 -0.23367767199E+02  0.31348905237E+02  0.73149056509E+02  0.10566000000E+00 0.  1.
    9000005    1    3    3    0    0 -0.19279697986E+02  0.49148137033E+02 -0.10440381942E+02  0.53826087573E+02  0.10000000000E+01 0.  0.
    9000005    1    3    3    0    0 -0.32276375140E+02 -0.23845155967E+02  0.10691564387E+03  0.11420293673E+03  0.10000000000E+01 0.  0.
<mgrwt>
<rscale>  0 0.12663553E+03</rscale>
<asrwt>0</asrwt>
<pdfrwt beam="1">  1        2 0.37929082E-01 0.13757281E+03</pdfrwt>
<pdfrwt beam="2">  1       -2 0.87871991E-02 0.13757281E+03</pdfrwt>
<totfact> 0.10432028E+04</totfact>
</mgrwt>
</event>
<event>
 8    3  0.1559595E-003  0.1722314E+03  0.7818608E-02  0.1183400E+00
          2   -1    0    0  501    0  0.00000000000E+00  0.00000000000E+00  0.15885876327E+04  0.15885876327E+04  0.25500000000E-02 0.  1.
         -2   -1    0    0    0  501 -0.00000000000E+00 -0.00000000000E+00 -0.17325386492E+02  0.17325386680E+02  0.25500000000E-02 0. -1.
         25    2    1    2    0    0  0.24711701864E+02  0.11587922164E+03  0.10884895963E+04  0.11020314153E+04  0.12499990771E+03 0.  0.
         23    2    1    2    0    0 -0.24711701864E+02 -0.11587922164E+03  0.48277264995E+03  0.50388160408E+03  0.82392822356E+02 0.  0.
        -13    1    4    4    0    0 -0.21639508281E+02 -0.29157601778E+01  0.29304671395E+02  0.36545107821E+02  0.10566000000E+00 0. -1.
         13    1    4    4    0    0 -0.30721935834E+01 -0.11296346146E+03  0.45346797855E+03  0.46733649626E+03  0.10566000000E+00 0.  1.
    9000005    1    3    3    0    0  0.75381198669E+02  0.58765785531E+02  0.63658088351E+03  0.64371730124E+03  0.10000000000E+01 0.  0.
    9000005    1    3    3    0    0 -0.50669496805E+02  0.57113436110E+02  0.45190871277E+03  0.45831411408E+03  0.10000000000E+01 0.  0.
<mgrwt>
<rscale>  0 0.16478327E+03</rscale>
<asrwt>0</asrwt>
<pdfrwt beam="1">  1        2 0.24439816E+00 0.17223135E+03</pdfrwt>
<pdfrwt beam="2">  1       -2 0.26654434E-02 0.17223135E+03</pdfrwt>
<totfact> 0.61221446E+03</totfact>
</mgrwt>
</event>
<event>
 8    3  0.1559595E-003  0.1344865E+03  0.7818608E-02  0.1232887E+00
          2   -1    0    0  501    0  0.00000000000E+00  0.00000000000E+00  0.50708795198E+03  0.50708795199E+03  0.25500000000E-02 0. -1.
         -2   -1    0    0    0  501 -0.00000000000E+00 -0.00000000000E+00 -0.33009303411E+02  0.33009303510E+02  0.25500000000E-02 0.  1.
         25    2    1    2    0    0  0.64456807775E+01  0.49183505176E+02  0.16038560965E+03  0.20930875816E+03  0.12500419385E+03 0.  0.
         23    2    1    2    0    0 -0.64456807775E+01 -0.49183505176E+02  0.31369303892E+03  0.33078849733E+03  0.92504828617E+02 0.  0.
        -13    1    4    4    0    0 -0.19593734135E+02 -0.39498380661E+02  0.50297149508E+02  0.66886851509E+02  0.10566000000E+00 0.  1.
         13    1    4    4    0    0  0.13148053358E+02 -0.96851245156E+01  0.26339588941E+03  0.26390164582E+03  0.10566000000E+00 0. -1.
    9000005    1    3    3    0    0 -0.42585832692E+02  0.37878073967E+02  0.14635151962E+03  0.15706071733E+03  0.10000000000E+01 0.  0.
    9000005    1    3    3    0    0  0.49031513470E+02  0.11305431209E+02  0.14034090028E+02  0.52248040833E+02  0.10000000000E+01 0.  0.
<mgrwt>
<rscale>  0 0.12640678E+03</rscale>
<asrwt>0</asrwt>
<pdfrwt beam="1">  1        2 0.78013531E-01 0.13448648E+03</pdfrwt>
<pdfrwt beam="2">  1       -2 0.50783544E-02 0.13448648E+03</pdfrwt>
<totfact> 0.11128980E+04</totfact>
</mgrwt>
</event>
<event>
 8    3  0.1559595E-003  0.1487213E+03  0.7818608E-02  0.1211190E+00
          2   -1    0    0  501    0  0.00000000000E+00  0.00000000000E+00  0.13848678472E+04  0.13848678472E+04  0.25500000000E-02 0. -1.
         -2   -1    0    0    0  501 -0.00000000000E+00 -0.00000000000E+00 -0.13260822016E+02  0.13260822262E+02  0.25500000000E-02 0.  1.
         25    2    1    2    0    0 -0.30882486616E+02  0.74398715210E+02  0.77053486639E+03  0.78475601102E+03  0.12501647774E+03 0.  0.
         23    2    1    2    0    0  0.30882486616E+02 -0.74398715210E+02  0.60107215877E+03  0.61337265842E+03  0.91920515904E+02 0.  0.
        -13    1    4    4    0    0 -0.12817356309E+02  0.24522841262E+01  0.12081388439E+02  0.17783965554E+02  0.10566000000E+00 0. -1.
         13    1    4    4    0    0  0.43699842924E+02 -0.76850999336E+02  0.58899077033E+03  0.59558869286E+03  0.10566000000E+00 0.  1.
    9000005    1    3    3    0    0 -0.74479739466E+02  0.72973462832E+02  0.57893718290E+03  0.58825302346E+03  0.10000000000E+01 0.  0.
    9000005    1    3    3    0    0  0.43597252851E+02  0.14252523779E+01  0.19159768349E+03  0.19650298755E+03  0.10000000000E+01 0.  0.
<mgrwt>
<rscale>  0 0.14160135E+03</rscale>
<asrwt>0</asrwt>
<pdfrwt beam="1">  1        2 0.21305649E+00 0.14872127E+03</pdfrwt>
<pdfrwt beam="2">  1       -2 0.20401275E-02 0.14872127E+03</pdfrwt>
<totfact> 0.11529670E+04</totfact>
</mgrwt>
</event>
<event>
 8    3  0.1559595E-003  0.1272999E+03  0.7818608E-02  0.1246275E+00
          2   -1    0    0  501    0  0.00000000000E+00  0.00000000000E+00  0.32397327502E+04  0.32397327502E+04  0.25500000000E-02 0. -1.
         -2   -1    0    0    0  501 -0.00000000000E+00 -0.00000000000E+00 -0.40361456356E+01  0.40361464412E+01  0.25500000000E-02 0.  1.
         25    2    1    2    0    0 -0.22938268669E+02 -0.74290113708E+01  0.14468291133E+04  0.14524185845E+04  0.12499562810E+03 0.  0.
         23    2    1    2    0    0  0.22938268669E+02  0.74290113708E+01  0.17888674912E+04  0.17913503121E+04  0.91146504240E+02 0.  0.
        -13    1    4    4    0    0 -0.22415711708E+02 -0.28515659177E+02  0.73725408629E+03  0.73814578903E+03  0.10566000000E+00 0. -1.
         13    1    4    4    0    0  0.45353980376E+02  0.35944670548E+02  0.10516134049E+04  0.10532045231E+04  0.10566000000E+00 0.  1.
    9000005    1    3    3    0    0  0.41530461679E+02 -0.20479148580E+02  0.28591548671E+03  0.28964260790E+03  0.10000000000E+01 0.  0.
    9000005    1    3    3    0    0 -0.64468730348E+02  0.13050137209E+02  0.11609136266E+04  0.11627759766E+04  0.10000000000E+01 0.  0.
<mgrwt>
<rscale>  0 0.11809401E+03</rscale>
<asrwt>0</asrwt>
<pdfrwt beam="1">  1        2 0.49841657E+00 0.12729989E+03</pdfrwt>
<pdfrwt beam="2">  1       -2 0.62095035E-03 0.12729989E+03</pdfrwt>
<totfact> 0.63742687E+03</totfact>
</mgrwt>
</event>
<event>
 8    3  0.1559595E-003  0.1425375E+03  0.7818608E-02  0.1220707E+00
          2   -1    0    0  501    0  0.00000000000E+00  0.00000000000E+00  0.52401769081E+03  0.52401769081E+03  0.25500000000E-02 0. -1.
         -2   -1    0    0    0  501 -0.00000000000E+00 -0.00000000000E+00 -0.66037597924E+02  0.66037597973E+02  0.25500000000E-02 0.  1.
         25    2    1    2    0    0 -0.34022094726E+02 -0.59456542256E+02  0.27899053782E+02  0.14524224068E+03  0.12499747169E+03 0.  0.
         23    2    1    2    0    0  0.34022094726E+02  0.59456542256E+02  0.43008103910E+03  0.44481304810E+03  0.90533773932E+02 0.  0.
        -13    1    4    4    0    0  0.83695594419E+01 -0.13098244199E+02  0.22871754362E+03  0.22924515142E+03  0.10566000000E+00 0. -1.
         13    1    4    4    0    0  0.25652535284E+02  0.72554786455E+02  0.20136349549E+03  0.21556789669E+03  0.10566000000E+00 0.  1.
    9000005    1    3    3    0    0  0.26046955818E+02 -0.71264527502E+02 -0.44169426166E+01  0.76010434610E+02  0.10000000000E+01 0.  0.
    9000005    1    3    3    0    0 -0.60069050544E+02  0.11807985246E+02  0.32315996399E+02  0.69231806072E+02  0.10000000000E+01 0.  0.
<mgrwt>
<rscale>  0 0.13465551E+03</rscale>
<asrwt>0</asrwt>
<pdfrwt beam="1">  1        2 0.80618102E-01 0.14253754E+03</pdfrwt>
<pdfrwt beam="2">  1       -2 0.10159631E-01 0.14253754E+03</pdfrwt>
<totfact> 0.37129192E+03</totfact>
</mgrwt>
</event>
<event>
 8    3  0.1559595E-003  0.1581184E+03  0.7818608E-02  0.1197334E+00
         -2   -1    0    0    0  501 -0.00000000000E+00  0.00000000000E+00  0.34461019363E+02  0.34461019457E+02  0.25500000000E-02 0.  1.
          2   -1    0    0  501    0  0.00000000000E+00 -0.00000000000E+00 -0.10135053405E+04  0.10135053405E+04  0.25500000000E-02 0. -1.
         25    2    1    2    0    0  0.15344480547E+02  0.95627065379E+02 -0.83208936378E+03  0.84697942884E+03  0.12498581853E+03 0.  0.
         23    2    1    2    0    0 -0.15344480547E+02 -0.95627065379E+02 -0.14695495734E+03  0.20098693111E+03  0.97056675576E+02 0.  0.
        -13    1    4    4    0    0 -0.10083233210E+02 -0.77188853814E+02 -0.15990666002E+03  0.17784808638E+03  0.10566000000E+00 0. -1.
         13    1    4    4    0    0 -0.52612473366E+01 -0.18438211565E+02  0.12951702680E+02  0.23138844734E+02  0.10566000000E+00 0.  1.
    9000005    1    3    3    0    0  0.51592574455E+02  0.15965919949E+01 -0.18418019271E+03  0.19127907944E+03  0.10000000000E+01 0.  0.
    9000005    1    3    3    0    0 -0.36248093908E+02  0.94030473384E+02 -0.64790917108E+03  0.65570034940E+03  0.10000000000E+01 0.  0.
<mgrwt>
<rscale>  0 0.15258316E+03</rscale>
<asrwt>0</asrwt>
<pdfrwt beam="2">  1        2 0.15592388E+00 0.15811845E+03</pdfrwt>
<pdfrwt beam="1">  1       -2 0.53016961E-02 0.15811845E+03</pdfrwt>
<totfact> 0.45337177E+03</totfact>
</mgrwt>
</event>
<event>
 8    3  0.1559595E-003  0.1398037E+03  0.7818608E-02  0.1225087E+00
         -2   -1    0    0    0  501 -0.00000000000E+00  0.00000000000E+00  0.11310795347E+02  0.11310795634E+02  0.25500000000E-02 0.  1.
          2   -1    0    0  501    0  0.00000000000E+00 -0.00000000000E+00 -0.13799566633E+04  0.13799566633E+04  0.25500000000E-02 0. -1.
         25    2    1    2    0    0 -0.58958018378E+02  0.21104882173E+02 -0.73450135277E+03  0.74768797198E+03  0.12499440888E+03 0.  0.
         23    2    1    2    0    0  0.58958018378E+02 -0.21104882173E+02 -0.63414451516E+03  0.64357948693E+03  0.90187725898E+02 0.  0.
        -13    1    4    4    0    0  0.41758610456E+02  0.19682116163E+02 -0.13911364806E+03  0.14657348152E+03  0.10566000000E+00 0.  1.
         13    1    4    4    0    0  0.17199407923E+02 -0.40786998336E+02 -0.49503086710E+03  0.49700600541E+03  0.10566000000E+00 0. -1.
    9000005    1    3    3    0    0  0.13343760326E+02  0.54734473137E+02 -0.22305806423E+03  0.23006481371E+03  0.10000000000E+01 0.  0.
    9000005    1    3    3    0    0 -0.72301778705E+02 -0.33629590964E+02 -0.51144328854E+03  0.51762315827E+03  0.10000000000E+01 0.  0.
<mgrwt>
<rscale>  0 0.13160917E+03</rscale>
<asrwt>0</asrwt>
<pdfrwt beam="2">  1        2 0.21230089E+00 0.13980367E+03</pdfrwt>
<pdfrwt beam="1">  1       -2 0.17401235E-02 0.13980367E+03</pdfrwt>
<totfact> 0.14566492E+04</totfact>
</mgrwt>
</event>
<event>
 8    3  0.1559595E-003  0.1861510E+03  0.7818608E-02  0.1167330E+00
          2   -1    0    0  501    0  0.00000000000E+00  0.00000000000E+00  0.36625439042E+04  0.36625439042E+04  0.25500000000E-02 0. -1.
         -2   -1    0    0    0  501 -0.00000000000E+00 -0.00000000000E+00 -0.87260920028E+01  0.87260923754E+01  0.25500000000E-02 0.  1.
         25    2    1    2    0    0 -0.12084634477E+03  0.66481385166E+02  0.15776635280E+04  0.15886076965E+04  0.12501436752E+03 0.  0.
         23    2    1    2    0    0  0.12084634477E+03 -0.66481385166E+02  0.20761542842E+04  0.20826623001E+04  0.89677371023E+02 0.  0.
        -13    1    4    4    0    0  0.57661133785E+02 -0.42456555979E+02  0.16142907482E+04  0.16158780883E+04  0.10566000000E+00 0. -1.
         13    1    4    4    0    0  0.63185210985E+02 -0.24024829187E+02  0.46186353605E+03  0.46678421181E+03  0.10566000000E+00 0.  1.
    9000005    1    3    3    0    0 -0.40312690448E+02  0.65742285571E+02  0.11987515822E+04  0.12012300017E+04  0.10000000000E+01 0.  0.
    9000005    1    3    3    0    0 -0.80533654321E+02  0.73909959468E+00  0.37891194579E+03  0.38737769477E+03  0.10000000000E+01 0.  0.
<mgrwt>
<rscale>  0 0.18048927E+03</rscale>
<asrwt>0</asrwt>
<pdfrwt beam="1">  1        2 0.56346773E+00 0.18615103E+03</pdfrwt>
<pdfrwt beam="2">  1       -2 0.13424771E-02 0.18615103E+03</pdfrwt>
<totfact> 0.11165448E+03</totfact>
</mgrwt>
</event>
<event>
 8    3  0.1559595E-003  0.1478892E+03  0.7818608E-02  0.1213473E+00
         -2   -1    0    0    0  501 -0.00000000000E+00  0.00000000000E+00  0.61607572001E+02  0.61607572054E+02  0.25500000000E-02 0.  1.
          2   -1    0    0  501    0  0.00000000000E+00 -0.00000000000E+00 -0.28915932516E+03  0.28915932517E+03  0.25500000000E-02 0. -1.
         25    2    1    2    0    0  0.38571685651E+01 -0.78933042888E+02 -0.13841815846E+03  0.20256059436E+03  0.12500361908E+03 0.  0.
         23    2    1    2    0    0 -0.38571685651E+01  0.78933042888E+02 -0.89133594695E+02  0.14820630287E+03  0.88176002960E+02 0.  0.
        -13    1    4    4    0    0  0.38843217264E+02  0.46887940778E+02 -0.27923853246E+02  0.66985276457E+02  0.10566000000E+00 0. -1.
         13    1    4    4    0    0 -0.42700385830E+02  0.32045102110E+02 -0.61209741448E+02  0.81221026412E+02  0.10566000000E+00 0.  1.
    9000005    1    3    3    0    0  0.43592843683E+02  0.90173149489E+01 -0.17489739453E+02  0.47838676563E+02  0.10000000000E+01 0.  0.
    9000005    1    3    3    0    0 -0.39735675117E+02 -0.87950357837E+02 -0.12092841901E+03  0.15472191779E+03  0.10000000000E+01 0.  0.
<mgrwt>
<rscale>  0 0.13989332E+03</rscale>
<asrwt>0</asrwt>
<pdfrwt beam="2">  1        2 0.44486049E-01 0.14788917E+03</pdfrwt>
<pdfrwt beam="1">  1       -2 0.94780882E-02 0.14788917E+03</pdfrwt>
<totfact> 0.78634810E+03</totfact>
</mgrwt>
</event>
<event>
 8    3  0.1559595E-003  0.1496804E+03  0.7818608E-02  0.1209554E+00
          2   -1    0    0  501    0  0.00000000000E+00  0.00000000000E+00  0.14234218145E+04  0.14234218145E+04  0.25500000000E-02 0. -1.
         -2   -1    0    0    0  501 -0.00000000000E+00 -0.00000000000E+00 -0.15074529273E+02  0.15074529489E+02  0.25500000000E-02 0.  1.
         25    2    1    2    0    0  0.30625438498E+02 -0.76426846450E+02  0.50681122230E+03  0.52845231387E+03  0.12500101056E+03 0.  0.
         23    2    1    2    0    0 -0.30625438498E+02  0.76426846450E+02  0.90153606288E+03  0.91004403007E+03  0.92918693840E+02 0.  0.
        -13    1    4    4    0    0 -0.14511600811E+02  0.81636728676E+02  0.87249197918E+03  0.87642307531E+03  0.10566000000E+00 0. -1.
         13    1    4    4    0    0 -0.16113837687E+02 -0.52098822260E+01  0.29044083691E+02  0.33620954765E+02  0.10566000000E+00 0.  1.
    9000005    1    3    3    0    0  0.17123460001E+02  0.15309926038E+02  0.31040979192E+03  0.31126009323E+03  0.10000000000E+01 0.  0.
    9000005    1    3    3    0    0  0.13501978497E+02 -0.91736772488E+02  0.19640143038E+03  0.21719222064E+03  0.10000000000E+01 0.  0.
<mgrwt>
<rscale>  0 0.14284308E+03</rscale>
<asrwt>0</asrwt>
<pdfrwt beam="1">  1        2 0.21898797E+00 0.14968044E+03</pdfrwt>
<pdfrwt beam="2">  1       -2 0.23191584E-02 0.14968044E+03</pdfrwt>
<totfact> 0.91259974E+03</totfact>
</mgrwt>
</event>
<event>
 8    3  0.1559595E-003  0.1339534E+03  0.7818608E-02  0.1233965E+00
         -2   -1    0    0    0  501 -0.00000000000E+00  0.00000000000E+00  0.39375863167E+02  0.39375863250E+02  0.25500000000E-02 0.  1.
          2   -1    0    0  501    0  0.00000000000E+00 -0.00000000000E+00 -0.38171258681E+03  0.38171258682E+03  0.25500000000E-02 0. -1.
         25    2    1    2    0    0  0.44708149523E+02  0.17888920366E+02 -0.24228184440E+03  0.27684651457E+03  0.12499867357E+03 0.  0.
         23    2    1    2    0    0 -0.44708149523E+02 -0.17888920366E+02 -0.10005487924E+03  0.14424193550E+03  0.92064786925E+02 0.  0.
        -13    1    4    4    0    0 -0.25206374698E+02  0.30893897285E+02 -0.77323645367E+02  0.86998571896E+02  0.10566000000E+00 0. -1.
         13    1    4    4    0    0 -0.19501774825E+02 -0.48782817652E+02 -0.22731233871E+02  0.57243363604E+02  0.10566000000E+00 0.  1.
    9000005    1    3    3    0    0  0.11281557520E+02 -0.52979129514E+02 -0.79762208422E+02  0.96421323350E+02  0.10000000000E+01 0.  0.
    9000005    1    3    3    0    0  0.33426592003E+02  0.70868049880E+02 -0.16251963598E+03  0.18042519122E+03  0.10000000000E+01 0.  0.
<mgrwt>
<rscale>  0 0.12570912E+03</rscale>
<asrwt>0</asrwt>
<pdfrwt beam="2">  1        2 0.58725011E-01 0.13395335E+03</pdfrwt>
<pdfrwt beam="1">  1       -2 0.60578254E-02 0.13395335E+03</pdfrwt>
<totfact> 0.11585621E+04</totfact>
</mgrwt>
</event>
<event>
 8    3  0.1559595E-003  0.2000122E+03  0.7818608E-02  0.1153433E+00
          2   -1    0    0  501    0  0.00000000000E+00  0.00000000000E+00  0.22248053720E+03  0.22248053721E+03  0.25500000000E-02 0. -1.
         -2   -1    0    0    0  501 -0.00000000000E+00 -0.00000000000E+00 -0.17768844353E+03  0.17768844355E+03  0.25500000000E-02 0.  1.
         25    2    1    2    0    0 -0.94718614431E+02 -0.12415096400E+03  0.76602432065E+02  0.21417936997E+03  0.12497916683E+03 0.  0.
         23    2    1    2    0    0  0.94718614431E+02  0.12415096400E+03 -0.31810338398E+02  0.18598961079E+03  0.95891396431E+02 0.  0.
        -13    1    4    4    0    0  0.73958697918E+02  0.84531756709E+02 -0.65473272784E+02  0.13000872087E+03  0.10566000000E+00 0.  1.
         13    1    4    4    0    0  0.20759916513E+02  0.39619207291E+02  0.33662934385E+02  0.55980889913E+02  0.10566000000E+00 0. -1.
    9000005    1    3    3    0    0 -0.90296624210E+02 -0.66724864644E+02  0.10156302585E+03  0.15139926065E+03  0.10000000000E+01 0.  0.
    9000005    1    3    3    0    0 -0.44219902209E+01 -0.57426099356E+02 -0.24960593782E+02  0.62780109324E+02  0.10000000000E+01 0.  0.
<mgrwt>
<rscale>  0 0.19568286E+03</rscale>
<asrwt>0</asrwt>
<pdfrwt beam="1">  1        2 0.34227775E-01 0.20001217E+03</pdfrwt>
<pdfrwt beam="2">  1       -2 0.27336684E-01 0.20001217E+03</pdfrwt>
<totfact> 0.18163657E+03</totfact>
</mgrwt>
</event>
<event>
 8    3  0.1559595E-003  0.1396279E+03  0.7818608E-02  0.1231209E+00
          2   -1    0    0  501    0  0.00000000000E+00  0.00000000000E+00  0.27223580345E+03  0.27223580347E+03  0.25500000000E-02 0. -1.
         -2   -1    0    0    0  501 -0.00000000000E+00 -0.00000000000E+00 -0.51818720718E+02  0.51818720781E+02  0.25500000000E-02 0.  1.
         25    2    1    2    0    0 -0.51004998988E+02 -0.35630517971E+02  0.11655461243E+03  0.18188166018E+03  0.12499966759E+03 0.  0.
         23    2    1    2    0    0  0.51004998988E+02  0.35630517971E+02  0.10386247030E+03  0.14217286407E+03  0.74529637102E+02 0.  0.
        -13    1    4    4    0    0  0.61258253065E+02  0.12853410471E+02  0.41784262527E+02  0.75257687237E+02  0.10566000000E+00 0. -1.
         13    1    4    4    0    0 -0.10253254077E+02  0.22777107501E+02  0.62078207776E+02  0.66915176828E+02  0.10566000000E+00 0.  1.
    9000005    1    3    3    0    0 -0.58314069110E+02 -0.60455044823E+02  0.12837345517E+03  0.15341475513E+03  0.10000000000E+01 0.  0.
    9000005    1    3    3    0    0  0.73090701223E+01  0.24824526852E+02 -0.11818842735E+02  0.28466905048E+02  0.10000000000E+01 0.  0.
<mgrwt>
<rscale>  0 0.12750244E+03</rscale>
<asrwt>0</asrwt>
<pdfrwt beam="1">  1        2 0.41882430E-01 0.13962794E+03</pdfrwt>
<pdfrwt beam="2">  1       -2 0.79721112E-02 0.13962794E+03</pdfrwt>
<totfact> 0.10928903E+04</totfact>
</mgrwt>
</event>
<event>
 8    3  0.1559595E-003  0.1794527E+03  0.7818608E-02  0.1173837E+00
         -2   -1    0    0    0  501 -0.00000000000E+00  0.00000000000E+00  0.47745290491E+02  0.47745290559E+02  0.25500000000E-02 0.  1.
          2   -1    0    0  501    0  0.00000000000E+00 -0.00000000000E+00 -0.59933513041E+03  0.59933513042E+03  0.25500000000E-02 0. -1.
         25    2    1    2    0    0  0.43986796757E+02 -0.12100901029E+03 -0.27375227306E+03  0.32732795610E+03  0.12500105991E+03 0.  0.
         23    2    1    2    0    0 -0.43986796757E+02  0.12100901029E+03 -0.27783756687E+03  0.31975246488E+03  0.92032094262E+02 0.  0.
        -13    1    4    4    0    0  0.23260348126E+02  0.37907860673E+02 -0.43637795645E+02  0.62308250405E+02  0.10566000000E+00 0.  1.
         13    1    4    4    0    0 -0.67247144882E+02  0.83101149619E+02 -0.23419977122E+03  0.25744421448E+03  0.10566000000E+00 0. -1.
    9000005    1    3    3    0    0 -0.32600866834E+02 -0.27095860300E+02 -0.21649379081E+02  0.47609849593E+02  0.10000000000E+01 0.  0.
    9000005    1    3    3    0    0  0.76587663590E+02 -0.93913149993E+02 -0.25210289398E+03  0.27971810651E+03  0.10000000000E+01 0.  0.
<mgrwt>
<rscale>  0 0.17390378E+03</rscale>
<asrwt>0</asrwt>
<pdfrwt beam="2">  1        2 0.92205399E-01 0.17945273E+03</pdfrwt>
<pdfrwt beam="1">  1       -2 0.73454298E-02 0.17945273E+03</pdfrwt>
<totfact> 0.53450907E+03</totfact>
</mgrwt>
</event>
<event>
 8    3  0.1559595E-003  0.1601967E+03  0.7818608E-02  0.1196082E+00
         -2   -1    0    0    0  501 -0.00000000000E+00  0.00000000000E+00  0.16060768920E+02  0.16060769122E+02  0.25500000000E-02 0.  1.
          2   -1    0    0  501    0  0.00000000000E+00 -0.00000000000E+00 -0.13676356566E+04  0.13676356566E+04  0.25500000000E-02 0. -1.
         25    2    1    2    0    0  0.12774189953E+02  0.99374912488E+02 -0.77981231589E+03  0.79609688065E+03  0.12499776884E+03 0.  0.
         23    2    1    2    0    0 -0.12774189953E+02 -0.99374912488E+02 -0.57176257183E+03  0.58759954510E+03  0.91226277486E+02 0.  0.
        -13    1    4    4    0    0 -0.62249591951E+01 -0.48525575372E+02 -0.47999083236E+03  0.48247765948E+03  0.10566000000E+00 0.  1.
         13    1    4    4    0    0 -0.65492307575E+01 -0.50849337116E+02 -0.91771739464E+02  0.10512188562E+03  0.10566000000E+00 0. -1.
    9000005    1    3    3    0    0 -0.60637192087E+01  0.25486132565E+02 -0.60263703521E+03  0.60320701907E+03  0.10000000000E+01 0.  0.
    9000005    1    3    3    0    0  0.18837909161E+02  0.73888779924E+02 -0.17717528068E+03  0.19288986159E+03  0.10000000000E+01 0.  0.
<mgrwt>
<rscale>  0 0.15363022E+03</rscale>
<asrwt>0</asrwt>
<pdfrwt beam="2">  1        2 0.21040539E+00 0.16019674E+03</pdfrwt>
<pdfrwt beam="1">  1       -2 0.24708886E-02 0.16019674E+03</pdfrwt>
<totfact> 0.89298253E+03</totfact>
</mgrwt>
</event>
<event>
 8    3  0.1559595E-003  0.1449483E+03  0.7818608E-02  0.1217507E+00
         -2   -1    0    0    0  501 -0.00000000000E+00  0.00000000000E+00  0.55598897598E+02  0.55598897656E+02  0.25500000000E-02 0.  1.
          2   -1    0    0  501    0  0.00000000000E+00 -0.00000000000E+00 -0.33273822322E+03  0.33273822323E+03  0.25500000000E-02 0. -1.
         25    2    1    2    0    0  0.64536914715E+02 -0.34933870092E+02 -0.20872442877E+03  0.25411790614E+03  0.12499853765E+03 0.  0.
         23    2    1    2    0    0 -0.64536914715E+02  0.34933870092E+02 -0.68414896851E+02  0.13421921475E+03  0.89156103861E+02 0.  0.
        -13    1    4    4    0    0 -0.67348425521E+02  0.30743917504E+02 -0.87419178389E+02  0.11455619930E+03  0.10566000000E+00 0. -1.
         13    1    4    4    0    0  0.28115108061E+01  0.41899525879E+01  0.19004281538E+02  0.19663015448E+02  0.10566000000E+00 0.  1.
    9000005    1    3    3    0    0  0.61399969548E+02 -0.73761705453E+02 -0.18522167607E+03  0.20861163615E+03  0.10000000000E+01 0.  0.
    9000005    1    3    3    0    0  0.31369451669E+01  0.38827835361E+02 -0.23502752707E+02  0.45506269992E+02  0.10000000000E+01 0.  0.
<mgrwt>
<rscale>  0 0.13694016E+03</rscale>
<asrwt>0</asrwt>
<pdfrwt beam="2">  1        2 0.51190495E-01 0.14494835E+03</pdfrwt>
<pdfrwt beam="1">  1       -2 0.85536768E-02 0.14494835E+03</pdfrwt>
<totfact> 0.79402616E+03</totfact>
</mgrwt>
</event>
<event>
 8    3  0.1559595E-003  0.3620203E+03  0.7818608E-02  0.1058816E+00
         -2   -1    0    0    0  501 -0.00000000000E+00  0.00000000000E+00  0.31370467277E+03  0.31370467278E+03  0.25500000000E-02 0.  1.
          2   -1    0    0  501    0  0.00000000000E+00 -0.00000000000E+00 -0.42228638375E+03  0.42228638376E+03  0.25500000000E-02 0. -1.
         25    2    1    2    0    0 -0.10655366784E+03 -0.32261573693E+03 -0.12739837139E+03  0.38378256808E+03  0.12499646668E+03 0.  0.
         23    2    1    2    0    0  0.10655366784E+03  0.32261573693E+03  0.18816660408E+02  0.35220848846E+03  0.90896395910E+02 0.  0.
        -13    1    4    4    0    0  0.61092811809E+01  0.15870937433E+03 -0.20821372987E+01  0.15884059707E+03  0.10566000000E+00 0.  1.
         13    1    4    4    0    0  0.10044438666E+03  0.16390636260E+03  0.20898797706E+02  0.19336789139E+03  0.10566000000E+00 0. -1.
    9000005    1    3    3    0    0  0.23039928637E+02 -0.90597688522E+02 -0.12764564154E+02  0.94354192144E+02  0.10000000000E+01 0.  0.
    9000005    1    3    3    0    0 -0.12959359648E+03 -0.23201804841E+03 -0.11463380724E+03  0.28942837594E+03  0.10000000000E+01 0.  0.
<mgrwt>
<rscale>  0 0.35941360E+03</rscale>
<asrwt>0</asrwt>
<pdfrwt beam="2">  1        2 0.64967136E-01 0.36202032E+03</pdfrwt>
<pdfrwt beam="1">  1       -2 0.48262257E-01 0.36202032E+03</pdfrwt>
<totfact> 0.31082678E+02</totfact>
</mgrwt>
</event>
<event>
 8    3  0.1559595E-003  0.2008930E+03  0.7818608E-02  0.1153376E+00
         -2   -1    0    0    0  501 -0.00000000000E+00  0.00000000000E+00  0.11280905487E+04  0.11280905487E+04  0.25500000000E-02 0.  1.
          2   -1    0    0  501    0  0.00000000000E+00 -0.00000000000E+00 -0.44013982768E+02  0.44013982842E+02  0.25500000000E-02 0. -1.
         25    2    1    2    0    0 -0.14632796329E+03 -0.57649907969E+02  0.86425106096E+03  0.88729245958E+03  0.12499051054E+03 0.  0.
         23    2    1    2    0    0  0.14632796329E+03  0.57649907969E+02  0.21982550495E+03  0.28481207194E+03  0.89773487003E+02 0.  0.
        -13    1    4    4    0    0  0.98900419883E+02  0.29871130408E+02  0.68876159304E+02  0.12416728220E+03  0.10566000000E+00 0.  1.
         13    1    4    4    0    0  0.47427543409E+02  0.27778777561E+02  0.15094934564E+03  0.16064478974E+03  0.10566000000E+00 0. -1.
    9000005    1    3    3    0    0 -0.73187578794E+02  0.18441628233E+02  0.18366784122E+03  0.19857339006E+03  0.10000000000E+01 0.  0.
    9000005    1    3    3    0    0 -0.73140384498E+02 -0.76091536202E+02  0.68058321975E+03  0.68871906952E+03  0.10000000000E+01 0.  0.
<mgrwt>
<rscale>  0 0.19574878E+03</rscale>
<asrwt>0</asrwt>
<pdfrwt beam="2">  1        2 0.67713818E-02 0.20089304E+03</pdfrwt>
<pdfrwt beam="1">  1       -2 0.17355240E+00 0.20089304E+03</pdfrwt>
<totfact> 0.22645808E+02</totfact>
</mgrwt>
</event>
<event>
 8    3  0.1559595E-003  0.1655979E+03  0.7818608E-02  0.1189510E+00
          2   -1    0    0  501    0  0.00000000000E+00  0.00000000000E+00  0.24600874297E+03  0.24600874298E+03  0.25500000000E-02 0. -1.
         -2   -1    0    0    0  501 -0.00000000000E+00 -0.00000000000E+00 -0.96450943113E+02  0.96450943147E+02  0.25500000000E-02 0.  1.
         25    2    1    2    0    0 -0.61975137248E+02  0.89199301125E+02  0.92350823637E+02  0.18960837797E+03  0.12500091764E+03 0.  0.
         23    2    1    2    0    0  0.61975137248E+02 -0.89199301125E+02  0.57206976218E+02  0.15285130816E+03  0.91068388148E+02 0.  0.
        -13    1    4    4    0    0  0.67912448114E+02 -0.87353325740E+02  0.75220898016E+02  0.13379424049E+03  0.10566000000E+00 0. -1.
         13    1    4    4    0    0 -0.59373108666E+01 -0.18459753850E+01 -0.18013921798E+02  0.19057067666E+02  0.10566000000E+00 0.  1.
    9000005    1    3    3    0    0 -0.98921766684E+02  0.52993019461E+02  0.75235930451E+02  0.13511188425E+03  0.10000000000E+01 0.  0.
    9000005    1    3    3    0    0  0.36946629436E+02  0.36206281663E+02  0.17114893186E+02  0.54496493716E+02  0.10000000000E+01 0.  0.
<mgrwt>
<rscale>  0 0.15928174E+03</rscale>
<asrwt>0</asrwt>
<pdfrwt beam="1">  1        2 0.37847499E-01 0.16559789E+03</pdfrwt>
<pdfrwt beam="2">  1       -2 0.14838607E-01 0.16559789E+03</pdfrwt>
<totfact> 0.45886201E+03</totfact>
</mgrwt>
</event>
<event>
 8    3  0.1559595E-003  0.1295834E+03  0.7818608E-02  0.1241293E+00
          2   -1    0    0  501    0  0.00000000000E+00  0.00000000000E+00  0.20823742349E+04  0.20823742349E+04  0.25500000000E-02 0. -1.
         -2   -1    0    0    0  501 -0.00000000000E+00 -0.00000000000E+00 -0.63406342552E+01  0.63406347680E+01  0.25500000000E-02 0.  1.
         25    2    1    2    0    0 -0.27603796243E+02 -0.20028611874E+02  0.10623248769E+04  0.10701990495E+04  0.12501498607E+03 0.  0.
         23    2    1    2    0    0  0.27603796243E+02  0.20028611874E+02  0.10137087238E+04  0.10185158201E+04  0.92768444814E+02 0.  0.
        -13    1    4    4    0    0  0.43675038895E+02  0.24416461717E+02  0.26859986859E+03  0.27322074078E+03  0.10566000000E+00 0.  1.
         13    1    4    4    0    0 -0.16071242652E+02 -0.43878498426E+01  0.74510885517E+03  0.74529507934E+03  0.10566000000E+00 0. -1.
    9000005    1    3    3    0    0 -0.75478921425E+02 -0.28853080733E+02  0.68091030949E+03  0.68568900926E+03  0.10000000000E+01 0.  0.
    9000005    1    3    3    0    0  0.47875125182E+02  0.88244688593E+01  0.38141456740E+03  0.38451004029E+03  0.10000000000E+01 0.  0.
<mgrwt>
<rscale>  0 0.12109993E+03</rscale>
<asrwt>0</asrwt>
<pdfrwt beam="1">  1        2 0.32036596E+00 0.12958342E+03</pdfrwt>
<pdfrwt beam="2">  1       -2 0.97548013E-03 0.12958342E+03</pdfrwt>
<totfact> 0.14504345E+04</totfact>
</mgrwt>
</event>
<event>
 8    3  0.1559595E-003  0.2567735E+03  0.7818608E-02  0.1111353E+00
          2   -1    0    0  501    0  0.00000000000E+00  0.00000000000E+00  0.10884691352E+04  0.10884691352E+04  0.25500000000E-02 0.  1.
         -2   -1    0    0    0  501 -0.00000000000E+00 -0.00000000000E+00 -0.68813546872E+02  0.68813546919E+02  0.25500000000E-02 0. -1.
         25    2    1    2    0    0 -0.74588812822E+02 -0.21152791403E+03  0.75922171953E+03  0.80146754415E+03  0.12500022201E+03 0.  0.
         23    2    1    2    0    0  0.74588812822E+02  0.21152791403E+03  0.26043386884E+03  0.35581513802E+03  0.92038377812E+02 0.  0.
        -13    1    4    4    0    0  0.18495786520E+02  0.56755398681E+01  0.60131813788E+02  0.63167650464E+02  0.10566000000E+00 0.  1.
         13    1    4    4    0    0  0.56093026302E+02  0.20585237416E+03  0.20030205505E+03  0.29264748755E+03  0.10566000000E+00 0. -1.
    9000005    1    3    3    0    0 -0.58037361694E+02 -0.20789261123E+03  0.53927571558E+03  0.58086742943E+03  0.10000000000E+01 0.  0.
    9000005    1    3    3    0    0 -0.16551451128E+02 -0.36353028026E+01  0.21994600395E+03  0.22060011472E+03  0.10000000000E+01 0.  0.
<mgrwt>
<rscale>  0 0.25311332E+03</rscale>
<asrwt>0</asrwt>
<pdfrwt beam="1">  1        2 0.16745679E+00 0.25677345E+03</pdfrwt>
<pdfrwt beam="2">  1       -2 0.10586699E-01 0.25677345E+03</pdfrwt>
<totfact> 0.14064356E+03</totfact>
</mgrwt>
</event>
<event>
 8    3  0.1559595E-003  0.1305164E+03  0.7818608E-02  0.1226873E+00
         -2   -1    0    0    0  501 -0.00000000000E+00  0.00000000000E+00  0.75388141670E+02  0.75388141713E+02  0.25500000000E-02 0.  1.
          2   -1    0    0  501    0  0.00000000000E+00 -0.00000000000E+00 -0.23249362160E+03  0.23249362162E+03  0.25500000000E-02 0. -1.
         25    2    1    2    0    0  0.27526860650E+02  0.22821790825E+02 -0.10584756107E+03  0.16766083078E+03  0.12501154267E+03 0.  0.
         23    2    1    2    0    0 -0.27526860650E+02 -0.22821790825E+02 -0.51257918858E+02  0.14022093255E+03  0.12552280066E+03 0.  0.
        -13    1    4    4    0    0  0.33943213229E+02  0.10135111371E+02  0.19858099251E+02  0.40610558685E+02  0.10566000000E+00 0. -1.
         13    1    4    4    0    0 -0.61470073880E+02 -0.32956902195E+02 -0.71116018109E+02  0.99610373862E+02  0.10566000000E+00 0.  1.
    9000005    1    3    3    0    0  0.65947946878E+01  0.40735486320E+02  0.14839955298E+02  0.43864512261E+02  0.10000000000E+01 0.  0.
    9000005    1    3    3    0    0  0.20932065963E+02 -0.17913695495E+02 -0.12068751637E+03  0.12379631852E+03  0.10000000000E+01 0.  0.
<mgrwt>
<rscale>  0 0.13039334E+03</rscale>
<asrwt>0</asrwt>
<pdfrwt beam="2">  1        2 0.35768249E-01 0.13051642E+03</pdfrwt>
<pdfrwt beam="1">  1       -2 0.11598176E-01 0.13051642E+03</pdfrwt>
<totfact> 0.71513095E+03</totfact>
</mgrwt>
</event>
<event>
 8    3  0.1559595E-003  0.1374508E+03  0.7818608E-02  0.1228414E+00
         -2   -1    0    0    0  501 -0.00000000000E+00  0.00000000000E+00  0.63960713775E+02  0.63960713826E+02  0.25500000000E-02 0.  1.
          2   -1    0    0  501    0  0.00000000000E+00 -0.00000000000E+00 -0.51340620142E+03  0.51340620143E+03  0.25500000000E-02 0. -1.
         25    2    1    2    0    0 -0.56075435163E+02 -0.11331818029E+02 -0.25336534010E+02  0.13976648189E+03  0.12497945821E+03 0.  0.
         23    2    1    2    0    0  0.56075435163E+02  0.11331818029E+02 -0.42410895364E+03  0.43760043337E+03  0.91394038106E+02 0.  0.
        -13    1    4    4    0    0  0.16957985009E+02  0.14917791127E+02 -0.37025055814E+03  0.37093880993E+03  0.10566000000E+00 0. -1.
         13    1    4    4    0    0  0.39117450154E+02 -0.35859730979E+01 -0.53858395499E+02  0.66661623438E+02  0.10566000000E+00 0.  1.
    9000005    1    3    3    0    0 -0.81379384789E+02  0.19332829280E+02  0.12850516805E+02  0.84631544584E+02  0.10000000000E+01 0.  0.
    9000005    1    3    3    0    0  0.25303949626E+02 -0.30664647309E+02 -0.38187050815E+02  0.55134937301E+02  0.10000000000E+01 0.  0.
<mgrwt>
<rscale>  0 0.12935644E+03</rscale>
<asrwt>0</asrwt>
<pdfrwt beam="2">  1        2 0.78985567E-01 0.13745083E+03</pdfrwt>
<pdfrwt beam="1">  1       -2 0.98401102E-02 0.13745083E+03</pdfrwt>
<totfact> 0.39873409E+03</totfact>
</mgrwt>
</event>
<event>
 8    3  0.1559595E-003  0.2224873E+03  0.7818608E-02  0.1135374E+00
         -2   -1    0    0    0  501 -0.00000000000E+00  0.00000000000E+00  0.22345667396E+03  0.22345667397E+03  0.25500000000E-02 0.  1.
          2   -1    0    0  501    0  0.00000000000E+00 -0.00000000000E+00 -0.20969531154E+03  0.20969531156E+03  0.25500000000E-02 0. -1.
         25    2    1    2    0    0  0.92011289447E+02  0.15941822356E+03  0.41005045477E+02  0.22623445626E+03  0.12498147084E+03 0.  0.
         23    2    1    2    0    0 -0.92011289447E+02 -0.15941822356E+03 -0.27243683062E+02  0.20691752927E+03  0.90511868067E+02 0.  0.
        -13    1    4    4    0    0 -0.46336265799E+01 -0.21887439524E+00  0.18968628036E+02  0.19527888131E+02  0.10566000000E+00 0.  1.
         13    1    4    4    0    0 -0.87377662868E+02 -0.15919934917E+03 -0.46212311097E+02  0.18738964114E+03  0.10566000000E+00 0. -1.
    9000005    1    3    3    0    0  0.65970429994E+01  0.12058199845E+03  0.52527712223E+02  0.13169548162E+03  0.10000000000E+01 0.  0.
    9000005    1    3    3    0    0  0.85414246448E+02  0.38836225111E+02 -0.11522666746E+02  0.94538974641E+02  0.10000000000E+01 0.  0.
<mgrwt>
<rscale>  0 0.21801127E+03</rscale>
<asrwt>0</asrwt>
<pdfrwt beam="2">  1        2 0.32260817E-01 0.22248734E+03</pdfrwt>
<pdfrwt beam="1">  1       -2 0.34377950E-01 0.22248734E+03</pdfrwt>
<totfact> 0.12796923E+03</totfact>
</mgrwt>
</event>
<event>
 8    3  0.1559595E-003  0.1274288E+03  0.7818608E-02  0.1246425E+00
          2   -1    0    0  501    0  0.00000000000E+00  0.00000000000E+00  0.26385196708E+02  0.26385196831E+02  0.25500000000E-02 0. -1.
         -2   -1    0    0    0  501 -0.00000000000E+00 -0.00000000000E+00 -0.53694124952E+03  0.53694124952E+03  0.25500000000E-02 0.  1.
         25    2    1    2    0    0  0.50069400450E+00 -0.24749101308E+02 -0.39208156346E+03  0.41226938601E+03  0.12500130208E+03 0.  0.
         23    2    1    2    0    0 -0.50069400450E+00  0.24749101308E+02 -0.11847448934E+03  0.15105706034E+03  0.90383970616E+02 0.  0.
        -13    1    4    4    0    0 -0.17466816903E+00 -0.23079345821E+02 -0.95026070772E+02  0.97788813281E+02  0.10566000000E+00 0.  1.
         13    1    4    4    0    0 -0.32602583546E+00  0.47828447129E+02 -0.23448418572E+02  0.53268247063E+02  0.10566000000E+00 0. -1.
    9000005    1    3    3    0    0 -0.94003977167E+01  0.33662361088E+01  0.68977223074E+01  0.12176928833E+02  0.10000000000E+01 0.  0.
    9000005    1    3    3    0    0  0.99010917212E+01 -0.28115337417E+02 -0.39897928577E+03  0.40009245718E+03  0.10000000000E+01 0.  0.
<mgrwt>
<rscale>  0 0.11800489E+03</rscale>
<asrwt>0</asrwt>
<pdfrwt beam="1">  1        2 0.40592614E-02 0.12742878E+03</pdfrwt>
<pdfrwt beam="2">  1       -2 0.82606338E-01 0.12742878E+03</pdfrwt>
<totfact> 0.26240493E+03</totfact>
</mgrwt>
</event>
<event>
 8    3  0.1559595E-003  0.1400297E+03  0.7818608E-02  0.1223911E+00
         -2   -1    0    0    0  501 -0.00000000000E+00  0.00000000000E+00  0.11392110789E+02  0.11392111074E+02  0.25500000000E-02 0.  1.
          2   -1    0    0  501    0  0.00000000000E+00 -0.00000000000E+00 -0.14067861347E+04  0.14067861347E+04  0.25500000000E-02 0. -1.
         25    2    1    2    0    0 -0.38552653416E+02 -0.49972604848E+02 -0.70658942893E+03  0.72033112543E+03  0.12499896347E+03 0.  0.
         23    2    1    2    0    0  0.38552653416E+02  0.49972604848E+02 -0.68880459500E+03  0.69784712036E+03  0.92494675448E+02 0.  0.
        -13    1    4    4    0    0  0.10731642938E+02 -0.16042532921E+02 -0.33690067364E+02  0.38827346365E+02  0.10566000000E+00 0.  1.
         13    1    4    4    0    0  0.27821010478E+02  0.66015137769E+02 -0.65511452764E+03  0.65901977400E+03  0.10566000000E+00 0. -1.
    9000005    1    3    3    0    0 -0.22706395229E+02  0.37478377930E+02 -0.35437084887E+03  0.35707129222E+03  0.10000000000E+01 0.  0.
    9000005    1    3    3    0    0 -0.15846258187E+02 -0.87450982779E+02 -0.35221858006E+03  0.36325983322E+03  0.10000000000E+01 0.  0.
<mgrwt>
<rscale>  0 0.13241805E+03</rscale>
<asrwt>0</asrwt>
<pdfrwt beam="2">  1        2 0.21642850E+00 0.14002967E+03</pdfrwt>
<pdfrwt beam="1">  1       -2 0.17526336E-02 0.14002967E+03</pdfrwt>
<totfact> 0.13953178E+04</totfact>
</mgrwt>
</event>
<event>
 8    3  0.1559595E-003  0.1793260E+03  0.7818608E-02  0.1173917E+00
         -2   -1    0    0    0  501 -0.00000000000E+00  0.00000000000E+00  0.40904968516E+02  0.40904968595E+02  0.25500000000E-02 0.  1.
          2   -1    0    0  501    0  0.00000000000E+00 -0.00000000000E+00 -0.69749277779E+03  0.69749277779E+03  0.25500000000E-02 0. -1.
         25    2    1    2    0    0  0.19812312024E+02  0.12704150976E+03 -0.36084491026E+03  0.40294772722E+03  0.12500299479E+03 0.  0.
         23    2    1    2    0    0 -0.19812312024E+02 -0.12704150976E+03 -0.29574289901E+03  0.33545001916E+03  0.92362222407E+02 0.  0.
        -13    1    4    4    0    0  0.16426189227E+02 -0.11871239857E+03 -0.24264517782E+03  0.27062732077E+03  0.10566000000E+00 0. -1.
         13    1    4    4    0    0 -0.36238501251E+02 -0.83291111961E+01 -0.53097721194E+02  0.64822698388E+02  0.10566000000E+00 0.  1.
    9000005    1    3    3    0    0 -0.32991141776E+02 -0.34397303667E+01 -0.11460687902E+03  0.11931464244E+03  0.10000000000E+01 0.  0.
    9000005    1    3    3    0    0  0.52803453800E+02  0.13048124013E+03 -0.24623803123E+03  0.28363308479E+03  0.10000000000E+01 0.  0.
<mgrwt>
<rscale>  0 0.17382462E+03</rscale>
<asrwt>0</asrwt>
<pdfrwt beam="2">  1        2 0.10730657E+00 0.17932602E+03</pdfrwt>
<pdfrwt beam="1">  1       -2 0.62930726E-02 0.17932602E+03</pdfrwt>
<totfact> 0.56747060E+03</totfact>
</mgrwt>
</event>
<event>
 8    3  0.1559595E-003  0.1744565E+03  0.7818608E-02  0.1179674E+00
         -2   -1    0    0    0  501 -0.00000000000E+00  0.00000000000E+00  0.13424421179E+02  0.13424421422E+02  0.25500000000E-02 0. -1.
          2   -1    0    0  501    0  0.00000000000E+00 -0.00000000000E+00 -0.21409453209E+04  0.21409453209E+04  0.25500000000E-02 0.  1.
         25    2    1    2    0    0  0.65257312584E+02  0.10272100429E+03 -0.14362738034E+04  0.14468301591E+04  0.12499979697E+03 0.  0.
         23    2    1    2    0    0 -0.65257312584E+02 -0.10272100429E+03 -0.69124709630E+03  0.70753958325E+03  0.89328562930E+02 0.  0.
        -13    1    4    4    0    0 -0.38412462572E+02 -0.32308305852E+02 -0.10401661740E+03  0.11549377371E+03  0.10566000000E+00 0. -1.
         13    1    4    4    0    0 -0.26844850012E+02 -0.70412698438E+02 -0.58723047890E+03  0.59204580954E+03  0.10566000000E+00 0.  1.
    9000005    1    3    3    0    0  0.10030636728E+03  0.56318124939E+02 -0.86866368790E+03  0.87624808199E+03  0.10000000000E+01 0.  0.
    9000005    1    3    3    0    0 -0.35049054699E+02  0.46402879351E+02 -0.56761011554E+03  0.57058207710E+03  0.10000000000E+01 0.  0.
<mgrwt>
<rscale>  0 0.16826071E+03</rscale>
<asrwt>0</asrwt>
<pdfrwt beam="2">  1        2 0.32937593E+00 0.17445650E+03</pdfrwt>
<pdfrwt beam="1">  1       -2 0.20652973E-02 0.17445650E+03</pdfrwt>
<totfact> 0.46088180E+03</totfact>
</mgrwt>
</event>
<event>
 8    3  0.1559595E-003  0.1374952E+03  0.7818608E-02  0.1227787E+00
          2   -1    0    0  501    0  0.00000000000E+00  0.00000000000E+00  0.45350264762E+03  0.45350264763E+03  0.25500000000E-02 0. -1.
         -2   -1    0    0    0  501 -0.00000000000E+00 -0.00000000000E+00 -0.33995064491E+02  0.33995064587E+02  0.25500000000E-02 0.  1.
         25    2    1    2    0    0 -0.46134058319E+02  0.33938064379E+02  0.26191183663E+03  0.29580864366E+03  0.12499919979E+03 0.  0.
         23    2    1    2    0    0  0.46134058319E+02 -0.33938064379E+02  0.15759574650E+03  0.19168906856E+03  0.92887760966E+02 0.  0.
        -13    1    4    4    0    0  0.14831787728E+01 -0.94138242785E+01  0.13604028246E+03  0.13637371272E+03  0.10566000000E+00 0. -1.
         13    1    4    4    0    0  0.44650879546E+02 -0.24524240101E+02  0.21555464047E+02  0.55315355834E+02  0.10566000000E+00 0.  1.
    9000005    1    3    3    0    0 -0.63409809731E+02 -0.26103572749E+02  0.91832382392E+02  0.11461407826E+03  0.10000000000E+01 0.  0.
    9000005    1    3    3    0    0  0.17275751412E+02  0.60041637129E+02  0.17007945424E+03  0.18119456540E+03  0.10000000000E+01 0.  0.
<mgrwt>
<rscale>  0 0.12977675E+03</rscale>
<asrwt>0</asrwt>
<pdfrwt beam="1">  1        2 0.69769631E-01 0.13749525E+03</pdfrwt>
<pdfrwt beam="2">  1       -2 0.52300105E-02 0.13749525E+03</pdfrwt>
<totfact> 0.12046535E+04</totfact>
</mgrwt>
</event>
<event>
 8    3  0.1559595E-003  0.2125972E+03  0.7818608E-02  0.1143182E+00
         -2   -1    0    0    0  501 -0.00000000000E+00  0.00000000000E+00  0.10985919028E+03  0.10985919030E+03  0.25500000000E-02 0.  1.
          2   -1    0    0  501    0  0.00000000000E+00 -0.00000000000E+00 -0.39518562410E+03  0.39518562411E+03  0.25500000000E-02 0. -1.
         25    2    1    2    0    0 -0.11564091410E+03  0.12728034772E+03 -0.20203698673E+03  0.29328569145E+03  0.12499777947E+03 0.  0.
         23    2    1    2    0    0  0.11564091410E+03 -0.12728034772E+03 -0.83289447097E+02  0.21175912297E+03  0.91278070927E+02 0.  0.
        -13    1    4    4    0    0  0.95076499291E+02 -0.42596375357E+02 -0.25704432243E+02  0.10730666760E+03  0.10566000000E+00 0.  1.
         13    1    4    4    0    0  0.20564414806E+02 -0.84683972363E+02 -0.57585014854E+02  0.10445245536E+03  0.10566000000E+00 0. -1.
    9000005    1    3    3    0    0 -0.84556386232E+02  0.15088023949E+03 -0.17298783107E+03  0.24462301367E+03  0.10000000000E+01 0.  0.
    9000005    1    3    3    0    0 -0.31084527865E+02 -0.23599891765E+02 -0.29049155661E+02  0.48662677778E+02  0.10000000000E+01 0.  0.
<mgrwt>
<rscale>  0 0.20797200E+03</rscale>
<asrwt>0</asrwt>
<pdfrwt beam="2">  1        2 0.60797788E-01 0.21259716E+03</pdfrwt>
<pdfrwt beam="1">  1       -2 0.16901414E-01 0.21259716E+03</pdfrwt>
<totfact> 0.22464392E+03</totfact>
</mgrwt>
</event>
<event>
 8    3  0.1559595E-003  0.1326445E+03  0.7818608E-02  0.1235961E+00
          2   -1    0    0  501    0  0.00000000000E+00  0.00000000000E+00  0.92957088437E+03  0.92957088438E+03  0.25500000000E-02 0. -1.
         -2   -1    0    0    0  501 -0.00000000000E+00 -0.00000000000E+00 -0.17473293603E+02  0.17473293789E+02  0.25500000000E-02 0.  1.
         25    2    1    2    0    0  0.43970237955E+02 -0.60877035166E+01  0.32496495717E+03  0.35099398879E+03  0.12499645921E+03 0.  0.
         23    2    1    2    0    0 -0.43970237955E+02  0.60877035166E+01  0.58713263360E+03  0.59605018938E+03  0.92631835037E+02 0.  0.
        -13    1    4    4    0    0 -0.71583809240E+02 -0.59370795700E+01  0.37858620672E+03  0.38534013254E+03  0.10566000000E+00 0.  1.
         13    1    4    4    0    0  0.27613571285E+02  0.12024783087E+02  0.20854642688E+03  0.21071005684E+03  0.10566000000E+00 0. -1.
    9000005    1    3    3    0    0  0.63595261148E+01 -0.63430350376E+02  0.16845766501E+03  0.18011895464E+03  0.10000000000E+01 0.  0.
    9000005    1    3    3    0    0  0.37610711840E+02  0.57342646859E+02  0.15650729216E+03  0.17087503414E+03  0.10000000000E+01 0.  0.
<mgrwt>
<rscale>  0 0.12443114E+03</rscale>
<asrwt>0</asrwt>
<pdfrwt beam="1">  1        2 0.14301096E+00 0.13264448E+03</pdfrwt>
<pdfrwt beam="2">  1       -2 0.26881979E-02 0.13264448E+03</pdfrwt>
<totfact> 0.13867657E+04</totfact>
</mgrwt>
</event>
<event>
 8    3  0.1559595E-003  0.1530821E+03  0.7818608E-02  0.1205373E+00
         -2   -1    0    0    0  501 -0.00000000000E+00  0.00000000000E+00  0.59017579747E+02  0.59017579802E+02  0.25500000000E-02 0.  1.
          2   -1    0    0  501    0  0.00000000000E+00 -0.00000000000E+00 -0.35763130733E+03  0.35763130734E+03  0.25500000000E-02 0. -1.
         25    2    1    2    0    0 -0.36086963845E+02 -0.80659918223E+02 -0.10688272429E+03  0.18670313240E+03  0.12500340606E+03 0.  0.
         23    2    1    2    0    0  0.36086963845E+02  0.80659918223E+02 -0.19173100329E+03  0.22994575474E+03  0.91137155621E+02 0.  0.
        -13    1    4    4    0    0  0.36262636909E+02  0.51500931412E+02 -0.38189489507E+02  0.73659846896E+02  0.10566000000E+00 0. -1.
         13    1    4    4    0    0 -0.17567306409E+00  0.29158986812E+02 -0.15354151378E+03  0.15628590785E+03  0.10566000000E+00 0.  1.
    9000005    1    3    3    0    0  0.16318500793E+02  0.27220759313E+02 -0.33190765008E+02  0.45933539897E+02  0.10000000000E+01 0.  0.
    9000005    1    3    3    0    0 -0.52405464638E+02 -0.10788067754E+03 -0.73691959285E+02  0.14076959250E+03  0.10000000000E+01 0.  0.
<mgrwt>
<rscale>  0 0.14608134E+03</rscale>
<asrwt>0</asrwt>
<pdfrwt beam="2">  1        2 0.55020200E-01 0.15308214E+03</pdfrwt>
<pdfrwt beam="1">  1       -2 0.90796278E-02 0.15308214E+03</pdfrwt>
<totfact> 0.67230362E+03</totfact>
</mgrwt>
</event>
<event>
 8    3  0.1559595E-003  0.1414688E+03  0.7818608E-02  0.1221603E+00
         -2   -1    0    0    0  501 -0.00000000000E+00  0.00000000000E+00  0.48289893209E+01  0.48289899942E+01  0.25500000000E-02 0.  1.
          2   -1    0    0  501    0  0.00000000000E+00 -0.00000000000E+00 -0.33781147464E+04  0.33781147464E+04  0.25500000000E-02 0. -1.
         25    2    1    2    0    0 -0.36610065754E+02  0.55206067695E+02 -0.18515448278E+04  0.18569414847E+04  0.12500168525E+03 0.  0.
         23    2    1    2    0    0  0.36610065754E+02 -0.55206067695E+02 -0.15217409293E+04  0.15260022517E+04  0.92733001666E+02 0.  0.
        -13    1    4    4    0    0  0.52542314733E+02  0.34275748403E+01 -0.63243586042E+03  0.63462396095E+03  0.10566000000E+00 0.  1.
         13    1    4    4    0    0 -0.15932248979E+02 -0.58633642536E+02 -0.88930506885E+03  0.89137829077E+03  0.10566000000E+00 0. -1.
    9000005    1    3    3    0    0 -0.82080060890E+02  0.42936420667E+02 -0.10832491309E+04  0.10872029949E+04  0.10000000000E+01 0.  0.
    9000005    1    3    3    0    0  0.45469995135E+02  0.12269647029E+02 -0.76829569694E+03  0.76973848977E+03  0.10000000000E+01 0.  0.
<mgrwt>
<rscale>  0 0.13402503E+03</rscale>
<asrwt>0</asrwt>
<pdfrwt beam="2">  1        2 0.51970807E+00 0.14146882E+03</pdfrwt>
<pdfrwt beam="1">  1       -2 0.74292419E-03 0.14146882E+03</pdfrwt>
<totfact> 0.40535864E+03</totfact>
</mgrwt>
</event>
<event>
 8    3  0.1559595E-003  0.1785069E+03  0.7818608E-02  0.1175290E+00
          2   -1    0    0  501    0  0.00000000000E+00  0.00000000000E+00  0.88301395290E+03  0.88301395291E+03  0.25500000000E-02 0. -1.
         -2   -1    0    0    0  501 -0.00000000000E+00 -0.00000000000E+00 -0.37249114772E+02  0.37249114859E+02  0.25500000000E-02 0.  1.
         25    2    1    2    0    0 -0.12725563320E+03 -0.67643150595E+01  0.26867502460E+03  0.32256933764E+03  0.12499982639E+03 0.  0.
         23    2    1    2    0    0  0.12725563320E+03  0.67643150595E+01  0.57708981353E+03  0.59769373013E+03  0.89249033709E+02 0.  0.
        -13    1    4    4    0    0  0.69473501707E+02 -0.63734424670E+01  0.47132332989E+03  0.47645868727E+03  0.10566000000E+00 0. -1.
         13    1    4    4    0    0  0.57782131493E+02  0.13137757527E+02  0.10576648364E+03  0.12123504286E+03  0.10566000000E+00 0.  1.
    9000005    1    3    3    0    0 -0.13688013047E+03 -0.39436852413E+02  0.23402818677E+03  0.27397377183E+03  0.10000000000E+01 0.  0.
    9000005    1    3    3    0    0  0.96244972660E+01  0.32672537354E+02  0.34646837830E+02  0.48595565810E+02  0.10000000000E+01 0.  0.
<mgrwt>
<rscale>  0 0.17247640E+03</rscale>
<asrwt>0</asrwt>
<pdfrwt beam="1">  1        2 0.13584830E+00 0.17850689E+03</pdfrwt>
<pdfrwt beam="2">  1       -2 0.57306332E-02 0.17850689E+03</pdfrwt>
<totfact> 0.48730847E+03</totfact>
</mgrwt>
</event>
<event>
 8    3  0.1559595E-003  0.1662680E+03  0.7818608E-02  0.1189805E+00
          2   -1    0    0  501    0  0.00000000000E+00  0.00000000000E+00  0.28267365503E+04  0.28267365503E+04  0.25500000000E-02 0. -1.
         -2   -1    0    0    0  501 -0.00000000000E+00 -0.00000000000E+00 -0.10825143041E+02  0.10825143341E+02  0.25500000000E-02 0.  1.
         25    2    1    2    0    0  0.93327980186E+02  0.57571238659E+02  0.21934142963E+04  0.21997071002E+04  0.12498196751E+03 0.  0.
         23    2    1    2    0    0 -0.93327980186E+02 -0.57571238659E+02  0.62249711104E+03  0.63785459349E+03  0.85622834427E+02 0.  0.
        -13    1    4    4    0    0 -0.84098713928E+02 -0.76560605539E+02  0.57066478479E+03  0.58188695446E+03  0.10566000000E+00 0. -1.
         13    1    4    4    0    0 -0.92292662580E+01  0.18989366880E+02  0.51832326249E+02  0.55967639030E+02  0.10566000000E+00 0.  1.
    9000005    1    3    3    0    0  0.88279833142E+02 -0.18332965740E+02  0.11723550376E+04  0.11758174861E+04  0.10000000000E+01 0.  0.
    9000005    1    3    3    0    0  0.50481470446E+01  0.75904204398E+02  0.10210592587E+04  0.10238896140E+04  0.10000000000E+01 0.  0.
<mgrwt>
<rscale>  0 0.15902229E+03</rscale>
<asrwt>0</asrwt>
<pdfrwt beam="1">  1        2 0.43488185E+00 0.16626801E+03</pdfrwt>
<pdfrwt beam="2">  1       -2 0.16654093E-02 0.16626801E+03</pdfrwt>
<totfact> 0.26916601E+03</totfact>
</mgrwt>
</event>
<event>
 8    3  0.1559595E-003  0.1532368E+03  0.7818608E-02  0.1205022E+00
         -2   -1    0    0    0  501 -0.00000000000E+00  0.00000000000E+00  0.37909809796E+02  0.37909809882E+02  0.25500000000E-02 0.  1.
          2   -1    0    0  501    0  0.00000000000E+00 -0.00000000000E+00 -0.52183387630E+03  0.52183387631E+03  0.25500000000E-02 0. -1.
         25    2    1    2    0    0 -0.43770727738E+02 -0.77068429918E+02 -0.28141117854E+03  0.32042746423E+03  0.12500435563E+03 0.  0.
         23    2    1    2    0    0  0.43770727738E+02  0.77068429918E+02 -0.20251288797E+03  0.23931622197E+03  0.91680776646E+02 0.  0.
        -13    1    4    4    0    0  0.14260219231E+01  0.83849444135E+02 -0.12114989738E+03  0.14734337997E+03  0.10566000000E+00 0.  1.
         13    1    4    4    0    0  0.42344705815E+02 -0.67810142172E+01 -0.81362990588E+02  0.91972842001E+02  0.10566000000E+00 0. -1.
    9000005    1    3    3    0    0  0.79343331255E+01 -0.92842459941E+02 -0.21808784382E+03  0.23716235712E+03  0.10000000000E+01 0.  0.
    9000005    1    3    3    0    0 -0.51705060864E+02  0.15774030023E+02 -0.63323334716E+02  0.83265107108E+02  0.10000000000E+01 0.  0.
<mgrwt>
<rscale>  0 0.14635748E+03</rscale>
<asrwt>0</asrwt>
<pdfrwt beam="2">  1        2 0.80282130E-01 0.15323677E+03</pdfrwt>
<pdfrwt beam="1">  1       -2 0.58322788E-02 0.15323677E+03</pdfrwt>
<totfact> 0.88243133E+03</totfact>
</mgrwt>
</event>
<event>
 8    3  0.1559595E-003  0.1325411E+03  0.7818608E-02  0.1237940E+00
         -2   -1    0    0    0  501 -0.00000000000E+00  0.00000000000E+00  0.10548015109E+03  0.10548015113E+03  0.25500000000E-02 0.  1.
          2   -1    0    0  501    0  0.00000000000E+00 -0.00000000000E+00 -0.13257118271E+03  0.13257118273E+03  0.25500000000E-02 0. -1.
         25    2    1    2    0    0  0.43390216229E+02  0.76514707169E+01 -0.39720310220E+02  0.13836491095E+03  0.12500355863E+03 0.  0.
         23    2    1    2    0    0 -0.43390216229E+02 -0.76514707169E+01  0.12629278607E+02  0.99686422906E+02  0.88524733070E+02 0.  0.
        -13    1    4    4    0    0 -0.58728494567E+01 -0.23229531042E+02  0.42823421266E+02  0.49070949106E+02  0.10566000000E+00 0.  1.
         13    1    4    4    0    0 -0.37517366773E+02  0.15578060325E+02 -0.30194142659E+02  0.50615473800E+02  0.10566000000E+00 0. -1.
    9000005    1    3    3    0    0 -0.68909117676E+01  0.59404023141E+02 -0.11651234442E+02  0.60934997287E+02  0.10000000000E+01 0.  0.
    9000005    1    3    3    0    0  0.50281127997E+02 -0.51752552424E+02 -0.28069075778E+02  0.77429913665E+02  0.10000000000E+01 0.  0.
<mgrwt>
<rscale>  0 0.12318095E+03</rscale>
<asrwt>0</asrwt>
<pdfrwt beam="2">  1        2 0.20395567E-01 0.13254111E+03</pdfrwt>
<pdfrwt beam="1">  1       -2 0.16227716E-01 0.13254111E+03</pdfrwt>
<totfact> 0.76904917E+03</totfact>
</mgrwt>
</event>
<event>
 8    3  0.1559595E-003  0.1452511E+03  0.7818608E-02  0.1215927E+00
          2   -1    0    0  501    0  0.00000000000E+00  0.00000000000E+00  0.60844856606E+03  0.60844856606E+03  0.25500000000E-02 0. -1.
         -2   -1    0    0    0  501 -0.00000000000E+00 -0.00000000000E+00 -0.30848865976E+02  0.30848866081E+02  0.25500000000E-02 0.  1.
         25    2    1    2    0    0  0.29152590144E+02 -0.67992954155E+02  0.40142909181E+03  0.42689952664E+03  0.12499989909E+03 0.  0.
         23    2    1    2    0    0 -0.29152590144E+02  0.67992954155E+02  0.17617060827E+03  0.21239790550E+03  0.92757057492E+02 0.  0.
        -13    1    4    4    0    0 -0.41188905404E+02  0.64372273517E+02  0.64444878488E+02  0.99967339934E+02  0.10566000000E+00 0.  1.
         13    1    4    4    0    0  0.12036315260E+02  0.36206806381E+01  0.11172572979E+03  0.11243056557E+03  0.10566000000E+00 0. -1.
    9000005    1    3    3    0    0 -0.48379209839E+02 -0.15445907431E+02  0.12055484101E+03  0.13081893476E+03  0.10000000000E+01 0.  0.
    9000005    1    3    3    0    0  0.77531799984E+02 -0.52547046725E+02  0.28087425079E+03  0.29608059188E+03  0.10000000000E+01 0.  0.
<mgrwt>
<rscale>  0 0.13808693E+03</rscale>
<asrwt>0</asrwt>
<pdfrwt beam="1">  1        2 0.93607459E-01 0.14525113E+03</pdfrwt>
<pdfrwt beam="2">  1       -2 0.47459800E-02 0.14525113E+03</pdfrwt>
<totfact> 0.10095706E+04</totfact>
</mgrwt>
</event>
<event>
 8    3  0.1559595E-003  0.1471600E+03  0.7818608E-02  0.1215641E+00
          2   -1    0    0  501    0  0.00000000000E+00  0.00000000000E+00  0.17123242423E+02  0.17123242613E+02  0.25500000000E-02 0.  1.
         -2   -1    0    0    0  501 -0.00000000000E+00 -0.00000000000E+00 -0.11457998962E+04  0.11457998962E+04  0.25500000000E-02 0. -1.
         25    2    1    2    0    0 -0.46170095484E+02  0.62444953436E+02 -0.83012143507E+03  0.84306444734E+03  0.12500006190E+03 0.  0.
         23    2    1    2    0    0  0.46170095484E+02 -0.62444953436E+02 -0.29855521872E+03  0.31985869149E+03  0.84518128063E+02 0.  0.
        -13    1    4    4    0    0  0.13305773343E+01 -0.68097306422E+02 -0.15365796300E+03  0.16807675132E+03  0.10566000000E+00 0.  1.
         13    1    4    4    0    0  0.44839518150E+02  0.56523529859E+01 -0.14489725572E+03  0.15178194017E+03  0.10566000000E+00 0. -1.
    9000005    1    3    3    0    0 -0.60265890337E+02  0.94106216736E+02 -0.59555814621E+03  0.60595252544E+03  0.10000000000E+01 0.  0.
    9000005    1    3    3    0    0  0.14095794853E+02 -0.31661263299E+02 -0.23456328886E+03  0.23711192190E+03  0.10000000000E+01 0.  0.
<mgrwt>
<rscale>  0 0.13829566E+03</rscale>
<asrwt>0</asrwt>
<pdfrwt beam="1">  1        2 0.26343459E-02 0.14716000E+03</pdfrwt>
<pdfrwt beam="2">  1       -2 0.17627685E+00 0.14716000E+03</pdfrwt>
<totfact> 0.75315306E+02</totfact>
</mgrwt>
</event>
<event>
 8    3  0.1559595E-003  0.4092319E+03  0.7818608E-02  0.1041394E+00
          2   -1    0    0  501    0  0.00000000000E+00  0.00000000000E+00  0.14751139666E+04  0.14751139666E+04  0.25500000000E-02 0. -1.
         -2   -1    0    0    0  501 -0.00000000000E+00 -0.00000000000E+00 -0.11392284115E+03  0.11392284117E+03  0.25500000000E-02 0.  1.
         25    2    1    2    0    0 -0.24053675799E+03 -0.30657259117E+03  0.81410489345E+03  0.91117369362E+03  0.12500414714E+03 0.  0.
         23    2    1    2    0    0  0.24053675799E+03  0.30657259117E+03  0.54708623202E+03  0.67786311417E+03  0.91380362733E+02 0.  0.
        -13    1    4    4    0    0  0.69740241400E+02  0.12452361998E+03  0.13737107861E+03  0.19809254808E+03  0.10566000000E+00 0.  1.
         13    1    4    4    0    0  0.17079651659E+03  0.18204897118E+03  0.40971515341E+03  0.47977056609E+03  0.10566000000E+00 0. -1.
    9000005    1    3    3    0    0 -0.22560141623E+02 -0.31009454156E+02  0.21014990897E+02  0.43739868307E+02  0.10000000000E+01 0.  0.
    9000005    1    3    3    0    0 -0.21797661637E+03 -0.27556313701E+03  0.79308990255E+03  0.86743382531E+03  0.10000000000E+01 0.  0.
<mgrwt>
<rscale>  0 0.40696609E+03</rscale>
<asrwt>0</asrwt>
<pdfrwt beam="1">  1        2 0.22694059E+00 0.40923187E+03</pdfrwt>
<pdfrwt beam="2">  1       -2 0.17526593E-01 0.40923187E+03</pdfrwt>
<totfact> 0.36634117E+02</totfact>
</mgrwt>
</event>
<event>
 8    3  0.1559595E-003  0.1276518E+03  0.7818608E-02  0.1244549E+00
         -2   -1    0    0    0  501 -0.00000000000E+00  0.00000000000E+00  0.19879821031E+03  0.19879821032E+03  0.25500000000E-02 0.  1.
          2   -1    0    0  501    0  0.00000000000E+00 -0.00000000000E+00 -0.77657648929E+02  0.77657648970E+02  0.25500000000E-02 0. -1.
         25    2    1    2    0    0  0.19214827386E+02 -0.17336013787E+02  0.85070693655E+01  0.12793490905E+03  0.12500089504E+03 0.  0.
         23    2    1    2    0    0 -0.19214827386E+02  0.17336013787E+02  0.11263349201E+03  0.14852095024E+03  0.93286773832E+02 0.  0.
        -13    1    4    4    0    0  0.25695206038E+02  0.37743976793E+02  0.68544117669E+02  0.82359933393E+02  0.10566000000E+00 0.  1.
         13    1    4    4    0    0 -0.44910033424E+02 -0.20407963006E+02  0.44089374345E+02  0.66161016849E+02  0.10566000000E+00 0. -1.
    9000005    1    3    3    0    0 -0.32620618765E+02 -0.74203343373E+01 -0.42793981834E+02  0.54327626595E+02  0.10000000000E+01 0.  0.
    9000005    1    3    3    0    0  0.51835446151E+02 -0.99156794496E+01  0.51301051200E+02  0.73607282458E+02  0.10000000000E+01 0.  0.
<mgrwt>
<rscale>  0 0.11912423E+03</rscale>
<asrwt>0</asrwt>
<pdfrwt beam="2">  1        2 0.11947331E-01 0.12765176E+03</pdfrwt>
<pdfrwt beam="1">  1       -2 0.30584340E-01 0.12765176E+03</pdfrwt>
<totfact> 0.48087390E+03</totfact>
</mgrwt>
</event>
<event>
 8    3  0.1559595E-003  0.2169122E+03  0.7818608E-02  0.1136977E+00
          2   -1    0    0  501    0  0.00000000000E+00  0.00000000000E+00  0.18723158437E+04  0.18723158437E+04  0.25500000000E-02 0.  1.
         -2   -1    0    0    0  501 -0.00000000000E+00 -0.00000000000E+00 -0.24669936638E+02  0.24669936770E+02  0.25500000000E-02 0. -1.
         25    2    1    2    0    0 -0.81656668318E+02 -0.15734757853E+03  0.94407494524E+03  0.96867352753E+03  0.12499931507E+03 0.  0.
         23    2    1    2    0    0  0.81656668318E+02  0.15734757853E+03  0.90357096182E+03  0.92831225294E+03  0.11788589379E+03 0.  0.
        -13    1    4    4    0    0  0.95073885827E+00  0.10319618413E+03  0.30713699491E+03  0.32401157561E+03  0.10566000000E+00 0. -1.
         13    1    4    4    0    0  0.80705929459E+02  0.54151394393E+02  0.59643396692E+03  0.60430067733E+03  0.10566000000E+00 0.  1.
    9000005    1    3    3    0    0 -0.77475452289E+02 -0.15124579133E+03  0.57655275946E+03  0.60107555227E+03  0.10000000000E+01 0.  0.
    9000005    1    3    3    0    0 -0.41812160281E+01 -0.61017871992E+01  0.36752218578E+03  0.36759797526E+03  0.10000000000E+01 0.  0.
<mgrwt>
<rscale>  0 0.21590018E+03</rscale>
<asrwt>0</asrwt>
<pdfrwt beam="1">  1        2 0.28804860E+00 0.21691220E+03</pdfrwt>
<pdfrwt beam="2">  1       -2 0.37953748E-02 0.21691220E+03</pdfrwt>
<totfact> 0.25830734E+03</totfact>
</mgrwt>
</event>
<event>
 8    3  0.1559595E-003  0.1426351E+03  0.7818608E-02  0.1220933E+00
          2   -1    0    0  501    0  0.00000000000E+00  0.00000000000E+00  0.86895500564E+03  0.86895500564E+03  0.25500000000E-02 0. -1.
         -2   -1    0    0    0  501 -0.00000000000E+00 -0.00000000000E+00 -0.22998990366E+02  0.22998990508E+02  0.25500000000E-02 0.  1.
         25    2    1    2    0    0  0.57830233408E+02 -0.37078978506E+02  0.65361130636E+03  0.66899364957E+03  0.12500230728E+03 0.  0.
         23    2    1    2    0    0 -0.57830233408E+02  0.37078978506E+02  0.19234470891E+03  0.22296034658E+03  0.89418356929E+02 0.  0.
        -13    1    4    4    0    0 -0.32051551815E+02  0.14538737094E+02  0.88403722174E+01  0.36288292810E+02  0.10566000000E+00 0.  1.
         13    1    4    4    0    0 -0.25778681593E+02  0.22540241412E+02  0.18350433670E+03  0.18667205377E+03  0.10566000000E+00 0. -1.
    9000005    1    3    3    0    0  0.21753771920E+02 -0.26336170476E+02  0.33886941368E+02  0.48126346873E+02  0.10000000000E+01 0.  0.
    9000005    1    3    3    0    0  0.36076461488E+02 -0.10742808029E+02  0.61972436499E+03  0.62086730270E+03  0.10000000000E+01 0.  0.
<mgrwt>
<rscale>  0 0.13449575E+03</rscale>
<asrwt>0</asrwt>
<pdfrwt beam="1">  1        2 0.13368539E+00 0.14263507E+03</pdfrwt>
<pdfrwt beam="2">  1       -2 0.35383062E-02 0.14263507E+03</pdfrwt>
<totfact> 0.10152517E+04</totfact>
</mgrwt>
</event>
<event>
 8    3  0.1559595E-003  0.3103213E+03  0.7818608E-02  0.1081556E+00
         -2   -1    0    0    0  501 -0.00000000000E+00  0.00000000000E+00  0.71146107571E+02  0.71146107617E+02  0.25500000000E-02 0.  1.
          2   -1    0    0  501    0  0.00000000000E+00 -0.00000000000E+00 -0.13371855009E+04  0.13371855009E+04  0.25500000000E-02 0. -1.
         25    2    1    2    0    0 -0.27717105458E+02  0.28267509556E+03 -0.75321860409E+03  0.81463952012E+03  0.12500333841E+03 0.  0.
         23    2    1    2    0    0  0.27717105458E+02 -0.28267509556E+03 -0.51282078927E+03  0.59369208843E+03  0.93870583094E+02 0.  0.
        -13    1    4    4    0    0 -0.34691345726E+02 -0.11641275629E+03 -0.20160684867E+03  0.23537364315E+03  0.10566000000E+00 0.  1.
         13    1    4    4    0    0  0.62408451184E+02 -0.16626233927E+03 -0.31121394060E+03  0.35831844528E+03  0.10566000000E+00 0. -1.
    9000005    1    3    3    0    0 -0.28397878404E+02  0.29519234702E+03 -0.73429296109E+03  0.79191673423E+03  0.10000000000E+01 0.  0.
    9000005    1    3    3    0    0  0.68077294601E+00 -0.12517251463E+02 -0.18925642997E+02  0.22722785895E+02  0.10000000000E+01 0.  0.
<mgrwt>
<rscale>  0 0.30748753E+03</rscale>
<asrwt>0</asrwt>
<pdfrwt beam="2">  1        2 0.20572083E+00 0.31032126E+03</pdfrwt>
<pdfrwt beam="1">  1       -2 0.10945556E-01 0.31032126E+03</pdfrwt>
<totfact> 0.95959215E+02</totfact>
</mgrwt>
</event>
<event>
 8    3  0.1559595E-003  0.1971555E+03  0.7818608E-02  0.1156571E+00
         -2   -1    0    0    0  501 -0.00000000000E+00  0.00000000000E+00  0.33939505420E+02  0.33939505515E+02  0.25500000000E-02 0.  1.
          2   -1    0    0  501    0  0.00000000000E+00 -0.00000000000E+00 -0.10790427132E+04  0.10790427132E+04  0.25500000000E-02 0. -1.
         25    2    1    2    0    0 -0.15207965519E+03  0.10838309335E+02 -0.66046369896E+03  0.68926236207E+03  0.12499846262E+03 0.  0.
         23    2    1    2    0    0  0.15207965519E+03 -0.10838309335E+02 -0.38463950880E+03  0.42371985662E+03  0.91352475042E+02 0.  0.
        -13    1    4    4    0    0  0.26171095840E+02  0.22535183910E+02 -0.16317057525E+03  0.16678551665E+03  0.10566000000E+00 0. -1.
         13    1    4    4    0    0  0.12590855935E+03 -0.33373493245E+02 -0.22146893355E+03  0.25693433997E+03  0.10566000000E+00 0.  1.
    9000005    1    3    3    0    0 -0.33325253455E+01 -0.29183678087E+02 -0.38098953474E+02  0.48117803853E+02  0.10000000000E+01 0.  0.
    9000005    1    3    3    0    0 -0.14874712984E+03  0.40021987422E+02 -0.62236474548E+03  0.64114455822E+03  0.10000000000E+01 0.  0.
<mgrwt>
<rscale>  0 0.19211094E+03</rscale>
<asrwt>0</asrwt>
<pdfrwt beam="2">  1        2 0.16600654E+00 0.19715554E+03</pdfrwt>
<pdfrwt beam="1">  1       -2 0.52214632E-02 0.19715554E+03</pdfrwt>
<totfact> 0.42698211E+03</totfact>
</mgrwt>
</event>
<event>
 8    3  0.1559595E-003  0.1258145E+03  0.7818608E-02  0.1249408E+00
         -2   -1    0    0    0  501 -0.00000000000E+00  0.00000000000E+00  0.87161426201E+01  0.87161429931E+01  0.25500000000E-02 0.  1.
          2   -1    0    0  501    0  0.00000000000E+00 -0.00000000000E+00 -0.13777652491E+04  0.13777652491E+04  0.25500000000E-02 0. -1.
         25    2    1    2    0    0  0.14148571247E+02 -0.21259548881E+01 -0.87385806186E+03  0.88286873874E+03  0.12499838320E+03 0.  0.
         23    2    1    2    0    0 -0.14148571247E+02  0.21259548881E+01 -0.49519104460E+03  0.50361265334E+03  0.90591568047E+02 0.  0.
        -13    1    4    4    0    0 -0.13229524912E+02  0.27590594201E+02 -0.45497962642E+03  0.45600738244E+03  0.10566000000E+00 0. -1.
         13    1    4    4    0    0 -0.91904633573E+00 -0.25464639313E+02 -0.40211418174E+02  0.47605270896E+02  0.10566000000E+00 0.  1.
    9000005    1    3    3    0    0  0.66017562125E+02 -0.10693924061E+02 -0.34655272761E+03  0.35294825617E+03  0.10000000000E+01 0.  0.
    9000005    1    3    3    0    0 -0.51868990878E+02  0.85679691725E+01 -0.52730533425E+03  0.52992048256E+03  0.10000000000E+01 0.  0.
<mgrwt>
<rscale>  0 0.11625390E+03</rscale>
<asrwt>0</asrwt>
<pdfrwt beam="2">  1        2 0.21196371E+00 0.12581454E+03</pdfrwt>
<pdfrwt beam="1">  1       -2 0.13409461E-02 0.12581454E+03</pdfrwt>
<totfact> 0.21130008E+04</totfact>
</mgrwt>
</event>
<event>
 8    3  0.1559595E-003  0.1392528E+03  0.7818608E-02  0.1226260E+00
          2   -1    0    0  501    0  0.00000000000E+00  0.00000000000E+00  0.22465796629E+03  0.22465796631E+03  0.25500000000E-02 0. -1.
         -2   -1    0    0    0  501 -0.00000000000E+00 -0.00000000000E+00 -0.79834292611E+02  0.79834292652E+02  0.25500000000E-02 0.  1.
         25    2    1    2    0    0  0.76334924382E+01 -0.60893941668E+02  0.22548911277E+02  0.14106660554E+03  0.12499996584E+03 0.  0.
         23    2    1    2    0    0 -0.76334924382E+01  0.60893941668E+02  0.12227476241E+03  0.16342565342E+03  0.89389509094E+02 0.  0.
        -13    1    4    4    0    0  0.22811041903E+01  0.60373095257E+02  0.24575728101E+02  0.65223397971E+02  0.10566000000E+00 0.  1.
         13    1    4    4    0    0 -0.99145966285E+01  0.52084641147E+00  0.97699034305E+02  0.98202255450E+02  0.10566000000E+00 0. -1.
    9000005    1    3    3    0    0 -0.45463112217E+02 -0.48829898882E+02  0.46749479176E+02  0.81472494748E+02  0.10000000000E+01 0.  0.
    9000005    1    3    3    0    0  0.53096604655E+02 -0.12064042787E+02 -0.24200567900E+02  0.59594110790E+02  0.10000000000E+01 0.  0.
<mgrwt>
<rscale>  0 0.13080946E+03</rscale>
<asrwt>0</asrwt>
<pdfrwt beam="1">  1        2 0.34562763E-01 0.13925277E+03</pdfrwt>
<pdfrwt beam="2">  1       -2 0.12282199E-01 0.13925277E+03</pdfrwt>
<totfact> 0.68001217E+03</totfact>
</mgrwt>
</event>
<event>
 8    3  0.1559595E-003  0.1268867E+03  0.7818608E-02  0.1247625E+00
         -2   -1    0    0    0  501 -0.00000000000E+00  0.00000000000E+00  0.65605259865E+02  0.65605259915E+02  0.25500000000E-02 0. -1.
          2   -1    0    0  501    0  0.00000000000E+00 -0.00000000000E+00 -0.19778693732E+03  0.19778693734E+03  0.25500000000E-02 0.  1.
         25    2    1    2    0    0 -0.88232490840E+01  0.19944732022E+02 -0.40884044073E+02  0.13331067844E+03  0.12499835946E+03 0.  0.
         23    2    1    2    0    0  0.88232490840E+01 -0.19944732022E+02 -0.91297633381E+02  0.13008151881E+03  0.90057213005E+02 0.  0.
        -13    1    4    4    0    0  0.13695824706E+02 -0.39930309384E+02 -0.63625144093E+01  0.42690724701E+02  0.10566000000E+00 0. -1.
         13    1    4    4    0    0 -0.48725756225E+01  0.19985577361E+02 -0.84935118972E+02  0.87390794106E+02  0.10566000000E+00 0.  1.
    9000005    1    3    3    0    0 -0.49930227475E+02  0.52978224145E+02 -0.14114085144E+02  0.74161494380E+02  0.10000000000E+01 0.  0.
    9000005    1    3    3    0    0  0.41106978391E+02 -0.33033492123E+02 -0.26769958929E+02  0.59149184063E+02  0.10000000000E+01 0.  0.
<mgrwt>
<rscale>  0 0.11729664E+03</rscale>
<asrwt>0</asrwt>
<pdfrwt beam="2">  1        2 0.30428759E-01 0.12688669E+03</pdfrwt>
<pdfrwt beam="1">  1       -2 0.10093117E-01 0.12688669E+03</pdfrwt>
<totfact> 0.10572858E+04</totfact>
</mgrwt>
</event>
<event>
 8    3  0.1559595E-003  0.1377869E+03  0.7818608E-02  0.1228161E+00
         -2   -1    0    0    0  501 -0.00000000000E+00  0.00000000000E+00  0.85675713069E+01  0.85675716864E+01  0.25500000000E-02 0. -1.
          2   -1    0    0  501    0  0.00000000000E+00 -0.00000000000E+00 -0.18024956460E+04  0.18024956460E+04  0.25500000000E-02 0.  1.
         25    2    1    2    0    0 -0.54934601500E+02  0.18436526598E+02 -0.11473269570E+04  0.11555710128E+04  0.12501001335E+03 0.  0.
         23    2    1    2    0    0  0.54934601500E+02 -0.18436526598E+02 -0.64660111772E+03  0.65549220490E+03  0.90660406444E+02 0.  0.
        -13    1    4    4    0    0 -0.64277832105E+01 -0.58648960349E+00 -0.76329750545E+00  0.65003195440E+01  0.10566000000E+00 0. -1.
         13    1    4    4    0    0  0.61362384710E+02 -0.17850036994E+02 -0.64583782021E+03  0.64899188535E+03  0.10566000000E+00 0.  1.
    9000005    1    3    3    0    0 -0.18304306474E+02  0.52326986719E+02 -0.21922159270E+03  0.22612445220E+03  0.10000000000E+01 0.  0.
    9000005    1    3    3    0    0 -0.36630295025E+02 -0.33890460122E+02 -0.92810536430E+03  0.92944656062E+03  0.10000000000E+01 0.  0.
<mgrwt>
<rscale>  0 0.12952556E+03</rscale>
<asrwt>0</asrwt>
<pdfrwt beam="2">  1        2 0.27730672E+00 0.13778686E+03</pdfrwt>
<pdfrwt beam="1">  1       -2 0.13180894E-02 0.13778686E+03</pdfrwt>
<totfact> 0.13130369E+04</totfact>
</mgrwt>
</event>
<event>
 8    3  0.1559595E-003  0.1362148E+03  0.7818608E-02  0.1230551E+00
          2   -1    0    0  501    0  0.00000000000E+00  0.00000000000E+00  0.82652338156E+03  0.82652338156E+03  0.25500000000E-02 0. -1.
         -2   -1    0    0    0  501 -0.00000000000E+00 -0.00000000000E+00 -0.19930623402E+02  0.19930623565E+02  0.25500000000E-02 0.  1.
         25    2    1    2    0    0  0.39665968201E+02 -0.36836389448E+02  0.58726209314E+03  0.60285257370E+03  0.12499660379E+03 0.  0.
         23    2    1    2    0    0 -0.39665968201E+02  0.36836389448E+02  0.21933066502E+03  0.24360143143E+03  0.91134012067E+02 0.  0.
        -13    1    4    4    0    0  0.13569798560E+02  0.19583798115E+02  0.82271743137E+01  0.25206390912E+02  0.10566000000E+00 0.  1.
         13    1    4    4    0    0 -0.53235766760E+02  0.17252591333E+02  0.21110349071E+03  0.21839504052E+03  0.10566000000E+00 0. -1.
    9000005    1    3    3    0    0 -0.36235373897E+01  0.31516459718E+02  0.47942339735E+02  0.57496827700E+02  0.10000000000E+01 0.  0.
    9000005    1    3    3    0    0  0.43289505590E+02 -0.68352849166E+02  0.53931975340E+03  0.54535574600E+03  0.10000000000E+01 0.  0.
<mgrwt>
<rscale>  0 0.12793613E+03</rscale>
<asrwt>0</asrwt>
<pdfrwt beam="1">  1        2 0.12715748E+00 0.13621476E+03</pdfrwt>
<pdfrwt beam="2">  1       -2 0.30662489E-02 0.13621476E+03</pdfrwt>
<totfact> 0.13329504E+04</totfact>
</mgrwt>
</event>
<event>
 8    3  0.1559595E-003  0.1503287E+03  0.7818608E-02  0.1210001E+00
         -2   -1    0    0    0  501 -0.00000000000E+00  0.00000000000E+00  0.53562292904E+01  0.53562298974E+01  0.25500000000E-02 0.  1.
          2   -1    0    0  501    0  0.00000000000E+00 -0.00000000000E+00 -0.34723082775E+04  0.34723082775E+04  0.25500000000E-02 0. -1.
         25    2    1    2    0    0 -0.13136916703E+02  0.82475876794E+02 -0.20675058387E+04  0.20729638500E+04  0.12499552608E+03 0.  0.
         23    2    1    2    0    0  0.13136916703E+02 -0.82475876794E+02 -0.13994462095E+04  0.14047006574E+04  0.88087426654E+02 0.  0.
        -13    1    4    4    0    0  0.36740745227E+02 -0.23624394493E+02 -0.92567672577E+03  0.92670675306E+03  0.10566000000E+00 0. -1.
         13    1    4    4    0    0 -0.23603828524E+02 -0.58851482301E+02 -0.47376948378E+03  0.47799390437E+03  0.10566000000E+00 0.  1.
    9000005    1    3    3    0    0 -0.30268122278E+02  0.54712554750E+02 -0.19501908465E+04  0.19511932146E+04  0.10000000000E+01 0.  0.
    9000005    1    3    3    0    0  0.17131205574E+02  0.27763322044E+02 -0.11731499216E+03  0.12177063538E+03  0.10000000000E+01 0.  0.
<mgrwt>
<rscale>  0 0.14250250E+03</rscale>
<asrwt>0</asrwt>
<pdfrwt beam="2">  1        2 0.53419947E+00 0.15032874E+03</pdfrwt>
<pdfrwt beam="1">  1       -2 0.82403810E-03 0.15032874E+03</pdfrwt>
<totfact> 0.30412352E+03</totfact>
</mgrwt>
</event>
<event>
 8    3  0.1559595E-003  0.1651749E+03  0.7818608E-02  0.1189745E+00
          2   -1    0    0  501    0  0.00000000000E+00  0.00000000000E+00  0.41862081005E+03  0.41862081006E+03  0.25500000000E-02 0. -1.
         -2   -1    0    0    0  501 -0.00000000000E+00 -0.00000000000E+00 -0.75283846525E+02  0.75283846568E+02  0.25500000000E-02 0.  1.
         25    2    1    2    0    0  0.26536195627E+02  0.10466157130E+03  0.57854269244E+02  0.17501388470E+03  0.12499811672E+03 0.  0.
         23    2    1    2    0    0 -0.26536195627E+02 -0.10466157130E+03  0.28548269428E+03  0.31889077192E+03  0.92372839628E+02 0.  0.
        -13    1    4    4    0    0 -0.48947622411E+02 -0.66899098490E+02  0.24687429211E+03  0.26041944318E+03  0.10566000000E+00 0. -1.
         13    1    4    4    0    0  0.22411426784E+02 -0.37762472806E+02  0.38608402174E+02  0.58471328747E+02  0.10566000000E+00 0.  1.
    9000005    1    3    3    0    0 -0.47925988451E+02  0.55407667112E+02  0.41632859929E+02  0.84268647608E+02  0.10000000000E+01 0.  0.
    9000005    1    3    3    0    0  0.74462184077E+02  0.49253904184E+02  0.16221409315E+02  0.90745237093E+02  0.10000000000E+01 0.  0.
<mgrwt>
<rscale>  0 0.15907525E+03</rscale>
<asrwt>0</asrwt>
<pdfrwt beam="1">  1        2 0.64403203E-01 0.16517489E+03</pdfrwt>
<pdfrwt beam="2">  1       -2 0.11582130E-01 0.16517489E+03</pdfrwt>
<totfact> 0.38796270E+03</totfact>
</mgrwt>
</event>
<event>
 8    3  0.1559595E-003  0.6314906E+03  0.7818608E-02  0.9844978E-01
          2   -1    0    0  501    0  0.00000000000E+00  0.00000000000E+00  0.20753378304E+04  0.20753378304E+04  0.25500000000E-02 0. -1.
         -2   -1    0    0    0  501 -0.00000000000E+00 -0.00000000000E+00 -0.19448691978E+03  0.19448691979E+03  0.25500000000E-02 0.  1.
         25    2    1    2    0    0  0.48662716775E+03  0.38255675965E+03  0.11093448512E+04  0.12764898445E+04  0.12499859779E+03 0.  0.
         23    2    1    2    0    0 -0.48662716775E+03 -0.38255675965E+03  0.77150605938E+03  0.99333490567E+03  0.91306957110E+02 0.  0.
        -13    1    4    4    0    0 -0.24572609142E+03 -0.13601465088E+03  0.35678283110E+03  0.45406530036E+03  0.10566000000E+00 0. -1.
         13    1    4    4    0    0 -0.24090107633E+03 -0.24654210877E+03  0.41472322828E+03  0.53926960531E+03  0.10566000000E+00 0.  1.
    9000005    1    3    3    0    0  0.24443172317E+03  0.25192376399E+03  0.53886922031E+03  0.64311234381E+03  0.10000000000E+01 0.  0.
    9000005    1    3    3    0    0  0.24219544458E+03  0.13063299565E+03  0.57047563093E+03  0.63337750072E+03  0.10000000000E+01 0.  0.
<mgrwt>
<rscale>  0 0.63003633E+03</rscale>
<asrwt>0</asrwt>
<pdfrwt beam="1">  1        2 0.31928275E+00 0.63149056E+03</pdfrwt>
<pdfrwt beam="2">  1       -2 0.29921064E-01 0.63149056E+03</pdfrwt>
<totfact> 0.65332293E+01</totfact>
</mgrwt>
</event>
<event>
 8    3  0.1559595E-003  0.1975697E+03  0.7818608E-02  0.1156530E+00
         -2   -1    0    0    0  501 -0.00000000000E+00  0.00000000000E+00  0.22677148457E+03  0.22677148458E+03  0.25500000000E-02 0. -1.
          2   -1    0    0  501    0  0.00000000000E+00 -0.00000000000E+00 -0.16506953921E+03  0.16506953923E+03  0.25500000000E-02 0.  1.
         25    2    1    2    0    0 -0.64286106012E+02 -0.13883906564E+03 -0.17045472275E+02  0.19830367360E+03  0.12499923705E+03 0.  0.
         23    2    1    2    0    0  0.64286106012E+02  0.13883906564E+03  0.78747417631E+02  0.19353735022E+03  0.88580813779E+02 0.  0.
        -13    1    4    4    0    0 -0.11491202524E+02  0.78322425473E+02  0.43698768562E+02  0.90421477566E+02  0.10566000000E+00 0. -1.
         13    1    4    4    0    0  0.75777308536E+02  0.60516640172E+02  0.35048649069E+02  0.10311587265E+03  0.10566000000E+00 0.  1.
    9000005    1    3    3    0    0 -0.57698526699E+02 -0.11534085706E+02  0.25185472170E+02  0.64011429641E+02  0.10000000000E+01 0.  0.
    9000005    1    3    3    0    0 -0.65875793129E+01 -0.12730497994E+03 -0.42230944445E+02  0.13429224396E+03  0.10000000000E+01 0.  0.
<mgrwt>
<rscale>  0 0.19215700E+03</rscale>
<asrwt>0</asrwt>
<pdfrwt beam="2">  1        2 0.25395314E-01 0.19756973E+03</pdfrwt>
<pdfrwt beam="1">  1       -2 0.34887921E-01 0.19756973E+03</pdfrwt>
<totfact> 0.16157686E+03</totfact>
</mgrwt>
</event>
<event>
 8    3  0.1559595E-003  0.1309324E+03  0.7818608E-02  0.1238427E+00
          2   -1    0    0  501    0  0.00000000000E+00  0.00000000000E+00  0.22011672401E+04  0.22011672401E+04  0.25500000000E-02 0. -1.
         -2   -1    0    0    0  501 -0.00000000000E+00 -0.00000000000E+00 -0.61565699119E+01  0.61565704399E+01  0.25500000000E-02 0.  1.
         25    2    1    2    0    0  0.26410019109E+02  0.28618615010E+02  0.11775028088E+04  0.11847599589E+04  0.12500712444E+03 0.  0.
         23    2    1    2    0    0 -0.26410019109E+02 -0.28618615010E+02  0.10175078614E+04  0.10225638517E+04  0.93798019904E+02 0.  0.
        -13    1    4    4    0    0  0.29542763318E+02  0.82833344064E+00  0.55081211229E+03  0.55160443727E+03  0.10566000000E+00 0. -1.
         13    1    4    4    0    0 -0.55952782427E+02 -0.29446948450E+02  0.46669574909E+03  0.47095941441E+03  0.10566000000E+00 0.  1.
    9000005    1    3    3    0    0  0.72798632819E+02  0.39454883661E+02  0.79486727049E+03  0.79916913509E+03  0.10000000000E+01 0.  0.
    9000005    1    3    3    0    0 -0.46388613710E+02 -0.10836268651E+02  0.38263553835E+03  0.38559082381E+03  0.10000000000E+01 0.  0.
<mgrwt>
<rscale>  0 0.12287593E+03</rscale>
<asrwt>0</asrwt>
<pdfrwt beam="1">  1        2 0.33864122E+00 0.13093241E+03</pdfrwt>
<pdfrwt beam="2">  1       -2 0.94716436E-03 0.13093241E+03</pdfrwt>
<totfact> 0.13145612E+04</totfact>
</mgrwt>
</event>
<event>
 8    3  0.1559595E-003  0.1496478E+03  0.7818608E-02  0.1210895E+00
          2   -1    0    0  501    0  0.00000000000E+00  0.00000000000E+00  0.44726024052E+03  0.44726024053E+03  0.25500000000E-02 0. -1.
         -2   -1    0    0    0  501 -0.00000000000E+00 -0.00000000000E+00 -0.46797108837E+02  0.46797108906E+02  0.25500000000E-02 0.  1.
         25    2    1    2    0    0  0.44441342748E+02 -0.69242318240E+02  0.30648329045E+03  0.34106665201E+03  0.12499968883E+03 0.  0.
         23    2    1    2    0    0 -0.44441342748E+02  0.69242318240E+02  0.93979841232E+02  0.15299069742E+03  0.88342579539E+02 0.  0.
        -13    1    4    4    0    0  0.56477400054E+00 -0.84330769440E+01 -0.11632835806E+02  0.14379491971E+02  0.10566000000E+00 0.  1.
         13    1    4    4    0    0 -0.45006116749E+02  0.77675395184E+02  0.10561267704E+03  0.13861120545E+03  0.10566000000E+00 0. -1.
    9000005    1    3    3    0    0 -0.25823349487E+02 -0.11978321255E+02  0.19644078608E+03  0.19849510823E+03  0.10000000000E+01 0.  0.
    9000005    1    3    3    0    0  0.70264692236E+02 -0.57263996985E+02  0.11004250438E+03  0.14257154378E+03  0.10000000000E+01 0.  0.
<mgrwt>
<rscale>  0 0.14182403E+03</rscale>
<asrwt>0</asrwt>
<pdfrwt beam="1">  1        2 0.68809270E-01 0.14964777E+03</pdfrwt>
<pdfrwt beam="2">  1       -2 0.71995549E-02 0.14964777E+03</pdfrwt>
<totfact> 0.75649233E+03</totfact>
</mgrwt>
</event>
<event>
 8    3  0.1559595E-003  0.1424494E+03  0.7818608E-02  0.1220628E+00
          2   -1    0    0  501    0  0.00000000000E+00  0.00000000000E+00  0.22935965020E+04  0.22935965020E+04  0.25500000000E-02 0.  1.
         -2   -1    0    0    0  501 -0.00000000000E+00 -0.00000000000E+00 -0.72737666663E+01  0.72737671133E+01  0.25500000000E-02 0. -1.
         25    2    1    2    0    0 -0.75347447325E+00 -0.68314380025E+02  0.11282715182E+04  0.11372284073E+04  0.12499763724E+03 0.  0.
         23    2    1    2    0    0  0.75347447325E+00  0.68314380025E+02  0.11580512171E+04  0.11636418618E+04  0.91172028892E+02 0.  0.
        -13    1    4    4    0    0  0.19870024461E+02  0.13868099468E+02  0.70258159213E+02  0.74319325582E+02  0.10566000000E+00 0. -1.
         13    1    4    4    0    0 -0.19116549987E+02  0.54446280557E+02  0.10877930579E+04  0.10893225362E+04  0.10566000000E+00 0.  1.
    9000005    1    3    3    0    0 -0.76143490554E+01 -0.66434523632E+02  0.11280609726E+04  0.11300416285E+04  0.10000000000E+01 0.  0.
    9000005    1    3    3    0    0  0.68608745822E+01 -0.18798563930E+01  0.21054561658E+00  0.71867788019E+01  0.10000000000E+01 0.  0.
<mgrwt>
<rscale>  0 0.13471123E+03</rscale>
<asrwt>0</asrwt>
<pdfrwt beam="1">  1        2 0.35286147E+00 0.14244940E+03</pdfrwt>
<pdfrwt beam="2">  1       -2 0.11190396E-02 0.14244940E+03</pdfrwt>
<totfact> 0.92921147E+03</totfact>
</mgrwt>
</event>
<event>
 8    3  0.1559595E-003  0.1840608E+03  0.7818608E-02  0.1169300E+00
         -2   -1    0    0    0  501 -0.00000000000E+00  0.00000000000E+00  0.70391583810E+02  0.70391583856E+02  0.25500000000E-02 0.  1.
          2   -1    0    0  501    0  0.00000000000E+00 -0.00000000000E+00 -0.45904894292E+03  0.45904894293E+03  0.25500000000E-02 0. -1.
         25    2    1    2    0    0  0.51543049172E+02 -0.12489126878E+03 -0.27533724295E+03  0.33119323475E+03  0.12499538574E+03 0.  0.
         23    2    1    2    0    0 -0.51543049172E+02  0.12489126878E+03 -0.11332011616E+03  0.19824729203E+03  0.90587113510E+02 0.  0.
        -13    1    4    4    0    0 -0.55354438708E+02  0.12677562816E+03 -0.12461037839E+03  0.18618252159E+03  0.10566000000E+00 0. -1.
         13    1    4    4    0    0  0.38113895355E+01 -0.18843593747E+01  0.11290262231E+02  0.12064770438E+02  0.10566000000E+00 0.  1.
    9000005    1    3    3    0    0  0.57622207593E+02 -0.70679606384E+02 -0.25846677193E+03  0.27408392466E+03  0.10000000000E+01 0.  0.
    9000005    1    3    3    0    0 -0.60791584205E+01 -0.54211662396E+02 -0.16870471020E+02  0.57109310093E+02  0.10000000000E+01 0.  0.
<mgrwt>
<rscale>  0 0.17846199E+03</rscale>
<asrwt>0</asrwt>
<pdfrwt beam="2">  1        2 0.70622912E-01 0.18406075E+03</pdfrwt>
<pdfrwt beam="1">  1       -2 0.10829475E-01 0.18406075E+03</pdfrwt>
<totfact> 0.39244175E+03</totfact>
</mgrwt>
</event>
<event>
 8    3  0.1559595E-003  0.1664394E+03  0.7818608E-02  0.1188401E+00
          2   -1    0    0  501    0  0.00000000000E+00  0.00000000000E+00  0.81754741698E+03  0.81754741699E+03  0.25500000000E-02 0. -1.
         -2   -1    0    0    0  501 -0.00000000000E+00 -0.00000000000E+00 -0.29609054484E+02  0.29609054593E+02  0.25500000000E-02 0.  1.
         25    2    1    2    0    0  0.54292216806E+02  0.95554239075E+02  0.46694279162E+03  0.49571931937E+03  0.12499526208E+03 0.  0.
         23    2    1    2    0    0 -0.54292216806E+02 -0.95554239075E+02  0.32099557088E+03  0.35143715221E+03  0.91605993347E+02 0.  0.
        -13    1    4    4    0    0 -0.21391998252E+02  0.81326558883E+01  0.12680512372E+03  0.12885382512E+03  0.10566000000E+00 0. -1.
         13    1    4    4    0    0 -0.32900218554E+02 -0.10368689496E+03  0.19419044716E+03  0.22258332709E+03  0.10566000000E+00 0.  1.
    9000005    1    3    3    0    0  0.64439341107E+02  0.12054341152E+03  0.41860747914E+03  0.44035935818E+03  0.10000000000E+01 0.  0.
    9000005    1    3    3    0    0 -0.10147124302E+02 -0.24989172442E+02  0.48335312475E+02  0.55359961190E+02  0.10000000000E+01 0.  0.
<mgrwt>
<rscale>  0 0.16026239E+03</rscale>
<asrwt>0</asrwt>
<pdfrwt beam="1">  1        2 0.12577654E+00 0.16643940E+03</pdfrwt>
<pdfrwt beam="2">  1       -2 0.45552386E-02 0.16643940E+03</pdfrwt>
<totfact> 0.75920816E+03</totfact>
</mgrwt>
</event>
<event>
 8    3  0.1559595E-003  0.1353475E+03  0.7818608E-02  0.1232027E+00
          2   -1    0    0  501    0  0.00000000000E+00  0.00000000000E+00  0.17081183670E+04  0.17081183670E+04  0.25500000000E-02 0.  1.
         -2   -1    0    0    0  501 -0.00000000000E+00 -0.00000000000E+00 -0.98110975603E+01  0.98110978917E+01  0.25500000000E-02 0. -1.
         25    2    1    2    0    0 -0.46761810281E+02  0.22487095606E+02  0.62335889989E+03  0.63788341570E+03  0.12500639014E+03 0.  0.
         23    2    1    2    0    0  0.46761810281E+02 -0.22487095606E+02  0.10749483695E+04  0.10800460492E+04  0.91066650440E+02 0.  0.
        -13    1    4    4    0    0  0.16412093639E+02  0.25845392902E+02  0.71021271599E+03  0.71087231924E+03  0.10566000000E+00 0.  1.
         13    1    4    4    0    0  0.30349716642E+02 -0.48332488508E+02  0.36473565355E+03  0.36917372995E+03  0.10566000000E+00 0. -1.
    9000005    1    3    3    0    0 -0.44906655131E+02  0.29427149578E+02  0.62732347919E+03  0.62961759216E+03  0.10000000000E+01 0.  0.
    9000005    1    3    3    0    0 -0.18551551500E+01 -0.69400539721E+01 -0.39645793004E+01  0.82658235400E+01  0.10000000000E+01 0.  0.
<mgrwt>
<rscale>  0 0.12696672E+03</rscale>
<asrwt>0</asrwt>
<pdfrwt beam="1">  1        2 0.26278737E+00 0.13534746E+03</pdfrwt>
<pdfrwt beam="2">  1       -2 0.15094000E-02 0.13534746E+03</pdfrwt>
<totfact> 0.12062614E+04</totfact>
</mgrwt>
</event>
<event>
 8    3  0.1559595E-003  0.1280720E+03  0.7818608E-02  0.1244817E+00
         -2   -1    0    0    0  501 -0.00000000000E+00  0.00000000000E+00  0.18249034749E+02  0.18249034927E+02  0.25500000000E-02 0.  1.
          2   -1    0    0  501    0  0.00000000000E+00 -0.00000000000E+00 -0.69352052473E+03  0.69352052474E+03  0.25500000000E-02 0. -1.
         25    2    1    2    0    0  0.18359744388E+02 -0.20975376171E+02 -0.34469884956E+03  0.36772237270E+03  0.12500159950E+03 0.  0.
         23    2    1    2    0    0 -0.18359744388E+02  0.20975376171E+02 -0.33057264042E+03  0.34404718697E+03  0.91176475269E+02 0.  0.
        -13    1    4    4    0    0 -0.12562834341E+02 -0.16098607170E+02 -0.12873768759E+02  0.24139905667E+02  0.10566000000E+00 0.  1.
         13    1    4    4    0    0 -0.57969100468E+01  0.37073983341E+02 -0.31769887167E+03  0.31990728130E+03  0.10566000000E+00 0. -1.
    9000005    1    3    3    0    0 -0.44157492206E+01 -0.41247328090E+02 -0.33215546617E+03  0.33473735169E+03  0.10000000000E+01 0.  0.
    9000005    1    3    3    0    0  0.22775493608E+02  0.20271951920E+02 -0.12543383395E+02  0.32985021005E+02  0.10000000000E+01 0.  0.
<mgrwt>
<rscale>  0 0.11896313E+03</rscale>
<asrwt>0</asrwt>
<pdfrwt beam="2">  1        2 0.10669545E+00 0.12807204E+03</pdfrwt>
<pdfrwt beam="1">  1       -2 0.28075444E-02 0.12807204E+03</pdfrwt>
<totfact> 0.18699649E+04</totfact>
</mgrwt>
</event>
<event>
 8    3  0.1559595E-003  0.1276779E+03  0.7818608E-02  0.1246650E+00
          2   -1    0    0  501    0  0.00000000000E+00  0.00000000000E+00  0.28598250907E+04  0.28598250907E+04  0.25500000000E-02 0. -1.
         -2   -1    0    0    0  501 -0.00000000000E+00 -0.00000000000E+00 -0.49879620452E+01  0.49879626970E+01  0.25500000000E-02 0.  1.
         25    2    1    2    0    0 -0.98930416450E+01  0.24040659377E+02  0.21660779848E+04  0.21698376638E+04  0.12500330256E+03 0.  0.
         23    2    1    2    0    0  0.98930416450E+01 -0.24040659377E+02  0.68875914385E+03  0.69497538954E+03  0.89027008584E+02 0.  0.
        -13    1    4    4    0    0  0.39343224780E+01  0.22584898960E+02  0.56535859512E+02  0.61007139986E+02  0.10566000000E+00 0.  1.
         13    1    4    4    0    0  0.59587191670E+01 -0.46625558337E+02  0.63222328434E+03  0.63396824956E+03  0.10566000000E+00 0. -1.
    9000005    1    3    3    0    0  0.40386043911E+02  0.20946992292E+02  0.33615155386E+03  0.33921774157E+03  0.10000000000E+01 0.  0.
    9000005    1    3    3    0    0 -0.50279085556E+02  0.30936670851E+01  0.18299264309E+04  0.18306199223E+04  0.10000000000E+01 0.  0.
<mgrwt>
<rscale>  0 0.11787168E+03</rscale>
<asrwt>0</asrwt>
<pdfrwt beam="1">  1        2 0.43997325E+00 0.12767792E+03</pdfrwt>
<pdfrwt beam="2">  1       -2 0.76737855E-03 0.12767792E+03</pdfrwt>
<totfact> 0.78602595E+03</totfact>
</mgrwt>
</event>
<event>
 8    3  0.1559595E-003  0.1442881E+03  0.7818608E-02  0.1217887E+00
          2   -1    0    0  501    0  0.00000000000E+00  0.00000000000E+00  0.19466058735E+03  0.19466058737E+03  0.25500000000E-02 0. -1.
         -2   -1    0    0    0  501 -0.00000000000E+00 -0.00000000000E+00 -0.15723093116E+03  0.15723093118E+03  0.25500000000E-02 0.  1.
         25    2    1    2    0    0  0.63537994327E+02 -0.34052070257E+02  0.13696305223E+03  0.19894205255E+03  0.12498976912E+03 0.  0.
         23    2    1    2    0    0 -0.63537994327E+02  0.34052070257E+02 -0.99533396039E+02  0.15294946600E+03  0.91049557994E+02 0.  0.
        -13    1    4    4    0    0 -0.35230084994E+02 -0.10917112000E+02  0.34716449394E+01  0.37045994462E+02  0.10566000000E+00 0. -1.
         13    1    4    4    0    0 -0.28307909334E+02  0.44969182257E+02 -0.10300504098E+03  0.11590347154E+03  0.10566000000E+00 0.  1.
    9000005    1    3    3    0    0  0.89470481910E+02 -0.33985519056E+02  0.49591013182E+02  0.10779726911E+03  0.10000000000E+01 0.  0.
    9000005    1    3    3    0    0 -0.25932487583E+02 -0.66551201285E-01  0.87372039048E+02  0.91144783442E+02  0.10000000000E+01 0.  0.
<mgrwt>
<rscale>  0 0.13666614E+03</rscale>
<asrwt>0</asrwt>
<pdfrwt beam="1">  1        2 0.29947783E-01 0.14428812E+03</pdfrwt>
<pdfrwt beam="2">  1       -2 0.24189374E-01 0.14428812E+03</pdfrwt>
<totfact> 0.25729989E+03</totfact>
</mgrwt>
</event>
<event>
 8    3  0.1559595E-003  0.1719053E+03  0.7818608E-02  0.1182477E+00
          2   -1    0    0  501    0  0.00000000000E+00  0.00000000000E+00  0.67888721676E+03  0.67888721677E+03  0.25500000000E-02 0. -1.
         -2   -1    0    0    0  501 -0.00000000000E+00 -0.00000000000E+00 -0.37855312038E+02  0.37855312124E+02  0.25500000000E-02 0.  1.
         25    2    1    2    0    0  0.11779340000E+03 -0.70714260153E+01  0.32328014281E+03  0.36614407444E+03  0.12500456936E+03 0.  0.
         23    2    1    2    0    0 -0.11779340000E+03  0.70714260153E+01  0.31775176191E+03  0.35059845445E+03  0.89598012897E+02 0.  0.
        -13    1    4    4    0    0 -0.80890839585E+02 -0.38449954508E+02  0.19277178366E+03  0.21256222305E+03  0.10566000000E+00 0. -1.
         13    1    4    4    0    0 -0.36902560419E+02  0.45521380524E+02  0.12497997826E+03  0.13803623140E+03  0.10566000000E+00 0.  1.
    9000005    1    3    3    0    0 -0.20709777714E+02 -0.20920694327E+01  0.10881788875E+03  0.11079532734E+03  0.10000000000E+01 0.  0.
    9000005    1    3    3    0    0  0.13850317772E+03 -0.49793565826E+01  0.21446225406E+03  0.25534874710E+03  0.10000000000E+01 0.  0.
<mgrwt>
<rscale>  0 0.16563569E+03</rscale>
<asrwt>0</asrwt>
<pdfrwt beam="1">  1        2 0.10444419E+00 0.17190530E+03</pdfrwt>
<pdfrwt beam="2">  1       -2 0.58238939E-02 0.17190530E+03</pdfrwt>
<totfact> 0.65839301E+03</totfact>
</mgrwt>
</event>
<event>
 8    3  0.1559595E-003  0.1305466E+03  0.7818608E-02  0.1239467E+00
          2   -1    0    0  501    0  0.00000000000E+00  0.00000000000E+00  0.76917387595E+03  0.76917387595E+03  0.25500000000E-02 0.  1.
         -2   -1    0    0    0  501 -0.00000000000E+00 -0.00000000000E+00 -0.19460978080E+02  0.19460978247E+02  0.25500000000E-02 0. -1.
         25    2    1    2    0    0 -0.10440749597E+02  0.36179422195E+02  0.54824040107E+03  0.56356893546E+03  0.12499779122E+03 0.  0.
         23    2    1    2    0    0  0.10440749597E+02 -0.36179422195E+02  0.20147249680E+03  0.22506591874E+03  0.92981401197E+02 0.  0.
        -13    1    4    4    0    0  0.38284666205E+02  0.12839662418E+02  0.55906849564E+02  0.68964915643E+02  0.10566000000E+00 0. -1.
         13    1    4    4    0    0 -0.27843916608E+02 -0.49019084613E+02  0.14556564723E+03  0.15610100309E+03  0.10566000000E+00 0.  1.
    9000005    1    3    3    0    0  0.11369852083E+02  0.73152407394E+01  0.51258387231E+03  0.51276311532E+03  0.10000000000E+01 0.  0.
    9000005    1    3    3    0    0 -0.21810601680E+02  0.28864181456E+02  0.35656528758E+02  0.50805820137E+02  0.10000000000E+01 0.  0.
<mgrwt>
<rscale>  0 0.12222717E+03</rscale>
<asrwt>0</asrwt>
<pdfrwt beam="1">  1        2 0.11833445E+00 0.13054657E+03</pdfrwt>
<pdfrwt beam="2">  1       -2 0.29939964E-02 0.13054657E+03</pdfrwt>
<totfact> 0.15049320E+04</totfact>
</mgrwt>
</event>
<event>
 8    3  0.1559595E-003  0.1886656E+03  0.7818608E-02  0.1164566E+00
          2   -1    0    0  501    0  0.00000000000E+00  0.00000000000E+00  0.83942024366E+03  0.83942024367E+03  0.25500000000E-02 0. -1.
         -2   -1    0    0    0  501 -0.00000000000E+00 -0.00000000000E+00 -0.38739683839E+02  0.38739683923E+02  0.25500000000E-02 0.  1.
         25    2    1    2    0    0  0.98980929397E+02 -0.10084892051E+03  0.48418831488E+03  0.51964702401E+03  0.12500790432E+03 0.  0.
         23    2    1    2    0    0 -0.98980929397E+02  0.10084892051E+03  0.31649224494E+03  0.35851290358E+03  0.91632045552E+02 0.  0.
        -13    1    4    4    0    0 -0.32282700850E+02  0.86764500317E+02  0.12721259281E+03  0.15733183474E+03  0.10566000000E+00 0.  1.
         13    1    4    4    0    0 -0.66698228548E+02  0.14084420191E+02  0.18927965213E+03  0.20118106884E+03  0.10566000000E+00 0. -1.
    9000005    1    3    3    0    0  0.11926852882E+03 -0.10881899771E+03  0.45762282681E+03  0.48526921173E+03  0.10000000000E+01 0.  0.
    9000005    1    3    3    0    0 -0.20287599422E+02  0.79700772068E+01  0.26565488066E+02  0.34377812281E+02  0.10000000000E+01 0.  0.
<mgrwt>
<rscale>  0 0.18338583E+03</rscale>
<asrwt>0</asrwt>
<pdfrwt beam="1">  1        2 0.12914156E+00 0.18866559E+03</pdfrwt>
<pdfrwt beam="2">  1       -2 0.59599521E-02 0.18866559E+03</pdfrwt>
<totfact> 0.49114020E+03</totfact>
</mgrwt>
</event>
<event>
 8    3  0.1559595E-003  0.1542708E+03  0.7818608E-02  0.1203793E+00
          2   -1    0    0  501    0  0.00000000000E+00  0.00000000000E+00  0.28823022255E+03  0.28823022256E+03  0.25500000000E-02 0. -1.
         -2   -1    0    0    0  501 -0.00000000000E+00 -0.00000000000E+00 -0.86265012838E+02  0.86265012876E+02  0.25500000000E-02 0.  1.
         25    2    1    2    0    0 -0.60674277782E+02 -0.67033521868E+02  0.19126363969E+03  0.24572600250E+03  0.12499850958E+03 0.  0.
         23    2    1    2    0    0  0.60674277782E+02  0.67033521868E+02  0.10701570025E+02  0.12876923294E+03  0.91061137226E+02 0.  0.
        -13    1    4    4    0    0  0.50507134269E+02  0.41514928559E+02 -0.35964515584E+02  0.74618479283E+02  0.10566000000E+00 0.  1.
         13    1    4    4    0    0  0.10167143513E+02  0.25518593309E+02  0.46666085608E+02  0.54150753658E+02  0.10566000000E+00 0. -1.
    9000005    1    3    3    0    0 -0.54469926535E+02  0.23041107506E+02  0.10679357140E+03  0.12208084381E+03  0.10000000000E+01 0.  0.
    9000005    1    3    3    0    0 -0.62043512469E+01 -0.90074629373E+02  0.84470068286E+02  0.12364515869E+03  0.10000000000E+01 0.  0.
<mgrwt>
<rscale>  0 0.14732948E+03</rscale>
<asrwt>0</asrwt>
<pdfrwt beam="1">  1        2 0.44343111E-01 0.15427083E+03</pdfrwt>
<pdfrwt beam="2">  1       -2 0.13271540E-01 0.15427083E+03</pdfrwt>
<totfact> 0.46295831E+03</totfact>
</mgrwt>
</event>
<event>
 8    3  0.1559595E-003  0.1641528E+03  0.7818608E-02  0.1190903E+00
          2   -1    0    0  501    0  0.00000000000E+00  0.00000000000E+00  0.80915757177E+03  0.80915757177E+03  0.25500000000E-02 0. -1.
         -2   -1    0    0    0  501 -0.00000000000E+00 -0.00000000000E+00 -0.48837519937E+02  0.48837520003E+02  0.25500000000E-02 0.  1.
         25    2    1    2    0    0 -0.31502298931E+02  0.10163083548E+03  0.12268740655E+03  0.20493494101E+03  0.12499963504E+03 0.  0.
         23    2    1    2    0    0  0.31502298931E+02 -0.10163083548E+03  0.63763264528E+03  0.65306015077E+03  0.92687370452E+02 0.  0.
        -13    1    4    4    0    0  0.47792835118E+02 -0.66333613300E+02  0.56304102016E+03  0.56894595955E+03  0.10566000000E+00 0. -1.
         13    1    4    4    0    0 -0.16290536186E+02 -0.35297222178E+02  0.74591625122E+02  0.84114191223E+02  0.10566000000E+00 0.  1.
    9000005    1    3    3    0    0 -0.28668075906E+02 -0.82197537945E+01 -0.11067620141E+02  0.31826327846E+02  0.10000000000E+01 0.  0.
    9000005    1    3    3    0    0 -0.28342230257E+01  0.10985058927E+03  0.13375502669E+03  0.17310861316E+03  0.10000000000E+01 0.  0.
<mgrwt>
<rscale>  0 0.15806146E+03</rscale>
<asrwt>0</asrwt>
<pdfrwt beam="1">  1        2 0.12448580E+00 0.16415277E+03</pdfrwt>
<pdfrwt beam="2">  1       -2 0.75134636E-02 0.16415277E+03</pdfrwt>
<totfact> 0.35889837E+03</totfact>
</mgrwt>
</event>
<event>
 8    3  0.1559595E-003  0.3560181E+03  0.7818608E-02  0.1061254E+00
          2   -1    0    0  501    0  0.00000000000E+00  0.00000000000E+00  0.12970077529E+04  0.12970077529E+04  0.25500000000E-02 0. -1.
         -2   -1    0    0    0  501 -0.00000000000E+00 -0.00000000000E+00 -0.97012729085E+02  0.97012729118E+02  0.25500000000E-02 0.  1.
         25    2    1    2    0    0 -0.20665278996E+03  0.26157007447E+03  0.71327533835E+03  0.79718919779E+03  0.12499851725E+03 0.  0.
         23    2    1    2    0    0  0.20665278996E+03 -0.26157007447E+03  0.48671968547E+03  0.59683128424E+03  0.90483424827E+02 0.  0.
        -13    1    4    4    0    0  0.16268233767E+02 -0.64558158958E+02  0.59378467697E+02  0.89208883572E+02  0.10566000000E+00 0.  1.
         13    1    4    4    0    0  0.19038455619E+03 -0.19701191551E+03  0.42734121777E+03  0.50762240066E+03  0.10566000000E+00 0. -1.
    9000005    1    3    3    0    0 -0.14831939604E+03  0.17151195769E+03  0.59875346579E+03  0.64025128478E+03  0.10000000000E+01 0.  0.
    9000005    1    3    3    0    0 -0.58333393916E+02  0.90058116775E+02  0.11452187256E+03  0.15693791301E+03  0.10000000000E+01 0.  0.
<mgrwt>
<rscale>  0 0.35333722E+03</rscale>
<asrwt>0</asrwt>
<pdfrwt beam="1">  1        2 0.19953965E+00 0.35601813E+03</pdfrwt>
<pdfrwt beam="2">  1       -2 0.14925035E-01 0.35601813E+03</pdfrwt>
<totfact> 0.60568320E+02</totfact>
</mgrwt>
</event>
<event>
 8    3  0.1559595E-003  0.1346261E+03  0.7818608E-02  0.1231731E+00
         -2   -1    0    0    0  501 -0.00000000000E+00  0.00000000000E+00  0.59288573212E+02  0.59288573267E+02  0.25500000000E-02 0.  1.
          2   -1    0    0  501    0  0.00000000000E+00 -0.00000000000E+00 -0.24651966922E+03  0.24651966923E+03  0.25500000000E-02 0. -1.
         25    2    1    2    0    0 -0.28402562659E+02 -0.41208855350E+02 -0.10295560419E+03  0.16948167769E+03  0.12497722718E+03 0.  0.
         23    2    1    2    0    0  0.28402562659E+02  0.41208855350E+02 -0.84275491815E+02  0.13632656481E+03  0.94750717286E+02 0.  0.
        -13    1    4    4    0    0 -0.72370945484E+01  0.42171077094E+02  0.21441671327E+01  0.42841380668E+02  0.10566000000E+00 0.  1.
         13    1    4    4    0    0  0.35639657208E+02 -0.96222174391E+00 -0.86419658948E+02  0.93485184138E+02  0.10566000000E+00 0. -1.
    9000005    1    3    3    0    0 -0.64923480599E+02  0.13552177560E+02 -0.35520691146E+02  0.75242536834E+02  0.10000000000E+01 0.  0.
    9000005    1    3    3    0    0  0.36520917940E+02 -0.54761032910E+02 -0.67434913048E+02  0.94239140861E+02  0.10000000000E+01 0.  0.
<mgrwt>
<rscale>  0 0.12716038E+03</rscale>
<asrwt>0</asrwt>
<pdfrwt beam="2">  1        2 0.37926102E-01 0.13462608E+03</pdfrwt>
<pdfrwt beam="1">  1       -2 0.91213191E-02 0.13462608E+03</pdfrwt>
<totfact> 0.98278377E+03</totfact>
</mgrwt>
</event>
<event>
 8    3  0.1559595E-003  0.1585301E+03  0.7818608E-02  0.1198054E+00
          2   -1    0    0  501    0  0.00000000000E+00  0.00000000000E+00  0.77182010760E+03  0.77182010760E+03  0.25500000000E-02 0. -1.
         -2   -1    0    0    0  501 -0.00000000000E+00 -0.00000000000E+00 -0.29518619019E+02  0.29518619130E+02  0.25500000000E-02 0.  1.
         25    2    1    2    0    0  0.20534794374E+02  0.95306408508E+02  0.49944874525E+03  0.52400462304E+03  0.12500722600E+03 0.  0.
         23    2    1    2    0    0 -0.20534794374E+02 -0.95306408508E+02  0.24285274333E+03  0.27733410370E+03  0.91824620048E+02 0.  0.
        -13    1    4    4    0    0  0.34880839000E+02 -0.31745820131E+02  0.11365034673E+03  0.12304829336E+03  0.10566000000E+00 0.  1.
         13    1    4    4    0    0 -0.55415633374E+02 -0.63560588377E+02  0.12920239661E+03  0.15428581033E+03  0.10566000000E+00 0. -1.
    9000005    1    3    3    0    0 -0.56292372291E+01 -0.29988506110E+02  0.96159684726E+02  0.10088946316E+03  0.10000000000E+01 0.  0.
    9000005    1    3    3    0    0  0.26164031603E+02  0.12529491462E+03  0.40328906052E+03  0.42311515987E+03  0.10000000000E+01 0.  0.
<mgrwt>
<rscale>  0 0.15198537E+03</rscale>
<asrwt>0</asrwt>
<pdfrwt beam="1">  1        2 0.11874154E+00 0.15853011E+03</pdfrwt>
<pdfrwt beam="2">  1       -2 0.45413266E-02 0.15853011E+03</pdfrwt>
<totfact> 0.81759953E+03</totfact>
</mgrwt>
</event>
<event>
 8    3  0.1559595E-003  0.1735116E+03  0.7818608E-02  0.1180687E+00
         -2   -1    0    0    0  501 -0.00000000000E+00  0.00000000000E+00  0.19554736707E+03  0.19554736709E+03  0.25500000000E-02 0.  1.
          2   -1    0    0  501    0  0.00000000000E+00 -0.00000000000E+00 -0.13461000703E+03  0.13461000706E+03  0.25500000000E-02 0. -1.
         25    2    1    2    0    0  0.63411782763E+02  0.10226512781E+03  0.45497224994E+02  0.17937749897E+03  0.12500831611E+03 0.  0.
         23    2    1    2    0    0 -0.63411782763E+02 -0.10226512781E+03  0.15440135045E+02  0.15077987517E+03  0.89537491746E+02 0.  0.
        -13    1    4    4    0    0  0.19744519627E+02 -0.32764739217E+01  0.70729107351E+01  0.21227778192E+02  0.10566000000E+00 0.  1.
         13    1    4    4    0    0 -0.83156302390E+02 -0.98988653885E+02  0.83672243094E+01  0.12955209698E+03  0.10566000000E+00 0. -1.
    9000005    1    3    3    0    0 -0.11464873060E+02 -0.23336580034E+02  0.14887156981E+02  0.29977770513E+02  0.10000000000E+01 0.  0.
    9000005    1    3    3    0    0  0.74876655824E+02  0.12560170784E+03  0.30610068013E+02  0.14939972846E+03  0.10000000000E+01 0.  0.
<mgrwt>
<rscale>  0 0.16730543E+03</rscale>
<asrwt>0</asrwt>
<pdfrwt beam="2">  1        2 0.20709232E-01 0.17351164E+03</pdfrwt>
<pdfrwt beam="1">  1       -2 0.30084210E-01 0.17351164E+03</pdfrwt>
<totfact> 0.26527726E+03</totfact>
</mgrwt>
</event>
<event>
 8    3  0.1559595E-003  0.1373709E+03  0.7818608E-02  0.1228508E+00
          2   -1    0    0  501    0  0.00000000000E+00  0.00000000000E+00  0.20972173516E+04  0.20972173516E+04  0.25500000000E-02 0. -1.
         -2   -1    0    0    0  501 -0.00000000000E+00 -0.00000000000E+00 -0.72139056457E+01  0.72139060964E+01  0.25500000000E-02 0.  1.
         25    2    1    2    0    0 -0.29612071288E+02 -0.48671551027E+02  0.10844418624E+04  0.10931079194E+04  0.12499990287E+03 0.  0.
         23    2    1    2    0    0  0.29612071288E+02  0.48671551027E+02  0.10055615835E+04  0.10113233384E+04  0.91515035785E+02 0.  0.
        -13    1    4    4    0    0 -0.21318864625E+02  0.38863162570E+02  0.69908244556E+03  0.70048634266E+03  0.10566000000E+00 0. -1.
         13    1    4    4    0    0  0.50930935913E+02  0.98083884564E+01  0.30647913799E+03  0.31083699571E+03  0.10566000000E+00 0.  1.
    9000005    1    3    3    0    0  0.22287241139E+02 -0.68943662249E+02  0.40887969327E+03  0.41525119295E+03  0.10000000000E+01 0.  0.
    9000005    1    3    3    0    0 -0.51899312427E+02  0.20272111222E+02  0.67556216917E+03  0.67785672641E+03  0.10000000000E+01 0.  0.
<mgrwt>
<rscale>  0 0.12929317E+03</rscale>
<asrwt>0</asrwt>
<pdfrwt beam="1">  1        2 0.32264912E+00 0.13737092E+03</pdfrwt>
<pdfrwt beam="2">  1       -2 0.11098306E-02 0.13737092E+03</pdfrwt>
<totfact> 0.11874580E+04</totfact>
</mgrwt>
</event>
<event>
 8    3  0.1559595E-003  0.1414051E+03  0.7818608E-02  0.1223379E+00
          2   -1    0    0  501    0  0.00000000000E+00  0.00000000000E+00  0.41402199715E+03  0.41402199716E+03  0.25500000000E-02 0. -1.
         -2   -1    0    0    0  501 -0.00000000000E+00 -0.00000000000E+00 -0.38709701245E+02  0.38709701329E+02  0.25500000000E-02 0.  1.
         25    2    1    2    0    0  0.49730858526E+02  0.43551617933E+02  0.23777611985E+03  0.27664578109E+03  0.12500201324E+03 0.  0.
         23    2    1    2    0    0 -0.49730858526E+02 -0.43551617933E+02  0.13753617606E+03  0.17608591739E+03  0.87864377683E+02 0.  0.
        -13    1    4    4    0    0  0.21519953237E+02 -0.30027610692E+02  0.54461261821E+02  0.65808859543E+02  0.10566000000E+00 0. -1.
         13    1    4    4    0    0 -0.71250811763E+02 -0.13524007240E+02  0.83074914236E+02  0.11027705785E+03  0.10566000000E+00 0.  1.
    9000005    1    3    3    0    0 -0.13664017948E+02 -0.23854220023E+02  0.13737968527E+03  0.14010677044E+03  0.10000000000E+01 0.  0.
    9000005    1    3    3    0    0  0.63394876474E+02  0.67405837956E+02  0.10039643458E+03  0.13653901065E+03  0.10000000000E+01 0.  0.
<mgrwt>
<rscale>  0 0.13278602E+03</rscale>
<asrwt>0</asrwt>
<pdfrwt beam="1">  1        2 0.63695687E-01 0.14140511E+03</pdfrwt>
<pdfrwt beam="2">  1       -2 0.59553391E-02 0.14140511E+03</pdfrwt>
<totfact> 0.10943721E+04</totfact>
</mgrwt>
</event>
<event>
 8    3  0.1559595E-003  0.1296816E+03  0.7818608E-02  0.1249949E+00
          2   -1    0    0  501    0  0.00000000000E+00  0.00000000000E+00  0.18873902352E+04  0.18873902352E+04  0.25500000000E-02 0. -1.
         -2   -1    0    0    0  501 -0.00000000000E+00 -0.00000000000E+00 -0.66924642193E+01  0.66924647051E+01  0.25500000000E-02 0.  1.
         25    2    1    2    0    0  0.27583426179E+02 -0.20785427793E+02  0.14271248402E+04  0.14330047547E+04  0.12499775257E+03 0.  0.
         23    2    1    2    0    0 -0.27583426179E+02  0.20785427793E+02  0.45357293077E+03  0.46107794517E+03  0.75309950110E+02 0.  0.
        -13    1    4    4    0    0 -0.39937868360E+02  0.23045451267E+02  0.44065396593E+03  0.44305987745E+03  0.10566000000E+00 0. -1.
         13    1    4    4    0    0  0.12354442181E+02 -0.22600234737E+01  0.12918964841E+02  0.18018067719E+02  0.10566000000E+00 0.  1.
    9000005    1    3    3    0    0  0.45430916155E+02 -0.59195439676E+02  0.11731034495E+04  0.11754747005E+04  0.10000000000E+01 0.  0.
    9000005    1    3    3    0    0 -0.17847489976E+02  0.38410011882E+02  0.25402139066E+03  0.25753005422E+03  0.10000000000E+01 0.  0.
<mgrwt>
<rscale>  0 0.11594036E+03</rscale>
<asrwt>0</asrwt>
<pdfrwt beam="1">  1        2 0.29036781E+00 0.12968160E+03</pdfrwt>
<pdfrwt beam="2">  1       -2 0.10296096E-02 0.12968160E+03</pdfrwt>
<totfact> 0.16888703E+04</totfact>
</mgrwt>
</event>
<event>
 8    3  0.1559595E-003  0.1528107E+03  0.7818608E-02  0.1205733E+00
         -2   -1    0    0    0  501 -0.00000000000E+00  0.00000000000E+00  0.55232886097E+02  0.55232886156E+02  0.25500000000E-02 0.  1.
          2   -1    0    0  501    0  0.00000000000E+00 -0.00000000000E+00 -0.35362127842E+03  0.35362127842E+03  0.25500000000E-02 0. -1.
         25    2    1    2    0    0 -0.98915734869E+01 -0.87346048828E+02 -0.15875265176E+03  0.22034858945E+03  0.12499568377E+03 0.  0.
         23    2    1    2    0    0  0.98915734869E+01  0.87346048828E+02 -0.13963574056E+03  0.18850557513E+03  0.91153915659E+02 0.  0.
        -13    1    4    4    0    0  0.42043507666E+02  0.37545526790E+02 -0.10674628529E+03  0.12071496885E+03  0.10566000000E+00 0.  1.
         13    1    4    4    0    0 -0.32151934179E+02  0.49800522038E+02 -0.32889455276E+02  0.67790606275E+02  0.10566000000E+00 0. -1.
    9000005    1    3    3    0    0  0.10201983477E+02  0.28013612752E+02 -0.10942700828E+02  0.31773977839E+02  0.10000000000E+01 0.  0.
    9000005    1    3    3    0    0 -0.20093556964E+02 -0.11535966158E+03 -0.14780995093E+03  0.18857461161E+03  0.10000000000E+01 0.  0.
<mgrwt>
<rscale>  0 0.14579847E+03</rscale>
<asrwt>0</asrwt>
<pdfrwt beam="2">  1        2 0.54403272E-01 0.15281066E+03</pdfrwt>
<pdfrwt beam="1">  1       -2 0.84973673E-02 0.15281066E+03</pdfrwt>
<totfact> 0.75445289E+03</totfact>
</mgrwt>
</event>
<event>
 8    3  0.1559595E-003  0.1466288E+03  0.7818608E-02  0.1214166E+00
         -2   -1    0    0    0  501 -0.00000000000E+00  0.00000000000E+00  0.24770820339E+02  0.24770820470E+02  0.25500000000E-02 0. -1.
          2   -1    0    0  501    0  0.00000000000E+00 -0.00000000000E+00 -0.72280243426E+03  0.72280243426E+03  0.25500000000E-02 0.  1.
         25    2    1    2    0    0 -0.64043616942E+02 -0.42106534410E+02 -0.42016406778E+03  0.44501443827E+03  0.12500184523E+03 0.  0.
         23    2    1    2    0    0  0.64043616942E+02  0.42106534410E+02 -0.27786754614E+03  0.30255881646E+03  0.91961508831E+02 0.  0.
        -13    1    4    4    0    0  0.39218674301E+02  0.69858677054E+02 -0.15978319643E+03  0.17874288853E+03  0.10566000000E+00 0.  1.
         13    1    4    4    0    0  0.24824942641E+02 -0.27752142644E+02 -0.11808434971E+03  0.12381592793E+03  0.10566000000E+00 0. -1.
    9000005    1    3    3    0    0 -0.68539161806E+02  0.29650296829E+02 -0.21925690271E+03  0.23162760239E+03  0.10000000000E+01 0.  0.
    9000005    1    3    3    0    0  0.44955448643E+01 -0.71756831239E+02 -0.20090716507E+03  0.21338683589E+03  0.10000000000E+01 0.  0.
<mgrwt>
<rscale>  0 0.13938011E+03</rscale>
<asrwt>0</asrwt>
<pdfrwt beam="2">  1        2 0.11120036E+00 0.14662880E+03</pdfrwt>
<pdfrwt beam="1">  1       -2 0.38108960E-02 0.14662880E+03</pdfrwt>
<totfact> 0.11454432E+04</totfact>
</mgrwt>
</event>
<event>
 8    3  0.1559595E-003  0.1552846E+03  0.7818608E-02  0.1201934E+00
          2   -1    0    0  501    0  0.00000000000E+00  0.00000000000E+00  0.10147524482E+03  0.10147524485E+03  0.25500000000E-02 0.  1.
         -2   -1    0    0    0  501 -0.00000000000E+00 -0.00000000000E+00 -0.20367987204E+03  0.20367987205E+03  0.25500000000E-02 0. -1.
         25    2    1    2    0    0 -0.40445439643E+02  0.82782729419E+02 -0.69622615770E+02  0.17017818092E+03  0.12499796302E+03 0.  0.
         23    2    1    2    0    0  0.40445439643E+02 -0.82782729419E+02 -0.32582011449E+02  0.13497693597E+03  0.93104091731E+02 0.  0.
        -13    1    4    4    0    0  0.61203222546E+02 -0.46313910266E+02  0.72836341072E+01  0.77096531854E+02  0.10566000000E+00 0.  1.
         13    1    4    4    0    0 -0.20757782903E+02 -0.36468819153E+02 -0.39865645556E+02  0.57880404120E+02  0.10566000000E+00 0. -1.
    9000005    1    3    3    0    0 -0.15246234679E+01  0.81325273007E+02  0.95835600283E+01  0.81908297072E+02  0.10000000000E+01 0.  0.
    9000005    1    3    3    0    0 -0.38920816175E+02  0.14574564123E+01 -0.79206175798E+02  0.88269883853E+02  0.10000000000E+01 0.  0.
<mgrwt>
<rscale>  0 0.14881682E+03</rscale>
<asrwt>0</asrwt>
<pdfrwt beam="1">  1        2 0.15611576E-01 0.15528459E+03</pdfrwt>
<pdfrwt beam="2">  1       -2 0.31335365E-01 0.15528459E+03</pdfrwt>
<totfact> 0.33928884E+03</totfact>
</mgrwt>
</event>
<event>
 8    3  0.1559595E-003  0.1667390E+03  0.7818608E-02  0.1188359E+00
          2   -1    0    0  501    0  0.00000000000E+00  0.00000000000E+00  0.78871734633E+03  0.78871734634E+03  0.25500000000E-02 0. -1.
         -2   -1    0    0    0  501 -0.00000000000E+00 -0.00000000000E+00 -0.41182536723E+02  0.41182536802E+02  0.25500000000E-02 0.  1.
         25    2    1    2    0    0  0.41070670487E+02 -0.10242642378E+03  0.60821815547E+03  0.63065935970E+03  0.12499572421E+03 0.  0.
         23    2    1    2    0    0 -0.41070670487E+02  0.10242642378E+03  0.13931665414E+03  0.19924052344E+03  0.90053782812E+02 0.  0.
        -13    1    4    4    0    0 -0.48584920089E+02  0.88981490674E+02  0.58665538807E+02  0.11713179223E+03  0.10566000000E+00 0.  1.
         13    1    4    4    0    0  0.75142496020E+01  0.13444933102E+02  0.80651115335E+02  0.82108731217E+02  0.10566000000E+00 0. -1.
    9000005    1    3    3    0    0  0.14330163941E+02 -0.89482236908E+02  0.18112665498E+03  0.20253466238E+03  0.10000000000E+01 0.  0.
    9000005    1    3    3    0    0  0.26740506546E+02 -0.12944186867E+02  0.42709150049E+03  0.42812469732E+03  0.10000000000E+01 0.  0.
<mgrwt>
<rscale>  0 0.16029941E+03</rscale>
<asrwt>0</asrwt>
<pdfrwt beam="1">  1        2 0.12134113E+00 0.16673903E+03</pdfrwt>
<pdfrwt beam="2">  1       -2 0.63357749E-02 0.16673903E+03</pdfrwt>
<totfact> 0.48184609E+03</totfact>
</mgrwt>
</event>
<event>
 8    3  0.1559595E-003  0.1583043E+03  0.7818608E-02  0.1198704E+00
          2   -1    0    0  501    0  0.00000000000E+00  0.00000000000E+00  0.37029119253E+02  0.37029119341E+02  0.25500000000E-02 0. -1.
         -2   -1    0    0    0  501 -0.00000000000E+00 -0.00000000000E+00 -0.58421049608E+03  0.58421049609E+03  0.25500000000E-02 0.  1.
         25    2    1    2    0    0 -0.52042796362E+02  0.82026234327E+02 -0.34306236991E+03  0.37782542852E+03  0.12499403593E+03 0.  0.
         23    2    1    2    0    0  0.52042796362E+02 -0.82026234327E+02 -0.20411900691E+03  0.24341418690E+03  0.90272596237E+02 0.  0.
        -13    1    4    4    0    0  0.36181759489E+02 -0.84078313110E+02 -0.90652773473E+02  0.12882631314E+03  0.10566000000E+00 0. -1.
         13    1    4    4    0    0  0.15861036873E+02  0.20520787838E+01 -0.11346623344E+03  0.11458787376E+03  0.10566000000E+00 0.  1.
    9000005    1    3    3    0    0  0.34474508868E+02  0.21790960676E+02 -0.40767408868E+02  0.57674252094E+02  0.10000000000E+01 0.  0.
    9000005    1    3    3    0    0 -0.86517305230E+02  0.60235273651E+02 -0.30229496105E+03  0.32015117643E+03  0.10000000000E+01 0.  0.
<mgrwt>
<rscale>  0 0.15144857E+03</rscale>
<asrwt>0</asrwt>
<pdfrwt beam="1">  1        2 0.56967880E-02 0.15830434E+03</pdfrwt>
<pdfrwt beam="2">  1       -2 0.89878531E-01 0.15830434E+03</pdfrwt>
<totfact> 0.14135951E+03</totfact>
</mgrwt>
</event>
<event>
 8    3  0.1559595E-003  0.1616317E+03  0.7818608E-02  0.1193918E+00
         -2   -1    0    0    0  501 -0.00000000000E+00  0.00000000000E+00  0.23795905308E+02  0.23795905444E+02  0.25500000000E-02 0.  1.
          2   -1    0    0  501    0  0.00000000000E+00 -0.00000000000E+00 -0.10384951581E+04  0.10384951581E+04  0.25500000000E-02 0. -1.
         25    2    1    2    0    0 -0.87429261800E+02  0.53442900334E+02 -0.38453789673E+03  0.41712613932E+03  0.12499921067E+03 0.  0.
         23    2    1    2    0    0  0.87429261800E+02 -0.53442900334E+02 -0.63016135610E+03  0.64516492427E+03  0.92921608709E+02 0.  0.
        -13    1    4    4    0    0  0.66532047402E+02  0.13657435069E+02 -0.29579984320E+03  0.30349727720E+03  0.10566000000E+00 0. -1.
         13    1    4    4    0    0  0.20897214397E+02 -0.67100335403E+02 -0.33436151290E+03  0.34166764707E+03  0.10566000000E+00 0.  1.
    9000005    1    3    3    0    0  0.72031890887E+01  0.29020783475E+02 -0.24467179078E+03  0.24649417236E+03  0.10000000000E+01 0.  0.
    9000005    1    3    3    0    0 -0.94632450888E+02  0.24422116859E+02 -0.13986610595E+03  0.17063196695E+03  0.10000000000E+01 0.  0.
<mgrwt>
<rscale>  0 0.15546119E+03</rscale>
<asrwt>0</asrwt>
<pdfrwt beam="2">  1        2 0.15976845E+00 0.16163175E+03</pdfrwt>
<pdfrwt beam="1">  1       -2 0.36609093E-02 0.16163175E+03</pdfrwt>
<totfact> 0.76384736E+03</totfact>
</mgrwt>
</event>
<event>
 8    3  0.1559595E-003  0.1950573E+03  0.7818608E-02  0.1162222E+00
          2   -1    0    0  501    0  0.00000000000E+00  0.00000000000E+00  0.77848107581E+03  0.77848107581E+03  0.25500000000E-02 0.  1.
         -2   -1    0    0    0  501 -0.00000000000E+00 -0.00000000000E+00 -0.41415782970E+02  0.41415783048E+02  0.25500000000E-02 0. -1.
         25    2    1    2    0    0  0.62203640191E+02  0.13620761804E+03  0.34918921235E+03  0.39997555990E+03  0.12500213771E+03 0.  0.
         23    2    1    2    0    0 -0.62203640191E+02 -0.13620761804E+03  0.38787608049E+03  0.41992129896E+03  0.58857756003E+02 0.  0.
        -13    1    4    4    0    0 -0.37922690888E+01 -0.73920099092E+02  0.20872455343E+03  0.22145995738E+03  0.10566000000E+00 0.  1.
         13    1    4    4    0    0 -0.58411371102E+02 -0.62287518944E+02  0.17915152706E+03  0.19846134158E+03  0.10566000000E+00 0. -1.
    9000005    1    3    3    0    0 -0.18620825581E+02 -0.96288383593E+01  0.12940881533E+02  0.24655954419E+02  0.10000000000E+01 0.  0.
    9000005    1    3    3    0    0  0.80824465772E+02  0.14583645640E+03  0.33624833082E+03  0.37531960548E+03  0.10000000000E+01 0.  0.
<mgrwt>
<rscale>  0 0.18588949E+03</rscale>
<asrwt>0</asrwt>
<pdfrwt beam="1">  1        2 0.11976631E+00 0.19505728E+03</pdfrwt>
<pdfrwt beam="2">  1       -2 0.63716593E-02 0.19505728E+03</pdfrwt>
<totfact> 0.48839617E+03</totfact>
</mgrwt>
</event>
<event>
 8    3  0.1559595E-003  0.2211309E+03  0.7818608E-02  0.1136405E+00
         -2   -1    0    0    0  501 -0.00000000000E+00  0.00000000000E+00  0.27725942505E+02  0.27725942623E+02  0.25500000000E-02 0.  1.
          2   -1    0    0  501    0  0.00000000000E+00 -0.00000000000E+00 -0.17170322904E+04  0.17170322904E+04  0.25500000000E-02 0. -1.
         25    2    1    2    0    0 -0.18195761774E+03 -0.12874699460E+02 -0.10761823174E+04  0.10986661344E+04  0.12499824785E+03 0.  0.
         23    2    1    2    0    0  0.18195761774E+03  0.12874699460E+02 -0.61312403047E+03  0.64609209864E+03  0.90772190923E+02 0.  0.
        -13    1    4    4    0    0  0.15251534849E+03  0.41839834876E+02 -0.42459654460E+03  0.45309352253E+03  0.10566000000E+00 0.  1.
         13    1    4    4    0    0  0.29442269250E+02 -0.28965135415E+02 -0.18852748587E+03  0.19299857611E+03  0.10566000000E+00 0. -1.
    9000005    1    3    3    0    0 -0.56761847530E+02 -0.44454621887E+02 -0.19176554731E+03  0.20487348750E+03  0.10000000000E+01 0.  0.
    9000005    1    3    3    0    0 -0.12519577021E+03  0.31579922427E+02 -0.88441677009E+03  0.89379264687E+03  0.10000000000E+01 0.  0.
<mgrwt>
<rscale>  0 0.21665133E+03</rscale>
<asrwt>0</asrwt>
<pdfrwt beam="2">  1        2 0.26415873E+00 0.22113094E+03</pdfrwt>
<pdfrwt beam="1">  1       -2 0.42655310E-02 0.22113094E+03</pdfrwt>
<totfact> 0.26109416E+03</totfact>
</mgrwt>
</event>
<event>
 8    3  0.1559595E-003  0.1251359E+03  0.7818608E-02  0.1249397E+00
          2   -1    0    0  501    0  0.00000000000E+00  0.00000000000E+00  0.11620857509E+04  0.11620857509E+04  0.25500000000E-02 0. -1.
         -2   -1    0    0    0  501 -0.00000000000E+00 -0.00000000000E+00 -0.10318639123E+02  0.10318639438E+02  0.25500000000E-02 0.  1.
         25    2    1    2    0    0  0.45761559416E+01 -0.37899976064E+01  0.70369242452E+03  0.71473212677E+03  0.12499471760E+03 0.  0.
         23    2    1    2    0    0 -0.45761559416E+01  0.37899976064E+01  0.44807468726E+03  0.45767226357E+03  0.93046602273E+02 0.  0.
        -13    1    4    4    0    0 -0.11528295254E+02 -0.40741910338E+01  0.31539517811E+01  0.12627715546E+02  0.10566000000E+00 0.  1.
         13    1    4    4    0    0  0.69521393126E+01  0.78641886403E+01  0.44492073547E+03  0.44504454802E+03  0.10566000000E+00 0. -1.
    9000005    1    3    3    0    0 -0.42614963638E+02  0.35898920896E+02  0.21261033143E+03  0.21979290407E+03  0.10000000000E+01 0.  0.
    9000005    1    3    3    0    0  0.47191119580E+02 -0.39688918502E+02  0.49108209309E+03  0.49493922270E+03  0.10000000000E+01 0.  0.
<mgrwt>
<rscale>  0 0.11626056E+03</rscale>
<asrwt>0</asrwt>
<pdfrwt beam="1">  1        2 0.17878232E+00 0.12513587E+03</pdfrwt>
<pdfrwt beam="2">  1       -2 0.15874839E-02 0.12513587E+03</pdfrwt>
<totfact> 0.21685730E+04</totfact>
</mgrwt>
</event>
<event>
 8    3  0.1559595E-003  0.1354090E+03  0.7818608E-02  0.1232316E+00
         -2   -1    0    0    0  501 -0.00000000000E+00  0.00000000000E+00  0.61079085323E+02  0.61079085376E+02  0.25500000000E-02 0. -1.
          2   -1    0    0  501    0  0.00000000000E+00 -0.00000000000E+00 -0.23470856661E+03  0.23470856662E+03  0.25500000000E-02 0.  1.
         25    2    1    2    0    0 -0.23027755061E+02 -0.46692102193E+02 -0.97097655697E+02  0.16662396444E+03  0.12500064349E+03 0.  0.
         23    2    1    2    0    0  0.23027755061E+02  0.46692102193E+02 -0.76531825591E+02  0.12916368756E+03  0.90087224101E+02 0.  0.
        -13    1    4    4    0    0  0.43073143784E+02  0.42360928678E+02 -0.12187673878E+02  0.61630305471E+02  0.10566000000E+00 0. -1.
         13    1    4    4    0    0 -0.20045388723E+02  0.43311735157E+01 -0.64344151712E+02  0.67533382091E+02  0.10566000000E+00 0.  1.
    9000005    1    3    3    0    0 -0.41627359960E+02  0.21799980923E+02 -0.81739978700E+00  0.47007918566E+02  0.10000000000E+01 0.  0.
    9000005    1    3    3    0    0  0.18599604899E+02 -0.68492083117E+02 -0.96280255910E+02  0.11961604587E+03  0.10000000000E+01 0.  0.
<mgrwt>
<rscale>  0 0.12677826E+03</rscale>
<asrwt>0</asrwt>
<pdfrwt beam="2">  1        2 0.36109010E-01 0.13540898E+03</pdfrwt>
<pdfrwt beam="1">  1       -2 0.93967825E-02 0.13540898E+03</pdfrwt>
<totfact> 0.98909107E+03</totfact>
</mgrwt>
</event>
<event>
 8    3  0.1559595E-003  0.2642798E+03  0.7818608E-02  0.1106683E+00
          2   -1    0    0  501    0  0.00000000000E+00  0.00000000000E+00  0.19624426605E+03  0.19624426607E+03  0.25500000000E-02 0. -1.
         -2   -1    0    0    0  501 -0.00000000000E+00 -0.00000000000E+00 -0.35543108690E+03  0.35543108691E+03  0.25500000000E-02 0.  1.
         25    2    1    2    0    0 -0.21660596623E+03  0.85445945694E+02 -0.14337377592E+03  0.30066572331E+03  0.12499873324E+03 0.  0.
         23    2    1    2    0    0  0.21660596623E+03 -0.85445945694E+02 -0.15813044931E+02  0.25100962966E+03  0.92393871835E+02 0.  0.
        -13    1    4    4    0    0  0.12528434589E+03 -0.49263697711E+02  0.36823250054E+02  0.13956733911E+03  0.10566000000E+00 0. -1.
         13    1    4    4    0    0  0.91321620334E+02 -0.36182247984E+02 -0.52636294985E+02  0.11144229055E+03  0.10566000000E+00 0.  1.
    9000005    1    3    3    0    0 -0.58386977941E+02 -0.16294948766E+01  0.15161656383E+02  0.60353709669E+02  0.10000000000E+01 0.  0.
    9000005    1    3    3    0    0 -0.15821898829E+03  0.87075440571E+02 -0.15853543231E+03  0.24031201364E+03  0.10000000000E+01 0.  0.
<mgrwt>
<rscale>  0 0.26076827E+03</rscale>
<asrwt>0</asrwt>
<pdfrwt beam="1">  1        2 0.30191425E-01 0.26427985E+03</pdfrwt>
<pdfrwt beam="2">  1       -2 0.54681706E-01 0.26427985E+03</pdfrwt>
<totfact> 0.55939999E+02</totfact>
</mgrwt>
</event>
<event>
 8    3  0.1559595E-003  0.2240381E+03  0.7818608E-02  0.1135356E+00
          2   -1    0    0  501    0  0.00000000000E+00  0.00000000000E+00  0.67751594982E+03  0.67751594982E+03  0.25500000000E-02 0. -1.
         -2   -1    0    0    0  501 -0.00000000000E+00 -0.00000000000E+00 -0.71682544785E+02  0.71682544830E+02  0.25500000000E-02 0.  1.
         25    2    1    2    0    0  0.17232673590E+03 -0.69796708035E+02  0.21912495640E+03  0.31338283067E+03  0.12499987073E+03 0.  0.
         23    2    1    2    0    0 -0.17232673590E+03  0.69796708035E+02  0.38670844863E+03  0.43581566398E+03  0.76313723338E+02 0.  0.
        -13    1    4    4    0    0 -0.80319683470E+02  0.72981834861E+02  0.19563235995E+03  0.22371774895E+03  0.10566000000E+00 0.  1.
         13    1    4    4    0    0 -0.92007052434E+02 -0.31851268262E+01  0.19107608869E+03  0.21209791504E+03  0.10566000000E+00 0. -1.
    9000005    1    3    3    0    0  0.16730691987E+03 -0.82094764597E+02  0.13986557685E+03  0.23301187824E+03  0.10000000000E+01 0.  0.
    9000005    1    3    3    0    0  0.50198160310E+01  0.12298056563E+02  0.79259379552E+02  0.80370952434E+02  0.10000000000E+01 0.  0.
<mgrwt>
<rscale>  0 0.21803594E+03</rscale>
<asrwt>0</asrwt>
<pdfrwt beam="1">  1        2 0.10423323E+00 0.22403806E+03</pdfrwt>
<pdfrwt beam="2">  1       -2 0.11028083E-01 0.22403806E+03</pdfrwt>
<totfact> 0.24602530E+03</totfact>
</mgrwt>
</event>
<event>
 8    3  0.1559595E-003  0.1969071E+03  0.7818608E-02  0.1156681E+00
          2   -1    0    0  501    0  0.00000000000E+00  0.00000000000E+00  0.43715601035E+02  0.43715601109E+02  0.25500000000E-02 0. -1.
         -2   -1    0    0    0  501 -0.00000000000E+00 -0.00000000000E+00 -0.80726661805E+03  0.80726661806E+03  0.25500000000E-02 0.  1.
         25    2    1    2    0    0  0.77284910613E+02  0.13106400150E+03 -0.42961055448E+03  0.47258610030E+03  0.12498665441E+03 0.  0.
         23    2    1    2    0    0 -0.77284910613E+02 -0.13106400150E+03 -0.33394046254E+03  0.37839611886E+03  0.92285753798E+02 0.  0.
        -13    1    4    4    0    0 -0.74860160257E+02 -0.82725039147E+02 -0.29773703442E+03  0.31795412959E+03  0.10566000000E+00 0.  1.
         13    1    4    4    0    0 -0.24247503560E+01 -0.48338962352E+02 -0.36203428116E+02  0.60441989270E+02  0.10566000000E+00 0. -1.
    9000005    1    3    3    0    0 -0.14915478495E+02  0.16576709958E+02 -0.44917046267E+01  0.22769150669E+02  0.10000000000E+01 0.  0.
    9000005    1    3    3    0    0  0.92200389107E+02  0.11448729154E+03 -0.42511884986E+03  0.44981694963E+03  0.10000000000E+01 0.  0.
<mgrwt>
<rscale>  0 0.19198731E+03</rscale>
<asrwt>0</asrwt>
<pdfrwt beam="1">  1        2 0.67254777E-02 0.19690707E+03</pdfrwt>
<pdfrwt beam="2">  1       -2 0.12419485E+00 0.19690707E+03</pdfrwt>
<totfact> 0.53887144E+02</totfact>
</mgrwt>
</event>
<event>
 8    3  0.1559595E-003  0.1350595E+03  0.7818608E-02  0.1232919E+00
         -2   -1    0    0    0  501 -0.00000000000E+00  0.00000000000E+00  0.81994038744E+01  0.81994042709E+01  0.25500000000E-02 0.  1.
          2   -1    0    0  501    0  0.00000000000E+00 -0.00000000000E+00 -0.17367269382E+04  0.17367269382E+04  0.25500000000E-02 0. -1.
         25    2    1    2    0    0 -0.39745436067E+02  0.32194138209E+02 -0.96296151306E+03  0.97238673219E+03  0.12499967631E+03 0.  0.
         23    2    1    2    0    0  0.39745436067E+02 -0.32194138209E+02 -0.76556602128E+03  0.77253961030E+03  0.90055284799E+02 0.  0.
        -13    1    4    4    0    0  0.56729029684E+02 -0.41928752726E+02 -0.38098513678E+03  0.38746082218E+03  0.10566000000E+00 0.  1.
         13    1    4    4    0    0 -0.16983593616E+02  0.97346145164E+01 -0.38458088451E+03  0.38507878813E+03  0.10566000000E+00 0. -1.
    9000005    1    3    3    0    0 -0.26661531211E+00  0.43818600282E+02 -0.86522179418E+03  0.86633128417E+03  0.10000000000E+01 0.  0.
    9000005    1    3    3    0    0 -0.39478820755E+02 -0.11624462073E+02 -0.97739718885E+02  0.10605544802E+03  0.10000000000E+01 0.  0.
<mgrwt>
<rscale>  0 0.12638609E+03</rscale>
<asrwt>0</asrwt>
<pdfrwt beam="2">  1        2 0.26718847E+00 0.13505955E+03</pdfrwt>
<pdfrwt beam="1">  1       -2 0.12614482E-02 0.13505955E+03</pdfrwt>
<totfact> 0.15098140E+04</totfact>
</mgrwt>
</event>
<event>
 8    3  0.1559595E-003  0.1366400E+03  0.7818608E-02  0.1230016E+00
          2   -1    0    0  501    0  0.00000000000E+00  0.00000000000E+00  0.80202802636E+02  0.80202802676E+02  0.25500000000E-02 0. -1.
         -2   -1    0    0    0  501 -0.00000000000E+00 -0.00000000000E+00 -0.19650134192E+03  0.19650134194E+03  0.25500000000E-02 0.  1.
         25    2    1    2    0    0  0.54938850495E+02  0.52874211481E+01 -0.99908671313E+02  0.16926971723E+03  0.12499704177E+03 0.  0.
         23    2    1    2    0    0 -0.54938850495E+02 -0.52874211481E+01 -0.16389867969E+02  0.10743442738E+03  0.90704433731E+02 0.  0.
        -13    1    4    4    0    0 -0.79353958742E+00 -0.57074807659E+01 -0.45564691145E+02  0.45927739820E+02  0.10566000000E+00 0.  1.
         13    1    4    4    0    0 -0.54145310907E+02  0.42005961784E+00  0.29174823176E+02  0.61506687561E+02  0.10566000000E+00 0. -1.
    9000005    1    3    3    0    0  0.78559000067E+01  0.37484468403E+02 -0.10521736767E+03  0.11197542139E+03  0.10000000000E+01 0.  0.
    9000005    1    3    3    0    0  0.47082950488E+02 -0.32197047255E+02  0.53086963571E+01  0.57294295838E+02  0.10000000000E+01 0.  0.
<mgrwt>
<rscale>  0 0.12828944E+03</rscale>
<asrwt>0</asrwt>
<pdfrwt beam="1">  1        2 0.12338893E-01 0.13664002E+03</pdfrwt>
<pdfrwt beam="2">  1       -2 0.30230975E-01 0.13664002E+03</pdfrwt>
<totfact> 0.47461313E+03</totfact>
</mgrwt>
</event>
<event>
 8    3  0.1559595E-003  0.2214195E+03  0.7818608E-02  0.1136427E+00
         -2   -1    0    0    0  501 -0.00000000000E+00  0.00000000000E+00  0.30902123326E+02  0.30902123431E+02  0.25500000000E-02 0.  1.
          2   -1    0    0  501    0  0.00000000000E+00 -0.00000000000E+00 -0.14847593132E+04  0.14847593132E+04  0.25500000000E-02 0. -1.
         25    2    1    2    0    0 -0.13477482092E+03 -0.12344095711E+03 -0.65311834086E+03  0.68963045557E+03  0.12499870331E+03 0.  0.
         23    2    1    2    0    0  0.13477482092E+03  0.12344095711E+03 -0.80073884902E+03  0.82603098108E+03  0.87991790054E+02 0.  0.
        -13    1    4    4    0    0  0.65703360468E+02  0.11407696260E+03 -0.47411340191E+03  0.49205082462E+03  0.10566000000E+00 0.  1.
         13    1    4    4    0    0  0.69071460452E+02  0.93639945135E+01 -0.32662544712E+03  0.33398015646E+03  0.10566000000E+00 0. -1.
    9000005    1    3    3    0    0 -0.11852801944E+03 -0.30461081578E+02 -0.29730296742E+03  0.32150711239E+03  0.10000000000E+01 0.  0.
    9000005    1    3    3    0    0 -0.16246801484E+02 -0.92979875536E+02 -0.35581537344E+03  0.36812334318E+03  0.10000000000E+01 0.  0.
<mgrwt>
<rscale>  0 0.21662115E+03</rscale>
<asrwt>0</asrwt>
<pdfrwt beam="2">  1        2 0.22842445E+00 0.22141951E+03</pdfrwt>
<pdfrwt beam="1">  1       -2 0.47541740E-02 0.22141951E+03</pdfrwt>
<totfact> 0.29375400E+03</totfact>
</mgrwt>
</event>
<event>
 8    3  0.1559595E-003  0.1640191E+03  0.7818608E-02  0.1191718E+00
         -2   -1    0    0    0  501 -0.00000000000E+00  0.00000000000E+00  0.18948458025E+03  0.18948458027E+03  0.25500000000E-02 0.  1.
          2   -1    0    0  501    0  0.00000000000E+00 -0.00000000000E+00 -0.12714899673E+03  0.12714899675E+03  0.25500000000E-02 0. -1.
         25    2    1    2    0    0  0.94910590126E+02 -0.47655174166E+02 -0.81130195629E+00  0.16402111072E+03  0.12499292303E+03 0.  0.
         23    2    1    2    0    0 -0.94910590126E+02  0.47655174166E+02  0.63146885476E+02  0.15261246630E+03  0.89576782609E+02 0.  0.
        -13    1    4    4    0    0 -0.48240633255E+02 -0.21671981811E+01 -0.13333165630E+02  0.50096306396E+02  0.10566000000E+00 0. -1.
         13    1    4    4    0    0 -0.46669956871E+02  0.49822372347E+02  0.76480051106E+02  0.10251615991E+03  0.10566000000E+00 0.  1.
    9000005    1    3    3    0    0  0.10282818964E+02  0.26352272994E+02 -0.36386382541E+02  0.46099322036E+02  0.10000000000E+01 0.  0.
    9000005    1    3    3    0    0  0.84627771163E+02 -0.74007447159E+02  0.35575080585E+02  0.11792178868E+03  0.10000000000E+01 0.  0.
<mgrwt>
<rscale>  0 0.15735264E+03</rscale>
<asrwt>0</asrwt>
<pdfrwt beam="2">  1        2 0.19561384E-01 0.16401910E+03</pdfrwt>
<pdfrwt beam="1">  1       -2 0.29151474E-01 0.16401910E+03</pdfrwt>
<totfact> 0.29879702E+03</totfact>
</mgrwt>
</event>
<event>
 8    3  0.1559595E-003  0.1390252E+03  0.7818608E-02  0.1229909E+00
         -2   -1    0    0    0  501 -0.00000000000E+00  0.00000000000E+00  0.26818930480E+02  0.26818930601E+02  0.25500000000E-02 0.  1.
          2   -1    0    0  501    0  0.00000000000E+00 -0.00000000000E+00 -0.53759060215E+03  0.53759060216E+03  0.25500000000E-02 0. -1.
         25    2    1    2    0    0  0.59003356719E+02  0.14854421797E+02 -0.30349375174E+03  0.33382098930E+03  0.12500378236E+03 0.  0.
         23    2    1    2    0    0 -0.59003356719E+02 -0.14854421797E+02 -0.20727791993E+03  0.23058854345E+03  0.80652900323E+02 0.  0.
        -13    1    4    4    0    0  0.47265946464E+01  0.25255757676E+02 -0.55344015635E+02  0.61017745152E+02  0.10566000000E+00 0. -1.
         13    1    4    4    0    0 -0.63729951366E+02 -0.40110179473E+02 -0.15193390429E+03  0.16957079830E+03  0.10566000000E+00 0.  1.
    9000005    1    3    3    0    0  0.71786729961E+01 -0.30387612748E+02 -0.10652917419E+02  0.33006438827E+02  0.10000000000E+01 0.  0.
    9000005    1    3    3    0    0  0.51824683723E+02  0.45242034545E+02 -0.29284083432E+03  0.30081455048E+03  0.10000000000E+01 0.  0.
<mgrwt>
<rscale>  0 0.12836068E+03</rscale>
<asrwt>0</asrwt>
<pdfrwt beam="2">  1        2 0.82706238E-01 0.13902516E+03</pdfrwt>
<pdfrwt beam="1">  1       -2 0.41259897E-02 0.13902516E+03</pdfrwt>
<totfact> 0.14266512E+04</totfact>
</mgrwt>
</event>
<event>
 8    3  0.1559595E-003  0.1295044E+03  0.7818608E-02  0.1250550E+00
          2   -1    0    0  501    0  0.00000000000E+00  0.00000000000E+00  0.68022541658E+03  0.68022541659E+03  0.25500000000E-02 0. -1.
         -2   -1    0    0    0  501 -0.00000000000E+00 -0.00000000000E+00 -0.19270307036E+02  0.19270307205E+02  0.25500000000E-02 0.  1.
         25    2    1    2    0    0  0.59200175841E+01  0.33333362923E+02  0.26319233330E+03  0.29332845661E+03  0.12500087782E+03 0.  0.
         23    2    1    2    0    0 -0.59200175841E+01 -0.33333362923E+02  0.39776277625E+03  0.40616726718E+03  0.74903024453E+02 0.  0.
        -13    1    4    4    0    0  0.30590619332E+02  0.92873551674E+00  0.19048493220E+03  0.19292788575E+03  0.10566000000E+00 0. -1.
         13    1    4    4    0    0 -0.36510636916E+02 -0.34262098440E+02  0.20727784405E+03  0.21323938144E+03  0.10566000000E+00 0.  1.
    9000005    1    3    3    0    0 -0.83838915303E+01  0.45257983080E+02  0.21315734790E+02  0.50733965144E+02  0.10000000000E+01 0.  0.
    9000005    1    3    3    0    0  0.14303909114E+02 -0.11924620157E+02  0.24187659851E+03  0.24259449146E+03  0.10000000000E+01 0.  0.
<mgrwt>
<rscale>  0 0.11559246E+03</rscale>
<asrwt>0</asrwt>
<pdfrwt beam="1">  1        2 0.10465006E+00 0.12950436E+03</pdfrwt>
<pdfrwt beam="2">  1       -2 0.29646627E-02 0.12950436E+03</pdfrwt>
<totfact> 0.17679248E+04</totfact>
</mgrwt>
</event>
<event>
 8    3  0.1559595E-003  0.1300499E+03  0.7818608E-02  0.1241977E+00
         -2   -1    0    0    0  501 -0.00000000000E+00  0.00000000000E+00  0.33502996510E+02  0.33502996607E+02  0.25500000000E-02 0.  1.
          2   -1    0    0  501    0  0.00000000000E+00 -0.00000000000E+00 -0.51642492676E+03  0.51642492677E+03  0.25500000000E-02 0. -1.
         25    2    1    2    0    0 -0.22586671307E+02  0.27891725619E+02 -0.12928441247E+03  0.18337786996E+03  0.12499951122E+03 0.  0.
         23    2    1    2    0    0  0.22586671307E+02 -0.27891725619E+02 -0.35363751778E+03  0.36655005341E+03  0.89506098081E+02 0.  0.
        -13    1    4    4    0    0 -0.26134556531E+01  0.10354346197E+01  0.50692783785E+01  0.57975014115E+01  0.10566000000E+00 0.  1.
         13    1    4    4    0    0  0.25200126960E+02 -0.28927160239E+02 -0.35870679616E+03  0.36075255200E+03  0.10566000000E+00 0. -1.
    9000005    1    3    3    0    0 -0.22839136314E+02  0.15325723323E+01  0.20828648137E+02  0.30964617045E+02  0.10000000000E+01 0.  0.
    9000005    1    3    3    0    0  0.25246500687E+00  0.26359153287E+02 -0.15011306060E+03  0.15241325292E+03  0.10000000000E+01 0.  0.
<mgrwt>
<rscale>  0 0.12068123E+03</rscale>
<asrwt>0</asrwt>
<pdfrwt beam="2">  1        2 0.79449983E-01 0.13004993E+03</pdfrwt>
<pdfrwt beam="1">  1       -2 0.51543075E-02 0.13004993E+03</pdfrwt>
<totfact> 0.10641485E+04</totfact>
</mgrwt>
</event>
<event>
 8    3  0.1559595E-003  0.1331413E+03  0.7818608E-02  0.1234257E+00
          2   -1    0    0  501    0  0.00000000000E+00  0.00000000000E+00  0.11464804227E+04  0.11464804227E+04  0.25500000000E-02 0. -1.
         -2   -1    0    0    0  501 -0.00000000000E+00 -0.00000000000E+00 -0.15483285886E+02  0.15483286096E+02  0.25500000000E-02 0.  1.
         25    2    1    2    0    0  0.37148354457E+02 -0.26881482888E+02  0.36011662149E+03  0.38394087095E+03  0.12499598775E+03 0.  0.
         23    2    1    2    0    0 -0.37148354457E+02  0.26881482888E+02  0.77088051527E+03  0.77802283780E+03  0.94658084410E+02 0.  0.
        -13    1    4    4    0    0 -0.28113999167E+02  0.43189691041E+02  0.74108827412E+03  0.74287790892E+03  0.10566000000E+00 0. -1.
         13    1    4    4    0    0 -0.90343552892E+01 -0.16308208153E+02  0.29792241151E+02  0.35144928872E+02  0.10566000000E+00 0.  1.
    9000005    1    3    3    0    0 -0.23689261431E+02 -0.17279723623E+02  0.14222147944E+02  0.32604285727E+02  0.10000000000E+01 0.  0.
    9000005    1    3    3    0    0  0.60837615888E+02 -0.96017592653E+01  0.34589447355E+03  0.35133658523E+03  0.10000000000E+01 0.  0.
<mgrwt>
<rscale>  0 0.12552135E+03</rscale>
<asrwt>0</asrwt>
<pdfrwt beam="1">  1        2 0.17638158E+00 0.13314132E+03</pdfrwt>
<pdfrwt beam="2">  1       -2 0.23820444E-02 0.13314132E+03</pdfrwt>
<totfact> 0.12339322E+04</totfact>
</mgrwt>
</event>
<event>
 8    3  0.1559595E-003  0.1261136E+03  0.7818608E-02  0.1248435E+00
          2   -1    0    0  501    0  0.00000000000E+00  0.00000000000E+00  0.15769573899E+04  0.15769573899E+04  0.25500000000E-02 0. -1.
         -2   -1    0    0    0  501 -0.00000000000E+00 -0.00000000000E+00 -0.79266003142E+01  0.79266007244E+01  0.25500000000E-02 0.  1.
         25    2    1    2    0    0  0.12634443626E+02  0.10977087837E+02  0.74001791906E+03  0.75068713386E+03  0.12499810716E+03 0.  0.
         23    2    1    2    0    0 -0.12634443626E+02 -0.10977087837E+02  0.82901287052E+03  0.83419685675E+03  0.91334170571E+02 0.  0.
        -13    1    4    4    0    0  0.38234275469E+01  0.35470446198E+02  0.52551332845E+03  0.52672292593E+03  0.10566000000E+00 0. -1.
         13    1    4    4    0    0 -0.16457871173E+02 -0.46447534035E+02  0.30349954206E+03  0.30747393083E+03  0.10566000000E+00 0.  1.
    9000005    1    3    3    0    0  0.16163865472E+02 -0.42974601364E+02  0.57926163013E+03  0.58107927433E+03  0.10000000000E+01 0.  0.
    9000005    1    3    3    0    0 -0.35294218459E+01  0.53951689201E+02  0.16075628892E+03  0.16960785953E+03  0.10000000000E+01 0.  0.
<mgrwt>
<rscale>  0 0.11682154E+03</rscale>
<asrwt>0</asrwt>
<pdfrwt beam="1">  1        2 0.24260887E+00 0.12611365E+03</pdfrwt>
<pdfrwt beam="2">  1       -2 0.12194768E-02 0.12611365E+03</pdfrwt>
<totfact> 0.19069733E+04</totfact>
</mgrwt>
</event>
<event>
 8    3  0.1559595E-003  0.1693088E+03  0.7818608E-02  0.1184902E+00
         -2   -1    0    0    0  501 -0.00000000000E+00  0.00000000000E+00  0.16205842527E+03  0.16205842529E+03  0.25500000000E-02 0.  1.
          2   -1    0    0  501    0  0.00000000000E+00 -0.00000000000E+00 -0.15856174539E+03  0.15856174541E+03  0.25500000000E-02 0. -1.
         25    2    1    2    0    0 -0.83775760999E+02 -0.77603044321E+02 -0.24477966326E+02  0.17106909326E+03  0.12499941285E+03 0.  0.
         23    2    1    2    0    0  0.83775760999E+02  0.77603044321E+02  0.27974646206E+02  0.14955107744E+03  0.92424744061E+02 0.  0.
        -13    1    4    4    0    0 -0.52806917878E-01  0.85400039102E+01  0.39421242640E+02  0.40335840026E+02  0.10566000000E+00 0.  1.
         13    1    4    4    0    0  0.83828567917E+02  0.69063040411E+02 -0.11446596433E+02  0.10921523742E+03  0.10566000000E+00 0. -1.
    9000005    1    3    3    0    0 -0.84512409481E+02  0.11002444664E+01 -0.35328862010E+02  0.91611606170E+02  0.10000000000E+01 0.  0.
    9000005    1    3    3    0    0  0.73664848175E+00 -0.78703288787E+02  0.10850895684E+02  0.79457487086E+02  0.10000000000E+01 0.  0.
<mgrwt>
<rscale>  0 0.16340805E+03</rscale>
<asrwt>0</asrwt>
<pdfrwt beam="2">  1        2 0.24394115E-01 0.16930878E+03</pdfrwt>
<pdfrwt beam="1">  1       -2 0.24932065E-01 0.16930878E+03</pdfrwt>
<totfact> 0.30801776E+03</totfact>
</mgrwt>
</event>
<event>
 8    3  0.1559595E-003  0.1684702E+03  0.7818608E-02  0.1185484E+00
          2   -1    0    0  501    0  0.00000000000E+00  0.00000000000E+00  0.72685461519E+03  0.72685461520E+03  0.25500000000E-02 0.  1.
         -2   -1    0    0    0  501 -0.00000000000E+00 -0.00000000000E+00 -0.34655337716E+02  0.34655337810E+02  0.25500000000E-02 0. -1.
         25    2    1    2    0    0 -0.32691201075E+02  0.10811536516E+03  0.40908198312E+03  0.44241413793E+03  0.12499821483E+03 0.  0.
         23    2    1    2    0    0  0.32691201075E+02 -0.10811536516E+03  0.28311729435E+03  0.31909581508E+03  0.94387976074E+02 0.  0.
        -13    1    4    4    0    0  0.23145106541E+02 -0.77541115144E+02  0.27413636138E+03  0.28583050273E+03  0.10566000000E+00 0.  1.
         13    1    4    4    0    0  0.95460945334E+01 -0.30574250016E+02  0.89809329769E+01  0.33265312355E+02  0.10566000000E+00 0. -1.
    9000005    1    3    3    0    0 -0.75165316684E+02  0.70575134414E+02  0.19067563213E+03  0.21676916551E+03  0.10000000000E+01 0.  0.
    9000005    1    3    3    0    0  0.42474115609E+02  0.37540230746E+02  0.21840635099E+03  0.22564497241E+03  0.10000000000E+01 0.  0.
<mgrwt>
<rscale>  0 0.16287951E+03</rscale>
<asrwt>0</asrwt>
<pdfrwt beam="1">  1        2 0.11182378E+00 0.16847018E+03</pdfrwt>
<pdfrwt beam="2">  1       -2 0.53315906E-02 0.16847018E+03</pdfrwt>
<totfact> 0.69300318E+03</totfact>
</mgrwt>
</event>
<event>
 8    3  0.1559595E-003  0.1784063E+03  0.7818608E-02  0.1174570E+00
          2   -1    0    0  501    0  0.00000000000E+00  0.00000000000E+00  0.43158495277E+03  0.43158495277E+03  0.25500000000E-02 0. -1.
         -2   -1    0    0    0  501 -0.00000000000E+00 -0.00000000000E+00 -0.95788862225E+02  0.95788862259E+02  0.25500000000E-02 0.  1.
         25    2    1    2    0    0 -0.58751629900E+02  0.11292587231E+03  0.27161864513E+02  0.18046211944E+03  0.12499921206E+03 0.  0.
         23    2    1    2    0    0  0.58751629900E+02 -0.11292587231E+03  0.30863422603E+03  0.34691169559E+03  0.94279543951E+02 0.  0.
        -13    1    4    4    0    0  0.58729191840E+02 -0.67377963402E+02  0.10336639203E+03  0.13665112547E+03  0.10566000000E+00 0.  1.
         13    1    4    4    0    0  0.22438060214E-01 -0.45547908912E+02  0.20526783400E+03  0.21026057012E+03  0.10566000000E+00 0. -1.
    9000005    1    3    3    0    0 -0.81931518258E+02  0.71059794295E+02  0.58520628915E+02  0.12323932837E+03  0.10000000000E+01 0.  0.
    9000005    1    3    3    0    0  0.23179888358E+02  0.41866078018E+02 -0.31358764402E+02  0.57222791069E+02  0.10000000000E+01 0.  0.
<mgrwt>
<rscale>  0 0.17318128E+03</rscale>
<asrwt>0</asrwt>
<pdfrwt beam="1">  1        2 0.66397685E-01 0.17840631E+03</pdfrwt>
<pdfrwt beam="2">  1       -2 0.14736748E-01 0.17840631E+03</pdfrwt>
<totfact> 0.25485100E+03</totfact>
</mgrwt>
</event>
<event>
 8    3  0.1559595E-003  0.1255195E+03  0.7818608E-02  0.1249737E+00
         -2   -1    0    0    0  501 -0.00000000000E+00  0.00000000000E+00  0.28143191033E+03  0.28143191034E+03  0.25500000000E-02 0.  1.
          2   -1    0    0  501    0  0.00000000000E+00 -0.00000000000E+00 -0.64175577835E+02  0.64175577885E+02  0.25500000000E-02 0. -1.
         25    2    1    2    0    0 -0.10367298879E+02 -0.45657504126E+01  0.22057684951E+03  0.25378986152E+03  0.12500728101E+03 0.  0.
         23    2    1    2    0    0  0.10367298879E+02  0.45657504126E+01 -0.33205170128E+01  0.91817626712E+02  0.91055608168E+02 0.  0.
        -13    1    4    4    0    0  0.55989986338E+01  0.40011759328E+02  0.23837396142E+02  0.46909724888E+02  0.10566000000E+00 0.  1.
         13    1    4    4    0    0  0.47683002447E+01 -0.35446008916E+02 -0.27157913154E+02  0.44907901824E+02  0.10566000000E+00 0. -1.
    9000005    1    3    3    0    0 -0.13627141598E+02 -0.53782807756E+02  0.18451887181E+03  0.19268239009E+03  0.10000000000E+01 0.  0.
    9000005    1    3    3    0    0  0.32598427194E+01  0.49217057343E+02  0.36057977703E+02  0.61107471426E+02  0.10000000000E+01 0.  0.
<mgrwt>
<rscale>  0 0.11606303E+03</rscale>
<asrwt>0</asrwt>
<pdfrwt beam="2">  1        2 0.98731655E-02 0.12551951E+03</pdfrwt>
<pdfrwt beam="1">  1       -2 0.43297218E-01 0.12551951E+03</pdfrwt>
<totfact> 0.31736446E+03</totfact>
</mgrwt>
</event>
<event>
 8    3  0.1559595E-003  0.1441439E+03  0.7818608E-02  0.1218414E+00
         -2   -1    0    0    0  501 -0.00000000000E+00  0.00000000000E+00  0.34966713923E+03  0.34966713924E+03  0.25500000000E-02 0.  1.
          2   -1    0    0  501    0  0.00000000000E+00 -0.00000000000E+00 -0.48140186681E+02  0.48140186748E+02  0.25500000000E-02 0. -1.
         25    2    1    2    0    0  0.51897241811E+02 -0.49533187446E+02  0.16093752639E+03  0.21605175130E+03  0.12502244387E+03 0.  0.
         23    2    1    2    0    0 -0.51897241811E+02  0.49533187446E+02  0.14058942617E+03  0.18175557470E+03  0.90126809648E+02 0.  0.
        -13    1    4    4    0    0  0.75335932215E+01  0.65575360421E+01 -0.10075910151E+02  0.14187721282E+02  0.10566000000E+00 0. -1.
         13    1    4    4    0    0 -0.59430835032E+02  0.42975651404E+02  0.15066533632E+03  0.16756785341E+03  0.10566000000E+00 0.  1.
    9000005    1    3    3    0    0  0.90458139139E+01 -0.36886672876E+02 -0.10067161270E+02  0.39303958087E+02  0.10000000000E+01 0.  0.
    9000005    1    3    3    0    0  0.42851427897E+02 -0.12646514570E+02  0.17100468766E+03  0.17674779321E+03  0.10000000000E+01 0.  0.
<mgrwt>
<rscale>  0 0.13628715E+03</rscale>
<asrwt>0</asrwt>
<pdfrwt beam="2">  1        2 0.74061828E-02 0.14414393E+03</pdfrwt>
<pdfrwt beam="1">  1       -2 0.53794943E-01 0.14414393E+03</pdfrwt>
<totfact> 0.29911237E+03</totfact>
</mgrwt>
</event>
<event>
 8    3  0.1559595E-003  0.1358932E+03  0.7818608E-02  0.1231102E+00
          2   -1    0    0  501    0  0.00000000000E+00  0.00000000000E+00  0.18502312390E+04  0.18502312390E+04  0.25500000000E-02 0. -1.
         -2   -1    0    0    0  501 -0.00000000000E+00 -0.00000000000E+00 -0.86174049895E+01  0.86174053668E+01  0.25500000000E-02 0.  1.
         25    2    1    2    0    0 -0.42106750355E+02  0.32687892848E+02  0.75603940254E+03  0.76815528537E+03  0.12500194993E+03 0.  0.
         23    2    1    2    0    0  0.42106750355E+02 -0.32687892848E+02  0.10855744315E+04  0.10906933590E+04  0.91097092902E+02 0.  0.
        -13    1    4    4    0    0  0.34730893262E+02 -0.70705805823E+01  0.10087984787E+04  0.10094209280E+04  0.10566000000E+00 0. -1.
         13    1    4    4    0    0  0.73758570925E+01 -0.25617312266E+02  0.76775952797E+02  0.81272431042E+02  0.10566000000E+00 0.  1.
    9000005    1    3    3    0    0 -0.15100440702E+01  0.16692088459E+02  0.75755978184E+01  0.18419981882E+02  0.10000000000E+01 0.  0.
    9000005    1    3    3    0    0 -0.40596706285E+02  0.15995804389E+02  0.74846380472E+03  0.74973530349E+03  0.10000000000E+01 0.  0.
<mgrwt>
<rscale>  0 0.12757328E+03</rscale>
<asrwt>0</asrwt>
<pdfrwt beam="1">  1        2 0.28465113E+00 0.13589321E+03</pdfrwt>
<pdfrwt beam="2">  1       -2 0.13257539E-02 0.13589321E+03</pdfrwt>
<totfact> 0.12303318E+04</totfact>
</mgrwt>
</event>
<event>
 8    3  0.1559595E-003  0.1357641E+03  0.7818608E-02  0.1231312E+00
          2   -1    0    0  501    0  0.00000000000E+00  0.00000000000E+00  0.26212644338E+02  0.26212644462E+02  0.25500000000E-02 0. -1.
         -2   -1    0    0    0  501 -0.00000000000E+00 -0.00000000000E+00 -0.58452750651E+03  0.58452750652E+03  0.25500000000E-02 0.  1.
         25    2    1    2    0    0 -0.51333837610E+02 -0.13104565892E+02 -0.24400402886E+03  0.27923082384E+03  0.12499997741E+03 0.  0.
         23    2    1    2    0    0  0.51333837610E+02  0.13104565892E+02 -0.31431083332E+03  0.33150932714E+03  0.91105661233E+02 0.  0.
        -13    1    4    4    0    0  0.90230022693E+00  0.72371212716E+01 -0.24744309009E+03  0.24755056870E+03  0.10566000000E+00 0.  1.
         13    1    4    4    0    0  0.50431537383E+02  0.58674446205E+01 -0.66867743231E+02  0.83958758436E+02  0.10566000000E+00 0. -1.
    9000005    1    3    3    0    0 -0.66351860303E+02  0.32720605888E+02 -0.20251824471E+03  0.21561040526E+03  0.10000000000E+01 0.  0.
    9000005    1    3    3    0    0  0.15018022693E+02 -0.45825171780E+02 -0.41485784148E+02  0.63620418583E+02  0.10000000000E+01 0.  0.
<mgrwt>
<rscale>  0 0.12743506E+03</rscale>
<asrwt>0</asrwt>
<pdfrwt beam="1">  1        2 0.40327150E-02 0.13576409E+03</pdfrwt>
<pdfrwt beam="2">  1       -2 0.89927299E-01 0.13576409E+03</pdfrwt>
<totfact> 0.22015452E+03</totfact>
</mgrwt>
</event>
<event>
 8    3  0.1559595E-003  0.1590499E+03  0.7818608E-02  0.1197453E+00
          2   -1    0    0  501    0  0.00000000000E+00  0.00000000000E+00  0.10935601578E+04  0.10935601578E+04  0.25500000000E-02 0. -1.
         -2   -1    0    0    0  501 -0.00000000000E+00 -0.00000000000E+00 -0.20709255839E+02  0.20709255996E+02  0.25500000000E-02 0.  1.
         25    2    1    2    0    0  0.21970145178E+02 -0.95861478836E+02  0.70296072381E+03  0.72072925262E+03  0.12499906382E+03 0.  0.
         23    2    1    2    0    0 -0.21970145178E+02  0.95861478836E+02  0.36989017811E+03  0.39354016114E+03  0.91558747066E+02 0.  0.
        -13    1    4    4    0    0  0.30146023624E+02  0.31403609767E+02  0.70232800864E+02  0.82629455571E+02  0.10566000000E+00 0.  1.
         13    1    4    4    0    0 -0.52116168802E+02  0.64457869069E+02  0.29965737725E+03  0.31091070557E+03  0.10566000000E+00 0. -1.
    9000005    1    3    3    0    0 -0.12193724519E+02 -0.54952920931E+01  0.25075929877E+01  0.13644529139E+02  0.10000000000E+01 0.  0.
    9000005    1    3    3    0    0  0.34163869697E+02 -0.90366186743E+02  0.70045313082E+03  0.70708472348E+03  0.10000000000E+01 0.  0.
<mgrwt>
<rscale>  0 0.15248430E+03</rscale>
<asrwt>0</asrwt>
<pdfrwt beam="1">  1        2 0.16824002E+00 0.15904992E+03</pdfrwt>
<pdfrwt beam="2">  1       -2 0.31860395E-02 0.15904992E+03</pdfrwt>
<totfact> 0.87093413E+03</totfact>
</mgrwt>
</event>
<event>
 8    3  0.1559595E-003  0.1319475E+03  0.7818608E-02  0.1237356E+00
          2   -1    0    0  501    0  0.00000000000E+00  0.00000000000E+00  0.63024081562E+03  0.63024081562E+03  0.25500000000E-02 0.  1.
         -2   -1    0    0    0  501 -0.00000000000E+00 -0.00000000000E+00 -0.23828056260E+02  0.23828056396E+02  0.25500000000E-02 0. -1.
         25    2    1    2    0    0 -0.38554501495E+02  0.17298040596E+02  0.24001797505E+03  0.27389553878E+03  0.12499786408E+03 0.  0.
         23    2    1    2    0    0  0.38554501495E+02 -0.17298040596E+02  0.36639478431E+03  0.38017333324E+03  0.92200615739E+02 0.  0.
        -13    1    4    4    0    0  0.59293456982E+02  0.13018757287E+02  0.27606612228E+03  0.28266184235E+03  0.10566000000E+00 0.  1.
         13    1    4    4    0    0 -0.20738955486E+02 -0.30316797883E+02  0.90328662025E+02  0.97511490891E+02  0.10566000000E+00 0. -1.
    9000005    1    3    3    0    0  0.31818118155E+02  0.27111122673E+02  0.16641270508E+03  0.17158552977E+03  0.10000000000E+01 0.  0.
    9000005    1    3    3    0    0 -0.70372619650E+02 -0.98130820766E+01  0.73605269975E+02  0.10231000901E+03  0.10000000000E+01 0.  0.
<mgrwt>
<rscale>  0 0.12354778E+03</rscale>
<asrwt>0</asrwt>
<pdfrwt beam="1">  1        2 0.96960109E-01 0.13194748E+03</pdfrwt>
<pdfrwt beam="2">  1       -2 0.36658555E-02 0.13194748E+03</pdfrwt>
<totfact> 0.14150869E+04</totfact>
</mgrwt>
</event>
<event>
 8    3  0.1559595E-003  0.1255695E+03  0.7818608E-02  0.1246849E+00
          2   -1    0    0  501    0  0.00000000000E+00  0.00000000000E+00  0.22260430299E+03  0.22260430301E+03  0.25500000000E-02 0. -1.
         -2   -1    0    0    0  501 -0.00000000000E+00 -0.00000000000E+00 -0.59458616424E+02  0.59458616479E+02  0.25500000000E-02 0.  1.
         25    2    1    2    0    0  0.11924536694E+02 -0.32397681299E+00  0.56090262203E+02  0.13752754256E+03  0.12500163164E+03 0.  0.
         23    2    1    2    0    0 -0.11924536694E+02  0.32397681299E+00  0.10705542437E+03  0.14453537693E+03  0.96370699703E+02 0.  0.
        -13    1    4    4    0    0 -0.40796718323E+02 -0.25751452408E+02  0.26418728025E+02  0.55004271484E+02  0.10566000000E+00 0. -1.
         13    1    4    4    0    0  0.28872181629E+02  0.26075429221E+02  0.80636696343E+02  0.89531105445E+02  0.10566000000E+00 0.  1.
    9000005    1    3    3    0    0  0.93989216850E+01  0.16030381431E+02  0.94172291889E+02  0.95993402989E+02  0.10000000000E+01 0.  0.
    9000005    1    3    3    0    0  0.25256150094E+01 -0.16354358244E+02 -0.38082029686E+02  0.41534139570E+02  0.10000000000E+01 0.  0.
<mgrwt>
<rscale>  0 0.11775380E+03</rscale>
<asrwt>0</asrwt>
<pdfrwt beam="1">  1        2 0.34246816E-01 0.12556953E+03</pdfrwt>
<pdfrwt beam="2">  1       -2 0.91474793E-02 0.12556953E+03</pdfrwt>
<totfact> 0.10850569E+04</totfact>
</mgrwt>
</event>
<event>
 8    3  0.1559595E-003  0.1292257E+03  0.7818608E-02  0.1241631E+00
          2   -1    0    0  501    0  0.00000000000E+00  0.00000000000E+00  0.63405430393E+03  0.63405430393E+03  0.25500000000E-02 0.  1.
         -2   -1    0    0    0  501 -0.00000000000E+00 -0.00000000000E+00 -0.20563608876E+02  0.20563609034E+02  0.25500000000E-02 0. -1.
         25    2    1    2    0    0  0.30782853180E+02  0.11242919175E+02  0.35961575434E+03  0.38212926029E+03  0.12500117407E+03 0.  0.
         23    2    1    2    0    0 -0.30782853180E+02 -0.11242919175E+02  0.25387494071E+03  0.27248865267E+03  0.93400176845E+02 0.  0.
        -13    1    4    4    0    0  0.29913186675E+02 -0.86837706242E+01  0.13999240959E+03  0.14341580288E+03  0.10566000000E+00 0.  1.
         13    1    4    4    0    0 -0.60696039855E+02 -0.25591485503E+01  0.11388253112E+03  0.12907284979E+03  0.10566000000E+00 0. -1.
    9000005    1    3    3    0    0 -0.47456784163E+02  0.21329147939E+01  0.17659428298E+03  0.18287492029E+03  0.10000000000E+01 0.  0.
    9000005    1    3    3    0    0  0.78239637343E+02  0.91100043806E+01  0.18302147136E+03  0.19925434000E+03  0.10000000000E+01 0.  0.
<mgrwt>
<rscale>  0 0.12089310E+03</rscale>
<asrwt>0</asrwt>
<pdfrwt beam="1">  1        2 0.97546830E-01 0.12922570E+03</pdfrwt>
<pdfrwt beam="2">  1       -2 0.31636317E-02 0.12922570E+03</pdfrwt>
<totfact> 0.17435799E+04</totfact>
</mgrwt>
</event>
<event>
 8    3  0.1559595E-003  0.2146895E+03  0.7818608E-02  0.1141403E+00
          2   -1    0    0  501    0  0.00000000000E+00  0.00000000000E+00  0.44030498001E+03  0.44030498002E+03  0.25500000000E-02 0.  1.
         -2   -1    0    0    0  501 -0.00000000000E+00 -0.00000000000E+00 -0.99448737515E+02  0.99448737547E+02  0.25500000000E-02 0. -1.
         25    2    1    2    0    0 -0.74457222550E+02  0.15787055857E+03  0.13001910569E+03  0.25099112022E+03  0.12499833331E+03 0.  0.
         23    2    1    2    0    0  0.74457222550E+02 -0.15787055857E+03  0.21083713681E+03  0.28876259735E+03  0.92002978865E+02 0.  0.
        -13    1    4    4    0    0  0.12740497514E+02 -0.11166023542E+03  0.83911307720E+02  0.14025493638E+03  0.10566000000E+00 0. -1.
         13    1    4    4    0    0  0.61716725036E+02 -0.46210323148E+02  0.12692582909E+03  0.14850766097E+03  0.10566000000E+00 0.  1.
    9000005    1    3    3    0    0  0.33616086970E+02  0.49133940346E+02  0.51591801120E+02  0.78783877411E+02  0.10000000000E+01 0.  0.
    9000005    1    3    3    0    0 -0.10807330952E+03  0.10873661822E+03  0.78427304574E+02  0.17220724281E+03  0.10000000000E+01 0.  0.
<mgrwt>
<rscale>  0 0.21020632E+03</rscale>
<asrwt>0</asrwt>
<pdfrwt beam="1">  1        2 0.67739228E-01 0.21468948E+03</pdfrwt>
<pdfrwt beam="2">  1       -2 0.15299806E-01 0.21468948E+03</pdfrwt>
<totfact> 0.23570260E+03</totfact>
</mgrwt>
</event>
<event>
 8    3  0.1559595E-003  0.1292268E+03  0.7818608E-02  0.1242258E+00
         -2   -1    0    0    0  501 -0.00000000000E+00  0.00000000000E+00  0.90043314039E+01  0.90043317649E+01  0.25500000000E-02 0. -1.
          2   -1    0    0  501    0  0.00000000000E+00 -0.00000000000E+00 -0.14357361947E+04  0.14357361947E+04  0.25500000000E-02 0.  1.
         25    2    1    2    0    0  0.32665700788E+02 -0.27381640356E+01 -0.85658554688E+03  0.86627845663E+03  0.12500007896E+03 0.  0.
         23    2    1    2    0    0 -0.32665700788E+02  0.27381640356E+01 -0.57014631637E+03  0.57846206980E+03  0.92070617307E+02 0.  0.
        -13    1    4    4    0    0 -0.33574371206E+01 -0.43122378130E+02 -0.26197359628E+03  0.26552022181E+03  0.10566000000E+00 0.  1.
         13    1    4    4    0    0 -0.29308263667E+02  0.45860542166E+02 -0.30817272010E+03  0.31294184799E+03  0.10566000000E+00 0. -1.
    9000005    1    3    3    0    0  0.16467491050E+02 -0.63794641145E+02 -0.41595325403E+03  0.42114017148E+03  0.10000000000E+01 0.  0.
    9000005    1    3    3    0    0  0.16198209738E+02  0.61056477110E+02 -0.44063229285E+03  0.44513828514E+03  0.10000000000E+01 0.  0.
<mgrwt>
<rscale>  0 0.12051015E+03</rscale>
<asrwt>0</asrwt>
<pdfrwt beam="2">  1        2 0.22088231E+00 0.12922680E+03</pdfrwt>
<pdfrwt beam="1">  1       -2 0.13852829E-02 0.12922680E+03</pdfrwt>
<totfact> 0.18829327E+04</totfact>
</mgrwt>
</event>
<event>
 8    3  0.1559595E-003  0.2141456E+03  0.7818608E-02  0.1141852E+00
          2   -1    0    0  501    0  0.00000000000E+00  0.00000000000E+00  0.98015465282E+03  0.98015465282E+03  0.25500000000E-02 0. -1.
         -2   -1    0    0    0  501 -0.00000000000E+00 -0.00000000000E+00 -0.49692528171E+02  0.49692528237E+02  0.25500000000E-02 0.  1.
         25    2    1    2    0    0  0.15075394877E+03 -0.86642280171E+02  0.67050302755E+03  0.70386977357E+03  0.12499884163E+03 0.  0.
         23    2    1    2    0    0 -0.15075394877E+03  0.86642280171E+02  0.25995909710E+03  0.32597740749E+03  0.91917899489E+02 0.  0.
        -13    1    4    4    0    0 -0.13479882871E+03  0.75144419399E+02  0.15332657455E+03  0.21754644932E+03  0.10566000000E+00 0.  1.
         13    1    4    4    0    0 -0.15955120063E+02  0.11497860772E+02  0.10663252256E+03  0.10843095817E+03  0.10566000000E+00 0. -1.
    9000005    1    3    3    0    0  0.62555977687E+02  0.28789293440E+02  0.21718180819E+03  0.22783988143E+03  0.10000000000E+01 0.  0.
    9000005    1    3    3    0    0  0.88197971084E+02 -0.11543157361E+03  0.45332121936E+03  0.47602989214E+03  0.10000000000E+01 0.  0.
<mgrwt>
<rscale>  0 0.20963861E+03</rscale>
<asrwt>0</asrwt>
<pdfrwt beam="1">  1        2 0.15079303E+00 0.21414562E+03</pdfrwt>
<pdfrwt beam="2">  1       -2 0.76450040E-02 0.21414562E+03</pdfrwt>
<totfact> 0.27292677E+03</totfact>
</mgrwt>
</event>
<event>
 8    3  0.1559595E-003  0.2180794E+03  0.7818608E-02  0.1138805E+00
          2   -1    0    0  501    0  0.00000000000E+00  0.00000000000E+00  0.27910985719E+03  0.27910985720E+03  0.25500000000E-02 0. -1.
         -2   -1    0    0    0  501 -0.00000000000E+00 -0.00000000000E+00 -0.16199572695E+03  0.16199572697E+03  0.25500000000E-02 0.  1.
         25    2    1    2    0    0  0.14061768391E+03 -0.11027152920E+03  0.10012094844E+03  0.23996420063E+03  0.12500188034E+03 0.  0.
         23    2    1    2    0    0 -0.14061768391E+03  0.11027152920E+03  0.16993181811E+02  0.20114138354E+03  0.90752106126E+02 0.  0.
        -13    1    4    4    0    0 -0.82853380776E+02  0.11112146662E+02 -0.70503308734E+01  0.83892078523E+02  0.10566000000E+00 0. -1.
         13    1    4    4    0    0 -0.57764303129E+02  0.99159382538E+02  0.24043512684E+02  0.11724930502E+03  0.10566000000E+00 0.  1.
    9000005    1    3    3    0    0  0.41658963843E+02 -0.77393577886E+02 -0.98042668353E+01  0.88444099942E+02  0.10000000000E+01 0.  0.
    9000005    1    3    3    0    0  0.98958720062E+02 -0.32877951314E+02  0.10992521527E+03  0.15152010068E+03  0.10000000000E+01 0.  0.
<mgrwt>
<rscale>  0 0.21352437E+03</rscale>
<asrwt>0</asrwt>
<pdfrwt beam="1">  1        2 0.42939977E-01 0.21807937E+03</pdfrwt>
<pdfrwt beam="2">  1       -2 0.24922420E-01 0.21807937E+03</pdfrwt>
<totfact> 0.16792619E+03</totfact>
</mgrwt>
</event>
<event>
 8    3  0.1559595E-003  0.1261329E+03  0.7818608E-02  0.1248712E+00
         -2   -1    0    0    0  501 -0.00000000000E+00  0.00000000000E+00  0.11828332050E+02  0.11828332325E+02  0.25500000000E-02 0.  1.
          2   -1    0    0  501    0  0.00000000000E+00 -0.00000000000E+00 -0.10148852889E+04  0.10148852889E+04  0.25500000000E-02 0. -1.
         25    2    1    2    0    0  0.51159202451E+01 -0.15874831878E+02 -0.61918426012E+03  0.63190083016E+03  0.12502531048E+03 0.  0.
         23    2    1    2    0    0 -0.51159202451E+01  0.15874831878E+02 -0.38387269672E+03  0.39481279105E+03  0.90778355144E+02 0.  0.
        -13    1    4    4    0    0  0.11601998170E+02 -0.29267401407E+02 -0.26026317031E+03  0.26216047782E+03  0.10566000000E+00 0.  1.
         13    1    4    4    0    0 -0.16717918415E+02  0.45142233286E+02 -0.12360952641E+03  0.13265231323E+03  0.10566000000E+00 0. -1.
    9000005    1    3    3    0    0 -0.52617799047E+02  0.10428210391E+02 -0.40430743932E+03  0.40785154878E+03  0.10000000000E+01 0.  0.
    9000005    1    3    3    0    0  0.57733719292E+02 -0.26303042270E+02 -0.21487682079E+03  0.22404928139E+03  0.10000000000E+01 0.  0.
<mgrwt>
<rscale>  0 0.11665926E+03</rscale>
<asrwt>0</asrwt>
<pdfrwt beam="2">  1        2 0.15613613E+00 0.12613291E+03</pdfrwt>
<pdfrwt beam="1">  1       -2 0.18197442E-02 0.12613291E+03</pdfrwt>
<totfact> 0.21640259E+04</totfact>
</mgrwt>
</event>
<event>
 8    3  0.1559595E-003  0.2588466E+03  0.7818608E-02  0.1110123E+00
          2   -1    0    0  501    0  0.00000000000E+00  0.00000000000E+00  0.79860688834E+03  0.79860688834E+03  0.25500000000E-02 0.  1.
         -2   -1    0    0    0  501 -0.00000000000E+00 -0.00000000000E+00 -0.12644640481E+03  0.12644640483E+03  0.25500000000E-02 0. -1.
         25    2    1    2    0    0  0.17920419592E+03  0.13875787217E+03  0.62483143301E+03  0.67632529607E+03  0.12503477716E+03 0.  0.
         23    2    1    2    0    0 -0.17920419592E+03 -0.13875787217E+03  0.47329050513E+02  0.24872799710E+03  0.90871814095E+02 0.  0.
        -13    1    4    4    0    0 -0.12839259021E+03 -0.12301160189E+03  0.43062366540E+00  0.17781087712E+03  0.10566000000E+00 0. -1.
         13    1    4    4    0    0 -0.50811605708E+02 -0.15746270278E+02  0.46898426847E+02  0.70917119986E+02  0.10566000000E+00 0.  1.
    9000005    1    3    3    0    0  0.15302488540E+03  0.16111875588E+03  0.50687707588E+03  0.55344488352E+03  0.10000000000E+01 0.  0.
    9000005    1    3    3    0    0  0.26179310515E+02 -0.22360883719E+02  0.11795435714E+03  0.12288041255E+03  0.10000000000E+01 0.  0.
<mgrwt>
<rscale>  0 0.25510031E+03</rscale>
<asrwt>0</asrwt>
<pdfrwt beam="1">  1        2 0.12286260E+00 0.25884665E+03</pdfrwt>
<pdfrwt beam="2">  1       -2 0.19453293E-01 0.25884665E+03</pdfrwt>
<totfact> 0.78668652E+02</totfact>
</mgrwt>
</event>
<event>
 8    3  0.1559595E-003  0.1278273E+03  0.7818608E-02  0.1245096E+00
         -2   -1    0    0    0  501 -0.00000000000E+00  0.00000000000E+00  0.11774379766E+02  0.11774380042E+02  0.25500000000E-02 0.  1.
          2   -1    0    0  501    0  0.00000000000E+00 -0.00000000000E+00 -0.10584132281E+04  0.10584132281E+04  0.25500000000E-02 0. -1.
         25    2    1    2    0    0 -0.31816034123E+01  0.26531311037E+02 -0.58477129691E+03  0.59857938543E+03  0.12500311159E+03 0.  0.
         23    2    1    2    0    0  0.31816034123E+01 -0.26531311037E+02 -0.46186755139E+03  0.47160822268E+03  0.91534952934E+02 0.  0.
        -13    1    4    4    0    0 -0.22963825408E+02  0.25766028324E+02 -0.12376779295E+03  0.12849009000E+03  0.10566000000E+00 0.  1.
         13    1    4    4    0    0  0.26145428820E+02 -0.52297339361E+02 -0.33809975844E+03  0.34311813268E+03  0.10566000000E+00 0. -1.
    9000005    1    3    3    0    0 -0.58807203684E+02 -0.12155328714E+02 -0.27749594375E+03  0.28392083055E+03  0.10000000000E+01 0.  0.
    9000005    1    3    3    0    0  0.55625600272E+02  0.38686639751E+02 -0.30727535316E+03  0.31465855488E+03  0.10000000000E+01 0.  0.
<mgrwt>
<rscale>  0 0.11879663E+03</rscale>
<asrwt>0</asrwt>
<pdfrwt beam="2">  1        2 0.16283273E+00 0.12782727E+03</pdfrwt>
<pdfrwt beam="1">  1       -2 0.18114439E-02 0.12782727E+03</pdfrwt>
<totfact> 0.20562654E+04</totfact>
</mgrwt>
</event>
<event>
 8    3  0.1559595E-003  0.1491155E+03  0.7818608E-02  0.1212717E+00
         -2   -1    0    0    0  501 -0.00000000000E+00  0.00000000000E+00  0.29365146267E+02  0.29365146378E+02  0.25500000000E-02 0.  1.
          2   -1    0    0  501    0  0.00000000000E+00 -0.00000000000E+00 -0.60642684261E+03  0.60642684261E+03  0.25500000000E-02 0. -1.
         25    2    1    2    0    0 -0.81232134959E+02  0.35027116300E+01 -0.30557428695E+03  0.34001629062E+03  0.12499801720E+03 0.  0.
         23    2    1    2    0    0  0.81232134959E+02 -0.35027116300E+01 -0.27148740939E+03  0.29577569837E+03  0.84657672718E+02 0.  0.
        -13    1    4    4    0    0  0.69249676784E+02 -0.36703196403E+02 -0.14968748639E+03  0.16896448475E+03  0.10566000000E+00 0.  1.
         13    1    4    4    0    0  0.11982458175E+02  0.33200484773E+02 -0.12179992300E+03  0.12681121362E+03  0.10566000000E+00 0. -1.
    9000005    1    3    3    0    0 -0.53442203922E+02  0.61499836656E+02 -0.20539035636E+03  0.22096266099E+03  0.10000000000E+01 0.  0.
    9000005    1    3    3    0    0 -0.27789931038E+02 -0.57997125026E+02 -0.10018393059E+03  0.11905362962E+03  0.10000000000E+01 0.  0.
<mgrwt>
<rscale>  0 0.14045583E+03</rscale>
<asrwt>0</asrwt>
<pdfrwt beam="2">  1        2 0.93296428E-01 0.14911550E+03</pdfrwt>
<pdfrwt beam="1">  1       -2 0.45177153E-02 0.14911550E+03</pdfrwt>
<totfact> 0.10930096E+04</totfact>
</mgrwt>
</event>
<event>
 8    3  0.1559595E-003  0.1610074E+03  0.7818608E-02  0.1192777E+00
         -2   -1    0    0    0  501 -0.00000000000E+00  0.00000000000E+00  0.46898282953E+02  0.46898283022E+02  0.25500000000E-02 0.  1.
          2   -1    0    0  501    0  0.00000000000E+00 -0.00000000000E+00 -0.52141910519E+03  0.52141910520E+03  0.25500000000E-02 0. -1.
         25    2    1    2    0    0 -0.79673856040E+02  0.62854202947E+02 -0.18546067710E+03  0.24559934943E+03  0.12499921410E+03 0.  0.
         23    2    1    2    0    0  0.79673856040E+02 -0.62854202947E+02 -0.28906014514E+03  0.32271803879E+03  0.10145240701E+03 0.  0.
        -13    1    4    4    0    0  0.47126308834E+02 -0.27844802548E+02 -0.36774944216E+02  0.65944140750E+02  0.10566000000E+00 0.  1.
         13    1    4    4    0    0  0.32547547207E+02 -0.35009400399E+02 -0.25228520093E+03  0.25677389804E+03  0.10566000000E+00 0. -1.
    9000005    1    3    3    0    0 -0.70074148819E+02  0.25358208558E+02 -0.22132880922E+02  0.77745028728E+02  0.10000000000E+01 0.  0.
    9000005    1    3    3    0    0 -0.95997072218E+01  0.37495994389E+02 -0.16332779617E+03  0.16785432070E+03  0.10000000000E+01 0.  0.
<mgrwt>
<rscale>  0 0.15643879E+03</rscale>
<asrwt>0</asrwt>
<pdfrwt beam="2">  1        2 0.80218320E-01 0.16100738E+03</pdfrwt>
<pdfrwt beam="1">  1       -2 0.72151208E-02 0.16100738E+03</pdfrwt>
<totfact> 0.63979257E+03</totfact>
</mgrwt>
</event>
<event>
 8    3  0.1559595E-003  0.1444183E+03  0.7818608E-02  0.1217627E+00
          2   -1    0    0  501    0  0.00000000000E+00  0.00000000000E+00  0.74538301072E+03  0.74538301072E+03  0.25500000000E-02 0. -1.
         -2   -1    0    0    0  501 -0.00000000000E+00 -0.00000000000E+00 -0.23288321279E+02  0.23288321419E+02  0.25500000000E-02 0.  1.
         25    2    1    2    0    0 -0.51119495888E+02 -0.51178329573E+02  0.34508525948E+03  0.37408621249E+03  0.12499693511E+03 0.  0.
         23    2    1    2    0    0  0.51119495888E+02  0.51178329573E+02  0.37700942996E+03  0.39458511965E+03  0.91262709221E+02 0.  0.
        -13    1    4    4    0    0  0.32074031826E+02  0.14439094511E+02  0.33442684898E+02  0.48535093542E+02  0.10566000000E+00 0.  1.
         13    1    4    4    0    0  0.19045464061E+02  0.36739235062E+02  0.34356674506E+03  0.34605002611E+03  0.10566000000E+00 0. -1.
    9000005    1    3    3    0    0 -0.56627942601E+02  0.40548854071E+01  0.56114952490E+02  0.79831409056E+02  0.10000000000E+01 0.  0.
    9000005    1    3    3    0    0  0.55084467135E+01 -0.55233214980E+02  0.28897030699E+03  0.29425480343E+03  0.10000000000E+01 0.  0.
<mgrwt>
<rscale>  0 0.13685304E+03</rscale>
<asrwt>0</asrwt>
<pdfrwt beam="1">  1        2 0.11467432E+00 0.14441834E+03</pdfrwt>
<pdfrwt beam="2">  1       -2 0.35828184E-02 0.14441834E+03</pdfrwt>
<totfact> 0.12082649E+04</totfact>
</mgrwt>
</event>
<event>
 8    3  0.1559595E-003  0.1287736E+03  0.7818608E-02  0.1245643E+00
         -2   -1    0    0    0  501 -0.00000000000E+00  0.00000000000E+00  0.29165302944E+02  0.29165303056E+02  0.25500000000E-02 0.  1.
          2   -1    0    0  501    0  0.00000000000E+00 -0.00000000000E+00 -0.48352596141E+03  0.48352596141E+03  0.25500000000E-02 0. -1.
         25    2    1    2    0    0  0.29855508190E+02 -0.81468077603E+01 -0.16697275201E+03  0.21086139345E+03  0.12499962195E+03 0.  0.
         23    2    1    2    0    0 -0.29855508190E+02  0.81468077603E+01 -0.28738790645E+03  0.30182987102E+03  0.86900750393E+02 0.  0.
        -13    1    4    4    0    0 -0.37779444864E+02  0.19066255309E+02 -0.28500431742E+03  0.28812893061E+03  0.10566000000E+00 0. -1.
         13    1    4    4    0    0  0.79239366749E+01 -0.10919447549E+02 -0.23835890300E+01  0.13700940402E+02  0.10566000000E+00 0.  1.
    9000005    1    3    3    0    0  0.80705313222E+01  0.41431470176E+02 -0.80764402008E+01  0.42987545674E+02  0.10000000000E+01 0.  0.
    9000005    1    3    3    0    0  0.21784976867E+02 -0.49578277936E+02 -0.15889631181E+03  0.16787384778E+03  0.10000000000E+01 0.  0.
<mgrwt>
<rscale>  0 0.11846983E+03</rscale>
<asrwt>0</asrwt>
<pdfrwt beam="2">  1        2 0.74388604E-01 0.12877355E+03</pdfrwt>
<pdfrwt beam="1">  1       -2 0.44869700E-02 0.12877355E+03</pdfrwt>
<totfact> 0.14065164E+04</totfact>
</mgrwt>
</event>
<event>
 8    3  0.1559595E-003  0.1957459E+03  0.7818608E-02  0.1157845E+00
          2   -1    0    0  501    0  0.00000000000E+00  0.00000000000E+00  0.25661141030E+03  0.25661141031E+03  0.25500000000E-02 0. -1.
         -2   -1    0    0    0  501 -0.00000000000E+00 -0.00000000000E+00 -0.13654852367E+03  0.13654852370E+03  0.25500000000E-02 0.  1.
         25    2    1    2    0    0  0.11398486599E+03 -0.98484021238E+02  0.85146146214E+02  0.21346269694E+03  0.12499921862E+03 0.  0.
         23    2    1    2    0    0 -0.11398486599E+03  0.98484021238E+02  0.34916740409E+02  0.17969723707E+03  0.91543793538E+02 0.  0.
        -13    1    4    4    0    0 -0.18827458505E+01  0.50475146160E+02 -0.64542343615E+01  0.50921050824E+02  0.10566000000E+00 0. -1.
         13    1    4    4    0    0 -0.11210212014E+03  0.48008875078E+02  0.41370974771E+02  0.12877618625E+03  0.10566000000E+00 0.  1.
    9000005    1    3    3    0    0  0.46854569356E+02 -0.11463657395E+03  0.71726373688E+02  0.14311732054E+03  0.10000000000E+01 0.  0.
    9000005    1    3    3    0    0  0.67130296636E+02  0.16152552713E+02  0.13419772527E+02  0.70345376396E+02  0.10000000000E+01 0.  0.
<mgrwt>
<rscale>  0 0.19068455E+03</rscale>
<asrwt>0</asrwt>
<pdfrwt beam="1">  1        2 0.39478678E-01 0.19574590E+03</pdfrwt>
<pdfrwt beam="2">  1       -2 0.21007465E-01 0.19574590E+03</pdfrwt>
<totfact> 0.24664447E+03</totfact>
</mgrwt>
</event>
<event>
 8    3  0.1559595E-003  0.1262117E+03  0.7818608E-02  0.1246288E+00
         -2   -1    0    0    0  501 -0.00000000000E+00  0.00000000000E+00  0.39485286386E+01  0.39485294620E+01  0.25500000000E-02 0.  1.
          2   -1    0    0  501    0  0.00000000000E+00 -0.00000000000E+00 -0.32588724759E+04  0.32588724759E+04  0.25500000000E-02 0. -1.
         25    2    1    2    0    0  0.14473333563E+02  0.97251053180E+01 -0.15350316591E+04  0.15402115389E+04  0.12500134052E+03 0.  0.
         23    2    1    2    0    0 -0.14473333563E+02 -0.97251053180E+01 -0.17198922882E+04  0.17226094664E+04  0.95130625649E+02 0.  0.
        -13    1    4    4    0    0  0.18033384388E+02 -0.24198675355E+02 -0.19670955804E+03  0.19901115604E+03  0.10566000000E+00 0.  1.
         13    1    4    4    0    0 -0.32506717950E+02  0.14473570037E+02 -0.15231827301E+04  0.15235983104E+04  0.10566000000E+00 0. -1.
    9000005    1    3    3    0    0 -0.52646896716E+02  0.12802331673E+02 -0.48169996457E+03  0.48473853911E+03  0.10000000000E+01 0.  0.
    9000005    1    3    3    0    0  0.67120230278E+02 -0.30772263546E+01 -0.10533316945E+04  0.10554729998E+04  0.10000000000E+01 0.  0.
<mgrwt>
<rscale>  0 0.11808608E+03</rscale>
<asrwt>0</asrwt>
<pdfrwt beam="2">  1        2 0.50136285E+00 0.12621169E+03</pdfrwt>
<pdfrwt beam="1">  1       -2 0.60746861E-03 0.12621169E+03</pdfrwt>
<totfact> 0.64020310E+03</totfact>
</mgrwt>
</event>
<event>
 8    3  0.1559595E-003  0.1376760E+03  0.7818608E-02  0.1228038E+00
         -2   -1    0    0    0  501 -0.00000000000E+00  0.00000000000E+00  0.51599841737E+02  0.51599841800E+02  0.25500000000E-02 0.  1.
          2   -1    0    0  501    0  0.00000000000E+00 -0.00000000000E+00 -0.29374716995E+03  0.29374716996E+03  0.25500000000E-02 0. -1.
         25    2    1    2    0    0 -0.15902890535E+02 -0.55437565142E+02 -0.12554888710E+03  0.18632549863E+03  0.12501377057E+03 0.  0.
         23    2    1    2    0    0  0.15902890535E+02  0.55437565142E+02 -0.11659844111E+03  0.15902151313E+03  0.91468134413E+02 0.  0.
        -13    1    4    4    0    0  0.32296045723E+02  0.44235565533E+02 -0.16832390307E+02  0.57298868705E+02  0.10566000000E+00 0.  1.
         13    1    4    4    0    0 -0.16393155188E+02  0.11201999609E+02 -0.99766050801E+02  0.10172264442E+03  0.10566000000E+00 0. -1.
    9000005    1    3    3    0    0 -0.61462412601E+02 -0.54624086754E+02 -0.44911658146E+02  0.93698858338E+02  0.10000000000E+01 0.  0.
    9000005    1    3    3    0    0  0.45559522066E+02 -0.81347838773E+00 -0.80637228957E+02  0.92626640293E+02  0.10000000000E+01 0.  0.
<mgrwt>
<rscale>  0 0.12960826E+03</rscale>
<asrwt>0</asrwt>
<pdfrwt beam="2">  1        2 0.45191871E-01 0.13767595E+03</pdfrwt>
<pdfrwt beam="1">  1       -2 0.79384374E-02 0.13767595E+03</pdfrwt>
<totfact> 0.10137393E+04</totfact>
</mgrwt>
</event>
<event>
 8    3  0.1559595E-003  0.1544225E+03  0.7818608E-02  0.1203862E+00
          2   -1    0    0  501    0  0.00000000000E+00  0.00000000000E+00  0.86141368649E+03  0.86141368649E+03  0.25500000000E-02 0. -1.
         -2   -1    0    0    0  501 -0.00000000000E+00 -0.00000000000E+00 -0.28993481588E+02  0.28993481700E+02  0.25500000000E-02 0.  1.
         25    2    1    2    0    0  0.83447086333E+02  0.35522538532E+02  0.64741627486E+03  0.66557805540E+03  0.12498419066E+03 0.  0.
         23    2    1    2    0    0 -0.83447086333E+02 -0.35522538532E+02  0.18500393004E+03  0.22482911279E+03  0.89980047050E+02 0.  0.
        -13    1    4    4    0    0 -0.63486735080E+02  0.21744111926E+02  0.96360814653E+02  0.11742567734E+03  0.10566000000E+00 0.  1.
         13    1    4    4    0    0 -0.19960351253E+02 -0.57266650458E+02  0.88643115388E+02  0.10740343545E+03  0.10566000000E+00 0. -1.
    9000005    1    3    3    0    0  0.54468856853E+02 -0.21888582242E+02  0.11334801426E+03  0.12765084699E+03  0.10000000000E+01 0.  0.
    9000005    1    3    3    0    0  0.28978229480E+02  0.57411120774E+02  0.53406826059E+03  0.53792720841E+03  0.10000000000E+01 0.  0.
<mgrwt>
<rscale>  0 0.14727484E+03</rscale>
<asrwt>0</asrwt>
<pdfrwt beam="1">  1        2 0.13252517E+00 0.15442252E+03</pdfrwt>
<pdfrwt beam="2">  1       -2 0.44605362E-02 0.15442252E+03</pdfrwt>
<totfact> 0.73029508E+03</totfact>
</mgrwt>
</event>
<event>
 8    3  0.1559595E-003  0.1618616E+03  0.7818608E-02  0.1194723E+00
          2   -1    0    0  501    0  0.00000000000E+00  0.00000000000E+00  0.12501517348E+03  0.12501517351E+03  0.25500000000E-02 0.  1.
         -2   -1    0    0    0  501 -0.00000000000E+00 -0.00000000000E+00 -0.18643267423E+03  0.18643267425E+03  0.25500000000E-02 0. -1.
         25    2    1    2    0    0 -0.98901625714E+02 -0.28151760989E+02  0.22769705359E+01  0.16187765222E+03  0.12500054592E+03 0.  0.
         23    2    1    2    0    0  0.98901625714E+02  0.28151760989E+02 -0.63694471283E+02  0.14957019553E+03  0.87978432033E+02 0.  0.
        -13    1    4    4    0    0  0.86920373375E+02  0.14391415221E+02 -0.51564438363E+01  0.88254542188E+02  0.10566000000E+00 0.  1.
         13    1    4    4    0    0  0.11981252339E+02  0.13760345768E+02 -0.58538027447E+02  0.61315653341E+02  0.10566000000E+00 0. -1.
    9000005    1    3    3    0    0 -0.40201703746E+02 -0.51800724527E+02 -0.47816832625E+02  0.81159974913E+02  0.10000000000E+01 0.  0.
    9000005    1    3    3    0    0 -0.58699921968E+02  0.23648963538E+02  0.50093803161E+02  0.80717677312E+02  0.10000000000E+01 0.  0.
<mgrwt>
<rscale>  0 0.15477707E+03</rscale>
<asrwt>0</asrwt>
<pdfrwt beam="1">  1        2 0.19233104E-01 0.16186164E+03</pdfrwt>
<pdfrwt beam="2">  1       -2 0.28681950E-01 0.16186164E+03</pdfrwt>
<totfact> 0.31342549E+03</totfact>
</mgrwt>
</event>
<event>
 8    3  0.1559595E-003  0.1629035E+03  0.7818608E-02  0.1191816E+00
          2   -1    0    0  501    0  0.00000000000E+00  0.00000000000E+00  0.18597319698E+03  0.18597319700E+03  0.25500000000E-02 0. -1.
         -2   -1    0    0    0  501 -0.00000000000E+00 -0.00000000000E+00 -0.12467161916E+03  0.12467161919E+03  0.25500000000E-02 0.  1.
         25    2    1    2    0    0  0.10436186977E+03 -0.34092270107E+01  0.28320523615E+02  0.16534690551E+03  0.12503809185E+03 0.  0.
         23    2    1    2    0    0 -0.10436186977E+03  0.34092270107E+01  0.32981054205E+02  0.14529791068E+03  0.95502409504E+02 0.  0.
        -13    1    4    4    0    0 -0.10501171060E+03  0.24734946750E+02  0.49124145298E+02  0.11854311355E+03  0.10566000000E+00 0. -1.
         13    1    4    4    0    0  0.64984083348E+00 -0.21325719740E+02 -0.16143091093E+02  0.26754797133E+02  0.10566000000E+00 0.  1.
    9000005    1    3    3    0    0  0.47543817189E+02  0.59492705187E+02  0.61883608705E+00  0.76165474341E+02  0.10000000000E+01 0.  0.
    9000005    1    3    3    0    0  0.56818052577E+02 -0.62901932198E+02  0.27701687528E+02  0.89181431166E+02  0.10000000000E+01 0.  0.
<mgrwt>
<rscale>  0 0.15726820E+03</rscale>
<asrwt>0</asrwt>
<pdfrwt beam="1">  1        2 0.28611261E-01 0.16290349E+03</pdfrwt>
<pdfrwt beam="2">  1       -2 0.19180249E-01 0.16290349E+03</pdfrwt>
<totfact> 0.40493097E+03</totfact>
</mgrwt>
</event>
<event>
 8    3  0.1559595E-003  0.1782666E+03  0.7818608E-02  0.1175244E+00
          2   -1    0    0  501    0  0.00000000000E+00  0.00000000000E+00  0.23049929222E+04  0.23049929222E+04  0.25500000000E-02 0. -1.
         -2   -1    0    0    0  501 -0.00000000000E+00 -0.00000000000E+00 -0.12299527374E+02  0.12299527639E+02  0.25500000000E-02 0.  1.
         25    2    1    2    0    0 -0.96503544975E+02 -0.82711037883E+02  0.13497374225E+04  0.13614588065E+04  0.12499968886E+03 0.  0.
         23    2    1    2    0    0  0.96503544975E+02  0.82711037883E+02  0.94295597233E+03  0.95583364331E+03  0.91093018110E+02 0.  0.
        -13    1    4    4    0    0  0.60883058762E+02  0.84684569149E+02  0.46525169924E+03  0.47679909596E+03  0.10566000000E+00 0.  1.
         13    1    4    4    0    0  0.35620486213E+02 -0.19735312663E+01  0.47770427309E+03  0.47903454736E+03  0.10566000000E+00 0. -1.
    9000005    1    3    3    0    0 -0.11911022790E+03 -0.32941415754E+02  0.92957900943E+03  0.93775824071E+03  0.10000000000E+01 0.  0.
    9000005    1    3    3    0    0  0.22606682927E+02 -0.49769622129E+02  0.42015841309E+03  0.42370056583E+03  0.10000000000E+01 0.  0.
<mgrwt>
<rscale>  0 0.17252090E+03</rscale>
<asrwt>0</asrwt>
<pdfrwt beam="1">  1        2 0.35461412E+00 0.17826658E+03</pdfrwt>
<pdfrwt beam="2">  1       -2 0.18922360E-02 0.17826658E+03</pdfrwt>
<totfact> 0.42963514E+03</totfact>
</mgrwt>
</event>
<event>
 8    3  0.1559595E-003  0.1397693E+03  0.7818608E-02  0.1224978E+00
         -2   -1    0    0    0  501 -0.00000000000E+00  0.00000000000E+00  0.20813385669E+02  0.20813385826E+02  0.25500000000E-02 0.  1.
          2   -1    0    0  501    0  0.00000000000E+00 -0.00000000000E+00 -0.14948206953E+04  0.14948206953E+04  0.25500000000E-02 0. -1.
         25    2    1    2    0    0  0.32770068684E+02 -0.53250058128E+02 -0.24787116746E+03  0.28456209293E+03  0.12500409186E+03 0.  0.
         23    2    1    2    0    0 -0.32770068684E+02  0.53250058128E+02 -0.12261361422E+04  0.12310719882E+04  0.90658451908E+02 0.  0.
        -13    1    4    4    0    0 -0.26389706402E+02  0.35073947963E+02 -0.20021003138E+03  0.20496503667E+03  0.10566000000E+00 0.  1.
         13    1    4    4    0    0 -0.63803622813E+01  0.18176110165E+02 -0.10259261108E+04  0.10261069516E+04  0.10566000000E+00 0. -1.
    9000005    1    3    3    0    0 -0.13631034290E+02  0.93877782632E+01 -0.18127301528E+03  0.18202978202E+03  0.10000000000E+01 0.  0.
    9000005    1    3    3    0    0  0.46401102973E+02 -0.62637836391E+02 -0.66598152184E+02  0.10253231090E+03  0.10000000000E+01 0.  0.
<mgrwt>
<rscale>  0 0.13168442E+03</rscale>
<asrwt>0</asrwt>
<pdfrwt beam="2">  1        2 0.22997233E+00 0.13976934E+03</pdfrwt>
<pdfrwt beam="1">  1       -2 0.32020605E-02 0.13976934E+03</pdfrwt>
<totfact> 0.52025462E+03</totfact>
</mgrwt>
</event>
<event>
 8    3  0.1559595E-003  0.1414221E+03  0.7818608E-02  0.1222379E+00
         -2   -1    0    0    0  501 -0.00000000000E+00  0.00000000000E+00  0.11165280001E+02  0.11165280293E+02  0.25500000000E-02 0.  1.
          2   -1    0    0  501    0  0.00000000000E+00 -0.00000000000E+00 -0.15028729576E+04  0.15028729576E+04  0.25500000000E-02 0. -1.
         25    2    1    2    0    0 -0.13726236784E+02  0.64692454650E+02 -0.98111152704E+03  0.99125175167E+03  0.12500673356E+03 0.  0.
         23    2    1    2    0    0  0.13726236784E+02 -0.64692454650E+02 -0.51059615055E+03  0.52278648621E+03  0.90684937818E+02 0.  0.
        -13    1    4    4    0    0  0.21516128569E+01 -0.61591461927E+02 -0.50632935481E+03  0.51006623524E+03  0.10566000000E+00 0. -1.
         13    1    4    4    0    0  0.11574623928E+02 -0.31009927230E+01 -0.42667957320E+01  0.12720250972E+02  0.10566000000E+00 0.  1.
    9000005    1    3    3    0    0 -0.15060984300E+01 -0.10789627406E+01  0.36534522966E+01  0.42166582456E+01  0.10000000000E+01 0.  0.
    9000005    1    3    3    0    0 -0.12220138354E+02  0.65771417391E+02 -0.98476497933E+03  0.98703509342E+03  0.10000000000E+01 0.  0.
<mgrwt>
<rscale>  0 0.13348195E+03</rscale>
<asrwt>0</asrwt>
<pdfrwt beam="2">  1        2 0.23121106E+00 0.14142209E+03</pdfrwt>
<pdfrwt beam="1">  1       -2 0.17177366E-02 0.14142209E+03</pdfrwt>
<totfact> 0.12796757E+04</totfact>
</mgrwt>
</event>
<event>
 8    3  0.1559595E-003  0.1307691E+03  0.7818608E-02  0.1240625E+00
          2   -1    0    0  501    0  0.00000000000E+00  0.00000000000E+00  0.24388146455E+03  0.24388146456E+03  0.25500000000E-02 0. -1.
         -2   -1    0    0    0  501 -0.00000000000E+00 -0.00000000000E+00 -0.92072401150E+02  0.92072401185E+02  0.25500000000E-02 0.  1.
         25    2    1    2    0    0 -0.37784567832E+02 -0.69227710943E+01 -0.25855203226E+02  0.13330060755E+03  0.12499984845E+03 0.  0.
         23    2    1    2    0    0  0.37784567832E+02  0.69227710943E+01  0.17766426663E+03  0.20265325820E+03  0.89599961482E+02 0.  0.
        -13    1    4    4    0    0 -0.22252900785E+02  0.21345214986E+02  0.92185834317E+02  0.97206218982E+02  0.10566000000E+00 0. -1.
         13    1    4    4    0    0  0.60037468617E+02 -0.14422443892E+02  0.85478432309E+02  0.10544703922E+03  0.10566000000E+00 0.  1.
    9000005    1    3    3    0    0  0.43846754107E+02 -0.18633553181E+02 -0.15868425201E+02  0.50225034278E+02  0.10000000000E+01 0.  0.
    9000005    1    3    3    0    0 -0.81631321939E+02  0.11710782086E+02 -0.99867780251E+01  0.83075573269E+02  0.10000000000E+01 0.  0.
<mgrwt>
<rscale>  0 0.12151105E+03</rscale>
<asrwt>0</asrwt>
<pdfrwt beam="1">  1        2 0.37520225E-01 0.13076911E+03</pdfrwt>
<pdfrwt beam="2">  1       -2 0.14164985E-01 0.13076911E+03</pdfrwt>
<totfact> 0.49300711E+03</totfact>
</mgrwt>
</event>
<event>
 8    3  0.1559595E-003  0.1416991E+03  0.7818608E-02  0.1222130E+00
         -2   -1    0    0    0  501 -0.00000000000E+00  0.00000000000E+00  0.47076114410E+01  0.47076121316E+01  0.25500000000E-02 0.  1.
          2   -1    0    0  501    0  0.00000000000E+00 -0.00000000000E+00 -0.36172024278E+04  0.36172024278E+04  0.25500000000E-02 0. -1.
         25    2    1    2    0    0  0.31729597862E+02 -0.58697939517E+02 -0.24226415713E+04  0.24267819856E+04  0.12500562971E+03 0.  0.
         23    2    1    2    0    0 -0.31729597862E+02  0.58697939517E+02 -0.11898532450E+04  0.11951280542E+04  0.90156008356E+02 0.  0.
        -13    1    4    4    0    0 -0.87537969157E-02  0.99595260682E+01 -0.10991733643E+02  0.14833125383E+02  0.10566000000E+00 0.  1.
         13    1    4    4    0    0 -0.31720844065E+02  0.48738413448E+02 -0.11788615114E+04  0.11802949289E+04  0.10566000000E+00 0. -1.
    9000005    1    3    3    0    0  0.19912321438E+02  0.34149642030E+02 -0.11608869789E+04  0.11615602766E+04  0.10000000000E+01 0.  0.
    9000005    1    3    3    0    0  0.11817276424E+02 -0.92847581547E+02 -0.12617545924E+04  0.12652217090E+04  0.10000000000E+01 0.  0.
<mgrwt>
<rscale>  0 0.13365545E+03</rscale>
<asrwt>0</asrwt>
<pdfrwt beam="2">  1        2 0.55649046E+00 0.14169906E+03</pdfrwt>
<pdfrwt beam="1">  1       -2 0.72425086E-03 0.14169906E+03</pdfrwt>
<totfact> 0.29418810E+03</totfact>
</mgrwt>
</event>
<event>
 8    3  0.1559595E-003  0.1416382E+03  0.7818608E-02  0.1219428E+00
          2   -1    0    0  501    0  0.00000000000E+00  0.00000000000E+00  0.33137944913E+04  0.33137944913E+04  0.25500000000E-02 0. -1.
         -2   -1    0    0    0  501 -0.00000000000E+00 -0.00000000000E+00 -0.51580510494E+01  0.51580516797E+01  0.25500000000E-02 0.  1.
         25    2    1    2    0    0 -0.65636091204E+02 -0.11378221344E+02  0.19412919461E+04  0.19464521067E+04  0.12499529240E+03 0.  0.
         23    2    1    2    0    0  0.65636091204E+02  0.11378221344E+02  0.13673444941E+04  0.13725004363E+04  0.98432320090E+02 0.  0.
        -13    1    4    4    0    0  0.20217014252E+02  0.36052876946E+02  0.10625852314E+04  0.10633888860E+04  0.10566000000E+00 0. -1.
         13    1    4    4    0    0  0.45419076952E+02 -0.24674655603E+02  0.30475926268E+03  0.30911155030E+03  0.10566000000E+00 0.  1.
    9000005    1    3    3    0    0 -0.32372281325E+02  0.31924011595E+02  0.16135813863E+04  0.16142221028E+04  0.10000000000E+01 0.  0.
    9000005    1    3    3    0    0 -0.33263809879E+02 -0.43302232938E+02  0.32771055986E+03  0.33223000387E+03  0.10000000000E+01 0.  0.
<mgrwt>
<rscale>  0 0.13556250E+03</rscale>
<asrwt>0</asrwt>
<pdfrwt beam="1">  1        2 0.50981376E+00 0.14163821E+03</pdfrwt>
<pdfrwt beam="2">  1       -2 0.79354757E-03 0.14163821E+03</pdfrwt>
<totfact> 0.40470374E+03</totfact>
</mgrwt>
</event>
<event>
 8    3  0.1559595E-003  0.1269652E+03  0.7818608E-02  0.1253434E+00
         -2   -1    0    0    0  501 -0.00000000000E+00  0.00000000000E+00  0.66950238527E+01  0.66950243384E+01  0.25500000000E-02 0.  1.
          2   -1    0    0  501    0  0.00000000000E+00 -0.00000000000E+00 -0.16525416846E+04  0.16525416846E+04  0.25500000000E-02 0. -1.
         25    2    1    2    0    0  0.20047406897E+01  0.22148007981E+02 -0.10771502514E+04  0.10846072274E+04  0.12500248180E+03 0.  0.
         23    2    1    2    0    0 -0.20047406897E+01 -0.22148007981E+02 -0.56869640938E+03  0.57462948155E+03  0.79302470170E+02 0.  0.
        -13    1    4    4    0    0  0.12558784034E+02 -0.37845454233E+02 -0.14472708213E+03  0.15011975529E+03  0.10566000000E+00 0.  1.
         13    1    4    4    0    0 -0.14563524724E+02  0.15697446252E+02 -0.42396932725E+03  0.42450972625E+03  0.10566000000E+00 0. -1.
    9000005    1    3    3    0    0  0.57805563333E+02 -0.89352026179E+01 -0.37231660599E+03  0.37688456601E+03  0.10000000000E+01 0.  0.
    9000005    1    3    3    0    0 -0.55800822643E+02  0.31083210599E+02 -0.70483364537E+03  0.70772266138E+03  0.10000000000E+01 0.  0.
<mgrwt>
<rscale>  0 0.11394489E+03</rscale>
<asrwt>0</asrwt>
<pdfrwt beam="2">  1        2 0.25423686E+00 0.12696525E+03</pdfrwt>
<pdfrwt beam="1">  1       -2 0.10300050E-02 0.12696525E+03</pdfrwt>
<totfact> 0.22215611E+04</totfact>
</mgrwt>
</event>
<event>
 8    3  0.1559595E-003  0.1494086E+03  0.7818608E-02  0.1210334E+00
          2   -1    0    0  501    0  0.00000000000E+00  0.00000000000E+00  0.15160500824E+04  0.15160500824E+04  0.25500000000E-02 0. -1.
         -2   -1    0    0    0  501 -0.00000000000E+00 -0.00000000000E+00 -0.12408853042E+02  0.12408853304E+02  0.25500000000E-02 0.  1.
         25    2    1    2    0    0  0.81144328172E+02 -0.99632564533E+01  0.72936828175E+03  0.74451395182E+03  0.12505704924E+03 0.  0.
         23    2    1    2    0    0 -0.81144328172E+02  0.99632564533E+01  0.77427294761E+03  0.78394498389E+03  0.91583141914E+02 0.  0.
        -13    1    4    4    0    0  0.15303352272E+02  0.57776604094E+01  0.38017297224E+02  0.41387196121E+02  0.10566000000E+00 0.  1.
         13    1    4    4    0    0 -0.96447680444E+02  0.41855960439E+01  0.73625565039E+03  0.74255778777E+03  0.10566000000E+00 0. -1.
    9000005    1    3    3    0    0  0.12183663075E+02  0.47907122740E+02  0.40066363088E+03  0.40370271136E+03  0.10000000000E+01 0.  0.
    9000005    1    3    3    0    0  0.68960665097E+02 -0.57870379194E+02  0.32870465087E+03  0.34081124046E+03  0.10000000000E+01 0.  0.
<mgrwt>
<rscale>  0 0.14224925E+03</rscale>
<asrwt>0</asrwt>
<pdfrwt beam="1">  1        2 0.23323821E+00 0.14940861E+03</pdfrwt>
<pdfrwt beam="2">  1       -2 0.19090565E-02 0.14940861E+03</pdfrwt>
<totfact> 0.10833465E+04</totfact>
</mgrwt>
</event>
<event>
 8    3  0.1559595E-003  0.1345763E+03  0.7818608E-02  0.1233143E+00
         -2   -1    0    0    0  501 -0.00000000000E+00  0.00000000000E+00  0.73133084946E+01  0.73133089392E+01  0.25500000000E-02 0.  1.
          2   -1    0    0  501    0  0.00000000000E+00 -0.00000000000E+00 -0.19503252249E+04  0.19503252249E+04  0.25500000000E-02 0. -1.
         25    2    1    2    0    0  0.44102629972E+02  0.23260282589E+02 -0.10704727398E+04  0.10788988247E+04  0.12499881819E+03 0.  0.
         23    2    1    2    0    0 -0.44102629972E+02 -0.23260282589E+02 -0.87253917662E+03  0.87873970916E+03  0.91502890717E+02 0.  0.
        -13    1    4    4    0    0  0.25613428851E+02  0.57585924400E+01 -0.31812375473E+03  0.31920517479E+03  0.10566000000E+00 0. -1.
         13    1    4    4    0    0 -0.69716058823E+02 -0.29018875029E+02 -0.55441542189E+03  0.55953453438E+03  0.10566000000E+00 0.  1.
    9000005    1    3    3    0    0  0.34581210355E+02 -0.33751524588E+02 -0.17469903047E+03  0.18126162519E+03  0.10000000000E+01 0.  0.
    9000005    1    3    3    0    0  0.95214196173E+01  0.57011807177E+02 -0.89577370935E+03  0.89763719952E+03  0.10000000000E+01 0.  0.
<mgrwt>
<rscale>  0 0.12624074E+03</rscale>
<asrwt>0</asrwt>
<pdfrwt beam="2">  1        2 0.30004962E+00 0.13457633E+03</pdfrwt>
<pdfrwt beam="1">  1       -2 0.11251260E-02 0.13457633E+03</pdfrwt>
<totfact> 0.13837142E+04</totfact>
</mgrwt>
</event>
<event>
 8    3  0.1559595E-003  0.2533273E+03  0.7818608E-02  0.1113635E+00
          2   -1    0    0  501    0  0.00000000000E+00  0.00000000000E+00  0.79182499338E+03  0.79182499338E+03  0.25500000000E-02 0. -1.
         -2   -1    0    0    0  501 -0.00000000000E+00 -0.00000000000E+00 -0.76579688850E+02  0.76579688893E+02  0.25500000000E-02 0.  1.
         25    2    1    2    0    0  0.77144248538E+01  0.22020496828E+03  0.34248451105E+03  0.42599336213E+03  0.12499985544E+03 0.  0.
         23    2    1    2    0    0 -0.77144248538E+01 -0.22020496828E+03  0.37276079348E+03  0.44241132015E+03  0.90705163219E+02 0.  0.
        -13    1    4    4    0    0 -0.14821464967E+02 -0.12340081891E+03  0.28751043796E+03  0.31322468139E+03  0.10566000000E+00 0.  1.
         13    1    4    4    0    0  0.71070401133E+01 -0.96804149366E+02  0.85250355523E+02  0.12918663876E+03  0.10566000000E+00 0. -1.
    9000005    1    3    3    0    0  0.61760108074E+02  0.16436313834E+03  0.23480661942E+03  0.29319737502E+03  0.10000000000E+01 0.  0.
    9000005    1    3    3    0    0 -0.54045683221E+02  0.55841829937E+02  0.10767789163E+03  0.13279598711E+03  0.10000000000E+01 0.  0.
<mgrwt>
<rscale>  0 0.24947853E+03</rscale>
<asrwt>0</asrwt>
<pdfrwt beam="1">  1        2 0.12181923E+00 0.25332727E+03</pdfrwt>
<pdfrwt beam="2">  1       -2 0.11781491E-01 0.25332727E+03</pdfrwt>
<totfact> 0.18285027E+03</totfact>
</mgrwt>
</event>
<event>
 8    3  0.1559595E-003  0.1412755E+03  0.7818608E-02  0.1222550E+00
          2   -1    0    0  501    0  0.00000000000E+00  0.00000000000E+00  0.16911451653E+04  0.16911451653E+04  0.25500000000E-02 0. -1.
         -2   -1    0    0    0  501 -0.00000000000E+00 -0.00000000000E+00 -0.10763849894E+02  0.10763850196E+02  0.25500000000E-02 0.  1.
         25    2    1    2    0    0 -0.35429570311E+02 -0.55478764217E+02  0.12155298602E+04  0.12237122296E+04  0.12500252870E+03 0.  0.
         23    2    1    2    0    0  0.35429570311E+02  0.55478764217E+02  0.46485145524E+03  0.47819678590E+03  0.90841305998E+02 0.  0.
        -13    1    4    4    0    0  0.63218769629E+02  0.51401043587E+02  0.38563302152E+03  0.39414656990E+03  0.10566000000E+00 0. -1.
         13    1    4    4    0    0 -0.27789199317E+02  0.40777206306E+01  0.79218433718E+02  0.84050215996E+02  0.10566000000E+00 0.  1.
    9000005    1    3    3    0    0  0.12304295448E+02 -0.39540856491E+02  0.10471756848E+04  0.10479946516E+04  0.10000000000E+01 0.  0.
    9000005    1    3    3    0    0 -0.47733865759E+02 -0.15937907726E+02  0.16835417542E+03  0.17571757802E+03  0.10000000000E+01 0.  0.
<mgrwt>
<rscale>  0 0.13336232E+03</rscale>
<asrwt>0</asrwt>
<pdfrwt beam="1">  1        2 0.26017632E+00 0.14127555E+03</pdfrwt>
<pdfrwt beam="2">  1       -2 0.16559760E-02 0.14127555E+03</pdfrwt>
<totfact> 0.10783902E+04</totfact>
</mgrwt>
</event>
<event>
 8    3  0.1559595E-003  0.1407382E+03  0.7818608E-02  0.1223035E+00
         -2   -1    0    0    0  501 -0.00000000000E+00  0.00000000000E+00  0.26669535661E+03  0.26669535662E+03  0.25500000000E-02 0.  1.
          2   -1    0    0  501    0  0.00000000000E+00 -0.00000000000E+00 -0.62964081906E+02  0.62964081958E+02  0.25500000000E-02 0. -1.
         25    2    1    2    0    0  0.62212998818E+02  0.17642399229E+02  0.14810756256E+03  0.20431124578E+03  0.12500209434E+03 0.  0.
         23    2    1    2    0    0 -0.62212998818E+02 -0.17642399229E+02  0.55623712142E+02  0.12534819280E+03  0.91850207481E+02 0.  0.
        -13    1    4    4    0    0 -0.47182116911E+02 -0.37408004795E+02 -0.44179861485E+01  0.60374172828E+02  0.10566000000E+00 0. -1.
         13    1    4    4    0    0 -0.15030881907E+02  0.19765605566E+02  0.60041698290E+02  0.64974019976E+02  0.10566000000E+00 0.  1.
    9000005    1    3    3    0    0  0.84631618037E+02 -0.25879719490E+02  0.11537237575E+03  0.14540995750E+03  0.10000000000E+01 0.  0.
    9000005    1    3    3    0    0 -0.22418619219E+02  0.43522118719E+02  0.32735186810E+02  0.58901288279E+02  0.10000000000E+01 0.  0.
<mgrwt>
<rscale>  0 0.13302507E+03</rscale>
<asrwt>0</asrwt>
<pdfrwt beam="2">  1        2 0.96867818E-02 0.14073818E+03</pdfrwt>
<pdfrwt beam="1">  1       -2 0.41030055E-01 0.14073818E+03</pdfrwt>
<totfact> 0.36265525E+03</totfact>
</mgrwt>
</event>
<event>
 8    3  0.1559595E-003  0.1375906E+03  0.7818608E-02  0.1227854E+00
          2   -1    0    0  501    0  0.00000000000E+00  0.00000000000E+00  0.22121901009E+03  0.22121901010E+03  0.25500000000E-02 0. -1.
         -2   -1    0    0    0  501 -0.00000000000E+00 -0.00000000000E+00 -0.86331730781E+02  0.86331730818E+02  0.25500000000E-02 0.  1.
         25    2    1    2    0    0  0.53548370463E+02  0.20964159497E+02  0.43611883591E+01  0.13765968547E+03  0.12499698028E+03 0.  0.
         23    2    1    2    0    0 -0.53548370463E+02 -0.20964159497E+02  0.13052609095E+03  0.16989105545E+03  0.92298355024E+02 0.  0.
        -13    1    4    4    0    0 -0.58639059185E+02 -0.34839161463E+02  0.13754574075E+03  0.15352898227E+03  0.10566000000E+00 0. -1.
         13    1    4    4    0    0  0.50906887215E+01  0.13875001966E+02 -0.70196498054E+01  0.16362073177E+02  0.10566000000E+00 0.  1.
    9000005    1    3    3    0    0 -0.10988593748E+01  0.66338729302E+02 -0.15901453342E+01  0.66374415700E+02  0.10000000000E+01 0.  0.
    9000005    1    3    3    0    0  0.54647229838E+02 -0.45374569806E+02  0.59513336933E+01  0.71285269774E+02  0.10000000000E+01 0.  0.
<mgrwt>
<rscale>  0 0.12973163E+03</rscale>
<asrwt>0</asrwt>
<pdfrwt beam="1">  1        2 0.34033694E-01 0.13759058E+03</pdfrwt>
<pdfrwt beam="2">  1       -2 0.13281805E-01 0.13759058E+03</pdfrwt>
<totfact> 0.60919071E+03</totfact>
</mgrwt>
</event>
<event>
 8    3  0.1559595E-003  0.1662207E+03  0.7818608E-02  0.1188846E+00
         -2   -1    0    0    0  501 -0.00000000000E+00  0.00000000000E+00  0.41290049555E+02  0.41290049633E+02  0.25500000000E-02 0.  1.
          2   -1    0    0  501    0  0.00000000000E+00 -0.00000000000E+00 -0.72756979601E+03  0.72756979601E+03  0.25500000000E-02 0. -1.
         25    2    1    2    0    0  0.10075576352E+03 -0.43044276977E+02 -0.53927879126E+03  0.56431457516E+03  0.12499916548E+03 0.  0.
         23    2    1    2    0    0 -0.10075576352E+03  0.43044276977E+02 -0.14700095519E+03  0.20454527049E+03  0.90691527657E+02 0.  0.
        -13    1    4    4    0    0 -0.20830264920E+02  0.17550238641E+02  0.79211662554E+01  0.28366650347E+02  0.10566000000E+00 0.  1.
         13    1    4    4    0    0 -0.79925498596E+02  0.25494038335E+02 -0.15492212145E+03  0.17617862014E+03  0.10566000000E+00 0. -1.
    9000005    1    3    3    0    0 -0.53824199979E+01  0.23753503179E+01  0.50863529208E+01  0.78411555399E+01  0.10000000000E+01 0.  0.
    9000005    1    3    3    0    0  0.10613818351E+03 -0.45419627294E+02 -0.54436514418E+03  0.55647341962E+03  0.10000000000E+01 0.  0.
<mgrwt>
<rscale>  0 0.15986815E+03</rscale>
<asrwt>0</asrwt>
<pdfrwt beam="2">  1        2 0.11193381E+00 0.16622071E+03</pdfrwt>
<pdfrwt beam="1">  1       -2 0.63523158E-02 0.16622071E+03</pdfrwt>
<totfact> 0.52991996E+03</totfact>
</mgrwt>
</event>
<event>
 8    3  0.1559595E-003  0.1874288E+03  0.7818608E-02  0.1167260E+00
          2   -1    0    0  501    0  0.00000000000E+00  0.00000000000E+00  0.17569583779E+04  0.17569583779E+04  0.25500000000E-02 0. -1.
         -2   -1    0    0    0  501 -0.00000000000E+00 -0.00000000000E+00 -0.18860695024E+02  0.18860695197E+02  0.25500000000E-02 0.  1.
         25    2    1    2    0    0 -0.12495013510E+03 -0.62386031813E+02  0.67520021674E+03  0.70073167783E+03  0.12499999356E+03 0.  0.
         23    2    1    2    0    0  0.12495013510E+03  0.62386031813E+02  0.10628974662E+04  0.10750873953E+04  0.80977347072E+02 0.  0.
        -13    1    4    4    0    0  0.13299470970E+03  0.44643346217E+02  0.87391139559E+03  0.88509985859E+03  0.10566000000E+00 0. -1.
         13    1    4    4    0    0 -0.80445745905E+01  0.17742685596E+02  0.18898607058E+03  0.18998753672E+03  0.10566000000E+00 0.  1.
    9000005    1    3    3    0    0  0.49365747895E+01 -0.35434530111E+02  0.31231877518E+03  0.31436283658E+03  0.10000000000E+01 0.  0.
    9000005    1    3    3    0    0 -0.12988670989E+03 -0.26951501702E+02  0.36288144156E+03  0.38636884124E+03  0.10000000000E+01 0.  0.
<mgrwt>
<rscale>  0 0.18056266E+03</rscale>
<asrwt>0</asrwt>
<pdfrwt beam="1">  1        2 0.27030144E+00 0.18742879E+03</pdfrwt>
<pdfrwt beam="2">  1       -2 0.29016438E-02 0.18742879E+03</pdfrwt>
<totfact> 0.44220719E+03</totfact>
</mgrwt>
</event>
<event>
 8    3  0.1559595E-003  0.1768089E+03  0.7818608E-02  0.1176617E+00
         -2   -1    0    0    0  501 -0.00000000000E+00  0.00000000000E+00  0.26395405307E+03  0.26395405308E+03  0.25500000000E-02 0.  1.
          2   -1    0    0  501    0  0.00000000000E+00 -0.00000000000E+00 -0.10558623039E+03  0.10558623042E+03  0.25500000000E-02 0. -1.
         25    2    1    2    0    0  0.79836193040E+02 -0.96241650590E+02  0.10289162942E+03  0.20456800356E+03  0.12500043059E+03 0.  0.
         23    2    1    2    0    0 -0.79836193040E+02  0.96241650590E+02  0.55476193253E+02  0.16497227994E+03  0.92206139179E+02 0.  0.
        -13    1    4    4    0    0 -0.42461844746E+02 -0.22579386403E+01 -0.60810505604E+01  0.42954590978E+02  0.10566000000E+00 0. -1.
         13    1    4    4    0    0 -0.37374348295E+02  0.98499589231E+02  0.61557243814E+02  0.12201768896E+03  0.10566000000E+00 0.  1.
    9000005    1    3    3    0    0  0.28548398948E+02  0.17733811990E+02  0.66293547639E+02  0.74332587933E+02  0.10000000000E+01 0.  0.
    9000005    1    3    3    0    0  0.51287794092E+02 -0.11397546258E+03  0.36598081786E+02  0.13023541563E+03  0.10000000000E+01 0.  0.
<mgrwt>
<rscale>  0 0.17118522E+03</rscale>
<asrwt>0</asrwt>
<pdfrwt beam="2">  1        2 0.16244036E-01 0.17680888E+03</pdfrwt>
<pdfrwt beam="1">  1       -2 0.40608315E-01 0.17680888E+03</pdfrwt>
<totfact> 0.20119164E+03</totfact>
</mgrwt>
</event>
<event>
 8    3  0.1559595E-003  0.1617164E+03  0.7818608E-02  0.1194464E+00
         -2   -1    0    0    0  501 -0.00000000000E+00  0.00000000000E+00  0.28769589822E+02  0.28769589935E+02  0.25500000000E-02 0. -1.
          2   -1    0    0  501    0  0.00000000000E+00 -0.00000000000E+00 -0.78594660015E+03  0.78594660015E+03  0.25500000000E-02 0.  1.
         25    2    1    2    0    0 -0.98745475998E+02 -0.27862569406E+02 -0.46292455451E+03  0.49035838856E+03  0.12500085703E+03 0.  0.
         23    2    1    2    0    0  0.98745475998E+02  0.27862569406E+02 -0.29425245581E+03  0.32435780152E+03  0.89980463731E+02 0.  0.
        -13    1    4    4    0    0  0.49578725063E+02 -0.27744054526E+02 -0.84184869254E+02  0.10156222682E+03  0.10566000000E+00 0.  1.
         13    1    4    4    0    0  0.49166750936E+02  0.55606623933E+02 -0.21006758656E+03  0.22279557471E+03  0.10566000000E+00 0. -1.
    9000005    1    3    3    0    0 -0.10374666980E+01 -0.58848546966E+02 -0.15378897077E+03  0.16467020176E+03  0.10000000000E+01 0.  0.
    9000005    1    3    3    0    0 -0.97708009300E+02  0.30985977560E+02 -0.30913558375E+03  0.32568818681E+03  0.10000000000E+01 0.  0.
<mgrwt>
<rscale>  0 0.15499697E+03</rscale>
<asrwt>0</asrwt>
<pdfrwt beam="2">  1        2 0.12091485E+00 0.16171644E+03</pdfrwt>
<pdfrwt beam="1">  1       -2 0.44260914E-02 0.16171644E+03</pdfrwt>
<totfact> 0.83170446E+03</totfact>
</mgrwt>
</event>
<event>
 8    3  0.1559595E-003  0.2756436E+03  0.7818608E-02  0.1098536E+00
          2   -1    0    0  501    0  0.00000000000E+00  0.00000000000E+00  0.56161666780E+03  0.56161666781E+03  0.25500000000E-02 0. -1.
         -2   -1    0    0    0  501 -0.00000000000E+00 -0.00000000000E+00 -0.16906964120E+03  0.16906964122E+03  0.25500000000E-02 0.  1.
         25    2    1    2    0    0 -0.23794976007E+03 -0.61101585809E+02  0.36418119567E+03  0.45673554889E+03  0.12500370491E+03 0.  0.
         23    2    1    2    0    0  0.23794976007E+03  0.61101585809E+02  0.28365830931E+02  0.27395076014E+03  0.11785968992E+03 0.  0.
        -13    1    4    4    0    0  0.43261877456E+02  0.49986179280E+02  0.42244338469E+02  0.78452555451E+02  0.10566000000E+00 0. -1.
         13    1    4    4    0    0  0.19468788261E+03  0.11115406529E+02 -0.13878507538E+02  0.19549820468E+03  0.10566000000E+00 0.  1.
    9000005    1    3    3    0    0 -0.38553609533E+02  0.34105393281E+02  0.44076625407E+02  0.67773944596E+02  0.10000000000E+01 0.  0.
    9000005    1    3    3    0    0 -0.19939615054E+03 -0.95206979090E+02  0.32010457026E+03  0.38896160430E+03  0.10000000000E+01 0.  0.
<mgrwt>
<rscale>  0 0.27484887E+03</rscale>
<asrwt>0</asrwt>
<pdfrwt beam="1">  1        2 0.86402564E-01 0.27564364E+03</pdfrwt>
<pdfrwt beam="2">  1       -2 0.26010714E-01 0.27564364E+03</pdfrwt>
<totfact> 0.72428866E+02</totfact>
</mgrwt>
</event>
<event>
 8    3  0.1559595E-003  0.1667494E+03  0.7818608E-02  0.1188300E+00
         -2   -1    0    0    0  501 -0.00000000000E+00  0.00000000000E+00  0.63640446682E+01  0.63640451791E+01  0.25500000000E-02 0.  1.
          2   -1    0    0  501    0  0.00000000000E+00 -0.00000000000E+00 -0.39362479608E+04  0.39362479608E+04  0.25500000000E-02 0. -1.
         25    2    1    2    0    0  0.69958485983E+02  0.85412462959E+02 -0.16945583834E+04  0.17027429260E+04  0.12496350948E+03 0.  0.
         23    2    1    2    0    0 -0.69958485983E+02 -0.85412462959E+02 -0.22353255327E+04  0.22398690800E+04  0.90242892130E+02 0.  0.
        -13    1    4    4    0    0  0.14066713379E+02 -0.33648327963E+02 -0.97652745806E+03  0.97720825309E+03  0.10566000000E+00 0. -1.
         13    1    4    4    0    0 -0.84025199362E+02 -0.51764134996E+02 -0.12587980746E+04  0.12626608269E+04  0.10566000000E+00 0.  1.
    9000005    1    3    3    0    0  0.46805752710E+02  0.17754082085E+01 -0.11790149191E+04  0.11799453843E+04  0.10000000000E+01 0.  0.
    9000005    1    3    3    0    0  0.23152733273E+02  0.83637054750E+02 -0.51554346436E+03  0.52279754172E+03  0.10000000000E+01 0.  0.
<mgrwt>
<rscale>  0 0.16035188E+03</rscale>
<asrwt>0</asrwt>
<pdfrwt beam="2">  1        2 0.60557466E+00 0.16674938E+03</pdfrwt>
<pdfrwt beam="1">  1       -2 0.97908698E-03 0.16674938E+03</pdfrwt>
<totfact> 0.11324748E+03</totfact>
</mgrwt>
</event>
<event>
 8    3  0.1559595E-003  0.1262468E+03  0.7818608E-02  0.1248475E+00
         -2   -1    0    0    0  501 -0.00000000000E+00  0.00000000000E+00  0.99110987468E+01  0.99110990748E+01  0.25500000000E-02 0.  1.
          2   -1    0    0  501    0  0.00000000000E+00 -0.00000000000E+00 -0.12103892445E+04  0.12103892445E+04  0.25500000000E-02 0. -1.
         25    2    1    2    0    0 -0.91096369810E+01 -0.15117039210E+02 -0.65994274715E+03  0.67190973054E+03  0.12500698430E+03 0.  0.
         23    2    1    2    0    0  0.91096369810E+01  0.15117039210E+02 -0.54053539862E+03  0.54839061305E+03  0.90786766439E+02 0.  0.
        -13    1    4    4    0    0 -0.57248925260E+01  0.19039197809E+02 -0.52853992546E+03  0.52891372587E+03  0.10566000000E+00 0. -1.
         13    1    4    4    0    0  0.14834529507E+02 -0.39221585985E+01 -0.11995473160E+02  0.19476887178E+02  0.10566000000E+00 0.  1.
    9000005    1    3    3    0    0 -0.26360598226E+02  0.49162651818E+02 -0.38516672122E+03  0.38918665266E+03  0.10000000000E+01 0.  0.
    9000005    1    3    3    0    0  0.17250961245E+02 -0.64279691028E+02 -0.27477602592E+03  0.28272307788E+03  0.10000000000E+01 0.  0.
<mgrwt>
<rscale>  0 0.11679785E+03</rscale>
<asrwt>0</asrwt>
<pdfrwt beam="2">  1        2 0.18621361E+00 0.12624681E+03</pdfrwt>
<pdfrwt beam="1">  1       -2 0.15247854E-02 0.12624681E+03</pdfrwt>
<totfact> 0.21622513E+04</totfact>
</mgrwt>
</event>
<event>
 8    3  0.1559595E-003  0.1933183E+03  0.7818608E-02  0.1160230E+00
          2   -1    0    0  501    0  0.00000000000E+00  0.00000000000E+00  0.13186343757E+04  0.13186343757E+04  0.25500000000E-02 0. -1.
         -2   -1    0    0    0  501 -0.00000000000E+00 -0.00000000000E+00 -0.25578689083E+02  0.25578689210E+02  0.25500000000E-02 0.  1.
         25    2    1    2    0    0  0.77221762764E+02 -0.12564105281E+03  0.72877636335E+03  0.75398074978E+03  0.12499243362E+03 0.  0.
         23    2    1    2    0    0 -0.77221762764E+02  0.12564105281E+03  0.56427932323E+03  0.59023231510E+03  0.90631983133E+02 0.  0.
        -13    1    4    4    0    0 -0.58039297716E+02  0.19674705202E+02  0.27001249193E+03  0.27687977728E+03  0.10566000000E+00 0. -1.
         13    1    4    4    0    0 -0.19182465047E+02  0.10596634761E+03  0.29426683130E+03  0.31335253782E+03  0.10566000000E+00 0.  1.
    9000005    1    3    3    0    0  0.71147281992E+02 -0.10559166365E+03  0.72012187466E+03  0.73129204120E+03  0.10000000000E+01 0.  0.
    9000005    1    3    3    0    0  0.60744807711E+01 -0.20049389159E+02  0.86544886954E+01  0.22688708577E+02  0.10000000000E+01 0.  0.
<mgrwt>
<rscale>  0 0.18805203E+03</rscale>
<asrwt>0</asrwt>
<pdfrwt beam="1">  1        2 0.20286677E+00 0.19331835E+03</pdfrwt>
<pdfrwt beam="2">  1       -2 0.39351840E-02 0.19331835E+03</pdfrwt>
<totfact> 0.47904932E+03</totfact>
</mgrwt>
</event>
<event>
 8    3  0.1559595E-003  0.1513189E+03  0.7818608E-02  0.1206400E+00
         -2   -1    0    0    0  501 -0.00000000000E+00  0.00000000000E+00  0.45090758312E+02  0.45090758384E+02  0.25500000000E-02 0.  1.
          2   -1    0    0  501    0  0.00000000000E+00 -0.00000000000E+00 -0.63320331884E+03  0.63320331884E+03  0.25500000000E-02 0. -1.
         25    2    1    2    0    0  0.57898319292E+02  0.62605044078E+02 -0.12081004807E+03  0.19362973670E+03  0.12500320115E+03 0.  0.
         23    2    1    2    0    0 -0.57898319292E+02 -0.62605044078E+02 -0.46730251246E+03  0.48466434053E+03  0.96209552084E+02 0.  0.
        -13    1    4    4    0    0 -0.18291824135E+02 -0.52849251867E+02 -0.41288877587E+03  0.41665907725E+03  0.10566000000E+00 0. -1.
         13    1    4    4    0    0 -0.39606495157E+02 -0.97557922109E+01 -0.54413736592E+02  0.68005263283E+02  0.10566000000E+00 0.  1.
    9000005    1    3    3    0    0  0.35169327658E+02  0.97523721654E+02 -0.10873347913E+03  0.15023890101E+03  0.10000000000E+01 0.  0.
    9000005    1    3    3    0    0  0.22728991634E+02 -0.34918677577E+02 -0.12076568943E+02  0.43390835689E+02  0.10000000000E+01 0.  0.
<mgrwt>
<rscale>  0 0.14527705E+03</rscale>
<asrwt>0</asrwt>
<pdfrwt beam="2">  1        2 0.97415889E-01 0.15131889E+03</pdfrwt>
<pdfrwt beam="1">  1       -2 0.69370402E-02 0.15131889E+03</pdfrwt>
<totfact> 0.54356809E+03</totfact>
</mgrwt>
</event>
<event>
 8    3  0.1559595E-003  0.1268895E+03  0.7818608E-02  0.1247710E+00
          2   -1    0    0  501    0  0.00000000000E+00  0.00000000000E+00  0.47505357080E+03  0.47505357081E+03  0.25500000000E-02 0. -1.
         -2   -1    0    0    0  501 -0.00000000000E+00 -0.00000000000E+00 -0.26391002996E+02  0.26391003120E+02  0.25500000000E-02 0.  1.
         25    2    1    2    0    0  0.78868912978E+01 -0.20324266371E+02  0.20837664879E+03  0.24397083736E+03  0.12500265143E+03 0.  0.
         23    2    1    2    0    0 -0.78868912978E+01  0.20324266371E+02  0.24028591902E+03  0.25747373657E+03  0.89889505987E+02 0.  0.
        -13    1    4    4    0    0  0.27540347060E+02  0.42206812422E+02  0.11873204440E+03  0.12898525212E+03  0.10566000000E+00 0. -1.
         13    1    4    4    0    0 -0.35427238358E+02 -0.21882546051E+02  0.12155387462E+03  0.12848848446E+03  0.10566000000E+00 0.  1.
    9000005    1    3    3    0    0 -0.30646514752E+02  0.39853837824E+02  0.53616202714E+02  0.73506696629E+02  0.10000000000E+01 0.  0.
    9000005    1    3    3    0    0  0.38533406050E+02 -0.60178104195E+02  0.15476044607E+03  0.17046414073E+03  0.10000000000E+01 0.  0.
<mgrwt>
<rscale>  0 0.11724634E+03</rscale>
<asrwt>0</asrwt>
<pdfrwt beam="1">  1        2 0.73085160E-01 0.12688949E+03</pdfrwt>
<pdfrwt beam="2">  1       -2 0.40601546E-02 0.12688949E+03</pdfrwt>
<totfact> 0.16617527E+04</totfact>
</mgrwt>
</event>
<event>
 8    3  0.1559595E-003  0.1293456E+03  0.7818608E-02  0.1243977E+00
         -2   -1    0    0    0  501 -0.00000000000E+00  0.00000000000E+00  0.87655203141E+01  0.87655206850E+01  0.25500000000E-02 0. -1.
          2   -1    0    0  501    0  0.00000000000E+00 -0.00000000000E+00 -0.14485396430E+04  0.14485396430E+04  0.25500000000E-02 0.  1.
         25    2    1    2    0    0 -0.30495760070E+02  0.13213744181E+02 -0.73858074498E+03  0.74982117621E+03  0.12500274007E+03 0.  0.
         23    2    1    2    0    0  0.30495760070E+02 -0.13213744181E+02 -0.70119337775E+03  0.70748398752E+03  0.88072953713E+02 0.  0.
        -13    1    4    4    0    0 -0.19024992511E+02  0.52788605135E+01 -0.44705777656E+02  0.48871611680E+02  0.10566000000E+00 0. -1.
         13    1    4    4    0    0  0.49520752581E+02 -0.18492604695E+02 -0.65648760009E+03  0.65861237584E+03  0.10566000000E+00 0.  1.
    9000005    1    3    3    0    0 -0.52764781885E+02 -0.38890504666E+02 -0.27089939229E+03  0.27871862928E+03  0.10000000000E+01 0.  0.
    9000005    1    3    3    0    0  0.22269021815E+02  0.52104248847E+02 -0.46768135269E+03  0.47110254694E+03  0.10000000000E+01 0.  0.
<mgrwt>
<rscale>  0 0.11946804E+03</rscale>
<asrwt>0</asrwt>
<pdfrwt beam="2">  1        2 0.22285206E+00 0.12934558E+03</pdfrwt>
<pdfrwt beam="1">  1       -2 0.13485428E-02 0.12934558E+03</pdfrwt>
<totfact> 0.19272160E+04</totfact>
</mgrwt>
</event>
<event>
 8    3  0.1559595E-003  0.1323651E+03  0.7818608E-02  0.1236175E+00
          2   -1    0    0  501    0  0.00000000000E+00  0.00000000000E+00  0.26009623965E+04  0.26009623965E+04  0.25500000000E-02 0. -1.
         -2   -1    0    0    0  501 -0.00000000000E+00 -0.00000000000E+00 -0.61337500804E+01  0.61337506104E+01  0.25500000000E-02 0.  1.
         25    2    1    2    0    0 -0.31345298595E+02  0.30208099550E+02  0.96699020772E+03  0.97600747438E+03  0.12500188478E+03 0.  0.
         23    2    1    2    0    0  0.31345298595E+02 -0.30208099550E+02  0.16278384387E+04  0.16310886728E+04  0.93258880444E+02 0.  0.
        -13    1    4    4    0    0  0.36790353554E+02 -0.11397559380E+02  0.15601245011E+04  0.15605998541E+04  0.10566000000E+00 0. -1.
         13    1    4    4    0    0 -0.54450549593E+01 -0.18810540170E+02  0.67713937633E+02  0.70488818679E+02  0.10566000000E+00 0.  1.
    9000005    1    3    3    0    0  0.70407682403E+01 -0.76185658272E+01  0.80915819289E+03  0.80922530613E+03  0.10000000000E+01 0.  0.
    9000005    1    3    3    0    0 -0.38386066835E+02  0.37826665377E+02  0.15783201483E+03  0.16678216825E+03  0.10000000000E+01 0.  0.
<mgrwt>
<rscale>  0 0.12429506E+03</rscale>
<asrwt>0</asrwt>
<pdfrwt beam="1">  1        2 0.40014865E+00 0.13236513E+03</pdfrwt>
<pdfrwt beam="2">  1       -2 0.94365250E-03 0.13236513E+03</pdfrwt>
<totfact> 0.81328936E+03</totfact>
</mgrwt>
</event>
<event>
 8    3  0.1559595E-003  0.4822866E+03  0.7818608E-02  0.1019032E+00
         -2   -1    0    0    0  501 -0.00000000000E+00  0.00000000000E+00  0.38346444132E+03  0.38346444133E+03  0.25500000000E-02 0.  1.
          2   -1    0    0  501    0  0.00000000000E+00 -0.00000000000E+00 -0.60754304446E+03  0.60754304446E+03  0.25500000000E-02 0. -1.
         25    2    1    2    0    0 -0.94309993124E+02 -0.45616028596E+03 -0.47792955726E+02  0.48464882942E+03  0.12499495972E+03 0.  0.
         23    2    1    2    0    0  0.94309993124E+02  0.45616028596E+03 -0.17628564741E+03  0.50635865637E+03  0.91355777651E+02 0.  0.
        -13    1    4    4    0    0  0.44794941176E+02  0.24592982220E+03 -0.46150912591E+02  0.25420067289E+03  0.10566000000E+00 0. -1.
         13    1    4    4    0    0  0.49515051948E+02  0.21023046376E+03 -0.13013473482E+03  0.25215798348E+03  0.10566000000E+00 0.  1.
    9000005    1    3    3    0    0 -0.61103843563E+02 -0.43739991432E+03 -0.57245347305E+02  0.44534300773E+03  0.10000000000E+01 0.  0.
    9000005    1    3    3    0    0 -0.33206149561E+02 -0.18760371641E+02  0.94523915785E+01  0.39305821697E+02  0.10000000000E+01 0.  0.
<mgrwt>
<rscale>  0 0.48037393E+03</rscale>
<asrwt>0</asrwt>
<pdfrwt beam="2">  1        2 0.93468160E-01 0.48228656E+03</pdfrwt>
<pdfrwt beam="1">  1       -2 0.58994530E-01 0.48228656E+03</pdfrwt>
<totfact> 0.13482103E+02</totfact>
</mgrwt>
</event>
<event>
 8    3  0.1559595E-003  0.1412912E+03  0.7818608E-02  0.1222482E+00
          2   -1    0    0  501    0  0.00000000000E+00  0.00000000000E+00  0.92264758434E+03  0.92264758434E+03  0.25500000000E-02 0.  1.
         -2   -1    0    0    0  501 -0.00000000000E+00 -0.00000000000E+00 -0.17427694148E+02  0.17427694334E+02  0.25500000000E-02 0. -1.
         25    2    1    2    0    0 -0.48521149151E+02  0.44553868834E+02  0.50889743622E+03  0.52814751901E+03  0.12499540831E+03 0.  0.
         23    2    1    2    0    0  0.48521149151E+02 -0.44553868834E+02  0.39632245397E+03  0.41192775967E+03  0.90959565316E+02 0.  0.
        -13    1    4    4    0    0  0.32381901108E+02  0.19869629316E+02  0.78122881360E+02  0.86871085205E+02  0.10566000000E+00 0. -1.
         13    1    4    4    0    0  0.16139248043E+02 -0.64423498150E+02  0.31819957261E+03  0.32505667446E+03  0.10566000000E+00 0.  1.
    9000005    1    3    3    0    0 -0.63060755264E+02  0.64057582743E+02  0.48754604690E+03  0.49576423894E+03  0.10000000000E+01 0.  0.
    9000005    1    3    3    0    0  0.14539606113E+02 -0.19503713909E+02  0.21351389322E+02  0.32383280071E+02  0.10000000000E+01 0.  0.
<mgrwt>
<rscale>  0 0.13341006E+03</rscale>
<asrwt>0</asrwt>
<pdfrwt beam="1">  1        2 0.14194580E+00 0.14129119E+03</pdfrwt>
<pdfrwt beam="2">  1       -2 0.26811833E-02 0.14129119E+03</pdfrwt>
<totfact> 0.14117043E+04</totfact>
</mgrwt>
</event>
<event>
 8    3  0.1559595E-003  0.1743303E+03  0.7818608E-02  0.1179687E+00
          2   -1    0    0  501    0  0.00000000000E+00  0.00000000000E+00  0.11703433179E+03  0.11703433182E+03  0.25500000000E-02 0. -1.
         -2   -1    0    0    0  501 -0.00000000000E+00 -0.00000000000E+00 -0.25984322381E+03  0.25984322383E+03  0.25500000000E-02 0.  1.
         25    2    1    2    0    0  0.10871975109E+03  0.54255989091E+02 -0.14324390687E+03  0.22563211860E+03  0.12500935748E+03 0.  0.
         23    2    1    2    0    0 -0.10871975109E+03 -0.54255989091E+02  0.43501484743E+00  0.15124543705E+03  0.90062735692E+02 0.  0.
        -13    1    4    4    0    0 -0.24672954573E+02 -0.14306143413E+02 -0.40538445815E+02  0.49566089010E+02  0.10566000000E+00 0.  1.
         13    1    4    4    0    0 -0.84046796515E+02 -0.39949845678E+02  0.40973460662E+02  0.10167934803E+03  0.10566000000E+00 0. -1.
    9000005    1    3    3    0    0  0.12918753310E+03  0.57358644144E+02 -0.14769219828E+03  0.20443438605E+03  0.10000000000E+01 0.  0.
    9000005    1    3    3    0    0 -0.20467782010E+02 -0.31026550530E+01  0.44482914076E+01  0.21197732549E+02  0.10000000000E+01 0.  0.
<mgrwt>
<rscale>  0 0.16824791E+03</rscale>
<asrwt>0</asrwt>
<pdfrwt beam="1">  1        2 0.18005282E-01 0.17433025E+03</pdfrwt>
<pdfrwt beam="2">  1       -2 0.39975880E-01 0.17433025E+03</pdfrwt>
<totfact> 0.18384372E+03</totfact>
</mgrwt>
</event>
<event>
 8    3  0.1559595E-003  0.1497533E+03  0.7818608E-02  0.1209995E+00
         -2   -1    0    0    0  501 -0.00000000000E+00  0.00000000000E+00  0.28300979134E+02  0.28300979249E+02  0.25500000000E-02 0.  1.
          2   -1    0    0  501    0  0.00000000000E+00 -0.00000000000E+00 -0.66097437360E+03  0.66097437361E+03  0.25500000000E-02 0. -1.
         25    2    1    2    0    0  0.51720303796E+02 -0.64236021993E+02 -0.37645063681E+03  0.40514336516E+03  0.12499923214E+03 0.  0.
         23    2    1    2    0    0 -0.51720303796E+02  0.64236021993E+02 -0.25622275766E+03  0.28413198769E+03  0.90992464202E+02 0.  0.
        -13    1    4    4    0    0 -0.69815948826E+02  0.74158099193E+02 -0.20498642440E+03  0.22889546902E+03  0.10566000000E+00 0.  1.
         13    1    4    4    0    0  0.18095645029E+02 -0.99220772006E+01 -0.51236333259E+02  0.55236518671E+02  0.10566000000E+00 0. -1.
    9000005    1    3    3    0    0 -0.22742431348E+01 -0.68674009397E+02 -0.31840765461E+03  0.32573873927E+03  0.10000000000E+01 0.  0.
    9000005    1    3    3    0    0  0.53994546931E+02  0.44379874040E+01 -0.58042982202E+02  0.79404625894E+02  0.10000000000E+01 0.  0.
<mgrwt>
<rscale>  0 0.14250685E+03</rscale>
<asrwt>0</asrwt>
<pdfrwt beam="2">  1        2 0.10168835E+00 0.14975335E+03</pdfrwt>
<pdfrwt beam="1">  1       -2 0.43539973E-02 0.14975335E+03</pdfrwt>
<totfact> 0.10457213E+04</totfact>
</mgrwt>
</event>
<event>
 8    3  0.1559595E-003  0.1273989E+03  0.7818608E-02  0.1245498E+00
         -2   -1    0    0    0  501 -0.00000000000E+00  0.00000000000E+00  0.60991591569E+02  0.60991591622E+02  0.25500000000E-02 0.  1.
          2   -1    0    0  501    0  0.00000000000E+00 -0.00000000000E+00 -0.20385013942E+03  0.20385013944E+03  0.25500000000E-02 0. -1.
         25    2    1    2    0    0 -0.13811882088E+02  0.20361735285E+02 -0.78441155716E+02  0.14961116363E+03  0.12500046808E+03 0.  0.
         23    2    1    2    0    0  0.13811882088E+02 -0.20361735285E+02 -0.64417392138E+02  0.11523056743E+03  0.92320717667E+02 0.  0.
        -13    1    4    4    0    0  0.27192253603E+02  0.12113019945E+02  0.11238469615E+02  0.31819149447E+02  0.10566000000E+00 0.  1.
         13    1    4    4    0    0 -0.13380371515E+02 -0.32474755229E+02 -0.75655861752E+02  0.83411417987E+02  0.10566000000E+00 0. -1.
    9000005    1    3    3    0    0 -0.64778850505E+02  0.35949206937E+02 -0.45521124034E+02  0.86958712533E+02  0.10000000000E+01 0.  0.
    9000005    1    3    3    0    0  0.50966968417E+02 -0.15587471653E+02 -0.32920031682E+02  0.62652451094E+02  0.10000000000E+01 0.  0.
<mgrwt>
<rscale>  0 0.11855617E+03</rscale>
<asrwt>0</asrwt>
<pdfrwt beam="2">  1        2 0.31361560E-01 0.12739892E+03</pdfrwt>
<pdfrwt beam="1">  1       -2 0.93833219E-02 0.12739892E+03</pdfrwt>
<totfact> 0.11475380E+04</totfact>
</mgrwt>
</event>
<event>
 8    3  0.1559595E-003  0.1897433E+03  0.7818608E-02  0.1163708E+00
          2   -1    0    0  501    0  0.00000000000E+00  0.00000000000E+00  0.14212848743E+04  0.14212848743E+04  0.25500000000E-02 0. -1.
         -2   -1    0    0    0  501 -0.00000000000E+00 -0.00000000000E+00 -0.24735386540E+02  0.24735386672E+02  0.25500000000E-02 0.  1.
         25    2    1    2    0    0  0.33448463581E+02 -0.13877638247E+03  0.94644964030E+03  0.96528204775E+03  0.12499930417E+03 0.  0.
         23    2    1    2    0    0 -0.33448463581E+02  0.13877638247E+03  0.45009984746E+03  0.48073821322E+03  0.90231219217E+02 0.  0.
        -13    1    4    4    0    0 -0.27928224156E+02  0.14863064765E+03  0.36797204938E+03  0.39783727253E+03  0.10566000000E+00 0.  1.
         13    1    4    4    0    0 -0.55202394244E+01 -0.98542651875E+01  0.82127798083E+02  0.82900940693E+02  0.10566000000E+00 0. -1.
    9000005    1    3    3    0    0  0.74631551474E+02 -0.71253971751E+02  0.39805587363E+03  0.41121341843E+03  0.10000000000E+01 0.  0.
    9000005    1    3    3    0    0 -0.41183087893E+02 -0.67522410715E+02  0.54839376667E+03  0.55406862932E+03  0.10000000000E+01 0.  0.
<mgrwt>
<rscale>  0 0.18429657E+03</rscale>
<asrwt>0</asrwt>
<pdfrwt beam="1">  1        2 0.21865926E+00 0.18974327E+03</pdfrwt>
<pdfrwt beam="2">  1       -2 0.38054432E-02 0.18974327E+03</pdfrwt>
<totfact> 0.44321162E+03</totfact>
</mgrwt>
</event>
<event>
 8    3  0.1559595E-003  0.1538215E+03  0.7818608E-02  0.1204172E+00
          2   -1    0    0  501    0  0.00000000000E+00  0.00000000000E+00  0.23899069566E+03  0.23899069567E+03  0.25500000000E-02 0. -1.
         -2   -1    0    0    0  501 -0.00000000000E+00 -0.00000000000E+00 -0.88809049222E+02  0.88809049259E+02  0.25500000000E-02 0.  1.
         25    2    1    2    0    0 -0.79439872126E+02 -0.41536479222E+02  0.12203700503E+03  0.19635192263E+03  0.12500029814E+03 0.  0.
         23    2    1    2    0    0  0.79439872126E+02  0.41536479222E+02  0.28144641408E+02  0.13144782230E+03  0.91926257175E+02 0.  0.
        -13    1    4    4    0    0 -0.16935569271E+02  0.66366958702E+00 -0.10408686810E+02  0.19889843866E+02  0.10566000000E+00 0.  1.
         13    1    4    4    0    0  0.96375441397E+02  0.40872809635E+02  0.38553328218E+02  0.11155797844E+03  0.10566000000E+00 0. -1.
    9000005    1    3    3    0    0 -0.77871577220E+02  0.27678221689E+02  0.50821152577E+02  0.97025027925E+02  0.10000000000E+01 0.  0.
    9000005    1    3    3    0    0 -0.15682949068E+01 -0.69214700911E+02  0.71215852449E+02  0.99326894702E+02  0.10000000000E+01 0.  0.
<mgrwt>
<rscale>  0 0.14702917E+03</rscale>
<asrwt>0</asrwt>
<pdfrwt beam="1">  1        2 0.36767798E-01 0.15382148E+03</pdfrwt>
<pdfrwt beam="2">  1       -2 0.13662931E-01 0.15382148E+03</pdfrwt>
<totfact> 0.53932235E+03</totfact>
</mgrwt>
</event>
<event>
 8    3  0.1559595E-003  0.1546144E+03  0.7818608E-02  0.1202384E+00
          2   -1    0    0  501    0  0.00000000000E+00  0.00000000000E+00  0.18016400945E+03  0.18016400947E+03  0.25500000000E-02 0. -1.
         -2   -1    0    0    0  501 -0.00000000000E+00 -0.00000000000E+00 -0.12779533071E+03  0.12779533073E+03  0.25500000000E-02 0.  1.
         25    2    1    2    0    0  0.32325958728E+02  0.85082593106E+02 -0.23236012270E+02  0.15635060128E+03  0.12498633124E+03 0.  0.
         23    2    1    2    0    0 -0.32325958728E+02 -0.85082593106E+02  0.75604691011E+02  0.15160873893E+03  0.94789900088E+02 0.  0.
        -13    1    4    4    0    0 -0.77177188842E+01 -0.40928392549E+02 -0.17885784802E+02  0.45327794601E+02  0.10566000000E+00 0.  1.
         13    1    4    4    0    0 -0.24608239843E+02 -0.44154200557E+02  0.93490475812E+02  0.10628094432E+03  0.10566000000E+00 0. -1.
    9000005    1    3    3    0    0  0.54611109086E+02  0.69097902985E+02  0.32773825169E+02  0.93978811701E+02  0.10000000000E+01 0.  0.
    9000005    1    3    3    0    0 -0.22285150359E+02  0.15984690121E+02 -0.56009837440E+02  0.62371789575E+02  0.10000000000E+01 0.  0.
<mgrwt>
<rscale>  0 0.14845547E+03</rscale>
<asrwt>0</asrwt>
<pdfrwt beam="1">  1        2 0.27717540E-01 0.15461435E+03</pdfrwt>
<pdfrwt beam="2">  1       -2 0.19660820E-01 0.15461435E+03</pdfrwt>
<totfact> 0.40092369E+03</totfact>
</mgrwt>
</event>
<event>
 8    3  0.1559595E-003  0.1787902E+03  0.7818608E-02  0.1175948E+00
          2   -1    0    0  501    0  0.00000000000E+00  0.00000000000E+00  0.45156496885E+03  0.45156496886E+03  0.25500000000E-02 0. -1.
         -2   -1    0    0    0  501 -0.00000000000E+00 -0.00000000000E+00 -0.91585211763E+02  0.91585211799E+02  0.25500000000E-02 0.  1.
         25    2    1    2    0    0 -0.50925607110E+02 -0.11724246606E+03  0.34662084708E+03  0.39001531242E+03  0.12500687576E+03 0.  0.
         23    2    1    2    0    0  0.50925607110E+02  0.11724246606E+03  0.13358910016E+02  0.15313486824E+03  0.83262320925E+02 0.  0.
        -13    1    4    4    0    0  0.26188906951E+02 -0.22512723789E+01 -0.11349313913E+02  0.28631192168E+02  0.10566000000E+00 0. -1.
         13    1    4    4    0    0  0.24736700159E+02  0.11949373844E+03  0.24708223929E+02  0.12450367607E+03  0.10566000000E+00 0.  1.
    9000005    1    3    3    0    0  0.21609697306E+02 -0.10215089857E+03  0.21337716832E+03  0.23755546943E+03  0.10000000000E+01 0.  0.
    9000005    1    3    3    0    0 -0.72535304416E+02 -0.15091567495E+02  0.13324367875E+03  0.15245984299E+03  0.10000000000E+01 0.  0.
<mgrwt>
<rscale>  0 0.17183498E+03</rscale>
<asrwt>0</asrwt>
<pdfrwt beam="1">  1        2 0.69471535E-01 0.17879019E+03</pdfrwt>
<pdfrwt beam="2">  1       -2 0.14090032E-01 0.17879019E+03</pdfrwt>
<totfact> 0.26109843E+03</totfact>
</mgrwt>
</event>
<event>
 8    3  0.1559595E-003  0.1659902E+03  0.7818608E-02  0.1188730E+00
         -2   -1    0    0    0  501 -0.00000000000E+00  0.00000000000E+00  0.12064611937E+02  0.12064612207E+02  0.25500000000E-02 0. -1.
          2   -1    0    0  501    0  0.00000000000E+00 -0.00000000000E+00 -0.19808586884E+04  0.19808586884E+04  0.25500000000E-02 0.  1.
         25    2    1    2    0    0  0.81498986196E+02  0.72703969830E+02 -0.10536295629E+04  0.10666245881E+04  0.12499921603E+03 0.  0.
         23    2    1    2    0    0 -0.81498986196E+02 -0.72703969830E+02 -0.91516451351E+03  0.92629871252E+03  0.92602732391E+02 0.  0.
        -13    1    4    4    0    0 -0.59009184713E+02 -0.90984452264E+02 -0.59309620906E+03  0.60292899980E+03  0.10566000000E+00 0.  1.
         13    1    4    4    0    0 -0.22489801484E+02  0.18280482434E+02 -0.32206830445E+03  0.32336971272E+03  0.10566000000E+00 0. -1.
    9000005    1    3    3    0    0  0.43539099012E+02  0.68117316095E+02 -0.26478436254E+03  0.27685263325E+03  0.10000000000E+01 0.  0.
    9000005    1    3    3    0    0  0.37959887184E+02  0.45866537352E+01 -0.78884520041E+03  0.78977195483E+03  0.10000000000E+01 0.  0.
<mgrwt>
<rscale>  0 0.15997041E+03</rscale>
<asrwt>0</asrwt>
<pdfrwt beam="2">  1        2 0.30474723E+00 0.16599023E+03</pdfrwt>
<pdfrwt beam="1">  1       -2 0.18560957E-02 0.16599023E+03</pdfrwt>
<totfact> 0.65161633E+03</totfact>
</mgrwt>
</event>
<event>
 8    3  0.1559595E-003  0.1408715E+03  0.7818608E-02  0.1224053E+00
         -2   -1    0    0    0  501 -0.00000000000E+00  0.00000000000E+00  0.23241367876E+02  0.23241368015E+02  0.25500000000E-02 0. -1.
          2   -1    0    0  501    0  0.00000000000E+00 -0.00000000000E+00 -0.77015652281E+03  0.77015652282E+03  0.25500000000E-02 0.  1.
         25    2    1    2    0    0  0.64859202144E+02  0.35443719582E+01 -0.55263948367E+03  0.57031146484E+03  0.12500195736E+03 0.  0.
         23    2    1    2    0    0 -0.64859202144E+02 -0.35443719582E+01 -0.19427567127E+03  0.22308642599E+03  0.88347259944E+02 0.  0.
        -13    1    4    4    0    0  0.19994803955E+02  0.10190720673E+02 -0.27796554900E+02  0.35725377554E+02  0.10566000000E+00 0. -1.
         13    1    4    4    0    0 -0.84854006099E+02 -0.13735092631E+02 -0.16647911637E+03  0.18736104844E+03  0.10566000000E+00 0.  1.
    9000005    1    3    3    0    0  0.51445073202E+02  0.59729578366E+01 -0.55414423042E+03  0.55656005955E+03  0.10000000000E+01 0.  0.
    9000005    1    3    3    0    0  0.13414128942E+02 -0.24285858784E+01  0.15047467498E+01  0.13751405289E+02  0.10000000000E+01 0.  0.
<mgrwt>
<rscale>  0 0.13232007E+03</rscale>
<asrwt>0</asrwt>
<pdfrwt beam="2">  1        2 0.11848560E+00 0.14087146E+03</pdfrwt>
<pdfrwt beam="1">  1       -2 0.35755957E-02 0.14087146E+03</pdfrwt>
<totfact> 0.11625756E+04</totfact>
</mgrwt>
</event>
<event>
 8    3  0.1559595E-003  0.1364985E+03  0.7818608E-02  0.1229206E+00
         -2   -1    0    0    0  501 -0.00000000000E+00  0.00000000000E+00  0.21883311788E+03  0.21883311790E+03  0.25500000000E-02 0.  1.
          2   -1    0    0  501    0  0.00000000000E+00 -0.00000000000E+00 -0.13284587390E+03  0.13284587392E+03  0.25500000000E-02 0. -1.
         25    2    1    2    0    0  0.39624487816E+02 -0.37901958780E+02  0.16753818175E+03  0.21610386432E+03  0.12500071726E+03 0.  0.
         23    2    1    2    0    0 -0.39624487816E+02  0.37901958780E+02 -0.81550937771E+02  0.13557512750E+03  0.93399150052E+02 0.  0.
        -13    1    4    4    0    0  0.28213052435E+02 -0.31473289483E+01 -0.28149417267E+02  0.39978530035E+02  0.10566000000E+00 0. -1.
         13    1    4    4    0    0 -0.67837540250E+02  0.41049287728E+02 -0.53401520504E+02  0.95596597462E+02  0.10566000000E+00 0.  1.
    9000005    1    3    3    0    0  0.53151134048E+02  0.65915561410E+01  0.13565654153E+02  0.55258652133E+02  0.10000000000E+01 0.  0.
    9000005    1    3    3    0    0 -0.13526646233E+02 -0.44493514921E+02  0.15397252760E+03  0.16084521219E+03  0.10000000000E+01 0.  0.
<mgrwt>
<rscale>  0 0.12882745E+03</rscale>
<asrwt>0</asrwt>
<pdfrwt beam="2">  1        2 0.20437827E-01 0.13649849E+03</pdfrwt>
<pdfrwt beam="1">  1       -2 0.33666634E-01 0.13649849E+03</pdfrwt>
<totfact> 0.21701794E+03</totfact>
</mgrwt>
</event>
<event>
 8    3  0.1559595E-003  0.1432033E+03  0.7818608E-02  0.1220594E+00
         -2   -1    0    0    0  501 -0.00000000000E+00  0.00000000000E+00  0.18637694407E+03  0.18637694409E+03  0.25500000000E-02 0.  1.
          2   -1    0    0  501    0  0.00000000000E+00 -0.00000000000E+00 -0.89287959723E+02  0.89287959760E+02  0.25500000000E-02 0. -1.
         25    2    1    2    0    0  0.48310552743E+02  0.50508582835E+02  0.35013176474E+02  0.14742151593E+03  0.12498861702E+03 0.  0.
         23    2    1    2    0    0 -0.48310552743E+02 -0.50508582835E+02  0.62075807873E+02  0.12824338792E+03  0.87794841395E+02 0.  0.
        -13    1    4    4    0    0 -0.27202142328E+02  0.11185493700E+01 -0.16536850355E+02  0.31854140761E+02  0.10566000000E+00 0. -1.
         13    1    4    4    0    0 -0.21108410416E+02 -0.51627132205E+02  0.78612658228E+02  0.96389247158E+02  0.10566000000E+00 0.  1.
    9000005    1    3    3    0    0  0.35349131785E+02  0.30969076048E+02 -0.44371044120E+02  0.64640810217E+02  0.10000000000E+01 0.  0.
    9000005    1    3    3    0    0  0.12961420959E+02  0.19539506787E+02  0.79384220594E+02  0.82780705712E+02  0.10000000000E+01 0.  0.
<mgrwt>
<rscale>  0 0.13473509E+03</rscale>
<asrwt>0</asrwt>
<pdfrwt beam="2">  1        2 0.13736609E-01 0.14320328E+03</pdfrwt>
<pdfrwt beam="1">  1       -2 0.28673376E-01 0.14320328E+03</pdfrwt>
<totfact> 0.46061142E+03</totfact>
</mgrwt>
</event>
<event>
 8    3  0.1559595E-003  0.1328708E+03  0.7818608E-02  0.1236185E+00
         -2   -1    0    0    0  501 -0.00000000000E+00  0.00000000000E+00  0.83943310690E+01  0.83943314563E+01  0.25500000000E-02 0. -1.
          2   -1    0    0  501    0  0.00000000000E+00 -0.00000000000E+00 -0.16417413239E+04  0.16417413239E+04  0.25500000000E-02 0.  1.
         25    2    1    2    0    0  0.15991802783E+02 -0.42105575741E+02 -0.89205022079E+03  0.90189148339E+03  0.12500413647E+03 0.  0.
         23    2    1    2    0    0 -0.15991802783E+02  0.42105575741E+02 -0.74129677200E+03  0.74824417192E+03  0.91213043917E+02 0.  0.
        -13    1    4    4    0    0  0.28110700147E+02 -0.68077625505E+01 -0.37183356471E+03  0.37295679120E+03  0.10566000000E+00 0.  1.
         13    1    4    4    0    0 -0.44102502930E+02  0.48913338292E+02 -0.36946320729E+03  0.37528738073E+03  0.10566000000E+00 0. -1.
    9000005    1    3    3    0    0  0.50890618523E+02  0.25354917836E+02 -0.39362304208E+03  0.39770947458E+03  0.10000000000E+01 0.  0.
    9000005    1    3    3    0    0 -0.34898815740E+02 -0.67460493577E+02 -0.49842717871E+03  0.50418200881E+03  0.10000000000E+01 0.  0.
<mgrwt>
<rscale>  0 0.12428866E+03</rscale>
<asrwt>0</asrwt>
<pdfrwt beam="2">  1        2 0.25257533E+00 0.13287081E+03</pdfrwt>
<pdfrwt beam="1">  1       -2 0.12914369E-02 0.13287081E+03</pdfrwt>
<totfact> 0.16314459E+04</totfact>
</mgrwt>
</event>
<event>
 8    3  0.1559595E-003  0.1935518E+03  0.7818608E-02  0.1159877E+00
          2   -1    0    0  501    0  0.00000000000E+00  0.00000000000E+00  0.12364586148E+04  0.12364586148E+04  0.25500000000E-02 0. -1.
         -2   -1    0    0    0  501 -0.00000000000E+00 -0.00000000000E+00 -0.28106559633E+02  0.28106559749E+02  0.25500000000E-02 0.  1.
         25    2    1    2    0    0  0.98124257095E+02 -0.11049819842E+03  0.74255060585E+03  0.76736152344E+03  0.12499633481E+03 0.  0.
         23    2    1    2    0    0 -0.98124257095E+02  0.11049819842E+03  0.46580144935E+03  0.49720365115E+03  0.91663835919E+02 0.  0.
        -13    1    4    4    0    0 -0.58661860424E+02  0.11556103339E+03  0.39825261133E+03  0.41880869130E+03  0.10566000000E+00 0. -1.
         13    1    4    4    0    0 -0.39462396671E+02 -0.50628349742E+01  0.67548838021E+02  0.78394959858E+02  0.10566000000E+00 0.  1.
    9000005    1    3    3    0    0  0.94209202790E+02 -0.12128079619E+02  0.37738331055E+03  0.38915501704E+03  0.10000000000E+01 0.  0.
    9000005    1    3    3    0    0  0.39150543048E+01 -0.98370118801E+02  0.36516729530E+03  0.37820650640E+03  0.10000000000E+01 0.  0.
<mgrwt>
<rscale>  0 0.18843932E+03</rscale>
<asrwt>0</asrwt>
<pdfrwt beam="1">  1        2 0.19022435E+00 0.19355182E+03</pdfrwt>
<pdfrwt beam="2">  1       -2 0.43240874E-02 0.19355182E+03</pdfrwt>
<totfact> 0.46153747E+03</totfact>
</mgrwt>
</event>
<event>
 8    3  0.1559595E-003  0.1311042E+03  0.7818608E-02  0.1238858E+00
          2   -1    0    0  501    0  0.00000000000E+00  0.00000000000E+00  0.45890384146E+03  0.45890384146E+03  0.25500000000E-02 0.  1.
         -2   -1    0    0    0  501 -0.00000000000E+00 -0.00000000000E+00 -0.29591110616E+02  0.29591110726E+02  0.25500000000E-02 0. -1.
         25    2    1    2    0    0 -0.68429259915E+01  0.38944523948E+02  0.27186837214E+03  0.30182894424E+03  0.12499919292E+03 0.  0.
         23    2    1    2    0    0  0.68429259915E+01 -0.38944523948E+02  0.15744435870E+03  0.18666600794E+03  0.92151890127E+02 0.  0.
        -13    1    4    4    0    0 -0.21823599818E+01 -0.59204026222E+02  0.15296761194E+03  0.16403957109E+03  0.10566000000E+00 0.  1.
         13    1    4    4    0    0  0.90252859733E+01  0.20259502274E+02  0.44767467606E+01  0.22626436858E+02  0.10566000000E+00 0. -1.
    9000005    1    3    3    0    0  0.47971893048E+02  0.30108919847E+02  0.58817698193E+02  0.81660095504E+02  0.10000000000E+01 0.  0.
    9000005    1    3    3    0    0 -0.54814819040E+02  0.88356041011E+01  0.21305067395E+03  0.22016884874E+03  0.10000000000E+01 0.  0.
<mgrwt>
<rscale>  0 0.12260626E+03</rscale>
<asrwt>0</asrwt>
<pdfrwt beam="1">  1        2 0.70600589E-01 0.13110416E+03</pdfrwt>
<pdfrwt beam="2">  1       -2 0.45524787E-02 0.13110416E+03</pdfrwt>
<totfact> 0.14589636E+04</totfact>
</mgrwt>
</event>
<event>
 8    3  0.1559595E-003  0.1653822E+03  0.7818608E-02  0.1189552E+00
          2   -1    0    0  501    0  0.00000000000E+00  0.00000000000E+00  0.83596949041E+03  0.83596949042E+03  0.25500000000E-02 0. -1.
         -2   -1    0    0    0  501 -0.00000000000E+00 -0.00000000000E+00 -0.30182496729E+02  0.30182496837E+02  0.25500000000E-02 0.  1.
         25    2    1    2    0    0  0.82452429915E+02 -0.70199326039E+02  0.32313581535E+03  0.36299867202E+03  0.12499972861E+03 0.  0.
         23    2    1    2    0    0 -0.82452429915E+02  0.70199326039E+02  0.48265117834E+03  0.50315331524E+03  0.92112703293E+02 0.  0.
        -13    1    4    4    0    0 -0.28565641766E+01 -0.63143806181E+00  0.21576225549E+03  0.21578211402E+03  0.10566000000E+00 0. -1.
         13    1    4    4    0    0 -0.79595865738E+02  0.70830764100E+02  0.26688892284E+03  0.28737120121E+03  0.10566000000E+00 0.  1.
    9000005    1    3    3    0    0 -0.76606922502E+01 -0.74749153949E+02  0.14758362550E+03  0.16561415621E+03  0.10000000000E+01 0.  0.
    9000005    1    3    3    0    0  0.90113122165E+02  0.45498279103E+01  0.17555218984E+03  0.19738451580E+03  0.10000000000E+01 0.  0.
<mgrwt>
<rscale>  0 0.15924484E+03</rscale>
<asrwt>0</asrwt>
<pdfrwt beam="1">  1        2 0.12861069E+00 0.16538223E+03</pdfrwt>
<pdfrwt beam="2">  1       -2 0.46434612E-02 0.16538223E+03</pdfrwt>
<totfact> 0.71682456E+03</totfact>
</mgrwt>
</event>
<event>
 8    3  0.1559595E-003  0.1461454E+03  0.7818608E-02  0.1216402E+00
          2   -1    0    0  501    0  0.00000000000E+00  0.00000000000E+00  0.25993637553E+03  0.25993637554E+03  0.25500000000E-02 0. -1.
         -2   -1    0    0    0  501 -0.00000000000E+00 -0.00000000000E+00 -0.66734893982E+02  0.66734894031E+02  0.25500000000E-02 0.  1.
         25    2    1    2    0    0 -0.81311294400E+01 -0.75279066436E+02  0.88111038005E+02  0.17065176583E+03  0.12500166820E+03 0.  0.
         23    2    1    2    0    0  0.81311294400E+01  0.75279066436E+02  0.10509044354E+03  0.15601950374E+03  0.86977187327E+02 0.  0.
        -13    1    4    4    0    0 -0.36531263038E+02  0.27437081736E+02  0.64373886791E+02  0.78938806033E+02  0.10566000000E+00 0. -1.
         13    1    4    4    0    0  0.44662392478E+02  0.47841984701E+02  0.40716556748E+02  0.77080697710E+02  0.10566000000E+00 0.  1.
    9000005    1    3    3    0    0 -0.19013621300E+02 -0.97949131427E+02  0.10134053619E+03  0.14221973990E+03  0.10000000000E+01 0.  0.
    9000005    1    3    3    0    0  0.10882491860E+02  0.22670064991E+02 -0.13229498189E+02  0.28432025923E+02  0.10000000000E+01 0.  0.
<mgrwt>
<rscale>  0 0.13774075E+03</rscale>
<asrwt>0</asrwt>
<pdfrwt beam="1">  1        2 0.39990211E-01 0.14614537E+03</pdfrwt>
<pdfrwt beam="2">  1       -2 0.10266907E-01 0.14614537E+03</pdfrwt>
<totfact> 0.77602006E+03</totfact>
</mgrwt>
</event>
<event>
 8    3  0.1559595E-003  0.1361003E+03  0.7818608E-02  0.1230364E+00
          2   -1    0    0  501    0  0.00000000000E+00  0.00000000000E+00  0.81375273179E+03  0.81375273179E+03  0.25500000000E-02 0. -1.
         -2   -1    0    0    0  501 -0.00000000000E+00 -0.00000000000E+00 -0.26469269120E+02  0.26469269243E+02  0.25500000000E-02 0.  1.
         25    2    1    2    0    0 -0.53479536932E+02 -0.61293573559E+01  0.66121040460E+03  0.67507222010E+03  0.12500269319E+03 0.  0.
         23    2    1    2    0    0  0.53479536932E+02  0.61293573559E+01  0.12607305807E+03  0.16514978094E+03  0.92099968952E+02 0.  0.
        -13    1    4    4    0    0  0.12499776025E+02 -0.22041653461E+02 -0.42206959006E+01  0.25688603035E+02  0.10566000000E+00 0.  1.
         13    1    4    4    0    0  0.40979760907E+02  0.28171010817E+02  0.13029375397E+03  0.13946117790E+03  0.10566000000E+00 0. -1.
    9000005    1    3    3    0    0 -0.11027441281E+02  0.33867492488E+02  0.51773830618E+02  0.62850147537E+02  0.10000000000E+01 0.  0.
    9000005    1    3    3    0    0 -0.42452095651E+02 -0.39996849844E+02  0.60943657398E+03  0.61222207256E+03  0.10000000000E+01 0.  0.
<mgrwt>
<rscale>  0 0.12805966E+03</rscale>
<asrwt>0</asrwt>
<pdfrwt beam="1">  1        2 0.12519272E+00 0.13610034E+03</pdfrwt>
<pdfrwt beam="2">  1       -2 0.40721954E-02 0.13610034E+03</pdfrwt>
<totfact> 0.89343697E+03</totfact>
</mgrwt>
</event>
<event>
 8    3  0.1559595E-003  0.1380023E+03  0.7818608E-02  0.1226944E+00
         -2   -1    0    0    0  501 -0.00000000000E+00  0.00000000000E+00  0.19743401159E+02  0.19743401323E+02  0.25500000000E-02 0.  1.
          2   -1    0    0  501    0  0.00000000000E+00 -0.00000000000E+00 -0.78545272357E+03  0.78545272357E+03  0.25500000000E-02 0. -1.
         25    2    1    2    0    0  0.21179002893E+02 -0.54504973908E+02 -0.46557795756E+03  0.48560011311E+03  0.12500117177E+03 0.  0.
         23    2    1    2    0    0 -0.21179002893E+02  0.54504973908E+02 -0.30013136485E+03  0.31959601178E+03  0.92970060973E+02 0.  0.
        -13    1    4    4    0    0 -0.15247847423E+02  0.14898611556E+02 -0.26635324341E+03  0.26720502786E+03  0.10566000000E+00 0. -1.
         13    1    4    4    0    0 -0.59311554700E+01  0.39606362352E+02 -0.33778121440E+02  0.52390983919E+02  0.10566000000E+00 0.  1.
    9000005    1    3    3    0    0 -0.17273426807E+02  0.35839410108E+02 -0.13728405674E+03  0.14293616346E+03  0.10000000000E+01 0.  0.
    9000005    1    3    3    0    0  0.38452429700E+02 -0.90344384016E+02 -0.32829390083E+03  0.34266394965E+03  0.10000000000E+01 0.  0.
<mgrwt>
<rscale>  0 0.13034538E+03</rscale>
<asrwt>0</asrwt>
<pdfrwt beam="2">  1        2 0.12083886E+00 0.13800230E+03</pdfrwt>
<pdfrwt beam="1">  1       -2 0.30374470E-02 0.13800230E+03</pdfrwt>
<totfact> 0.14416070E+04</totfact>
</mgrwt>
</event>
<event>
 8    3  0.1559595E-003  0.1314524E+03  0.7818608E-02  0.1238367E+00
          2   -1    0    0  501    0  0.00000000000E+00  0.00000000000E+00  0.22374242547E+04  0.22374242547E+04  0.25500000000E-02 0.  1.
         -2   -1    0    0    0  501 -0.00000000000E+00 -0.00000000000E+00 -0.61604035036E+01  0.61604040314E+01  0.25500000000E-02 0. -1.
         25    2    1    2    0    0  0.27148663380E+02  0.30293402515E+02  0.10875954461E+04  0.10955106527E+04  0.12499998221E+03 0.  0.
         23    2    1    2    0    0 -0.27148663380E+02 -0.30293402515E+02  0.11436684050E+04  0.11480740060E+04  0.91879064257E+02 0.  0.
        -13    1    4    4    0    0  0.32485406138E+02 -0.17246832748E+02  0.56464453063E+03  0.56584115438E+03  0.10566000000E+00 0. -1.
         13    1    4    4    0    0 -0.59634069518E+02 -0.13046569767E+02  0.57902387440E+03  0.58223285163E+03  0.10566000000E+00 0.  1.
    9000005    1    3    3    0    0  0.51209322335E+01 -0.27789561859E+02  0.63243985101E+02  0.69276874545E+02  0.10000000000E+01 0.  0.
    9000005    1    3    3    0    0  0.22027731147E+02  0.58082964374E+02  0.10243514610E+04  0.10262337781E+04  0.10000000000E+01 0.  0.
<mgrwt>
<rscale>  0 0.12291299E+03</rscale>
<asrwt>0</asrwt>
<pdfrwt beam="1">  1        2 0.34421927E+00 0.13145241E+03</pdfrwt>
<pdfrwt beam="2">  1       -2 0.94775401E-03 0.13145241E+03</pdfrwt>
<totfact> 0.12579873E+04</totfact>
</mgrwt>
</event>
<event>
 8    3  0.1559595E-003  0.1440364E+03  0.7818608E-02  0.1218657E+00
         -2   -1    0    0    0  501 -0.00000000000E+00  0.00000000000E+00  0.94607656704E+01  0.94607660141E+01  0.25500000000E-02 0.  1.
          2   -1    0    0  501    0  0.00000000000E+00 -0.00000000000E+00 -0.22815242282E+04  0.22815242282E+04  0.25500000000E-02 0. -1.
         25    2    1    2    0    0 -0.45111554403E+02 -0.55561790738E+02 -0.17744693992E+04  0.17803056320E+04  0.12499731871E+03 0.  0.
         23    2    1    2    0    0  0.45111554403E+02  0.55561790738E+02 -0.49759406333E+03  0.51067936222E+03  0.89840938366E+02 0.  0.
        -13    1    4    4    0    0 -0.92438789144E+01  0.48534467075E+02 -0.13093343181E+03  0.13994505536E+03  0.10566000000E+00 0.  1.
         13    1    4    4    0    0  0.54355433317E+02  0.70273236635E+01 -0.36666063152E+03  0.37073430686E+03  0.10566000000E+00 0. -1.
    9000005    1    3    3    0    0 -0.87214290715E+02 -0.42557023248E+02 -0.13725146592E+04  0.13759414677E+04  0.10000000000E+01 0.  0.
    9000005    1    3    3    0    0  0.42102736312E+02 -0.13004767490E+02 -0.40195474001E+03  0.40436416434E+03  0.10000000000E+01 0.  0.
<mgrwt>
<rscale>  0 0.13611297E+03</rscale>
<asrwt>0</asrwt>
<pdfrwt beam="2">  1        2 0.35100329E+00 0.14403644E+03</pdfrwt>
<pdfrwt beam="1">  1       -2 0.14555043E-02 0.14403644E+03</pdfrwt>
<totfact> 0.64598926E+03</totfact>
</mgrwt>
</event>
<event>
 8    3  0.1559595E-003  0.1383724E+03  0.7818608E-02  0.1225244E+00
         -2   -1    0    0    0  501 -0.00000000000E+00  0.00000000000E+00  0.84530650910E+01  0.84530654756E+01  0.25500000000E-02 0.  1.
          2   -1    0    0  501    0  0.00000000000E+00 -0.00000000000E+00 -0.19203407157E+04  0.19203407157E+04  0.25500000000E-02 0. -1.
         25    2    1    2    0    0 -0.31308213482E+02  0.50409543639E+02 -0.89016299437E+03  0.90085352897E+03  0.12500239114E+03 0.  0.
         23    2    1    2    0    0  0.31308213482E+02 -0.50409543639E+02 -0.10217246562E+04  0.10279402522E+04  0.96013346053E+02 0.  0.
        -13    1    4    4    0    0 -0.15414145198E+02 -0.63920269702E+01 -0.68200824671E+03  0.68221236695E+03  0.10566000000E+00 0. -1.
         13    1    4    4    0    0  0.46722358680E+02 -0.44017516668E+02 -0.33971640952E+03  0.34572788524E+03  0.10566000000E+00 0.  1.
    9000005    1    3    3    0    0 -0.30964823296E+02 -0.31096740875E+02 -0.15223502770E+03  0.15843715232E+03  0.10000000000E+01 0.  0.
    9000005    1    3    3    0    0 -0.34339018627E+00  0.81506284514E+02 -0.73792796666E+03  0.74241637665E+03  0.10000000000E+01 0.  0.
<mgrwt>
<rscale>  0 0.13150214E+03</rscale>
<asrwt>0</asrwt>
<pdfrwt beam="2">  1        2 0.29543669E+00 0.13837241E+03</pdfrwt>
<pdfrwt beam="1">  1       -2 0.13004731E-02 0.13837241E+03</pdfrwt>
<totfact> 0.11655675E+04</totfact>
</mgrwt>
</event>
<event>
 8    3  0.1559595E-003  0.1416083E+03  0.7818608E-02  0.1223527E+00
          2   -1    0    0  501    0  0.00000000000E+00  0.00000000000E+00  0.56611127502E+02  0.56611127560E+02  0.25500000000E-02 0. -1.
         -2   -1    0    0    0  501 -0.00000000000E+00 -0.00000000000E+00 -0.29375453344E+03  0.29375453345E+03  0.25500000000E-02 0.  1.
         25    2    1    2    0    0  0.64200752768E+02 -0.17258415202E+02 -0.17374356207E+03  0.22414225044E+03  0.12503332963E+03 0.  0.
         23    2    1    2    0    0 -0.64200752768E+02  0.17258415202E+02 -0.63399843864E+02  0.12622341057E+03  0.86563385001E+02 0.  0.
        -13    1    4    4    0    0 -0.78722438152E+01 -0.25874347839E+02  0.51939079888E+01  0.27539824673E+02  0.10566000000E+00 0. -1.
         13    1    4    4    0    0 -0.56328508953E+02  0.43132763041E+02 -0.68593751853E+02  0.98683585898E+02  0.10566000000E+00 0.  1.
    9000005    1    3    3    0    0  0.55741847761E+02  0.80512580244E+01 -0.87537904678E+01  0.57005308482E+02  0.10000000000E+01 0.  0.
    9000005    1    3    3    0    0  0.84589050069E+01 -0.25309673227E+02 -0.16498977160E+03  0.16713694196E+03  0.10000000000E+01 0.  0.
<mgrwt>
<rscale>  0 0.13268395E+03</rscale>
<asrwt>0</asrwt>
<pdfrwt beam="1">  1        2 0.87094044E-02 0.14160834E+03</pdfrwt>
<pdfrwt beam="2">  1       -2 0.45193004E-01 0.14160834E+03</pdfrwt>
<totfact> 0.34378152E+03</totfact>
</mgrwt>
</event>
<event>
 8    3  0.1559595E-003  0.1538879E+03  0.7818608E-02  0.1204102E+00
          2   -1    0    0  501    0  0.00000000000E+00  0.00000000000E+00  0.48044963014E+03  0.48044963015E+03  0.25500000000E-02 0. -1.
         -2   -1    0    0    0  501 -0.00000000000E+00 -0.00000000000E+00 -0.47275843588E+02  0.47275843657E+02  0.25500000000E-02 0.  1.
         25    2    1    2    0    0 -0.50515636863E+02 -0.74194250960E+02  0.14160135204E+03  0.20912300128E+03  0.12499948128E+03 0.  0.
         23    2    1    2    0    0  0.50515636863E+02  0.74194250960E+02  0.29157243451E+03  0.31860247253E+03  0.91850065270E+02 0.  0.
        -13    1    4    4    0    0  0.17756039088E+02  0.61340773798E+02  0.72047308849E+02  0.96274572607E+02  0.10566000000E+00 0.  1.
         13    1    4    4    0    0  0.32759597775E+02  0.12853477162E+02  0.21952512566E+03  0.22232789992E+03  0.10566000000E+00 0. -1.
    9000005    1    3    3    0    0 -0.11833845825E+02  0.33551189510E+02  0.15540605837E+02  0.38835971139E+02  0.10000000000E+01 0.  0.
    9000005    1    3    3    0    0 -0.38681791038E+02 -0.10774544047E+03  0.12606074621E+03  0.17028703014E+03  0.10000000000E+01 0.  0.
<mgrwt>
<rscale>  0 0.14708419E+03</rscale>
<asrwt>0</asrwt>
<pdfrwt beam="1">  1        2 0.73915325E-01 0.15388790E+03</pdfrwt>
<pdfrwt beam="2">  1       -2 0.72732070E-02 0.15388790E+03</pdfrwt>
<totfact> 0.68997279E+03</totfact>
</mgrwt>
</event>
<event>
 8    3  0.1559595E-003  0.1262811E+03  0.7818608E-02  0.1246517E+00
          2   -1    0    0  501    0  0.00000000000E+00  0.00000000000E+00  0.17111097198E+03  0.17111097200E+03  0.25500000000E-02 0. -1.
         -2   -1    0    0    0  501 -0.00000000000E+00 -0.00000000000E+00 -0.10420891776E+03  0.10420891780E+03  0.25500000000E-02 0.  1.
         25    2    1    2    0    0  0.17569896224E+02  0.36438750111E+01 -0.39135147353E+02  0.13220616460E+03  0.12499972448E+03 0.  0.
         23    2    1    2    0    0 -0.17569896224E+02 -0.36438750111E+01  0.10603720157E+03  0.14311372520E+03  0.94422831695E+02 0.  0.
        -13    1    4    4    0    0  0.69623070413E+01  0.16421518602E+02 -0.11603297089E+02  0.21278807765E+02  0.10566000000E+00 0.  1.
         13    1    4    4    0    0 -0.24532203265E+02 -0.20065393613E+02  0.11764049866E+03  0.12183491743E+03  0.10566000000E+00 0. -1.
    9000005    1    3    3    0    0  0.25108745371E+02 -0.20588063165E+02  0.38586365749E+02  0.50440311862E+02  0.10000000000E+01 0.  0.
    9000005    1    3    3    0    0 -0.75388491473E+01  0.24231938176E+02 -0.77721513103E+02  0.81765852733E+02  0.10000000000E+01 0.  0.
<mgrwt>
<rscale>  0 0.11795026E+03</rscale>
<asrwt>0</asrwt>
<pdfrwt beam="1">  1        2 0.26324764E-01 0.12628108E+03</pdfrwt>
<pdfrwt beam="2">  1       -2 0.16032142E-01 0.12628108E+03</pdfrwt>
<totfact> 0.58884076E+03</totfact>
</mgrwt>
</event>
<event>
 8    3  0.1559595E-003  0.2223390E+03  0.7818608E-02  0.1135369E+00
          2   -1    0    0  501    0  0.00000000000E+00  0.00000000000E+00  0.12015134973E+04  0.12015134973E+04  0.25500000000E-02 0. -1.
         -2   -1    0    0    0  501 -0.00000000000E+00 -0.00000000000E+00 -0.47723544150E+02  0.47723544218E+02  0.25500000000E-02 0.  1.
         25    2    1    2    0    0  0.18003214323E+03  0.37386716572E+02  0.31459042428E+03  0.38522949766E+03  0.12500116657E+03 0.  0.
         23    2    1    2    0    0 -0.18003214323E+03 -0.37386716572E+02  0.83919952885E+03  0.86400754385E+03  0.91890409881E+02 0.  0.
        -13    1    4    4    0    0 -0.58056526047E+02 -0.39644313707E+02  0.17314887005E+03  0.18687636070E+03  0.10566000000E+00 0.  1.
         13    1    4    4    0    0 -0.12197561718E+03  0.22575971348E+01  0.66605065880E+03  0.67713118315E+03  0.10566000000E+00 0. -1.
    9000005    1    3    3    0    0  0.60799970926E+02  0.63581233809E+02  0.19688458695E+03  0.21564728224E+03  0.10000000000E+01 0.  0.
    9000005    1    3    3    0    0  0.11923217230E+03 -0.26194517237E+02  0.11770583733E+03  0.16958221542E+03  0.10000000000E+01 0.  0.
<mgrwt>
<rscale>  0 0.21801891E+03</rscale>
<asrwt>0</asrwt>
<pdfrwt beam="1">  1        2 0.18484824E+00 0.22233900E+03</pdfrwt>
<pdfrwt beam="2">  1       -2 0.73420834E-02 0.22233900E+03</pdfrwt>
<totfact> 0.21550448E+03</totfact>
</mgrwt>
</event>
<event>
 8    3  0.1559595E-003  0.1636676E+03  0.7818608E-02  0.1191189E+00
         -2   -1    0    0    0  501 -0.00000000000E+00  0.00000000000E+00  0.60984002921E+01  0.60984008252E+01  0.25500000000E-02 0.  1.
          2   -1    0    0  501    0  0.00000000000E+00 -0.00000000000E+00 -0.46535508559E+04  0.46535508559E+04  0.25500000000E-02 0. -1.
         25    2    1    2    0    0 -0.68947260766E+02  0.80053459872E+02 -0.14766931275E+04  0.14857353951E+04  0.12499916158E+03 0.  0.
         23    2    1    2    0    0  0.68947260766E+02 -0.80053459872E+02 -0.31707593281E+04  0.31739138616E+04  0.94086145113E+02 0.  0.
        -13    1    4    4    0    0  0.23017411950E+01 -0.81700956484E+01 -0.21297240263E+02  0.22926667492E+02  0.10566000000E+00 0.  1.
         13    1    4    4    0    0  0.66645519571E+02 -0.71883364224E+02 -0.31494620878E+04  0.31509871941E+04  0.10566000000E+00 0. -1.
    9000005    1    3    3    0    0 -0.43889321754E+02  0.97782611460E+02 -0.67525457225E+03  0.68370859949E+03  0.10000000000E+01 0.  0.
    9000005    1    3    3    0    0 -0.25057939012E+02 -0.17729151588E+02 -0.80143855520E+03  0.80202679562E+03  0.10000000000E+01 0.  0.
<mgrwt>
<rscale>  0 0.15781200E+03</rscale>
<asrwt>0</asrwt>
<pdfrwt beam="2">  1        2 0.71592806E+00 0.16366756E+03</pdfrwt>
<pdfrwt beam="1">  1       -2 0.93821919E-03 0.16366756E+03</pdfrwt>
<totfact> 0.29784693E+02</totfact>
</mgrwt>
</event>
<event>
 8    3  0.1559595E-003  0.1646548E+03  0.7818608E-02  0.1190463E+00
          2   -1    0    0  501    0  0.00000000000E+00  0.00000000000E+00  0.30992515430E+03  0.30992515431E+03  0.25500000000E-02 0. -1.
         -2   -1    0    0    0  501 -0.00000000000E+00 -0.00000000000E+00 -0.80961868730E+02  0.80961868771E+02  0.25500000000E-02 0.  1.
         25    2    1    2    0    0  0.17269646947E+01  0.10715990459E+03  0.71826267185E+02  0.17963916839E+03  0.12499996241E+03 0.  0.
         23    2    1    2    0    0 -0.17269646947E+01 -0.10715990459E+03  0.15713701838E+03  0.21124785469E+03  0.91909662199E+02 0.  0.
        -13    1    4    4    0    0  0.11236268792E+02 -0.26848169163E+02 -0.52952512722E+01  0.29582575511E+02  0.10566000000E+00 0.  1.
         13    1    4    4    0    0 -0.12963233487E+02 -0.80311735431E+02  0.16243226965E+03  0.18166527918E+03  0.10566000000E+00 0. -1.
    9000005    1    3    3    0    0 -0.55802425311E+02  0.20007195229E+02  0.16940862818E+02  0.61661911781E+02  0.10000000000E+01 0.  0.
    9000005    1    3    3    0    0  0.57529390005E+02  0.87152709365E+02  0.54885404367E+02  0.11797725661E+03  0.10000000000E+01 0.  0.
<mgrwt>
<rscale>  0 0.15844522E+03</rscale>
<asrwt>0</asrwt>
<pdfrwt beam="1">  1        2 0.47680793E-01 0.16465485E+03</pdfrwt>
<pdfrwt beam="2">  1       -2 0.12455672E-01 0.16465485E+03</pdfrwt>
<totfact> 0.47635569E+03</totfact>
</mgrwt>
</event>
<event>
 8    3  0.1559595E-003  0.1250057E+03  0.7818608E-02  0.1251051E+00
          2   -1    0    0  501    0  0.00000000000E+00  0.00000000000E+00  0.43716868779E+03  0.43716868780E+03  0.25500000000E-02 0. -1.
         -2   -1    0    0    0  501 -0.00000000000E+00 -0.00000000000E+00 -0.28066400564E+02  0.28066400680E+02  0.25500000000E-02 0.  1.
         25    2    1    2    0    0 -0.95516240482E+00  0.16794603564E-01  0.28885556916E+03  0.31474427416E+03  0.12500202265E+03 0.  0.
         23    2    1    2    0    0  0.95516240482E+00 -0.16794603564E-01  0.12024671807E+03  0.15049081432E+03  0.90483696712E+02 0.  0.
        -13    1    4    4    0    0  0.43334191927E+01 -0.10924428495E+02 -0.12555777934E+02  0.17198266872E+02  0.10566000000E+00 0.  1.
         13    1    4    4    0    0 -0.33782567879E+01  0.10907633892E+02  0.13280249600E+03  0.13329254745E+03  0.10566000000E+00 0. -1.
    9000005    1    3    3    0    0  0.15729388593E+02 -0.93496664760E+01 -0.59877382652E+01  0.19279080327E+02  0.10000000000E+01 0.  0.
    9000005    1    3    3    0    0 -0.16684550998E+02  0.93664610796E+01  0.29484330742E+03  0.29546519383E+03  0.10000000000E+01 0.  0.
<mgrwt>
<rscale>  0 0.11530441E+03</rscale>
<asrwt>0</asrwt>
<pdfrwt beam="1">  1        2 0.67256714E-01 0.12500567E+03</pdfrwt>
<pdfrwt beam="2">  1       -2 0.43179083E-02 0.12500567E+03</pdfrwt>
<totfact> 0.16568551E+04</totfact>
</mgrwt>
</event>
<event>
 8    3  0.1559595E-003  0.1291278E+03  0.7818608E-02  0.1240961E+00
          2   -1    0    0  501    0  0.00000000000E+00  0.00000000000E+00  0.40975420162E+03  0.40975420163E+03  0.25500000000E-02 0. -1.
         -2   -1    0    0    0  501 -0.00000000000E+00 -0.00000000000E+00 -0.32190329791E+02  0.32190329892E+02  0.25500000000E-02 0.  1.
         25    2    1    2    0    0 -0.30926389509E+02  0.93774798792E+01  0.21100015830E+03  0.24737633237E+03  0.12501841591E+03 0.  0.
         23    2    1    2    0    0  0.30926389509E+02 -0.93774798792E+01  0.16656371353E+03  0.19456819915E+03  0.95230954837E+02 0.  0.
        -13    1    4    4    0    0 -0.64807796469E+00  0.25587401863E+02  0.47462312228E+01  0.26032153465E+02  0.10566000000E+00 0.  1.
         13    1    4    4    0    0  0.31574467474E+02 -0.34964881742E+02  0.16181748231E+03  0.16853604569E+03  0.10566000000E+00 0. -1.
    9000005    1    3    3    0    0  0.47937945826E+02 -0.69211048725E+01  0.73627011162E+02  0.88135606399E+02  0.10000000000E+01 0.  0.
    9000005    1    3    3    0    0 -0.78864335335E+02  0.16298584752E+02  0.13737314714E+03  0.15924072597E+03  0.10000000000E+01 0.  0.
<mgrwt>
<rscale>  0 0.12130437E+03</rscale>
<asrwt>0</asrwt>
<pdfrwt beam="1">  1        2 0.63039105E-01 0.12912778E+03</pdfrwt>
<pdfrwt beam="2">  1       -2 0.49523587E-02 0.12912778E+03</pdfrwt>
<totfact> 0.14511511E+04</totfact>
</mgrwt>
</event>
<event>
 8    3  0.1559595E-003  0.1361549E+03  0.7818608E-02  0.1231418E+00
         -2   -1    0    0    0  501 -0.00000000000E+00  0.00000000000E+00  0.47121247038E+02  0.47121247107E+02  0.25500000000E-02 0.  1.
          2   -1    0    0  501    0  0.00000000000E+00 -0.00000000000E+00 -0.45245790480E+03  0.45245790481E+03  0.25500000000E-02 0. -1.
         25    2    1    2    0    0 -0.28485349676E+02  0.45839380711E+02 -0.79938692989E+02  0.15788716312E+03  0.12500199067E+03 0.  0.
         23    2    1    2    0    0  0.28485349676E+02 -0.45839380711E+02 -0.32539796477E+03  0.34169198879E+03  0.89201545707E+02 0.  0.
        -13    1    4    4    0    0  0.44849425658E+01  0.11126547724E+02 -0.16670589058E+01  0.12112184919E+02  0.10566000000E+00 0.  1.
         13    1    4    4    0    0  0.24000407110E+02 -0.56965928435E+02 -0.32373090587E+03  0.32957980387E+03  0.10566000000E+00 0. -1.
    9000005    1    3    3    0    0 -0.51636400857E+02 -0.16994615569E+02 -0.72328993886E+02  0.90485458546E+02  0.10000000000E+01 0.  0.
    9000005    1    3    3    0    0  0.23151051181E+02  0.62833996280E+02 -0.76096991036E+01  0.67401704576E+02  0.10000000000E+01 0.  0.
<mgrwt>
<rscale>  0 0.12736544E+03</rscale>
<asrwt>0</asrwt>
<pdfrwt beam="2">  1        2 0.69608905E-01 0.13615492E+03</pdfrwt>
<pdfrwt beam="1">  1       -2 0.72494229E-02 0.13615492E+03</pdfrwt>
<totfact> 0.73493165E+03</totfact>
</mgrwt>
</event>
<event>
 8    3  0.1559595E-003  0.1332420E+03  0.7818608E-02  0.1235818E+00
          2   -1    0    0  501    0  0.00000000000E+00  0.00000000000E+00  0.32433184541E+03  0.32433184542E+03  0.25500000000E-02 0. -1.
         -2   -1    0    0    0  501 -0.00000000000E+00 -0.00000000000E+00 -0.44856729286E+02  0.44856729358E+02  0.25500000000E-02 0.  1.
         25    2    1    2    0    0 -0.29367171023E+02 -0.35586414030E+02  0.11584344067E+03  0.17655915308E+03  0.12499843276E+03 0.  0.
         23    2    1    2    0    0  0.29367171023E+02  0.35586414030E+02  0.16363167545E+03  0.19262942169E+03  0.90564591830E+02 0.  0.
        -13    1    4    4    0    0 -0.25030670116E+02  0.32597492652E+02  0.39209536663E+02  0.56802551906E+02  0.10566000000E+00 0. -1.
         13    1    4    4    0    0  0.54397841139E+02  0.29889213780E+01  0.12442213879E+03  0.13582686979E+03  0.10566000000E+00 0.  1.
    9000005    1    3    3    0    0 -0.66897276957E+01 -0.61797472683E+01  0.13462241346E+03  0.13493382059E+03  0.10000000000E+01 0.  0.
    9000005    1    3    3    0    0 -0.22677443327E+02 -0.29406666761E+02 -0.18778972792E+02  0.41625332491E+02  0.10000000000E+01 0.  0.
<mgrwt>
<rscale>  0 0.12452239E+03</rscale>
<asrwt>0</asrwt>
<pdfrwt beam="1">  1        2 0.49897206E-01 0.13324200E+03</pdfrwt>
<pdfrwt beam="2">  1       -2 0.69010354E-02 0.13324200E+03</pdfrwt>
<totfact> 0.11290624E+04</totfact>
</mgrwt>
</event>
<event>
 8    3  0.1559595E-003  0.1474010E+03  0.7818608E-02  0.1212978E+00
         -2   -1    0    0    0  501 -0.00000000000E+00  0.00000000000E+00  0.10043915152E+02  0.10043915476E+02  0.25500000000E-02 0.  1.
          2   -1    0    0  501    0  0.00000000000E+00 -0.00000000000E+00 -0.21274700025E+04  0.21274700025E+04  0.25500000000E-02 0. -1.
         25    2    1    2    0    0  0.58637575652E+02 -0.51610303059E+02 -0.15701487261E+04  0.15770523419E+04  0.12500031333E+03 0.  0.
         23    2    1    2    0    0 -0.58637575652E+02  0.51610303059E+02 -0.54727736126E+03  0.56046157610E+03  0.92209974915E+02 0.  0.
        -13    1    4    4    0    0  0.16981336819E+02  0.52029372839E+01 -0.23932080613E+03  0.23997894859E+03  0.10566000000E+00 0. -1.
         13    1    4    4    0    0 -0.75618912471E+02  0.46407365775E+02 -0.30795655513E+03  0.32048262751E+03  0.10566000000E+00 0.  1.
    9000005    1    3    3    0    0 -0.33555083696E+02 -0.17171426266E+02 -0.76204442075E+03  0.76297673668E+03  0.10000000000E+01 0.  0.
    9000005    1    3    3    0    0  0.92192659348E+02 -0.34438876793E+02 -0.80810430533E+03  0.81407560519E+03  0.10000000000E+01 0.  0.
<mgrwt>
<rscale>  0 0.14026098E+03</rscale>
<asrwt>0</asrwt>
<pdfrwt beam="2">  1        2 0.32730272E+00 0.14740104E+03</pdfrwt>
<pdfrwt beam="1">  1       -2 0.15452194E-02 0.14740104E+03</pdfrwt>
<totfact> 0.71269785E+03</totfact>
</mgrwt>
</event>
<event>
 8    3  0.1559595E-003  0.1410214E+03  0.7818608E-02  0.1221206E+00
         -2   -1    0    0    0  501 -0.00000000000E+00  0.00000000000E+00  0.12630395955E+03  0.12630395958E+03  0.25500000000E-02 0. -1.
          2   -1    0    0  501    0  0.00000000000E+00 -0.00000000000E+00 -0.13463403182E+03  0.13463403185E+03  0.25500000000E-02 0.  1.
         25    2    1    2    0    0 -0.64349190422E+02 -0.10975231941E+02 -0.26572084872E+02  0.14350296704E+03  0.12500300728E+03 0.  0.
         23    2    1    2    0    0  0.64349190422E+02  0.10975231941E+02  0.18242012601E+02  0.11743502439E+03  0.95900677296E+02 0.  0.
        -13    1    4    4    0    0  0.31801914736E+02  0.53009726359E+02  0.20113095311E+01  0.61850217458E+02  0.10566000000E+00 0.  1.
         13    1    4    4    0    0  0.32547275686E+02 -0.42034494419E+02  0.16230703070E+02  0.55584806933E+02  0.10566000000E+00 0. -1.
    9000005    1    3    3    0    0 -0.60638927985E+02  0.65651022521E+01  0.41056562457E+02  0.73531091897E+02  0.10000000000E+01 0.  0.
    9000005    1    3    3    0    0 -0.37102624365E+01 -0.17540334193E+02 -0.67628647329E+02  0.69971875139E+02  0.10000000000E+01 0.  0.
<mgrwt>
<rscale>  0 0.13430343E+03</rscale>
<asrwt>0</asrwt>
<pdfrwt beam="2">  1        2 0.20712928E-01 0.14102137E+03</pdfrwt>
<pdfrwt beam="1">  1       -2 0.19431378E-01 0.14102137E+03</pdfrwt>
<totfact> 0.56213256E+03</totfact>
</mgrwt>
</event>
<event>
 8    3  0.1559595E-003  0.1566336E+03  0.7818608E-02  0.1205071E+00
         -2   -1    0    0    0  501 -0.00000000000E+00  0.00000000000E+00  0.84693207608E+01  0.84693211447E+01  0.25500000000E-02 0.  1.
          2   -1    0    0  501    0  0.00000000000E+00 -0.00000000000E+00 -0.22796800343E+04  0.22796800343E+04  0.25500000000E-02 0. -1.
         25    2    1    2    0    0 -0.93153414467E+02 -0.15210401850E+02 -0.14227716297E+04  0.14313675942E+04  0.12500065764E+03 0.  0.
         23    2    1    2    0    0  0.93153414467E+02  0.15210401850E+02 -0.84843908376E+03  0.85678176120E+03  0.72919081983E+02 0.  0.
        -13    1    4    4    0    0  0.90737563482E+02 -0.12285610512E+02 -0.66672476510E+03  0.67298303486E+03  0.10566000000E+00 0. -1.
         13    1    4    4    0    0  0.24158509851E+01  0.27496012362E+02 -0.18171431867E+03  0.18379872634E+03  0.10566000000E+00 0.  1.
    9000005    1    3    3    0    0 -0.98758337478E+02 -0.51412771996E+02 -0.82585390607E+03  0.83332596054E+03  0.10000000000E+01 0.  0.
    9000005    1    3    3    0    0  0.56049230112E+01  0.36202370146E+02 -0.59691772368E+03  0.59804163367E+03  0.10000000000E+01 0.  0.
<mgrwt>
<rscale>  0 0.14631856E+03</rscale>
<asrwt>0</asrwt>
<pdfrwt beam="2">  1        2 0.35071952E+00 0.15663358E+03</pdfrwt>
<pdfrwt beam="1">  1       -2 0.13029743E-02 0.15663358E+03</pdfrwt>
<totfact> 0.76047143E+03</totfact>
</mgrwt>
</event>
<event>
 8    3  0.1559595E-003  0.1262383E+03  0.7818608E-02  0.1248052E+00
          2   -1    0    0  501    0  0.00000000000E+00  0.00000000000E+00  0.65854906030E+03  0.65854906031E+03  0.25500000000E-02 0. -1.
         -2   -1    0    0    0  501 -0.00000000000E+00 -0.00000000000E+00 -0.18310104837E+02  0.18310105015E+02  0.25500000000E-02 0.  1.
         25    2    1    2    0    0 -0.25818983200E+01  0.17444542770E+02  0.37758528923E+03  0.39812908036E+03  0.12500054285E+03 0.  0.
         23    2    1    2    0    0  0.25818983200E+01 -0.17444542770E+02  0.26265366623E+03  0.27873008496E+03  0.91610772323E+02 0.  0.
        -13    1    4    4    0    0 -0.25697929795E+02 -0.25016244689E+02  0.38283250931E+02  0.52457740705E+02  0.10566000000E+00 0.  1.
         13    1    4    4    0    0  0.28279828115E+02  0.75717019191E+01  0.22437041530E+03  0.22627234425E+03  0.10566000000E+00 0. -1.
    9000005    1    3    3    0    0 -0.50197987263E+02 -0.20607212740E+02  0.98487138589E+02  0.11245092979E+03  0.10000000000E+01 0.  0.
    9000005    1    3    3    0    0  0.47616088943E+02  0.38051755510E+02  0.27909815065E+03  0.28567815058E+03  0.10000000000E+01 0.  0.
<mgrwt>
<rscale>  0 0.11704564E+03</rscale>
<asrwt>0</asrwt>
<pdfrwt beam="1">  1        2 0.10131526E+00 0.12623832E+03</pdfrwt>
<pdfrwt beam="2">  1       -2 0.28169388E-02 0.12623832E+03</pdfrwt>
<totfact> 0.19747544E+04</totfact>
</mgrwt>
</event>
<event>
 8    3  0.1559595E-003  0.1288788E+03  0.7818608E-02  0.1251001E+00
          2   -1    0    0  501    0  0.00000000000E+00  0.00000000000E+00  0.18055004665E+04  0.18055004665E+04  0.25500000000E-02 0. -1.
         -2   -1    0    0    0  501 -0.00000000000E+00 -0.00000000000E+00 -0.61981917554E+01  0.61981922799E+01  0.25500000000E-02 0.  1.
         25    2    1    2    0    0  0.21690710001E+02  0.22678027260E+02  0.10789991552E+04  0.10866687307E+04  0.12499989455E+03 0.  0.
         23    2    1    2    0    0 -0.21690710001E+02 -0.22678027260E+02  0.72030311954E+03  0.72502992803E+03  0.76465892401E+02 0.  0.
        -13    1    4    4    0    0  0.19467406791E+02 -0.97712298089E+01  0.70302404816E+02  0.73599566208E+02  0.10566000000E+00 0.  1.
         13    1    4    4    0    0 -0.41158116792E+02 -0.12906797451E+02  0.65000071472E+03  0.65143036182E+03  0.10566000000E+00 0. -1.
    9000005    1    3    3    0    0  0.28022773909E+02 -0.15886958316E+02  0.97550043776E+03  0.97603267127E+03  0.10000000000E+01 0.  0.
    9000005    1    3    3    0    0 -0.63320639084E+01  0.38564985576E+02  0.10349871740E+03  0.11063605945E+03  0.10000000000E+01 0.  0.
<mgrwt>
<rscale>  0 0.11533289E+03</rscale>
<asrwt>0</asrwt>
<pdfrwt beam="1">  1        2 0.27776967E+00 0.12887883E+03</pdfrwt>
<pdfrwt beam="2">  1       -2 0.95356673E-03 0.12887883E+03</pdfrwt>
<totfact> 0.20738726E+04</totfact>
</mgrwt>
</event>
<event>
 8    3  0.1559595E-003  0.1785594E+03  0.7818608E-02  0.1174799E+00
          2   -1    0    0  501    0  0.00000000000E+00  0.00000000000E+00  0.16741574796E+03  0.16741574798E+03  0.25500000000E-02 0.  1.
         -2   -1    0    0    0  501 -0.00000000000E+00 -0.00000000000E+00 -0.16881676889E+03  0.16881676891E+03  0.25500000000E-02 0. -1.
         25    2    1    2    0    0  0.93161941029E+02  0.87049606346E+02  0.83096444738E+01  0.17875269109E+03  0.12500677245E+03 0.  0.
         23    2    1    2    0    0 -0.93161941029E+02 -0.87049606346E+02 -0.97106653982E+01  0.15747982580E+03  0.91917448236E+02 0.  0.
        -13    1    4    4    0    0 -0.32014858659E+01  0.19403833817E+01 -0.29208389485E+02  0.29447508889E+02  0.10566000000E+00 0. -1.
         13    1    4    4    0    0 -0.89960455163E+02 -0.88989989728E+02  0.19497724087E+02  0.12803231691E+03  0.10566000000E+00 0.  1.
    9000005    1    3    3    0    0  0.47341263585E+02 -0.14389327870E+02 -0.33593657482E+02  0.59814561917E+02  0.10000000000E+01 0.  0.
    9000005    1    3    3    0    0  0.45820677444E+02  0.10143893422E+03  0.41903301956E+02  0.11893812917E+03  0.10000000000E+01 0.  0.
<mgrwt>
<rscale>  0 0.17295636E+03</rscale>
<asrwt>0</asrwt>
<pdfrwt beam="1">  1        2 0.25756269E-01 0.17855944E+03</pdfrwt>
<pdfrwt beam="2">  1       -2 0.25971811E-01 0.17855944E+03</pdfrwt>
<totfact> 0.27049969E+03</totfact>
</mgrwt>
</event>
<event>
 8    3  0.1559595E-003  0.1391235E+03  0.7818608E-02  0.1225994E+00
          2   -1    0    0  501    0  0.00000000000E+00  0.00000000000E+00  0.23066764661E+04  0.23066764661E+04  0.25500000000E-02 0. -1.
         -2   -1    0    0    0  501 -0.00000000000E+00 -0.00000000000E+00 -0.75602671517E+01  0.75602675817E+01  0.25500000000E-02 0.  1.
         25    2    1    2    0    0 -0.54177486872E+02 -0.28199385011E+02  0.16615052716E+04  0.16673197401E+04  0.12499977189E+03 0.  0.
         23    2    1    2    0    0  0.54177486872E+02  0.28199385011E+02  0.63761092736E+03  0.64691699354E+03  0.90683495943E+02 0.  0.
        -13    1    4    4    0    0 -0.11176669715E+02  0.20350009638E+02  0.39049390688E+03  0.39118351616E+03  0.10566000000E+00 0. -1.
         13    1    4    4    0    0  0.65354156587E+02  0.78493753732E+01  0.24711702048E+03  0.25573347738E+03  0.10566000000E+00 0.  1.
    9000005    1    3    3    0    0  0.16640721538E+02 -0.46310447817E+02  0.31412004495E+03  0.31795278554E+03  0.10000000000E+01 0.  0.
    9000005    1    3    3    0    0 -0.70818208409E+02  0.18111062806E+02  0.13473852266E+04  0.13493669546E+04  0.10000000000E+01 0.  0.
<mgrwt>
<rscale>  0 0.13099028E+03</rscale>
<asrwt>0</asrwt>
<pdfrwt beam="1">  1        2 0.35487338E+00 0.13912350E+03</pdfrwt>
<pdfrwt beam="2">  1       -2 0.11631178E-02 0.13912350E+03</pdfrwt>
<totfact> 0.86489817E+03</totfact>
</mgrwt>
</event>
<event>
 8    3  0.1559595E-003  0.1364371E+03  0.7818608E-02  0.1229015E+00
         -2   -1    0    0    0  501 -0.00000000000E+00  0.00000000000E+00  0.12748721900E+02  0.12748722155E+02  0.25500000000E-02 0.  1.
          2   -1    0    0  501    0  0.00000000000E+00 -0.00000000000E+00 -0.13232836387E+04  0.13232836387E+04  0.25500000000E-02 0. -1.
         25    2    1    2    0    0  0.54639930847E+02  0.21513361247E+01 -0.93938945308E+03  0.94924581900E+03  0.12499972012E+03 0.  0.
         23    2    1    2    0    0 -0.54639930847E+02 -0.21513361247E+01 -0.37114546371E+03  0.38678654185E+03  0.94152660275E+02 0.  0.
        -13    1    4    4    0    0 -0.31139460394E+02  0.25421847243E+02 -0.32797036561E+03  0.33042473907E+03  0.10566000000E+00 0. -1.
         13    1    4    4    0    0 -0.23500470454E+02 -0.27573183368E+02 -0.43175098104E+02  0.56361802782E+02  0.10566000000E+00 0.  1.
    9000005    1    3    3    0    0  0.89078363030E+02  0.27598451144E+02 -0.67417102853E+03  0.68059107031E+03  0.10000000000E+01 0.  0.
    9000005    1    3    3    0    0 -0.34438432182E+02 -0.25447115019E+02 -0.26521842455E+03  0.26865474869E+03  0.10000000000E+01 0.  0.
<mgrwt>
<rscale>  0 0.12895449E+03</rscale>
<asrwt>0</asrwt>
<pdfrwt beam="2">  1        2 0.20358199E+00 0.13643709E+03</pdfrwt>
<pdfrwt beam="1">  1       -2 0.19613429E-02 0.13643709E+03</pdfrwt>
<totfact> 0.13112839E+04</totfact>
</mgrwt>
</event>
<event>
 8    3  0.1559595E-003  0.1631904E+03  0.7818608E-02  0.1192534E+00
         -2   -1    0    0    0  501 -0.00000000000E+00  0.00000000000E+00  0.46818889573E+02  0.46818889642E+02  0.25500000000E-02 0.  1.
          2   -1    0    0  501    0  0.00000000000E+00 -0.00000000000E+00 -0.74681949831E+03  0.74681949832E+03  0.25500000000E-02 0. -1.
         25    2    1    2    0    0 -0.10352304516E+03  0.16997995709E+02 -0.60252170572E+03  0.62423034535E+03  0.12500066179E+03 0.  0.
         23    2    1    2    0    0  0.10352304516E+03 -0.16997995709E+02 -0.97478903018E+02  0.16940804261E+03  0.90504119418E+02 0.  0.
        -13    1    4    4    0    0  0.66256348444E+02  0.13108810364E+02 -0.10085391312E+03  0.12138067216E+03  0.10566000000E+00 0.  1.
         13    1    4    4    0    0  0.37266696711E+02 -0.30106806074E+02  0.33750100978E+01  0.48027370456E+02  0.10566000000E+00 0. -1.
    9000005    1    3    3    0    0 -0.76122515134E+02  0.68277761563E+01 -0.58534601828E+03  0.59031535382E+03  0.10000000000E+01 0.  0.
    9000005    1    3    3    0    0 -0.27400530022E+02  0.10170219553E+02 -0.17175687442E+02  0.33914991528E+02  0.10000000000E+01 0.  0.
<mgrwt>
<rscale>  0 0.15664807E+03</rscale>
<asrwt>0</asrwt>
<pdfrwt beam="2">  1        2 0.11489530E+00 0.16319044E+03</pdfrwt>
<pdfrwt beam="1">  1       -2 0.72029066E-02 0.16319044E+03</pdfrwt>
<totfact> 0.42300664E+03</totfact>
</mgrwt>
</event>
<event>
 8    3  0.1559595E-003  0.1472131E+03  0.7818608E-02  0.1214853E+00
         -2   -1    0    0    0  501 -0.00000000000E+00  0.00000000000E+00  0.91984290656E+01  0.91984294191E+01  0.25500000000E-02 0.  1.
          2   -1    0    0  501    0  0.00000000000E+00 -0.00000000000E+00 -0.22743869849E+04  0.22743869849E+04  0.25500000000E-02 0. -1.
         25    2    1    2    0    0 -0.63357233626E+02  0.45078590423E+02 -0.77599380128E+03  0.78983421510E+03  0.12500195739E+03 0.  0.
         23    2    1    2    0    0  0.63357233626E+02 -0.45078590423E+02 -0.14891947545E+04  0.14937511992E+04  0.86864318404E+02 0.  0.
        -13    1    4    4    0    0  0.17997415187E+02  0.23552807868E+02 -0.23514343091E+03  0.23700440076E+03  0.10566000000E+00 0. -1.
         13    1    4    4    0    0  0.45359818439E+02 -0.68631398292E+02 -0.12540513236E+04  0.12567467984E+04  0.10566000000E+00 0.  1.
    9000005    1    3    3    0    0  0.35311243009E+02  0.27846406451E+02 -0.18348094614E+03  0.18891417054E+03  0.10000000000E+01 0.  0.
    9000005    1    3    3    0    0 -0.98668476635E+02  0.17232183972E+02 -0.59251285514E+03  0.60092004456E+03  0.10000000000E+01 0.  0.
<mgrwt>
<rscale>  0 0.13887333E+03</rscale>
<asrwt>0</asrwt>
<pdfrwt beam="2">  1        2 0.34990524E+00 0.14721314E+03</pdfrwt>
<pdfrwt beam="1">  1       -2 0.14151448E-02 0.14721314E+03</pdfrwt>
<totfact> 0.67875348E+03</totfact>
</mgrwt>
</event>
<event>
 8    3  0.1559595E-003  0.1367329E+03  0.7818608E-02  0.1227384E+00
          2   -1    0    0  501    0  0.00000000000E+00  0.00000000000E+00  0.36551951084E+04  0.36551951084E+04  0.25500000000E-02 0. -1.
         -2   -1    0    0    0  501 -0.00000000000E+00 -0.00000000000E+00 -0.45598646681E+01  0.45598653811E+01  0.25500000000E-02 0.  1.
         25    2    1    2    0    0  0.30191573123E+02 -0.46470699334E+02  0.24858969321E+04  0.24896544809E+04  0.12499928186E+03 0.  0.
         23    2    1    2    0    0 -0.30191573123E+02  0.46470699334E+02  0.11647383116E+04  0.11701004928E+04  0.97204792973E+02 0.  0.
        -13    1    4    4    0    0 -0.36825394150E+02  0.49437125852E+02  0.35384792091E+03  0.35917753460E+03  0.10566000000E+00 0.  1.
         13    1    4    4    0    0  0.66338210264E+01 -0.29664265179E+01  0.81089039067E+03  0.81092295819E+03  0.10566000000E+00 0. -1.
    9000005    1    3    3    0    0 -0.18777578552E+02 -0.23273078379E+02  0.14138571430E+03  0.14451696731E+03  0.10000000000E+01 0.  0.
    9000005    1    3    3    0    0  0.48969151676E+02 -0.23197620955E+02  0.23445112178E+04  0.23451375136E+04  0.10000000000E+01 0.  0.
<mgrwt>
<rscale>  0 0.13004824E+03</rscale>
<asrwt>0</asrwt>
<pdfrwt beam="1">  1        2 0.56233522E+00 0.13673287E+03</pdfrwt>
<pdfrwt beam="2">  1       -2 0.70152080E-03 0.13673287E+03</pdfrwt>
<totfact> 0.29055799E+03</totfact>
</mgrwt>
</event>
<event>
 8    3  0.1559595E-003  0.1585494E+03  0.7818608E-02  0.1198464E+00
         -2   -1    0    0    0  501 -0.00000000000E+00  0.00000000000E+00  0.25566032805E+03  0.25566032806E+03  0.25500000000E-02 0. -1.
          2   -1    0    0  501    0  0.00000000000E+00 -0.00000000000E+00 -0.83531031074E+02  0.83531031113E+02  0.25500000000E-02 0.  1.
         25    2    1    2    0    0 -0.90227455056E+01  0.97113484428E+02  0.10783937164E+03  0.19174787041E+03  0.12500190774E+03 0.  0.
         23    2    1    2    0    0  0.90227455056E+01 -0.97113484428E+02  0.64289925333E+02  0.14744348876E+03  0.89966377524E+02 0.  0.
        -13    1    4    4    0    0  0.16043334680E+02 -0.87921252693E+02  0.77231192345E+01  0.89706148047E+02  0.10566000000E+00 0.  1.
         13    1    4    4    0    0 -0.70205891749E+01 -0.91922317359E+01  0.56566806098E+02  0.57737340715E+02  0.10566000000E+00 0. -1.
    9000005    1    3    3    0    0 -0.10666057383E+02  0.89754147867E+02  0.70433198838E+01  0.90665209394E+02  0.10000000000E+01 0.  0.
    9000005    1    3    3    0    0  0.16433118775E+01  0.73593365610E+01  0.10079605176E+03  0.10108266102E+03  0.10000000000E+01 0.  0.
<mgrwt>
<rscale>  0 0.15164645E+03</rscale>
<asrwt>0</asrwt>
<pdfrwt beam="2">  1        2 0.12850928E-01 0.15854941E+03</pdfrwt>
<pdfrwt beam="1">  1       -2 0.39332358E-01 0.15854941E+03</pdfrwt>
<totfact> 0.28063301E+03</totfact>
</mgrwt>
</event>
<event>
 8    3  0.1559595E-003  0.1281903E+03  0.7818608E-02  0.1245187E+00
          2   -1    0    0  501    0  0.00000000000E+00  0.00000000000E+00  0.14023916745E+03  0.14023916747E+03  0.25500000000E-02 0. -1.
         -2   -1    0    0    0  501 -0.00000000000E+00 -0.00000000000E+00 -0.88397564170E+02  0.88397564207E+02  0.25500000000E-02 0.  1.
         25    2    1    2    0    0 -0.28200170994E+02 -0.33829872067E+01  0.33516680624E+02  0.13249955810E+03  0.12500428301E+03 0.  0.
         23    2    1    2    0    0  0.28200170994E+02  0.33829872067E+01  0.18324922652E+02  0.96137173576E+02  0.89999217255E+02 0.  0.
        -13    1    4    4    0    0  0.54572253211E+02  0.95425765954E+01  0.33847548309E+02  0.64921947593E+02  0.10566000000E+00 0. -1.
         13    1    4    4    0    0 -0.26372082217E+02 -0.61595893887E+01 -0.15522625657E+02  0.31215225984E+02  0.10566000000E+00 0.  1.
    9000005    1    3    3    0    0 -0.11795096532E+02 -0.58291917102E+02  0.44315705278E+02  0.74175155112E+02  0.10000000000E+01 0.  0.
    9000005    1    3    3    0    0 -0.16405074462E+02  0.54908929896E+02 -0.10799024654E+02  0.58324402988E+02  0.10000000000E+01 0.  0.
<mgrwt>
<rscale>  0 0.11874223E+03</rscale>
<asrwt>0</asrwt>
<pdfrwt beam="1">  1        2 0.21575256E-01 0.12819035E+03</pdfrwt>
<pdfrwt beam="2">  1       -2 0.13599625E-01 0.12819035E+03</pdfrwt>
<totfact> 0.96052735E+03</totfact>
</mgrwt>
</event>
<event>
 8    3  0.1559595E-003  0.1400756E+03  0.7818608E-02  0.1224247E+00
         -2   -1    0    0    0  501 -0.00000000000E+00  0.00000000000E+00  0.28520720418E+02  0.28520720532E+02  0.25500000000E-02 0.  1.
          2   -1    0    0  501    0  0.00000000000E+00 -0.00000000000E+00 -0.60905524799E+03  0.60905524800E+03  0.25500000000E-02 0. -1.
         25    2    1    2    0    0 -0.54792293260E+02 -0.31509398652E+02 -0.41685445120E+03  0.43975993009E+03  0.12500450001E+03 0.  0.
         23    2    1    2    0    0  0.54792293260E+02  0.31509398652E+02 -0.16368007637E+03  0.19781603844E+03  0.91350862379E+02 0.  0.
        -13    1    4    4    0    0  0.38040698978E+02  0.42178200056E+02 -0.33111428217E+02  0.65745518336E+02  0.10566000000E+00 0.  1.
         13    1    4    4    0    0  0.16751594282E+02 -0.10668801404E+02 -0.13056864816E+03  0.13207052010E+03  0.10566000000E+00 0. -1.
    9000005    1    3    3    0    0  0.17013019400E+02 -0.37778045955E+02 -0.29715131071E+03  0.30002754047E+03  0.10000000000E+01 0.  0.
    9000005    1    3    3    0    0 -0.71805312661E+02  0.62686473032E+01 -0.11970314049E+03  0.13973238962E+03  0.10000000000E+01 0.  0.
<mgrwt>
<rscale>  0 0.13218624E+03</rscale>
<asrwt>0</asrwt>
<pdfrwt beam="2">  1        2 0.93700797E-01 0.14007556E+03</pdfrwt>
<pdfrwt beam="1">  1       -2 0.43878036E-02 0.14007556E+03</pdfrwt>
<totfact> 0.11313902E+04</totfact>
</mgrwt>
</event>
<event>
 8    3  0.1559595E-003  0.1869303E+03  0.7818608E-02  0.1166497E+00
         -2   -1    0    0    0  501 -0.00000000000E+00  0.00000000000E+00  0.24132947612E+03  0.24132947613E+03  0.25500000000E-02 0.  1.
          2   -1    0    0  501    0  0.00000000000E+00 -0.00000000000E+00 -0.13066305976E+03  0.13066305978E+03  0.25500000000E-02 0. -1.
         25    2    1    2    0    0 -0.82133076245E+02 -0.11212475740E+03  0.81096490358E+02  0.20376351164E+03  0.12500049797E+03 0.  0.
         23    2    1    2    0    0  0.82133076245E+02  0.11212475740E+03  0.29569926002E+02  0.16822902427E+03  0.90048990261E+02 0.  0.
        -13    1    4    4    0    0 -0.18445741460E+02  0.29779754889E+02  0.12160925344E+02  0.37080701834E+02  0.10566000000E+00 0. -1.
         13    1    4    4    0    0  0.10057881770E+03  0.82345002514E+02  0.17409000658E+02  0.13114832244E+03  0.10566000000E+00 0.  1.
    9000005    1    3    3    0    0 -0.74428467150E+02 -0.10848588373E+03  0.11132216825E+03  0.17234386799E+03  0.10000000000E+01 0.  0.
    9000005    1    3    3    0    0 -0.77046090952E+01 -0.36388736725E+01 -0.30225677892E+02  0.31419643648E+02  0.10000000000E+01 0.  0.
<mgrwt>
<rscale>  0 0.18135573E+03</rscale>
<asrwt>0</asrwt>
<pdfrwt beam="2">  1        2 0.20102009E-01 0.18693028E+03</pdfrwt>
<pdfrwt beam="1">  1       -2 0.37127611E-01 0.18693028E+03</pdfrwt>
<totfact> 0.18681439E+03</totfact>
</mgrwt>
</event>
<event>
 8    3  0.1559595E-003  0.1373141E+03  0.7818608E-02  0.1228025E+00
          2   -1    0    0  501    0  0.00000000000E+00  0.00000000000E+00  0.67801704568E+02  0.67801704616E+02  0.25500000000E-02 0. -1.
         -2   -1    0    0    0  501 -0.00000000000E+00 -0.00000000000E+00 -0.25536708996E+03  0.25536708998E+03  0.25500000000E-02 0.  1.
         25    2    1    2    0    0 -0.44413466745E+02 -0.35464790433E+02 -0.15975522406E+03  0.21065820943E+03  0.12499936879E+03 0.  0.
         23    2    1    2    0    0  0.44413466745E+02  0.35464790433E+02 -0.27810161334E+02  0.11251058516E+03  0.93031818808E+02 0.  0.
        -13    1    4    4    0    0 -0.65903857277E+01  0.54158520919E+02 -0.11090860552E+02  0.55674023782E+02  0.10566000000E+00 0. -1.
         13    1    4    4    0    0  0.51003852472E+02 -0.18693730486E+02 -0.16719300782E+02  0.56836561377E+02  0.10566000000E+00 0.  1.
    9000005    1    3    3    0    0 -0.53349849778E+02 -0.64722748702E+02 -0.15931247351E+03  0.18004639649E+03  0.10000000000E+01 0.  0.
    9000005    1    3    3    0    0  0.89363830332E+01  0.29257958269E+02 -0.44275054796E+00  0.30611812946E+02  0.10000000000E+01 0.  0.
<mgrwt>
<rscale>  0 0.12961706E+03</rscale>
<asrwt>0</asrwt>
<pdfrwt beam="1">  1        2 0.10431032E-01 0.13731405E+03</pdfrwt>
<pdfrwt beam="2">  1       -2 0.39287244E-01 0.13731405E+03</pdfrwt>
<totfact> 0.35900773E+03</totfact>
</mgrwt>
</event>
<event>
 8    3  0.1559595E-003  0.1364685E+03  0.7818608E-02  0.1225846E+00
         -2   -1    0    0    0  501 -0.00000000000E+00  0.00000000000E+00  0.89492151316E+03  0.89492151316E+03  0.25500000000E-02 0. -1.
          2   -1    0    0  501    0  0.00000000000E+00 -0.00000000000E+00 -0.23926094177E+02  0.23926094313E+02  0.25500000000E-02 0.  1.
         25    2    1    2    0    0 -0.28658323740E+02 -0.46660012281E+02  0.23027195243E+03  0.26767295355E+03  0.12500072687E+03 0.  0.
         23    2    1    2    0    0  0.28658323740E+02  0.46660012281E+02  0.64072346655E+03  0.65117465393E+03  0.10248616034E+03 0.  0.
        -13    1    4    4    0    0 -0.16751852798E+02 -0.23624121843E+02  0.10358249594E+03  0.10755495495E+03  0.10566000000E+00 0.  1.
         13    1    4    4    0    0  0.45410176538E+02  0.70284134123E+02  0.53714097061E+03  0.54361969898E+03  0.10566000000E+00 0. -1.
    9000005    1    3    3    0    0  0.10354299129E+02 -0.65576984956E+01  0.20651654866E+03  0.20688233320E+03  0.10000000000E+01 0.  0.
    9000005    1    3    3    0    0 -0.39012622869E+02 -0.40102313785E+02  0.23755403771E+02  0.60790620349E+02  0.10000000000E+01 0.  0.
<mgrwt>
<rscale>  0 0.13109117E+03</rscale>
<asrwt>0</asrwt>
<pdfrwt beam="2">  1        2 0.36809385E-02 0.13646845E+03</pdfrwt>
<pdfrwt beam="1">  1       -2 0.13768020E+00 0.13646845E+03</pdfrwt>
<totfact> 0.90888693E+02</totfact>
</mgrwt>
</event>
<event>
 8    3  0.1559595E-003  0.1297540E+03  0.7818608E-02  0.1240029E+00
         -2   -1    0    0    0  501 -0.00000000000E+00  0.00000000000E+00  0.70213534262E+01  0.70213538893E+01  0.25500000000E-02 0.  1.
          2   -1    0    0  501    0  0.00000000000E+00 -0.00000000000E+00 -0.19562262706E+04  0.19562262706E+04  0.25500000000E-02 0. -1.
         25    2    1    2    0    0 -0.34809964495E+02  0.32021274922E+00 -0.92139495465E+03  0.93048631089E+03  0.12499710450E+03 0.  0.
         23    2    1    2    0    0  0.34809964495E+02 -0.32021274922E+00 -0.10278099626E+04  0.10327613136E+04  0.94819700732E+02 0.  0.
        -13    1    4    4    0    0 -0.15136691183E+02 -0.87403830719E+01 -0.39984635822E+02  0.43638239906E+02  0.10566000000E+00 0.  1.
         13    1    4    4    0    0  0.49946655678E+02  0.84201703227E+01 -0.98782532675E+03  0.98912307374E+03  0.10566000000E+00 0. -1.
    9000005    1    3    3    0    0  0.25801803680E+02  0.20960352138E+02 -0.79724286818E+02  0.86383050094E+02  0.10000000000E+01 0.  0.
    9000005    1    3    3    0    0 -0.60611768175E+02 -0.20640139389E+02 -0.84167066784E+03  0.84410326080E+03  0.10000000000E+01 0.  0.
<mgrwt>
<rscale>  0 0.12187920E+03</rscale>
<asrwt>0</asrwt>
<pdfrwt beam="2">  1        2 0.30095745E+00 0.12975405E+03</pdfrwt>
<pdfrwt beam="1">  1       -2 0.10802098E-02 0.12975405E+03</pdfrwt>
<totfact> 0.14544939E+04</totfact>
</mgrwt>
</event>
<event>
 8    3  0.1559595E-003  0.1300584E+03  0.7818608E-02  0.1242096E+00
         -2   -1    0    0    0  501 -0.00000000000E+00  0.00000000000E+00  0.61685307703E+01  0.61685312974E+01  0.25500000000E-02 0.  1.
          2   -1    0    0  501    0  0.00000000000E+00 -0.00000000000E+00 -0.24978941751E+04  0.24978941751E+04  0.25500000000E-02 0. -1.
         25    2    1    2    0    0 -0.17343519321E+02  0.31492404630E+02 -0.89010597516E+03  0.89955757979E+03  0.12499049218E+03 0.  0.
         23    2    1    2    0    0  0.17343519321E+02 -0.31492404630E+02 -0.16016196692E+04  0.16045051267E+04  0.89210803290E+02 0.  0.
        -13    1    4    4    0    0  0.18173284943E+02  0.26068080140E+02 -0.88757947615E+03  0.88814815810E+03  0.10566000000E+00 0.  1.
         13    1    4    4    0    0 -0.82976562218E+00 -0.57560484769E+02 -0.71404019306E+03  0.71635696855E+03  0.10566000000E+00 0. -1.
    9000005    1    3    3    0    0 -0.21184380684E+02  0.25733619207E+01 -0.20983556997E+02  0.29945113804E+02  0.10000000000E+01 0.  0.
    9000005    1    3    3    0    0  0.38408613630E+01  0.28919042709E+02 -0.86912241816E+03  0.86961246599E+03  0.10000000000E+01 0.  0.
<mgrwt>
<rscale>  0 0.12060859E+03</rscale>
<asrwt>0</asrwt>
<pdfrwt beam="2">  1        2 0.38429061E+00 0.13005842E+03</pdfrwt>
<pdfrwt beam="1">  1       -2 0.94900676E-03 0.13005842E+03</pdfrwt>
<totfact> 0.91608553E+03</totfact>
</mgrwt>
</event>
<event>
 8    3  0.1559595E-003  0.1308642E+03  0.7818608E-02  0.1246932E+00
         -2   -1    0    0    0  501 -0.00000000000E+00  0.00000000000E+00  0.57785351597E+02  0.57785351654E+02  0.25500000000E-02 0.  1.
          2   -1    0    0  501    0  0.00000000000E+00 -0.00000000000E+00 -0.22843694438E+03  0.22843694440E+03  0.25500000000E-02 0. -1.
         25    2    1    2    0    0 -0.18038395727E+02  0.34398177718E+02 -0.14814367776E+03  0.19766638458E+03  0.12496732366E+03 0.  0.
         23    2    1    2    0    0  0.18038395727E+02 -0.34398177718E+02 -0.22507915027E+02  0.88555911471E+02  0.76334296793E+02 0.  0.
        -13    1    4    4    0    0  0.23004072925E+02  0.16748745438E+02 -0.23883116808E+02  0.37149997003E+02  0.10566000000E+00 0. -1.
         13    1    4    4    0    0 -0.49656771979E+01 -0.51146923155E+02  0.13752017808E+01  0.51405914468E+02  0.10566000000E+00 0.  1.
    9000005    1    3    3    0    0 -0.37813964892E+02 -0.21616649480E+02 -0.64779539915E+01  0.44047013105E+02  0.10000000000E+01 0.  0.
    9000005    1    3    3    0    0  0.19775569165E+02  0.56014827198E+02 -0.14166572377E+03  0.15361937147E+03  0.10000000000E+01 0.  0.
<mgrwt>
<rscale>  0 0.11770497E+03</rscale>
<asrwt>0</asrwt>
<pdfrwt beam="2">  1        2 0.35144145E-01 0.13086424E+03</pdfrwt>
<pdfrwt beam="1">  1       -2 0.88900542E-02 0.13086424E+03</pdfrwt>
<totfact> 0.11071274E+04</totfact>
</mgrwt>
</event>
<event>
 8    3  0.1559595E-003  0.1301554E+03  0.7818608E-02  0.1241121E+00
         -2   -1    0    0    0  501 -0.00000000000E+00  0.00000000000E+00  0.75290056235E+01  0.75290060554E+01  0.25500000000E-02 0.  1.
          2   -1    0    0  501    0  0.00000000000E+00 -0.00000000000E+00 -0.18604114949E+04  0.18604114949E+04  0.25500000000E-02 0. -1.
         25    2    1    2    0    0 -0.36195684241E+02  0.21081911593E+01 -0.80007916323E+03  0.81059675900E+03  0.12500346490E+03 0.  0.
         23    2    1    2    0    0  0.36195684241E+02 -0.21081911593E+01 -0.10528033260E+04  0.10573437420E+04  0.90919597969E+02 0.  0.
        -13    1    4    4    0    0 -0.18387887785E+02 -0.17404522562E+02 -0.11164818561E+03  0.11448301331E+03  0.10566000000E+00 0. -1.
         13    1    4    4    0    0  0.54583572026E+02  0.15296331403E+02 -0.94115514043E+03  0.94286072864E+03  0.10566000000E+00 0.  1.
    9000005    1    3    3    0    0  0.25093052273E+02 -0.44720848602E+02 -0.38615930724E+03  0.38955054376E+03  0.10000000000E+01 0.  0.
    9000005    1    3    3    0    0 -0.61288736514E+02  0.46829039762E+02 -0.41391985599E+03  0.42104621524E+03  0.10000000000E+01 0.  0.
<mgrwt>
<rscale>  0 0.12120563E+03</rscale>
<asrwt>0</asrwt>
<pdfrwt beam="2">  1        2 0.28621679E+00 0.13015544E+03</pdfrwt>
<pdfrwt beam="1">  1       -2 0.11583101E-02 0.13015544E+03</pdfrwt>
<totfact> 0.14730130E+04</totfact>
</mgrwt>
</event>
<event>
 8    3  0.1559595E-003  0.2858427E+03  0.7818608E-02  0.1094319E+00
          2   -1    0    0  501    0  0.00000000000E+00  0.00000000000E+00  0.13414630111E+04  0.13414630111E+04  0.25500000000E-02 0. -1.
         -2   -1    0    0    0  501 -0.00000000000E+00 -0.00000000000E+00 -0.60314507094E+02  0.60314507147E+02  0.25500000000E-02 0.  1.
         25    2    1    2    0    0 -0.23752530612E+03  0.98305610520E+02  0.52252425087E+03  0.59559855934E+03  0.12499514803E+03 0.  0.
         23    2    1    2    0    0  0.23752530612E+03 -0.98305610520E+02  0.75862425310E+03  0.80617895887E+03  0.91277008227E+02 0.  0.
        -13    1    4    4    0    0  0.13336549588E+03 -0.28073395782E+02  0.28095449287E+03  0.31226576705E+03  0.10566000000E+00 0.  1.
         13    1    4    4    0    0  0.10415981024E+03 -0.70232214738E+02  0.47766976023E+03  0.49391319182E+03  0.10566000000E+00 0. -1.
    9000005    1    3    3    0    0 -0.14355829613E+03  0.70345671002E+02  0.43759957240E+03  0.46588827371E+03  0.10000000000E+01 0.  0.
    9000005    1    3    3    0    0 -0.93967009992E+02  0.27959939518E+02  0.84924678470E+02  0.12971028563E+03  0.10000000000E+01 0.  0.
<mgrwt>
<rscale>  0 0.28252181E+03</rscale>
<asrwt>0</asrwt>
<pdfrwt beam="1">  1        2 0.20637892E+00 0.28584270E+03</pdfrwt>
<pdfrwt beam="2">  1       -2 0.92791550E-02 0.28584270E+03</pdfrwt>
<totfact> 0.12449481E+03</totfact>
</mgrwt>
</event>
<event>
 8    3  0.1559595E-003  0.1474824E+03  0.7818608E-02  0.1213374E+00
         -2   -1    0    0    0  501 -0.00000000000E+00  0.00000000000E+00  0.45393433781E+01  0.45393440944E+01  0.25500000000E-02 0.  1.
          2   -1    0    0  501    0  0.00000000000E+00 -0.00000000000E+00 -0.39485928551E+04  0.39485928551E+04  0.25500000000E-02 0. -1.
         25    2    1    2    0    0 -0.66901794732E+02 -0.40628074522E+02 -0.20408950617E+04  0.20462169241E+04  0.12499822828E+03 0.  0.
         23    2    1    2    0    0  0.66901794732E+02  0.40628074522E+02 -0.19031584500E+04  0.19069152750E+04  0.90483644263E+02 0.  0.
        -13    1    4    4    0    0  0.35197678373E+02  0.48806678935E+02 -0.17056612207E+04  0.17067223499E+04  0.10566000000E+00 0. -1.
         13    1    4    4    0    0  0.31704116359E+02 -0.81786044133E+01 -0.19749722925E+03  0.20019292517E+03  0.10566000000E+00 0.  1.
    9000005    1    3    3    0    0 -0.33364853235E+02 -0.55453937304E+02 -0.18831938861E+04  0.18843058576E+04  0.10000000000E+01 0.  0.
    9000005    1    3    3    0    0 -0.33536941498E+02  0.14825862782E+02 -0.15770117567E+03  0.16191106652E+03  0.10000000000E+01 0.  0.
<mgrwt>
<rscale>  0 0.13996658E+03</rscale>
<asrwt>0</asrwt>
<pdfrwt beam="2">  1        2 0.60747308E+00 0.14748236E+03</pdfrwt>
<pdfrwt beam="1">  1       -2 0.69836373E-03 0.14748236E+03</pdfrwt>
<totfact> 0.18102195E+03</totfact>
</mgrwt>
</event>
<event>
 8    3  0.1559595E-003  0.1359949E+03  0.7818608E-02  0.1231683E+00
          2   -1    0    0  501    0  0.00000000000E+00  0.00000000000E+00  0.24897312104E+04  0.24897312104E+04  0.25500000000E-02 0. -1.
         -2   -1    0    0    0  501 -0.00000000000E+00 -0.00000000000E+00 -0.59612285913E+01  0.59612291367E+01  0.25500000000E-02 0.  1.
         25    2    1    2    0    0  0.10435128873E+02 -0.52535759305E+02  0.16141981623E+04  0.16199167618E+04  0.12500284016E+03 0.  0.
         23    2    1    2    0    0 -0.10435128873E+02  0.52535759305E+02  0.86957181948E+03  0.87577567772E+03  0.89213174604E+02 0.  0.
        -13    1    4    4    0    0 -0.14068876122E+02  0.27142834583E+02  0.77842797581E+02  0.83631208551E+02  0.10566000000E+00 0.  1.
         13    1    4    4    0    0  0.36337472483E+01  0.25392924723E+02  0.79172902190E+03  0.79214446917E+03  0.10566000000E+00 0. -1.
    9000005    1    3    3    0    0  0.37554812747E+02 -0.49782902746E+01  0.13272572460E+04  0.13277981565E+04  0.10000000000E+01 0.  0.
    9000005    1    3    3    0    0 -0.27119683874E+02 -0.47557469031E+02  0.28694091626E+03  0.29211860526E+03  0.10000000000E+01 0.  0.
<mgrwt>
<rscale>  0 0.12719203E+03</rscale>
<asrwt>0</asrwt>
<pdfrwt beam="1">  1        2 0.38303590E+00 0.13599488E+03</pdfrwt>
<pdfrwt beam="2">  1       -2 0.91711135E-03 0.13599488E+03</pdfrwt>
<totfact> 0.97248751E+03</totfact>
</mgrwt>
</event>
<event>
 8    3  0.1559595E-003  0.1292351E+03  0.7818608E-02  0.1250846E+00
         -2   -1    0    0    0  501 -0.00000000000E+00  0.00000000000E+00  0.16945053395E+02  0.16945053587E+02  0.25500000000E-02 0.  1.
          2   -1    0    0  501    0  0.00000000000E+00 -0.00000000000E+00 -0.67267789562E+03  0.67267789563E+03  0.25500000000E-02 0. -1.
         25    2    1    2    0    0  0.19083734836E+02 -0.26678901162E+02 -0.44602760701E+03  0.46437305824E+03  0.12500303317E+03 0.  0.
         23    2    1    2    0    0 -0.19083734836E+02  0.26678901162E+02 -0.20970523522E+03  0.22524989097E+03  0.75400762617E+02 0.  0.
        -13    1    4    4    0    0 -0.17500824195E+02  0.23794559869E+02 -0.20357106153E+02  0.35873149594E+02  0.10566000000E+00 0.  1.
         13    1    4    4    0    0 -0.15829106413E+01  0.28843412927E+01 -0.18934812907E+03  0.18937674138E+03  0.10566000000E+00 0. -1.
    9000005    1    3    3    0    0  0.70303184694E+02 -0.31692450130E+01 -0.20166720538E+03  0.21359598221E+03  0.10000000000E+01 0.  0.
    9000005    1    3    3    0    0 -0.51219449858E+02 -0.23509656149E+02 -0.24436040163E+03  0.25077707603E+03  0.10000000000E+01 0.  0.
<mgrwt>
<rscale>  0 0.11542199E+03</rscale>
<asrwt>0</asrwt>
<pdfrwt beam="2">  1        2 0.10348889E+00 0.12923510E+03</pdfrwt>
<pdfrwt beam="1">  1       -2 0.26069318E-02 0.12923510E+03</pdfrwt>
<totfact> 0.21618879E+04</totfact>
</mgrwt>
</event>
<event>
 8    3  0.1559595E-003  0.1261704E+03  0.7818608E-02  0.1254512E+00
          2   -1    0    0  501    0  0.00000000000E+00  0.00000000000E+00  0.65308560676E+03  0.65308560677E+03  0.25500000000E-02 0. -1.
         -2   -1    0    0    0  501 -0.00000000000E+00 -0.00000000000E+00 -0.16762680050E+02  0.16762680244E+02  0.25500000000E-02 0.  1.
         25    2    1    2    0    0  0.10023917296E+02 -0.13927477620E+02  0.35380258535E+03  0.37562647466E+03  0.12499810204E+03 0.  0.
         23    2    1    2    0    0 -0.10023917296E+02  0.13927477620E+02  0.28252034137E+03  0.29422181236E+03  0.80338521458E+02 0.  0.
        -13    1    4    4    0    0 -0.40119946843E+02 -0.78703673672E+01  0.19321824116E+03  0.19749646250E+03  0.10566000000E+00 0.  1.
         13    1    4    4    0    0  0.30096029546E+02  0.21797844987E+02  0.89302100201E+02  0.96725349857E+02  0.10566000000E+00 0. -1.
    9000005    1    3    3    0    0 -0.37226345414E+02 -0.52051285472E+02  0.15307907940E+03  0.16591968438E+03  0.10000000000E+01 0.  0.
    9000005    1    3    3    0    0  0.47250262711E+02  0.38123807853E+02  0.20072350594E+03  0.20970679028E+03  0.10000000000E+01 0.  0.
<mgrwt>
<rscale>  0 0.11333681E+03</rscale>
<asrwt>0</asrwt>
<pdfrwt beam="1">  1        2 0.10047470E+00 0.12617044E+03</pdfrwt>
<pdfrwt beam="2">  1       -2 0.25788740E-02 0.12617044E+03</pdfrwt>
<totfact> 0.22685268E+04</totfact>
</mgrwt>
</event>
<event>
 8    3  0.1559595E-003  0.1432458E+03  0.7818608E-02  0.1219722E+00
          2   -1    0    0  501    0  0.00000000000E+00  0.00000000000E+00  0.28725090770E+02  0.28725090883E+02  0.25500000000E-02 0. -1.
         -2   -1    0    0    0  501 -0.00000000000E+00 -0.00000000000E+00 -0.70678850758E+03  0.70678850759E+03  0.25500000000E-02 0.  1.
         25    2    1    2    0    0  0.10095346600E+02 -0.69235087084E+02 -0.21335908439E+03  0.25698532883E+03  0.12499578806E+03 0.  0.
         23    2    1    2    0    0 -0.10095346600E+02  0.69235087084E+02 -0.46470433242E+03  0.47852826965E+03  0.90242866593E+02 0.  0.
        -13    1    4    4    0    0  0.26594304458E+02  0.41949455104E+02 -0.37049329170E+03  0.37380784391E+03  0.10566000000E+00 0.  1.
         13    1    4    4    0    0 -0.36689651058E+02  0.27285631980E+02 -0.94211040727E+02  0.10472042573E+03  0.10566000000E+00 0. -1.
    9000005    1    3    3    0    0  0.35227055076E+02  0.75389866481E+01 -0.15013012109E+03  0.15439506141E+03  0.10000000000E+01 0.  0.
    9000005    1    3    3    0    0 -0.25131708476E+02 -0.76774073732E+02 -0.63228963300E+02  0.10259026742E+03  0.10000000000E+01 0.  0.
<mgrwt>
<rscale>  0 0.13535296E+03</rscale>
<asrwt>0</asrwt>
<pdfrwt beam="1">  1        2 0.44192453E-02 0.14324580E+03</pdfrwt>
<pdfrwt beam="2">  1       -2 0.10873668E+00 0.14324580E+03</pdfrwt>
<totfact> 0.12648926E+03</totfact>
</mgrwt>
</event>
<event>
 8    3  0.1559595E-003  0.2594525E+03  0.7818608E-02  0.1110645E+00
          2   -1    0    0  501    0  0.00000000000E+00  0.00000000000E+00  0.29780192477E+04  0.29780192477E+04  0.25500000000E-02 0. -1.
         -2   -1    0    0    0  501 -0.00000000000E+00 -0.00000000000E+00 -0.60647316772E+02  0.60647316826E+02  0.25500000000E-02 0.  1.
         25    2    1    2    0    0  0.21953406038E+03 -0.59123638446E+02  0.27089468430E+04  0.27213431568E+04  0.12499908191E+03 0.  0.
         23    2    1    2    0    0 -0.21953406038E+03  0.59123638446E+02  0.20842508789E+03  0.31732340771E+03  0.74580959535E+02 0.  0.
        -13    1    4    4    0    0 -0.12023534976E+03  0.45624417098E+02  0.69957820159E+02  0.14639752229E+03  0.10566000000E+00 0.  1.
         13    1    4    4    0    0 -0.99298710626E+02  0.13499221348E+02  0.13846726773E+03  0.17092588542E+03  0.10566000000E+00 0. -1.
    9000005    1    3    3    0    0  0.45943540630E+02 -0.14385524167E+02  0.18934599673E+03  0.19537312689E+03  0.10000000000E+01 0.  0.
    9000005    1    3    3    0    0  0.17359051975E+03 -0.44738114279E+02  0.25196008463E+04  0.25259700299E+04  0.10000000000E+01 0.  0.
<mgrwt>
<rscale>  0 0.25425426E+03</rscale>
<asrwt>0</asrwt>
<pdfrwt beam="1">  1        2 0.45815684E+00 0.25945246E+03</pdfrwt>
<pdfrwt beam="2">  1       -2 0.93303557E-02 0.25945246E+03</pdfrwt>
<totfact> 0.16009986E+02</totfact>
</mgrwt>
</event>
<event>
 8    3  0.1559595E-003  0.1250449E+03  0.7818608E-02  0.1251064E+00
         -2   -1    0    0    0  501 -0.00000000000E+00  0.00000000000E+00  0.51223916645E+02  0.51223916709E+02  0.25500000000E-02 0.  1.
          2   -1    0    0  501    0  0.00000000000E+00 -0.00000000000E+00 -0.24737818330E+03  0.24737818331E+03  0.25500000000E-02 0. -1.
         25    2    1    2    0    0  0.28709821372E+01 -0.17510299869E+01 -0.69664485416E+02  0.14314110473E+03  0.12499970676E+03 0.  0.
         23    2    1    2    0    0 -0.28709821372E+01  0.17510299869E+01 -0.12648978124E+03  0.15546099529E+03  0.90316928955E+02 0.  0.
        -13    1    4    4    0    0  0.41785325109E+02  0.93928871190E+01 -0.78768174870E+02  0.89658665277E+02  0.10566000000E+00 0. -1.
         13    1    4    4    0    0 -0.44656307246E+02 -0.76418571320E+01 -0.47721606367E+02  0.65802330016E+02  0.10566000000E+00 0.  1.
    9000005    1    3    3    0    0 -0.38047808788E+02  0.45360045868E+02 -0.17338979307E+02  0.61699349414E+02  0.10000000000E+01 0.  0.
    9000005    1    3    3    0    0  0.40918790925E+02 -0.47111075855E+02 -0.52325506109E+02  0.81441755313E+02  0.10000000000E+01 0.  0.
<mgrwt>
<rscale>  0 0.11529675E+03</rscale>
<asrwt>0</asrwt>
<pdfrwt beam="2">  1        2 0.38058181E-01 0.12504493E+03</pdfrwt>
<pdfrwt beam="1">  1       -2 0.78806027E-02 0.12504493E+03</pdfrwt>
<totfact> 0.12207831E+04</totfact>
</mgrwt>
</event>
<event>
 8    3  0.1559595E-003  0.1482471E+03  0.7818608E-02  0.1211991E+00
         -2   -1    0    0    0  501 -0.00000000000E+00  0.00000000000E+00  0.23204338208E+02  0.23204338348E+02  0.25500000000E-02 0.  1.
          2   -1    0    0  501    0  0.00000000000E+00 -0.00000000000E+00 -0.86431690631E+03  0.86431690631E+03  0.25500000000E-02 0. -1.
         25    2    1    2    0    0  0.54359313911E+02 -0.58276930698E+02 -0.59423866884E+03  0.61245145938E+03  0.12500423549E+03 0.  0.
         23    2    1    2    0    0 -0.54359313911E+02  0.58276930698E+02 -0.24687389926E+03  0.27506978528E+03  0.91463265732E+02 0.  0.
        -13    1    4    4    0    0 -0.61903533789E+02  0.71299003120E+02 -0.15149965747E+03  0.17851541312E+03  0.10566000000E+00 0.  1.
         13    1    4    4    0    0  0.75442198780E+01 -0.13022072422E+02 -0.95374241788E+02  0.96554372166E+02  0.10566000000E+00 0. -1.
    9000005    1    3    3    0    0  0.73498439990E+02 -0.64919167457E+02 -0.26459600977E+03  0.28218534224E+03  0.10000000000E+01 0.  0.
    9000005    1    3    3    0    0 -0.19139126080E+02  0.66422367589E+01 -0.32964265907E+03  0.33026611714E+03  0.10000000000E+01 0.  0.
<mgrwt>
<rscale>  0 0.14099891E+03</rscale>
<asrwt>0</asrwt>
<pdfrwt beam="2">  1        2 0.13297181E+00 0.14824707E+03</pdfrwt>
<pdfrwt beam="1">  1       -2 0.35698989E-02 0.14824707E+03</pdfrwt>
<totfact> 0.10111399E+04</totfact>
</mgrwt>
</event>
<event>
 8    3  0.1559595E-003  0.1627997E+03  0.7818608E-02  0.1192670E+00
          2   -1    0    0  501    0  0.00000000000E+00  0.00000000000E+00  0.56201877989E+03  0.56201877990E+03  0.25500000000E-02 0. -1.
         -2   -1    0    0    0  501 -0.00000000000E+00 -0.00000000000E+00 -0.47263584548E+02  0.47263584617E+02  0.25500000000E-02 0.  1.
         25    2    1    2    0    0  0.60144791767E+02  0.85216166503E+02  0.38917932471E+03  0.42185815659E+03  0.12499826596E+03 0.  0.
         23    2    1    2    0    0 -0.60144791767E+02 -0.85216166503E+02  0.12557587064E+03  0.18742420792E+03  0.92083350388E+02 0.  0.
        -13    1    4    4    0    0 -0.31675551955E+02 -0.99224323592E+02  0.77521789564E+02  0.12984007858E+03  0.10566000000E+00 0.  1.
         13    1    4    4    0    0 -0.28469239811E+02  0.14008157088E+02  0.48054081074E+02  0.57584129345E+02  0.10566000000E+00 0. -1.
    9000005    1    3    3    0    0  0.59516778428E+02  0.94202969341E+02  0.39544080048E+03  0.41084166419E+03  0.10000000000E+01 0.  0.
    9000005    1    3    3    0    0  0.62801333889E+00 -0.89868028373E+01 -0.62614757759E+01  0.11016492404E+02  0.10000000000E+01 0.  0.
<mgrwt>
<rscale>  0 0.15653064E+03</rscale>
<asrwt>0</asrwt>
<pdfrwt beam="1">  1        2 0.86464425E-01 0.16279975E+03</pdfrwt>
<pdfrwt beam="2">  1       -2 0.72713209E-02 0.16279975E+03</pdfrwt>
<totfact> 0.58155543E+03</totfact>
</mgrwt>
</event>
<event>
 8    3  0.1559595E-003  0.1324941E+03  0.7818608E-02  0.1236551E+00
         -2   -1    0    0    0  501 -0.00000000000E+00  0.00000000000E+00  0.77489547024E+01  0.77489551220E+01  0.25500000000E-02 0.  1.
          2   -1    0    0  501    0  0.00000000000E+00 -0.00000000000E+00 -0.21829287641E+04  0.21829287641E+04  0.25500000000E-02 0. -1.
         25    2    1    2    0    0  0.22148485771E+02 -0.37932045680E+02 -0.73086551036E+03  0.74277794423E+03  0.12500113877E+03 0.  0.
         23    2    1    2    0    0 -0.22148485771E+02  0.37932045680E+02 -0.14443142990E+04  0.14478997750E+04  0.91872566635E+02 0.  0.
        -13    1    4    4    0    0 -0.26381909426E+02  0.21320592365E+02 -0.16402077651E+03  0.16749148962E+03  0.10566000000E+00 0.  1.
         13    1    4    4    0    0  0.42334236553E+01  0.16611453316E+02 -0.12802935225E+04  0.12804082854E+04  0.10566000000E+00 0. -1.
    9000005    1    3    3    0    0  0.16861369151E+01 -0.68734615222E+02 -0.21817418946E+03  0.22875372639E+03  0.10000000000E+01 0.  0.
    9000005    1    3    3    0    0  0.20462348855E+02  0.30802569542E+02 -0.51269132090E+03  0.51402421785E+03  0.10000000000E+01 0.  0.
<mgrwt>
<rscale>  0 0.12405649E+03</rscale>
<asrwt>0</asrwt>
<pdfrwt beam="2">  1        2 0.33583471E+00 0.13249408E+03</pdfrwt>
<pdfrwt beam="1">  1       -2 0.11921486E-02 0.13249408E+03</pdfrwt>
<totfact> 0.96692181E+03</totfact>
</mgrwt>
</event>
<event>
 8    3  0.1559595E-003  0.2713014E+03  0.7818608E-02  0.1102556E+00
          2   -1    0    0  501    0  0.00000000000E+00  0.00000000000E+00  0.18364518083E+03  0.18364518085E+03  0.25500000000E-02 0. -1.
         -2   -1    0    0    0  501 -0.00000000000E+00 -0.00000000000E+00 -0.40403558553E+03  0.40403558554E+03  0.25500000000E-02 0.  1.
         25    2    1    2    0    0 -0.12378813868E+03 -0.20653332814E+03 -0.18355609664E+03  0.32756266695E+03  0.12499976502E+03 0.  0.
         23    2    1    2    0    0  0.12378813868E+03  0.20653332814E+03 -0.36834308061E+02  0.26011809943E+03  0.91242207822E+02 0.  0.
        -13    1    4    4    0    0  0.81645943503E+02  0.13187837600E+03  0.21264854268E+02  0.15655724620E+03  0.10566000000E+00 0. -1.
         13    1    4    4    0    0  0.42142195179E+02  0.74654952142E+02 -0.58099162329E+02  0.10356085323E+03  0.10566000000E+00 0.  1.
    9000005    1    3    3    0    0 -0.14674142188E+03 -0.15970417336E+03 -0.13029883068E+03  0.25301631007E+03  0.10000000000E+01 0.  0.
    9000005    1    3    3    0    0  0.22953283197E+02 -0.46829154781E+02 -0.53257265959E+02  0.74546356882E+02  0.10000000000E+01 0.  0.
<mgrwt>
<rscale>  0 0.26778242E+03</rscale>
<asrwt>0</asrwt>
<pdfrwt beam="1">  1        2 0.28253105E-01 0.27130142E+03</pdfrwt>
<pdfrwt beam="2">  1       -2 0.62159321E-01 0.27130142E+03</pdfrwt>
<totfact> 0.46201877E+02</totfact>
</mgrwt>
</event>
<event>
 8    3  0.1559595E-003  0.1325165E+03  0.7818608E-02  0.1239183E+00
          2   -1    0    0  501    0  0.00000000000E+00  0.00000000000E+00  0.49150394911E+03  0.49150394912E+03  0.25500000000E-02 0.  1.
         -2   -1    0    0    0  501 -0.00000000000E+00 -0.00000000000E+00 -0.63177015021E+02  0.63177015072E+02  0.25500000000E-02 0. -1.
         25    2    1    2    0    0  0.15499566107E+01  0.43970728501E+02  0.18676751997E+02  0.13382612575E+03  0.12499913414E+03 0.  0.
         23    2    1    2    0    0 -0.15499566107E+01 -0.43970728501E+02  0.40965018209E+03  0.42085483844E+03  0.85846933673E+02 0.  0.
        -13    1    4    4    0    0 -0.32393155637E+01 -0.62140097315E+02  0.17944163244E+03  0.18992418350E+03  0.10566000000E+00 0. -1.
         13    1    4    4    0    0  0.16893589529E+01  0.18169368814E+02  0.23020854965E+03  0.23093065494E+03  0.10566000000E+00 0.  1.
    9000005    1    3    3    0    0 -0.40958449226E+02 -0.24061126280E+02 -0.10135817096E+02  0.48582580716E+02  0.10000000000E+01 0.  0.
    9000005    1    3    3    0    0  0.42508405837E+02  0.68031854781E+02  0.28812569093E+02  0.85243545031E+02  0.10000000000E+01 0.  0.
<mgrwt>
<rscale>  0 0.12240382E+03</rscale>
<asrwt>0</asrwt>
<pdfrwt beam="1">  1        2 0.75615993E-01 0.13251646E+03</pdfrwt>
<pdfrwt beam="2">  1       -2 0.97195407E-02 0.13251646E+03</pdfrwt>
<totfact> 0.42575448E+03</totfact>
</mgrwt>
</event>
<event>
 8    3  0.1559595E-003  0.1252068E+03  0.7818608E-02  0.1251049E+00
          2   -1    0    0  501    0  0.00000000000E+00  0.00000000000E+00  0.47800551741E+03  0.47800551742E+03  0.25500000000E-02 0. -1.
         -2   -1    0    0    0  501 -0.00000000000E+00 -0.00000000000E+00 -0.31459476969E+02  0.31459477072E+02  0.25500000000E-02 0.  1.
         25    2    1    2    0    0 -0.65408750050E+01  0.30316668704E+01  0.13055062349E+03  0.18088728109E+03  0.12499907647E+03 0.  0.
         23    2    1    2    0    0  0.65408750050E+01 -0.30316668704E+01  0.31599541696E+03  0.32857771340E+03  0.89767678790E+02 0.  0.
        -13    1    4    4    0    0 -0.33326096377E+01 -0.44922807773E+02  0.19561935232E+03  0.20073890283E+03  0.10566000000E+00 0.  1.
         13    1    4    4    0    0  0.98734846426E+01  0.41891140903E+02  0.12037606464E+03  0.12783881056E+03  0.10566000000E+00 0. -1.
    9000005    1    3    3    0    0  0.27293496120E+02 -0.34815276625E+02  0.12150584192E+03  0.12931244348E+03  0.10000000000E+01 0.  0.
    9000005    1    3    3    0    0 -0.33834371125E+02  0.37846943495E+02  0.90447815655E+01  0.51574837614E+02  0.10000000000E+01 0.  0.
<mgrwt>
<rscale>  0 0.11530548E+03</rscale>
<asrwt>0</asrwt>
<pdfrwt beam="1">  1        2 0.73539310E-01 0.12520680E+03</pdfrwt>
<pdfrwt beam="2">  1       -2 0.48399196E-02 0.12520680E+03</pdfrwt>
<totfact> 0.12690540E+04</totfact>
</mgrwt>
</event>
<event>
 8    3  0.1559595E-003  0.3933495E+03  0.7818608E-02  0.1046878E+00
         -2   -1    0    0    0  501 -0.00000000000E+00  0.00000000000E+00  0.31202495947E+04  0.31202495947E+04  0.25500000000E-02 0.  1.
          2   -1    0    0  501    0  0.00000000000E+00 -0.00000000000E+00 -0.52265678041E+02  0.52265678103E+02  0.25500000000E-02 0. -1.
         25    2    1    2    0    0 -0.21270473092E+03 -0.30635783908E+03  0.11243773349E+04  0.11911961380E+04  0.12500168002E+03 0.  0.
         23    2    1    2    0    0  0.21270473092E+03  0.30635783908E+03  0.19436065818E+04  0.19813191347E+04  0.94448614873E+02 0.  0.
        -13    1    4    4    0    0  0.13008571560E+03  0.11894947632E+03  0.76462940928E+03  0.78468427792E+03  0.10566000000E+00 0.  1.
         13    1    4    4    0    0  0.82619015327E+02  0.18740836276E+03  0.11789771725E+04  0.11966348568E+04  0.10566000000E+00 0. -1.
    9000005    1    3    3    0    0 -0.48997618547E+02 -0.17887682184E+03  0.55721642702E+03  0.58727236488E+03  0.10000000000E+01 0.  0.
    9000005    1    3    3    0    0 -0.16370711238E+03 -0.12748101724E+03  0.56716090784E+03  0.60392377315E+03  0.10000000000E+01 0.  0.
<mgrwt>
<rscale>  0 0.39117730E+03</rscale>
<asrwt>0</asrwt>
<pdfrwt beam="2">  1        2 0.80408715E-02 0.39334952E+03</pdfrwt>
<pdfrwt beam="1">  1       -2 0.48003852E+00 0.39334952E+03</pdfrwt>
<totfact> 0.22011539E+00</totfact>
</mgrwt>
</event>
<event>
 8    3  0.1559595E-003  0.1276194E+03  0.7818608E-02  0.1245843E+00
         -2   -1    0    0    0  501 -0.00000000000E+00  0.00000000000E+00  0.58543560700E+02  0.58543560755E+02  0.25500000000E-02 0. -1.
          2   -1    0    0  501    0  0.00000000000E+00 -0.00000000000E+00 -0.23086876646E+03  0.23086876647E+03  0.25500000000E-02 0.  1.
         25    2    1    2    0    0  0.24148253409E+02 -0.88344292419E+01 -0.14048086468E+03  0.18979355315E+03  0.12500213676E+03 0.  0.
         23    2    1    2    0    0 -0.24148253409E+02  0.88344292419E+01 -0.31844341075E+02  0.99618774073E+02  0.90822094264E+02 0.  0.
        -13    1    4    4    0    0  0.16182771301E+02 -0.24724740685E+02 -0.36480364010E+02  0.46947023455E+02  0.10566000000E+00 0.  1.
         13    1    4    4    0    0 -0.40331024711E+02  0.33559169927E+02  0.46360229354E+01  0.52671750618E+02  0.10566000000E+00 0. -1.
    9000005    1    3    3    0    0  0.58223111640E+02 -0.17535650936E+02 -0.14210747013E+03  0.15457348689E+03  0.10000000000E+01 0.  0.
    9000005    1    3    3    0    0 -0.34074858231E+02  0.87012216941E+01  0.16266054458E+01  0.35220066265E+02  0.10000000000E+01 0.  0.
<mgrwt>
<rscale>  0 0.11835084E+03</rscale>
<asrwt>0</asrwt>
<pdfrwt beam="2">  1        2 0.35518271E-01 0.12761943E+03</pdfrwt>
<pdfrwt beam="1">  1       -2 0.90067018E-02 0.12761943E+03</pdfrwt>
<totfact> 0.10704983E+04</totfact>
</mgrwt>
</event>
<event>
 8    3  0.1559595E-003  0.1291321E+03  0.7818608E-02  0.1242587E+00
         -2   -1    0    0    0  501 -0.00000000000E+00  0.00000000000E+00  0.12110953374E+02  0.12110953642E+02  0.25500000000E-02 0.  1.
          2   -1    0    0  501    0  0.00000000000E+00 -0.00000000000E+00 -0.10735985710E+04  0.10735985710E+04  0.25500000000E-02 0. -1.
         25    2    1    2    0    0  0.24935344502E+02  0.20713207197E+02 -0.54021101548E+03  0.55543049917E+03  0.12499715920E+03 0.  0.
         23    2    1    2    0    0 -0.24935344502E+02 -0.20713207197E+02 -0.52127660212E+03  0.53027902544E+03  0.91737345460E+02 0.  0.
        -13    1    4    4    0    0 -0.55026245238E+02  0.37478023150E+01 -0.37111095381E+03  0.37518699990E+03  0.10566000000E+00 0. -1.
         13    1    4    4    0    0  0.30090900736E+02 -0.24461009512E+02 -0.15016564830E+03  0.15509202555E+03  0.10566000000E+00 0.  1.
    9000005    1    3    3    0    0 -0.49492448435E+01  0.39940130579E+02 -0.50056167077E+03  0.50217795182E+03  0.10000000000E+01 0.  0.
    9000005    1    3    3    0    0  0.29884589345E+02 -0.19226923382E+02 -0.39649344707E+02  0.53252547345E+02  0.10000000000E+01 0.  0.
<mgrwt>
<rscale>  0 0.12030941E+03</rscale>
<asrwt>0</asrwt>
<pdfrwt beam="2">  1        2 0.16516894E+00 0.12913210E+03</pdfrwt>
<pdfrwt beam="1">  1       -2 0.18632245E-02 0.12913210E+03</pdfrwt>
<totfact> 0.19360116E+04</totfact>
</mgrwt>
</event>
<event>
 8    3  0.1559595E-003  0.1278480E+03  0.7818608E-02  0.1244490E+00
         -2   -1    0    0    0  501 -0.00000000000E+00  0.00000000000E+00  0.42393193448E+02  0.42393193525E+02  0.25500000000E-02 0.  1.
          2   -1    0    0  501    0  0.00000000000E+00 -0.00000000000E+00 -0.46618470990E+03  0.46618470990E+03  0.25500000000E-02 0. -1.
         25    2    1    2    0    0 -0.22679608292E+02 -0.14337551174E+02 -0.38309948166E+03  0.40386919562E+03  0.12500073727E+03 0.  0.
         23    2    1    2    0    0  0.22679608292E+02  0.14337551174E+02 -0.40692034791E+02  0.10470870781E+03  0.92672227717E+02 0.  0.
        -13    1    4    4    0    0 -0.13177827976E+02  0.24574734644E+02  0.19411844010E+02  0.33976515196E+02  0.10566000000E+00 0.  1.
         13    1    4    4    0    0  0.35857436268E+02 -0.10237183470E+02 -0.60103878801E+02  0.70732192615E+02  0.10566000000E+00 0. -1.
    9000005    1    3    3    0    0 -0.67842384751E+02 -0.13311480899E+02 -0.31242536962E+03  0.31998499383E+03  0.10000000000E+01 0.  0.
    9000005    1    3    3    0    0  0.45162776459E+02 -0.10260702749E+01 -0.70674112036E+02  0.83884201789E+02  0.10000000000E+01 0.  0.
<mgrwt>
<rscale>  0 0.11915930E+03</rscale>
<asrwt>0</asrwt>
<pdfrwt beam="2">  1        2 0.71720721E-01 0.12784801E+03</pdfrwt>
<pdfrwt beam="1">  1       -2 0.65220301E-02 0.12784801E+03</pdfrwt>
<totfact> 0.83286126E+03</totfact>
</mgrwt>
</event>
<event>
 8    3  0.1559595E-003  0.1789593E+03  0.7818608E-02  0.1171421E+00
         -2   -1    0    0    0  501 -0.00000000000E+00  0.00000000000E+00  0.29961622190E+02  0.29961622298E+02  0.25500000000E-02 0.  1.
          2   -1    0    0  501    0  0.00000000000E+00 -0.00000000000E+00 -0.13038449959E+04  0.13038449959E+04  0.25500000000E-02 0. -1.
         25    2    1    2    0    0 -0.23839894683E+02 -0.12582252507E+03 -0.96920878287E+03  0.98559226472E+03  0.12500719616E+03 0.  0.
         23    2    1    2    0    0  0.23839894683E+02  0.12582252507E+03 -0.30467459088E+03  0.34821435352E+03  0.10966759446E+03 0.  0.
        -13    1    4    4    0    0 -0.11886961109E+02  0.13119044138E+03 -0.22485615046E+03  0.26060032870E+03  0.10566000000E+00 0. -1.
         13    1    4    4    0    0  0.35726855792E+02 -0.53679163083E+01 -0.79818440415E+02  0.87614024817E+02  0.10566000000E+00 0.  1.
    9000005    1    3    3    0    0 -0.24712075884E+01 -0.14730357884E+03 -0.75400112434E+03  0.76825981719E+03  0.10000000000E+01 0.  0.
    9000005    1    3    3    0    0 -0.21368687095E+02  0.21481053769E+02 -0.21520765853E+03  0.21733244753E+03  0.10000000000E+01 0.  0.
<mgrwt>
<rscale>  0 0.17631183E+03</rscale>
<asrwt>0</asrwt>
<pdfrwt beam="2">  1        2 0.20059149E+00 0.17895935E+03</pdfrwt>
<pdfrwt beam="1">  1       -2 0.46094814E-02 0.17895935E+03</pdfrwt>
<totfact> 0.38424554E+03</totfact>
</mgrwt>
</event>
<event>
 8    3  0.1559595E-003  0.6906835E+03  0.7818608E-02  0.9735589E-01
         -2   -1    0    0    0  501 -0.00000000000E+00  0.00000000000E+00  0.61432179723E+03  0.61432179723E+03  0.25500000000E-02 0.  1.
          2   -1    0    0  501    0  0.00000000000E+00 -0.00000000000E+00 -0.86104158402E+03  0.86104158402E+03  0.25500000000E-02 0. -1.
         25    2    1    2    0    0 -0.48878936611E+03 -0.47170318210E+03  0.11523236970E+03  0.70023010277E+03  0.12499904544E+03 0.  0.
         23    2    1    2    0    0  0.48878936611E+03  0.47170318210E+03 -0.36195215650E+03  0.77513327849E+03  0.91669511823E+02 0.  0.
        -13    1    4    4    0    0  0.15602554979E+03  0.10615972114E+03 -0.71576718566E+02  0.20183432906E+03  0.10566000000E+00 0. -1.
         13    1    4    4    0    0  0.33276381632E+03  0.36554346096E+03 -0.29037543793E+03  0.57329894943E+03  0.10566000000E+00 0.  1.
    9000005    1    3    3    0    0 -0.25370038324E+03 -0.16588752504E+03  0.25483286467E+02  0.30419229660E+03  0.10000000000E+01 0.  0.
    9000005    1    3    3    0    0 -0.23508898287E+03 -0.30581565706E+03  0.89749083234E+02  0.39603780616E+03  0.10000000000E+01 0.  0.
<mgrwt>
<rscale>  0 0.68936782E+03</rscale>
<asrwt>0</asrwt>
<pdfrwt beam="2">  1        2 0.13246794E+00 0.69068350E+03</pdfrwt>
<pdfrwt beam="1">  1       -2 0.94511046E-01 0.69068350E+03</pdfrwt>
<totfact> 0.30016227E+01</totfact>
</mgrwt>
</event>
<event>
 8    3  0.1559595E-003  0.1793903E+03  0.7818608E-02  0.1174035E+00
          2   -1    0    0  501    0  0.00000000000E+00  0.00000000000E+00  0.14028400815E+04  0.14028400815E+04  0.25500000000E-02 0. -1.
         -2   -1    0    0    0  501 -0.00000000000E+00 -0.00000000000E+00 -0.34630335583E+02  0.34630335676E+02  0.25500000000E-02 0.  1.
         25    2    1    2    0    0 -0.66946402682E+02 -0.10986140095E+03  0.24726595254E+03  0.30548538892E+03  0.12501809192E+03 0.  0.
         23    2    1    2    0    0  0.66946402682E+02  0.10986140095E+03  0.11209437934E+04  0.11319850283E+04  0.91234686636E+02 0.  0.
        -13    1    4    4    0    0  0.89258934451E+01  0.52178295613E+02  0.18364701344E+03  0.19112426015E+03  0.10566000000E+00 0.  1.
         13    1    4    4    0    0  0.58020509237E+02  0.57683105332E+02  0.93729677993E+03  0.94086076811E+03  0.10566000000E+00 0. -1.
    9000005    1    3    3    0    0 -0.15562411553E+02 -0.71241891972E+02  0.29913620743E+02  0.78825253130E+02  0.10000000000E+01 0.  0.
    9000005    1    3    3    0    0 -0.51383991129E+02 -0.38619508974E+02  0.21735233180E+03  0.22666013579E+03  0.10000000000E+01 0.  0.
<mgrwt>
<rscale>  0 0.17370800E+03</rscale>
<asrwt>0</asrwt>
<pdfrwt beam="1">  1        2 0.21582154E+00 0.17939028E+03</pdfrwt>
<pdfrwt beam="2">  1       -2 0.53277443E-02 0.17939028E+03</pdfrwt>
<totfact> 0.27299022E+03</totfact>
</mgrwt>
</event>
<event>
 8    3  0.1559595E-003  0.1544013E+03  0.7818608E-02  0.1203110E+00
          2   -1    0    0  501    0  0.00000000000E+00  0.00000000000E+00  0.28127812631E+04  0.28127812631E+04  0.25500000000E-02 0. -1.
         -2   -1    0    0    0  501 -0.00000000000E+00 -0.00000000000E+00 -0.81239624911E+01  0.81239628913E+01  0.25500000000E-02 0.  1.
         25    2    1    2    0    0 -0.63273531518E+01  0.90419566861E+02  0.19873994545E+04  0.19933881567E+04  0.12499607285E+03 0.  0.
         23    2    1    2    0    0  0.63273531518E+01 -0.90419566861E+02  0.81725784616E+03  0.82751706930E+03  0.93050413241E+02 0.  0.
        -13    1    4    4    0    0  0.36408559479E+02 -0.49452370252E+02  0.64502320588E+03  0.64793986404E+03  0.10566000000E+00 0. -1.
         13    1    4    4    0    0 -0.30081206327E+02 -0.40967196608E+02  0.17223464028E+03  0.17957720526E+03  0.10566000000E+00 0.  1.
    9000005    1    3    3    0    0  0.41464145349E+02  0.61392817105E+02  0.16260133415E+04  0.16277004454E+04  0.10000000000E+01 0.  0.
    9000005    1    3    3    0    0 -0.47791498501E+02  0.29026749756E+02  0.36138611297E+03  0.36568771127E+03  0.10000000000E+01 0.  0.
<mgrwt>
<rscale>  0 0.14787364E+03</rscale>
<asrwt>0</asrwt>
<pdfrwt beam="1">  1        2 0.43273585E+00 0.15440127E+03</pdfrwt>
<pdfrwt beam="2">  1       -2 0.12498396E-02 0.15440127E+03</pdfrwt>
<totfact> 0.41561823E+03</totfact>
</mgrwt>
</event>
<event>
 8    3  0.1559595E-003  0.1259306E+03  0.7818608E-02  0.1250616E+00
         -2   -1    0    0    0  501 -0.00000000000E+00  0.00000000000E+00  0.55274950454E+02  0.55274950513E+02  0.25500000000E-02 0.  1.
          2   -1    0    0  501    0  0.00000000000E+00 -0.00000000000E+00 -0.25558363718E+03  0.25558363719E+03  0.25500000000E-02 0. -1.
         25    2    1    2    0    0  0.66882355789E+01 -0.13790260215E+02 -0.17936025495E+03  0.21915433401E+03  0.12499446903E+03 0.  0.
         23    2    1    2    0    0 -0.66882355789E+01  0.13790260215E+02 -0.20948431783E+02  0.91704253700E+02  0.87954133391E+02 0.  0.
        -13    1    4    4    0    0 -0.26330033713E+02 -0.21911459618E+02  0.14972009438E+02  0.37383886483E+02  0.10566000000E+00 0.  1.
         13    1    4    4    0    0  0.19641798134E+02  0.35701719833E+02 -0.35920441221E+02  0.54320367217E+02  0.10566000000E+00 0. -1.
    9000005    1    3    3    0    0  0.48947878073E+02 -0.49820780796E+02 -0.10987069886E+03  0.13019437559E+03  0.10000000000E+01 0.  0.
    9000005    1    3    3    0    0 -0.42259642494E+02  0.36030520580E+02 -0.69489556086E+02  0.88959958419E+02  0.10000000000E+01 0.  0.
<mgrwt>
<rscale>  0 0.11555440E+03</rscale>
<asrwt>0</asrwt>
<pdfrwt beam="2">  1        2 0.39320559E-01 0.12593062E+03</pdfrwt>
<pdfrwt beam="1">  1       -2 0.85038386E-02 0.12593062E+03</pdfrwt>
<totfact> 0.10490536E+04</totfact>
</mgrwt>
</event>
<event>
 8    3  0.1559595E-003  0.1378827E+03  0.7818608E-02  0.1227404E+00
          2   -1    0    0  501    0  0.00000000000E+00  0.00000000000E+00  0.12513403359E+04  0.12513403359E+04  0.25500000000E-02 0. -1.
         -2   -1    0    0    0  501 -0.00000000000E+00 -0.00000000000E+00 -0.12547186856E+02  0.12547187116E+02  0.25500000000E-02 0.  1.
         25    2    1    2    0    0 -0.58020051734E+02 -0.44961714569E+01  0.79636078359E+03  0.80820921055E+03  0.12500035367E+03 0.  0.
         23    2    1    2    0    0  0.58020051734E+02  0.44961714569E+01  0.44243236543E+03  0.45567831244E+03  0.92248493166E+02 0.  0.
        -13    1    4    4    0    0  0.17149589313E+02 -0.17962764042E+02  0.36088090710E+03  0.36173444621E+03  0.10566000000E+00 0. -1.
         13    1    4    4    0    0  0.40870462421E+02  0.22458935499E+02  0.81551458330E+02  0.93943866228E+02  0.10566000000E+00 0.  1.
    9000005    1    3    3    0    0 -0.85179744807E+02  0.25474442186E+02  0.66033432801E+03  0.66629344952E+03  0.10000000000E+01 0.  0.
    9000005    1    3    3    0    0  0.27159693073E+02 -0.29970613643E+02  0.13602645558E+03  0.14191576103E+03  0.10000000000E+01 0.  0.
<mgrwt>
<rscale>  0 0.13003458E+03</rscale>
<asrwt>0</asrwt>
<pdfrwt beam="1">  1        2 0.19251395E+00 0.13788267E+03</pdfrwt>
<pdfrwt beam="2">  1       -2 0.19303359E-02 0.13788267E+03</pdfrwt>
<totfact> 0.14686478E+04</totfact>
</mgrwt>
</event>
<event>
 8    3  0.1559595E-003  0.1495134E+03  0.7818608E-02  0.1210238E+00
          2   -1    0    0  501    0  0.00000000000E+00  0.00000000000E+00  0.28053392448E+03  0.28053392450E+03  0.25500000000E-02 0. -1.
         -2   -1    0    0    0  501 -0.00000000000E+00 -0.00000000000E+00 -0.76690852517E+02  0.76690852560E+02  0.25500000000E-02 0.  1.
         25    2    1    2    0    0 -0.72910135199E+02 -0.37601488349E+02  0.17676198395E+03  0.23151472397E+03  0.12499803480E+03 0.  0.
         23    2    1    2    0    0  0.72910135199E+02  0.37601488349E+02  0.27081088015E+02  0.12571005308E+03  0.91322901714E+02 0.  0.
        -13    1    4    4    0    0  0.72702679328E+02  0.33139151243E+02 -0.16763051037E+02  0.81638801869E+02  0.10566000000E+00 0.  1.
         13    1    4    4    0    0  0.20745587120E+00  0.44623371062E+01  0.43844139052E+02  0.44071251215E+02  0.10566000000E+00 0. -1.
    9000005    1    3    3    0    0 -0.65259849882E+01  0.41219490723E+02  0.26983455433E+02  0.49706556536E+02  0.10000000000E+01 0.  0.
    9000005    1    3    3    0    0 -0.66384150211E+02 -0.78820979072E+02  0.14977852852E+03  0.18180816744E+03  0.10000000000E+01 0.  0.
<mgrwt>
<rscale>  0 0.14232232E+03</rscale>
<asrwt>0</asrwt>
<pdfrwt beam="1">  1        2 0.43159065E-01 0.14951344E+03</pdfrwt>
<pdfrwt beam="2">  1       -2 0.11798593E-01 0.14951344E+03</pdfrwt>
<totfact> 0.57464430E+03</totfact>
</mgrwt>
</event>
<event>
 8    3  0.1559595E-003  0.1252524E+03  0.7818608E-02  0.1250176E+00
          2   -1    0    0  501    0  0.00000000000E+00  0.00000000000E+00  0.64540183037E+03  0.64540183037E+03  0.25500000000E-02 0.  1.
         -2   -1    0    0    0  501 -0.00000000000E+00 -0.00000000000E+00 -0.39465276519E+02  0.39465276602E+02  0.25500000000E-02 0. -1.
         25    2    1    2    0    0 -0.15832235745E+00  0.79369985101E+01  0.74773890549E+02  0.14587428725E+03  0.12500060785E+03 0.  0.
         23    2    1    2    0    0  0.15832235745E+00 -0.79369985101E+01  0.53116266330E+03  0.53899281973E+03  0.91194647976E+02 0.  0.
        -13    1    4    4    0    0  0.13630476268E+02 -0.15439065975E+02  0.24123506179E+02  0.31719226912E+02  0.10566000000E+00 0. -1.
         13    1    4    4    0    0 -0.13472153910E+02  0.75020674652E+01  0.50703915712E+03  0.50727359281E+03  0.10566000000E+00 0.  1.
    9000005    1    3    3    0    0 -0.11519519909E+02  0.62032445147E+02  0.15820039240E+02  0.65053802590E+02  0.10000000000E+01 0.  0.
    9000005    1    3    3    0    0  0.11361197551E+02 -0.54095446637E+02  0.58953851308E+02  0.80820484660E+02  0.10000000000E+01 0.  0.
<mgrwt>
<rscale>  0 0.11580886E+03</rscale>
<asrwt>0</asrwt>
<pdfrwt beam="1">  1        2 0.99292583E-01 0.12525244E+03</pdfrwt>
<pdfrwt beam="2">  1       -2 0.60715814E-02 0.12525244E+03</pdfrwt>
<totfact> 0.64511995E+03</totfact>
</mgrwt>
</event>
<event>
 8    3  0.1559595E-003  0.1344846E+03  0.7818608E-02  0.1231787E+00
          2   -1    0    0  501    0  0.00000000000E+00  0.00000000000E+00  0.29853941022E+03  0.29853941023E+03  0.25500000000E-02 0. -1.
         -2   -1    0    0    0  501 -0.00000000000E+00 -0.00000000000E+00 -0.61448501097E+02  0.61448501150E+02  0.25500000000E-02 0.  1.
         25    2    1    2    0    0  0.49122044547E+02 -0.69061264237E+01  0.20979891426E+03  0.24920213094E+03  0.12500179116E+03 0.  0.
         23    2    1    2    0    0 -0.49122044547E+02  0.69061264237E+01  0.27291994862E+02  0.11078578045E+03  0.95225870031E+02 0.  0.
        -13    1    4    4    0    0 -0.72033371172E+01  0.16652660448E+02 -0.32437083670E+02  0.37166849836E+02  0.10566000000E+00 0.  1.
         13    1    4    4    0    0 -0.41918707430E+02 -0.97465340246E+01  0.59729078533E+02  0.73618930612E+02  0.10566000000E+00 0. -1.
    9000005    1    3    3    0    0  0.86535262346E+02 -0.18532341134E+02  0.17779210248E+03  0.19860219284E+03  0.10000000000E+01 0.  0.
    9000005    1    3    3    0    0 -0.37413217799E+02  0.11626214711E+02  0.32006811783E+02  0.50599938094E+02  0.10000000000E+01 0.  0.
<mgrwt>
<rscale>  0 0.12712377E+03</rscale>
<asrwt>0</asrwt>
<pdfrwt beam="1">  1        2 0.45929139E-01 0.13448464E+03</pdfrwt>
<pdfrwt beam="2">  1       -2 0.94536158E-02 0.13448464E+03</pdfrwt>
<totfact> 0.75842226E+03</totfact>
</mgrwt>
</event>
<event>
 8    3  0.1559595E-003  0.2985615E+03  0.7818608E-02  0.1087577E+00
          2   -1    0    0  501    0  0.00000000000E+00  0.00000000000E+00  0.26938149834E+03  0.26938149835E+03  0.25500000000E-02 0.  1.
         -2   -1    0    0    0  501 -0.00000000000E+00 -0.00000000000E+00 -0.48219531697E+03  0.48219531698E+03  0.25500000000E-02 0. -1.
         25    2    1    2    0    0 -0.26815129779E+03 -0.40176495771E+02  0.11192024519E+03  0.31884962166E+03  0.12497868072E+03 0.  0.
         23    2    1    2    0    0  0.26815129779E+03  0.40176495771E+02 -0.32473406382E+03  0.43272719367E+03  0.91001882496E+02 0.  0.
        -13    1    4    4    0    0  0.17622866781E+03 -0.17736615797E+02 -0.20988535513E+03  0.27463248963E+03  0.10566000000E+00 0. -1.
         13    1    4    4    0    0  0.91922629973E+02  0.57913111568E+02 -0.11484870869E+03  0.15809470404E+03  0.10566000000E+00 0.  1.
    9000005    1    3    3    0    0 -0.14476093068E+03  0.50455262418E+01  0.11867081886E+03  0.18725636875E+03  0.10000000000E+01 0.  0.
    9000005    1    3    3    0    0 -0.12339036710E+03 -0.45222022013E+02 -0.67505736661E+01  0.13159325292E+03  0.10000000000E+01 0.  0.
<mgrwt>
<rscale>  0 0.29537237E+03</rscale>
<asrwt>0</asrwt>
<pdfrwt beam="1">  1        2 0.41443308E-01 0.29856145E+03</pdfrwt>
<pdfrwt beam="2">  1       -2 0.74183895E-01 0.29856145E+03</pdfrwt>
<totfact> 0.20786435E+02</totfact>
</mgrwt>
</event>
<event>
 8    3  0.1559595E-003  0.1315819E+03  0.7818608E-02  0.1239052E+00
          2   -1    0    0  501    0  0.00000000000E+00  0.00000000000E+00  0.42549554689E+04  0.42549554689E+04  0.25500000000E-02 0. -1.
         -2   -1    0    0    0  501 -0.00000000000E+00 -0.00000000000E+00 -0.32442932846E+01  0.32442942868E+01  0.25500000000E-02 0.  1.
         25    2    1    2    0    0 -0.40331815379E+02 -0.79479315603E+01  0.28318228352E+04  0.28348781904E+04  0.12499583809E+03 0.  0.
         23    2    1    2    0    0  0.40331815379E+02  0.79479315603E+01  0.14198883404E+04  0.14233215727E+04  0.89841946469E+02 0.  0.
        -13    1    4    4    0    0 -0.10072315550E+02 -0.14726903743E+02  0.67934513771E+02  0.70238469229E+02  0.10566000000E+00 0.  1.
         13    1    4    4    0    0  0.50404130929E+02  0.22674835303E+02  0.13519538266E+04  0.13530831035E+04  0.10566000000E+00 0. -1.
    9000005    1    3    3    0    0  0.16732440307E+02 -0.32104934325E+02  0.21343695381E+04  0.21346767968E+04  0.10000000000E+01 0.  0.
    9000005    1    3    3    0    0 -0.57064255686E+02  0.24157002765E+02  0.69745329709E+03  0.70020139366E+03  0.10000000000E+01 0.  0.
<mgrwt>
<rscale>  0 0.12248588E+03</rscale>
<asrwt>0</asrwt>
<pdfrwt beam="1">  1        2 0.65460896E+00 0.13158185E+03</pdfrwt>
<pdfrwt beam="2">  1       -2 0.49912180E-03 0.13158185E+03</pdfrwt>
<totfact> 0.16931449E+03</totfact>
</mgrwt>
</event>
<event>
 8    3  0.1559595E-003  0.3002284E+03  0.7818608E-02  0.1086616E+00
          2   -1    0    0  501    0  0.00000000000E+00  0.00000000000E+00  0.15078634983E+03  0.15078634985E+03  0.25500000000E-02 0. -1.
         -2   -1    0    0    0  501 -0.00000000000E+00 -0.00000000000E+00 -0.57486770405E+03  0.57486770405E+03  0.25500000000E-02 0.  1.
         25    2    1    2    0    0 -0.20466004027E+03 -0.18062592435E+03 -0.21090700026E+03  0.36690445696E+03  0.12500264457E+03 0.  0.
         23    2    1    2    0    0  0.20466004027E+03  0.18062592435E+03 -0.21317435396E+03  0.35874959694E+03  0.93522785925E+02 0.  0.
        -13    1    4    4    0    0  0.16352771613E+03  0.17024091694E+03 -0.21043584083E+03  0.31623810335E+03  0.10566000000E+00 0.  1.
         13    1    4    4    0    0  0.41132324148E+02  0.10385007410E+02 -0.27385131242E+01  0.42511493585E+02  0.10566000000E+00 0. -1.
    9000005    1    3    3    0    0 -0.39465021158E+02 -0.72492850377E+01  0.97090457719E+01  0.41295345965E+02  0.10000000000E+01 0.  0.
    9000005    1    3    3    0    0 -0.16519501912E+03 -0.17337663931E+03 -0.22061604603E+03  0.32560911100E+03  0.10000000000E+01 0.  0.
<mgrwt>
<rscale>  0 0.29726385E+03</rscale>
<asrwt>0</asrwt>
<pdfrwt beam="1">  1        2 0.23197900E-01 0.30022844E+03</pdfrwt>
<pdfrwt beam="2">  1       -2 0.88441184E-01 0.30022844E+03</pdfrwt>
<totfact> 0.26734750E+02</totfact>
</mgrwt>
</event>
<event>
 8    3  0.1559595E-003  0.1874768E+03  0.7818608E-02  0.1165812E+00
         -2   -1    0    0    0  501 -0.00000000000E+00  0.00000000000E+00  0.34983027638E+02  0.34983027731E+02  0.25500000000E-02 0.  1.
          2   -1    0    0  501    0  0.00000000000E+00 -0.00000000000E+00 -0.10399666614E+04  0.10399666614E+04  0.25500000000E-02 0. -1.
         25    2    1    2    0    0  0.13840095762E+03  0.19174290783E+02 -0.72690909781E+03  0.75069593444E+03  0.12500028407E+03 0.  0.
         23    2    1    2    0    0 -0.13840095762E+03 -0.19174290783E+02 -0.27807453594E+03  0.32425375468E+03  0.91063556850E+02 0.  0.
        -13    1    4    4    0    0 -0.46251039051E+02  0.29131066171E+02 -0.14746198966E+03  0.15726673898E+03  0.10566000000E+00 0. -1.
         13    1    4    4    0    0 -0.92149918571E+02 -0.48305356955E+02 -0.13061254628E+03  0.16698701571E+03  0.10566000000E+00 0.  1.
    9000005    1    3    3    0    0  0.36965394625E+02  0.15524268296E+02 -0.50594602362E+03  0.50753307490E+03  0.10000000000E+01 0.  0.
    9000005    1    3    3    0    0  0.10143556300E+03  0.36500224874E+01 -0.22096307419E+03  0.24316285954E+03  0.10000000000E+01 0.  0.
<mgrwt>
<rscale>  0 0.18207303E+03</rscale>
<asrwt>0</asrwt>
<pdfrwt beam="2">  1        2 0.15999485E+00 0.18747680E+03</pdfrwt>
<pdfrwt beam="1">  1       -2 0.53820051E-02 0.18747680E+03</pdfrwt>
<totfact> 0.42948328E+03</totfact>
</mgrwt>
</event>
<event>
 8    3  0.1559595E-003  0.1895501E+03  0.7818608E-02  0.1163833E+00
         -2   -1    0    0    0  501 -0.00000000000E+00  0.00000000000E+00  0.35483267766E+03  0.35483267767E+03  0.25500000000E-02 0.  1.
          2   -1    0    0  501    0  0.00000000000E+00 -0.00000000000E+00 -0.92273655203E+02  0.92273655238E+02  0.25500000000E-02 0. -1.
         25    2    1    2    0    0 -0.12057407662E+03 -0.75940771135E+02  0.10801384957E+03  0.21816563504E+03  0.12499657571E+03 0.  0.
         23    2    1    2    0    0  0.12057407662E+03  0.75940771135E+02  0.15454517289E+03  0.22894069787E+03  0.90689161451E+02 0.  0.
        -13    1    4    4    0    0  0.25052622505E+02 -0.17465514051E+01 -0.67665882101E+01  0.26009271736E+02  0.10566000000E+00 0. -1.
         13    1    4    4    0    0  0.95521454114E+02  0.77687322541E+02  0.16131176110E+03  0.20293142614E+03  0.10566000000E+00 0.  1.
    9000005    1    3    3    0    0  0.18110734112E+02 -0.70354926981E+01 -0.11454440216E+02  0.22576559708E+02  0.10000000000E+01 0.  0.
    9000005    1    3    3    0    0 -0.13868481073E+03 -0.68905278437E+02  0.11946828978E+03  0.19558907533E+03  0.10000000000E+01 0.  0.
<mgrwt>
<rscale>  0 0.18416415E+03</rscale>
<asrwt>0</asrwt>
<pdfrwt beam="2">  1        2 0.14195947E-01 0.18955013E+03</pdfrwt>
<pdfrwt beam="1">  1       -2 0.54589642E-01 0.18955013E+03</pdfrwt>
<totfact> 0.13219134E+03</totfact>
</mgrwt>
</event>
<event>
 8    3  0.1559595E-003  0.1330382E+03  0.7818608E-02  0.1235978E+00
         -2   -1    0    0    0  501 -0.00000000000E+00  0.00000000000E+00  0.23265136590E+02  0.23265136730E+02  0.25500000000E-02 0. -1.
          2   -1    0    0  501    0  0.00000000000E+00 -0.00000000000E+00 -0.65362693629E+03  0.65362693630E+03  0.25500000000E-02 0.  1.
         25    2    1    2    0    0 -0.32089176186E+02 -0.32289735583E+02 -0.25054269102E+03  0.28367376772E+03  0.12500729666E+03 0.  0.
         23    2    1    2    0    0  0.32089176186E+02  0.32289735583E+02 -0.37981910868E+03  0.39321830530E+03  0.91026029534E+02 0.  0.
        -13    1    4    4    0    0  0.23385266433E+02  0.46171454747E+02 -0.37103455718E+03  0.37462691802E+03  0.10566000000E+00 0.  1.
         13    1    4    4    0    0  0.87039097534E+01 -0.13881719164E+02 -0.87845515020E+01  0.18591387282E+02  0.10566000000E+00 0. -1.
    9000005    1    3    3    0    0 -0.77724259297E+02 -0.36454972369E+02 -0.18177832538E+03  0.20103329344E+03  0.10000000000E+01 0.  0.
    9000005    1    3    3    0    0  0.45635083111E+02  0.41652367863E+01 -0.68764365639E+02  0.82640474283E+02  0.10000000000E+01 0.  0.
<mgrwt>
<rscale>  0 0.12442058E+03</rscale>
<asrwt>0</asrwt>
<pdfrwt beam="2">  1        2 0.10055798E+00 0.13303821E+03</pdfrwt>
<pdfrwt beam="1">  1       -2 0.35792523E-02 0.13303821E+03</pdfrwt>
<totfact> 0.14063898E+04</totfact>
</mgrwt>
</event>
<event>
 8    3  0.1559595E-003  0.1716627E+03  0.7818608E-02  0.1182604E+00
         -2   -1    0    0    0  501 -0.00000000000E+00  0.00000000000E+00  0.20531149322E+02  0.20531149481E+02  0.25500000000E-02 0.  1.
          2   -1    0    0  501    0  0.00000000000E+00 -0.00000000000E+00 -0.12591288502E+04  0.12591288502E+04  0.25500000000E-02 0. -1.
         25    2    1    2    0    0 -0.80765447563E+02  0.85556125886E+02 -0.60171217004E+03  0.62572006955E+03  0.12500064668E+03 0.  0.
         23    2    1    2    0    0  0.80765447563E+02 -0.85556125886E+02 -0.63688553081E+03  0.65393993010E+03  0.90395490107E+02 0.  0.
        -13    1    4    4    0    0  0.58573126857E+02 -0.12924141718E+01 -0.31860298444E+03  0.32394498666E+03  0.10566000000E+00 0. -1.
         13    1    4    4    0    0  0.22192320705E+02 -0.84263711714E+02 -0.31828254637E+03  0.32999494345E+03  0.10566000000E+00 0.  1.
    9000005    1    3    3    0    0 -0.96304642773E+02  0.67918106821E+02 -0.28873107253E+03  0.31185587328E+03  0.10000000000E+01 0.  0.
    9000005    1    3    3    0    0  0.15539195210E+02  0.17638019065E+02 -0.31298109751E+03  0.31386419627E+03  0.10000000000E+01 0.  0.
<mgrwt>
<rscale>  0 0.16551787E+03</rscale>
<asrwt>0</asrwt>
<pdfrwt beam="2">  1        2 0.19371207E+00 0.17166266E+03</pdfrwt>
<pdfrwt beam="1">  1       -2 0.31586393E-02 0.17166266E+03</pdfrwt>
<totfact> 0.71394864E+03</totfact>
</mgrwt>
</event>
<event>
 8    3  0.1559595E-003  0.1351072E+03  0.7818608E-02  0.1232346E+00
          2   -1    0    0  501    0  0.00000000000E+00  0.00000000000E+00  0.11769240451E+04  0.11769240451E+04  0.25500000000E-02 0. -1.
         -2   -1    0    0    0  501 -0.00000000000E+00 -0.00000000000E+00 -0.18660280876E+02  0.18660281050E+02  0.25500000000E-02 0.  1.
         25    2    1    2    0    0  0.38907873212E+01 -0.51127260962E+02  0.97672580550E+03  0.98602598744E+03  0.12499925490E+03 0.  0.
         23    2    1    2    0    0 -0.38907873212E+01  0.51127260962E+02  0.18153795872E+03  0.20955833871E+03  0.91266268848E+02 0.  0.
        -13    1    4    4    0    0 -0.21479769918E+02  0.33898943495E+02  0.18050843765E+03  0.18491572706E+03  0.10566000000E+00 0. -1.
         13    1    4    4    0    0  0.17588982597E+02  0.17228317467E+02  0.10295210662E+01  0.24642611656E+02  0.10566000000E+00 0.  1.
    9000005    1    3    3    0    0  0.16983992249E+02  0.38504397028E+02  0.22946395249E+03  0.23329327054E+03  0.10000000000E+01 0.  0.
    9000005    1    3    3    0    0 -0.13093204928E+02 -0.89631657990E+02  0.74726185301E+03  0.75273271690E+03  0.10000000000E+01 0.  0.
<mgrwt>
<rscale>  0 0.12675892E+03</rscale>
<asrwt>0</asrwt>
<pdfrwt beam="1">  1        2 0.18106534E+00 0.13510718E+03</pdfrwt>
<pdfrwt beam="2">  1       -2 0.28708108E-02 0.13510718E+03</pdfrwt>
<totfact> 0.90371385E+03</totfact>
</mgrwt>
</event>
<event>
 8    3  0.1559595E-003  0.1491182E+03  0.7818608E-02  0.1209749E+00
          2   -1    0    0  501    0  0.00000000000E+00  0.00000000000E+00  0.10482942021E+03  0.10482942024E+03  0.25500000000E-02 0. -1.
         -2   -1    0    0    0  501 -0.00000000000E+00 -0.00000000000E+00 -0.17955355334E+03  0.17955355336E+03  0.25500000000E-02 0.  1.
         25    2    1    2    0    0  0.77318872038E+02 -0.25183249126E+02 -0.46509540786E+02  0.15620295448E+03  0.12499528629E+03 0.  0.
         23    2    1    2    0    0 -0.77318872038E+02  0.25183249126E+02 -0.28214592351E+02  0.12818001912E+03  0.94982367155E+02 0.  0.
        -13    1    4    4    0    0 -0.58778230026E+01  0.32345009578E+02  0.22882780078E+02  0.40054728011E+02  0.10566000000E+00 0. -1.
         13    1    4    4    0    0 -0.71441049035E+02 -0.71617604517E+01 -0.51097372429E+02  0.88125291110E+02  0.10566000000E+00 0.  1.
    9000005    1    3    3    0    0  0.11172642808E+03 -0.21147285868E+02 -0.42136342013E+02  0.12127025089E+03  0.10000000000E+01 0.  0.
    9000005    1    3    3    0    0 -0.34407556047E+02 -0.40359632583E+01 -0.43731987727E+01  0.34932703589E+02  0.10000000000E+01 0.  0.
<mgrwt>
<rscale>  0 0.14269437E+03</rscale>
<asrwt>0</asrwt>
<pdfrwt beam="1">  1        2 0.16127603E-01 0.14911816E+03</pdfrwt>
<pdfrwt beam="2">  1       -2 0.27623624E-01 0.14911816E+03</pdfrwt>
<totfact> 0.40875343E+03</totfact>
</mgrwt>
</event>
<event>
 8    3  0.1559595E-003  0.1512589E+03  0.7818608E-02  0.1207667E+00
          2   -1    0    0  501    0  0.00000000000E+00  0.00000000000E+00  0.11440832366E+03  0.11440832369E+03  0.25500000000E-02 0. -1.
         -2   -1    0    0    0  501 -0.00000000000E+00 -0.00000000000E+00 -0.17893708048E+03  0.17893708049E+03  0.25500000000E-02 0.  1.
         25    2    1    2    0    0 -0.71338942557E+02 -0.46529041717E+02  0.24968488866E+01  0.15127951495E+03  0.12500024377E+03 0.  0.
         23    2    1    2    0    0  0.71338942557E+02  0.46529041717E+02 -0.67025605698E+02  0.14206588924E+03  0.91848182436E+02 0.  0.
        -13    1    4    4    0    0  0.82015210826E+01  0.31520723939E+02 -0.69889156653E+02  0.77105942491E+02  0.10566000000E+00 0.  1.
         13    1    4    4    0    0  0.63137421474E+02  0.15008317778E+02  0.28635509547E+01  0.64959946744E+02  0.10566000000E+00 0. -1.
    9000005    1    3    3    0    0 -0.70659352943E+02  0.28207956129E+02 -0.43985963381E+01  0.76215356701E+02  0.10000000000E+01 0.  0.
    9000005    1    3    3    0    0 -0.67958961339E+00 -0.74736997846E+02  0.68954452247E+01  0.75064158251E+02  0.10000000000E+01 0.  0.
<mgrwt>
<rscale>  0 0.14429277E+03</rscale>
<asrwt>0</asrwt>
<pdfrwt beam="1">  1        2 0.17601281E-01 0.15125891E+03</pdfrwt>
<pdfrwt beam="2">  1       -2 0.27528782E-01 0.15125891E+03</pdfrwt>
<totfact> 0.37197020E+03</totfact>
</mgrwt>
</event>
<event>
 8    3  0.1559595E-003  0.1836724E+03  0.7818608E-02  0.1167483E+00
         -2   -1    0    0    0  501 -0.00000000000E+00  0.00000000000E+00  0.70600945947E+02  0.70600945993E+02  0.25500000000E-02 0.  1.
          2   -1    0    0  501    0  0.00000000000E+00 -0.00000000000E+00 -0.46042841741E+03  0.46042841741E+03  0.25500000000E-02 0. -1.
         25    2    1    2    0    0  0.12439431685E+03 -0.51358560416E+02 -0.15261767759E+03  0.23880476595E+03  0.12499565167E+03 0.  0.
         23    2    1    2    0    0 -0.12439431685E+03  0.51358560416E+02 -0.23720979387E+03  0.29222459745E+03  0.10495275726E+03 0.  0.
        -13    1    4    4    0    0 -0.11135437908E+03 -0.62714292700E+01 -0.15175330893E+03  0.18833004672E+03  0.10566000000E+00 0. -1.
         13    1    4    4    0    0 -0.13039937768E+02  0.57629989686E+02 -0.85456484943E+02  0.10389455073E+03  0.10566000000E+00 0.  1.
    9000005    1    3    3    0    0  0.81071335184E+02 -0.11208592242E+02 -0.75815870810E+01  0.82198992642E+02  0.10000000000E+01 0.  0.
    9000005    1    3    3    0    0  0.43322981661E+02 -0.40149968174E+02 -0.14503609051E+03  0.15660577331E+03  0.10000000000E+01 0.  0.
<mgrwt>
<rscale>  0 0.18033060E+03</rscale>
<asrwt>0</asrwt>
<pdfrwt beam="2">  1        2 0.70835139E-01 0.18367243E+03</pdfrwt>
<pdfrwt beam="1">  1       -2 0.10861684E-01 0.18367243E+03</pdfrwt>
<totfact> 0.38927181E+03</totfact>
</mgrwt>
</event>
<event>
 8    3  0.1559595E-003  0.1327218E+03  0.7818608E-02  0.1237719E+00
         -2   -1    0    0    0  501 -0.00000000000E+00  0.00000000000E+00  0.15871278138E+02  0.15871278343E+02  0.25500000000E-02 0.  1.
          2   -1    0    0  501    0  0.00000000000E+00 -0.00000000000E+00 -0.10930488212E+04  0.10930488212E+04  0.25500000000E-02 0. -1.
         25    2    1    2    0    0  0.38824081478E+02  0.21968146311E+02 -0.86117911452E+03  0.87134639446E+03  0.12500065243E+03 0.  0.
         23    2    1    2    0    0 -0.38824081478E+02 -0.21968146311E+02 -0.21599842851E+03  0.23757370505E+03  0.88295161002E+02 0.  0.
        -13    1    4    4    0    0 -0.16254627171E+02  0.94855876662E+01 -0.19002458243E+03  0.19095429393E+03  0.10566000000E+00 0. -1.
         13    1    4    4    0    0 -0.22569454307E+02 -0.31453733977E+02 -0.25973846078E+02  0.46619411117E+02  0.10566000000E+00 0.  1.
    9000005    1    3    3    0    0  0.67840232424E+02 -0.26547377928E+02 -0.57838914953E+03  0.58295974879E+03  0.10000000000E+01 0.  0.
    9000005    1    3    3    0    0 -0.29016150945E+02  0.48515524239E+02 -0.28278996499E+03  0.28838664568E+03  0.10000000000E+01 0.  0.
<mgrwt>
<rscale>  0 0.12331957E+03</rscale>
<asrwt>0</asrwt>
<pdfrwt beam="2">  1        2 0.16816130E+00 0.13272178E+03</pdfrwt>
<pdfrwt beam="1">  1       -2 0.24417360E-02 0.13272178E+03</pdfrwt>
<totfact> 0.12760509E+04</totfact>
</mgrwt>
</event>
<event>
 8    3  0.1559595E-003  0.1253155E+03  0.7818608E-02  0.1249675E+00
         -2   -1    0    0    0  501 -0.00000000000E+00  0.00000000000E+00  0.11315274273E+02  0.11315274561E+02  0.25500000000E-02 0.  1.
          2   -1    0    0  501    0  0.00000000000E+00 -0.00000000000E+00 -0.10525689562E+04  0.10525689562E+04  0.25500000000E-02 0. -1.
         25    2    1    2    0    0 -0.55237721015E+01 -0.69928444278E+01 -0.55916930221E+03  0.57303950393E+03  0.12499821037E+03 0.  0.
         23    2    1    2    0    0  0.55237721015E+01  0.69928444278E+01 -0.48208437972E+03  0.49084472684E+03  0.91890068919E+02 0.  0.
        -13    1    4    4    0    0 -0.31980447028E+02  0.32138455644E+02 -0.29011321668E+03  0.29363466924E+03  0.10566000000E+00 0.  1.
         13    1    4    4    0    0  0.37504219129E+02 -0.25145611216E+02 -0.19197116304E+03  0.19721005760E+03  0.10566000000E+00 0. -1.
    9000005    1    3    3    0    0 -0.13170349693E+02 -0.55239652935E+02 -0.44827489278E+03  0.45185866913E+03  0.10000000000E+01 0.  0.
    9000005    1    3    3    0    0  0.76465775910E+01  0.48246808507E+02 -0.11089440943E+03  0.12118083480E+03  0.10000000000E+01 0.  0.
<mgrwt>
<rscale>  0 0.11609909E+03</rscale>
<asrwt>0</asrwt>
<pdfrwt beam="2">  1        2 0.16193361E+00 0.12531546E+03</pdfrwt>
<pdfrwt beam="1">  1       -2 0.17408123E-02 0.12531546E+03</pdfrwt>
<totfact> 0.21917015E+04</totfact>
</mgrwt>
</event>
<event>
 8    3  0.1559595E-003  0.1321653E+03  0.7818608E-02  0.1238208E+00
          2   -1    0    0  501    0  0.00000000000E+00  0.00000000000E+00  0.50959446757E+03  0.50959446758E+03  0.25500000000E-02 0. -1.
         -2   -1    0    0    0  501 -0.00000000000E+00 -0.00000000000E+00 -0.26338939840E+02  0.26338939964E+02  0.25500000000E-02 0.  1.
         25    2    1    2    0    0 -0.42901279068E+02  0.14308961426E+01  0.29067682966E+03  0.31931284685E+03  0.12500043062E+03 0.  0.
         23    2    1    2    0    0  0.42901279068E+02 -0.14308961426E+01  0.19257869807E+03  0.21662056069E+03  0.89416693925E+02 0.  0.
        -13    1    4    4    0    0 -0.23827611261E+02 -0.16121443296E+02  0.78979011727E+02  0.84055644961E+02  0.10566000000E+00 0. -1.
         13    1    4    4    0    0  0.66728890329E+02  0.14690547153E+02  0.11359968635E+03  0.13256491573E+03  0.10566000000E+00 0.  1.
    9000005    1    3    3    0    0  0.34757896423E+01  0.58420492623E+02  0.13649037220E+03  0.14851147018E+03  0.10000000000E+01 0.  0.
    9000005    1    3    3    0    0 -0.46377068711E+02 -0.56989596480E+02  0.15418645746E+03  0.17080137667E+03  0.10000000000E+01 0.  0.
<mgrwt>
<rscale>  0 0.12301301E+03</rscale>
<asrwt>0</asrwt>
<pdfrwt beam="1">  1        2 0.78399138E-01 0.13216533E+03</pdfrwt>
<pdfrwt beam="2">  1       -2 0.40521451E-02 0.13216533E+03</pdfrwt>
<totfact> 0.15487757E+04</totfact>
</mgrwt>
</event>
<event>
 8    3  0.1559595E-003  0.1551149E+03  0.7818608E-02  0.1202791E+00
         -2   -1    0    0    0  501 -0.00000000000E+00  0.00000000000E+00  0.11612774856E+02  0.11612775136E+02  0.25500000000E-02 0.  1.
          2   -1    0    0  501    0  0.00000000000E+00 -0.00000000000E+00 -0.18235626911E+04  0.18235626911E+04  0.25500000000E-02 0. -1.
         25    2    1    2    0    0 -0.74195325280E+02 -0.54136961722E+02 -0.11834908872E+04  0.11936127208E+04  0.12499956148E+03 0.  0.
         23    2    1    2    0    0  0.74195325280E+02  0.54136961722E+02 -0.62845902904E+03  0.64156274538E+03  0.90588344537E+02 0.  0.
        -13    1    4    4    0    0  0.17552830427E+02  0.64590427176E+02 -0.41968422089E+03  0.42498809579E+03  0.10566000000E+00 0. -1.
         13    1    4    4    0    0  0.56642494853E+02 -0.10453465454E+02 -0.20877480815E+03  0.21657464959E+03  0.10566000000E+00 0.  1.
    9000005    1    3    3    0    0  0.51032597922E+01  0.11116235737E+02 -0.10548501320E+02  0.16182856286E+02  0.10000000000E+01 0.  0.
    9000005    1    3    3    0    0 -0.79298585072E+02 -0.65253197459E+02 -0.11729423859E+04  0.11774298646E+04  0.10000000000E+01 0.  0.
<mgrwt>
<rscale>  0 0.14812929E+03</rscale>
<asrwt>0</asrwt>
<pdfrwt beam="2">  1        2 0.28054788E+00 0.15511495E+03</pdfrwt>
<pdfrwt beam="1">  1       -2 0.17865822E-02 0.15511495E+03</pdfrwt>
<totfact> 0.82865383E+03</totfact>
</mgrwt>
</event>
<event>
 8    3  0.1559595E-003  0.1696373E+03  0.7818608E-02  0.1184834E+00
          2   -1    0    0  501    0  0.00000000000E+00  0.00000000000E+00  0.78580437179E+03  0.78580437179E+03  0.25500000000E-02 0. -1.
         -2   -1    0    0    0  501 -0.00000000000E+00 -0.00000000000E+00 -0.31932910204E+02  0.31932910305E+02  0.25500000000E-02 0.  1.
         25    2    1    2    0    0 -0.11447861955E+02  0.11410395623E+03  0.43530311226E+03  0.46718905259E+03  0.12500417971E+03 0.  0.
         23    2    1    2    0    0  0.11447861955E+02 -0.11410395623E+03  0.31856834932E+03  0.35054822951E+03  0.90815756623E+02 0.  0.
        -13    1    4    4    0    0 -0.37106076909E+02 -0.26853583844E+02  0.85619764097E+02  0.97101653317E+02  0.10566000000E+00 0. -1.
         13    1    4    4    0    0  0.48553938865E+02 -0.87250372382E+02  0.23294858522E+03  0.25344657619E+03  0.10566000000E+00 0.  1.
    9000005    1    3    3    0    0  0.28807865834E+01  0.11017723272E+03  0.17736904125E+03  0.20882552127E+03  0.10000000000E+01 0.  0.
    9000005    1    3    3    0    0 -0.14328648539E+02  0.39267235080E+01  0.25793407101E+03  0.25836353132E+03  0.10000000000E+01 0.  0.
<mgrwt>
<rscale>  0 0.16347010E+03</rscale>
<asrwt>0</asrwt>
<pdfrwt beam="1">  1        2 0.12089298E+00 0.16963729E+03</pdfrwt>
<pdfrwt beam="2">  1       -2 0.49127554E-02 0.16963729E+03</pdfrwt>
<totfact> 0.71277871E+03</totfact>
</mgrwt>
</event>
<event>
 8    3  0.1559595E-003  0.1409298E+03  0.7818608E-02  0.1223543E+00
          2   -1    0    0  501    0  0.00000000000E+00  0.00000000000E+00  0.42046659634E+03  0.42046659635E+03  0.25500000000E-02 0.  1.
         -2   -1    0    0    0  501 -0.00000000000E+00 -0.00000000000E+00 -0.37652928525E+02  0.37652928611E+02  0.25500000000E-02 0. -1.
         25    2    1    2    0    0 -0.60175079954E+02 -0.24794717909E+02  0.21101118259E+03  0.25374581062E+03  0.12500159578E+03 0.  0.
         23    2    1    2    0    0  0.60175079954E+02  0.24794717909E+02  0.17180248523E+03  0.20437371434E+03  0.89536042453E+02 0.  0.
        -13    1    4    4    0    0  0.30039160400E+02 -0.32721043404E+02  0.85749917808E+02  0.96571618021E+02  0.10566000000E+00 0. -1.
         13    1    4    4    0    0  0.30135919554E+02  0.57515761314E+02  0.86052567421E+02  0.10780209632E+03  0.10566000000E+00 0.  1.
    9000005    1    3    3    0    0  0.12054497901E+02 -0.58638556786E+02  0.73821624376E+02  0.95049584360E+02  0.10000000000E+01 0.  0.
    9000005    1    3    3    0    0 -0.72229577855E+02  0.33843838876E+02  0.13718955821E+03  0.15869622626E+03  0.10000000000E+01 0.  0.
<mgrwt>
<rscale>  0 0.13267234E+03</rscale>
<asrwt>0</asrwt>
<pdfrwt beam="1">  1        2 0.64687169E-01 0.14092983E+03</pdfrwt>
<pdfrwt beam="2">  1       -2 0.57927582E-02 0.14092983E+03</pdfrwt>
<totfact> 0.11222091E+04</totfact>
</mgrwt>
</event>
<event>
 8    3  0.1559595E-003  0.1436333E+03  0.7818608E-02  0.1218154E+00
         -2   -1    0    0    0  501 -0.00000000000E+00  0.00000000000E+00  0.11431285515E+04  0.11431285515E+04  0.25500000000E-02 0. -1.
          2   -1    0    0  501    0  0.00000000000E+00 -0.00000000000E+00 -0.23064842832E+02  0.23064842973E+02  0.25500000000E-02 0.  1.
         25    2    1    2    0    0 -0.38049801054E+02 -0.59646722992E+02  0.25027621784E+03  0.28856319088E+03  0.12500004395E+03 0.  0.
         23    2    1    2    0    0  0.38049801054E+02  0.59646722992E+02  0.86978749081E+03  0.87763020358E+03  0.93268301951E+02 0.  0.
        -13    1    4    4    0    0  0.46718800091E+02  0.58356300529E+02  0.86376901525E+03  0.86699770874E+03  0.10566000000E+00 0. -1.
         13    1    4    4    0    0 -0.86689990368E+01  0.12904224634E+01  0.60184755569E+01  0.10632494839E+02  0.10566000000E+00 0.  1.
    9000005    1    3    3    0    0  0.68262183189E+01 -0.12516569951E+02 -0.11795182891E+02  0.18530734451E+02  0.10000000000E+01 0.  0.
    9000005    1    3    3    0    0 -0.44876019373E+02 -0.47130153041E+02  0.26207140074E+03  0.27003245643E+03  0.10000000000E+01 0.  0.
<mgrwt>
<rscale>  0 0.13647380E+03</rscale>
<asrwt>0</asrwt>
<pdfrwt beam="2">  1        2 0.35484375E-02 0.14363332E+03</pdfrwt>
<pdfrwt beam="1">  1       -2 0.17586592E+00 0.14363332E+03</pdfrwt>
<totfact> 0.50717386E+02</totfact>
</mgrwt>
</event>
<event>
 8    3  0.1559595E-003  0.2515488E+03  0.7818608E-02  0.1114714E+00
          2   -1    0    0  501    0  0.00000000000E+00  0.00000000000E+00  0.11078854760E+04  0.11078854760E+04  0.25500000000E-02 0. -1.
         -2   -1    0    0    0  501 -0.00000000000E+00 -0.00000000000E+00 -0.56975763440E+02  0.56975763497E+02  0.25500000000E-02 0.  1.
         25    2    1    2    0    0  0.21796244727E+03  0.12304902609E+02  0.67744388449E+03  0.72263892687E+03  0.12497104842E+03 0.  0.
         23    2    1    2    0    0 -0.21796244727E+03 -0.12304902609E+02  0.37346582808E+03  0.44222231264E+03  0.91786763772E+02 0.  0.
        -13    1    4    4    0    0 -0.18827440347E+03  0.23257993245E+02  0.31376075964E+03  0.36665243856E+03  0.10566000000E+00 0.  1.
         13    1    4    4    0    0 -0.29688043805E+02 -0.35562895854E+02  0.59705068444E+02  0.75569874080E+02  0.10566000000E+00 0. -1.
    9000005    1    3    3    0    0  0.18048051941E+03  0.58837685173E+02  0.47399929762E+03  0.51059908463E+03  0.10000000000E+01 0.  0.
    9000005    1    3    3    0    0  0.37481927868E+02 -0.46532782564E+02  0.20344458688E+03  0.21203984224E+03  0.10000000000E+01 0.  0.
<mgrwt>
<rscale>  0 0.24778295E+03</rscale>
<asrwt>0</asrwt>
<pdfrwt beam="1">  1        2 0.17044390E+00 0.25154881E+03</pdfrwt>
<pdfrwt beam="2">  1       -2 0.87655028E-02 0.25154881E+03</pdfrwt>
<totfact> 0.18493539E+03</totfact>
</mgrwt>
</event>
<event>
 8    3  0.1559595E-003  0.1706771E+03  0.7818608E-02  0.1183777E+00
          2   -1    0    0  501    0  0.00000000000E+00  0.00000000000E+00  0.95015217169E+03  0.95015217169E+03  0.25500000000E-02 0. -1.
         -2   -1    0    0    0  501 -0.00000000000E+00 -0.00000000000E+00 -0.31350645998E+02  0.31350646102E+02  0.25500000000E-02 0.  1.
         25    2    1    2    0    0  0.32941438823E+02 -0.11144500878E+03  0.29698900050E+03  0.34253925672E+03  0.12500219040E+03 0.  0.
         23    2    1    2    0    0 -0.32941438823E+02  0.11144500878E+03  0.62181252519E+03  0.63896356107E+03  0.90102649919E+02 0.  0.
        -13    1    4    4    0    0 -0.16646745956E+02 -0.13128431626E+02  0.78292423943E+02  0.81112173432E+02  0.10566000000E+00 0.  1.
         13    1    4    4    0    0 -0.16294692867E+02  0.12457344040E+03  0.54352010124E+03  0.55785138764E+03  0.10566000000E+00 0. -1.
    9000005    1    3    3    0    0  0.20851030001E+02  0.81786893534E+01  0.15441274782E+03  0.15603189770E+03  0.10000000000E+01 0.  0.
    9000005    1    3    3    0    0  0.12090408821E+02 -0.11962369813E+03  0.14257625269E+03  0.18650735902E+03  0.10000000000E+01 0.  0.
<mgrwt>
<rscale>  0 0.16443623E+03</rscale>
<asrwt>0</asrwt>
<pdfrwt beam="1">  1        2 0.14617727E+00 0.17067711E+03</pdfrwt>
<pdfrwt beam="2">  1       -2 0.48231757E-02 0.17067711E+03</pdfrwt>
<totfact> 0.57295469E+03</totfact>
</mgrwt>
</event>
<event>
 8    3  0.1559595E-003  0.1721477E+03  0.7818608E-02  0.1182842E+00
         -2   -1    0    0    0  501 -0.00000000000E+00  0.00000000000E+00  0.31831416693E+02  0.31831416795E+02  0.25500000000E-02 0.  1.
          2   -1    0    0  501    0  0.00000000000E+00 -0.00000000000E+00 -0.81465182858E+03  0.81465182858E+03  0.25500000000E-02 0. -1.
         25    2    1    2    0    0 -0.70816284058E+02 -0.94841112120E+02 -0.48513249969E+03  0.51477020985E+03  0.12500017624E+03 0.  0.
         23    2    1    2    0    0  0.70816284058E+02  0.94841112120E+02 -0.29768791220E+03  0.33171303553E+03  0.86056157442E+02 0.  0.
        -13    1    4    4    0    0  0.72530375877E+02  0.10833491088E+03 -0.24779509296E+03  0.27999915643E+03  0.10566000000E+00 0.  1.
         13    1    4    4    0    0 -0.17140918190E+01 -0.13493798765E+02 -0.49892819239E+02  0.51713879100E+02  0.10566000000E+00 0. -1.
    9000005    1    3    3    0    0  0.18116069909E+02 -0.23155674401E+02 -0.26627459235E+03  0.26789463559E+03  0.10000000000E+01 0.  0.
    9000005    1    3    3    0    0 -0.88932353967E+02 -0.71685437719E+02 -0.21885790733E+03  0.24687557426E+03  0.10000000000E+01 0.  0.
<mgrwt>
<rscale>  0 0.16529769E+03</rscale>
<asrwt>0</asrwt>
<pdfrwt beam="2">  1        2 0.12533103E+00 0.17214769E+03</pdfrwt>
<pdfrwt beam="1">  1       -2 0.48971417E-02 0.17214769E+03</pdfrwt>
<totfact> 0.68496763E+03</totfact>
</mgrwt>
</event>
<event>
 8    3  0.1559595E-003  0.1925531E+03  0.7818608E-02  0.1160990E+00
         -2   -1    0    0    0  501 -0.00000000000E+00  0.00000000000E+00  0.24958298350E+02  0.24958298480E+02  0.25500000000E-02 0.  1.
          2   -1    0    0  501    0  0.00000000000E+00 -0.00000000000E+00 -0.13811502176E+04  0.13811502176E+04  0.25500000000E-02 0. -1.
         25    2    1    2    0    0 -0.12729728806E+03  0.72442991677E+02 -0.84726337008E+03  0.86886818479E+03  0.12499647065E+03 0.  0.
         23    2    1    2    0    0  0.12729728806E+03 -0.72442991677E+02 -0.50892854917E+03  0.53724033129E+03  0.90367686789E+02 0.  0.
        -13    1    4    4    0    0  0.49062010607E+02 -0.42442957514E+02 -0.36481870234E+03  0.37054174160E+03  0.10566000000E+00 0. -1.
         13    1    4    4    0    0  0.78235277449E+02 -0.30000034163E+02 -0.14410984683E+03  0.16669858969E+03  0.10566000000E+00 0.  1.
    9000005    1    3    3    0    0 -0.15184445976E+03  0.52731012210E+02 -0.72584806572E+03  0.74343373216E+03  0.10000000000E+01 0.  0.
    9000005    1    3    3    0    0  0.24547171708E+02  0.19711979467E+02 -0.12141530436E+03  0.12543445263E+03  0.10000000000E+01 0.  0.
<mgrwt>
<rscale>  0 0.18722293E+03</rscale>
<asrwt>0</asrwt>
<pdfrwt beam="2">  1        2 0.21248459E+00 0.19255312E+03</pdfrwt>
<pdfrwt beam="1">  1       -2 0.38397393E-02 0.19255312E+03</pdfrwt>
<totfact> 0.45965813E+03</totfact>
</mgrwt>
</event>
<event>
 8    3  0.1559595E-003  0.2208646E+03  0.7818608E-02  0.1136432E+00
         -2   -1    0    0    0  501 -0.00000000000E+00  0.00000000000E+00  0.91633465930E+02  0.91633465966E+02  0.25500000000E-02 0. -1.
          2   -1    0    0  501    0  0.00000000000E+00 -0.00000000000E+00 -0.61175882172E+03  0.61175882172E+03  0.25500000000E-02 0.  1.
         25    2    1    2    0    0 -0.53849549855E+02  0.17394066955E+03 -0.11353432483E+03  0.24833689065E+03  0.12500415112E+03 0.  0.
         23    2    1    2    0    0  0.53849549855E+02 -0.17394066955E+03 -0.40659103096E+03  0.45505539704E+03  0.92757842680E+02 0.  0.
        -13    1    4    4    0    0  0.60334628814E+02 -0.53197184527E+02 -0.20165950374E+03  0.21711005156E+03  0.10566000000E+00 0. -1.
         13    1    4    4    0    0 -0.64850789589E+01 -0.12074348503E+03 -0.20493152722E+03  0.23794534548E+03  0.10566000000E+00 0.  1.
    9000005    1    3    3    0    0 -0.33680451418E+01  0.15994562201E+03 -0.11312660392E+03  0.19594023131E+03  0.10000000000E+01 0.  0.
    9000005    1    3    3    0    0 -0.50481504713E+02  0.13995047538E+02 -0.40772090933E+00  0.52396659341E+02  0.10000000000E+01 0.  0.
<mgrwt>
<rscale>  0 0.21661500E+03</rscale>
<asrwt>0</asrwt>
<pdfrwt beam="2">  1        2 0.94116739E-01 0.22086459E+03</pdfrwt>
<pdfrwt beam="1">  1       -2 0.14097457E-01 0.22086459E+03</pdfrwt>
<totfact> 0.18635747E+03</totfact>
</mgrwt>
</event>
<event>
 8    3  0.1559595E-003  0.1425415E+03  0.7818608E-02  0.1220380E+00
          2   -1    0    0  501    0  0.00000000000E+00  0.00000000000E+00  0.11570318811E+03  0.11570318814E+03  0.25500000000E-02 0. -1.
         -2   -1    0    0    0  501 -0.00000000000E+00 -0.00000000000E+00 -0.14692697850E+03  0.14692697852E+03  0.25500000000E-02 0.  1.
         25    2    1    2    0    0 -0.40482703688E+02  0.55287355551E+02 -0.39839751917E+02  0.14800434157E+03  0.12499015285E+03 0.  0.
         23    2    1    2    0    0  0.40482703688E+02 -0.55287355551E+02  0.86159615293E+01  0.11462582509E+03  0.91483900241E+02 0.  0.
        -13    1    4    4    0    0  0.34324271088E+02 -0.23799412655E+02  0.48129659769E+02  0.63726312791E+02  0.10566000000E+00 0. -1.
         13    1    4    4    0    0  0.61584325994E+01 -0.31487942896E+02 -0.39513698239E+02  0.50899512301E+02  0.10566000000E+00 0.  1.
    9000005    1    3    3    0    0 -0.18245182475E+02 -0.47888635785E+01 -0.73321333464E+02  0.75715505934E+02  0.10000000000E+01 0.  0.
    9000005    1    3    3    0    0 -0.22237521213E+02  0.60076219130E+02  0.33481581547E+02  0.72288835635E+02  0.10000000000E+01 0.  0.
<mgrwt>
<rscale>  0 0.13488667E+03</rscale>
<asrwt>0</asrwt>
<pdfrwt beam="1">  1        2 0.17800491E-01 0.14254150E+03</pdfrwt>
<pdfrwt beam="2">  1       -2 0.22604150E-01 0.14254150E+03</pdfrwt>
<totfact> 0.51645829E+03</totfact>
</mgrwt>
</event>
<event>
 8    3  0.1559595E-003  0.3091555E+03  0.7818608E-02  0.1081003E+00
         -2   -1    0    0    0  501 -0.00000000000E+00  0.00000000000E+00  0.64636507676E+02  0.64636507726E+02  0.25500000000E-02 0.  1.
          2   -1    0    0  501    0  0.00000000000E+00 -0.00000000000E+00 -0.15010719955E+04  0.15010719956E+04  0.25500000000E-02 0. -1.
         25    2    1    2    0    0 -0.28322530718E+02 -0.28133506179E+03 -0.83547674633E+03  0.89084146631E+03  0.12500216681E+03 0.  0.
         23    2    1    2    0    0  0.28322530718E+02  0.28133506179E+03 -0.60095874155E+03  0.67486703696E+03  0.11976028474E+03 0.  0.
        -13    1    4    4    0    0  0.74730963358E+02  0.18764649215E+03 -0.37666758939E+03  0.42740426643E+03  0.10566000000E+00 0.  1.
         13    1    4    4    0    0 -0.46408432641E+02  0.93688569640E+02 -0.22429115216E+03  0.24746277054E+03  0.10566000000E+00 0. -1.
    9000005    1    3    3    0    0 -0.46971182467E+02 -0.22138874602E+03 -0.75828412457E+03  0.79133752749E+03  0.10000000000E+01 0.  0.
    9000005    1    3    3    0    0  0.18648651750E+02 -0.59946315771E+02 -0.77192621761E+02  0.99503938821E+02  0.10000000000E+01 0.  0.
<mgrwt>
<rscale>  0 0.30863367E+03</rscale>
<asrwt>0</asrwt>
<pdfrwt beam="2">  1        2 0.23093413E+00 0.30915550E+03</pdfrwt>
<pdfrwt beam="1">  1       -2 0.99440792E-02 0.30915550E+03</pdfrwt>
<totfact> 0.91121217E+02</totfact>
</mgrwt>
</event>
<event>
 8    3  0.1559595E-003  0.1543992E+03  0.7818608E-02  0.1203544E+00
         -2   -1    0    0    0  501 -0.00000000000E+00  0.00000000000E+00  0.42747666284E+03  0.42747666285E+03  0.25500000000E-02 0.  1.
          2   -1    0    0  501    0  0.00000000000E+00 -0.00000000000E+00 -0.50178429639E+02  0.50178429704E+02  0.25500000000E-02 0. -1.
         25    2    1    2    0    0 -0.63213094798E+02 -0.64946934032E+02  0.14355695513E+03  0.21082627421E+03  0.12500047574E+03 0.  0.
         23    2    1    2    0    0  0.63213094798E+02  0.64946934032E+02  0.23374127807E+03  0.26682881834E+03  0.91370857669E+02 0.  0.
        -13    1    4    4    0    0  0.74036029008E+02  0.16838643277E+02  0.11033532333E+03  0.13393568695E+03  0.10566000000E+00 0. -1.
         13    1    4    4    0    0 -0.10822934210E+02  0.48108290755E+02  0.12340595473E+03  0.13289313140E+03  0.10566000000E+00 0.  1.
    9000005    1    3    3    0    0 -0.10453110184E+02  0.11192676146E+02 -0.18574840015E+02  0.24094982744E+02  0.10000000000E+01 0.  0.
    9000005    1    3    3    0    0 -0.52759984614E+02 -0.76139610178E+02  0.16213179515E+03  0.18673129146E+03  0.10000000000E+01 0.  0.
<mgrwt>
<rscale>  0 0.14752818E+03</rscale>
<asrwt>0</asrwt>
<pdfrwt beam="2">  1        2 0.77197584E-02 0.15439922E+03</pdfrwt>
<pdfrwt beam="1">  1       -2 0.65765641E-01 0.15439922E+03</pdfrwt>
<totfact> 0.18859130E+03</totfact>
</mgrwt>
</event>
<event>
 8    3  0.1559595E-003  0.1672191E+03  0.7818608E-02  0.1188225E+00
          2   -1    0    0  501    0  0.00000000000E+00  0.00000000000E+00  0.11244037599E+04  0.11244037599E+04  0.25500000000E-02 0. -1.
         -2   -1    0    0    0  501 -0.00000000000E+00 -0.00000000000E+00 -0.42592294657E+02  0.42592294733E+02  0.25500000000E-02 0.  1.
         25    2    1    2    0    0 -0.10965728016E+03 -0.17661421086E+02  0.15048677957E+03  0.22496333054E+03  0.12500233748E+03 0.  0.
         23    2    1    2    0    0  0.10965728016E+03  0.17661421086E+02  0.93132468565E+03  0.94203272407E+03  0.87882525239E+02 0.  0.
        -13    1    4    4    0    0  0.45436676958E+02  0.40689531739E+02  0.63657010383E+03  0.63948544774E+03  0.10566000000E+00 0.  1.
         13    1    4    4    0    0  0.64220603197E+02 -0.23028110653E+02  0.29475458181E+03  0.30254727634E+03  0.10566000000E+00 0. -1.
    9000005    1    3    3    0    0 -0.13546779491E+02  0.35510381080E+02  0.94105278097E+02  0.10149534849E+03  0.10000000000E+01 0.  0.
    9000005    1    3    3    0    0 -0.96110500664E+02 -0.53171802165E+02  0.56381501476E+02  0.12346798205E+03  0.10000000000E+01 0.  0.
<mgrwt>
<rscale>  0 0.16041898E+03</rscale>
<asrwt>0</asrwt>
<pdfrwt beam="1">  1        2 0.17298517E+00 0.16721911E+03</pdfrwt>
<pdfrwt beam="2">  1       -2 0.65526618E-02 0.16721911E+03</pdfrwt>
<totfact> 0.28329594E+03</totfact>
</mgrwt>
</event>
<event>
 8    3  0.1559595E-003  0.1952668E+03  0.7818608E-02  0.1154968E+00
          2   -1    0    0  501    0  0.00000000000E+00  0.00000000000E+00  0.22276977544E+03  0.22276977545E+03  0.25500000000E-02 0. -1.
         -2   -1    0    0    0  501 -0.00000000000E+00 -0.00000000000E+00 -0.16656805442E+03  0.16656805444E+03  0.25500000000E-02 0.  1.
         25    2    1    2    0    0  0.14511885266E+03 -0.38011350781E+02  0.25784995286E+02  0.19696193513E+03  0.12499917490E+03 0.  0.
         23    2    1    2    0    0 -0.14511885266E+03  0.38011350781E+02  0.30416725731E+02  0.19237589476E+03  0.11652880973E+03 0.  0.
        -13    1    4    4    0    0 -0.54974921398E+02  0.66305235296E+02 -0.15195811416E+02  0.87461706243E+02  0.10566000000E+00 0.  1.
         13    1    4    4    0    0 -0.90143931259E+02 -0.28293884515E+02  0.45612537147E+02  0.10491418852E+03  0.10566000000E+00 0. -1.
    9000005    1    3    3    0    0  0.16818353537E+03 -0.33078870001E+02  0.19377507333E+02  0.17250043769E+03  0.10000000000E+01 0.  0.
    9000005    1    3    3    0    0 -0.23064682717E+02 -0.49324807799E+01  0.64074879533E+01  0.24461497447E+02  0.10000000000E+01 0.  0.
<mgrwt>
<rscale>  0 0.19392539E+03</rscale>
<asrwt>0</asrwt>
<pdfrwt beam="1">  1        2 0.34272273E-01 0.19526684E+03</pdfrwt>
<pdfrwt beam="2">  1       -2 0.25625855E-01 0.19526684E+03</pdfrwt>
<totfact> 0.20328703E+03</totfact>
</mgrwt>
</event>
<event>
 8    3  0.1559595E-003  0.1703218E+03  0.7818608E-02  0.1183927E+00
         -2   -1    0    0    0  501 -0.00000000000E+00  0.00000000000E+00  0.17357652440E+03  0.17357652441E+03  0.25500000000E-02 0.  1.
          2   -1    0    0  501    0  0.00000000000E+00 -0.00000000000E+00 -0.14911234639E+03  0.14911234641E+03  0.25500000000E-02 0. -1.
         25    2    1    2    0    0  0.33697861414E+01  0.11564145489E+03 -0.12085999291E+02  0.17075006932E+03  0.12500085298E+03 0.  0.
         23    2    1    2    0    0 -0.33697861414E+01 -0.11564145489E+03  0.36550177297E+02  0.15193880151E+03  0.91461371068E+02 0.  0.
        -13    1    4    4    0    0  0.28608618670E+02 -0.16672950312E+01  0.25142173434E+01  0.28767436240E+02  0.10566000000E+00 0.  1.
         13    1    4    4    0    0 -0.31978404812E+02 -0.11397415985E+03  0.34035959953E+02  0.12317136527E+03  0.10566000000E+00 0. -1.
    9000005    1    3    3    0    0 -0.16229350337E+02  0.13008367835E+03  0.17680180302E+02  0.13228281809E+03  0.10000000000E+01 0.  0.
    9000005    1    3    3    0    0  0.19599136478E+02 -0.14442223466E+02 -0.29766179593E+02  0.38467251226E+02  0.10000000000E+01 0.  0.
<mgrwt>
<rscale>  0 0.16429857E+03</rscale>
<asrwt>0</asrwt>
<pdfrwt beam="2">  1        2 0.22940361E-01 0.17032180E+03</pdfrwt>
<pdfrwt beam="1">  1       -2 0.26704081E-01 0.17032180E+03</pdfrwt>
<totfact> 0.29236340E+03</totfact>
</mgrwt>
</event>
<event>
 8    3  0.1559595E-003  0.1355759E+03  0.7818608E-02  0.1225354E+00
          2   -1    0    0  501    0  0.00000000000E+00  0.00000000000E+00  0.44565960565E+03  0.44565960565E+03  0.25500000000E-02 0. -1.
         -2   -1    0    0    0  501 -0.00000000000E+00 -0.00000000000E+00 -0.47504019462E+02  0.47504019530E+02  0.25500000000E-02 0.  1.
         25    2    1    2    0    0  0.22571849925E+02  0.47399626059E+02  0.90429146669E+02  0.16296700416E+03  0.12499840366E+03 0.  0.
         23    2    1    2    0    0 -0.22571849925E+02 -0.47399626059E+02  0.30772643952E+03  0.33019662103E+03  0.10760127324E+03 0.  0.
        -13    1    4    4    0    0 -0.33878328802E+02 -0.27040157628E+01  0.26553556562E+03  0.26770170084E+03  0.10566000000E+00 0. -1.
         13    1    4    4    0    0  0.11306478877E+02 -0.44695610297E+02  0.42190873899E+02  0.62494920184E+02  0.10566000000E+00 0.  1.
    9000005    1    3    3    0    0 -0.96997367567E+01  0.57856466342E+02 -0.76620728895E+01  0.59170625750E+02  0.10000000000E+01 0.  0.
    9000005    1    3    3    0    0  0.32271586681E+02 -0.10456840282E+02  0.98091219559E+02  0.10379637841E+03  0.10000000000E+01 0.  0.
<mgrwt>
<rscale>  0 0.13142671E+03</rscale>
<asrwt>0</asrwt>
<pdfrwt beam="1">  1        2 0.68563020E-01 0.13557586E+03</pdfrwt>
<pdfrwt beam="2">  1       -2 0.73083103E-02 0.13557586E+03</pdfrwt>
<totfact> 0.73765398E+03</totfact>
</mgrwt>
</event>
<event>
 8    3  0.1559595E-003  0.1545896E+03  0.7818608E-02  0.1203343E+00
         -2   -1    0    0    0  501 -0.00000000000E+00  0.00000000000E+00  0.24908938738E+03  0.24908938739E+03  0.25500000000E-02 0. -1.
          2   -1    0    0  501    0  0.00000000000E+00 -0.00000000000E+00 -0.86940859191E+02  0.86940859228E+02  0.25500000000E-02 0.  1.
         25    2    1    2    0    0  0.76796348050E+02 -0.48741159010E+02  0.42686519131E+02  0.16037486916E+03  0.12499832034E+03 0.  0.
         23    2    1    2    0    0 -0.76796348050E+02  0.48741159010E+02  0.11946200906E+03  0.17565537746E+03  0.91160629473E+02 0.  0.
        -13    1    4    4    0    0 -0.40224970815E+01  0.54518041449E+02  0.62679848223E+02  0.83169536872E+02  0.10566000000E+00 0. -1.
         13    1    4    4    0    0 -0.72773850968E+02 -0.57768824391E+01  0.56782160834E+02  0.92485840584E+02  0.10566000000E+00 0.  1.
    9000005    1    3    3    0    0 -0.82290336143E+01 -0.56790226688E+02 -0.12431541679E+02  0.58722994389E+02  0.10000000000E+01 0.  0.
    9000005    1    3    3    0    0  0.85025381664E+02  0.80490676779E+01  0.55118060810E+02  0.10165187477E+03  0.10000000000E+01 0.  0.
<mgrwt>
<rscale>  0 0.14768803E+03</rscale>
<asrwt>0</asrwt>
<pdfrwt beam="2">  1        2 0.13375517E-01 0.15458965E+03</pdfrwt>
<pdfrwt beam="1">  1       -2 0.38321444E-01 0.15458965E+03</pdfrwt>
<totfact> 0.28062936E+03</totfact>
</mgrwt>
</event>
<event>
 8    3  0.1559595E-003  0.1885688E+03  0.7818608E-02  0.1164310E+00
          2   -1    0    0  501    0  0.00000000000E+00  0.00000000000E+00  0.35477948010E+03  0.35477948011E+03  0.25500000000E-02 0. -1.
         -2   -1    0    0    0  501 -0.00000000000E+00 -0.00000000000E+00 -0.94905241914E+02  0.94905241948E+02  0.25500000000E-02 0.  1.
         25    2    1    2    0    0 -0.10098557674E+03 -0.98662720795E+02  0.18519415903E+03  0.26430107801E+03  0.12500305641E+03 0.  0.
         23    2    1    2    0    0  0.10098557674E+03  0.98662720795E+02  0.74680079154E+02  0.18538364405E+03  0.94114621996E+02 0.  0.
        -13    1    4    4    0    0  0.29445633527E+02  0.78589130124E+02  0.72732029424E+02  0.11105519338E+03  0.10566000000E+00 0. -1.
         13    1    4    4    0    0  0.71539943215E+02  0.20073590671E+02  0.19480497305E+01  0.74328450673E+02  0.10566000000E+00 0.  1.
    9000005    1    3    3    0    0 -0.10768815462E+03 -0.10031444783E+03  0.97977343718E+02  0.17680578885E+03  0.10000000000E+01 0.  0.
    9000005    1    3    3    0    0  0.67025778745E+01  0.16517270302E+01  0.87216815314E+02  0.87495289164E+02  0.10000000000E+01 0.  0.
<mgrwt>
<rscale>  0 0.18365701E+03</rscale>
<asrwt>0</asrwt>
<pdfrwt beam="1">  1        2 0.54581459E-01 0.18856878E+03</pdfrwt>
<pdfrwt beam="2">  1       -2 0.14600806E-01 0.18856878E+03</pdfrwt>
<totfact> 0.32034312E+03</totfact>
</mgrwt>
</event>
<event>
 8    3  0.1559595E-003  0.1348118E+03  0.7818608E-02  0.1232721E+00
          2   -1    0    0  501    0  0.00000000000E+00  0.00000000000E+00  0.26330304043E+03  0.26330304044E+03  0.25500000000E-02 0. -1.
         -2   -1    0    0    0  501 -0.00000000000E+00 -0.00000000000E+00 -0.55748165812E+02  0.55748165870E+02  0.25500000000E-02 0.  1.
         25    2    1    2    0    0 -0.38457952112E+02  0.32712234330E+02  0.92014556048E+02  0.16322044198E+03  0.12500051920E+03 0.  0.
         23    2    1    2    0    0  0.38457952112E+02 -0.32712234330E+02  0.11554031857E+03  0.15583076433E+03  0.91567229623E+02 0.  0.
        -13    1    4    4    0    0 -0.29211684862E+01  0.24370313861E+01 -0.14457951226E+02  0.14950446983E+02  0.10566000000E+00 0.  1.
         13    1    4    4    0    0  0.41379120598E+02 -0.35149265716E+02  0.12999826979E+03  0.14088031735E+03  0.10566000000E+00 0. -1.
    9000005    1    3    3    0    0 -0.98874793024E+01  0.43086806590E+02  0.11622240602E+03  0.12434984041E+03  0.10000000000E+01 0.  0.
    9000005    1    3    3    0    0 -0.28570472810E+02 -0.10374572260E+02 -0.24207849972E+02  0.38870601570E+02  0.10000000000E+01 0.  0.
<mgrwt>
<rscale>  0 0.12651492E+03</rscale>
<asrwt>0</asrwt>
<pdfrwt beam="1">  1        2 0.40508160E-01 0.13481185E+03</pdfrwt>
<pdfrwt beam="2">  1       -2 0.85766410E-02 0.13481185E+03</pdfrwt>
<totfact> 0.10084676E+04</totfact>
</mgrwt>
</event>
<event>
 8    3  0.1559595E-003  0.1294075E+03  0.7818608E-02  0.1241788E+00
          2   -1    0    0  501    0  0.00000000000E+00  0.00000000000E+00  0.37314178789E+04  0.37314178789E+04  0.25500000000E-02 0. -1.
         -2   -1    0    0    0  501 -0.00000000000E+00 -0.00000000000E+00 -0.51599865896E+01  0.51599872196E+01  0.25500000000E-02 0.  1.
         25    2    1    2    0    0  0.19544910903E+02 -0.27172554823E+02  0.97305073025E+03  0.98161806294E+03  0.12500378622E+03 0.  0.
         23    2    1    2    0    0 -0.19544910903E+02  0.27172554823E+02  0.27532071620E+04  0.27549598031E+04  0.92376883756E+02 0.  0.
        -13    1    4    4    0    0 -0.16874907609E+02 -0.29301371270E+02  0.55723572079E+03  0.55826068513E+03  0.10566000000E+00 0.  1.
         13    1    4    4    0    0 -0.26700032937E+01  0.56473926093E+02  0.21959714412E+04  0.21966991180E+04  0.10566000000E+00 0. -1.
    9000005    1    3    3    0    0 -0.51342287675E+02 -0.90761084362E+01  0.53082288655E+03  0.53337823646E+03  0.10000000000E+01 0.  0.
    9000005    1    3    3    0    0  0.70887198578E+02 -0.18096446387E+02  0.44222784370E+03  0.44823982647E+03  0.10000000000E+01 0.  0.
<mgrwt>
<rscale>  0 0.12079726E+03</rscale>
<asrwt>0</asrwt>
<pdfrwt beam="1">  1        2 0.57406753E+00 0.12940749E+03</pdfrwt>
<pdfrwt beam="2">  1       -2 0.79383966E-03 0.12940749E+03</pdfrwt>
<totfact> 0.21658072E+03</totfact>
</mgrwt>
</event>
<event>
 8    3  0.1559595E-003  0.1496639E+03  0.7818608E-02  0.1211266E+00
          2   -1    0    0  501    0  0.00000000000E+00  0.00000000000E+00  0.19672636521E+04  0.19672636521E+04  0.25500000000E-02 0. -1.
         -2   -1    0    0    0  501 -0.00000000000E+00 -0.00000000000E+00 -0.92624615416E+01  0.92624618926E+01  0.25500000000E-02 0.  1.
         25    2    1    2    0    0 -0.51655363408E+02  0.64076058451E+02  0.10230906736E+04  0.10339795991E+04  0.12500106840E+03 0.  0.
         23    2    1    2    0    0  0.51655363408E+02 -0.64076058451E+02  0.93491051694E+03  0.94254651489E+03  0.86961141863E+02 0.  0.
        -13    1    4    4    0    0  0.59732793807E+02 -0.15263537375E+02  0.33704752523E+03  0.34263979287E+03  0.10566000000E+00 0.  1.
         13    1    4    4    0    0 -0.80774303987E+01 -0.48812521076E+02  0.59786299171E+03  0.59990672202E+03  0.10566000000E+00 0. -1.
    9000005    1    3    3    0    0 -0.56838230089E+02 -0.16740055888E+02  0.62051249233E+03  0.62333583806E+03  0.10000000000E+01 0.  0.
    9000005    1    3    3    0    0  0.51828666809E+01  0.80816114339E+02  0.40257818131E+03  0.41064376108E+03  0.10000000000E+01 0.  0.
<mgrwt>
<rscale>  0 0.14154427E+03</rscale>
<asrwt>0</asrwt>
<pdfrwt beam="1">  1        2 0.30265629E+00 0.14966391E+03</pdfrwt>
<pdfrwt beam="2">  1       -2 0.14249925E-02 0.14966391E+03</pdfrwt>
<totfact> 0.96914913E+03</totfact>
</mgrwt>
</event>
<event>
 8    3  0.1559595E-003  0.1433273E+03  0.7818608E-02  0.1219019E+00
          2   -1    0    0  501    0  0.00000000000E+00  0.00000000000E+00  0.37685949568E+04  0.37685949568E+04  0.25500000000E-02 0. -1.
         -2   -1    0    0    0  501 -0.00000000000E+00 -0.00000000000E+00 -0.63072030093E+01  0.63072035248E+01  0.25500000000E-02 0.  1.
         25    2    1    2    0    0  0.63416819599E+02 -0.29931904938E+02  0.10028712684E+04  0.10130614523E+04  0.12500045303E+03 0.  0.
         23    2    1    2    0    0 -0.63416819599E+02  0.29931904938E+02  0.27594164854E+04  0.27618407080E+04  0.92017088637E+02 0.  0.
        -13    1    4    4    0    0 -0.56857380740E+02  0.46471783869E+02  0.11583163182E+04  0.11606416727E+04  0.10566000000E+00 0.  1.
         13    1    4    4    0    0 -0.65594388582E+01 -0.16539878931E+02  0.16011001672E+04  0.16011990352E+04  0.10566000000E+00 0. -1.
    9000005    1    3    3    0    0  0.59596271910E+02  0.96986622192E+01  0.19335073982E+03  0.20256181344E+03  0.10000000000E+01 0.  0.
    9000005    1    3    3    0    0  0.38205476884E+01 -0.39630567157E+02  0.80952052858E+03  0.81049963888E+03  0.10000000000E+01 0.  0.
<mgrwt>
<rscale>  0 0.13585420E+03</rscale>
<asrwt>0</asrwt>
<pdfrwt beam="1">  1        2 0.57978286E+00 0.14332734E+03</pdfrwt>
<pdfrwt beam="2">  1       -2 0.97034061E-03 0.14332734E+03</pdfrwt>
<totfact> 0.15260240E+03</totfact>
</mgrwt>
</event>
<event>
 8    3  0.1559595E-003  0.1323636E+03  0.7818608E-02  0.1239309E+00
         -2   -1    0    0    0  501 -0.00000000000E+00  0.00000000000E+00  0.69538886882E+02  0.69538886928E+02  0.25500000000E-02 0.  1.
          2   -1    0    0  501    0  0.00000000000E+00 -0.00000000000E+00 -0.18841177343E+03  0.18841177344E+03  0.25500000000E-02 0. -1.
         25    2    1    2    0    0  0.30918843839E+02  0.30680064583E+02 -0.69949168402E+02  0.14970971806E+03  0.12499148873E+03 0.  0.
         23    2    1    2    0    0 -0.30918843839E+02 -0.30680064583E+02 -0.48923718142E+02  0.10824094231E+03  0.86170355279E+02 0.  0.
        -13    1    4    4    0    0 -0.30315317701E+02 -0.33979673284E+02  0.12105991651E+02  0.47119028871E+02  0.10566000000E+00 0.  1.
         13    1    4    4    0    0 -0.60352613813E+00  0.32996087013E+01 -0.61029709793E+02  0.61121913443E+02  0.10566000000E+00 0. -1.
    9000005    1    3    3    0    0  0.61451388763E+02 -0.96284326993E+01  0.14332337899E+01  0.62225670396E+02  0.10000000000E+01 0.  0.
    9000005    1    3    3    0    0 -0.30532544924E+02  0.40308497282E+02 -0.71382402192E+02  0.87484047662E+02  0.10000000000E+01 0.  0.
<mgrwt>
<rscale>  0 0.12232587E+03</rscale>
<asrwt>0</asrwt>
<pdfrwt beam="2">  1        2 0.28986426E-01 0.13236357E+03</pdfrwt>
<pdfrwt beam="1">  1       -2 0.10698290E-01 0.13236357E+03</pdfrwt>
<totfact> 0.10202367E+04</totfact>
</mgrwt>
</event>
<event>
 8    3  0.1559595E-003  0.1275922E+03  0.7818608E-02  0.1246213E+00
          2   -1    0    0  501    0  0.00000000000E+00  0.00000000000E+00  0.77723666648E+03  0.77723666648E+03  0.25500000000E-02 0. -1.
         -2   -1    0    0    0  501 -0.00000000000E+00 -0.00000000000E+00 -0.15864088177E+02  0.15864088382E+02  0.25500000000E-02 0.  1.
         25    2    1    2    0    0 -0.14626387594E+02  0.20997429723E+02  0.47045559006E+03  0.48745074671E+03  0.12499977993E+03 0.  0.
         23    2    1    2    0    0  0.14626387594E+02 -0.20997429723E+02  0.29091698824E+03  0.30565000815E+03  0.90190964995E+02 0.  0.
        -13    1    4    4    0    0  0.26786221920E+02 -0.96762229462E+01  0.28722068155E+03  0.28862928135E+03  0.10566000000E+00 0. -1.
         13    1    4    4    0    0 -0.12159834326E+02 -0.11321206777E+02  0.36963066857E+01  0.17020726802E+02  0.10566000000E+00 0.  1.
    9000005    1    3    3    0    0 -0.51627056523E+02 -0.15051607095E+02  0.10126808751E+03  0.11466529287E+03  0.10000000000E+01 0.  0.
    9000005    1    3    3    0    0  0.37000668929E+02  0.36049036818E+02  0.36918750255E+03  0.37278545384E+03  0.10000000000E+01 0.  0.
<mgrwt>
<rscale>  0 0.11813048E+03</rscale>
<asrwt>0</asrwt>
<pdfrwt beam="1">  1        2 0.11957484E+00 0.12759220E+03</pdfrwt>
<pdfrwt beam="2">  1       -2 0.24406295E-02 0.12759220E+03</pdfrwt>
<totfact> 0.19999181E+04</totfact>
</mgrwt>
</event>
<event>
 8    3  0.1559595E-003  0.1311799E+03  0.7818608E-02  0.1238532E+00
          2   -1    0    0  501    0  0.00000000000E+00  0.00000000000E+00  0.96894572724E+02  0.96894572757E+02  0.25500000000E-02 0. -1.
         -2   -1    0    0    0  501 -0.00000000000E+00 -0.00000000000E+00 -0.14217925265E+03  0.14217925268E+03  0.25500000000E-02 0.  1.
         25    2    1    2    0    0  0.34158464640E+02 -0.20392523257E+02 -0.73021586231E+01  0.13138300024E+03  0.12500206206E+03 0.  0.
         23    2    1    2    0    0 -0.34158464640E+02  0.20392523257E+02 -0.37982521307E+02  0.10769082520E+03  0.92585021444E+02 0.  0.
        -13    1    4    4    0    0 -0.36621640104E+01  0.28757229284E+02 -0.61694038134E+02  0.68165645208E+02  0.10566000000E+00 0.  1.
         13    1    4    4    0    0 -0.30496300629E+02 -0.83647060276E+01  0.23711516827E+02  0.39525179990E+02  0.10566000000E+00 0. -1.
    9000005    1    3    3    0    0  0.39274421019E+02 -0.21507245400E+02 -0.61967026737E+02  0.76458839605E+02  0.10000000000E+01 0.  0.
    9000005    1    3    3    0    0 -0.51159563795E+01  0.11147221431E+01  0.54664868114E+02  0.54924160631E+02  0.10000000000E+01 0.  0.
<mgrwt>
<rscale>  0 0.12280996E+03</rscale>
<asrwt>0</asrwt>
<pdfrwt beam="1">  1        2 0.14906857E-01 0.13117992E+03</pdfrwt>
<pdfrwt beam="2">  1       -2 0.21873731E-01 0.13117992E+03</pdfrwt>
<totfact> 0.66740434E+03</totfact>
</mgrwt>
</event>
<event>
 8    3  0.1559595E-003  0.1766669E+03  0.7818608E-02  0.1176758E+00
         -2   -1    0    0    0  501 -0.00000000000E+00  0.00000000000E+00  0.58207208316E+02  0.58207208372E+02  0.25500000000E-02 0.  1.
          2   -1    0    0  501    0  0.00000000000E+00 -0.00000000000E+00 -0.54364603364E+03  0.54364603365E+03  0.25500000000E-02 0. -1.
         25    2    1    2    0    0  0.10016739537E+01 -0.12488826943E+03 -0.36451391496E+03  0.40506984484E+03  0.12495239818E+03 0.  0.
         23    2    1    2    0    0 -0.10016739537E+01  0.12488826943E+03 -0.12092491037E+03  0.19678339718E+03  0.92210564835E+02 0.  0.
        -13    1    4    4    0    0  0.24049716871E+02  0.12513647989E+03 -0.85725174116E+02  0.15357846243E+03  0.10566000000E+00 0.  1.
         13    1    4    4    0    0 -0.25051390824E+02 -0.24821046162E+00 -0.35199736256E+02  0.43204934756E+02  0.10566000000E+00 0. -1.
    9000005    1    3    3    0    0  0.14699018463E+02  0.10050491570E+01 -0.18384235926E+03  0.18443449874E+03  0.10000000000E+01 0.  0.
    9000005    1    3    3    0    0 -0.13697344509E+02 -0.12589331858E+03 -0.18067155570E+03  0.22063534610E+03  0.10000000000E+01 0.  0.
<mgrwt>
<rscale>  0 0.17104896E+03</rscale>
<asrwt>0</asrwt>
<pdfrwt beam="2">  1        2 0.83637848E-01 0.17666688E+03</pdfrwt>
<pdfrwt beam="1">  1       -2 0.89549555E-02 0.17666688E+03</pdfrwt>
<totfact> 0.43845384E+03</totfact>
</mgrwt>
</event>
<event>
 8    3  0.1559595E-003  0.1711205E+03  0.7818608E-02  0.1187424E+00
          2   -1    0    0  501    0  0.00000000000E+00  0.00000000000E+00  0.19923842427E+04  0.19923842427E+04  0.25500000000E-02 0. -1.
         -2   -1    0    0    0  501 -0.00000000000E+00 -0.00000000000E+00 -0.11853814663E+02  0.11853814937E+02  0.25500000000E-02 0.  1.
         25    2    1    2    0    0  0.79503229595E+02  0.85662653557E+02  0.12122073080E+04  0.12242257854E+04  0.12499344875E+03 0.  0.
         23    2    1    2    0    0 -0.79503229595E+02 -0.85662653557E+02  0.76832311999E+03  0.78001227224E+03  0.66632382500E+02 0.  0.
        -13    1    4    4    0    0 -0.38882368475E+02 -0.82331743652E+02  0.45246578312E+03  0.46153618563E+03  0.10566000000E+00 0.  1.
         13    1    4    4    0    0 -0.40620861120E+02 -0.33309099046E+01  0.31585733687E+03  0.31847608660E+03  0.10566000000E+00 0. -1.
    9000005    1    3    3    0    0  0.95764146858E+02  0.10724766061E+03  0.10450832857E+04  0.10549279154E+04  0.10000000000E+01 0.  0.
    9000005    1    3    3    0    0 -0.16260917263E+02 -0.21585007053E+02  0.16712402230E+03  0.16929787001E+03  0.10000000000E+01 0.  0.
<mgrwt>
<rscale>  0 0.16113225E+03</rscale>
<asrwt>0</asrwt>
<pdfrwt beam="1">  1        2 0.30652068E+00 0.17112047E+03</pdfrwt>
<pdfrwt beam="2">  1       -2 0.18236637E-02 0.17112047E+03</pdfrwt>
<totfact> 0.65981043E+03</totfact>
</mgrwt>
</event>
<event>
 8    3  0.1559595E-003  0.1420946E+03  0.7818608E-02  0.1220508E+00
          2   -1    0    0  501    0  0.00000000000E+00  0.00000000000E+00  0.26746129995E+03  0.26746129996E+03  0.25500000000E-02 0. -1.
         -2   -1    0    0    0  501 -0.00000000000E+00 -0.00000000000E+00 -0.62437712583E+02  0.62437712635E+02  0.25500000000E-02 0.  1.
         25    2    1    2    0    0 -0.32423065227E+02  0.59297123944E+02  0.12952895370E+03  0.19227223877E+03  0.12499383940E+03 0.  0.
         23    2    1    2    0    0  0.32423065227E+02 -0.59297123944E+02  0.75494633671E+02  0.13762677383E+03  0.93135842159E+02 0.  0.
        -13    1    4    4    0    0  0.19201634275E+02 -0.45361839157E+02 -0.97758615332E+01  0.50219297518E+02  0.10566000000E+00 0.  1.
         13    1    4    4    0    0  0.13221430953E+02 -0.13935284787E+02  0.85270495204E+02  0.87407476310E+02  0.10566000000E+00 0. -1.
    9000005    1    3    3    0    0 -0.75546454146E+02  0.22830336723E+02  0.10328361018E+03  0.12998844233E+03  0.10000000000E+01 0.  0.
    9000005    1    3    3    0    0  0.43123388919E+02  0.36466787221E+02  0.26245343520E+02  0.62283796437E+02  0.10000000000E+01 0.  0.
<mgrwt>
<rscale>  0 0.13479569E+03</rscale>
<asrwt>0</asrwt>
<pdfrwt beam="1">  1        2 0.41147892E-01 0.14209456E+03</pdfrwt>
<pdfrwt beam="2">  1       -2 0.96058019E-02 0.14209456E+03</pdfrwt>
<totfact> 0.83427830E+03</totfact>
</mgrwt>
</event>
<event>
 8    3  0.1559595E-003  0.2252263E+03  0.7818608E-02  0.1133234E+00
          2   -1    0    0  501    0  0.00000000000E+00  0.00000000000E+00  0.19990123532E+03  0.19990123534E+03  0.25500000000E-02 0. -1.
         -2   -1    0    0    0  501 -0.00000000000E+00 -0.00000000000E+00 -0.28692559740E+03  0.28692559741E+03  0.25500000000E-02 0.  1.
         25    2    1    2    0    0  0.16939190469E+03 -0.80068502983E+02  0.58525994030E+02  0.23270619823E+03  0.12498920023E+03 0.  0.
         23    2    1    2    0    0 -0.16939190469E+03  0.80068502983E+02 -0.14555035611E+03  0.25412063452E+03  0.91037399890E+02 0.  0.
        -13    1    4    4    0    0 -0.11074450846E+03  0.97037096144E+02 -0.10414101403E+03  0.18034940020E+03  0.10566000000E+00 0. -1.
         13    1    4    4    0    0 -0.58647396226E+02 -0.16968593161E+02 -0.41409342075E+02  0.73771234320E+02  0.10566000000E+00 0.  1.
    9000005    1    3    3    0    0 -0.51220229721E+01  0.18676407680E+02 -0.86544890968E+01  0.21235430409E+02  0.10000000000E+01 0.  0.
    9000005    1    3    3    0    0  0.17451392766E+03 -0.98744910663E+02  0.67180483126E+02  0.21147076782E+03  0.10000000000E+01 0.  0.
<mgrwt>
<rscale>  0 0.22087218E+03</rscale>
<asrwt>0</asrwt>
<pdfrwt beam="1">  1        2 0.30754036E-01 0.22522629E+03</pdfrwt>
<pdfrwt beam="2">  1       -2 0.44142400E-01 0.22522629E+03</pdfrwt>
<totfact> 0.83839738E+02</totfact>
</mgrwt>
</event>
<event>
 8    3  0.1559595E-003  0.1309169E+03  0.7818608E-02  0.1239920E+00
         -2   -1    0    0    0  501 -0.00000000000E+00  0.00000000000E+00  0.21603371672E+02  0.21603371822E+02  0.25500000000E-02 0. -1.
          2   -1    0    0  501    0  0.00000000000E+00 -0.00000000000E+00 -0.90947901458E+03  0.90947901458E+03  0.25500000000E-02 0.  1.
         25    2    1    2    0    0 -0.41252439575E+01 -0.38709209220E+02 -0.75151832740E+03  0.76283617928E+03  0.12499527788E+03 0.  0.
         23    2    1    2    0    0  0.41252439575E+01  0.38709209220E+02 -0.13635731551E+03  0.16824620712E+03  0.90543073736E+02 0.  0.
        -13    1    4    4    0    0  0.34422491611E+01  0.46728614027E+02 -0.18916322215E+02  0.50529702734E+02  0.10566000000E+00 0. -1.
         13    1    4    4    0    0  0.68299479648E+00 -0.80194048077E+01 -0.11744099329E+03  0.11771650438E+03  0.10566000000E+00 0.  1.
    9000005    1    3    3    0    0  0.29615040472E+02 -0.69663919592E+02 -0.59368133572E+03  0.59848863039E+03  0.10000000000E+01 0.  0.
    9000005    1    3    3    0    0 -0.33740284429E+02  0.30954710372E+02 -0.15783699167E+03  0.16434754890E+03  0.10000000000E+01 0.  0.
<mgrwt>
<rscale>  0 0.12194630E+03</rscale>
<asrwt>0</asrwt>
<pdfrwt beam="2">  1        2 0.13991982E+00 0.13091692E+03</pdfrwt>
<pdfrwt beam="1">  1       -2 0.33235963E-02 0.13091692E+03</pdfrwt>
<totfact> 0.10443162E+04</totfact>
</mgrwt>
</event>
<event>
 8    3  0.1559595E-003  0.1251720E+03  0.7818608E-02  0.1251051E+00
          2   -1    0    0  501    0  0.00000000000E+00  0.00000000000E+00  0.90826454061E+02  0.90826454097E+02  0.25500000000E-02 0. -1.
         -2   -1    0    0    0  501 -0.00000000000E+00 -0.00000000000E+00 -0.12871028945E+03  0.12871028947E+03  0.25500000000E-02 0.  1.
         25    2    1    2    0    0  0.23333335906E+01 -0.61371819710E+01 -0.11891842632E+02  0.12573563107E+03  0.12499969420E+03 0.  0.
         23    2    1    2    0    0 -0.23333335906E+01  0.61371819710E+01 -0.25991992754E+02  0.93801112502E+02  0.89888573084E+02 0.  0.
        -13    1    4    4    0    0 -0.25601272540E+02  0.17305506279E+02 -0.49851735813E+02  0.58652471651E+02  0.10566000000E+00 0.  1.
         13    1    4    4    0    0  0.23267938949E+02 -0.11168324308E+02  0.23859743059E+02  0.35148640851E+02  0.10566000000E+00 0. -1.
    9000005    1    3    3    0    0 -0.16789100003E+02 -0.22572069748E+02 -0.62853275958E+02  0.68868762950E+02  0.10000000000E+01 0.  0.
    9000005    1    3    3    0    0  0.19122433594E+02  0.16434887777E+02  0.50961433326E+02  0.56866868117E+02  0.10000000000E+01 0.  0.
<mgrwt>
<rscale>  0 0.11530428E+03</rscale>
<asrwt>0</asrwt>
<pdfrwt beam="1">  1        2 0.13973301E-01 0.12517201E+03</pdfrwt>
<pdfrwt beam="2">  1       -2 0.19801583E-01 0.12517201E+03</pdfrwt>
<totfact> 0.84956401E+03</totfact>
</mgrwt>
</event>
<event>
 8    3  0.1559595E-003  0.1449731E+03  0.7818608E-02  0.1216147E+00
          2   -1    0    0  501    0  0.00000000000E+00  0.00000000000E+00  0.26252832484E+02  0.26252832608E+02  0.25500000000E-02 0. -1.
         -2   -1    0    0    0  501 -0.00000000000E+00 -0.00000000000E+00 -0.66948652673E+03  0.66948652673E+03  0.25500000000E-02 0.  1.
         25    2    1    2    0    0 -0.30591092045E+02  0.66756625232E+02 -0.31768946435E+03  0.34920453878E+03  0.12499980889E+03 0.  0.
         23    2    1    2    0    0  0.30591092045E+02 -0.66756625232E+02 -0.32554422989E+03  0.34653482056E+03  0.93354562380E+02 0.  0.
        -13    1    4    4    0    0 -0.16467702167E+02  0.19830069624E+01 -0.83236510718E+01  0.18558336738E+02  0.10566000000E+00 0. -1.
         13    1    4    4    0    0  0.47058794212E+02 -0.68739632194E+02 -0.31722057882E+03  0.32797648382E+03  0.10566000000E+00 0.  1.
    9000005    1    3    3    0    0  0.51667131989E+01  0.49250636727E+02 -0.28215470928E+02  0.57003797619E+02  0.10000000000E+01 0.  0.
    9000005    1    3    3    0    0 -0.35757805244E+02  0.17505988505E+02 -0.28947399342E+03  0.29220074117E+03  0.10000000000E+01 0.  0.
<mgrwt>
<rscale>  0 0.13792605E+03</rscale>
<asrwt>0</asrwt>
<pdfrwt beam="1">  1        2 0.40388978E-02 0.14497315E+03</pdfrwt>
<pdfrwt beam="2">  1       -2 0.10299791E+00 0.14497315E+03</pdfrwt>
<totfact> 0.16183637E+03</totfact>
</mgrwt>
</event>
<event>
 8    3  0.1559595E-003  0.1487608E+03  0.7818608E-02  0.1211810E+00
         -2   -1    0    0    0  501 -0.00000000000E+00  0.00000000000E+00  0.15360437846E+03  0.15360437848E+03  0.25500000000E-02 0.  1.
          2   -1    0    0  501    0  0.00000000000E+00 -0.00000000000E+00 -0.16178813102E+03  0.16178813104E+03  0.25500000000E-02 0. -1.
         25    2    1    2    0    0  0.78171978018E+02 -0.19862221889E+02 -0.86095798987E+02  0.17187861105E+03  0.12499761729E+03 0.  0.
         23    2    1    2    0    0 -0.78171978018E+02  0.19862221889E+02  0.77912046424E+02  0.14351389847E+03  0.89557724792E+02 0.  0.
        -13    1    4    4    0    0 -0.78802845064E+02  0.47936087325E+02  0.56116592011E+02  0.10796684640E+03  0.10566000000E+00 0. -1.
         13    1    4    4    0    0  0.63086704593E+00 -0.28073865436E+02  0.21795454414E+02  0.35547052070E+02  0.10566000000E+00 0.  1.
    9000005    1    3    3    0    0  0.19957850455E+02  0.42707732800E+02  0.44558591384E+01  0.47361597485E+02  0.10000000000E+01 0.  0.
    9000005    1    3    3    0    0  0.58214127562E+02 -0.62569954689E+02 -0.90551658126E+02  0.12451701356E+03  0.10000000000E+01 0.  0.
<mgrwt>
<rscale>  0 0.14113490E+03</rscale>
<asrwt>0</asrwt>
<pdfrwt beam="2">  1        2 0.24890482E-01 0.14876078E+03</pdfrwt>
<pdfrwt beam="1">  1       -2 0.23631443E-01 0.14876078E+03</pdfrwt>
<totfact> 0.32861827E+03</totfact>
</mgrwt>
</event>
<event>
 8    3  0.1559595E-003  0.1371079E+03  0.7818608E-02  0.1228870E+00
         -2   -1    0    0    0  501 -0.00000000000E+00  0.00000000000E+00  0.57149804592E+01  0.57149810281E+01  0.25500000000E-02 0.  1.
          2   -1    0    0  501    0  0.00000000000E+00 -0.00000000000E+00 -0.26198030124E+04  0.26198030124E+04  0.25500000000E-02 0. -1.
         25    2    1    2    0    0  0.56178307158E+02  0.42392706126E+01 -0.14614354547E+04  0.14678529069E+04  0.12499837778E+03 0.  0.
         23    2    1    2    0    0 -0.56178307158E+02 -0.42392706126E+01 -0.11526525773E+04  0.11576650866E+04  0.91687049934E+02 0.  0.
        -13    1    4    4    0    0  0.59067669088E+01 -0.28600440571E-01 -0.35780541656E+01  0.69068334965E+01  0.10566000000E+00 0.  1.
         13    1    4    4    0    0 -0.62085074067E+02 -0.42106701721E+01 -0.11490745232E+04  0.11507582531E+04  0.10566000000E+00 0. -1.
    9000005    1    3    3    0    0  0.18913145669E+02 -0.34249356172E+00 -0.13523478091E+04  0.13524804698E+04  0.10000000000E+01 0.  0.
    9000005    1    3    3    0    0  0.37265161489E+02  0.45817641744E+01 -0.10908764559E+03  0.11537243710E+03  0.10000000000E+01 0.  0.
<mgrwt>
<rscale>  0 0.12905138E+03</rscale>
<asrwt>0</asrwt>
<pdfrwt beam="2">  1        2 0.40304566E+00 0.13710787E+03</pdfrwt>
<pdfrwt beam="1">  1       -2 0.87922990E-03 0.13710787E+03</pdfrwt>
<totfact> 0.87933299E+03</totfact>
</mgrwt>
</event>
<event>
 8    3  0.1559595E-003  0.1387657E+03  0.7818608E-02  0.1226245E+00
          2   -1    0    0  501    0  0.00000000000E+00  0.00000000000E+00  0.13277590018E+03  0.13277590020E+03  0.25500000000E-02 0. -1.
         -2   -1    0    0    0  501 -0.00000000000E+00 -0.00000000000E+00 -0.12401001015E+03  0.12401001018E+03  0.25500000000E-02 0.  1.
         25    2    1    2    0    0 -0.58439849785E+02  0.14690346831E+02  0.36973706965E+02  0.14360697752E+03  0.12499954661E+03 0.  0.
         23    2    1    2    0    0  0.58439849785E+02 -0.14690346831E+02 -0.28207816939E+02  0.11317893286E+03  0.91557455043E+02 0.  0.
        -13    1    4    4    0    0  0.23074943562E+02 -0.52775431962E+02 -0.16259214192E+02  0.59850417287E+02  0.10566000000E+00 0.  1.
         13    1    4    4    0    0  0.35364906223E+02  0.38085085131E+02 -0.11948602747E+02  0.53328515573E+02  0.10566000000E+00 0. -1.
    9000005    1    3    3    0    0 -0.64256199121E+02 -0.36692930198E+02 -0.88213095097E+01  0.74525470502E+02  0.10000000000E+01 0.  0.
    9000005    1    3    3    0    0  0.58163493365E+01  0.51383277029E+02  0.45795016475E+02  0.69081507018E+02  0.10000000000E+01 0.  0.
<mgrwt>
<rscale>  0 0.13081921E+03</rscale>
<asrwt>0</asrwt>
<pdfrwt beam="1">  1        2 0.20427062E-01 0.13876566E+03</pdfrwt>
<pdfrwt beam="2">  1       -2 0.19078463E-01 0.13876566E+03</pdfrwt>
<totfact> 0.58830088E+03</totfact>
</mgrwt>
</event>
<event>
 8    3  0.1559595E-003  0.1638035E+03  0.7818608E-02  0.1191462E+00
          2   -1    0    0  501    0  0.00000000000E+00  0.00000000000E+00  0.83041350458E+02  0.83041350497E+02  0.25500000000E-02 0. -1.
         -2   -1    0    0    0  501 -0.00000000000E+00 -0.00000000000E+00 -0.29221406457E+03  0.29221406458E+03  0.25500000000E-02 0.  1.
         25    2    1    2    0    0  0.84836044256E+02 -0.63320191448E+02 -0.15302643926E+03  0.22416214886E+03  0.12499990728E+03 0.  0.
         23    2    1    2    0    0 -0.84836044256E+02  0.63320191448E+02 -0.56146274858E+02  0.15109326622E+03  0.92033525773E+02 0.  0.
        -13    1    4    4    0    0 -0.52064716571E+02 -0.15519934666E+02 -0.15277023776E+02  0.56435819327E+02  0.10566000000E+00 0. -1.
         13    1    4    4    0    0 -0.32771327686E+02  0.78840126115E+02 -0.40869251082E+02  0.94657446892E+02  0.10566000000E+00 0.  1.
    9000005    1    3    3    0    0  0.58248625759E+02 -0.70191033880E+02 -0.26935300580E+02  0.95111482258E+02  0.10000000000E+01 0.  0.
    9000005    1    3    3    0    0  0.26587418498E+02  0.68708424323E+01 -0.12609113868E+03  0.12905066660E+03  0.10000000000E+01 0.  0.
<mgrwt>
<rscale>  0 0.15757473E+03</rscale>
<asrwt>0</asrwt>
<pdfrwt beam="1">  1        2 0.12775593E-01 0.16380347E+03</pdfrwt>
<pdfrwt beam="2">  1       -2 0.44956009E-01 0.16380347E+03</pdfrwt>
<totfact> 0.21909049E+03</totfact>
</mgrwt>
</event>
<event>
 8    3  0.1559595E-003  0.2027430E+03  0.7818608E-02  0.1151440E+00
         -2   -1    0    0    0  501 -0.00000000000E+00  0.00000000000E+00  0.54675452498E+02  0.54675452558E+02  0.25500000000E-02 0.  1.
          2   -1    0    0  501    0  0.00000000000E+00 -0.00000000000E+00 -0.68967057387E+03  0.68967057388E+03  0.25500000000E-02 0. -1.
         25    2    1    2    0    0  0.12227082755E+03 -0.10261736323E+03 -0.36180959213E+03  0.41474195332E+03  0.12499691348E+03 0.  0.
         23    2    1    2    0    0 -0.12227082755E+03  0.10261736323E+03 -0.27318552924E+03  0.32960407312E+03  0.92347350386E+02 0.  0.
        -13    1    4    4    0    0 -0.69611089214E+02  0.30762506181E+02 -0.20105994288E+03  0.21498173719E+03  0.10566000000E+00 0. -1.
         13    1    4    4    0    0 -0.52659738332E+02  0.71854857046E+02 -0.72125586362E+02  0.11462233593E+03  0.10566000000E+00 0.  1.
    9000005    1    3    3    0    0  0.14496492480E+03 -0.93439110176E+02 -0.34276084989E+03  0.38370782759E+03  0.10000000000E+01 0.  0.
    9000005    1    3    3    0    0 -0.22694097250E+02 -0.91782530504E+01 -0.19048742239E+02  0.31034125732E+02  0.10000000000E+01 0.  0.
<mgrwt>
<rscale>  0 0.19799662E+03</rscale>
<asrwt>0</asrwt>
<pdfrwt beam="2">  1        2 0.10610316E+00 0.20274296E+03</pdfrwt>
<pdfrwt beam="1">  1       -2 0.84116086E-02 0.20274296E+03</pdfrwt>
<totfact> 0.36882714E+03</totfact>
</mgrwt>
</event>
<event>
 8    3  0.1559595E-003  0.1308429E+03  0.7818608E-02  0.1240199E+00
          2   -1    0    0  501    0  0.00000000000E+00  0.00000000000E+00  0.17916710915E+04  0.17916710915E+04  0.25500000000E-02 0. -1.
         -2   -1    0    0    0  501 -0.00000000000E+00 -0.00000000000E+00 -0.73826751896E+01  0.73826756300E+01  0.25500000000E-02 0.  1.
         25    2    1    2    0    0 -0.38477829818E+02 -0.37430490383E+01  0.93497313514E+03  0.94408401425E+03  0.12500123489E+03 0.  0.
         23    2    1    2    0    0  0.38477829818E+02  0.37430490383E+01  0.84931528121E+03  0.85496975292E+03  0.90234570492E+02 0.  0.
        -13    1    4    4    0    0  0.60546629266E+02  0.49313088848E+01  0.77654290170E+03  0.77891533652E+03  0.10566000000E+00 0. -1.
         13    1    4    4    0    0 -0.22068799448E+02 -0.11882598465E+01  0.72772379505E+02  0.76054416396E+02  0.10566000000E+00 0.  1.
    9000005    1    3    3    0    0 -0.36405200654E+01 -0.42943803352E+02  0.12149393618E+03  0.12891547681E+03  0.10000000000E+01 0.  0.
    9000005    1    3    3    0    0 -0.34837309752E+02  0.39200754314E+02  0.81347919896E+03  0.81516853744E+03  0.10000000000E+01 0.  0.
<mgrwt>
<rscale>  0 0.12177395E+03</rscale>
<asrwt>0</asrwt>
<pdfrwt beam="1">  1        2 0.27564212E+00 0.13084289E+03</pdfrwt>
<pdfrwt beam="2">  1       -2 0.11357945E-02 0.13084289E+03</pdfrwt>
<totfact> 0.16427198E+04</totfact>
</mgrwt>
</event>
<event>
 8    3  0.1559595E-003  0.1367433E+03  0.7818608E-02  0.1229681E+00
         -2   -1    0    0    0  501 -0.00000000000E+00  0.00000000000E+00  0.40634857493E+02  0.40634857573E+02  0.25500000000E-02 0. -1.
          2   -1    0    0  501    0  0.00000000000E+00 -0.00000000000E+00 -0.48455176063E+03  0.48455176064E+03  0.25500000000E-02 0.  1.
         25    2    1    2    0    0 -0.53389563456E+02  0.15086849696E+02 -0.37252348280E+03  0.39682802238E+03  0.12498270116E+03 0.  0.
         23    2    1    2    0    0  0.53389563456E+02 -0.15086849696E+02 -0.71393420338E+02  0.12835859583E+03  0.91109001399E+02 0.  0.
        -13    1    4    4    0    0 -0.21674349421E+02 -0.68876416827E+01 -0.41150535866E+02  0.47016962863E+02  0.10566000000E+00 0.  1.
         13    1    4    4    0    0  0.75063912877E+02 -0.81992080132E+01 -0.30242884472E+02  0.81341632967E+02  0.10566000000E+00 0. -1.
    9000005    1    3    3    0    0 -0.19413864944E+01 -0.42305012474E+02 -0.23838028829E+03  0.24211494152E+03  0.10000000000E+01 0.  0.
    9000005    1    3    3    0    0 -0.51448176962E+02  0.57391862170E+02 -0.13414319451E+03  0.15471308086E+03  0.10000000000E+01 0.  0.
<mgrwt>
<rscale>  0 0.12851155E+03</rscale>
<asrwt>0</asrwt>
<pdfrwt beam="2">  1        2 0.74546421E-01 0.13674331E+03</pdfrwt>
<pdfrwt beam="1">  1       -2 0.62515169E-02 0.13674331E+03</pdfrwt>
<totfact> 0.85548554E+03</totfact>
</mgrwt>
</event>
<event>
 8    3  0.1559595E-003  0.1365012E+03  0.7818608E-02  0.1229318E+00
          2   -1    0    0  501    0  0.00000000000E+00  0.00000000000E+00  0.23053785622E+03  0.23053785623E+03  0.25500000000E-02 0. -1.
         -2   -1    0    0    0  501 -0.00000000000E+00 -0.00000000000E+00 -0.65097066582E+02  0.65097066632E+02  0.25500000000E-02 0.  1.
         25    2    1    2    0    0 -0.48559935658E+02  0.25459878592E+02  0.10128492270E+03  0.16997415966E+03  0.12500522637E+03 0.  0.
         23    2    1    2    0    0  0.48559935658E+02 -0.25459878592E+02  0.64155866942E+02  0.12566076320E+03  0.93104131897E+02 0.  0.
        -13    1    4    4    0    0  0.59205757899E+02 -0.14702752333E+02  0.13100134758E+01  0.61018193958E+02  0.10566000000E+00 0.  1.
         13    1    4    4    0    0 -0.10645822241E+02 -0.10757126259E+02  0.62845853466E+02  0.64642569244E+02  0.10566000000E+00 0. -1.
    9000005    1    3    3    0    0 -0.64336260006E+02  0.34724454877E+02  0.12205377592E+03  0.14227813020E+03  0.10000000000E+01 0.  0.
    9000005    1    3    3    0    0  0.15776324348E+02 -0.92645762857E+01 -0.20768853223E+02  0.27696029460E+02  0.10000000000E+01 0.  0.
<mgrwt>
<rscale>  0 0.12875315E+03</rscale>
<asrwt>0</asrwt>
<pdfrwt beam="1">  1        2 0.35467363E-01 0.13650121E+03</pdfrwt>
<pdfrwt beam="2">  1       -2 0.10014933E-01 0.13650121E+03</pdfrwt>
<totfact> 0.91296683E+03</totfact>
</mgrwt>
</event>
<event>
 8    3  0.1559595E-003  0.1342553E+03  0.7818608E-02  0.1234593E+00
         -2   -1    0    0    0  501 -0.00000000000E+00  0.00000000000E+00  0.15353463838E+02  0.15353464049E+02  0.25500000000E-02 0.  1.
          2   -1    0    0  501    0  0.00000000000E+00 -0.00000000000E+00 -0.10221927421E+04  0.10221927421E+04  0.25500000000E-02 0. -1.
         25    2    1    2    0    0  0.80259407601E+01 -0.48325385640E+02 -0.39273534506E+03  0.41504883038E+03  0.12499888687E+03 0.  0.
         23    2    1    2    0    0 -0.80259407601E+01  0.48325385640E+02 -0.61410393323E+03  0.62249737580E+03  0.89328514176E+02 0.  0.
        -13    1    4    4    0    0 -0.82920624053E+00  0.16546313428E+02 -0.55300342432E+03  0.55325154003E+03  0.10566000000E+00 0. -1.
         13    1    4    4    0    0 -0.71967345196E+01  0.31779072211E+02 -0.61100508916E+02  0.69245835775E+02  0.10566000000E+00 0.  1.
    9000005    1    3    3    0    0 -0.50493650643E+02 -0.23197589435E+02 -0.28091883754E+03  0.28636363281E+03  0.10000000000E+01 0.  0.
    9000005    1    3    3    0    0  0.58519591403E+02 -0.25127796204E+02 -0.11181650751E+03  0.12868519756E+03  0.10000000000E+01 0.  0.
<mgrwt>
<rscale>  0 0.12530539E+03</rscale>
<asrwt>0</asrwt>
<pdfrwt beam="2">  1        2 0.15726037E+00 0.13425528E+03</pdfrwt>
<pdfrwt beam="1">  1       -2 0.23620722E-02 0.13425528E+03</pdfrwt>
<totfact> 0.14737080E+04</totfact>
</mgrwt>
</event>
<event>
 8    3  0.1559595E-003  0.1563177E+03  0.7818608E-02  0.1201737E+00
         -2   -1    0    0    0  501 -0.00000000000E+00  0.00000000000E+00  0.12872023284E+02  0.12872023536E+02  0.25500000000E-02 0. -1.
          2   -1    0    0  501    0  0.00000000000E+00 -0.00000000000E+00 -0.15968207625E+04  0.15968207625E+04  0.25500000000E-02 0.  1.
         25    2    1    2    0    0  0.52564536254E+02  0.77764203090E+02 -0.94799644439E+03  0.96079782928E+03  0.12499963361E+03 0.  0.
         23    2    1    2    0    0 -0.52564536254E+02 -0.77764203090E+02 -0.63595229486E+03  0.64889495680E+03  0.88425346310E+02 0.  0.
        -13    1    4    4    0    0 -0.40979161755E+02 -0.28683921063E+02 -0.52064517715E+03  0.52304251326E+03  0.10566000000E+00 0.  1.
         13    1    4    4    0    0 -0.11585374500E+02 -0.49080282027E+02 -0.11530711771E+03  0.12585244354E+03  0.10566000000E+00 0. -1.
    9000005    1    3    3    0    0  0.10030090752E+01  0.91477927173E+02 -0.75626181917E+03  0.76177566010E+03  0.10000000000E+01 0.  0.
    9000005    1    3    3    0    0  0.51561527179E+02 -0.13713724083E+02 -0.19173462522E+03  0.19902216917E+03  0.10000000000E+01 0.  0.
<mgrwt>
<rscale>  0 0.14897569E+03</rscale>
<asrwt>0</asrwt>
<pdfrwt beam="2">  1        2 0.24566458E+00 0.15631766E+03</pdfrwt>
<pdfrwt beam="1">  1       -2 0.19803126E-02 0.15631766E+03</pdfrwt>
<totfact> 0.93398590E+03</totfact>
</mgrwt>
</event>
<event>
 8    3  0.1559595E-003  0.1382132E+03  0.7818608E-02  0.1226822E+00
          2   -1    0    0  501    0  0.00000000000E+00  0.00000000000E+00  0.18738356895E+02  0.18738357068E+02  0.25500000000E-02 0.  1.
         -2   -1    0    0    0  501 -0.00000000000E+00 -0.00000000000E+00 -0.82231481819E+03  0.82231481819E+03  0.25500000000E-02 0. -1.
         25    2    1    2    0    0  0.21783915739E+02  0.54798230177E+02 -0.47303231911E+03  0.49281078816E+03  0.12500205193E+03 0.  0.
         23    2    1    2    0    0 -0.21783915739E+02 -0.54798230177E+02 -0.33054414219E+03  0.34824238710E+03  0.92390179284E+02 0.  0.
        -13    1    4    4    0    0 -0.19933696382E+02  0.23766072107E+02 -0.93532451555E+02  0.98541915411E+02  0.10566000000E+00 0.  1.
         13    1    4    4    0    0 -0.18502193566E+01 -0.78564302283E+02 -0.23701169063E+03  0.24970047169E+03  0.10566000000E+00 0. -1.
    9000005    1    3    3    0    0  0.60970544396E+02  0.51415049860E+02 -0.17657641802E+03  0.19375537680E+03  0.10000000000E+01 0.  0.
    9000005    1    3    3    0    0 -0.39186628658E+02  0.33831803171E+01 -0.29645590108E+03  0.29905541136E+03  0.10000000000E+01 0.  0.
<mgrwt>
<rscale>  0 0.13042779E+03</rscale>
<asrwt>0</asrwt>
<pdfrwt beam="1">  1        2 0.28828248E-02 0.13821323E+03</pdfrwt>
<pdfrwt beam="2">  1       -2 0.12650994E+00 0.13821323E+03</pdfrwt>
<totfact> 0.15537530E+03</totfact>
</mgrwt>
</event>
<event>
 8    3  0.1559595E-003  0.2482542E+03  0.7818608E-02  0.1115918E+00
          2   -1    0    0  501    0  0.00000000000E+00  0.00000000000E+00  0.17160568256E+04  0.17160568256E+04  0.25500000000E-02 0.  1.
         -2   -1    0    0    0  501 -0.00000000000E+00 -0.00000000000E+00 -0.67396082321E+02  0.67396082370E+02  0.25500000000E-02 0. -1.
         25    2    1    2    0    0  0.74951219242E+02 -0.20095684817E+03  0.14544602016E+04  0.14754947105E+04  0.12501528962E+03 0.  0.
         23    2    1    2    0    0 -0.74951219242E+02  0.20095684817E+03  0.19420054165E+03  0.30795819742E+03  0.10546592289E+03 0.  0.
        -13    1    4    4    0    0  0.89668109467E+01  0.12570392060E+03  0.95246238339E+02  0.15796751702E+03  0.10566000000E+00 0.  1.
         13    1    4    4    0    0 -0.83918030189E+02  0.75252927569E+02  0.98954303309E+02  0.14999068040E+03  0.10566000000E+00 0. -1.
    9000005    1    3    3    0    0 -0.11842926839E+02 -0.14325593681E+03  0.80844398876E+03  0.82112435191E+03  0.10000000000E+01 0.  0.
    9000005    1    3    3    0    0  0.86794146081E+02 -0.57700911357E+02  0.64601621283E+03  0.65437035859E+03  0.10000000000E+01 0.  0.
<mgrwt>
<rscale>  0 0.24590944E+03</rscale>
<asrwt>0</asrwt>
<pdfrwt beam="1">  1        2 0.26400876E+00 0.24825423E+03</pdfrwt>
<pdfrwt beam="2">  1       -2 0.10368628E-01 0.24825423E+03</pdfrwt>
<totfact> 0.65949590E+02</totfact>
</mgrwt>
</event>
<event>
 8    3  0.1559595E-003  0.1323743E+03  0.7818608E-02  0.1236833E+00
         -2   -1    0    0    0  501 -0.00000000000E+00  0.00000000000E+00  0.42931035249E+02  0.42931035324E+02  0.25500000000E-02 0. -1.
          2   -1    0    0  501    0  0.00000000000E+00 -0.00000000000E+00 -0.36078861639E+03  0.36078861640E+03  0.25500000000E-02 0.  1.
         25    2    1    2    0    0 -0.34982795830E+02 -0.25972833472E+02 -0.24594928768E+03  0.27930989454E+03  0.12499832396E+03 0.  0.
         23    2    1    2    0    0  0.34982795830E+02  0.25972833472E+02 -0.71908293465E+02  0.12440975719E+03  0.91698423827E+02 0.  0.
        -13    1    4    4    0    0 -0.63029390390E+01  0.11489019210E+02  0.19254615826E+02  0.23291114133E+02  0.10566000000E+00 0. -1.
         13    1    4    4    0    0  0.41285734869E+02  0.14483814262E+02 -0.91162909291E+02  0.10111864306E+03  0.10566000000E+00 0.  1.
    9000005    1    3    3    0    0  0.14598803467E+02  0.11277447061E+02 -0.20306687196E+03  0.20390551823E+03  0.10000000000E+01 0.  0.
    9000005    1    3    3    0    0 -0.49581599297E+02 -0.37250280533E+02 -0.42882415714E+02  0.75404376306E+02  0.10000000000E+01 0.  0.
<mgrwt>
<rscale>  0 0.12387803E+03</rscale>
<asrwt>0</asrwt>
<pdfrwt beam="2">  1        2 0.55505939E-01 0.13237434E+03</pdfrwt>
<pdfrwt beam="1">  1       -2 0.66047749E-02 0.13237434E+03</pdfrwt>
<totfact> 0.10777214E+04</totfact>
</mgrwt>
</event>
<event>
 8    3  0.1559595E-003  0.1431074E+03  0.7818608E-02  0.1219910E+00
         -2   -1    0    0    0  501 -0.00000000000E+00  0.00000000000E+00  0.16536925015E+02  0.16536925211E+02  0.25500000000E-02 0.  1.
          2   -1    0    0  501    0  0.00000000000E+00 -0.00000000000E+00 -0.10123187223E+04  0.10123187223E+04  0.25500000000E-02 0. -1.
         25    2    1    2    0    0  0.65926950310E+02  0.22554668457E+02 -0.61005727516E+03  0.62661759752E+03  0.12499863478E+03 0.  0.
         23    2    1    2    0    0 -0.65926950310E+02 -0.22554668457E+02 -0.38572452216E+03  0.40223805003E+03  0.90315923569E+02 0.  0.
        -13    1    4    4    0    0 -0.19913840215E+02 -0.45910534114E+02 -0.28178648661E+03  0.28619569069E+03  0.10566000000E+00 0. -1.
         13    1    4    4    0    0 -0.46013110095E+02  0.23355865656E+02 -0.10393803555E+03  0.11604235933E+03  0.10566000000E+00 0.  1.
    9000005    1    3    3    0    0  0.17313091389E+02  0.67099806023E+02 -0.41416976352E+03  0.41992823210E+03  0.10000000000E+01 0.  0.
    9000005    1    3    3    0    0  0.48613858922E+02 -0.44545137566E+02 -0.19588751164E+03  0.20668936542E+03  0.10000000000E+01 0.  0.
<mgrwt>
<rscale>  0 0.13521965E+03</rscale>
<asrwt>0</asrwt>
<pdfrwt beam="2">  1        2 0.15574129E+00 0.14310742E+03</pdfrwt>
<pdfrwt beam="1">  1       -2 0.25441431E-02 0.14310742E+03</pdfrwt>
<totfact> 0.13455118E+04</totfact>
</mgrwt>
</event>
<event>
 8    3  0.1559595E-003  0.1785688E+03  0.7818608E-02  0.1175068E+00
         -2   -1    0    0    0  501 -0.00000000000E+00  0.00000000000E+00  0.64143209025E+02  0.64143209076E+02  0.25500000000E-02 0.  1.
          2   -1    0    0  501    0  0.00000000000E+00 -0.00000000000E+00 -0.45600327708E+03  0.45600327708E+03  0.25500000000E-02 0. -1.
         25    2    1    2    0    0  0.54497961641E+02 -0.11528693334E+03 -0.15521816333E+03  0.23659986928E+03  0.12500286034E+03 0.  0.
         23    2    1    2    0    0 -0.54497961641E+02  0.11528693334E+03 -0.23664190472E+03  0.28354661688E+03  0.90211906397E+02 0.  0.
        -13    1    4    4    0    0 -0.65670035789E+02  0.35243217414E+02 -0.98793755535E+02  0.12375320307E+03  0.10566000000E+00 0.  1.
         13    1    4    4    0    0  0.11172074149E+02  0.80043715921E+02 -0.13784814919E+03  0.15979341381E+03  0.10566000000E+00 0. -1.
    9000005    1    3    3    0    0  0.13219764652E+02 -0.62516908826E+02 -0.15706658980E+03  0.16957016158E+03  0.10000000000E+01 0.  0.
    9000005    1    3    3    0    0  0.41278196989E+02 -0.52770024510E+02  0.18484264689E+01  0.67029707696E+02  0.10000000000E+01 0.  0.
<mgrwt>
<rscale>  0 0.17269365E+03</rscale>
<asrwt>0</asrwt>
<pdfrwt beam="2">  1        2 0.70154348E-01 0.17856881E+03</pdfrwt>
<pdfrwt beam="1">  1       -2 0.98681863E-02 0.17856881E+03</pdfrwt>
<totfact> 0.45753017E+03</totfact>
</mgrwt>
</event>
<event>
 8    3  0.1559595E-003  0.1514635E+03  0.7818608E-02  0.1207557E+00
          2   -1    0    0  501    0  0.00000000000E+00  0.00000000000E+00  0.21890972252E+03  0.21890972253E+03  0.25500000000E-02 0. -1.
         -2   -1    0    0    0  501 -0.00000000000E+00 -0.00000000000E+00 -0.93342773612E+02  0.93342773647E+02  0.25500000000E-02 0.  1.
         25    2    1    2    0    0  0.21353748170E+02  0.82818723234E+02  0.28894912217E+02  0.15419499892E+03  0.12500503294E+03 0.  0.
         23    2    1    2    0    0 -0.21353748170E+02 -0.82818723234E+02  0.96672036687E+02  0.15805749726E+03  0.91223715574E+02 0.  0.
        -13    1    4    4    0    0  0.31427106742E+02 -0.75437232343E+01  0.33239944202E+02  0.46362440110E+02  0.10566000000E+00 0. -1.
         13    1    4    4    0    0 -0.52780854912E+02 -0.75274999999E+02  0.63432092486E+02  0.11169505715E+03  0.10566000000E+00 0.  1.
    9000005    1    3    3    0    0 -0.23083205135E+02  0.18627764717E+02  0.62502920366E+02  0.69191350846E+02  0.10000000000E+01 0.  0.
    9000005    1    3    3    0    0  0.44436953304E+02  0.64190958516E+02 -0.33608008149E+02  0.85003648074E+02  0.10000000000E+01 0.  0.
<mgrwt>
<rscale>  0 0.14437734E+03</rscale>
<asrwt>0</asrwt>
<pdfrwt beam="1">  1        2 0.33678419E-01 0.15146347E+03</pdfrwt>
<pdfrwt beam="2">  1       -2 0.14360427E-01 0.15146347E+03</pdfrwt>
<totfact> 0.54605886E+03</totfact>
</mgrwt>
</event>
<event>
 8    3  0.1559595E-003  0.1587600E+03  0.7818608E-02  0.1196921E+00
         -2   -1    0    0    0  501 -0.00000000000E+00  0.00000000000E+00  0.10708171424E+02  0.10708171728E+02  0.25500000000E-02 0. -1.
          2   -1    0    0  501    0  0.00000000000E+00 -0.00000000000E+00 -0.29493386519E+04  0.29493386519E+04  0.25500000000E-02 0.  1.
         25    2    1    2    0    0 -0.38611588449E+02 -0.89942402307E+02 -0.72399520537E+03  0.74119754278E+03  0.12499699806E+03 0.  0.
         23    2    1    2    0    0  0.38611588449E+02  0.89942402307E+02 -0.22146352751E+04  0.22188492808E+04  0.95405654451E+02 0.  0.
        -13    1    4    4    0    0  0.57874943877E+02  0.30034195352E+02 -0.15107947343E+04  0.15122011449E+04  0.10566000000E+00 0.  1.
         13    1    4    4    0    0 -0.19263355428E+02  0.59908206955E+02 -0.70384054075E+03  0.70664813598E+03  0.10566000000E+00 0. -1.
    9000005    1    3    3    0    0 -0.14408438345E+00  0.27669346872E+02 -0.24166913905E+03  0.24325004889E+03  0.10000000000E+01 0.  0.
    9000005    1    3    3    0    0 -0.38467504066E+02 -0.11761174918E+03 -0.48232606632E+03  0.49794749388E+03  0.10000000000E+01 0.  0.
<mgrwt>
<rscale>  0 0.15292760E+03</rscale>
<asrwt>0</asrwt>
<pdfrwt beam="2">  1        2 0.45374376E+00 0.15876001E+03</pdfrwt>
<pdfrwt beam="1">  1       -2 0.16474134E-02 0.15876001E+03</pdfrwt>
<totfact> 0.23300425E+03</totfact>
</mgrwt>
</event>
<event>
 8    3  0.1559595E-003  0.1556954E+03  0.7818608E-02  0.1201747E+00
          2   -1    0    0  501    0  0.00000000000E+00  0.00000000000E+00  0.54342534732E+02  0.54342534792E+02  0.25500000000E-02 0. -1.
         -2   -1    0    0    0  501 -0.00000000000E+00 -0.00000000000E+00 -0.37796096246E+03  0.37796096247E+03  0.25500000000E-02 0.  1.
         25    2    1    2    0    0  0.46178594783E+02 -0.80511819511E+02 -0.18816975645E+03  0.24423124199E+03  0.12500570636E+03 0.  0.
         23    2    1    2    0    0 -0.46178594783E+02  0.80511819511E+02 -0.13544867128E+03  0.18807225528E+03  0.91707224124E+02 0.  0.
        -13    1    4    4    0    0 -0.56197186646E+02  0.34740641878E+02 -0.29757333936E+02  0.72460651888E+02  0.10566000000E+00 0.  1.
         13    1    4    4    0    0  0.10018591863E+02  0.45771177633E+02 -0.10569133734E+03  0.11561160339E+03  0.10566000000E+00 0. -1.
    9000005    1    3    3    0    0  0.50761815439E+02 -0.22448766097E+02 -0.95191464827E+01  0.56323380187E+02  0.10000000000E+01 0.  0.
    9000005    1    3    3    0    0 -0.45832206562E+01 -0.58063053414E+02 -0.17865060997E+03  0.18790786180E+03  0.10000000000E+01 0.  0.
<mgrwt>
<rscale>  0 0.14896769E+03</rscale>
<asrwt>0</asrwt>
<pdfrwt beam="1">  1        2 0.83603902E-02 0.15569535E+03</pdfrwt>
<pdfrwt beam="2">  1       -2 0.58147839E-01 0.15569535E+03</pdfrwt>
<totfact> 0.22023933E+03</totfact>
</mgrwt>
</event>
<event>
 8    3  0.1559595E-003  0.1817537E+03  0.7818608E-02  0.1171628E+00
          2   -1    0    0  501    0  0.00000000000E+00  0.00000000000E+00  0.26339376913E+03  0.26339376914E+03  0.25500000000E-02 0. -1.
         -2   -1    0    0    0  501 -0.00000000000E+00 -0.00000000000E+00 -0.11562185783E+03  0.11562185786E+03  0.25500000000E-02 0.  1.
         25    2    1    2    0    0 -0.18553394495E+02  0.13062871850E+03  0.40450163043E+02  0.18620046004E+03  0.12500522023E+03 0.  0.
         23    2    1    2    0    0  0.18553394495E+02 -0.13062871850E+03  0.10732174826E+03  0.19281516696E+03  0.90838540355E+02 0.  0.
        -13    1    4    4    0    0 -0.19834029740E+02 -0.68616422298E+02  0.94990241478E+02  0.11884763054E+03  0.10566000000E+00 0.  1.
         13    1    4    4    0    0  0.38387424236E+02 -0.62012296206E+02  0.12331506782E+02  0.73967536418E+02  0.10566000000E+00 0. -1.
    9000005    1    3    3    0    0 -0.32106375392E+02  0.14321410658E+03  0.57720261762E+01  0.14688572412E+03  0.10000000000E+01 0.  0.
    9000005    1    3    3    0    0  0.13552980896E+02 -0.12585388075E+02  0.34678136867E+02  0.39314735924E+02  0.10000000000E+01 0.  0.
<mgrwt>
<rscale>  0 0.17610387E+03</rscale>
<asrwt>0</asrwt>
<pdfrwt beam="1">  1        2 0.40522118E-01 0.18175367E+03</pdfrwt>
<pdfrwt beam="2">  1       -2 0.17787978E-01 0.18175367E+03</pdfrwt>
<totfact> 0.31713678E+03</totfact>
</mgrwt>
</event>
<event>
 8    3  0.1559595E-003  0.1563036E+03  0.7818608E-02  0.1201489E+00
          2   -1    0    0  501    0  0.00000000000E+00  0.00000000000E+00  0.11518252411E+04  0.11518252411E+04  0.25500000000E-02 0.  1.
         -2   -1    0    0    0  501 -0.00000000000E+00 -0.00000000000E+00 -0.23798015547E+02  0.23798015684E+02  0.25500000000E-02 0. -1.
         25    2    1    2    0    0 -0.73969955681E+02  0.57691699288E+02  0.30785759143E+03  0.34526381594E+03  0.12502367570E+03 0.  0.
         23    2    1    2    0    0  0.73969955681E+02 -0.57691699288E+02  0.82016963416E+03  0.83035944088E+03  0.89547114723E+02 0.  0.
        -13    1    4    4    0    0  0.16098735942E+00  0.13161843539E+02  0.21838621694E+02  0.25498952994E+02  0.10566000000E+00 0. -1.
         13    1    4    4    0    0  0.73808968321E+02 -0.70853542826E+02  0.79833101246E+03  0.80486048789E+03  0.10566000000E+00 0.  1.
    9000005    1    3    3    0    0 -0.25135737344E+02 -0.34450084874E+02  0.15094114535E+03  0.15685293430E+03  0.10000000000E+01 0.  0.
    9000005    1    3    3    0    0 -0.48834218337E+02  0.92141784162E+02  0.15691644608E+03  0.18841088163E+03  0.10000000000E+01 0.  0.
<mgrwt>
<rscale>  0 0.14917647E+03</rscale>
<asrwt>0</asrwt>
<pdfrwt beam="1">  1        2 0.17720386E+00 0.15630357E+03</pdfrwt>
<pdfrwt beam="2">  1       -2 0.36612336E-02 0.15630357E+03</pdfrwt>
<totfact> 0.65595853E+03</totfact>
</mgrwt>
</event>
<event>
 8    3  0.1559595E-003  0.1445993E+03  0.7818608E-02  0.1217103E+00
          2   -1    0    0  501    0  0.00000000000E+00  0.00000000000E+00  0.12482774009E+04  0.12482774009E+04  0.25500000000E-02 0.  1.
         -2   -1    0    0    0  501 -0.00000000000E+00 -0.00000000000E+00 -0.30637359308E+02  0.30637359415E+02  0.25500000000E-02 0. -1.
         25    2    1    2    0    0  0.21802691407E+02 -0.69343839159E+02  0.16350313133E+03  0.21827098184E+03  0.12500008871E+03 0.  0.
         23    2    1    2    0    0 -0.21802691407E+02  0.69343839159E+02  0.10541369102E+04  0.10606437785E+04  0.92068853918E+02 0.  0.
        -13    1    4    4    0    0  0.86514156606E+01  0.53948936085E+02  0.93818794935E+03  0.93977761953E+03  0.10566000000E+00 0.  1.
         13    1    4    4    0    0 -0.30454107067E+02  0.15394903074E+02  0.11594896089E+03  0.12086615893E+03  0.10566000000E+00 0. -1.
    9000005    1    3    3    0    0  0.57361454876E+02 -0.43631507101E+02  0.30592563292E+02  0.78300382159E+02  0.10000000000E+01 0.  0.
    9000005    1    3    3    0    0 -0.35558763469E+02 -0.25712332058E+02  0.13291056804E+03  0.13997059969E+03  0.10000000000E+01 0.  0.
<mgrwt>
<rscale>  0 0.13723163E+03</rscale>
<asrwt>0</asrwt>
<pdfrwt beam="1">  1        2 0.19204265E+00 0.14459927E+03</pdfrwt>
<pdfrwt beam="2">  1       -2 0.47134405E-02 0.14459927E+03</pdfrwt>
<totfact> 0.39669088E+03</totfact>
</mgrwt>
</event>
<event>
 8    3  0.1559595E-003  0.1306003E+03  0.7818608E-02  0.1239086E+00
          2   -1    0    0  501    0  0.00000000000E+00  0.00000000000E+00  0.46438741091E+03  0.46438741091E+03  0.25500000000E-02 0. -1.
         -2   -1    0    0    0  501 -0.00000000000E+00 -0.00000000000E+00 -0.35908547243E+02  0.35908547333E+02  0.25500000000E-02 0.  1.
         25    2    1    2    0    0 -0.28174143038E+01  0.37725221025E+02  0.12625268555E+03  0.18164849569E+03  0.12500122101E+03 0.  0.
         23    2    1    2    0    0  0.28174143038E+01 -0.37725221025E+02  0.30222617811E+03  0.31864746256E+03  0.93618441202E+02 0.  0.
        -13    1    4    4    0    0  0.84218038728E+01  0.70006542228E+01 -0.19716754686E+01  0.11128099937E+02  0.10566000000E+00 0.  1.
         13    1    4    4    0    0 -0.56043895689E+01 -0.44725875248E+02  0.30419785358E+03  0.30751936262E+03  0.10566000000E+00 0. -1.
    9000005    1    3    3    0    0  0.32986392772E+02 -0.24917762985E+02  0.93832064815E+02  0.10254000881E+03  0.10000000000E+01 0.  0.
    9000005    1    3    3    0    0 -0.35803807076E+02  0.62642984010E+02  0.32420620738E+02  0.79108486876E+02  0.10000000000E+01 0.  0.
<mgrwt>
<rscale>  0 0.12246427E+03</rscale>
<asrwt>0</asrwt>
<pdfrwt beam="1">  1        2 0.71444217E-01 0.13060029E+03</pdfrwt>
<pdfrwt beam="2">  1       -2 0.55243919E-02 0.13060029E+03</pdfrwt>
<totfact> 0.10770480E+04</totfact>
</mgrwt>
</event>
<event>
 8    3  0.1559595E-003  0.1781137E+03  0.7818608E-02  0.1175527E+00
          2   -1    0    0  501    0  0.00000000000E+00  0.00000000000E+00  0.75980177495E+03  0.75980177495E+03  0.25500000000E-02 0. -1.
         -2   -1    0    0    0  501 -0.00000000000E+00 -0.00000000000E+00 -0.37271521520E+02  0.37271521607E+02  0.25500000000E-02 0.  1.
         25    2    1    2    0    0  0.50168529524E+02  0.11654352287E+03  0.43512920496E+03  0.47017219968E+03  0.12500079305E+03 0.  0.
         23    2    1    2    0    0 -0.50168529524E+02 -0.11654352287E+03  0.28740104847E+03  0.32690109688E+03  0.90364209745E+02 0.  0.
        -13    1    4    4    0    0 -0.42818669961E+02 -0.83478775074E+02  0.27543888309E+03  0.29097892341E+03  0.10566000000E+00 0. -1.
         13    1    4    4    0    0 -0.73498595626E+01 -0.33064747798E+02  0.11962165380E+02  0.35922173475E+02  0.10566000000E+00 0.  1.
    9000005    1    3    3    0    0 -0.34527607677E+02  0.67045163351E+00  0.80807040222E+02  0.87882779580E+02  0.10000000000E+01 0.  0.
    9000005    1    3    3    0    0  0.84696137200E+02  0.11587307124E+03  0.35432216474E+03  0.38228942010E+03  0.10000000000E+01 0.  0.
<mgrwt>
<rscale>  0 0.17224450E+03</rscale>
<asrwt>0</asrwt>
<pdfrwt beam="1">  1        2 0.11689257E+00 0.17811365E+03</pdfrwt>
<pdfrwt beam="2">  1       -2 0.57340808E-02 0.17811365E+03</pdfrwt>
<totfact> 0.58924620E+03</totfact>
</mgrwt>
</event>
<event>
 8    3  0.1559595E-003  0.1513762E+03  0.7818608E-02  0.1207942E+00
         -2   -1    0    0    0  501 -0.00000000000E+00  0.00000000000E+00  0.72703242590E+02  0.72703242635E+02  0.25500000000E-02 0.  1.
          2   -1    0    0  501    0  0.00000000000E+00 -0.00000000000E+00 -0.26892804652E+03  0.26892804654E+03  0.25500000000E-02 0. -1.
         25    2    1    2    0    0  0.75327903144E+02  0.40198690136E+02 -0.78681320358E+02  0.17060336361E+03  0.12499811927E+03 0.  0.
         23    2    1    2    0    0 -0.75327903144E+02 -0.40198690136E+02 -0.11754348358E+03  0.17102792556E+03  0.90243299532E+02 0.  0.
        -13    1    4    4    0    0 -0.49607494969E+02 -0.10471389105E+01 -0.59164675948E+01  0.49970149187E+02  0.10566000000E+00 0.  1.
         13    1    4    4    0    0 -0.25720408175E+02 -0.39151551225E+02 -0.11162701598E+03  0.12105777637E+03  0.10566000000E+00 0. -1.
    9000005    1    3    3    0    0  0.76127857853E+02 -0.17179780797E+02 -0.81883130511E+02  0.11312136258E+03  0.10000000000E+01 0.  0.
    9000005    1    3    3    0    0 -0.79995470966E+00  0.57378470933E+02  0.32018101523E+01  0.57482001030E+02  0.10000000000E+01 0.  0.
<mgrwt>
<rscale>  0 0.14407987E+03</rscale>
<asrwt>0</asrwt>
<pdfrwt beam="2">  1        2 0.41373545E-01 0.15137621E+03</pdfrwt>
<pdfrwt beam="1">  1       -2 0.11185114E-01 0.15137621E+03</pdfrwt>
<totfact> 0.65497112E+03</totfact>
</mgrwt>
</event>
<event>
 8    3  0.1559595E-003  0.1545820E+03  0.7818608E-02  0.1202635E+00
         -2   -1    0    0    0  501 -0.00000000000E+00  0.00000000000E+00  0.71786681760E+01  0.71786686289E+01  0.25500000000E-02 0. -1.
          2   -1    0    0  501    0  0.00000000000E+00 -0.00000000000E+00 -0.29282550900E+04  0.29282550900E+04  0.25500000000E-02 0.  1.
         25    2    1    2    0    0  0.39784460634E+01 -0.90858427910E+02 -0.18382003683E+04  0.18446886453E+04  0.12499808821E+03 0.  0.
         23    2    1    2    0    0 -0.39784460634E+01  0.90858427910E+02 -0.10828760535E+04  0.10907451134E+04  0.93985493793E+02 0.  0.
        -13    1    4    4    0    0 -0.89092184076E+01 -0.46186375900E+01 -0.12147711929E+02  0.15757031921E+02  0.10566000000E+00 0. -1.
         13    1    4    4    0    0  0.49307723442E+01  0.95477065500E+02 -0.10707283416E+04  0.10749880815E+04  0.10566000000E+00 0.  1.
    9000005    1    3    3    0    0 -0.53512888758E+02 -0.76339772472E+02 -0.97229702680E+03  0.97675682667E+03  0.10000000000E+01 0.  0.
    9000005    1    3    3    0    0  0.57491334821E+02 -0.14518655437E+02 -0.86590334152E+03  0.86793181863E+03  0.10000000000E+01 0.  0.
<mgrwt>
<rscale>  0 0.14825440E+03</rscale>
<asrwt>0</asrwt>
<pdfrwt beam="2">  1        2 0.45049983E+00 0.15458203E+03</pdfrwt>
<pdfrwt beam="1">  1       -2 0.11044129E-02 0.15458203E+03</pdfrwt>
<totfact> 0.42705122E+03</totfact>
</mgrwt>
</event>
<event>
 8    3  0.1559595E-003  0.1627627E+03  0.7818608E-02  0.1191367E+00
         -2   -1    0    0    0  501 -0.00000000000E+00  0.00000000000E+00  0.11997889494E+02  0.11997889765E+02  0.25500000000E-02 0. -1.
          2   -1    0    0  501    0  0.00000000000E+00 -0.00000000000E+00 -0.20703580158E+04  0.20703580158E+04  0.25500000000E-02 0.  1.
         25    2    1    2    0    0 -0.19280637077E+02 -0.10245233760E+03 -0.84212471519E+03  0.85770959363E+03  0.12499394634E+03 0.  0.
         23    2    1    2    0    0  0.19280637077E+02  0.10245233760E+03 -0.12162354111E+04  0.12246463119E+04  0.98294402923E+02 0.  0.
        -13    1    4    4    0    0 -0.40232391591E+02  0.42276686422E+02 -0.45867316205E+03  0.46237111101E+03  0.10566000000E+00 0. -1.
         13    1    4    4    0    0  0.59513028668E+02  0.60175651175E+02 -0.75756224907E+03  0.76227520093E+03  0.10566000000E+00 0.  1.
    9000005    1    3    3    0    0  0.30688426183E+02 -0.36863857922E+02 -0.60026119839E+03  0.60217541449E+03  0.10000000000E+01 0.  0.
    9000005    1    3    3    0    0 -0.49969063260E+02 -0.65588479674E+02 -0.24186351680E+03  0.25553417914E+03  0.10000000000E+01 0.  0.
<mgrwt>
<rscale>  0 0.15765760E+03</rscale>
<asrwt>0</asrwt>
<pdfrwt beam="2">  1        2 0.31851633E+00 0.16276274E+03</pdfrwt>
<pdfrwt beam="1">  1       -2 0.18458308E-02 0.16276274E+03</pdfrwt>
<totfact> 0.59037059E+03</totfact>
</mgrwt>
</event>
<event>
 8    3  0.1559595E-003  0.1521764E+03  0.7818608E-02  0.1206403E+00
         -2   -1    0    0    0  501 -0.00000000000E+00  0.00000000000E+00  0.46892493590E+02  0.46892493659E+02  0.25500000000E-02 0.  1.
          2   -1    0    0  501    0  0.00000000000E+00 -0.00000000000E+00 -0.76903722059E+03  0.76903722060E+03  0.25500000000E-02 0. -1.
         25    2    1    2    0    0  0.26278934587E+01  0.86754294675E+02 -0.10238428853E+03  0.18341261870E+03  0.12499773075E+03 0.  0.
         23    2    1    2    0    0 -0.26278934587E+01 -0.86754294675E+02 -0.61976043847E+03  0.63251709555E+03  0.91878515470E+02 0.  0.
        -13    1    4    4    0    0 -0.29514672969E+02  0.11497074303E+01 -0.23896359216E+03  0.24078215733E+03  0.10566000000E+00 0. -1.
         13    1    4    4    0    0  0.26886779511E+02 -0.87904002105E+02 -0.38079684631E+03  0.39173493822E+03  0.10566000000E+00 0.  1.
    9000005    1    3    3    0    0  0.28638133450E+02  0.74723170919E+02 -0.12394443492E+03  0.14753615796E+03  0.10000000000E+01 0.  0.
    9000005    1    3    3    0    0 -0.26010239991E+02  0.12031123756E+02  0.21560146383E+02  0.35876460741E+02  0.10000000000E+01 0.  0.
<mgrwt>
<rscale>  0 0.14527473E+03</rscale>
<asrwt>0</asrwt>
<pdfrwt beam="2">  1        2 0.11831341E+00 0.15217637E+03</pdfrwt>
<pdfrwt beam="1">  1       -2 0.72142304E-02 0.15217637E+03</pdfrwt>
<totfact> 0.40603537E+03</totfact>
</mgrwt>
</event>
<event>
 8    3  0.1559595E-003  0.2007278E+03  0.7818608E-02  0.1152245E+00
         -2   -1    0    0    0  501 -0.00000000000E+00  0.00000000000E+00  0.24158729459E+02  0.24158729594E+02  0.25500000000E-02 0.  1.
          2   -1    0    0  501    0  0.00000000000E+00 -0.00000000000E+00 -0.15532109257E+04  0.15532109257E+04  0.25500000000E-02 0. -1.
         25    2    1    2    0    0  0.75224470448E+02 -0.13788549234E+03 -0.82069949469E+03  0.84489010578E+03  0.12498199993E+03 0.  0.
         23    2    1    2    0    0 -0.75224470448E+02  0.13788549234E+03 -0.70835270159E+03  0.73247954956E+03  0.10045700929E+03 0.  0.
        -13    1    4    4    0    0 -0.86362093817E+02  0.59939762693E+02 -0.34343767775E+03  0.35916658539E+03  0.10566000000E+00 0.  1.
         13    1    4    4    0    0  0.11137623369E+02  0.77945729649E+02 -0.36491502385E+03  0.37331296417E+03  0.10566000000E+00 0. -1.
    9000005    1    3    3    0    0  0.98327727380E+02 -0.89771943974E+02 -0.70508338350E+03  0.71754506589E+03  0.10000000000E+01 0.  0.
    9000005    1    3    3    0    0 -0.23103256932E+02 -0.48113548368E+02 -0.11561611119E+03  0.12734503989E+03  0.10000000000E+01 0.  0.
<mgrwt>
<rscale>  0 0.19705834E+03</rscale>
<asrwt>0</asrwt>
<pdfrwt beam="2">  1        2 0.23895545E+00 0.20072775E+03</pdfrwt>
<pdfrwt beam="1">  1       -2 0.37167288E-02 0.20072775E+03</pdfrwt>
<totfact> 0.39114443E+03</totfact>
</mgrwt>
</event>
<event>
 8    3  0.1559595E-003  0.2417273E+03  0.7818608E-02  0.1121261E+00
          2   -1    0    0  501    0  0.00000000000E+00  0.00000000000E+00  0.30132233131E+03  0.30132233133E+03  0.25500000000E-02 0. -1.
         -2   -1    0    0    0  501 -0.00000000000E+00 -0.00000000000E+00 -0.23723002941E+03  0.23723002942E+03  0.25500000000E-02 0.  1.
         25    2    1    2    0    0 -0.17487421003E+03  0.11055935132E+03  0.16291061505E+03  0.29149952352E+03  0.12501097639E+03 0.  0.
         23    2    1    2    0    0  0.17487421003E+03 -0.11055935132E+03 -0.98818313141E+02  0.24705283722E+03  0.92009161882E+02 0.  0.
        -13    1    4    4    0    0  0.21891666314E+02 -0.55631926371E+02 -0.65395931819E+01  0.60140948851E+02  0.10566000000E+00 0.  1.
         13    1    4    4    0    0  0.15298254372E+03 -0.54927424949E+02 -0.92278719959E+02  0.18691188837E+03  0.10566000000E+00 0. -1.
    9000005    1    3    3    0    0  0.61285010852E+01  0.48484732096E+02  0.46808013047E+02  0.67678045608E+02  0.10000000000E+01 0.  0.
    9000005    1    3    3    0    0 -0.18100271112E+03  0.62074619223E+02  0.11610260200E+03  0.22382147791E+03  0.10000000000E+01 0.  0.
<mgrwt>
<rscale>  0 0.23780845E+03</rscale>
<asrwt>0</asrwt>
<pdfrwt beam="1">  1        2 0.46357282E-01 0.24172733E+03</pdfrwt>
<pdfrwt beam="2">  1       -2 0.36496928E-01 0.24172733E+03</pdfrwt>
<totfact> 0.77357625E+02</totfact>
</mgrwt>
</event>
<event>
 8    3  0.1559595E-003  0.1861394E+03  0.7818608E-02  0.1167088E+00
          2   -1    0    0  501    0  0.00000000000E+00  0.00000000000E+00  0.22367113718E+03  0.22367113719E+03  0.25500000000E-02 0.  1.
         -2   -1    0    0    0  501 -0.00000000000E+00 -0.00000000000E+00 -0.15690453706E+03  0.15690453708E+03  0.25500000000E-02 0. -1.
         25    2    1    2    0    0  0.74955797770E+02  0.11578523349E+03 -0.30523086733E+02  0.18862538127E+03  0.12499313469E+03 0.  0.
         23    2    1    2    0    0 -0.74955797770E+02 -0.11578523349E+03  0.97289686847E+02  0.19195029301E+03  0.91405907389E+02 0.  0.
        -13    1    4    4    0    0 -0.21240570469E+02 -0.57977659414E+02  0.94631001868E+02  0.11299384277E+03  0.10566000000E+00 0.  1.
         13    1    4    4    0    0 -0.53715227301E+02 -0.57807574078E+02  0.26586849783E+01  0.78956450241E+02  0.10566000000E+00 0. -1.
    9000005    1    3    3    0    0  0.90821804648E+01  0.57483095951E+02 -0.70981204219E+02  0.91793919595E+02  0.10000000000E+01 0.  0.
    9000005    1    3    3    0    0  0.65873617305E+02  0.58302137541E+02  0.40458117487E+02  0.96831461670E+02  0.10000000000E+01 0.  0.
<mgrwt>
<rscale>  0 0.18074121E+03</rscale>
<asrwt>0</asrwt>
<pdfrwt beam="1">  1        2 0.34410944E-01 0.18613940E+03</pdfrwt>
<pdfrwt beam="2">  1       -2 0.24139160E-01 0.18613940E+03</pdfrwt>
<totfact> 0.22444162E+03</totfact>
</mgrwt>
</event>
<event>
 8    3  0.1559595E-003  0.3587851E+03  0.7818608E-02  0.1060140E+00
         -2   -1    0    0    0  501 -0.00000000000E+00  0.00000000000E+00  0.40457336316E+03  0.40457336316E+03  0.25500000000E-02 0.  1.
          2   -1    0    0  501    0  0.00000000000E+00 -0.00000000000E+00 -0.86478538922E+03  0.86478538922E+03  0.25500000000E-02 0. -1.
         25    2    1    2    0    0 -0.88943150553E+02  0.32433177749E+03  0.27752784211E+03  0.45359501900E+03  0.12499900880E+03 0.  0.
         23    2    1    2    0    0  0.88943150553E+02 -0.32433177749E+03 -0.73773986817E+03  0.81576373338E+03  0.90046486275E+02 0.  0.
        -13    1    4    4    0    0  0.34748520688E+02 -0.16992208500E+03 -0.48091350407E+03  0.51123261264E+03  0.10566000000E+00 0. -1.
         13    1    4    4    0    0  0.54194629865E+02 -0.15440969249E+03 -0.25682636410E+03  0.30453112075E+03  0.10566000000E+00 0.  1.
    9000005    1    3    3    0    0  0.31761986341E+02  0.52809099388E+02  0.48736840518E+02  0.78574196644E+02  0.10000000000E+01 0.  0.
    9000005    1    3    3    0    0 -0.12070513689E+03  0.27152267810E+03  0.22879100159E+03  0.37502082236E+03  0.10000000000E+01 0.  0.
<mgrwt>
<rscale>  0 0.35609695E+03</rscale>
<asrwt>0</asrwt>
<pdfrwt beam="2">  1        2 0.13304391E+00 0.35878509E+03</pdfrwt>
<pdfrwt beam="1">  1       -2 0.62242056E-01 0.35878509E+03</pdfrwt>
<totfact> 0.78359906E+01</totfact>
</mgrwt>
</event>
