<event>
 6    4  0.1195577E-003  0.1270998E+03  0.7818608E-02  0.1231824E+00
         -4   -1    0    0    0  501 -0.00000000000E+00  0.00000000000E+00  0.55709507316E+01  0.57138771473E+01  0.12700000000E+01 0.  1.
          4   -1    0    0  502    0  0.00000000000E+00 -0.00000000000E+00 -0.13289185300E+04  0.13289191368E+04  0.12700000000E+01 0.  1.
         25    2    1    2    0    0 -0.16986381687E+02  0.15506411754E+02 -0.74026097329E+03  0.75109297592E+03  0.12500145570E+03 0.  0.
    9000005    1    3    3    0    0 -0.71031373083E+02  0.65780368987E+01 -0.46390725905E+03  0.46936091820E+03  0.10000000000E+01 0.  0.
    9000005    1    3    3    0    0  0.54044991396E+02  0.89283748552E+01 -0.27635371424E+03  0.28173205772E+03  0.10000000000E+01 0.  0.
         21    1    1    2  502  501  0.16986381687E+02 -0.15506411754E+02 -0.58308660597E+03  0.58354003807E+03  0.00000000000E+00 0.  1.
<mgrwt>
<rscale>  1 0.12709976E+03</rscale>
<asrwt>0</asrwt>
<pdfrwt beam="2">  1        4 0.20445980E+00 0.12709976E+03</pdfrwt>
<pdfrwt beam="1">  1       -4 0.86811142E-03 0.12709976E+03</pdfrwt>
<totfact> 0.81857193E+02</totfact>
</mgrwt>
</event>
<event>
 6    4  0.1195577E-003  0.1296714E+03  0.7818608E-02  0.1227944E+00
          4   -1    0    0  502    0  0.00000000000E+00  0.00000000000E+00  0.74571780759E+02  0.74582594387E+02  0.12700000000E+01 0. -1.
         -4   -1    0    0    0  501 -0.00000000000E+00 -0.00000000000E+00 -0.10437919615E+03  0.10438692202E+03  0.12700000000E+01 0. -1.
         25    2    1    2    0    0  0.33972878740E+02 -0.59299302296E+01 -0.50033547916E+02  0.13898930882E+03  0.12500140593E+03 0.  0.
    9000005    1    3    3    0    0  0.15584298009E+02 -0.40455456098E+02  0.28052583938E+02  0.51647475622E+02  0.10000000000E+01 0.  0.
    9000005    1    3    3    0    0  0.18388580731E+02  0.34525525868E+02 -0.78086131854E+02  0.87341833194E+02  0.10000000000E+01 0.  0.
         21    1    1    2  502  501 -0.33972878740E+02  0.59299302296E+01  0.20226132523E+02  0.39980207594E+02  0.00000000000E+00 0.  1.
<mgrwt>
<rscale>  1 0.12967140E+03</rscale>
<asrwt>0</asrwt>
<pdfrwt beam="1">  1        4 0.11474008E-01 0.12967140E+03</pdfrwt>
<pdfrwt beam="2">  1       -4 0.16059764E-01 0.12967140E+03</pdfrwt>
<totfact> 0.32487526E+03</totfact>
</mgrwt>
</event>
<event>
 6    4  0.1195577E-003  0.1282438E+03  0.7818608E-02  0.1230085E+00
         -4   -1    0    0    0  501 -0.00000000000E+00  0.00000000000E+00  0.14030327794E+03  0.14030902572E+03  0.12700000000E+01 0.  1.
          4   -1    0    0  502    0  0.00000000000E+00 -0.00000000000E+00 -0.44869595209E+02  0.44887564806E+02  0.12700000000E+01 0.  1.
         25    2    1    2    0    0  0.21051670616E+02 -0.19392513704E+02  0.88287060042E+02  0.15569546107E+03  0.12500891650E+03 0.  0.
    9000005    1    3    3    0    0  0.17018691018E+02  0.22972163627E+02  0.10584939698E+03  0.10964693788E+03  0.10000000000E+01 0.  0.
    9000005    1    3    3    0    0  0.40329795978E+01 -0.42364677331E+02 -0.17562336934E+02  0.46048523194E+02  0.10000000000E+01 0.  0.
         21    1    1    2  502  501 -0.21051670616E+02  0.19392513704E+02  0.71466226850E+01  0.29501129458E+02  0.00000000000E+00 0.  1.
<mgrwt>
<rscale>  1 0.12824380E+03</rscale>
<asrwt>0</asrwt>
<pdfrwt beam="2">  1        4 0.69048390E-02 0.12824380E+03</pdfrwt>
<pdfrwt beam="1">  1       -4 0.21586944E-01 0.12824380E+03</pdfrwt>
<totfact> 0.44617872E+03</totfact>
</mgrwt>
</event>
<event>
 6    4  0.1195577E-003  0.1330649E+03  0.7818608E-02  0.1222978E+00
         -4   -1    0    0    0  501 -0.00000000000E+00  0.00000000000E+00  0.37269435547E+03  0.37269651930E+03  0.12700000000E+01 0. -1.
          4   -1    0    0  502    0  0.00000000000E+00 -0.00000000000E+00 -0.22852959176E+02  0.22888220619E+02  0.12700000000E+01 0. -1.
         25    2    1    2    0    0 -0.45493688859E+02 -0.33215636952E+01  0.21111254975E+03  0.24954912311E+03  0.12500219068E+03 0.  0.
    9000005    1    3    3    0    0 -0.88830357921E+02 -0.29777605123E+01  0.12838385840E+03  0.15615093546E+03  0.10000000000E+01 0.  0.
    9000005    1    3    3    0    0  0.43336669063E+02 -0.34380318293E+00  0.82728691347E+02  0.93398187659E+02  0.10000000000E+01 0.  0.
         21    1    1    2  502  501  0.45493688859E+02  0.33215636952E+01  0.13872884655E+03  0.14603561680E+03  0.00000000000E+00 0. -1.
<mgrwt>
<rscale>  1 0.13306486E+03</rscale>
<asrwt>0</asrwt>
<pdfrwt beam="2">  1        4 0.35187190E-02 0.13306486E+03</pdfrwt>
<pdfrwt beam="1">  1       -4 0.57340469E-01 0.13306486E+03</pdfrwt>
<totfact> 0.20056013E+03</totfact>
</mgrwt>
</event>
<event>
 6    4  0.1195577E-003  0.1275053E+03  0.7818608E-02  0.1231205E+00
         -4   -1    0    0    0  501 -0.00000000000E+00  0.00000000000E+00  0.19465205764E+02  0.19506592102E+02  0.12700000000E+01 0.  1.
          4   -1    0    0  502    0  0.00000000000E+00 -0.00000000000E+00 -0.42454187732E+03  0.42454377690E+03  0.12700000000E+01 0.  1.
         25    2    1    2    0    0 -0.25139911870E+02  0.63939783463E+00 -0.19833360523E+03  0.23578342617E+03  0.12500072438E+03 0.  0.
    9000005    1    3    3    0    0  0.23963107513E+02 -0.26323573601E+02 -0.16866849749E+03  0.17238684142E+03  0.10000000000E+01 0.  0.
    9000005    1    3    3    0    0 -0.49103019384E+02  0.26962971436E+02 -0.29665107738E+02  0.63396584753E+02  0.10000000000E+01 0.  0.
         21    1    1    2  502  501  0.25139911870E+02 -0.63939783463E+00 -0.20674306633E+03  0.20826694283E+03  0.00000000000E+00 0.  1.
<mgrwt>
<rscale>  1 0.12750531E+03</rscale>
<asrwt>0</asrwt>
<pdfrwt beam="2">  1        4 0.65317457E-01 0.12750531E+03</pdfrwt>
<pdfrwt beam="1">  1       -4 0.29979771E-02 0.12750531E+03</pdfrwt>
<totfact> 0.19415662E+03</totfact>
</mgrwt>
</event>
<event>
 6    4  0.1195577E-003  0.1329361E+03  0.7818608E-02  0.1223163E+00
         -4   -1    0    0    0  501 -0.00000000000E+00  0.00000000000E+00  0.75197836260E+02  0.75208559873E+02  0.12700000000E+01 0.  1.
          4   -1    0    0  502    0  0.00000000000E+00 -0.00000000000E+00 -0.10714542130E+03  0.10715294772E+03  0.12700000000E+01 0.  1.
         25    2    1    2    0    0 -0.33006702779E+02  0.30911765499E+02 -0.33576100728E+02  0.13711074254E+03  0.12500808576E+03 0.  0.
    9000005    1    3    3    0    0  0.51020386399E+01 -0.45957116984E-01 -0.73584401372E+02  0.73767859096E+02  0.10000000000E+01 0.  0.
    9000005    1    3    3    0    0 -0.38108741419E+02  0.30957722616E+02  0.40008300644E+02  0.63342883440E+02  0.10000000000E+01 0.  0.
         21    1    1    2  502  501  0.33006702779E+02 -0.30911765499E+02  0.16285156916E+01  0.45250765054E+02  0.00000000000E+00 0.  1.
<mgrwt>
<rscale>  1 0.13293608E+03</rscale>
<asrwt>0</asrwt>
<pdfrwt beam="2">  1        4 0.16485315E-01 0.13293608E+03</pdfrwt>
<pdfrwt beam="1">  1       -4 0.11570302E-01 0.13293608E+03</pdfrwt>
<totfact> 0.30771839E+03</totfact>
</mgrwt>
</event>
<event>
 6    4  0.1195577E-003  0.1266007E+03  0.7818608E-02  0.1232589E+00
          4   -1    0    0  502    0  0.00000000000E+00  0.00000000000E+00  0.71285761446E+01  0.72408216281E+01  0.12700000000E+01 0.  1.
         -4   -1    0    0    0  501 -0.00000000000E+00 -0.00000000000E+00 -0.91945513530E+03  0.91945601239E+03  0.12700000000E+01 0.  1.
         25    2    1    2    0    0 -0.20090104124E+02  0.18584976506E+01 -0.87636428580E+03  0.88546151661E+03  0.12498267750E+03 0.  0.
    9000005    1    3    3    0    0  0.16139146627E+01  0.57259232915E+02 -0.60187846084E+03  0.60459896303E+03  0.10000000000E+01 0.  0.
    9000005    1    3    3    0    0 -0.21704018787E+02 -0.55400735264E+02 -0.27448582496E+03  0.28086255358E+03  0.10000000000E+01 0.  0.
         21    1    1    2  502  501  0.20090104124E+02 -0.18584976506E+01 -0.35962273353E+02  0.41235317410E+02  0.00000000000E+00 0.  1.
<mgrwt>
<rscale>  1 0.12660069E+03</rscale>
<asrwt>0</asrwt>
<pdfrwt beam="1">  1        4 0.11054065E-02 0.12660069E+03</pdfrwt>
<pdfrwt beam="2">  1       -4 0.14146324E+00 0.12660069E+03</pdfrwt>
<totfact> 0.15193965E+03</totfact>
</mgrwt>
</event>
<event>
 6    4  0.1195577E-003  0.1341201E+03  0.7818608E-02  0.1221467E+00
          4   -1    0    0  502    0  0.00000000000E+00  0.00000000000E+00  0.20075923486E+03  0.20076325182E+03  0.12700000000E+01 0. -1.
         -4   -1    0    0    0  501 -0.00000000000E+00 -0.00000000000E+00 -0.53904212709E+02  0.53919171430E+02  0.12700000000E+01 0. -1.
         25    2    1    2    0    0 -0.24206877423E+02  0.42157608871E+02  0.44398340079E+02  0.14127779988E+03  0.12499986895E+03 0.  0.
    9000005    1    3    3    0    0  0.21780898654E+02  0.49002707097E+02  0.70004591762E+02  0.88189090691E+02  0.10000000000E+01 0.  0.
    9000005    1    3    3    0    0 -0.45987776077E+02 -0.68450982260E+01 -0.25606251683E+02  0.53088709191E+02  0.10000000000E+01 0.  0.
         21    1    1    2  502  501  0.24206877423E+02 -0.42157608871E+02  0.10245668207E+03  0.11340462337E+03  0.00000000000E+00 0. -1.
<mgrwt>
<rscale>  1 0.13412011E+03</rscale>
<asrwt>0</asrwt>
<pdfrwt beam="1">  1        4 0.30887496E-01 0.13412011E+03</pdfrwt>
<pdfrwt beam="2">  1       -4 0.82944155E-02 0.13412011E+03</pdfrwt>
<totfact> 0.17157787E+03</totfact>
</mgrwt>
</event>
<event>
 6    4  0.1195577E-003  0.1267580E+03  0.7818608E-02  0.1232347E+00
          4   -1    0    0  502    0  0.00000000000E+00  0.00000000000E+00  0.23766399232E+02  0.23800307403E+02  0.12700000000E+01 0. -1.
         -4   -1    0    0    0  501 -0.00000000000E+00 -0.00000000000E+00 -0.32521899340E+03  0.32522147311E+03  0.12700000000E+01 0. -1.
         25    2    1    2    0    0  0.13978190573E+02  0.15748287710E+02 -0.30245281513E+03  0.32794101156E+03  0.12499681318E+03 0.  0.
    9000005    1    3    3    0    0  0.34304410340E+02  0.11409238367E+02 -0.14066578160E+02  0.38805050058E+02  0.10000000000E+01 0.  0.
    9000005    1    3    3    0    0 -0.20326219767E+02  0.43390493431E+01 -0.28838623697E+03  0.28913596150E+03  0.10000000000E+01 0.  0.
         21    1    1    2  502  501 -0.13978190573E+02 -0.15748287710E+02  0.10002209619E+01  0.21080768948E+02  0.00000000000E+00 0. -1.
<mgrwt>
<rscale>  1 0.12675804E+03</rscale>
<asrwt>0</asrwt>
<pdfrwt beam="1">  1        4 0.36591684E-02 0.12675804E+03</pdfrwt>
<pdfrwt beam="2">  1       -4 0.50036487E-01 0.12675804E+03</pdfrwt>
<totfact> 0.24677133E+03</totfact>
</mgrwt>
</event>
<event>
 6    4  0.1195577E-003  0.1410349E+03  0.7818608E-02  0.1211943E+00
          4   -1    0    0  502    0  0.00000000000E+00  0.00000000000E+00  0.28077136007E+03  0.28077423233E+03  0.12700000000E+01 0.  1.
         -4   -1    0    0    0  501 -0.00000000000E+00 -0.00000000000E+00 -0.37971167574E+02  0.37992400121E+02  0.12700000000E+01 0.  1.
         25    2    1    2    0    0  0.13511925030E+02  0.63922928663E+02  0.15978330938E+03  0.21312328997E+03  0.12498847084E+03 0.  0.
    9000005    1    3    3    0    0 -0.44206596567E+02  0.56868870323E+02  0.46376787248E+02  0.85674371823E+02  0.10000000000E+01 0.  0.
    9000005    1    3    3    0    0  0.57718521596E+02  0.70540583395E+01  0.11340652213E+03  0.12744891815E+03  0.10000000000E+01 0.  0.
         21    1    1    2  502  501 -0.13511925030E+02 -0.63922928663E+02  0.83016883119E+02  0.10564334248E+03  0.00000000000E+00 0.  1.
<mgrwt>
<rscale>  1 0.14103486E+03</rscale>
<asrwt>0</asrwt>
<pdfrwt beam="1">  1        4 0.43197446E-01 0.14103486E+03</pdfrwt>
<pdfrwt beam="2">  1       -4 0.58435726E-02 0.14103486E+03</pdfrwt>
<totfact> 0.16063221E+03</totfact>
</mgrwt>
</event>
<event>
 6    4  0.1195577E-003  0.1275329E+03  0.7818608E-02  0.1231163E+00
          4   -1    0    0  502    0  0.00000000000E+00  0.00000000000E+00  0.10714602591E+03  0.10715355229E+03  0.12700000000E+01 0. -1.
         -4   -1    0    0    0  501 -0.00000000000E+00 -0.00000000000E+00 -0.58320052593E+02  0.58333878960E+02  0.12700000000E+01 0. -1.
         25    2    1    2    0    0 -0.19073019602E+02 -0.16592504408E+02  0.23455511452E+02  0.12967190927E+03  0.12500220701E+03 0.  0.
    9000005    1    3    3    0    0 -0.35444672513E+02  0.41967136327E+02 -0.15947416446E+02  0.57209137664E+02  0.10000000000E+01 0.  0.
    9000005    1    3    3    0    0  0.16371652911E+02 -0.58559640735E+02  0.39402927897E+02  0.72462771607E+02  0.10000000000E+01 0.  0.
         21    1    1    2  502  501  0.19073019602E+02  0.16592504408E+02  0.25370461862E+02  0.35815521975E+02  0.00000000000E+00 0. -1.
<mgrwt>
<rscale>  1 0.12753291E+03</rscale>
<asrwt>0</asrwt>
<pdfrwt beam="1">  1        4 0.16485646E-01 0.12753291E+03</pdfrwt>
<pdfrwt beam="2">  1       -4 0.89739584E-02 0.12753291E+03</pdfrwt>
<totfact> 0.46753132E+03</totfact>
</mgrwt>
</event>
<event>
 6    4  0.1195577E-003  0.1324059E+03  0.7818608E-02  0.1223929E+00
          4   -1    0    0  502    0  0.00000000000E+00  0.00000000000E+00  0.39854916750E+02  0.39875146258E+02  0.12700000000E+01 0.  1.
         -4   -1    0    0    0  501 -0.00000000000E+00 -0.00000000000E+00 -0.23969922231E+03  0.23970258671E+03  0.12700000000E+01 0.  1.
         25    2    1    2    0    0  0.35001650422E+02 -0.26123357767E+02 -0.19490299681E+03  0.23562364459E+03  0.12499511339E+03 0.  0.
    9000005    1    3    3    0    0  0.29750407859E+02 -0.68685532036E+02 -0.66098595553E+02  0.99863974550E+02  0.10000000000E+01 0.  0.
    9000005    1    3    3    0    0  0.52512425627E+01  0.42562174269E+02 -0.12880440125E+03  0.13575967004E+03  0.10000000000E+01 0.  0.
         21    1    1    2  502  501 -0.35001650422E+02  0.26123357767E+02 -0.49413087559E+01  0.43954088382E+02  0.00000000000E+00 0. -1.
<mgrwt>
<rscale>  1 0.13240591E+03</rscale>
<asrwt>0</asrwt>
<pdfrwt beam="1">  1        4 0.61333407E-02 0.13240591E+03</pdfrwt>
<pdfrwt beam="2">  1       -4 0.36878617E-01 0.13240591E+03</pdfrwt>
<totfact> 0.19991041E+03</totfact>
</mgrwt>
</event>
<event>
 6    4  0.1195577E-003  0.1503857E+03  0.7818608E-02  0.1200000E+00
          4   -1    0    0  502    0  0.00000000000E+00  0.00000000000E+00  0.41708631000E+02  0.41727961847E+02  0.12700000000E+01 0.  1.
         -4   -1    0    0    0  501 -0.00000000000E+00 -0.00000000000E+00 -0.70256227293E+03  0.70256342080E+03  0.12700000000E+01 0.  1.
         25    2    1    2    0    0  0.15872571663E+02 -0.82100882255E+02 -0.64092039563E+03  0.65832727557E+03  0.12499341911E+03 0.  0.
    9000005    1    3    3    0    0  0.14399335012E+02 -0.51561964976E+02 -0.61745729328E+03  0.61977454458E+03  0.10000000000E+01 0.  0.
    9000005    1    3    3    0    0  0.14732366510E+01 -0.30538917279E+02 -0.23463102348E+02  0.38552730987E+02  0.10000000000E+01 0.  0.
         21    1    1    2  502  501 -0.15872571663E+02  0.82100882255E+02 -0.19933246303E+02  0.85964107082E+02  0.00000000000E+00 0.  1.
<mgrwt>
<rscale>  1 0.15038566E+03</rscale>
<asrwt>0</asrwt>
<pdfrwt beam="1">  1        4 0.64182883E-02 0.15038566E+03</pdfrwt>
<pdfrwt beam="2">  1       -4 0.10808807E+00 0.15038566E+03</pdfrwt>
<totfact> 0.19272102E+02</totfact>
</mgrwt>
</event>
<event>
 6    4  0.1195577E-003  0.1637066E+03  0.7818608E-02  0.1184574E+00
          4   -1    0    0  502    0  0.00000000000E+00  0.00000000000E+00  0.12495853911E+03  0.12496499268E+03  0.12700000000E+01 0. -1.
         -4   -1    0    0    0  501 -0.00000000000E+00 -0.00000000000E+00 -0.24559692727E+03  0.24560021088E+03  0.12700000000E+01 0. -1.
         25    2    1    2    0    0 -0.88225880696E+02 -0.58243486615E+02 -0.18481476729E+03  0.24689339029E+03  0.12499495271E+03 0.  0.
    9000005    1    3    3    0    0  0.22095301526E+02 -0.13846769067E+01  0.23817031097E+01  0.22288835532E+02  0.10000000000E+01 0.  0.
    9000005    1    3    3    0    0 -0.11032118222E+03 -0.56858809708E+02 -0.18719647040E+03  0.22460455476E+03  0.10000000000E+01 0.  0.
         21    1    1    2  502  501  0.88225880696E+02  0.58243486615E+02  0.64176379136E+02  0.12367181327E+03  0.00000000000E+00 0. -1.
<mgrwt>
<rscale>  1 0.16370659E+03</rscale>
<asrwt>0</asrwt>
<pdfrwt beam="1">  1        4 0.19225140E-01 0.16370659E+03</pdfrwt>
<pdfrwt beam="2">  1       -4 0.37784892E-01 0.16370659E+03</pdfrwt>
<totfact> 0.28393611E+02</totfact>
</mgrwt>
</event>
<event>
 6    4  0.1195577E-003  0.1289424E+03  0.7818608E-02  0.1229034E+00
          4   -1    0    0  502    0  0.00000000000E+00  0.00000000000E+00  0.38140187234E+02  0.38161325740E+02  0.12700000000E+01 0. -1.
         -4   -1    0    0    0  501 -0.00000000000E+00 -0.00000000000E+00 -0.19944866037E+03  0.19945270372E+03  0.12700000000E+01 0. -1.
         25    2    1    2    0    0  0.31234970800E+02  0.50740057815E+01 -0.16060551327E+03  0.20596180856E+03  0.12499906702E+03 0.  0.
    9000005    1    3    3    0    0  0.75428297411E+02 -0.17414223875E+02 -0.11469249986E+03  0.13837648921E+03  0.10000000000E+01 0.  0.
    9000005    1    3    3    0    0 -0.44193326610E+02  0.22488229657E+02 -0.45913013416E+02  0.67585319345E+02  0.10000000000E+01 0.  0.
         21    1    1    2  502  501 -0.31234970800E+02 -0.50740057815E+01 -0.70295985818E+00  0.31652220904E+02  0.00000000000E+00 0.  1.
<mgrwt>
<rscale>  1 0.12894237E+03</rscale>
<asrwt>0</asrwt>
<pdfrwt beam="1">  1        4 0.58696583E-02 0.12894237E+03</pdfrwt>
<pdfrwt beam="2">  1       -4 0.30686346E-01 0.12894237E+03</pdfrwt>
<totfact> 0.30354264E+03</totfact>
</mgrwt>
</event>
<event>
 6    4  0.1195577E-003  0.1296781E+03  0.7818608E-02  0.1227934E+00
         -4   -1    0    0    0  501 -0.00000000000E+00  0.00000000000E+00  0.26899657845E+02  0.26929621092E+02  0.12700000000E+01 0. -1.
          4   -1    0    0  502    0  0.00000000000E+00 -0.00000000000E+00 -0.34748495475E+03  0.34748727557E+03  0.12700000000E+01 0. -1.
         25    2    1    2    0    0  0.33828860088E+02  0.68581249871E+01 -0.14108606278E+03  0.19162903955E+03  0.12499994414E+03 0.  0.
    9000005    1    3    3    0    0 -0.17950794496E+02 -0.96039224023E+00  0.17201726807E+02  0.24900859050E+02  0.10000000000E+01 0.  0.
    9000005    1    3    3    0    0  0.51779654584E+02  0.78185172274E+01 -0.15828778959E+03  0.16672818050E+03  0.10000000000E+01 0.  0.
         21    1    1    2  502  501 -0.33828860088E+02 -0.68581249871E+01 -0.17949923412E+03  0.18278785710E+03  0.00000000000E+00 0. -1.
<mgrwt>
<rscale>  1 0.12967811E+03</rscale>
<asrwt>0</asrwt>
<pdfrwt beam="2">  1        4 0.53461704E-01 0.12967811E+03</pdfrwt>
<pdfrwt beam="1">  1       -4 0.41408925E-02 0.12967811E+03</pdfrwt>
<totfact> 0.17810954E+03</totfact>
</mgrwt>
</event>
<event>
 6    4  0.1195577E-003  0.1319148E+03  0.7818608E-02  0.1224642E+00
          4   -1    0    0  502    0  0.00000000000E+00  0.00000000000E+00  0.28838000288E+03  0.28838279935E+03  0.12700000000E+01 0. -1.
         -4   -1    0    0    0  501 -0.00000000000E+00 -0.00000000000E+00 -0.28103285971E+02  0.28131967268E+02  0.12700000000E+01 0. -1.
         25    2    1    2    0    0 -0.26492425143E+02  0.32792618382E+02  0.15760874994E+03  0.20552866005E+03  0.12499723050E+03 0.  0.
    9000005    1    3    3    0    0  0.72032004060E+01  0.12138027967E+02  0.16474783431E+03  0.16535436713E+03  0.10000000000E+01 0.  0.
    9000005    1    3    3    0    0 -0.33695625549E+02  0.20654590415E+02 -0.71390843634E+01  0.40174292924E+02  0.10000000000E+01 0.  0.
         21    1    1    2  502  501  0.26492425143E+02 -0.32792618382E+02  0.10266796696E+03  0.11098610657E+03  0.00000000000E+00 0. -1.
<mgrwt>
<rscale>  1 0.13191479E+03</rscale>
<asrwt>0</asrwt>
<pdfrwt beam="1">  1        4 0.44368577E-01 0.13191479E+03</pdfrwt>
<pdfrwt beam="2">  1       -4 0.43260037E-02 0.13191479E+03</pdfrwt>
<totfact> 0.24339390E+03</totfact>
</mgrwt>
</event>
<event>
 6    4  0.1195577E-003  0.1739011E+03  0.7818608E-02  0.1173840E+00
          4   -1    0    0  502    0  0.00000000000E+00  0.00000000000E+00  0.43686703300E+02  0.43705159252E+02  0.12700000000E+01 0.  1.
         -4   -1    0    0    0  501 -0.00000000000E+00 -0.00000000000E+00 -0.74373337922E+03  0.74373446355E+03  0.12700000000E+01 0.  1.
         25    2    1    2    0    0  0.39179504664E+02  0.11436404188E+03 -0.61632840506E+03  0.64039229526E+03  0.12500968474E+03 0.  0.
    9000005    1    3    3    0    0 -0.10884343044E+02  0.22472285071E+02 -0.13217739683E+02  0.28269792397E+02  0.10000000000E+01 0.  0.
    9000005    1    3    3    0    0  0.50063847708E+02  0.91891756812E+02 -0.60311066538E+03  0.61212250286E+03  0.10000000000E+01 0.  0.
         21    1    1    2  502  501 -0.39179504664E+02 -0.11436404188E+03 -0.83718270865E+02  0.14704732755E+03  0.00000000000E+00 0.  1.
<mgrwt>
<rscale>  1 0.17390109E+03</rscale>
<asrwt>0</asrwt>
<pdfrwt beam="1">  1        4 0.67225349E-02 0.17390109E+03</pdfrwt>
<pdfrwt beam="2">  1       -4 0.11442201E+00 0.17390109E+03</pdfrwt>
<totfact> 0.15966556E+02</totfact>
</mgrwt>
</event>
<event>
 6    4  0.1195577E-003  0.1368410E+03  0.7818608E-02  0.1217644E+00
          4   -1    0    0  502    0  0.00000000000E+00  0.00000000000E+00  0.11850775467E+03  0.11851455952E+03  0.12700000000E+01 0. -1.
         -4   -1    0    0    0  501 -0.00000000000E+00 -0.00000000000E+00 -0.78519610846E+02  0.78529880857E+02  0.12700000000E+01 0. -1.
         25    2    1    2    0    0 -0.55660180082E+02  0.14406064902E+01  0.22461109943E+02  0.13867211893E+03  0.12500129646E+03 0.  0.
    9000005    1    3    3    0    0 -0.21935978985E+02  0.61094195927E+02 -0.43834168232E+01  0.65068443143E+02  0.10000000000E+01 0.  0.
    9000005    1    3    3    0    0 -0.33724201097E+02 -0.59653589437E+02  0.26844526767E+02  0.73603675790E+02  0.10000000000E+01 0.  0.
         21    1    1    2  502  501  0.55660180082E+02 -0.14406064902E+01  0.17527033884E+02  0.58372321443E+02  0.00000000000E+00 0. -1.
<mgrwt>
<rscale>  1 0.13684098E+03</rscale>
<asrwt>0</asrwt>
<pdfrwt beam="1">  1        4 0.18233276E-01 0.13684098E+03</pdfrwt>
<pdfrwt beam="2">  1       -4 0.12081254E-01 0.13684098E+03</pdfrwt>
<totfact> 0.24067646E+03</totfact>
</mgrwt>
</event>
<event>
 6    4  0.1195577E-003  0.1279136E+03  0.7818608E-02  0.1230585E+00
         -4   -1    0    0    0  501 -0.00000000000E+00  0.00000000000E+00  0.48627984938E+02  0.48644566183E+02  0.12700000000E+01 0.  1.
          4   -1    0    0  502    0  0.00000000000E+00 -0.00000000000E+00 -0.13419312927E+03  0.13419913876E+03  0.12700000000E+01 0.  1.
         25    2    1    2    0    0 -0.92262208937E+00 -0.27148349688E+02 -0.48299897802E+02  0.13672881883E+03  0.12499602253E+03 0.  0.
    9000005    1    3    3    0    0  0.25251626254E+02 -0.71738286509E+02 -0.31881453065E+02  0.82470924751E+02  0.10000000000E+01 0.  0.
    9000005    1    3    3    0    0 -0.26174248343E+02  0.44589936822E+02 -0.16418444738E+02  0.54257894077E+02  0.10000000000E+01 0.  0.
         21    1    1    2  502  501  0.92262208937E+00  0.27148349688E+02 -0.37265246529E+02  0.46114886113E+02  0.00000000000E+00 0. -1.
<mgrwt>
<rscale>  1 0.12791360E+03</rscale>
<asrwt>0</asrwt>
<pdfrwt beam="2">  1        4 0.20646834E-01 0.12791360E+03</pdfrwt>
<pdfrwt beam="1">  1       -4 0.74829662E-02 0.12791360E+03</pdfrwt>
<totfact> 0.42347862E+03</totfact>
</mgrwt>
</event>
<event>
 6    4  0.1195577E-003  0.1268725E+03  0.7818608E-02  0.1232172E+00
          4   -1    0    0  502    0  0.00000000000E+00  0.00000000000E+00  0.33903772492E+03  0.33904010355E+03  0.12700000000E+01 0.  1.
         -4   -1    0    0    0  501 -0.00000000000E+00 -0.00000000000E+00 -0.19442711481E+02  0.19484145599E+02  0.12700000000E+01 0.  1.
         25    2    1    2    0    0  0.81870725830E+01  0.20124210554E+02  0.19911089535E+03  0.23609698618E+03  0.12499850491E+03 0.  0.
    9000005    1    3    3    0    0  0.54580316936E+02  0.28594334472E+02  0.48946922235E+02  0.78698463499E+02  0.10000000000E+01 0.  0.
    9000005    1    3    3    0    0 -0.46393244353E+02 -0.84701239179E+01  0.15016397312E+03  0.15739852269E+03  0.10000000000E+01 0.  0.
         21    1    1    2  502  501 -0.81870725830E+01 -0.20124210554E+02  0.12048411808E+03  0.12242726297E+03  0.00000000000E+00 0.  1.
<mgrwt>
<rscale>  1 0.12687253E+03</rscale>
<asrwt>0</asrwt>
<pdfrwt beam="1">  1        4 0.52163023E-01 0.12687253E+03</pdfrwt>
<pdfrwt beam="2">  1       -4 0.29945564E-02 0.12687253E+03</pdfrwt>
<totfact> 0.31066295E+03</totfact>
</mgrwt>
</event>
<event>
 6    4  0.1195577E-003  0.1377207E+03  0.7818608E-02  0.1216429E+00
         -4   -1    0    0    0  501 -0.00000000000E+00  0.00000000000E+00  0.12663740454E+03  0.12664377256E+03  0.12700000000E+01 0.  1.
          4   -1    0    0  502    0  0.00000000000E+00 -0.00000000000E+00 -0.76008726481E+02  0.76019335707E+02  0.12700000000E+01 0.  1.
         25    2    1    2    0    0  0.32587158041E+01 -0.57726968244E+02  0.27787497822E+02  0.14049606229E+03  0.12499590550E+03 0.  0.
    9000005    1    3    3    0    0 -0.60318928276E+02 -0.36832690677E+02  0.17048900507E+02  0.72709595098E+02  0.10000000000E+01 0.  0.
    9000005    1    3    3    0    0  0.63577644080E+02 -0.20894277567E+02  0.10738597316E+02  0.67786467190E+02  0.10000000000E+01 0.  0.
         21    1    1    2  502  501 -0.32587158041E+01  0.57726968244E+02  0.22841180236E+02  0.62167045981E+02  0.00000000000E+00 0. -1.
<mgrwt>
<rscale>  1 0.13772073E+03</rscale>
<asrwt>0</asrwt>
<pdfrwt beam="2">  1        4 0.11694956E-01 0.13772073E+03</pdfrwt>
<pdfrwt beam="1">  1       -4 0.19483984E-01 0.13772073E+03</pdfrwt>
<totfact> 0.22629320E+03</totfact>
</mgrwt>
</event>
<event>
 6    4  0.1195577E-003  0.1266556E+03  0.7818608E-02  0.1232504E+00
          4   -1    0    0  502    0  0.00000000000E+00  0.00000000000E+00  0.61444452153E+02  0.61457575614E+02  0.12700000000E+01 0. -1.
         -4   -1    0    0    0  501 -0.00000000000E+00 -0.00000000000E+00 -0.91640629035E+02  0.91649428749E+02  0.12700000000E+01 0. -1.
         25    2    1    2    0    0  0.16957528606E+02  0.11365384769E+02 -0.36380197585E+02  0.13177693499E+03  0.12499964829E+03 0.  0.
    9000005    1    3    3    0    0  0.29170152578E+02 -0.54794374245E+01  0.41571983419E+02  0.51089645147E+02  0.10000000000E+01 0.  0.
    9000005    1    3    3    0    0 -0.12212623972E+02  0.16844822193E+02 -0.77952181004E+02  0.80687289843E+02  0.10000000000E+01 0.  0.
         21    1    1    2  502  501 -0.16957528606E+02 -0.11365384769E+02  0.61840207023E+01  0.21330069372E+02  0.00000000000E+00 0.  1.
<mgrwt>
<rscale>  1 0.12665560E+03</rscale>
<asrwt>0</asrwt>
<pdfrwt beam="1">  1        4 0.94546790E-02 0.12665560E+03</pdfrwt>
<pdfrwt beam="2">  1       -4 0.14100245E-01 0.12665560E+03</pdfrwt>
<totfact> 0.56196409E+03</totfact>
</mgrwt>
</event>
<event>
 6    4  0.1195577E-003  0.1281173E+03  0.7818608E-02  0.1230276E+00
          4   -1    0    0  502    0  0.00000000000E+00  0.00000000000E+00  0.12090904300E+02  0.12157420236E+02  0.12700000000E+01 0. -1.
         -4   -1    0    0    0  501 -0.00000000000E+00 -0.00000000000E+00 -0.10781070403E+04  0.10781077884E+04  0.12700000000E+01 0. -1.
         25    2    1    2    0    0  0.10305886974E+02  0.26101533369E+02 -0.10503326376E+04  0.10581175263E+04  0.12500619453E+03 0.  0.
    9000005    1    3    3    0    0 -0.15366749313E+02  0.70633815384E+02 -0.47200314378E+03  0.47750731994E+03  0.10000000000E+01 0.  0.
    9000005    1    3    3    0    0  0.25672636288E+02 -0.44532282016E+02 -0.57832949377E+03  0.58061020639E+03  0.10000000000E+01 0.  0.
         21    1    1    2  502  501 -0.10305886974E+02 -0.26101533369E+02 -0.15683498489E+02  0.32147682270E+02  0.00000000000E+00 0. -1.
<mgrwt>
<rscale>  1 0.12811733E+03</rscale>
<asrwt>0</asrwt>
<pdfrwt beam="1">  1        4 0.18653141E-02 0.12811733E+03</pdfrwt>
<pdfrwt beam="2">  1       -4 0.16586772E+00 0.12811733E+03</pdfrwt>
<totfact> 0.45715114E+02</totfact>
</mgrwt>
</event>
<event>
 6    4  0.1195577E-003  0.1335328E+03  0.7818608E-02  0.1222306E+00
          4   -1    0    0  502    0  0.00000000000E+00  0.00000000000E+00  0.62411133281E+02  0.62424053517E+02  0.12700000000E+01 0. -1.
         -4   -1    0    0    0  501 -0.00000000000E+00 -0.00000000000E+00 -0.13344948597E+03  0.13345552894E+03  0.12700000000E+01 0. -1.
         25    2    1    2    0    0 -0.12079241345E+02 -0.45387263023E+02 -0.65042507925E+02  0.14853127868E+03  0.12500040477E+03 0.  0.
    9000005    1    3    3    0    0  0.43779682383E+02 -0.51454212911E+02 -0.62871343362E+02  0.92293024829E+02  0.10000000000E+01 0.  0.
    9000005    1    3    3    0    0 -0.55858923727E+02  0.60669498877E+01 -0.21711645629E+01  0.56238253853E+02  0.10000000000E+01 0.  0.
         21    1    1    2  502  501  0.12079241345E+02  0.45387263023E+02 -0.59958447628E+01  0.47348303778E+02  0.00000000000E+00 0. -1.
<mgrwt>
<rscale>  1 0.13353282E+03</rscale>
<asrwt>0</asrwt>
<pdfrwt beam="1">  1        4 0.96031716E-02 0.13353282E+03</pdfrwt>
<pdfrwt beam="2">  1       -4 0.20532149E-01 0.13353282E+03</pdfrwt>
<totfact> 0.28549163E+03</totfact>
</mgrwt>
</event>
<event>
 6    4  0.1195577E-003  0.1271241E+03  0.7818608E-02  0.1231786E+00
          4   -1    0    0  502    0  0.00000000000E+00  0.00000000000E+00  0.30004327811E+02  0.30031193572E+02  0.12700000000E+01 0.  1.
         -4   -1    0    0    0  501 -0.00000000000E+00 -0.00000000000E+00 -0.26725702021E+03  0.26726003770E+03  0.12700000000E+01 0.  1.
         25    2    1    2    0    0 -0.14879351573E+02 -0.17714680278E+02 -0.24229000175E+03  0.27361467143E+03  0.12500135388E+03 0.  0.
    9000005    1    3    3    0    0 -0.46744188122E+02  0.35851693823E+02 -0.76960724149E+02  0.96924280419E+02  0.10000000000E+01 0.  0.
    9000005    1    3    3    0    0  0.31864836549E+02 -0.53566374101E+02 -0.16532927760E+03  0.17669039101E+03  0.10000000000E+01 0.  0.
         21    1    1    2  502  501  0.14879351573E+02  0.17714680278E+02  0.50373093517E+01  0.23676559845E+02  0.00000000000E+00 0.  1.
<mgrwt>
<rscale>  1 0.12712413E+03</rscale>
<asrwt>0</asrwt>
<pdfrwt beam="1">  1        4 0.46183493E-02 0.12712413E+03</pdfrwt>
<pdfrwt beam="2">  1       -4 0.41118762E-01 0.12712413E+03</pdfrwt>
<totfact> 0.25279203E+03</totfact>
</mgrwt>
</event>
<event>
 6    4  0.1195577E-003  0.1602568E+03  0.7818608E-02  0.1188407E+00
          4   -1    0    0  502    0  0.00000000000E+00  0.00000000000E+00  0.16125673612E+03  0.16126173708E+03  0.12700000000E+01 0.  1.
         -4   -1    0    0    0  501 -0.00000000000E+00 -0.00000000000E+00 -0.10531236221E+03  0.10532001963E+03  0.12700000000E+01 0.  1.
         25    2    1    2    0    0 -0.50450735631E+00 -0.10028390086E+03  0.30750388900E+02  0.16318034385E+03  0.12500049161E+03 0.  0.
    9000005    1    3    3    0    0 -0.34632171118E+02  0.16191289052E+02  0.12159140475E+01  0.38262560872E+02  0.10000000000E+01 0.  0.
    9000005    1    3    3    0    0  0.34127663761E+02 -0.11647518991E+03  0.29534474852E+02  0.12491778298E+03  0.10000000000E+01 0.  0.
         21    1    1    2  502  501  0.50450735631E+00  0.10028390086E+03  0.25193985016E+02  0.10340141286E+03  0.00000000000E+00 0.  1.
<mgrwt>
<rscale>  1 0.16025679E+03</rscale>
<asrwt>0</asrwt>
<pdfrwt beam="1">  1        4 0.24809702E-01 0.16025679E+03</pdfrwt>
<pdfrwt beam="2">  1       -4 0.16202876E-01 0.16025679E+03</pdfrwt>
<totfact> 0.85416180E+02</totfact>
</mgrwt>
</event>
<event>
 6    4  0.1195577E-003  0.1269518E+03  0.7818608E-02  0.1232050E+00
          4   -1    0    0  502    0  0.00000000000E+00  0.00000000000E+00  0.78256743008E+02  0.78267047511E+02  0.12700000000E+01 0.  1.
         -4   -1    0    0    0  501 -0.00000000000E+00 -0.00000000000E+00 -0.71268981022E+02  0.71280295706E+02  0.12700000000E+01 0.  1.
         25    2    1    2    0    0  0.16832561747E+02 -0.14391816026E+02  0.92352195078E+01  0.12728727653E+03  0.12500520783E+03 0.  0.
    9000005    1    3    3    0    0  0.32603557465E+02  0.13158188660E+02 -0.49376688128E+02  0.60623322399E+02  0.10000000000E+01 0.  0.
    9000005    1    3    3    0    0 -0.15770995718E+02 -0.27550004686E+02  0.58611907635E+02  0.66663954134E+02  0.10000000000E+01 0.  0.
         21    1    1    2  502  501 -0.16832561747E+02  0.14391816026E+02 -0.22474575226E+01  0.22260066685E+02  0.00000000000E+00 0.  1.
<mgrwt>
<rscale>  1 0.12695181E+03</rscale>
<asrwt>0</asrwt>
<pdfrwt beam="1">  1        4 0.12041162E-01 0.12695181E+03</pdfrwt>
<pdfrwt beam="2">  1       -4 0.10966122E-01 0.12695181E+03</pdfrwt>
<totfact> 0.57466394E+03</totfact>
</mgrwt>
</event>
<event>
 6    4  0.1195577E-003  0.1309111E+03  0.7818608E-02  0.1226110E+00
          4   -1    0    0  502    0  0.00000000000E+00  0.00000000000E+00  0.41097882058E+02  0.41117500042E+02  0.12700000000E+01 0. -1.
         -4   -1    0    0    0  501 -0.00000000000E+00 -0.00000000000E+00 -0.17547834357E+03  0.17548293924E+03  0.12700000000E+01 0. -1.
         25    2    1    2    0    0 -0.27462590286E+02  0.27570192136E+02 -0.10577931313E+03  0.16830618446E+03  0.12499359696E+03 0.  0.
    9000005    1    3    3    0    0 -0.84120997033E+01 -0.25862367191E+02  0.17667038410E+02  0.32446104609E+02  0.10000000000E+01 0.  0.
    9000005    1    3    3    0    0 -0.19050490583E+02  0.53432559327E+02 -0.12344635155E+03  0.13586007985E+03  0.10000000000E+01 0.  0.
         21    1    1    2  502  501  0.27462590286E+02 -0.27570192136E+02 -0.28601148381E+02  0.48294254817E+02  0.00000000000E+00 0. -1.
<mgrwt>
<rscale>  1 0.13091107E+03</rscale>
<asrwt>0</asrwt>
<pdfrwt beam="1">  1        4 0.63246138E-02 0.13091107E+03</pdfrwt>
<pdfrwt beam="2">  1       -4 0.26998530E-01 0.13091107E+03</pdfrwt>
<totfact> 0.34320022E+03</totfact>
</mgrwt>
</event>
<event>
 6    4  0.1195577E-003  0.1275781E+03  0.7818608E-02  0.1231094E+00
         -4   -1    0    0    0  501 -0.00000000000E+00  0.00000000000E+00  0.18658839516E+02  0.18702010375E+02  0.12700000000E+01 0.  1.
          4   -1    0    0  502    0  0.00000000000E+00 -0.00000000000E+00 -0.35046272804E+03  0.35046502913E+03  0.12700000000E+01 0.  1.
         25    2    1    2    0    0 -0.24586039024E+02  0.68809371032E+01 -0.21846676826E+03  0.25298991852E+03  0.12499739770E+03 0.  0.
    9000005    1    3    3    0    0  0.48967215982E+02 -0.45370918609E+01 -0.57665440760E+02  0.75793644204E+02  0.10000000000E+01 0.  0.
    9000005    1    3    3    0    0 -0.73553255006E+02  0.11418028964E+02 -0.16080132750E+03  0.17719627432E+03  0.10000000000E+01 0.  0.
         21    1    1    2  502  501  0.24586039024E+02 -0.68809371032E+01 -0.11333712027E+03  0.11617712099E+03  0.00000000000E+00 0.  1.
<mgrwt>
<rscale>  1 0.12757809E+03</rscale>
<asrwt>0</asrwt>
<pdfrwt beam="2">  1        4 0.53920836E-01 0.12757809E+03</pdfrwt>
<pdfrwt beam="1">  1       -4 0.28740888E-02 0.12757809E+03</pdfrwt>
<totfact> 0.30986879E+03</totfact>
</mgrwt>
</event>
<event>
 6    4  0.1195577E-003  0.1280685E+03  0.7818608E-02  0.1230350E+00
          4   -1    0    0  502    0  0.00000000000E+00  0.00000000000E+00  0.15864004215E+03  0.15864512559E+03  0.12700000000E+01 0. -1.
         -4   -1    0    0    0  501 -0.00000000000E+00 -0.00000000000E+00 -0.79430047059E+02  0.79440199369E+02  0.12700000000E+01 0. -1.
         25    2    1    2    0    0  0.15635514895E+02 -0.23103391333E+02 -0.24758044326E+02  0.13043965975E+03  0.12499323206E+03 0.  0.
    9000005    1    3    3    0    0 -0.11864187225E+02 -0.70815173332E+02 -0.52207715808E+01  0.71998640046E+02  0.10000000000E+01 0.  0.
    9000005    1    3    3    0    0  0.27499702120E+02  0.47711781999E+02 -0.19537272746E+02  0.58441019708E+02  0.10000000000E+01 0.  0.
         21    1    1    2  502  501 -0.15635514895E+02  0.23103391333E+02  0.10396803941E+03  0.10764566520E+03  0.00000000000E+00 0. -1.
<mgrwt>
<rscale>  1 0.12806851E+03</rscale>
<asrwt>0</asrwt>
<pdfrwt beam="1">  1        4 0.24407333E-01 0.12806851E+03</pdfrwt>
<pdfrwt beam="2">  1       -4 0.12221179E-01 0.12806851E+03</pdfrwt>
<totfact> 0.13717597E+03</totfact>
</mgrwt>
</event>
<event>
 6    4  0.1195577E-003  0.1393410E+03  0.7818608E-02  0.1214218E+00
          4   -1    0    0  502    0  0.00000000000E+00  0.00000000000E+00  0.50402678951E+03  0.50402838952E+03  0.12700000000E+01 0. -1.
         -4   -1    0    0    0  501 -0.00000000000E+00 -0.00000000000E+00 -0.43748086527E+02  0.43766516594E+02  0.12700000000E+01 0. -1.
         25    2    1    2    0    0 -0.34191170606E+02  0.51201093669E+02  0.76205164373E+02  0.15881795153E+03  0.12500130603E+03 0.  0.
    9000005    1    3    3    0    0 -0.48640023666E+02  0.31129325932E+02  0.10561649857E+03  0.12037745473E+03  0.10000000000E+01 0.  0.
    9000005    1    3    3    0    0  0.14448853060E+02  0.20071767737E+02 -0.29411334201E+02  0.38440496801E+02  0.10000000000E+01 0.  0.
         21    1    1    2  502  501  0.34191170606E+02 -0.51201093669E+02  0.38407353861E+03  0.38897695458E+03  0.00000000000E+00 0. -1.
<mgrwt>
<rscale>  1 0.13934100E+03</rscale>
<asrwt>0</asrwt>
<pdfrwt beam="1">  1        4 0.77544118E-01 0.13934100E+03</pdfrwt>
<pdfrwt beam="2">  1       -4 0.67320161E-02 0.13934100E+03</pdfrwt>
<totfact> 0.37432186E+02</totfact>
</mgrwt>
</event>
<event>
 6    4  0.1195577E-003  0.1320881E+03  0.7818608E-02  0.1224390E+00
         -4   -1    0    0    0  501 -0.00000000000E+00  0.00000000000E+00  0.15588622814E+04  0.15588627987E+04  0.12700000000E+01 0.  1.
          4   -1    0    0  502    0  0.00000000000E+00 -0.00000000000E+00 -0.51919781738E+01  0.53450479285E+01  0.12700000000E+01 0.  1.
         25    2    1    2    0    0 -0.39751017147E+02  0.15629452913E+02  0.13262293052E+04  0.13327908405E+04  0.12499132512E+03 0.  0.
    9000005    1    3    3    0    0 -0.42955828561E+02  0.43489854510E+02  0.12510835806E+04  0.12525764233E+04  0.10000000000E+01 0.  0.
    9000005    1    3    3    0    0  0.32048114143E+01 -0.27860401597E+02  0.75145724617E+02  0.80214417168E+02  0.10000000000E+01 0.  0.
         21    1    1    2  502  501  0.39751017147E+02 -0.15629452913E+02  0.22744099798E+03  0.23141700612E+03  0.00000000000E+00 0.  1.
<mgrwt>
<rscale>  1 0.13208806E+03</rscale>
<asrwt>0</asrwt>
<pdfrwt beam="2">  1        4 0.81057924E-03 0.13208806E+03</pdfrwt>
<pdfrwt beam="1">  1       -4 0.23983708E+00 0.13208806E+03</pdfrwt>
<totfact> 0.56283447E+02</totfact>
</mgrwt>
</event>
<event>
 6    4  0.1195577E-003  0.1274553E+03  0.7818608E-02  0.1231281E+00
          4   -1    0    0  502    0  0.00000000000E+00  0.00000000000E+00  0.26630509468E+03  0.26630812296E+03  0.12700000000E+01 0.  1.
         -4   -1    0    0    0  501 -0.00000000000E+00 -0.00000000000E+00 -0.26466056657E+02  0.26496510241E+02  0.12700000000E+01 0.  1.
         25    2    1    2    0    0 -0.12325636586E+00  0.24905692710E+02  0.13753238306E+03  0.18750999719E+03  0.12499813573E+03 0.  0.
    9000005    1    3    3    0    0  0.16456763328E+02  0.74035260969E+01 -0.20682107629E+02  0.27466103361E+02  0.10000000000E+01 0.  0.
    9000005    1    3    3    0    0 -0.16580019693E+02  0.17502166613E+02  0.15821449069E+03  0.16004389383E+03  0.10000000000E+01 0.  0.
         21    1    1    2  502  501  0.12325636586E+00 -0.24905692710E+02  0.10230665496E+03  0.10529463601E+03  0.00000000000E+00 0. -1.
<mgrwt>
<rscale>  1 0.12745526E+03</rscale>
<asrwt>0</asrwt>
<pdfrwt beam="1">  1        4 0.40972589E-01 0.12745526E+03</pdfrwt>
<pdfrwt beam="2">  1       -4 0.40742767E-02 0.12745526E+03</pdfrwt>
<totfact> 0.31103134E+03</totfact>
</mgrwt>
</event>
<event>
 6    4  0.1195577E-003  0.1283325E+03  0.7818608E-02  0.1229951E+00
         -4   -1    0    0    0  501 -0.00000000000E+00  0.00000000000E+00  0.79094980355E+02  0.79105175667E+02  0.12700000000E+01 0.  1.
          4   -1    0    0  502    0  0.00000000000E+00 -0.00000000000E+00 -0.81486790833E+02  0.81496686929E+02  0.12700000000E+01 0.  1.
         25    2    1    2    0    0 -0.21672990197E+02  0.19207447753E+02  0.10786526901E+02  0.12878499397E+03  0.12502232183E+03 0.  0.
    9000005    1    3    3    0    0 -0.64348036255E+02  0.21558448229E+02  0.38313280428E+02  0.77938077453E+02  0.10000000000E+01 0.  0.
    9000005    1    3    3    0    0  0.42675046058E+02 -0.23510004760E+01 -0.27526753526E+02  0.50846916514E+02  0.10000000000E+01 0.  0.
         21    1    1    2  502  501  0.21672990197E+02 -0.19207447753E+02 -0.13178337380E+02  0.31816868629E+02  0.00000000000E+00 0. -1.
<mgrwt>
<rscale>  1 0.12833248E+03</rscale>
<asrwt>0</asrwt>
<pdfrwt beam="2">  1        4 0.12537975E-01 0.12833248E+03</pdfrwt>
<pdfrwt beam="1">  1       -4 0.12170004E-01 0.12833248E+03</pdfrwt>
<totfact> 0.45031803E+03</totfact>
</mgrwt>
</event>
<event>
 6    4  0.1195577E-003  0.1266103E+03  0.7818608E-02  0.1232574E+00
         -4   -1    0    0    0  501 -0.00000000000E+00  0.00000000000E+00  0.21280246785E+02  0.21318109748E+02  0.12700000000E+01 0.  1.
          4   -1    0    0  502    0  0.00000000000E+00 -0.00000000000E+00 -0.85887140482E+03  0.85887234378E+03  0.12700000000E+01 0.  1.
         25    2    1    2    0    0 -0.14408789143E+02 -0.14067545810E+02 -0.16834974717E+03  0.21064614950E+03  0.12499861549E+03 0.  0.
    9000005    1    3    3    0    0  0.48064896290E+02 -0.35405194652E+02 -0.67622291782E+02  0.90208294572E+02  0.10000000000E+01 0.  0.
    9000005    1    3    3    0    0 -0.62473685434E+02  0.21337648842E+02 -0.10072745539E+03  0.12043785492E+03  0.10000000000E+01 0.  0.
         21    1    1    2  502  501  0.14408789143E+02  0.14067545810E+02 -0.66924141086E+03  0.66954430403E+03  0.00000000000E+00 0.  1.
<mgrwt>
<rscale>  1 0.12661028E+03</rscale>
<asrwt>0</asrwt>
<pdfrwt beam="2">  1        4 0.13213702E+00 0.12661028E+03</pdfrwt>
<pdfrwt beam="1">  1       -4 0.32768696E-02 0.12661028E+03</pdfrwt>
<totfact> 0.33868089E+02</totfact>
</mgrwt>
</event>
<event>
 6    4  0.1195577E-003  0.1346479E+03  0.7818608E-02  0.1220718E+00
          4   -1    0    0  502    0  0.00000000000E+00  0.00000000000E+00  0.75454048809E+02  0.75464736014E+02  0.12700000000E+01 0.  1.
         -4   -1    0    0    0  501 -0.00000000000E+00 -0.00000000000E+00 -0.11501260210E+03  0.11501961373E+03  0.12700000000E+01 0.  1.
         25    2    1    2    0    0 -0.37958445221E+02 -0.32635393042E+02 -0.39861481577E+02  0.14042434367E+03  0.12499658451E+03 0.  0.
    9000005    1    3    3    0    0  0.20505934934E+02  0.37316651535E+02 -0.20279561929E+02  0.47172942259E+02  0.10000000000E+01 0.  0.
    9000005    1    3    3    0    0 -0.58464380155E+02 -0.69952044577E+02 -0.19581919648E+02  0.93251401407E+02  0.10000000000E+01 0.  0.
         21    1    1    2  502  501  0.37958445221E+02  0.32635393042E+02  0.30292828567E+00  0.50060006074E+02  0.00000000000E+00 0.  1.
<mgrwt>
<rscale>  1 0.13464791E+03</rscale>
<asrwt>0</asrwt>
<pdfrwt beam="1">  1        4 0.11609677E-01 0.13464791E+03</pdfrwt>
<pdfrwt beam="2">  1       -4 0.17695608E-01 0.13464791E+03</pdfrwt>
<totfact> 0.27071124E+03</totfact>
</mgrwt>
</event>
<event>
 6    4  0.1195577E-003  0.1400905E+03  0.7818608E-02  0.1213207E+00
         -4   -1    0    0    0  501 -0.00000000000E+00  0.00000000000E+00  0.21938410709E+03  0.21938778303E+03  0.12700000000E+01 0.  1.
          4   -1    0    0  502    0  0.00000000000E+00 -0.00000000000E+00 -0.49095937082E+02  0.49112360338E+02  0.12700000000E+01 0.  1.
         25    2    1    2    0    0 -0.21557744418E+02 -0.59461604104E+02  0.90902294085E+02  0.16699873450E+03  0.12499972619E+03 0.  0.
    9000005    1    3    3    0    0 -0.30115781475E+01  0.21004619533E+02 -0.19697184659E+02  0.28969686366E+02  0.10000000000E+01 0.  0.
    9000005    1    3    3    0    0 -0.18546166270E+02 -0.80466223637E+02  0.11059947874E+03  0.13802904813E+03  0.10000000000E+01 0.  0.
         21    1    1    2  502  501  0.21557744418E+02  0.59461604104E+02  0.79385875926E+02  0.10150140887E+03  0.00000000000E+00 0.  1.
<mgrwt>
<rscale>  1 0.14009051E+03</rscale>
<asrwt>0</asrwt>
<pdfrwt beam="2">  1        4 0.75547674E-02 0.14009051E+03</pdfrwt>
<pdfrwt beam="1">  1       -4 0.33752946E-01 0.14009051E+03</pdfrwt>
<totfact> 0.17067528E+03</totfact>
</mgrwt>
</event>
<event>
 6    4  0.1195577E-003  0.1673879E+03  0.7818608E-02  0.1180600E+00
          4   -1    0    0  502    0  0.00000000000E+00  0.00000000000E+00  0.13144102684E+03  0.13144716215E+03  0.12700000000E+01 0.  1.
         -4   -1    0    0    0  501 -0.00000000000E+00 -0.00000000000E+00 -0.22068888559E+03  0.22069253980E+03  0.12700000000E+01 0.  1.
         25    2    1    2    0    0  0.72656952671E+02  0.84341943987E+02  0.49217381494E+02  0.17447366962E+03  0.12500445778E+03 0.  0.
    9000005    1    3    3    0    0 -0.31283376933E+02  0.11798719216E+02  0.32467916180E+02  0.46615716540E+02  0.10000000000E+01 0.  0.
    9000005    1    3    3    0    0  0.10394032960E+03  0.72543224771E+02  0.16749465313E+02  0.12785795308E+03  0.10000000000E+01 0.  0.
         21    1    1    2  502  501 -0.72656952671E+02 -0.84341943987E+02 -0.13846524024E+03  0.17766603232E+03  0.00000000000E+00 0.  1.
<mgrwt>
<rscale>  1 0.16738791E+03</rscale>
<asrwt>0</asrwt>
<pdfrwt beam="1">  1        4 0.20222449E-01 0.16738791E+03</pdfrwt>
<pdfrwt beam="2">  1       -4 0.33952889E-01 0.16738791E+03</pdfrwt>
<totfact> 0.32026419E+02</totfact>
</mgrwt>
</event>
<event>
 6    4  0.1195577E-003  0.1270312E+03  0.7818608E-02  0.1231929E+00
          4   -1    0    0  502    0  0.00000000000E+00  0.00000000000E+00  0.37082043422E+03  0.37082260899E+03  0.12700000000E+01 0.  1.
         -4   -1    0    0    0  501 -0.00000000000E+00 -0.00000000000E+00 -0.15091255952E+02  0.15144599903E+02  0.12700000000E+01 0.  1.
         25    2    1    2    0    0 -0.11927040879E+02 -0.19225627941E+02  0.30688690656E+03  0.33213927396E+03  0.12500017924E+03 0.  0.
    9000005    1    3    3    0    0  0.10130489518E+01  0.31470775452E+02  0.25992077179E+03  0.26182292410E+03  0.10000000000E+01 0.  0.
    9000005    1    3    3    0    0 -0.12940089831E+02 -0.50696403393E+02  0.46966134775E+02  0.70316349859E+02  0.10000000000E+01 0.  0.
         21    1    1    2  502  501  0.11927040879E+02  0.19225627941E+02  0.48842271707E+02  0.53827934935E+02  0.00000000000E+00 0.  1.
<mgrwt>
<rscale>  1 0.12703119E+03</rscale>
<asrwt>0</asrwt>
<pdfrwt beam="1">  1        4 0.57053571E-01 0.12703119E+03</pdfrwt>
<pdfrwt beam="2">  1       -4 0.23260022E-02 0.12703119E+03</pdfrwt>
<totfact> 0.38264226E+03</totfact>
</mgrwt>
</event>
<event>
 6    4  0.1195577E-003  0.1309521E+03  0.7818608E-02  0.1226050E+00
         -4   -1    0    0    0  501 -0.00000000000E+00  0.00000000000E+00  0.26107249869E+03  0.26107558767E+03  0.12700000000E+01 0.  1.
          4   -1    0    0  502    0  0.00000000000E+00 -0.00000000000E+00 -0.30398673599E+02  0.30425191151E+02  0.12700000000E+01 0.  1.
         25    2    1    2    0    0 -0.38535034983E+02 -0.62150659828E+01  0.20959276962E+03  0.24713878082E+03  0.12499948776E+03 0.  0.
    9000005    1    3    3    0    0 -0.19617591930E+02 -0.64245875946E+02  0.13465871942E+03  0.15048705328E+03  0.10000000000E+01 0.  0.
    9000005    1    3    3    0    0 -0.18917443053E+02  0.58030809963E+02  0.74934050203E+02  0.96651727540E+02  0.10000000000E+01 0.  0.
         21    1    1    2  502  501  0.38535034983E+02  0.62150659828E+01  0.21081055471E+02  0.44361997995E+02  0.00000000000E+00 0.  1.
<mgrwt>
<rscale>  1 0.13095208E+03</rscale>
<asrwt>0</asrwt>
<pdfrwt beam="2">  1        4 0.46789965E-02 0.13095208E+03</pdfrwt>
<pdfrwt beam="1">  1       -4 0.40167276E-01 0.13095208E+03</pdfrwt>
<totfact> 0.26109302E+03</totfact>
</mgrwt>
</event>
<event>
 6    4  0.1195577E-003  0.1268529E+03  0.7818608E-02  0.1232202E+00
         -4   -1    0    0    0  501 -0.00000000000E+00  0.00000000000E+00  0.19194395817E+03  0.19194815961E+03  0.12700000000E+01 0. -1.
          4   -1    0    0  502    0  0.00000000000E+00 -0.00000000000E+00 -0.31881094947E+02  0.31906380475E+02  0.12700000000E+01 0. -1.
         25    2    1    2    0    0  0.11487676049E+02  0.18286908876E+02  0.15730942670E+03  0.20208393720E+03  0.12500113684E+03 0.  0.
    9000005    1    3    3    0    0 -0.12841000513E+02  0.61631258703E+02  0.13211023453E+03  0.14634690776E+03  0.10000000000E+01 0.  0.
    9000005    1    3    3    0    0  0.24328676562E+02 -0.43344349828E+02  0.25199192170E+02  0.55737029444E+02  0.10000000000E+01 0.  0.
         21    1    1    2  502  501 -0.11487676049E+02 -0.18286908876E+02  0.27534365265E+01  0.21770602884E+02  0.00000000000E+00 0.  1.
<mgrwt>
<rscale>  1 0.12685291E+03</rscale>
<asrwt>0</asrwt>
<pdfrwt beam="2">  1        4 0.49070522E-02 0.12685291E+03</pdfrwt>
<pdfrwt beam="1">  1       -4 0.29532107E-01 0.12685291E+03</pdfrwt>
<totfact> 0.43385568E+03</totfact>
</mgrwt>
</event>
<event>
 6    4  0.1195577E-003  0.1413012E+03  0.7818608E-02  0.1211589E+00
         -4   -1    0    0    0  501 -0.00000000000E+00  0.00000000000E+00  0.43752236734E+03  0.43752421056E+03  0.12700000000E+01 0. -1.
          4   -1    0    0  502    0  0.00000000000E+00 -0.00000000000E+00 -0.24520683645E+02  0.24553550179E+02  0.12700000000E+01 0. -1.
         25    2    1    2    0    0 -0.32620980471E+01 -0.65796607033E+02  0.28656193764E+03  0.31950551883E+03  0.12500479061E+03 0.  0.
    9000005    1    3    3    0    0 -0.42982072454E+02  0.17276904189E+02  0.12819375936E+03  0.13631063755E+03  0.10000000000E+01 0.  0.
    9000005    1    3    3    0    0  0.39719974407E+02 -0.83073511221E+02  0.15836817828E+03  0.18319488128E+03  0.10000000000E+01 0.  0.
         21    1    1    2  502  501  0.32620980471E+01  0.65796607033E+02  0.12643974605E+03  0.14257224191E+03  0.00000000000E+00 0. -1.
<mgrwt>
<rscale>  1 0.14130121E+03</rscale>
<asrwt>0</asrwt>
<pdfrwt beam="2">  1        4 0.37750828E-02 0.14130121E+03</pdfrwt>
<pdfrwt beam="1">  1       -4 0.67313805E-01 0.14130121E+03</pdfrwt>
<totfact> 0.12953842E+03</totfact>
</mgrwt>
</event>
<event>
 6    4  0.1195577E-003  0.1292459E+03  0.7818608E-02  0.1228579E+00
         -4   -1    0    0    0  501 -0.00000000000E+00  0.00000000000E+00  0.36349204891E+02  0.36371384305E+02  0.12700000000E+01 0.  1.
          4   -1    0    0  502    0  0.00000000000E+00 -0.00000000000E+00 -0.18239954180E+03  0.18240396308E+03  0.12700000000E+01 0.  1.
         25    2    1    2    0    0 -0.30106146514E+02 -0.13185374874E+02 -0.10744506198E+03  0.16807424857E+03  0.12499711005E+03 0.  0.
    9000005    1    3    3    0    0  0.21308278863E+02 -0.12293900913E+02  0.19304956490E+02  0.31286803813E+02  0.10000000000E+01 0.  0.
    9000005    1    3    3    0    0 -0.51414425376E+02 -0.89147396092E+00 -0.12675001847E+03  0.13678744476E+03  0.10000000000E+01 0.  0.
         21    1    1    2  502  501  0.30106146514E+02  0.13185374874E+02 -0.38605274924E+02  0.50701098809E+02  0.00000000000E+00 0.  1.
<mgrwt>
<rscale>  1 0.12924593E+03</rscale>
<asrwt>0</asrwt>
<pdfrwt beam="2">  1        4 0.28063514E-01 0.12924593E+03</pdfrwt>
<pdfrwt beam="1">  1       -4 0.55942317E-02 0.12924593E+03</pdfrwt>
<totfact> 0.38842132E+03</totfact>
</mgrwt>
</event>
<event>
 6    4  0.1195577E-003  0.1269317E+03  0.7818608E-02  0.1232081E+00
         -4   -1    0    0    0  501 -0.00000000000E+00  0.00000000000E+00  0.47903081671E+03  0.47903250021E+03  0.12700000000E+01 0.  1.
          4   -1    0    0  502    0  0.00000000000E+00 -0.00000000000E+00 -0.14538801819E+02  0.14594165216E+02  0.12700000000E+01 0.  1.
         25    2    1    2    0    0  0.12483429571E+02 -0.18184677903E+02  0.44919416546E+03  0.46678373858E+03  0.12500056718E+03 0.  0.
    9000005    1    3    3    0    0  0.67146139576E+02  0.19090191231E+01  0.27594411688E+03  0.28400423246E+03  0.10000000000E+01 0.  0.
    9000005    1    3    3    0    0 -0.54662710005E+02 -0.20093697027E+02  0.17325004859E+03  0.18277950613E+03  0.10000000000E+01 0.  0.
         21    1    1    2  502  501 -0.12483429571E+02  0.18184677903E+02  0.15297849427E+02  0.26842926841E+02  0.00000000000E+00 0.  1.
<mgrwt>
<rscale>  1 0.12693172E+03</rscale>
<asrwt>0</asrwt>
<pdfrwt beam="2">  1        4 0.22411268E-02 0.12693172E+03</pdfrwt>
<pdfrwt beam="1">  1       -4 0.73701442E-01 0.12693172E+03</pdfrwt>
<totfact> 0.23512451E+03</totfact>
</mgrwt>
</event>
<event>
 6    4  0.1195577E-003  0.1272913E+03  0.7818608E-02  0.1231531E+00
          4   -1    0    0  502    0  0.00000000000E+00  0.00000000000E+00  0.32460788466E+03  0.32461036903E+03  0.12700000000E+01 0. -1.
         -4   -1    0    0    0  501 -0.00000000000E+00 -0.00000000000E+00 -0.18059387278E+02  0.18103987650E+02  0.12700000000E+01 0. -1.
         25    2    1    2    0    0  0.20242394568E+01 -0.23964034790E+02  0.23541315875E+03  0.26762368541E+03  0.12499883669E+03 0.  0.
    9000005    1    3    3    0    0 -0.34543037387E+02 -0.63676629809E+02  0.11939632905E+03  0.13965821854E+03  0.10000000000E+01 0.  0.
    9000005    1    3    3    0    0  0.36567276844E+02  0.39712595019E+02  0.11601682970E+03  0.12796546687E+03  0.10000000000E+01 0.  0.
         21    1    1    2  502  501 -0.20242394568E+01  0.23964034790E+02  0.71135338638E+02  0.75090671271E+02  0.00000000000E+00 0.  1.
<mgrwt>
<rscale>  1 0.12729133E+03</rscale>
<asrwt>0</asrwt>
<pdfrwt beam="1">  1        4 0.49943296E-01 0.12729133E+03</pdfrwt>
<pdfrwt beam="2">  1       -4 0.27819892E-02 0.12729133E+03</pdfrwt>
<totfact> 0.38116936E+03</totfact>
</mgrwt>
</event>
<event>
 6    4  0.1195577E-003  0.1271140E+03  0.7818608E-02  0.1231802E+00
          4   -1    0    0  502    0  0.00000000000E+00  0.00000000000E+00  0.21050387267E+03  0.21050770368E+03  0.12700000000E+01 0. -1.
         -4   -1    0    0    0  501 -0.00000000000E+00 -0.00000000000E+00 -0.26848747065E+02  0.26878767066E+02  0.12700000000E+01 0. -1.
         25    2    1    2    0    0  0.89970985345E+01 -0.21444684396E+02  0.15322943555E+03  0.19909097642E+03  0.12496853484E+03 0.  0.
    9000005    1    3    3    0    0 -0.54873138486E+02  0.51882031793E+01  0.47738656887E+02  0.72924331611E+02  0.10000000000E+01 0.  0.
    9000005    1    3    3    0    0  0.63870237021E+02 -0.26632887575E+02  0.10549077867E+03  0.12616664481E+03  0.10000000000E+01 0.  0.
         21    1    1    2  502  501 -0.89970985345E+01  0.21444684396E+02  0.30425690050E+02  0.38295494329E+02  0.00000000000E+00 0. -1.
<mgrwt>
<rscale>  1 0.12711395E+03</rscale>
<asrwt>0</asrwt>
<pdfrwt beam="1">  1        4 0.32387816E-01 0.12711395E+03</pdfrwt>
<pdfrwt beam="2">  1       -4 0.41331803E-02 0.12711395E+03</pdfrwt>
<totfact> 0.47927317E+03</totfact>
</mgrwt>
</event>
<event>
 6    4  0.1195577E-003  0.1274785E+03  0.7818608E-02  0.1231246E+00
          4   -1    0    0  502    0  0.00000000000E+00  0.00000000000E+00  0.15976415871E+03  0.15976920638E+03  0.12700000000E+01 0. -1.
         -4   -1    0    0    0  501 -0.00000000000E+00 -0.00000000000E+00 -0.56703182992E+03  0.56703325215E+03  0.12700000000E+01 0. -1.
         25    2    1    2    0    0 -0.18531011597E+02 -0.16826237124E+02 -0.55883079334E+03  0.57318637657E+03  0.12499698416E+03 0.  0.
    9000005    1    3    3    0    0  0.24097324580E+02  0.39066249941E+02 -0.34630712910E+03  0.34933720186E+03  0.10000000000E+01 0.  0.
    9000005    1    3    3    0    0 -0.42628336177E+02 -0.55892487065E+02 -0.21252366424E+03  0.22384917471E+03  0.10000000000E+01 0.  0.
         21    1    1    2  502  501  0.18531011597E+02  0.16826237124E+02  0.15156312213E+03  0.15361608196E+03  0.00000000000E+00 0. -1.
<mgrwt>
<rscale>  1 0.12747850E+03</rscale>
<asrwt>0</asrwt>
<pdfrwt beam="1">  1        4 0.24579599E-01 0.12747850E+03</pdfrwt>
<pdfrwt beam="2">  1       -4 0.87236163E-01 0.12747850E+03</pdfrwt>
<totfact> 0.30354689E+01</totfact>
</mgrwt>
</event>
<event>
 6    4  0.1195577E-003  0.1272798E+03  0.7818608E-02  0.1231549E+00
          4   -1    0    0  502    0  0.00000000000E+00  0.00000000000E+00  0.16225492492E+03  0.16225989510E+03  0.12700000000E+01 0.  1.
         -4   -1    0    0    0  501 -0.00000000000E+00 -0.00000000000E+00 -0.37177868601E+02  0.37199553945E+02  0.12700000000E+01 0.  1.
         25    2    1    2    0    0 -0.14448611201E+01 -0.23968259985E+02  0.86053855907E+02  0.15364050886E+03  0.12499429881E+03 0.  0.
    9000005    1    3    3    0    0  0.61341252332E+02 -0.48390999662E+01  0.38648802407E+02  0.72669774003E+02  0.10000000000E+01 0.  0.
    9000005    1    3    3    0    0 -0.62786113452E+02 -0.19129160018E+02  0.47405053500E+02  0.80970734854E+02  0.10000000000E+01 0.  0.
         21    1    1    2  502  501  0.14448611201E+01  0.23968259985E+02  0.39023200408E+02  0.45818940193E+02  0.00000000000E+00 0. -1.
<mgrwt>
<rscale>  1 0.12727977E+03</rscale>
<asrwt>0</asrwt>
<pdfrwt beam="1">  1        4 0.24964346E-01 0.12727977E+03</pdfrwt>
<pdfrwt beam="2">  1       -4 0.57217225E-02 0.12727977E+03</pdfrwt>
<totfact> 0.46366595E+03</totfact>
</mgrwt>
</event>
<event>
 6    4  0.1195577E-003  0.1330990E+03  0.7818608E-02  0.1222928E+00
          4   -1    0    0  502    0  0.00000000000E+00  0.00000000000E+00  0.18559161774E+03  0.18559596298E+03  0.12700000000E+01 0.  1.
         -4   -1    0    0    0  501 -0.00000000000E+00 -0.00000000000E+00 -0.76899311035E+02  0.76909797411E+02  0.12700000000E+01 0.  1.
         25    2    1    2    0    0  0.20689413468E+02 -0.40817669834E+02 -0.11795175776E+02  0.13362066647E+03  0.12498488843E+03 0.  0.
    9000005    1    3    3    0    0 -0.39654760247E+01  0.33545564417E+02  0.29673756533E+02  0.44972899828E+02  0.10000000000E+01 0.  0.
    9000005    1    3    3    0    0  0.24654889493E+02 -0.74363234251E+02 -0.41468932309E+02  0.88647766644E+02  0.10000000000E+01 0.  0.
         21    1    1    2  502  501 -0.20689413468E+02  0.40817669834E+02  0.12048748248E+03  0.12888509392E+03  0.00000000000E+00 0.  1.
<mgrwt>
<rscale>  1 0.13309905E+03</rscale>
<asrwt>0</asrwt>
<pdfrwt beam="1">  1        4 0.28553697E-01 0.13309905E+03</pdfrwt>
<pdfrwt beam="2">  1       -4 0.11831804E-01 0.13309905E+03</pdfrwt>
<totfact> 0.10925455E+03</totfact>
</mgrwt>
</event>
<event>
 6    4  0.1195577E-003  0.1538197E+03  0.7818608E-02  0.1195856E+00
          4   -1    0    0  502    0  0.00000000000E+00  0.00000000000E+00  0.24286861165E+03  0.24287193215E+03  0.12700000000E+01 0. -1.
         -4   -1    0    0    0  501 -0.00000000000E+00 -0.00000000000E+00 -0.77285906310E+02  0.77296340238E+02  0.12700000000E+01 0. -1.
         25    2    1    2    0    0  0.68868947568E+02 -0.57384138969E+02  0.28592534603E+02  0.15645456428E+03  0.12499850521E+03 0.  0.
    9000005    1    3    3    0    0  0.10157655132E+03 -0.21113547364E+02  0.28532633674E+02  0.10760431610E+03  0.10000000000E+01 0.  0.
    9000005    1    3    3    0    0 -0.32707603750E+02 -0.36270591605E+02  0.59900928577E-01  0.48850248173E+02  0.10000000000E+01 0.  0.
         21    1    1    2  502  501 -0.68868947568E+02  0.57384138969E+02  0.13699017074E+03  0.16371370811E+03  0.00000000000E+00 0. -1.
<mgrwt>
<rscale>  1 0.15381969E+03</rscale>
<asrwt>0</asrwt>
<pdfrwt beam="1">  1        4 0.37365460E-01 0.15381969E+03</pdfrwt>
<pdfrwt beam="2">  1       -4 0.11891197E-01 0.15381969E+03</pdfrwt>
<totfact> 0.66642801E+02</totfact>
</mgrwt>
</event>
<event>
 6    4  0.1195577E-003  0.1311073E+03  0.7818608E-02  0.1225822E+00
         -4   -1    0    0    0  501 -0.00000000000E+00  0.00000000000E+00  0.36362756459E+02  0.36384927611E+02  0.12700000000E+01 0. -1.
          4   -1    0    0  502    0  0.00000000000E+00 -0.00000000000E+00 -0.35068827432E+03  0.35069057393E+03  0.12700000000E+01 0. -1.
         25    2    1    2    0    0  0.71385878693E+01 -0.38915280634E+02 -0.89376286223E+02  0.15867341023E+03  0.12499508819E+03 0.  0.
    9000005    1    3    3    0    0 -0.23964009390E+02 -0.76174112787E+02 -0.39583267122E+02  0.89132509450E+02  0.10000000000E+01 0.  0.
    9000005    1    3    3    0    0  0.31102597259E+02  0.37258832153E+02 -0.49793019101E+02  0.69540900777E+02  0.10000000000E+01 0.  0.
         21    1    1    2  502  501 -0.71385878693E+01  0.38915280634E+02 -0.22494923164E+03  0.22840209132E+03  0.00000000000E+00 0. -1.
<mgrwt>
<rscale>  1 0.13110732E+03</rscale>
<asrwt>0</asrwt>
<pdfrwt beam="2">  1        4 0.53953922E-01 0.13110732E+03</pdfrwt>
<pdfrwt beam="1">  1       -4 0.55961528E-02 0.13110732E+03</pdfrwt>
<totfact> 0.10811381E+03</totfact>
</mgrwt>
</event>
<event>
 6    4  0.1195577E-003  0.1270763E+03  0.7818608E-02  0.1231860E+00
          4   -1    0    0  502    0  0.00000000000E+00  0.00000000000E+00  0.30783179386E+02  0.30809365996E+02  0.12700000000E+01 0.  1.
         -4   -1    0    0    0  501 -0.00000000000E+00 -0.00000000000E+00 -0.18217174245E+03  0.18217616927E+03  0.12700000000E+01 0.  1.
         25    2    1    2    0    0  0.19010724432E+02 -0.12470058959E+02 -0.12797755769E+03  0.18035142448E+03  0.12502588142E+03 0.  0.
    9000005    1    3    3    0    0  0.52512902447E+02 -0.33472880647E+02 -0.20090334778E+02  0.65442037054E+02  0.10000000000E+01 0.  0.
    9000005    1    3    3    0    0 -0.33502178015E+02  0.21002821688E+02 -0.10788722291E+03  0.11490938743E+03  0.10000000000E+01 0.  0.
         21    1    1    2  502  501 -0.19010724432E+02  0.12470058959E+02 -0.23411005377E+02  0.32634110784E+02  0.00000000000E+00 0.  1.
<mgrwt>
<rscale>  1 0.12707628E+03</rscale>
<asrwt>0</asrwt>
<pdfrwt beam="1">  1        4 0.47382287E-02 0.12707628E+03</pdfrwt>
<pdfrwt beam="2">  1       -4 0.28028776E-01 0.12707628E+03</pdfrwt>
<totfact> 0.50639126E+03</totfact>
</mgrwt>
</event>
<event>
 6    4  0.1195577E-003  0.1285446E+03  0.7818608E-02  0.1229631E+00
          4   -1    0    0  502    0  0.00000000000E+00  0.00000000000E+00  0.16551240014E+02  0.16599892951E+02  0.12700000000E+01 0.  1.
         -4   -1    0    0    0  501 -0.00000000000E+00 -0.00000000000E+00 -0.38953202006E+03  0.38953409036E+03  0.12700000000E+01 0.  1.
         25    2    1    2    0    0  0.20390496421E+01 -0.29905480828E+02 -0.27286682670E+03  0.30162896352E+03  0.12500092405E+03 0.  0.
    9000005    1    3    3    0    0 -0.50275344306E+02 -0.49395310093E+02 -0.17944824103E+03  0.19279569008E+03  0.10000000000E+01 0.  0.
    9000005    1    3    3    0    0  0.52314393948E+02  0.19489829265E+02 -0.93418585665E+02  0.10883327344E+03  0.10000000000E+01 0.  0.
         21    1    1    2  502  501 -0.20390496421E+01  0.29905480828E+02 -0.10011395335E+03  0.10450501979E+03  0.00000000000E+00 0.  1.
<mgrwt>
<rscale>  1 0.12854465E+03</rscale>
<asrwt>0</asrwt>
<pdfrwt beam="1">  1        4 0.25502467E-02 0.12854465E+03</pdfrwt>
<pdfrwt beam="2">  1       -4 0.59931898E-01 0.12854465E+03</pdfrwt>
<totfact> 0.30021786E+03</totfact>
</mgrwt>
</event>
<event>
 6    4  0.1195577E-003  0.1278495E+03  0.7818608E-02  0.1230682E+00
          4   -1    0    0  502    0  0.00000000000E+00  0.00000000000E+00  0.16581054493E+03  0.16581540854E+03  0.12700000000E+01 0. -1.
         -4   -1    0    0    0  501 -0.00000000000E+00 -0.00000000000E+00 -0.36184751152E+02  0.36207031305E+02  0.12700000000E+01 0. -1.
         25    2    1    2    0    0  0.26861751564E+02 -0.16685378809E+01  0.10319380003E+03  0.16429992656E+03  0.12498467020E+03 0.  0.
    9000005    1    3    3    0    0  0.57108313292E+02 -0.20632235087E+02  0.11209945488E+03  0.12749249529E+03  0.10000000000E+01 0.  0.
    9000005    1    3    3    0    0 -0.30246561729E+02  0.18963697206E+02 -0.89056548429E+01  0.36807431265E+02  0.10000000000E+01 0.  0.
         21    1    1    2  502  501 -0.26861751564E+02  0.16685378809E+01  0.26431993742E+02  0.37722513290E+02  0.00000000000E+00 0. -1.
<mgrwt>
<rscale>  1 0.12784954E+03</rscale>
<asrwt>0</asrwt>
<pdfrwt beam="1">  1        4 0.25511403E-01 0.12784954E+03</pdfrwt>
<pdfrwt beam="2">  1       -4 0.55689727E-02 0.12784954E+03</pdfrwt>
<totfact> 0.46592528E+03</totfact>
</mgrwt>
</event>
<event>
 6    4  0.1195577E-003  0.1418308E+03  0.7818608E-02  0.1210887E+00
         -4   -1    0    0    0  501 -0.00000000000E+00  0.00000000000E+00  0.17388726540E+03  0.17389190312E+03  0.12700000000E+01 0.  1.
          4   -1    0    0  502    0  0.00000000000E+00 -0.00000000000E+00 -0.10463063496E+03  0.10463834227E+03  0.12700000000E+01 0.  1.
         25    2    1    2    0    0 -0.58827813420E+02  0.32090223916E+02  0.12676590695E+03  0.19022503043E+03  0.12500189172E+03 0.  0.
    9000005    1    3    3    0    0 -0.85685945182E+02  0.30375902793E+02  0.39911399856E+02  0.99290968928E+02  0.10000000000E+01 0.  0.
    9000005    1    3    3    0    0  0.26858131762E+02  0.17143211224E+01  0.86854507097E+02  0.90934061504E+02  0.10000000000E+01 0.  0.
         21    1    1    2  502  501  0.58827813420E+02 -0.32090223916E+02 -0.57509276514E+02  0.88305214953E+02  0.00000000000E+00 0.  1.
<mgrwt>
<rscale>  1 0.14183077E+03</rscale>
<asrwt>0</asrwt>
<pdfrwt beam="2">  1        4 0.16097970E-01 0.14183077E+03</pdfrwt>
<pdfrwt beam="1">  1       -4 0.26752837E-01 0.14183077E+03</pdfrwt>
<totfact> 0.73317083E+02</totfact>
</mgrwt>
</event>
<event>
 6    4  0.1195577E-003  0.1623062E+03  0.7818608E-02  0.1186117E+00
         -4   -1    0    0    0  501 -0.00000000000E+00  0.00000000000E+00  0.21335011454E+03  0.21335389445E+03  0.12700000000E+01 0.  1.
          4   -1    0    0  502    0  0.00000000000E+00 -0.00000000000E+00 -0.11036272597E+03  0.11037003299E+03  0.12700000000E+01 0.  1.
         25    2    1    2    0    0 -0.10346547101E+03 -0.41301490080E+01  0.13940798370E+03  0.21395771419E+03  0.12498462192E+03 0.  0.
    9000005    1    3    3    0    0 -0.46781156405E+02  0.47752180798E+02  0.16271357601E+02  0.68807735348E+02  0.10000000000E+01 0.  0.
    9000005    1    3    3    0    0 -0.56684314607E+02 -0.51882329806E+02  0.12313662610E+03  0.14514997884E+03  0.10000000000E+01 0.  0.
         21    1    1    2  502  501  0.10346547101E+03  0.41301490080E+01 -0.36420595131E+02  0.10976621325E+03  0.00000000000E+00 0.  1.
<mgrwt>
<rscale>  1 0.16230625E+03</rscale>
<asrwt>0</asrwt>
<pdfrwt beam="2">  1        4 0.16979734E-01 0.16230625E+03</pdfrwt>
<pdfrwt beam="1">  1       -4 0.32823947E-01 0.16230625E+03</pdfrwt>
<totfact> 0.46499089E+02</totfact>
</mgrwt>
</event>
<event>
 6    4  0.1195577E-003  0.1305808E+03  0.7818608E-02  0.1226597E+00
          4   -1    0    0  502    0  0.00000000000E+00  0.00000000000E+00  0.11360420898E+02  0.11431188170E+02  0.12700000000E+01 0.  1.
         -4   -1    0    0    0  501 -0.00000000000E+00 -0.00000000000E+00 -0.62296042605E+03  0.62296172059E+03  0.12700000000E+01 0.  1.
         25    2    1    2    0    0  0.17816165630E+02 -0.33313673952E+02 -0.46238928864E+03  0.48047392179E+03  0.12499647450E+03 0.  0.
    9000005    1    3    3    0    0 -0.19514928289E+02  0.23612476461E+02 -0.30457051830E+02  0.43208951352E+02  0.10000000000E+01 0.  0.
    9000005    1    3    3    0    0  0.37331093918E+02 -0.56926150413E+02 -0.43193223681E+03  0.43726497043E+03  0.10000000000E+01 0.  0.
         21    1    1    2  502  501 -0.17816165630E+02  0.33313673952E+02 -0.14921071651E+03  0.15391898698E+03  0.00000000000E+00 0.  1.
<mgrwt>
<rscale>  1 0.13058076E+03</rscale>
<asrwt>0</asrwt>
<pdfrwt beam="1">  1        4 0.17533008E-02 0.13058076E+03</pdfrwt>
<pdfrwt beam="2">  1       -4 0.95845582E-01 0.13058076E+03</pdfrwt>
<totfact> 0.19224275E+03</totfact>
</mgrwt>
</event>
<event>
 6    4  0.1195577E-003  0.1341904E+03  0.7818608E-02  0.1221367E+00
          4   -1    0    0  502    0  0.00000000000E+00  0.00000000000E+00  0.98837325727E+03  0.98837407320E+03  0.12700000000E+01 0.  1.
         -4   -1    0    0    0  501 -0.00000000000E+00 -0.00000000000E+00 -0.85070517197E+01  0.86013271628E+01  0.12700000000E+01 0.  1.
         25    2    1    2    0    0 -0.23157086211E+02 -0.42949398651E+02  0.67210748142E+03  0.68537255416E+03  0.12500467964E+03 0.  0.
    9000005    1    3    3    0    0 -0.32422335538E+02 -0.78948262402E+02  0.31583612514E+03  0.32716585078E+03  0.10000000000E+01 0.  0.
    9000005    1    3    3    0    0  0.92652493275E+01  0.35998863751E+02  0.35627135628E+03  0.35820670338E+03  0.10000000000E+01 0.  0.
         21    1    1    2  502  501  0.23157086211E+02  0.42949398651E+02  0.30775872413E+03  0.31160284621E+03  0.00000000000E+00 0.  1.
<mgrwt>
<rscale>  1 0.13419043E+03</rscale>
<asrwt>0</asrwt>
<pdfrwt beam="1">  1        4 0.15206471E+00 0.13419043E+03</pdfrwt>
<pdfrwt beam="2">  1       -4 0.13160921E-02 0.13419043E+03</pdfrwt>
<totfact> 0.98407310E+02</totfact>
</mgrwt>
</event>
<event>
 6    4  0.1195577E-003  0.1369476E+03  0.7818608E-02  0.1217496E+00
          4   -1    0    0  502    0  0.00000000000E+00  0.00000000000E+00  0.17790016814E+02  0.17835290809E+02  0.12700000000E+01 0.  1.
         -4   -1    0    0    0  501 -0.00000000000E+00 -0.00000000000E+00 -0.72214143218E+03  0.72214254893E+03  0.12700000000E+01 0.  1.
         25    2    1    2    0    0  0.44413039988E+02 -0.34013586932E+02 -0.64098471172E+03  0.65545103128E+03  0.12500084610E+03 0.  0.
    9000005    1    3    3    0    0  0.67784344976E+02  0.25886705393E+02 -0.35067492747E+03  0.35810437542E+03  0.10000000000E+01 0.  0.
    9000005    1    3    3    0    0 -0.23371304988E+02 -0.59900292325E+02 -0.29030978425E+03  0.29734665586E+03  0.10000000000E+01 0.  0.
         21    1    1    2  502  501 -0.44413039988E+02  0.34013586932E+02 -0.63366703642E+02  0.84526808454E+02  0.00000000000E+00 0.  1.
<mgrwt>
<rscale>  1 0.13694763E+03</rscale>
<asrwt>0</asrwt>
<pdfrwt beam="1">  1        4 0.27404947E-02 0.13694763E+03</pdfrwt>
<pdfrwt beam="2">  1       -4 0.11110223E+00 0.13694763E+03</pdfrwt>
<totfact> 0.69036200E+02</totfact>
</mgrwt>
</event>
<event>
 6    4  0.1195577E-003  0.1329798E+03  0.7818608E-02  0.1223100E+00
          4   -1    0    0  502    0  0.00000000000E+00  0.00000000000E+00  0.18561894890E+03  0.18562329351E+03  0.12700000000E+01 0. -1.
         -4   -1    0    0    0  501 -0.00000000000E+00 -0.00000000000E+00 -0.52635812778E+02  0.52651131866E+02  0.12700000000E+01 0. -1.
         25    2    1    2    0    0 -0.27251670388E+02  0.36267983138E+02  0.46970365067E+02  0.14103134374E+03  0.12500241831E+03 0.  0.
    9000005    1    3    3    0    0  0.17756547334E+02 -0.38951615069E+02  0.28520037036E+02  0.51448185607E+02  0.10000000000E+01 0.  0.
    9000005    1    3    3    0    0 -0.45008217722E+02  0.75219598207E+02  0.18450328031E+02  0.89583158134E+02  0.10000000000E+01 0.  0.
         21    1    1    2  502  501  0.27251670388E+02 -0.36267983138E+02  0.86012771061E+02  0.97243081632E+02  0.00000000000E+00 0. -1.
<mgrwt>
<rscale>  1 0.13297979E+03</rscale>
<asrwt>0</asrwt>
<pdfrwt beam="1">  1        4 0.28558274E-01 0.13297979E+03</pdfrwt>
<pdfrwt beam="2">  1       -4 0.80993298E-02 0.13297979E+03</pdfrwt>
<totfact> 0.20655805E+03</totfact>
</mgrwt>
</event>
<event>
 6    4  0.1195577E-003  0.1270197E+03  0.7818608E-02  0.1231946E+00
         -4   -1    0    0    0  501 -0.00000000000E+00  0.00000000000E+00  0.19471108547E+03  0.19471522720E+03  0.12700000000E+01 0. -1.
          4   -1    0    0  502    0  0.00000000000E+00 -0.00000000000E+00 -0.31860813839E+02  0.31886115450E+02  0.12700000000E+01 0. -1.
         25    2    1    2    0    0 -0.17461626115E+02  0.14279272913E+02  0.15934091481E+03  0.20377325454E+03  0.12500082444E+03 0.  0.
    9000005    1    3    3    0    0 -0.11234460232E+02  0.32044106694E+02 -0.83855181503E+01  0.34990781432E+02  0.10000000000E+01 0.  0.
    9000005    1    3    3    0    0 -0.62271658828E+01 -0.17764833781E+02  0.16772643296E+03  0.16878247311E+03  0.10000000000E+01 0.  0.
         21    1    1    2  502  501  0.17461626115E+02 -0.14279272913E+02  0.35093568162E+01  0.22828088110E+02  0.00000000000E+00 0. -1.
<mgrwt>
<rscale>  1 0.12701973E+03</rscale>
<asrwt>0</asrwt>
<pdfrwt beam="2">  1        4 0.49039285E-02 0.12701973E+03</pdfrwt>
<pdfrwt beam="1">  1       -4 0.29957816E-01 0.12701973E+03</pdfrwt>
<totfact> 0.42287662E+03</totfact>
</mgrwt>
</event>
<event>
 6    4  0.1195577E-003  0.1303602E+03  0.7818608E-02  0.1226922E+00
         -4   -1    0    0    0  501 -0.00000000000E+00  0.00000000000E+00  0.14307087941E+03  0.14307651601E+03  0.12700000000E+01 0.  1.
          4   -1    0    0  502    0  0.00000000000E+00 -0.00000000000E+00 -0.51217736498E+02  0.51233479600E+02  0.12700000000E+01 0.  1.
         25    2    1    2    0    0  0.35176282010E+02  0.11448258668E+02  0.87633640481E+02  0.15707778317E+03  0.12500136631E+03 0.  0.
    9000005    1    3    3    0    0  0.73943999264E+02  0.34430623775E+02  0.73589323368E+02  0.10986160109E+03  0.10000000000E+01 0.  0.
    9000005    1    3    3    0    0 -0.38767717254E+02 -0.22982365107E+02  0.14044317113E+02  0.47216182080E+02  0.10000000000E+01 0.  0.
         21    1    1    2  502  501 -0.35176282010E+02 -0.11448258668E+02  0.42195024278E+01  0.37232212442E+02  0.00000000000E+00 0.  1.
<mgrwt>
<rscale>  1 0.13036017E+03</rscale>
<asrwt>0</asrwt>
<pdfrwt beam="2">  1        4 0.78812964E-02 0.13036017E+03</pdfrwt>
<pdfrwt beam="1">  1       -4 0.22012549E-01 0.13036017E+03</pdfrwt>
<totfact> 0.34780767E+03</totfact>
</mgrwt>
</event>
<event>
 6    4  0.1195577E-003  0.1288261E+03  0.7818608E-02  0.1229208E+00
         -4   -1    0    0    0  501 -0.00000000000E+00  0.00000000000E+00  0.17534182009E+03  0.17534641933E+03  0.12700000000E+01 0. -1.
          4   -1    0    0  502    0  0.00000000000E+00 -0.00000000000E+00 -0.84671431986E+02  0.84680955914E+02  0.12700000000E+01 0. -1.
         25    2    1    2    0    0  0.25635060655E+02  0.17705213251E+02  0.14711965282E+03  0.19555140764E+03  0.12500211949E+03 0.  0.
    9000005    1    3    3    0    0 -0.14635805066E+02 -0.24130386279E+02 -0.84644693880E+01  0.29481003611E+02  0.10000000000E+01 0.  0.
    9000005    1    3    3    0    0  0.40270865721E+02  0.41835599530E+02  0.15558412220E+03  0.16607040403E+03  0.10000000000E+01 0.  0.
         21    1    1    2  502  501 -0.25635060655E+02 -0.17705213251E+02 -0.56449264714E+02  0.64475967599E+02  0.00000000000E+00 0. -1.
<mgrwt>
<rscale>  1 0.12882609E+03</rscale>
<asrwt>0</asrwt>
<pdfrwt beam="2">  1        4 0.13027461E-01 0.12882609E+03</pdfrwt>
<pdfrwt beam="1">  1       -4 0.26976751E-01 0.12882609E+03</pdfrwt>
<totfact> 0.10228631E+03</totfact>
</mgrwt>
</event>
<event>
 6    4  0.1195577E-003  0.1269841E+03  0.7818608E-02  0.1232001E+00
         -4   -1    0    0    0  501 -0.00000000000E+00  0.00000000000E+00  0.23371786876E+03  0.23372131926E+03  0.12700000000E+01 0.  1.
          4   -1    0    0  502    0  0.00000000000E+00 -0.00000000000E+00 -0.10314120962E+03  0.10314902822E+03  0.12700000000E+01 0.  1.
         25    2    1    2    0    0 -0.13012488556E+01  0.22318258847E+02  0.21491101124E+03  0.24962310757E+03  0.12500062061E+03 0.  0.
    9000005    1    3    3    0    0  0.34269017531E+02 -0.42347917324E+01  0.48045631082E+01  0.34876680608E+02  0.10000000000E+01 0.  0.
    9000005    1    3    3    0    0 -0.35570266387E+02  0.26553050579E+02  0.21010644814E+03  0.21474642696E+03  0.10000000000E+01 0.  0.
         21    1    1    2  502  501  0.13012488556E+01 -0.22318258847E+02 -0.84334352107E+02  0.87247239910E+02  0.00000000000E+00 0.  1.
<mgrwt>
<rscale>  1 0.12698407E+03</rscale>
<asrwt>0</asrwt>
<pdfrwt beam="2">  1        4 0.15868745E-01 0.12698407E+03</pdfrwt>
<pdfrwt beam="1">  1       -4 0.35957462E-01 0.12698407E+03</pdfrwt>
<totfact> 0.41964811E+02</totfact>
</mgrwt>
</event>
<event>
 6    4  0.1195577E-003  0.1329275E+03  0.7818608E-02  0.1223175E+00
          4   -1    0    0  502    0  0.00000000000E+00  0.00000000000E+00  0.69671013578E+02  0.69682587732E+02  0.12700000000E+01 0.  1.
         -4   -1    0    0    0  501 -0.00000000000E+00 -0.00000000000E+00 -0.12668513394E+03  0.12669149957E+03  0.12700000000E+01 0.  1.
         25    2    1    2    0    0 -0.14657578136E+02 -0.42776701629E+02 -0.68755342653E+02  0.14965634870E+03  0.12500013905E+03 0.  0.
    9000005    1    3    3    0    0 -0.52810800123E+02  0.22369940764E+02 -0.31956003928E+02  0.65662630517E+02  0.10000000000E+01 0.  0.
    9000005    1    3    3    0    0  0.38153221987E+02 -0.65146642393E+02 -0.36799338725E+02  0.83993718180E+02  0.10000000000E+01 0.  0.
         21    1    1    2  502  501  0.14657578136E+02  0.42776701629E+02  0.11741222288E+02  0.46717738600E+02  0.00000000000E+00 0.  1.
<mgrwt>
<rscale>  1 0.13292752E+03</rscale>
<asrwt>0</asrwt>
<pdfrwt beam="1">  1        4 0.10719997E-01 0.13292752E+03</pdfrwt>
<pdfrwt beam="2">  1       -4 0.19491401E-01 0.13292752E+03</pdfrwt>
<totfact> 0.26013807E+03</totfact>
</mgrwt>
</event>
<event>
 6    4  0.1195577E-003  0.1319454E+03  0.7818608E-02  0.1224597E+00
          4   -1    0    0  502    0  0.00000000000E+00  0.00000000000E+00  0.19605629576E+04  0.19605633689E+04  0.12700000000E+01 0.  1.
         -4   -1    0    0    0  501 -0.00000000000E+00 -0.00000000000E+00 -0.38718941849E+01  0.40748576145E+01  0.12700000000E+01 0.  1.
         25    2    1    2    0    0  0.39921998546E+02 -0.13843241167E+02  0.13317716213E+04  0.13382919082E+04  0.12499671651E+03 0.  0.
    9000005    1    3    3    0    0  0.34507696588E+02  0.34097093472E+02  0.21203827005E+03  0.21751924254E+03  0.10000000000E+01 0.  0.
    9000005    1    3    3    0    0  0.54143019584E+01 -0.47940334639E+02  0.11197333512E+04  0.11207726657E+04  0.10000000000E+01 0.  0.
         21    1    1    2  502  501 -0.39921998546E+02  0.13843241167E+02  0.62491944213E+03  0.62634631830E+03  0.00000000000E+00 0. -1.
<mgrwt>
<rscale>  1 0.13194537E+03</rscale>
<asrwt>0</asrwt>
<pdfrwt beam="1">  1        4 0.30164044E+00 0.13194537E+03</pdfrwt>
<pdfrwt beam="2">  1       -4 0.61132079E-03 0.13194537E+03</pdfrwt>
<totfact> 0.37795873E+02</totfact>
</mgrwt>
</event>
<event>
 6    4  0.1195577E-003  0.1318449E+03  0.7818608E-02  0.1224744E+00
         -4   -1    0    0    0  501 -0.00000000000E+00  0.00000000000E+00  0.17263043509E+03  0.17263510657E+03  0.12700000000E+01 0.  1.
          4   -1    0    0  502    0  0.00000000000E+00 -0.00000000000E+00 -0.44117468872E+02  0.44135744694E+02  0.12700000000E+01 0.  1.
         25    2    1    2    0    0  0.73811081710E+01  0.41277065155E+02  0.10603878504E+03  0.16919600827E+03  0.12499915367E+03 0.  0.
    9000005    1    3    3    0    0  0.37999528519E+02 -0.33585923082E+02  0.45791876619E+02  0.68336478994E+02  0.10000000000E+01 0.  0.
    9000005    1    3    3    0    0 -0.30618420348E+02  0.74862988237E+02  0.60246908418E+02  0.10085952928E+03  0.10000000000E+01 0.  0.
         21    1    1    2  502  501 -0.73811081710E+01 -0.41277065155E+02  0.22474181180E+02  0.47574842988E+02  0.00000000000E+00 0.  1.
<mgrwt>
<rscale>  1 0.13184485E+03</rscale>
<asrwt>0</asrwt>
<pdfrwt beam="2">  1        4 0.67890680E-02 0.13184485E+03</pdfrwt>
<pdfrwt beam="1">  1       -4 0.26560294E-01 0.13184485E+03</pdfrwt>
<totfact> 0.31568157E+03</totfact>
</mgrwt>
</event>
<event>
 6    4  0.1195577E-003  0.1269016E+03  0.7818608E-02  0.1232127E+00
          4   -1    0    0  502    0  0.00000000000E+00  0.00000000000E+00  0.15836608804E+04  0.15836613897E+04  0.12700000000E+01 0.  1.
         -4   -1    0    0    0  501 -0.00000000000E+00 -0.00000000000E+00 -0.51155900295E+01  0.52708786127E+01  0.12700000000E+01 0.  1.
         25    2    1    2    0    0 -0.21859091632E+02  0.41908433873E+00  0.79356463644E+03  0.80364721009E+03  0.12500404215E+03 0.  0.
    9000005    1    3    3    0    0 -0.36407697374E+02  0.27023235903E+02  0.74503888100E+03  0.74641791907E+03  0.10000000000E+01 0.  0.
    9000005    1    3    3    0    0  0.14548605742E+02 -0.26604151564E+02  0.48525755445E+02  0.57229291022E+02  0.10000000000E+01 0.  0.
         21    1    1    2  502  501  0.21859091632E+02 -0.41908433873E+00  0.78498065397E+03  0.78528505819E+03  0.00000000000E+00 0.  1.
<mgrwt>
<rscale>  1 0.12690156E+03</rscale>
<asrwt>0</asrwt>
<pdfrwt beam="1">  1        4 0.24365185E+00 0.12690156E+03</pdfrwt>
<pdfrwt beam="2">  1       -4 0.79899919E-03 0.12690156E+03</pdfrwt>
<totfact> 0.54282154E+02</totfact>
</mgrwt>
</event>
<event>
 6    4  0.1195577E-003  0.1270583E+03  0.7818608E-02  0.1231887E+00
         -4   -1    0    0    0  501 -0.00000000000E+00  0.00000000000E+00  0.56060481447E+02  0.56074864958E+02  0.12700000000E+01 0. -1.
          4   -1    0    0  502    0  0.00000000000E+00 -0.00000000000E+00 -0.14545756026E+03  0.14546310438E+03  0.12700000000E+01 0. -1.
         25    2    1    2    0    0  0.22315139870E+02 -0.44775837594E+01 -0.20149620764E+02  0.12864609963E+03  0.12500319000E+03 0.  0.
    9000005    1    3    3    0    0  0.41272217137E+02  0.52550699058E+02 -0.13461579209E+02  0.68170272067E+02  0.10000000000E+01 0.  0.
    9000005    1    3    3    0    0 -0.18957077268E+02 -0.57028282817E+02 -0.66880415554E+01  0.60475827563E+02  0.10000000000E+01 0.  0.
         21    1    1    2  502  501 -0.22315139870E+02  0.44775837594E+01 -0.69247458046E+02  0.72891869708E+02  0.00000000000E+00 0. -1.
<mgrwt>
<rscale>  1 0.12705830E+03</rscale>
<asrwt>0</asrwt>
<pdfrwt beam="2">  1        4 0.22379619E-01 0.12705830E+03</pdfrwt>
<pdfrwt beam="1">  1       -4 0.86262224E-02 0.12705830E+03</pdfrwt>
<totfact> 0.28875972E+03</totfact>
</mgrwt>
</event>
<event>
 6    4  0.1195577E-003  0.1307973E+03  0.7818608E-02  0.1226277E+00
          4   -1    0    0  502    0  0.00000000000E+00  0.00000000000E+00  0.11965010997E+03  0.11965684985E+03  0.12700000000E+01 0.  1.
         -4   -1    0    0    0  501 -0.00000000000E+00 -0.00000000000E+00 -0.60879170329E+02  0.60892415620E+02  0.12700000000E+01 0.  1.
         25    2    1    2    0    0 -0.38459643477E+02  0.18400692380E+01  0.54898868079E+02  0.14185142355E+03  0.12500164245E+03 0.  0.
    9000005    1    3    3    0    0  0.38042107417E+02 -0.23253265942E+02  0.40120650143E+02  0.59988189518E+02  0.10000000000E+01 0.  0.
    9000005    1    3    3    0    0 -0.76501750894E+02  0.25093335180E+02  0.14778217935E+02  0.81863234029E+02  0.10000000000E+01 0.  0.
         21    1    1    2  502  501  0.38459643477E+02 -0.18400692380E+01  0.38720715606E+01  0.38697841921E+02  0.00000000000E+00 0.  1.
<mgrwt>
<rscale>  1 0.13079733E+03</rscale>
<asrwt>0</asrwt>
<pdfrwt beam="1">  1        4 0.18409247E-01 0.13079733E+03</pdfrwt>
<pdfrwt beam="2">  1       -4 0.93675634E-02 0.13079733E+03</pdfrwt>
<totfact> 0.36016855E+03</totfact>
</mgrwt>
</event>
<event>
 6    4  0.1195577E-003  0.1266473E+03  0.7818608E-02  0.1232517E+00
          4   -1    0    0  502    0  0.00000000000E+00  0.00000000000E+00  0.45524418182E+02  0.45542129406E+02  0.12700000000E+01 0.  1.
         -4   -1    0    0    0  501 -0.00000000000E+00 -0.00000000000E+00 -0.14622066376E+03  0.14622617895E+03  0.12700000000E+01 0.  1.
         25    2    1    2    0    0 -0.18606541645E+01 -0.20215317604E+02 -0.11153169782E+03  0.16875683024E+03  0.12500970776E+03 0.  0.
    9000005    1    3    3    0    0 -0.35702108735E+02 -0.49162568251E+02 -0.15221117978E+02  0.62644082862E+02  0.10000000000E+01 0.  0.
    9000005    1    3    3    0    0  0.33841454570E+02  0.28947250647E+02 -0.96310579841E+02  0.10611274738E+03  0.10000000000E+01 0.  0.
         21    1    1    2  502  501  0.18606541645E+01  0.20215317604E+02  0.10835452241E+02  0.23011478114E+02  0.00000000000E+00 0.  1.
<mgrwt>
<rscale>  1 0.12664734E+03</rscale>
<asrwt>0</asrwt>
<pdfrwt beam="1">  1        4 0.70055433E-02 0.12664734E+03</pdfrwt>
<pdfrwt beam="2">  1       -4 0.22497273E-01 0.12664734E+03</pdfrwt>
<totfact> 0.40296516E+03</totfact>
</mgrwt>
</event>
<event>
 6    4  0.1195577E-003  0.1281615E+03  0.7818608E-02  0.1230210E+00
          4   -1    0    0  502    0  0.00000000000E+00  0.00000000000E+00  0.24216826862E+03  0.24217159872E+03  0.12700000000E+01 0.  1.
         -4   -1    0    0    0  501 -0.00000000000E+00 -0.00000000000E+00 -0.25350359662E+02  0.25382151899E+02  0.12700000000E+01 0.  1.
         25    2    1    2    0    0  0.89040302715E+01  0.26853374788E+02  0.18383445644E+03  0.22409924990E+03  0.12499992376E+03 0.  0.
    9000005    1    3    3    0    0  0.51595336666E+01 -0.20509541555E+02 -0.10785826278E+02  0.23761231680E+02  0.10000000000E+01 0.  0.
    9000005    1    3    3    0    0  0.37444966049E+01  0.47362916342E+02  0.19462028272E+03  0.20033801822E+03  0.10000000000E+01 0.  0.
         21    1    1    2  502  501 -0.89040302715E+01 -0.26853374788E+02  0.32983452513E+02  0.43454500714E+02  0.00000000000E+00 0.  1.
<mgrwt>
<rscale>  1 0.12816149E+03</rscale>
<asrwt>0</asrwt>
<pdfrwt beam="1">  1        4 0.37259359E-01 0.12816149E+03</pdfrwt>
<pdfrwt beam="2">  1       -4 0.39027570E-02 0.12816149E+03</pdfrwt>
<totfact> 0.40162071E+03</totfact>
</mgrwt>
</event>
<event>
 6    4  0.1195577E-003  0.1268672E+03  0.7818608E-02  0.1232180E+00
          4   -1    0    0  502    0  0.00000000000E+00  0.00000000000E+00  0.16176288847E+03  0.16176787377E+03  0.12700000000E+01 0.  1.
         -4   -1    0    0    0  501 -0.00000000000E+00 -0.00000000000E+00 -0.45042198862E+02  0.45060099627E+02  0.12700000000E+01 0.  1.
         25    2    1    2    0    0  0.12346956688E+02  0.17827794503E+02  0.49476531491E+02  0.13617350152E+03  0.12500007101E+03 0.  0.
    9000005    1    3    3    0    0 -0.35197673893E+02  0.71650038740E+01  0.73518431482E+02  0.81830149062E+02  0.10000000000E+01 0.  0.
    9000005    1    3    3    0    0  0.47544630582E+02  0.10662790629E+02 -0.24041899991E+02  0.54343352457E+02  0.10000000000E+01 0.  0.
         21    1    1    2  502  501 -0.12346956688E+02 -0.17827794503E+02  0.67244158113E+02  0.70654471880E+02  0.00000000000E+00 0.  1.
<mgrwt>
<rscale>  1 0.12686724E+03</rscale>
<asrwt>0</asrwt>
<pdfrwt beam="1">  1        4 0.24888358E-01 0.12686724E+03</pdfrwt>
<pdfrwt beam="2">  1       -4 0.69313296E-02 0.12686724E+03</pdfrwt>
<totfact> 0.34095486E+03</totfact>
</mgrwt>
</event>
<event>
 6    4  0.1195577E-003  0.1297156E+03  0.7818608E-02  0.1227878E+00
          4   -1    0    0  502    0  0.00000000000E+00  0.00000000000E+00  0.16578178565E+04  0.16578183429E+04  0.12700000000E+01 0. -1.
         -4   -1    0    0    0  501 -0.00000000000E+00 -0.00000000000E+00 -0.82799949592E+01  0.83768261605E+01  0.12700000000E+01 0. -1.
         25    2    1    2    0    0  0.43291628188E+00 -0.34662169235E+02  0.51356221858E+03  0.52969074115E+03  0.12499790202E+03 0.  0.
    9000005    1    3    3    0    0  0.53807151970E+02  0.61537596638E+01  0.13963439645E+03  0.14977263779E+03  0.10000000000E+01 0.  0.
    9000005    1    3    3    0    0 -0.53374235688E+02 -0.40815928898E+02  0.37392782214E+03  0.37991810335E+03  0.10000000000E+01 0.  0.
         21    1    1    2  502  501 -0.43291628188E+00  0.34662169235E+02  0.11359756429E+04  0.11365044279E+04  0.00000000000E+00 0. -1.
<mgrwt>
<rscale>  1 0.12971557E+03</rscale>
<asrwt>0</asrwt>
<pdfrwt beam="1">  1        4 0.25505625E+00 0.12971557E+03</pdfrwt>
<pdfrwt beam="2">  1       -4 0.12813321E-02 0.12971557E+03</pdfrwt>
<totfact> 0.23006411E+02</totfact>
</mgrwt>
</event>
<event>
 6    4  0.1195577E-003  0.1277701E+03  0.7818608E-02  0.1230802E+00
         -4   -1    0    0    0  501 -0.00000000000E+00  0.00000000000E+00  0.14939813151E+03  0.14940352940E+03  0.12700000000E+01 0.  1.
          4   -1    0    0  502    0  0.00000000000E+00 -0.00000000000E+00 -0.40656163921E+02  0.40675994945E+02  0.12700000000E+01 0.  1.
         25    2    1    2    0    0 -0.22428294038E+02 -0.14046473871E+02  0.99862730689E+02  0.16216586014E+03  0.12499947765E+03 0.  0.
    9000005    1    3    3    0    0 -0.13939833989E+02  0.38497850187E+02 -0.81388503534E+01  0.41756967391E+02  0.10000000000E+01 0.  0.
    9000005    1    3    3    0    0 -0.84884600494E+01 -0.52544324058E+02  0.10800158104E+03  0.12040889275E+03  0.10000000000E+01 0.  0.
         21    1    1    2  502  501  0.22428294038E+02  0.14046473871E+02  0.88792368956E+01  0.27913664208E+02  0.00000000000E+00 0.  1.
<mgrwt>
<rscale>  1 0.12777011E+03</rscale>
<asrwt>0</asrwt>
<pdfrwt beam="2">  1        4 0.62567353E-02 0.12777011E+03</pdfrwt>
<pdfrwt beam="1">  1       -4 0.22986268E-01 0.12777011E+03</pdfrwt>
<totfact> 0.46707773E+03</totfact>
</mgrwt>
</event>
<event>
 6    4  0.1195577E-003  0.1266755E+03  0.7818608E-02  0.1232474E+00
          4   -1    0    0  502    0  0.00000000000E+00  0.00000000000E+00  0.21753232492E+03  0.21753603215E+03  0.12700000000E+01 0.  1.
         -4   -1    0    0    0  501 -0.00000000000E+00 -0.00000000000E+00 -0.25647813260E+02  0.25679237236E+02  0.12700000000E+01 0.  1.
         25    2    1    2    0    0 -0.14890047250E+02 -0.14101597010E+02  0.14823313371E+03  0.19498652959E+03  0.12500446491E+03 0.  0.
    9000005    1    3    3    0    0 -0.39205417419E+02 -0.89473149834E+01  0.16174910761E+03  0.16667601211E+03  0.10000000000E+01 0.  0.
    9000005    1    3    3    0    0  0.24315370169E+02 -0.51542820269E+01 -0.13515973900E+02  0.28310517483E+02  0.10000000000E+01 0.  0.
         21    1    1    2  502  501  0.14890047250E+02  0.14101597010E+02  0.43651377950E+02  0.48228739796E+02  0.00000000000E+00 0. -1.
<mgrwt>
<rscale>  1 0.12667551E+03</rscale>
<asrwt>0</asrwt>
<pdfrwt beam="1">  1        4 0.33469213E-01 0.12667551E+03</pdfrwt>
<pdfrwt beam="2">  1       -4 0.39485199E-02 0.12667551E+03</pdfrwt>
<totfact> 0.48355381E+03</totfact>
</mgrwt>
</event>
<event>
 6    4  0.1195577E-003  0.1281107E+03  0.7818608E-02  0.1230286E+00
          4   -1    0    0  502    0  0.00000000000E+00  0.00000000000E+00  0.53810874580E+02  0.53825859241E+02  0.12700000000E+01 0. -1.
         -4   -1    0    0    0  501 -0.00000000000E+00 -0.00000000000E+00 -0.32075767320E+03  0.32076018740E+03  0.12700000000E+01 0. -1.
         25    2    1    2    0    0 -0.20990946364E+02  0.18612241642E+02 -0.30296119816E+03  0.32893440545E+03  0.12500128051E+03 0.  0.
    9000005    1    3    3    0    0  0.24517327256E+02 -0.32752271850E+02 -0.40229898551E+02  0.57386892097E+02  0.10000000000E+01 0.  0.
    9000005    1    3    3    0    0 -0.45508273621E+02  0.51364513492E+02 -0.26273129961E+03  0.27154751336E+03  0.10000000000E+01 0.  0.
         21    1    1    2  502  501  0.20990946364E+02 -0.18612241642E+02  0.36014399542E+02  0.45651641182E+02  0.00000000000E+00 0. -1.
<mgrwt>
<rscale>  1 0.12811072E+03</rscale>
<asrwt>0</asrwt>
<pdfrwt beam="1">  1        4 0.82799423E-02 0.12811072E+03</pdfrwt>
<pdfrwt beam="2">  1       -4 0.49348679E-01 0.12811072E+03</pdfrwt>
<totfact> 0.67988779E+02</totfact>
</mgrwt>
</event>
<event>
 6    4  0.1195577E-003  0.1298607E+03  0.7818608E-02  0.1227663E+00
         -4   -1    0    0    0  501 -0.00000000000E+00  0.00000000000E+00  0.15411244978E+03  0.15411768256E+03  0.12700000000E+01 0.  1.
          4   -1    0    0  502    0  0.00000000000E+00 -0.00000000000E+00 -0.62904347184E+02  0.62917166137E+02  0.12700000000E+01 0.  1.
         25    2    1    2    0    0 -0.24482733183E+02 -0.25287330993E+02  0.11588465461E+03  0.17404897250E+03  0.12499975328E+03 0.  0.
    9000005    1    3    3    0    0  0.34971844103E+02  0.13381786491E+02  0.91788130209E+02  0.99137091630E+02  0.10000000000E+01 0.  0.
    9000005    1    3    3    0    0 -0.59454577285E+02 -0.38669117483E+02  0.24096524403E+02  0.74911880869E+02  0.10000000000E+01 0.  0.
         21    1    1    2  502  501  0.24482733183E+02  0.25287330993E+02 -0.24676552017E+02  0.42985876195E+02  0.00000000000E+00 0.  1.
<mgrwt>
<rscale>  1 0.12986066E+03</rscale>
<asrwt>0</asrwt>
<pdfrwt beam="2">  1        4 0.96789807E-02 0.12986066E+03</pdfrwt>
<pdfrwt beam="1">  1       -4 0.23710996E-01 0.12986066E+03</pdfrwt>
<totfact> 0.21546630E+03</totfact>
</mgrwt>
</event>
<event>
 6    4  0.1195577E-003  0.1348794E+03  0.7818608E-02  0.1220390E+00
          4   -1    0    0  502    0  0.00000000000E+00  0.00000000000E+00  0.20140130639E+03  0.20140531054E+03  0.12700000000E+01 0.  1.
         -4   -1    0    0    0  501 -0.00000000000E+00 -0.00000000000E+00 -0.47083172834E+02  0.47100297919E+02  0.12700000000E+01 0.  1.
         25    2    1    2    0    0  0.50580441535E+02 -0.28871768900E+01  0.74834473510E+02  0.15424867731E+03  0.12500295665E+03 0.  0.
    9000005    1    3    3    0    0  0.59966028995E+02 -0.26021053969E+02  0.99554437961E+02  0.11910124265E+03  0.10000000000E+01 0.  0.
    9000005    1    3    3    0    0 -0.93855874607E+01  0.23133877079E+02 -0.24719964451E+02  0.35147434660E+02  0.10000000000E+01 0.  0.
         21    1    1    2  502  501 -0.50580441535E+02  0.28871768900E+01  0.79483660046E+02  0.94256931154E+02  0.00000000000E+00 0.  1.
<mgrwt>
<rscale>  1 0.13487941E+03</rscale>
<asrwt>0</asrwt>
<pdfrwt beam="1">  1        4 0.30986442E-01 0.13487941E+03</pdfrwt>
<pdfrwt beam="2">  1       -4 0.72451904E-02 0.13487941E+03</pdfrwt>
<totfact> 0.21351951E+03</totfact>
</mgrwt>
</event>
<event>
 6    4  0.1195577E-003  0.1266565E+03  0.7818608E-02  0.1232503E+00
         -4   -1    0    0    0  501 -0.00000000000E+00  0.00000000000E+00  0.60570139045E+02  0.60583451899E+02  0.12700000000E+01 0.  1.
          4   -1    0    0  502    0  0.00000000000E+00 -0.00000000000E+00 -0.90088607770E+02  0.90097559068E+02  0.12700000000E+01 0.  1.
         25    2    1    2    0    0 -0.10261808264E+02  0.17636068159E+02 -0.20229719301E+02  0.12826190138E+03  0.12500215275E+03 0.  0.
    9000005    1    3    3    0    0  0.25463558660E+02  0.29896667215E+02 -0.61076677169E+02  0.72619308894E+02  0.10000000000E+01 0.  0.
    9000005    1    3    3    0    0 -0.35725366924E+02 -0.12260599056E+02  0.40846957868E+02  0.55642592482E+02  0.10000000000E+01 0.  0.
         21    1    1    2  502  501  0.10261808264E+02 -0.17636068159E+02 -0.92887494241E+01  0.22419109590E+02  0.00000000000E+00 0.  1.
<mgrwt>
<rscale>  1 0.12665652E+03</rscale>
<asrwt>0</asrwt>
<pdfrwt beam="2">  1        4 0.13861498E-01 0.12665652E+03</pdfrwt>
<pdfrwt beam="1">  1       -4 0.93201955E-02 0.12665652E+03</pdfrwt>
<totfact> 0.59288559E+03</totfact>
</mgrwt>
</event>
<event>
 6    4  0.1195577E-003  0.1352085E+03  0.7818608E-02  0.1219926E+00
          4   -1    0    0  502    0  0.00000000000E+00  0.00000000000E+00  0.13265851737E+02  0.13326504504E+02  0.12700000000E+01 0. -1.
         -4   -1    0    0    0  501 -0.00000000000E+00 -0.00000000000E+00 -0.79473594339E+03  0.79473695813E+03  0.12700000000E+01 0. -1.
         25    2    1    2    0    0 -0.52434949174E+01  0.51295587619E+02 -0.68943838148E+03  0.70257143817E+03  0.12499044894E+03 0.  0.
    9000005    1    3    3    0    0  0.46583173995E+02  0.38730628502E+02 -0.54920703174E+03  0.55253906414E+03  0.10000000000E+01 0.  0.
    9000005    1    3    3    0    0 -0.51826668912E+02  0.12564959117E+02 -0.14023134974E+03  0.15003237403E+03  0.10000000000E+01 0.  0.
         21    1    1    2  502  501  0.52434949174E+01 -0.51295587619E+02 -0.92031710174E+02  0.10549202446E+03  0.00000000000E+00 0. -1.
<mgrwt>
<rscale>  1 0.13520852E+03</rscale>
<asrwt>0</asrwt>
<pdfrwt beam="1">  1        4 0.20456445E-02 0.13520852E+03</pdfrwt>
<pdfrwt beam="2">  1       -4 0.12227178E+00 0.13520852E+03</pdfrwt>
<totfact> 0.86241498E+02</totfact>
</mgrwt>
</event>
<event>
 6    4  0.1195577E-003  0.1282740E+03  0.7818608E-02  0.1230040E+00
          4   -1    0    0  502    0  0.00000000000E+00  0.00000000000E+00  0.64244384426E+03  0.64244509955E+03  0.12700000000E+01 0. -1.
         -4   -1    0    0    0  501 -0.00000000000E+00 -0.00000000000E+00 -0.96122069029E+01  0.96957424442E+01  0.12700000000E+01 0. -1.
         25    2    1    2    0    0  0.28381675325E+02  0.48100009626E+01  0.49643491213E+03  0.51273954265E+03  0.12500224404E+03 0.  0.
    9000005    1    3    3    0    0 -0.27668970006E+02  0.45892699038E+02  0.29021103567E+03  0.29511888613E+03  0.10000000000E+01 0.  0.
    9000005    1    3    3    0    0  0.56050645331E+02 -0.41082698076E+02  0.20622387646E+03  0.21762065652E+03  0.10000000000E+01 0.  0.
         21    1    1    2  502  501 -0.28381675325E+02 -0.48100009626E+01  0.13639672523E+03  0.13940129934E+03  0.00000000000E+00 0. -1.
<mgrwt>
<rscale>  1 0.12827399E+03</rscale>
<asrwt>0</asrwt>
<pdfrwt beam="1">  1        4 0.98844066E-01 0.12827399E+03</pdfrwt>
<pdfrwt beam="2">  1       -4 0.14853230E-02 0.12827399E+03</pdfrwt>
<totfact> 0.22982292E+03</totfact>
</mgrwt>
</event>
<event>
 6    4  0.1195577E-003  0.1275489E+03  0.7818608E-02  0.1231139E+00
          4   -1    0    0  502    0  0.00000000000E+00  0.00000000000E+00  0.15906818460E+02  0.15957436308E+02  0.12700000000E+01 0.  1.
         -4   -1    0    0    0  501 -0.00000000000E+00 -0.00000000000E+00 -0.37281392270E+03  0.37281608584E+03  0.12700000000E+01 0.  1.
         25    2    1    2    0    0 -0.25296454073E+02 -0.33331996086E+01 -0.31300613584E+03  0.33799640294E+03  0.12497082267E+03 0.  0.
    9000005    1    3    3    0    0 -0.26214637324E+02  0.57573356285E+02 -0.19782773653E+03  0.20769860834E+03  0.10000000000E+01 0.  0.
    9000005    1    3    3    0    0  0.91818325068E+00 -0.60906555894E+02 -0.11517839931E+03  0.13029779460E+03  0.10000000000E+01 0.  0.
         21    1    1    2  502  501  0.25296454073E+02  0.33331996086E+01 -0.43900968402E+02  0.50777119207E+02  0.00000000000E+00 0. -1.
<mgrwt>
<rscale>  1 0.12754892E+03</rscale>
<asrwt>0</asrwt>
<pdfrwt beam="1">  1        4 0.24512632E-02 0.12754892E+03</pdfrwt>
<pdfrwt beam="2">  1       -4 0.57360042E-01 0.12754892E+03</pdfrwt>
<totfact> 0.34921838E+03</totfact>
</mgrwt>
</event>
<event>
 6    4  0.1195577E-003  0.1419617E+03  0.7818608E-02  0.1210713E+00
          4   -1    0    0  502    0  0.00000000000E+00  0.00000000000E+00  0.41653694785E+03  0.41653888393E+03  0.12700000000E+01 0. -1.
         -4   -1    0    0    0  501 -0.00000000000E+00 -0.00000000000E+00 -0.64494678383E+02  0.64507181303E+02  0.12700000000E+01 0. -1.
         25    2    1    2    0    0  0.25250964939E+01 -0.67247151615E+02  0.21328340312E+02  0.14355494172E+03  0.12499827070E+03 0.  0.
    9000005    1    3    3    0    0  0.54183646722E+01 -0.29533428371E+02  0.73329184626E+02  0.79244882390E+02  0.10000000000E+01 0.  0.
    9000005    1    3    3    0    0 -0.28932681783E+01 -0.37713723244E+02 -0.52000844313E+02  0.64310059330E+02  0.10000000000E+01 0.  0.
         21    1    1    2  502  501 -0.25250964939E+01  0.67247151615E+02  0.33071392916E+03  0.33749112352E+03  0.00000000000E+00 0. -1.
<mgrwt>
<rscale>  1 0.14196170E+03</rscale>
<asrwt>0</asrwt>
<pdfrwt beam="1">  1        4 0.64083719E-01 0.14196170E+03</pdfrwt>
<pdfrwt beam="2">  1       -4 0.99233688E-02 0.14196170E+03</pdfrwt>
<totfact> 0.29775447E+02</totfact>
</mgrwt>
</event>
<event>
 6    4  0.1195577E-003  0.1411659E+03  0.7818608E-02  0.1211769E+00
         -4   -1    0    0    0  501 -0.00000000000E+00  0.00000000000E+00  0.11879575614E+02  0.11947268172E+02  0.12700000000E+01 0. -1.
          4   -1    0    0  502    0  0.00000000000E+00 -0.00000000000E+00 -0.11029464894E+04  0.11029472206E+04  0.12700000000E+01 0. -1.
         25    2    1    2    0    0 -0.59772338209E+02 -0.27025037273E+02 -0.48031576350E+03  0.50063065892E+03  0.12499895574E+03 0.  0.
    9000005    1    3    3    0    0 -0.17763794114E+02 -0.55117131424E+02 -0.89800137024E+02  0.10685745256E+03  0.10000000000E+01 0.  0.
    9000005    1    3    3    0    0 -0.42008544095E+02  0.28092094152E+02 -0.39051562647E+03  0.39377320636E+03  0.10000000000E+01 0.  0.
         21    1    1    2  502  501  0.59772338209E+02  0.27025037273E+02 -0.61075115031E+03  0.61426382985E+03  0.00000000000E+00 0.  1.
<mgrwt>
<rscale>  1 0.14116594E+03</rscale>
<asrwt>0</asrwt>
<pdfrwt beam="2">  1        4 0.16968926E+00 0.14116594E+03</pdfrwt>
<pdfrwt beam="1">  1       -4 0.18328912E-02 0.14116594E+03</pdfrwt>
<totfact> 0.44999610E+02</totfact>
</mgrwt>
</event>
<event>
 6    4  0.1195577E-003  0.1325109E+03  0.7818608E-02  0.1223777E+00
         -4   -1    0    0    0  501 -0.00000000000E+00  0.00000000000E+00  0.32823295032E+02  0.32847855284E+02  0.12700000000E+01 0.  1.
          4   -1    0    0  502    0  0.00000000000E+00 -0.00000000000E+00 -0.25741775206E+03  0.25742088489E+03  0.12700000000E+01 0.  1.
         25    2    1    2    0    0 -0.62040734925E+00 -0.43948196787E+02 -0.12842892009E+03  0.18453492628E+03  0.12500929003E+03 0.  0.
    9000005    1    3    3    0    0 -0.57751075721E+02 -0.44312312067E+02 -0.53695488270E+02  0.90459787797E+02  0.10000000000E+01 0.  0.
    9000005    1    3    3    0    0  0.57130668372E+02  0.36411527921E+00 -0.74733431821E+02  0.94075138481E+02  0.10000000000E+01 0.  0.
         21    1    1    2  502  501  0.62040734925E+00  0.43948196787E+02 -0.96165536937E+02  0.10573381389E+03  0.00000000000E+00 0.  1.
<mgrwt>
<rscale>  1 0.13251095E+03</rscale>
<asrwt>0</asrwt>
<pdfrwt beam="2">  1        4 0.39604860E-01 0.13251095E+03</pdfrwt>
<pdfrwt beam="1">  1       -4 0.50518681E-02 0.13251095E+03</pdfrwt>
<totfact> 0.23802848E+03</totfact>
</mgrwt>
</event>
<event>
 6    4  0.1195577E-003  0.1312868E+03  0.7818608E-02  0.1225559E+00
          4   -1    0    0  502    0  0.00000000000E+00  0.00000000000E+00  0.38754534015E+03  0.38754742107E+03  0.12700000000E+01 0.  1.
         -4   -1    0    0    0  501 -0.00000000000E+00 -0.00000000000E+00 -0.13663478938E+03  0.13664069148E+03  0.12700000000E+01 0.  1.
         25    2    1    2    0    0  0.23521387480E+02  0.32505172493E+02 -0.10370807331E+03  0.16730688517E+03  0.12500554966E+03 0.  0.
    9000005    1    3    3    0    0  0.49107440085E+02 -0.16243252958E+02 -0.99421795257E+02  0.11207621206E+03  0.10000000000E+01 0.  0.
    9000005    1    3    3    0    0 -0.25586052604E+02  0.48748425451E+02 -0.42862780539E+01  0.55230673102E+02  0.10000000000E+01 0.  0.
         21    1    1    2  502  501 -0.23521387480E+02 -0.32505172493E+02  0.35461862409E+03  0.35688122738E+03  0.00000000000E+00 0.  1.
<mgrwt>
<rscale>  1 0.13128682E+03</rscale>
<asrwt>0</asrwt>
<pdfrwt beam="1">  1        4 0.59622974E-01 0.13128682E+03</pdfrwt>
<pdfrwt beam="2">  1       -4 0.21021351E-01 0.13128682E+03</pdfrwt>
<totfact> 0.92544159E+01</totfact>
</mgrwt>
</event>
<event>
 6    4  0.1195577E-003  0.1503459E+03  0.7818608E-02  0.1200049E+00
          4   -1    0    0  502    0  0.00000000000E+00  0.00000000000E+00  0.29919546002E+02  0.29946487824E+02  0.12700000000E+01 0.  1.
         -4   -1    0    0    0  501 -0.00000000000E+00 -0.00000000000E+00 -0.47832817560E+03  0.47832986157E+03  0.12700000000E+01 0.  1.
         25    2    1    2    0    0  0.24996302688E+01 -0.83510802703E+02 -0.23368859357E+03  0.27787453475E+03  0.12499438379E+03 0.  0.
    9000005    1    3    3    0    0  0.62611331018E+02 -0.56861277737E+02 -0.13110136624E+03  0.15601907546E+03  0.10000000000E+01 0.  0.
    9000005    1    3    3    0    0 -0.60111700749E+02 -0.26649524966E+02 -0.10258722733E+03  0.12185545929E+03  0.10000000000E+01 0.  0.
         21    1    1    2  502  501 -0.24996302688E+01  0.83510802703E+02 -0.21472003603E+03  0.23040181465E+03  0.00000000000E+00 0.  1.
<mgrwt>
<rscale>  1 0.15034593E+03</rscale>
<asrwt>0</asrwt>
<pdfrwt beam="1">  1        4 0.46052096E-02 0.15034593E+03</pdfrwt>
<pdfrwt beam="2">  1       -4 0.73591147E-01 0.15034593E+03</pdfrwt>
<totfact> 0.78796663E+02</totfact>
</mgrwt>
</event>
<event>
 6    4  0.1195577E-003  0.1271396E+03  0.7818608E-02  0.1231763E+00
         -4   -1    0    0    0  501 -0.00000000000E+00  0.00000000000E+00  0.61295440850E+02  0.61308596208E+02  0.12700000000E+01 0.  1.
          4   -1    0    0  502    0  0.00000000000E+00 -0.00000000000E+00 -0.92492196782E+02  0.92500915485E+02  0.12700000000E+01 0.  1.
         25    2    1    2    0    0 -0.22398210552E+02 -0.62107800980E+01 -0.23269525724E+02  0.12925152716E+03  0.12499693125E+03 0.  0.
    9000005    1    3    3    0    0  0.12695298630E+02 -0.58261543853E+02 -0.28794929802E+02  0.66224814697E+02  0.10000000000E+01 0.  0.
    9000005    1    3    3    0    0 -0.35093509181E+02  0.52050763755E+02  0.55254040779E+01  0.63026712466E+02  0.10000000000E+01 0.  0.
         21    1    1    2  502  501  0.22398210552E+02  0.62107800980E+01 -0.79272302077E+01  0.24557984529E+02  0.00000000000E+00 0.  1.
<mgrwt>
<rscale>  1 0.12713963E+03</rscale>
<asrwt>0</asrwt>
<pdfrwt beam="2">  1        4 0.14231251E-01 0.12713963E+03</pdfrwt>
<pdfrwt beam="1">  1       -4 0.94317504E-02 0.12713963E+03</pdfrwt>
<totfact> 0.55581726E+03</totfact>
</mgrwt>
</event>
<event>
 6    4  0.1195577E-003  0.1285082E+03  0.7818608E-02  0.1229686E+00
         -4   -1    0    0    0  501 -0.00000000000E+00  0.00000000000E+00  0.68481958619E+02  0.68493733701E+02  0.12700000000E+01 0. -1.
          4   -1    0    0  502    0  0.00000000000E+00 -0.00000000000E+00 -0.97594428176E+02  0.97602691105E+02  0.12700000000E+01 0. -1.
         25    2    1    2    0    0  0.21072084443E+02  0.21035578619E+02 -0.64349882265E+01  0.12866920917E+03  0.12501131151E+03 0.  0.
    9000005    1    3    3    0    0  0.27382868549E+02 -0.14452298882E+02  0.51693311396E+02  0.60265154742E+02  0.10000000000E+01 0.  0.
    9000005    1    3    3    0    0 -0.63107841063E+01  0.35487877501E+02 -0.58128299623E+02  0.68404054431E+02  0.10000000000E+01 0.  0.
         21    1    1    2  502  501 -0.21072084443E+02 -0.21035578619E+02 -0.22677481330E+02  0.37427215633E+02  0.00000000000E+00 0. -1.
<mgrwt>
<rscale>  1 0.12850820E+03</rscale>
<asrwt>0</asrwt>
<pdfrwt beam="2">  1        4 0.15016069E-01 0.12850820E+03</pdfrwt>
<pdfrwt beam="1">  1       -4 0.10537227E-01 0.12850820E+03</pdfrwt>
<totfact> 0.42127394E+03</totfact>
</mgrwt>
</event>
<event>
 6    4  0.1195577E-003  0.1305823E+03  0.7818608E-02  0.1226594E+00
          4   -1    0    0  502    0  0.00000000000E+00  0.00000000000E+00  0.13930201936E+03  0.13930780846E+03  0.12700000000E+01 0.  1.
         -4   -1    0    0    0  501 -0.00000000000E+00 -0.00000000000E+00 -0.52004054633E+02  0.52019559766E+02  0.12700000000E+01 0.  1.
         25    2    1    2    0    0 -0.35509660849E+02 -0.12818495384E+02  0.79176968960E+02  0.15271130408E+03  0.12500600043E+03 0.  0.
    9000005    1    3    3    0    0 -0.44431837548E+02 -0.48489041111E+02  0.40720232716E+00  0.65776447985E+02  0.10000000000E+01 0.  0.
    9000005    1    3    3    0    0  0.89221766989E+01  0.35670545727E+02  0.78769766633E+02  0.86934856099E+02  0.10000000000E+01 0.  0.
         21    1    1    2  502  501  0.35509660849E+02  0.12818495384E+02  0.81209957653E+01  0.38616064141E+02  0.00000000000E+00 0.  1.
<mgrwt>
<rscale>  1 0.13058235E+03</rscale>
<asrwt>0</asrwt>
<pdfrwt beam="1">  1        4 0.21432717E-01 0.13058235E+03</pdfrwt>
<pdfrwt beam="2">  1       -4 0.80022620E-02 0.13058235E+03</pdfrwt>
<totfact> 0.35613015E+03</totfact>
</mgrwt>
</event>
<event>
 6    4  0.1195577E-003  0.1269640E+03  0.7818608E-02  0.1232031E+00
          4   -1    0    0  502    0  0.00000000000E+00  0.00000000000E+00  0.30225477554E+01  0.32785202354E+01  0.12700000000E+01 0. -1.
         -4   -1    0    0    0  501 -0.00000000000E+00 -0.00000000000E+00 -0.17665354944E+04  0.17665359509E+04  0.12700000000E+01 0. -1.
         25    2    1    2    0    0  0.17432345237E+02 -0.13819726254E+02 -0.14948501096E+04  0.15002322175E+04  0.12499993860E+03 0.  0.
    9000005    1    3    3    0    0  0.29242030386E+02 -0.14353364038E+02 -0.14833544647E+04  0.14837124328E+04  0.10000000000E+01 0.  0.
    9000005    1    3    3    0    0 -0.11809685149E+02  0.53363778402E+00 -0.11495644908E+02  0.16519784637E+02  0.10000000000E+01 0.  0.
         21    1    1    2  502  501 -0.17432345237E+02  0.13819726254E+02 -0.26866283702E+03  0.26958225366E+03  0.00000000000E+00 0. -1.
<mgrwt>
<rscale>  1 0.12696400E+03</rscale>
<asrwt>0</asrwt>
<pdfrwt beam="1">  1        4 0.48473407E-03 0.12696400E+03</pdfrwt>
<pdfrwt beam="2">  1       -4 0.27179362E+00 0.12696400E+03</pdfrwt>
<totfact> 0.78596441E+02</totfact>
</mgrwt>
</event>
<event>
 6    4  0.1195577E-003  0.1443943E+03  0.7818608E-02  0.1207536E+00
          4   -1    0    0  502    0  0.00000000000E+00  0.00000000000E+00  0.58386107020E+02  0.58399917748E+02  0.12700000000E+01 0.  1.
         -4   -1    0    0    0  501 -0.00000000000E+00 -0.00000000000E+00 -0.22669257310E+03  0.22669613053E+03  0.12700000000E+01 0.  1.
         25    2    1    2    0    0 -0.24579600905E+02  0.67971819162E+02 -0.15457143746E+03  0.21152311853E+03  0.12500150165E+03 0.  0.
    9000005    1    3    3    0    0  0.22890402717E+02 -0.23455938545E+02 -0.73314322169E+02  0.80312772488E+02  0.10000000000E+01 0.  0.
    9000005    1    3    3    0    0 -0.47470003622E+02  0.91427757708E+02 -0.81257115292E+02  0.13121034604E+03  0.10000000000E+01 0.  0.
         21    1    1    2  502  501  0.24579600905E+02 -0.67971819162E+02 -0.13735028621E+02  0.73572929751E+02  0.00000000000E+00 0.  1.
<mgrwt>
<rscale>  1 0.14439425E+03</rscale>
<asrwt>0</asrwt>
<pdfrwt beam="1">  1        4 0.89838141E-02 0.14439425E+03</pdfrwt>
<pdfrwt beam="2">  1       -4 0.34877116E-01 0.14439425E+03</pdfrwt>
<totfact> 0.12092268E+03</totfact>
</mgrwt>
</event>
<event>
 6    4  0.1195577E-003  0.1272625E+03  0.7818608E-02  0.1231575E+00
          4   -1    0    0  502    0  0.00000000000E+00  0.00000000000E+00  0.42023141759E+03  0.42023333665E+03  0.12700000000E+01 0.  1.
         -4   -1    0    0    0  501 -0.00000000000E+00 -0.00000000000E+00 -0.16458377133E+02  0.16507303773E+02  0.12700000000E+01 0.  1.
         25    2    1    2    0    0  0.22568368470E+02 -0.78111743783E+01  0.24401393137E+03  0.27520637583E+03  0.12500161957E+03 0.  0.
    9000005    1    3    3    0    0  0.67553732512E+02 -0.13736237794E+02  0.20169439446E+03  0.21315210475E+03  0.10000000000E+01 0.  0.
    9000005    1    3    3    0    0 -0.44985364043E+02  0.59250634161E+01  0.42319536916E+02  0.62054271080E+02  0.10000000000E+01 0.  0.
         21    1    1    2  502  501 -0.22568368470E+02  0.78111743783E+01  0.15975910909E+03  0.16153426459E+03  0.00000000000E+00 0.  1.
<mgrwt>
<rscale>  1 0.12726253E+03</rscale>
<asrwt>0</asrwt>
<pdfrwt beam="1">  1        4 0.64654889E-01 0.12726253E+03</pdfrwt>
<pdfrwt beam="2">  1       -4 0.25359696E-02 0.12726253E+03</pdfrwt>
<totfact> 0.25742658E+03</totfact>
</mgrwt>
</event>
<event>
 6    4  0.1195577E-003  0.1276315E+03  0.7818608E-02  0.1231013E+00
          4   -1    0    0  502    0  0.00000000000E+00  0.00000000000E+00  0.36993440625E+02  0.37015234016E+02  0.12700000000E+01 0. -1.
         -4   -1    0    0    0  501 -0.00000000000E+00 -0.00000000000E+00 -0.25638824983E+03  0.25639139524E+03  0.12700000000E+01 0. -1.
         25    2    1    2    0    0 -0.22816367478E+02 -0.12004974355E+02 -0.23193773839E+03  0.26473554440E+03  0.12500035178E+03 0.  0.
    9000005    1    3    3    0    0 -0.44201231022E+02 -0.27304082854E+02 -0.23268013387E+03  0.23841205184E+03  0.10000000000E+01 0.  0.
    9000005    1    3    3    0    0  0.21384863544E+02  0.15299108499E+02  0.74239548020E+00  0.26323492563E+02  0.10000000000E+01 0.  0.
         21    1    1    2  502  501  0.22816367478E+02  0.12004974355E+02  0.12542929182E+02  0.28671084852E+02  0.00000000000E+00 0. -1.
<mgrwt>
<rscale>  1 0.12763148E+03</rscale>
<asrwt>0</asrwt>
<pdfrwt beam="1">  1        4 0.56932171E-02 0.12763148E+03</pdfrwt>
<pdfrwt beam="2">  1       -4 0.39446264E-01 0.12763148E+03</pdfrwt>
<totfact> 0.19612450E+03</totfact>
</mgrwt>
</event>
<event>
 6    4  0.1195577E-003  0.1357273E+03  0.7818608E-02  0.1219197E+00
          4   -1    0    0  502    0  0.00000000000E+00  0.00000000000E+00  0.52696799395E+02  0.52712100760E+02  0.12700000000E+01 0. -1.
         -4   -1    0    0    0  501 -0.00000000000E+00 -0.00000000000E+00 -0.16862538132E+03  0.16863016375E+03  0.12700000000E+01 0. -1.
         25    2    1    2    0    0 -0.30231064769E+02 -0.43311844125E+02 -0.82490206259E+02  0.15882860131E+03  0.12502822621E+03 0.  0.
    9000005    1    3    3    0    0  0.48764746100E+02 -0.12632934911E+02 -0.23673967501E+02  0.55669095950E+02  0.10000000000E+01 0.  0.
    9000005    1    3    3    0    0 -0.78995810869E+02 -0.30678909214E+02 -0.58816238758E+02  0.10315950536E+03  0.10000000000E+01 0.  0.
         21    1    1    2  502  501  0.30231064769E+02  0.43311844125E+02 -0.33438375666E+02  0.62513663193E+02  0.00000000000E+00 0. -1.
<mgrwt>
<rscale>  1 0.13572727E+03</rscale>
<asrwt>0</asrwt>
<pdfrwt beam="1">  1        4 0.81087449E-02 0.13572727E+03</pdfrwt>
<pdfrwt beam="2">  1       -4 0.25943911E-01 0.13572727E+03</pdfrwt>
<totfact> 0.24772989E+03</totfact>
</mgrwt>
</event>
<event>
 6    4  0.1195577E-003  0.1295331E+03  0.7818608E-02  0.1228150E+00
         -4   -1    0    0    0  501 -0.00000000000E+00  0.00000000000E+00  0.11351338082E+02  0.11422161628E+02  0.12700000000E+01 0.  1.
          4   -1    0    0  502    0  0.00000000000E+00 -0.00000000000E+00 -0.70743410735E+03  0.70743524731E+03  0.12700000000E+01 0.  1.
         25    2    1    2    0    0  0.17994552697E+02  0.28808688657E+02 -0.39118460182E+03  0.41207305963E+03  0.12500027722E+03 0.  0.
    9000005    1    3    3    0    0  0.51011507124E+02  0.21566057909E+02 -0.70728342570E+02  0.89837448514E+02  0.10000000000E+01 0.  0.
    9000005    1    3    3    0    0 -0.33016954428E+02  0.72426307481E+01 -0.32045625925E+03  0.32223561112E+03  0.10000000000E+01 0.  0.
         21    1    1    2  502  501 -0.17994552697E+02 -0.28808688657E+02 -0.30489816745E+03  0.30678434931E+03  0.00000000000E+00 0.  1.
<mgrwt>
<rscale>  1 0.12953306E+03</rscale>
<asrwt>0</asrwt>
<pdfrwt beam="2">  1        4 0.10884152E+00 0.12953306E+03</pdfrwt>
<pdfrwt beam="1">  1       -4 0.17518959E-02 0.12953306E+03</pdfrwt>
<totfact> 0.14302490E+03</totfact>
</mgrwt>
</event>
<event>
 6    4  0.1195577E-003  0.1272163E+03  0.7818608E-02  0.1231646E+00
          4   -1    0    0  502    0  0.00000000000E+00  0.00000000000E+00  0.94373720664E+01  0.95224414684E+01  0.12700000000E+01 0. -1.
         -4   -1    0    0    0  501 -0.00000000000E+00 -0.00000000000E+00 -0.64783066904E+03  0.64783191389E+03  0.12700000000E+01 0. -1.
         25    2    1    2    0    0  0.21645344307E+02 -0.95353959163E+01 -0.58910555576E+03  0.60268511227E+03  0.12499817607E+03 0.  0.
    9000005    1    3    3    0    0  0.45964066696E+02 -0.36591126566E+02 -0.13638419020E+03  0.14850337810E+03  0.10000000000E+01 0.  0.
    9000005    1    3    3    0    0 -0.24318722389E+02  0.27055730649E+02 -0.45272136556E+03  0.45418173417E+03  0.10000000000E+01 0.  0.
         21    1    1    2  502  501 -0.21645344307E+02  0.95353959163E+01 -0.49287741219E+02  0.54669243088E+02  0.00000000000E+00 0. -1.
<mgrwt>
<rscale>  1 0.12721631E+03</rscale>
<asrwt>0</asrwt>
<pdfrwt beam="1">  1        4 0.14585435E-02 0.12721631E+03</pdfrwt>
<pdfrwt beam="2">  1       -4 0.99672862E-01 0.12721631E+03</pdfrwt>
<totfact> 0.23133208E+03</totfact>
</mgrwt>
</event>
<event>
 6    4  0.1195577E-003  0.1428761E+03  0.7818608E-02  0.1209511E+00
         -4   -1    0    0    0  501 -0.00000000000E+00  0.00000000000E+00  0.14731410552E+02  0.14786052782E+02  0.12700000000E+01 0.  1.
          4   -1    0    0  502    0  0.00000000000E+00 -0.00000000000E+00 -0.13769857350E+04  0.13769863206E+04  0.12700000000E+01 0.  1.
         25    2    1    2    0    0  0.20185396667E+02 -0.66215410421E+02 -0.36274203115E+03  0.38986581330E+03  0.12498656087E+03 0.  0.
    9000005    1    3    3    0    0  0.53888897125E+02 -0.75088871276E+02 -0.32749031809E+03  0.34028408758E+03  0.10000000000E+01 0.  0.
    9000005    1    3    3    0    0 -0.33703500459E+02  0.88734608552E+01 -0.35251713067E+02  0.49581725715E+02  0.10000000000E+01 0.  0.
         21    1    1    2  502  501 -0.20185396667E+02  0.66215410421E+02 -0.99951229327E+03  0.10019065601E+04  0.00000000000E+00 0.  1.
<mgrwt>
<rscale>  1 0.14287607E+03</rscale>
<asrwt>0</asrwt>
<pdfrwt beam="2">  1        4 0.21184811E+00 0.14287607E+03</pdfrwt>
<pdfrwt beam="1">  1       -4 0.22706202E-02 0.14287607E+03</pdfrwt>
<totfact> 0.17418506E+02</totfact>
</mgrwt>
</event>
<event>
 6    4  0.1195577E-003  0.1270132E+03  0.7818608E-02  0.1231956E+00
         -4   -1    0    0    0  501 -0.00000000000E+00  0.00000000000E+00  0.99957151717E+01  0.10076071744E+02  0.12700000000E+01 0.  1.
          4   -1    0    0  502    0  0.00000000000E+00 -0.00000000000E+00 -0.60211576450E+03  0.60211710386E+03  0.12700000000E+01 0.  1.
         25    2    1    2    0    0 -0.33698385820E+01 -0.22285381873E+02 -0.42540407468E+03  0.44396056800E+03  0.12499746049E+03 0.  0.
    9000005    1    3    3    0    0  0.51870994437E+02  0.12619500441E+02 -0.27240847548E+03  0.27759183952E+03  0.10000000000E+01 0.  0.
    9000005    1    3    3    0    0 -0.55240833019E+02 -0.34904882314E+02 -0.15299559920E+03  0.16636872848E+03  0.10000000000E+01 0.  0.
         21    1    1    2  502  501  0.33698385820E+01  0.22285381873E+02 -0.16671597465E+03  0.16823260760E+03  0.00000000000E+00 0.  1.
<mgrwt>
<rscale>  1 0.12701322E+03</rscale>
<asrwt>0</asrwt>
<pdfrwt beam="2">  1        4 0.92639451E-01 0.12701322E+03</pdfrwt>
<pdfrwt beam="1">  1       -4 0.15440871E-02 0.12701322E+03</pdfrwt>
<totfact> 0.25063389E+03</totfact>
</mgrwt>
</event>
<event>
 6    4  0.1195577E-003  0.1274989E+03  0.7818608E-02  0.1231215E+00
          4   -1    0    0  502    0  0.00000000000E+00  0.00000000000E+00  0.10189252449E+03  0.10190043890E+03  0.12700000000E+01 0. -1.
         -4   -1    0    0    0  501 -0.00000000000E+00 -0.00000000000E+00 -0.79076790474E+02  0.79086988131E+02  0.12700000000E+01 0. -1.
         25    2    1    2    0    0 -0.77305750827E+01  0.23869951328E+02 -0.22232786359E+02  0.12942285047E+03  0.12500576413E+03 0.  0.
    9000005    1    3    3    0    0 -0.66890543371E+01  0.21536748842E+01  0.51786241370E+02  0.52270417624E+02  0.10000000000E+01 0.  0.
    9000005    1    3    3    0    0 -0.10415207456E+01  0.21716276444E+02 -0.74019027729E+02  0.77152432845E+02  0.10000000000E+01 0.  0.
         21    1    1    2  502  501  0.77305750827E+01 -0.23869951328E+02  0.45048520376E+02  0.51564576558E+02  0.00000000000E+00 0. -1.
<mgrwt>
<rscale>  1 0.12749893E+03</rscale>
<asrwt>0</asrwt>
<pdfrwt beam="1">  1        4 0.15677166E-01 0.12749893E+03</pdfrwt>
<pdfrwt beam="2">  1       -4 0.12167053E-01 0.12749893E+03</pdfrwt>
<totfact> 0.30538369E+03</totfact>
</mgrwt>
</event>
<event>
 6    4  0.1195577E-003  0.1546202E+03  0.7818608E-02  0.1194908E+00
          4   -1    0    0  502    0  0.00000000000E+00  0.00000000000E+00  0.75345456233E+03  0.75345563266E+03  0.12700000000E+01 0. -1.
         -4   -1    0    0    0  501 -0.00000000000E+00 -0.00000000000E+00 -0.24623325645E+02  0.24656055358E+02  0.12700000000E+01 0. -1.
         25    2    1    2    0    0 -0.57924524253E+02  0.70287443222E+02  0.27737883663E+03  0.31756327070E+03  0.12494733571E+03 0.  0.
    9000005    1    3    3    0    0 -0.91011974017E+02  0.58208462734E+02  0.14653408213E+03  0.18205669934E+03  0.10000000000E+01 0.  0.
    9000005    1    3    3    0    0  0.33087449764E+02  0.12078980488E+02  0.13084475450E+03  0.13550657136E+03  0.10000000000E+01 0.  0.
         21    1    1    2  502  501  0.57924524253E+02 -0.70287443222E+02  0.45145240005E+03  0.46054841732E+03  0.00000000000E+00 0. -1.
<mgrwt>
<rscale>  1 0.15462022E+03</rscale>
<asrwt>0</asrwt>
<pdfrwt beam="1">  1        4 0.11591867E+00 0.15462022E+03</pdfrwt>
<pdfrwt beam="2">  1       -4 0.37908043E-02 0.15462022E+03</pdfrwt>
<totfact> 0.38319100E+02</totfact>
</mgrwt>
</event>
<event>
 6    4  0.1195577E-003  0.1272138E+03  0.7818608E-02  0.1231649E+00
         -4   -1    0    0    0  501 -0.00000000000E+00  0.00000000000E+00  0.14885080517E+03  0.14885622291E+03  0.12700000000E+01 0.  1.
          4   -1    0    0  502    0  0.00000000000E+00 -0.00000000000E+00 -0.41119988025E+02  0.41139595466E+02  0.12700000000E+01 0.  1.
         25    2    1    2    0    0  0.23434093464E+02  0.30791237390E+01  0.10719308117E+03  0.16635418350E+03  0.12499887991E+03 0.  0.
    9000005    1    3    3    0    0  0.30032709087E+02 -0.20568500322E+02 -0.16690416095E+02  0.40057418914E+02  0.10000000000E+01 0.  0.
    9000005    1    3    3    0    0 -0.65986156234E+01  0.23647624061E+02  0.12388349726E+03  0.12629676459E+03  0.10000000000E+01 0.  0.
         21    1    1    2  502  501 -0.23434093464E+02 -0.30791237390E+01  0.53773597667E+00  0.23641634873E+02  0.00000000000E+00 0.  1.
<mgrwt>
<rscale>  1 0.12721383E+03</rscale>
<asrwt>0</asrwt>
<pdfrwt beam="2">  1        4 0.63280771E-02 0.12721383E+03</pdfrwt>
<pdfrwt beam="1">  1       -4 0.22902048E-01 0.12721383E+03</pdfrwt>
<totfact> 0.46111200E+03</totfact>
</mgrwt>
</event>
<event>
 6    4  0.1195577E-003  0.1766356E+03  0.7818608E-02  0.1171099E+00
          4   -1    0    0  502    0  0.00000000000E+00  0.00000000000E+00  0.33701152727E+03  0.33701392021E+03  0.12700000000E+01 0. -1.
         -4   -1    0    0    0  501 -0.00000000000E+00 -0.00000000000E+00 -0.11679280296E+03  0.11679970772E+03  0.12700000000E+01 0. -1.
         25    2    1    2    0    0  0.12451553757E+03  0.86048004642E+01 -0.25254289580E+02  0.17843177987E+03  0.12498783636E+03 0.  0.
    9000005    1    3    3    0    0  0.98053873106E+02 -0.23535497262E+02  0.33635471908E+02  0.10630534621E+03  0.10000000000E+01 0.  0.
    9000005    1    3    3    0    0  0.26461664469E+02  0.32140297726E+02 -0.58889761488E+02  0.72126433660E+02  0.10000000000E+01 0.  0.
         21    1    1    2  502  501 -0.12451553757E+03 -0.86048004642E+01  0.24547301390E+03  0.27538184806E+03  0.00000000000E+00 0. -1.
<mgrwt>
<rscale>  1 0.17663556E+03</rscale>
<asrwt>0</asrwt>
<pdfrwt beam="1">  1        4 0.51848643E-01 0.17663556E+03</pdfrwt>
<pdfrwt beam="2">  1       -4 0.17968838E-01 0.17663556E+03</pdfrwt>
<totfact> 0.17184740E+02</totfact>
</mgrwt>
</event>
<event>
 6    4  0.1195577E-003  0.1269513E+03  0.7818608E-02  0.1232051E+00
          4   -1    0    0  502    0  0.00000000000E+00  0.00000000000E+00  0.47922950499E+02  0.47939775599E+02  0.12700000000E+01 0.  1.
         -4   -1    0    0    0  501 -0.00000000000E+00 -0.00000000000E+00 -0.11777981547E+03  0.11778666237E+03  0.12700000000E+01 0.  1.
         25    2    1    2    0    0  0.44460972010E+00  0.22163458703E+02 -0.66474114883E+02  0.14330190725E+03  0.12500084837E+03 0.  0.
    9000005    1    3    3    0    0  0.49322910352E+02  0.49990369866E+02 -0.42968806409E+02  0.82335319815E+02  0.10000000000E+01 0.  0.
    9000005    1    3    3    0    0 -0.48878300632E+02 -0.27826911163E+02 -0.23505308475E+02  0.60966587439E+02  0.10000000000E+01 0.  0.
         21    1    1    2  502  501 -0.44460972010E+00 -0.22163458703E+02 -0.33827500852E+01  0.22424530712E+02  0.00000000000E+00 0.  1.
<mgrwt>
<rscale>  1 0.12695128E+03</rscale>
<asrwt>0</asrwt>
<pdfrwt beam="1">  1        4 0.73745826E-02 0.12695128E+03</pdfrwt>
<pdfrwt beam="2">  1       -4 0.18121792E-01 0.12695128E+03</pdfrwt>
<totfact> 0.54682021E+03</totfact>
</mgrwt>
</event>
<event>
 6    4  0.1195577E-003  0.1273304E+03  0.7818608E-02  0.1231472E+00
          4   -1    0    0  502    0  0.00000000000E+00  0.00000000000E+00  0.10571313968E+03  0.10572076807E+03  0.12700000000E+01 0.  1.
         -4   -1    0    0    0  501 -0.00000000000E+00 -0.00000000000E+00 -0.85841908496E+02  0.85851302578E+02  0.12700000000E+01 0.  1.
         25    2    1    2    0    0 -0.24224306966E+02 -0.10962269379E+01 -0.34599540127E+02  0.13194754810E+03  0.12500003405E+03 0.  0.
    9000005    1    3    3    0    0  0.50102537548E+02 -0.52457794927E+01 -0.13330774510E+01  0.50403963800E+02  0.10000000000E+01 0.  0.
    9000005    1    3    3    0    0 -0.74326844514E+02  0.41495525548E+01 -0.33266462676E+02  0.81543584302E+02  0.10000000000E+01 0.  0.
         21    1    1    2  502  501  0.24224306966E+02  0.10962269379E+01  0.54470771313E+02  0.59624522547E+02  0.00000000000E+00 0.  1.
<mgrwt>
<rscale>  1 0.12733039E+03</rscale>
<asrwt>0</asrwt>
<pdfrwt beam="1">  1        4 0.16264869E-01 0.12733039E+03</pdfrwt>
<pdfrwt beam="2">  1       -4 0.13207757E-01 0.12733039E+03</pdfrwt>
<totfact> 0.24859194E+03</totfact>
</mgrwt>
</event>
<event>
 6    4  0.1195577E-003  0.1299106E+03  0.7818608E-02  0.1227588E+00
          4   -1    0    0  502    0  0.00000000000E+00  0.00000000000E+00  0.76039232813E+03  0.76039338870E+03  0.12700000000E+01 0. -1.
         -4   -1    0    0    0  501 -0.00000000000E+00 -0.00000000000E+00 -0.90644304225E+01  0.91529666712E+01  0.12700000000E+01 0. -1.
         25    2    1    2    0    0 -0.12511156666E+00  0.35376831661E+02  0.62498538468E+03  0.63834434902E+03  0.12500096398E+03 0.  0.
    9000005    1    3    3    0    0 -0.58709613629E+02  0.39434880300E+02  0.31494600362E+03  0.32279082037E+03  0.10000000000E+01 0.  0.
    9000005    1    3    3    0    0  0.58584502062E+02 -0.40580486390E+01  0.31003938106E+03  0.31555352866E+03  0.10000000000E+01 0.  0.
         21    1    1    2  502  501  0.12511156666E+00 -0.35376831661E+02  0.12634251303E+03  0.13120200634E+03  0.00000000000E+00 0. -1.
<mgrwt>
<rscale>  1 0.12991065E+03</rscale>
<asrwt>0</asrwt>
<pdfrwt beam="1">  1        4 0.11699038E+00 0.12991065E+03</pdfrwt>
<pdfrwt beam="2">  1       -4 0.14014192E-02 0.12991065E+03</pdfrwt>
<totfact> 0.16963124E+03</totfact>
</mgrwt>
</event>
<event>
 6    4  0.1195577E-003  0.1267132E+03  0.7818608E-02  0.1232416E+00
         -4   -1    0    0    0  501 -0.00000000000E+00  0.00000000000E+00  0.17392680537E+03  0.17393144203E+03  0.12700000000E+01 0.  1.
          4   -1    0    0  502    0  0.00000000000E+00 -0.00000000000E+00 -0.31529959461E+02  0.31555526356E+02  0.12700000000E+01 0.  1.
         25    2    1    2    0    0 -0.20759507118E+02 -0.22928945840E+00  0.12873184113E+03  0.18063255097E+03  0.12500088736E+03 0.  0.
    9000005    1    3    3    0    0  0.17885795383E+02  0.38268992140E+02  0.15954637042E+01  0.42284310806E+02  0.10000000000E+01 0.  0.
    9000005    1    3    3    0    0 -0.38645302501E+02 -0.38498281599E+02  0.12713637743E+03  0.13834824016E+03  0.10000000000E+01 0.  0.
         21    1    1    2  502  501  0.20759507118E+02  0.22928945840E+00  0.13665004777E+02  0.24854417414E+02  0.00000000000E+00 0.  1.
<mgrwt>
<rscale>  1 0.12671319E+03</rscale>
<asrwt>0</asrwt>
<pdfrwt beam="2">  1        4 0.48530864E-02 0.12671319E+03</pdfrwt>
<pdfrwt beam="1">  1       -4 0.26760293E-01 0.12671319E+03</pdfrwt>
<totfact> 0.53090845E+03</totfact>
</mgrwt>
</event>
<event>
 6    4  0.1195577E-003  0.1341973E+03  0.7818608E-02  0.1221357E+00
          4   -1    0    0  502    0  0.00000000000E+00  0.00000000000E+00  0.99167015182E+02  0.99175147089E+02  0.12700000000E+01 0. -1.
         -4   -1    0    0    0  501 -0.00000000000E+00 -0.00000000000E+00 -0.84724125298E+02  0.84733643303E+02  0.12700000000E+01 0. -1.
         25    2    1    2    0    0  0.35526950700E+02  0.33485178574E+02  0.15408386870E+02  0.13507894711E+03  0.12500192861E+03 0.  0.
    9000005    1    3    3    0    0 -0.43628747208E+02  0.53861554973E+01  0.24918635242E+02  0.50541236988E+02  0.10000000000E+01 0.  0.
    9000005    1    3    3    0    0  0.79155697908E+02  0.28099023077E+02 -0.95102483715E+01  0.84537710126E+02  0.10000000000E+01 0.  0.
         21    1    1    2  502  501 -0.35526950700E+02 -0.33485178574E+02 -0.96549698575E+00  0.48829843279E+02  0.00000000000E+00 0. -1.
<mgrwt>
<rscale>  1 0.13419726E+03</rscale>
<asrwt>0</asrwt>
<pdfrwt beam="1">  1        4 0.15257821E-01 0.13419726E+03</pdfrwt>
<pdfrwt beam="2">  1       -4 0.13035839E-01 0.13419726E+03</pdfrwt>
<totfact> 0.28795537E+03</totfact>
</mgrwt>
</event>
<event>
 6    4  0.1195577E-003  0.1768446E+03  0.7818608E-02  0.1170892E+00
         -4   -1    0    0    0  501 -0.00000000000E+00  0.00000000000E+00  0.40868271299E+03  0.40868468628E+03  0.12700000000E+01 0.  1.
          4   -1    0    0  502    0  0.00000000000E+00 -0.00000000000E+00 -0.94535625794E+02  0.94544156055E+02  0.12700000000E+01 0.  1.
         25    2    1    2    0    0  0.12360745173E+03 -0.19208106194E+02  0.33268963912E+03  0.37677102447E+03  0.12500502165E+03 0.  0.
    9000005    1    3    3    0    0  0.12436529371E+03 -0.28891525685E+02  0.16420727459E+03  0.20800595079E+03  0.10000000000E+01 0.  0.
    9000005    1    3    3    0    0 -0.75784198011E+00  0.96834194911E+01  0.16848236453E+03  0.16876507368E+03  0.10000000000E+01 0.  0.
         21    1    1    2  502  501 -0.12360745173E+03  0.19208106194E+02 -0.18542551924E+02  0.12645781786E+03  0.00000000000E+00 0.  1.
<mgrwt>
<rscale>  1 0.17684459E+03</rscale>
<asrwt>0</asrwt>
<pdfrwt beam="2">  1        4 0.14544750E-01 0.17684459E+03</pdfrwt>
<pdfrwt beam="1">  1       -4 0.62875073E-01 0.17684459E+03</pdfrwt>
<totfact> 0.16682183E+02</totfact>
</mgrwt>
</event>
<event>
 6    4  0.1195577E-003  0.1274291E+03  0.7818608E-02  0.1231321E+00
          4   -1    0    0  502    0  0.00000000000E+00  0.00000000000E+00  0.69991321724E+02  0.70002842918E+02  0.12700000000E+01 0. -1.
         -4   -1    0    0    0  501 -0.00000000000E+00 -0.00000000000E+00 -0.82838368033E+02  0.82848102684E+02  0.12700000000E+01 0. -1.
         25    2    1    2    0    0 -0.24435654508E+02  0.40536947261E+01 -0.85913273024E+01  0.12771840104E+03  0.12499858162E+03 0.  0.
    9000005    1    3    3    0    0  0.17275393099E+01  0.23633119281E+02  0.52957178139E+02  0.58025610169E+02  0.10000000000E+01 0.  0.
    9000005    1    3    3    0    0 -0.26163193818E+02 -0.19579424555E+02 -0.61548505442E+02  0.69692790866E+02  0.10000000000E+01 0.  0.
         21    1    1    2  502  501  0.24435654508E+02 -0.40536947261E+01 -0.42557190070E+01  0.25132544567E+02  0.00000000000E+00 0. -1.
<mgrwt>
<rscale>  1 0.12742911E+03</rscale>
<asrwt>0</asrwt>
<pdfrwt beam="1">  1        4 0.10769531E-01 0.12742911E+03</pdfrwt>
<pdfrwt beam="2">  1       -4 0.12745999E-01 0.12742911E+03</pdfrwt>
<totfact> 0.53804861E+03</totfact>
</mgrwt>
</event>
<event>
 6    4  0.1195577E-003  0.1406878E+03  0.7818608E-02  0.1212406E+00
          4   -1    0    0  502    0  0.00000000000E+00  0.00000000000E+00  0.14597304231E+03  0.14597856685E+03  0.12700000000E+01 0. -1.
         -4   -1    0    0    0  501 -0.00000000000E+00 -0.00000000000E+00 -0.72814576538E+02  0.72825651088E+02  0.12700000000E+01 0. -1.
         25    2    1    2    0    0 -0.37073172146E+02  0.52850223858E+02  0.59854909744E+02  0.15289101094E+03  0.12500193898E+03 0.  0.
    9000005    1    3    3    0    0 -0.79914480280E+02  0.56169221399E+02  0.42800354325E+02  0.10664978163E+03  0.10000000000E+01 0.  0.
    9000005    1    3    3    0    0  0.42841308134E+02 -0.33189975413E+01  0.17054555420E+02  0.46241229308E+02  0.10000000000E+01 0.  0.
         21    1    1    2  502  501  0.37073172146E+02 -0.52850223858E+02  0.13303556026E+02  0.65913207006E+02  0.00000000000E+00 0.  1.
<mgrwt>
<rscale>  1 0.14068778E+03</rscale>
<asrwt>0</asrwt>
<pdfrwt beam="1">  1        4 0.22458668E-01 0.14068778E+03</pdfrwt>
<pdfrwt beam="2">  1       -4 0.11203519E-01 0.14068778E+03</pdfrwt>
<totfact> 0.18917049E+03</totfact>
</mgrwt>
</event>
<event>
 6    4  0.1195577E-003  0.1276656E+03  0.7818608E-02  0.1230961E+00
          4   -1    0    0  502    0  0.00000000000E+00  0.00000000000E+00  0.32976318630E+02  0.33000764997E+02  0.12700000000E+01 0. -1.
         -4   -1    0    0    0  501 -0.00000000000E+00 -0.00000000000E+00 -0.20218328161E+03  0.20218727028E+03  0.12700000000E+01 0. -1.
         25    2    1    2    0    0 -0.23921233300E+02  0.10153832049E+02 -0.16537567500E+03  0.20892009901E+03  0.12499267252E+03 0.  0.
    9000005    1    3    3    0    0 -0.58981716239E+02  0.75587137776E+01 -0.25531768906E+02  0.64721312007E+02  0.10000000000E+01 0.  0.
    9000005    1    3    3    0    0  0.35060482939E+02  0.25951182713E+01 -0.13984390609E+03  0.14419878701E+03  0.10000000000E+01 0.  0.
         21    1    1    2  502  501  0.23921233300E+02 -0.10153832049E+02 -0.38312879818E+01  0.26267936262E+02  0.00000000000E+00 0.  1.
<mgrwt>
<rscale>  1 0.12766555E+03</rscale>
<asrwt>0</asrwt>
<pdfrwt beam="1">  1        4 0.50754672E-02 0.12766555E+03</pdfrwt>
<pdfrwt beam="2">  1       -4 0.31107307E-01 0.12766555E+03</pdfrwt>
<totfact> 0.37312434E+03</totfact>
</mgrwt>
</event>
<event>
 6    4  0.1195577E-003  0.1282285E+03  0.7818608E-02  0.1230108E+00
         -4   -1    0    0    0  501 -0.00000000000E+00  0.00000000000E+00  0.10451930604E+04  0.10451938320E+04  0.12700000000E+01 0.  1.
          4   -1    0    0  502    0  0.00000000000E+00 -0.00000000000E+00 -0.61527609837E+01  0.62824650991E+01  0.12700000000E+01 0.  1.
         25    2    1    2    0    0 -0.43471776395E+01  0.28239278210E+02  0.92807789329E+03  0.93689440339E+03  0.12500476914E+03 0.  0.
    9000005    1    3    3    0    0 -0.45110395825E+02  0.17550371555E+02  0.81126716141E+03  0.81271050844E+03  0.10000000000E+01 0.  0.
    9000005    1    3    3    0    0  0.40763218185E+02  0.10688906655E+02  0.11681073188E+03  0.12418389495E+03  0.10000000000E+01 0.  0.
         21    1    1    2  502  501  0.43471776395E+01 -0.28239278210E+02  0.11096240611E+03  0.11458189367E+03  0.00000000000E+00 0.  1.
<mgrwt>
<rscale>  1 0.12822850E+03</rscale>
<asrwt>0</asrwt>
<pdfrwt beam="2">  1        4 0.95661507E-03 0.12822850E+03</pdfrwt>
<pdfrwt beam="1">  1       -4 0.16080899E+00 0.12822850E+03</pdfrwt>
<totfact> 0.13660637E+03</totfact>
</mgrwt>
</event>
<event>
 6    4  0.1195577E-003  0.1274098E+03  0.7818608E-02  0.1231351E+00
         -4   -1    0    0    0  501 -0.00000000000E+00  0.00000000000E+00  0.38608456475E+02  0.38629338739E+02  0.12700000000E+01 0.  1.
          4   -1    0    0  502    0  0.00000000000E+00 -0.00000000000E+00 -0.15042507713E+03  0.15043043817E+03  0.12700000000E+01 0.  1.
         25    2    1    2    0    0  0.24610624445E+02 -0.17103350067E+01 -0.88638610979E+02  0.15520969251E+03  0.12499854884E+03 0.  0.
    9000005    1    3    3    0    0 -0.39634237224E+02 -0.29519633743E+02 -0.64265206179E+02  0.81075879655E+02  0.10000000000E+01 0.  0.
    9000005    1    3    3    0    0  0.64244861669E+02  0.27809298737E+02 -0.24373404800E+02  0.74133812857E+02  0.10000000000E+01 0.  0.
         21    1    1    2  502  501 -0.24610624445E+02  0.17103350067E+01 -0.23178009676E+02  0.33850084401E+02  0.00000000000E+00 0. -1.
<mgrwt>
<rscale>  1 0.12740975E+03</rscale>
<asrwt>0</asrwt>
<pdfrwt beam="2">  1        4 0.23144338E-01 0.12740975E+03</pdfrwt>
<pdfrwt beam="1">  1       -4 0.59417813E-02 0.12740975E+03</pdfrwt>
<totfact> 0.50129064E+03</totfact>
</mgrwt>
</event>
<event>
 6    4  0.1195577E-003  0.1268010E+03  0.7818608E-02  0.1232281E+00
          4   -1    0    0  502    0  0.00000000000E+00  0.00000000000E+00  0.13019360206E+04  0.13019366400E+04  0.12700000000E+01 0. -1.
         -4   -1    0    0    0  501 -0.00000000000E+00 -0.00000000000E+00 -0.43373603164E+01  0.45194683884E+01  0.12700000000E+01 0. -1.
         25    2    1    2    0    0 -0.21261101283E+02 -0.18161867523E+01  0.98468320949E+03  0.99281393601E+03  0.12499262189E+03 0.  0.
    9000005    1    3    3    0    0 -0.42632250797E+02 -0.54794244227E+02  0.56995542441E+03  0.57416905509E+03  0.10000000000E+01 0.  0.
    9000005    1    3    3    0    0  0.21371149514E+02  0.52978057475E+02  0.41472778508E+03  0.41864488092E+03  0.10000000000E+01 0.  0.
         21    1    1    2  502  501  0.21261101283E+02  0.18161867523E+01  0.31291545079E+03  0.31364217240E+03  0.00000000000E+00 0. -1.
<mgrwt>
<rscale>  1 0.12680098E+03</rscale>
<asrwt>0</asrwt>
<pdfrwt beam="1">  1        4 0.20031186E+00 0.12680098E+03</pdfrwt>
<pdfrwt beam="2">  1       -4 0.68134232E-03 0.12680098E+03</pdfrwt>
<totfact> 0.12458064E+03</totfact>
</mgrwt>
</event>
<event>
 6    4  0.1195577E-003  0.1282070E+03  0.7818608E-02  0.1230141E+00
          4   -1    0    0  502    0  0.00000000000E+00  0.00000000000E+00  0.28449581116E+03  0.28449864581E+03  0.12700000000E+01 0.  1.
         -4   -1    0    0    0  501 -0.00000000000E+00 -0.00000000000E+00 -0.27681588244E+02  0.27710706013E+02  0.12700000000E+01 0.  1.
         25    2    1    2    0    0  0.23695083628E+02 -0.15844061002E+02  0.13135023689E+03  0.18354815703E+03  0.12499819983E+03 0.  0.
    9000005    1    3    3    0    0  0.30316302981E+02 -0.56995956904E+02  0.24857539221E+02  0.69184641258E+02  0.10000000000E+01 0.  0.
    9000005    1    3    3    0    0 -0.66212193529E+01  0.41151895902E+02  0.10649269767E+03  0.11436351577E+03  0.10000000000E+01 0.  0.
         21    1    1    2  502  501 -0.23695083628E+02  0.15844061002E+02  0.12546398603E+03  0.12866119480E+03  0.00000000000E+00 0.  1.
<mgrwt>
<rscale>  1 0.12820702E+03</rscale>
<asrwt>0</asrwt>
<pdfrwt beam="1">  1        4 0.43771042E-01 0.12820702E+03</pdfrwt>
<pdfrwt beam="2">  1       -4 0.42611640E-02 0.12820702E+03</pdfrwt>
<totfact> 0.25443508E+03</totfact>
</mgrwt>
</event>
<event>
 6    4  0.1195577E-003  0.1266299E+03  0.7818608E-02  0.1232544E+00
          4   -1    0    0  502    0  0.00000000000E+00  0.00000000000E+00  0.11085021647E+04  0.11085028922E+04  0.12700000000E+01 0. -1.
         -4   -1    0    0    0  501 -0.00000000000E+00 -0.00000000000E+00 -0.48914208914E+01  0.50536025108E+01  0.12700000000E+01 0. -1.
         25    2    1    2    0    0 -0.91241195648E+01 -0.17981372400E+02  0.88426811557E+03  0.89328900309E+03  0.12501425320E+03 0.  0.
    9000005    1    3    3    0    0 -0.39982468760E+02 -0.59612329467E+02  0.41449897238E+03  0.42066925932E+03  0.10000000000E+01 0.  0.
    9000005    1    3    3    0    0  0.30858349195E+02  0.41630957066E+02  0.46976914319E+03  0.47261974376E+03  0.10000000000E+01 0.  0.
         21    1    1    2  502  501  0.91241195648E+01  0.17981372400E+02  0.21934262825E+03  0.22026749165E+03  0.00000000000E+00 0.  1.
<mgrwt>
<rscale>  1 0.12662994E+03</rscale>
<asrwt>0</asrwt>
<pdfrwt beam="1">  1        4 0.17055135E+00 0.12662994E+03</pdfrwt>
<pdfrwt beam="2">  1       -4 0.76505764E-03 0.12662994E+03</pdfrwt>
<totfact> 0.16309132E+03</totfact>
</mgrwt>
</event>
<event>
 6    4  0.1195577E-003  0.1396547E+03  0.7818608E-02  0.1213794E+00
         -4   -1    0    0    0  501 -0.00000000000E+00  0.00000000000E+00  0.32019018783E+03  0.32019270648E+03  0.12700000000E+01 0.  1.
          4   -1    0    0  502    0  0.00000000000E+00 -0.00000000000E+00 -0.39196714974E+02  0.39217284005E+02  0.12700000000E+01 0.  1.
         25    2    1    2    0    0 -0.18873099940E+02 -0.59344069943E+02  0.25734744340E+03  0.29279882589E+03  0.12500213312E+03 0.  0.
    9000005    1    3    3    0    0  0.29556583848E+01 -0.25054438397E+02  0.25025381636E+03  0.25152422031E+03  0.10000000000E+01 0.  0.
    9000005    1    3    3    0    0 -0.21828758324E+02 -0.34289631546E+02  0.70936270336E+01  0.41274605583E+02  0.10000000000E+01 0.  0.
         21    1    1    2  502  501  0.18873099940E+02  0.59344069943E+02  0.23646029460E+02  0.66611164589E+02  0.00000000000E+00 0.  1.
<mgrwt>
<rscale>  1 0.13965474E+03</rscale>
<asrwt>0</asrwt>
<pdfrwt beam="2">  1        4 0.60320396E-02 0.13965474E+03</pdfrwt>
<pdfrwt beam="1">  1       -4 0.49261806E-01 0.13965474E+03</pdfrwt>
<totfact> 0.11686929E+03</totfact>
</mgrwt>
</event>
<event>
 6    4  0.1195577E-003  0.1739124E+03  0.7818608E-02  0.1173828E+00
         -4   -1    0    0    0  501 -0.00000000000E+00  0.00000000000E+00  0.75960084948E+03  0.75960191115E+03  0.12700000000E+01 0. -1.
          4   -1    0    0  502    0  0.00000000000E+00 -0.00000000000E+00 -0.30088989389E+02  0.30115779625E+02  0.12700000000E+01 0. -1.
         25    2    1    2    0    0  0.12063981197E+03 -0.79547977815E+01  0.51379387692E+03  0.54242941507E+03  0.12501311666E+03 0.  0.
    9000005    1    3    3    0    0  0.11858200119E+03  0.38552269522E+02  0.41271591542E+03  0.43114196656E+03  0.10000000000E+01 0.  0.
    9000005    1    3    3    0    0  0.20578107728E+01 -0.46507067303E+02  0.10107796150E+03  0.11128744851E+03  0.10000000000E+01 0.  0.
         21    1    1    2  502  501 -0.12063981197E+03  0.79547977815E+01  0.21571798317E+03  0.24728827571E+03  0.00000000000E+00 0. -1.
<mgrwt>
<rscale>  1 0.17391240E+03</rscale>
<asrwt>0</asrwt>
<pdfrwt beam="2">  1        4 0.46312177E-02 0.17391240E+03</pdfrwt>
<pdfrwt beam="1">  1       -4 0.11686381E+00 0.17391240E+03</pdfrwt>
<totfact> 0.27832185E+02</totfact>
</mgrwt>
</event>
<event>
 6    4  0.1195577E-003  0.1401655E+03  0.7818608E-02  0.1213106E+00
          4   -1    0    0  502    0  0.00000000000E+00  0.00000000000E+00  0.47397137330E+03  0.47397307477E+03  0.12700000000E+01 0.  1.
         -4   -1    0    0    0  501 -0.00000000000E+00 -0.00000000000E+00 -0.30747464100E+02  0.30773681102E+02  0.12700000000E+01 0.  1.
         25    2    1    2    0    0 -0.62299813148E+02  0.11785579605E+02  0.15225262682E+03  0.20694740434E+03  0.12500479664E+03 0.  0.
    9000005    1    3    3    0    0 -0.84980020487E+01  0.63567684047E+02  0.56197662740E+02  0.85277451834E+02  0.10000000000E+01 0.  0.
    9000005    1    3    3    0    0 -0.53801811100E+02 -0.51782104442E+02  0.96054964084E+02  0.12166995251E+03  0.10000000000E+01 0.  0.
         21    1    1    2  502  501  0.62299813148E+02 -0.11785579605E+02  0.29097128238E+03  0.29779935153E+03  0.00000000000E+00 0.  1.
<mgrwt>
<rscale>  1 0.14016549E+03</rscale>
<asrwt>0</asrwt>
<pdfrwt beam="1">  1        4 0.72920812E-01 0.14016549E+03</pdfrwt>
<pdfrwt beam="2">  1       -4 0.47325272E-02 0.14016549E+03</pdfrwt>
<totfact> 0.75882291E+02</totfact>
</mgrwt>
</event>
<event>
 6    4  0.1195577E-003  0.1280272E+03  0.7818608E-02  0.1230413E+00
          4   -1    0    0  502    0  0.00000000000E+00  0.00000000000E+00  0.19405792603E+03  0.19406208170E+03  0.12700000000E+01 0.  1.
         -4   -1    0    0    0  501 -0.00000000000E+00 -0.00000000000E+00 -0.34129390464E+02  0.34153011484E+02  0.12700000000E+01 0.  1.
         25    2    1    2    0    0  0.60653001781E+01 -0.26965100554E+02  0.10080317479E+03  0.16294861786E+03  0.12500826973E+03 0.  0.
    9000005    1    3    3    0    0 -0.13813749110E+02  0.83518161705E+01  0.11786170032E+03  0.11896618386E+03  0.10000000000E+01 0.  0.
    9000005    1    3    3    0    0  0.19879049288E+02 -0.35316916724E+02 -0.17058525538E+02  0.43982434006E+02  0.10000000000E+01 0.  0.
         21    1    1    2  502  501 -0.60653001781E+01  0.26965100554E+02  0.59125360779E+02  0.65266475325E+02  0.00000000000E+00 0.  1.
<mgrwt>
<rscale>  1 0.12802723E+03</rscale>
<asrwt>0</asrwt>
<pdfrwt beam="1">  1        4 0.29857202E-01 0.12802723E+03</pdfrwt>
<pdfrwt beam="2">  1       -4 0.52528122E-02 0.12802723E+03</pdfrwt>
<totfact> 0.38181712E+03</totfact>
</mgrwt>
</event>
<event>
 6    4  0.1195577E-003  0.1276005E+03  0.7818608E-02  0.1231060E+00
          4   -1    0    0  502    0  0.00000000000E+00  0.00000000000E+00  0.57312800807E+02  0.57326870108E+02  0.12700000000E+01 0. -1.
         -4   -1    0    0    0  501 -0.00000000000E+00 -0.00000000000E+00 -0.10341910247E+03  0.10342690006E+03  0.12700000000E+01 0. -1.
         25    2    1    2    0    0  0.16440245640E+02 -0.19661983293E+02 -0.44256746128E+02  0.13505754244E+03  0.12500001971E+03 0.  0.
    9000005    1    3    3    0    0  0.47771195988E+02  0.15414703357E+02 -0.66252249400E+02  0.83126775448E+02  0.10000000000E+01 0.  0.
    9000005    1    3    3    0    0 -0.31330950348E+02 -0.35076686649E+02  0.21995503272E+02  0.51930766990E+02  0.10000000000E+01 0.  0.
         21    1    1    2  502  501 -0.16440245640E+02  0.19661983293E+02 -0.18495555323E+01  0.25696227726E+02  0.00000000000E+00 0. -1.
<mgrwt>
<rscale>  1 0.12760047E+03</rscale>
<asrwt>0</asrwt>
<pdfrwt beam="1">  1        4 0.88190360E-02 0.12760047E+03</pdfrwt>
<pdfrwt beam="2">  1       -4 0.15912313E-01 0.12760047E+03</pdfrwt>
<totfact> 0.51225579E+03</totfact>
</mgrwt>
</event>
<event>
 6    4  0.1195577E-003  0.1334505E+03  0.7818608E-02  0.1222424E+00
          4   -1    0    0  502    0  0.00000000000E+00  0.00000000000E+00  0.22000666830E+02  0.22037292051E+02  0.12700000000E+01 0. -1.
         -4   -1    0    0    0  501 -0.00000000000E+00 -0.00000000000E+00 -0.46128016912E+03  0.46128191740E+03  0.12700000000E+01 0. -1.
         25    2    1    2    0    0  0.46162007996E+01 -0.46528779978E+02 -0.40183931616E+03  0.42341925776E+03  0.12499118028E+03 0.  0.
    9000005    1    3    3    0    0 -0.56115224198E+02 -0.46166345569E+02 -0.21387733976E+03  0.22588662270E+03  0.10000000000E+01 0.  0.
    9000005    1    3    3    0    0  0.60731424998E+02 -0.36243440935E+00 -0.18796197640E+03  0.19753263506E+03  0.10000000000E+01 0.  0.
         21    1    1    2  502  501 -0.46162007996E+01  0.46528779978E+02 -0.37440186126E+02  0.59899951696E+02  0.00000000000E+00 0. -1.
<mgrwt>
<rscale>  1 0.13345048E+03</rscale>
<asrwt>0</asrwt>
<pdfrwt beam="1">  1        4 0.33876701E-02 0.13345048E+03</pdfrwt>
<pdfrwt beam="2">  1       -4 0.70969124E-01 0.13345048E+03</pdfrwt>
<totfact> 0.13551888E+03</totfact>
</mgrwt>
</event>
<event>
 6    4  0.1195577E-003  0.1270058E+03  0.7818608E-02  0.1231967E+00
         -4   -1    0    0    0  501 -0.00000000000E+00  0.00000000000E+00  0.86704314339E+02  0.86713614992E+02  0.12700000000E+01 0.  1.
          4   -1    0    0  502    0  0.00000000000E+00 -0.00000000000E+00 -0.67198640430E+02  0.67210640345E+02  0.12700000000E+01 0.  1.
         25    2    1    2    0    0 -0.21132938669E+02  0.76926310937E+01  0.27694574758E+02  0.12999026764E+03  0.12499881016E+03 0.  0.
    9000005    1    3    3    0    0 -0.30023678885E+02  0.61015888828E+02 -0.25113054940E+01  0.68056348995E+02  0.10000000000E+01 0.  0.
    9000005    1    3    3    0    0  0.88907402159E+01 -0.53323257734E+02  0.30205880252E+02  0.61933918645E+02  0.10000000000E+01 0.  0.
         21    1    1    2  502  501  0.21132938669E+02 -0.76926310937E+01 -0.81889008487E+01  0.23933987697E+02  0.00000000000E+00 0.  1.
<mgrwt>
<rscale>  1 0.12700583E+03</rscale>
<asrwt>0</asrwt>
<pdfrwt beam="2">  1        4 0.10339891E-01 0.12700583E+03</pdfrwt>
<pdfrwt beam="1">  1       -4 0.13340764E-01 0.12700583E+03</pdfrwt>
<totfact> 0.53241025E+03</totfact>
</mgrwt>
</event>
<event>
 6    4  0.1195577E-003  0.1708013E+03  0.7818608E-02  0.1177015E+00
          4   -1    0    0  502    0  0.00000000000E+00  0.00000000000E+00  0.58395658836E+02  0.58409467306E+02  0.12700000000E+01 0.  1.
         -4   -1    0    0    0  501 -0.00000000000E+00 -0.00000000000E+00 -0.41720866971E+03  0.41721060267E+03  0.12700000000E+01 0.  1.
         25    2    1    2    0    0 -0.84062948125E+02 -0.80525410324E+02 -0.29996063195E+03  0.34518033883E+03  0.12498865805E+03 0.  0.
    9000005    1    3    3    0    0 -0.93397952527E+02 -0.51727965992E+02 -0.11178586303E+03  0.15458343758E+03  0.10000000000E+01 0.  0.
    9000005    1    3    3    0    0  0.93350044014E+01 -0.28797444332E+02 -0.18817476892E+03  0.19059690125E+03  0.10000000000E+01 0.  0.
         21    1    1    2  502  501  0.84062948125E+02  0.80525410324E+02 -0.58852378920E+02  0.13043973114E+03  0.00000000000E+00 0.  1.
<mgrwt>
<rscale>  1 0.17080130E+03</rscale>
<asrwt>0</asrwt>
<pdfrwt beam="1">  1        4 0.89851587E-02 0.17080130E+03</pdfrwt>
<pdfrwt beam="2">  1       -4 0.64187158E-01 0.17080130E+03</pdfrwt>
<totfact> 0.36226529E+02</totfact>
</mgrwt>
</event>
<event>
 6    4  0.1195577E-003  0.1273324E+03  0.7818608E-02  0.1231469E+00
          4   -1    0    0  502    0  0.00000000000E+00  0.00000000000E+00  0.47756237486E+02  0.47773121301E+02  0.12700000000E+01 0.  1.
         -4   -1    0    0    0  501 -0.00000000000E+00 -0.00000000000E+00 -0.13537435414E+03  0.13538031119E+03  0.12700000000E+01 0.  1.
         25    2    1    2    0    0  0.22786744643E+02  0.82875675332E+01 -0.93774968147E+02  0.15813691141E+03  0.12500247434E+03 0.  0.
    9000005    1    3    3    0    0 -0.14801024041E+02 -0.37640047771E+02  0.71176105371E+01  0.41079239143E+02  0.10000000000E+01 0.  0.
    9000005    1    3    3    0    0  0.37587768684E+02  0.45927615304E+02 -0.10089257868E+03  0.11705767226E+03  0.10000000000E+01 0.  0.
         21    1    1    2  502  501 -0.22786744643E+02 -0.82875675332E+01  0.61568514929E+01  0.25016521088E+02  0.00000000000E+00 0. -1.
<mgrwt>
<rscale>  1 0.12733239E+03</rscale>
<asrwt>0</asrwt>
<pdfrwt beam="1">  1        4 0.73488705E-02 0.12733239E+03</pdfrwt>
<pdfrwt beam="2">  1       -4 0.20828581E-01 0.12733239E+03</pdfrwt>
<totfact> 0.42894137E+03</totfact>
</mgrwt>
</event>
<event>
 6    4  0.1195577E-003  0.1273096E+03  0.7818608E-02  0.1231503E+00
          4   -1    0    0  502    0  0.00000000000E+00  0.00000000000E+00  0.24380146015E+02  0.24413201750E+02  0.12700000000E+01 0. -1.
         -4   -1    0    0    0  501 -0.00000000000E+00 -0.00000000000E+00 -0.32028509266E+03  0.32028761057E+03  0.12700000000E+01 0. -1.
         25    2    1    2    0    0  0.17510778121E+02 -0.16591838928E+02 -0.29414509956E+03  0.32051375935E+03  0.12500325544E+03 0.  0.
    9000005    1    3    3    0    0  0.59455800736E+01  0.22264503412E+02  0.51894665146E+00  0.23072220098E+02  0.10000000000E+01 0.  0.
    9000005    1    3    3    0    0  0.11565198048E+02 -0.38856342340E+02 -0.29466404621E+03  0.29744153925E+03  0.10000000000E+01 0.  0.
         21    1    1    2  502  501 -0.17510778121E+02  0.16591838928E+02 -0.17598470926E+01  0.24187052966E+02  0.00000000000E+00 0. -1.
<mgrwt>
<rscale>  1 0.12730958E+03</rscale>
<asrwt>0</asrwt>
<pdfrwt beam="1">  1        4 0.37535284E-02 0.12730958E+03</pdfrwt>
<pdfrwt beam="2">  1       -4 0.49277363E-01 0.12730958E+03</pdfrwt>
<totfact> 0.24477206E+03</totfact>
</mgrwt>
</event>
<event>
 6    4  0.1195577E-003  0.1345730E+03  0.7818608E-02  0.1220824E+00
         -4   -1    0    0    0  501 -0.00000000000E+00  0.00000000000E+00  0.16056096324E+03  0.16056598586E+03  0.12700000000E+01 0.  1.
          4   -1    0    0  502    0  0.00000000000E+00 -0.00000000000E+00 -0.57137868264E+02  0.57151980628E+02  0.12700000000E+01 0.  1.
         25    2    1    2    0    0 -0.13497771514E+01  0.49830840919E+02  0.10017249610E+03  0.16776297677E+03  0.12499981117E+03 0.  0.
    9000005    1    3    3    0    0 -0.16009514858E+02 -0.10645550839E+02 -0.22859090100E+02  0.29885955211E+02  0.10000000000E+01 0.  0.
    9000005    1    3    3    0    0  0.14659737706E+02  0.60476391758E+02  0.12303158621E+03  0.13787702156E+03  0.10000000000E+01 0.  0.
         21    1    1    2  502  501  0.13497771514E+01 -0.49830840919E+02  0.32505988705E+01  0.49954989722E+02  0.00000000000E+00 0.  1.
<mgrwt>
<rscale>  1 0.13457298E+03</rscale>
<asrwt>0</asrwt>
<pdfrwt beam="2">  1        4 0.87919134E-02 0.13457298E+03</pdfrwt>
<pdfrwt beam="1">  1       -4 0.24703158E-01 0.13457298E+03</pdfrwt>
<totfact> 0.23663398E+03</totfact>
</mgrwt>
</event>
<event>
 6    4  0.1195577E-003  0.1313203E+03  0.7818608E-02  0.1225510E+00
          4   -1    0    0  502    0  0.00000000000E+00  0.00000000000E+00  0.97228499280E+03  0.97228582224E+03  0.12700000000E+01 0. -1.
         -4   -1    0    0    0  501 -0.00000000000E+00 -0.00000000000E+00 -0.98165795465E+01  0.98983904749E+01  0.12700000000E+01 0. -1.
         25    2    1    2    0    0 -0.40750807791E+01  0.40029885472E+02  0.46781535400E+03  0.48589735308E+03  0.12500413705E+03 0.  0.
    9000005    1    3    3    0    0 -0.32504097183E+02 -0.34791742167E+02  0.23288267145E+03  0.23770216725E+03  0.10000000000E+01 0.  0.
    9000005    1    3    3    0    0  0.28429016404E+02  0.74821627639E+02  0.23493268255E+03  0.24819518583E+03  0.10000000000E+01 0.  0.
         21    1    1    2  502  501  0.40750807791E+01 -0.40029885472E+02  0.49465305926E+03  0.49628685964E+03  0.00000000000E+00 0. -1.
<mgrwt>
<rscale>  1 0.13132034E+03</rscale>
<asrwt>0</asrwt>
<pdfrwt beam="1">  1        4 0.14958866E+00 0.13132034E+03</pdfrwt>
<pdfrwt beam="2">  1       -4 0.15166000E-02 0.13132034E+03</pdfrwt>
<totfact> 0.82345542E+02</totfact>
</mgrwt>
</event>
<event>
 6    4  0.1195577E-003  0.1268666E+03  0.7818608E-02  0.1232181E+00
         -4   -1    0    0    0  501 -0.00000000000E+00  0.00000000000E+00  0.62864854840E+01  0.64134857714E+01  0.12700000000E+01 0.  1.
          4   -1    0    0  502    0  0.00000000000E+00 -0.00000000000E+00 -0.87949942560E+03  0.87950034254E+03  0.12700000000E+01 0.  1.
         25    2    1    2    0    0 -0.13059931961E+02 -0.17301733334E+02 -0.70689814527E+03  0.71819226505E+03  0.12500091996E+03 0.  0.
    9000005    1    3    3    0    0 -0.15938475755E+02 -0.35469551684E+02 -0.69537793662E+03  0.69646507367E+03  0.10000000000E+01 0.  0.
    9000005    1    3    3    0    0  0.28785437937E+01  0.18167818349E+02 -0.11520208657E+02  0.21727191384E+02  0.10000000000E+01 0.  0.
         21    1    1    2  502  501  0.13059931961E+02  0.17301733334E+02 -0.16631479484E+03  0.16772156326E+03  0.00000000000E+00 0.  1.
<mgrwt>
<rscale>  1 0.12686663E+03</rscale>
<asrwt>0</asrwt>
<pdfrwt beam="2">  1        4 0.13531735E+00 0.12686663E+03</pdfrwt>
<pdfrwt beam="1">  1       -4 0.97699210E-03 0.12686663E+03</pdfrwt>
<totfact> 0.20444019E+03</totfact>
</mgrwt>
</event>
<event>
 6    4  0.1195577E-003  0.1269752E+03  0.7818608E-02  0.1232014E+00
         -4   -1    0    0    0  501 -0.00000000000E+00  0.00000000000E+00  0.35198406308E+03  0.35198635423E+03  0.12700000000E+01 0.  1.
          4   -1    0    0  502    0  0.00000000000E+00 -0.00000000000E+00 -0.17476247602E+02  0.17522332329E+02  0.12700000000E+01 0.  1.
         25    2    1    2    0    0 -0.71392730454E+01 -0.21021945374E+02  0.31616733132E+03  0.34071172897E+03  0.12501923636E+03 0.  0.
    9000005    1    3    3    0    0 -0.43672030317E+01  0.30719154805E+02  0.13865661894E+02  0.33999934030E+02  0.10000000000E+01 0.  0.
    9000005    1    3    3    0    0 -0.27720700136E+01 -0.51741100180E+02  0.30230166942E+03  0.30671179494E+03  0.10000000000E+01 0.  0.
         21    1    1    2  502  501  0.71392730454E+01  0.21021945374E+02  0.18340484165E+02  0.28796957588E+02  0.00000000000E+00 0.  1.
<mgrwt>
<rscale>  1 0.12697520E+03</rscale>
<asrwt>0</asrwt>
<pdfrwt beam="2">  1        4 0.26923750E-02 0.12697520E+03</pdfrwt>
<pdfrwt beam="1">  1       -4 0.54155110E-01 0.12697520E+03</pdfrwt>
<totfact> 0.33964087E+03</totfact>
</mgrwt>
</event>
<event>
 6    4  0.1195577E-003  0.1470079E+03  0.7818608E-02  0.1204199E+00
          4   -1    0    0  502    0  0.00000000000E+00  0.00000000000E+00  0.51114244271E+03  0.51114402045E+03  0.12700000000E+01 0. -1.
         -4   -1    0    0    0  501 -0.00000000000E+00 -0.00000000000E+00 -0.24813786241E+02  0.24846265064E+02  0.12700000000E+01 0. -1.
         25    2    1    2    0    0 -0.49600162935E+02  0.59388791819E+02  0.29477469410E+03  0.32939859823E+03  0.12499644585E+03 0.  0.
    9000005    1    3    3    0    0 -0.86641211227E+02  0.27872779216E+02  0.13852748935E+03  0.16575420540E+03  0.10000000000E+01 0.  0.
    9000005    1    3    3    0    0  0.37041048292E+02  0.31516012603E+02  0.15624720475E+03  0.16364439282E+03  0.10000000000E+01 0.  0.
         21    1    1    2  502  501  0.49600162935E+02 -0.59388791819E+02  0.19155396237E+03  0.20659168729E+03  0.00000000000E+00 0. -1.
<mgrwt>
<rscale>  1 0.14700788E+03</rscale>
<asrwt>0</asrwt>
<pdfrwt beam="1">  1        4 0.78639909E-01 0.14700788E+03</pdfrwt>
<pdfrwt beam="2">  1       -4 0.38201258E-02 0.14700788E+03</pdfrwt>
<totfact> 0.91371275E+02</totfact>
</mgrwt>
</event>
<event>
 6    4  0.1195577E-003  0.1297067E+03  0.7818608E-02  0.1227892E+00
         -4   -1    0    0    0  501 -0.00000000000E+00  0.00000000000E+00  0.36784882341E+02  0.36806799220E+02  0.12700000000E+01 0.  1.
          4   -1    0    0  502    0  0.00000000000E+00 -0.00000000000E+00 -0.61529018743E+03  0.61529149811E+03  0.12700000000E+01 0.  1.
         25    2    1    2    0    0 -0.21975354477E+02  0.26722183528E+02 -0.79999586375E+02  0.15239344155E+03  0.12500734343E+03 0.  0.
    9000005    1    3    3    0    0  0.13893199682E+02 -0.72470288547E+01 -0.98416852311E+02  0.99661513352E+02  0.10000000000E+01 0.  0.
    9000005    1    3    3    0    0 -0.35868554159E+02  0.33969212383E+02  0.18417265936E+02  0.52731928202E+02  0.10000000000E+01 0.  0.
         21    1    1    2  502  501  0.21975354477E+02 -0.26722183528E+02 -0.49850571871E+03  0.49970485577E+03  0.00000000000E+00 0.  1.
<mgrwt>
<rscale>  1 0.12970670E+03</rscale>
<asrwt>0</asrwt>
<pdfrwt beam="2">  1        4 0.94661808E-01 0.12970670E+03</pdfrwt>
<pdfrwt beam="1">  1       -4 0.56609999E-02 0.12970670E+03</pdfrwt>
<totfact> 0.31335671E+02</totfact>
</mgrwt>
</event>
<event>
 6    4  0.1195577E-003  0.1413705E+03  0.7818608E-02  0.1211497E+00
          4   -1    0    0  502    0  0.00000000000E+00  0.00000000000E+00  0.81767777870E+02  0.81777639963E+02  0.12700000000E+01 0. -1.
         -4   -1    0    0    0  501 -0.00000000000E+00 -0.00000000000E+00 -0.13305446921E+03  0.13306053012E+03  0.12700000000E+01 0. -1.
         25    2    1    2    0    0  0.37258496659E+02 -0.54522036276E+02 -0.45664109334E+02  0.14856252266E+03  0.12499905698E+03 0.  0.
    9000005    1    3    3    0    0  0.44551594710E+02 -0.70324693975E+02  0.15741547108E+02  0.84730180450E+02  0.10000000000E+01 0.  0.
    9000005    1    3    3    0    0 -0.72930980506E+01  0.15802657699E+02 -0.61405656441E+02  0.63832342214E+02  0.10000000000E+01 0.  0.
         21    1    1    2  502  501 -0.37258496659E+02  0.54522036276E+02 -0.56225820069E+01  0.66275647423E+02  0.00000000000E+00 0. -1.
<mgrwt>
<rscale>  1 0.14137048E+03</rscale>
<asrwt>0</asrwt>
<pdfrwt beam="1">  1        4 0.12580883E-01 0.14137048E+03</pdfrwt>
<pdfrwt beam="2">  1       -4 0.20471143E-01 0.14137048E+03</pdfrwt>
<totfact> 0.18374307E+03</totfact>
</mgrwt>
</event>
<event>
 6    4  0.1195577E-003  0.1330051E+03  0.7818608E-02  0.1223064E+00
         -4   -1    0    0    0  501 -0.00000000000E+00  0.00000000000E+00  0.49714681003E+02  0.49730899924E+02  0.12700000000E+01 0.  1.
          4   -1    0    0  502    0  0.00000000000E+00 -0.00000000000E+00 -0.16505198214E+03  0.16505686810E+03  0.12700000000E+01 0.  1.
         25    2    1    2    0    0  0.20879962201E+02  0.40340123781E+02 -0.68756851927E+02  0.14972597696E+03  0.12500826005E+03 0.  0.
    9000005    1    3    3    0    0 -0.12365672036E+02 -0.41754210885E+02 -0.14771793390E+02  0.45994889406E+02  0.10000000000E+01 0.  0.
    9000005    1    3    3    0    0  0.33245634237E+02  0.82094334666E+02 -0.53985058537E+02  0.10373108755E+03  0.10000000000E+01 0.  0.
         21    1    1    2  502  501 -0.20879962201E+02 -0.40340123781E+02 -0.46580449208E+02  0.65061791065E+02  0.00000000000E+00 0.  1.
<mgrwt>
<rscale>  1 0.13300513E+03</rscale>
<asrwt>0</asrwt>
<pdfrwt beam="2">  1        4 0.25394236E-01 0.13300513E+03</pdfrwt>
<pdfrwt beam="1">  1       -4 0.76500360E-02 0.13300513E+03</pdfrwt>
<totfact> 0.28251980E+03</totfact>
</mgrwt>
</event>
<event>
 6    4  0.1195577E-003  0.1272253E+03  0.7818608E-02  0.1231632E+00
          4   -1    0    0  502    0  0.00000000000E+00  0.00000000000E+00  0.46108184558E+02  0.46125671629E+02  0.12700000000E+01 0. -1.
         -4   -1    0    0    0  501 -0.00000000000E+00 -0.00000000000E+00 -0.19753581145E+03  0.19753989396E+03  0.12700000000E+01 0. -1.
         25    2    1    2    0    0  0.16471662874E+02 -0.17037479610E+02 -0.17085625274E+03  0.21302143252E+03  0.12499872089E+03 0.  0.
    9000005    1    3    3    0    0  0.49451671579E+01 -0.71399616570E+02 -0.99617274660E+02  0.12266605617E+03  0.10000000000E+01 0.  0.
    9000005    1    3    3    0    0  0.11526495716E+02  0.54362136960E+02 -0.71238978080E+02  0.90355376355E+02  0.10000000000E+01 0.  0.
         21    1    1    2  502  501 -0.16471662874E+02  0.17037479610E+02  0.19428625845E+02  0.30644133069E+02  0.00000000000E+00 0. -1.
<mgrwt>
<rscale>  1 0.12722528E+03</rscale>
<asrwt>0</asrwt>
<pdfrwt beam="1">  1        4 0.70952262E-02 0.12722528E+03</pdfrwt>
<pdfrwt beam="2">  1       -4 0.30391784E-01 0.12722528E+03</pdfrwt>
<totfact> 0.22617683E+03</totfact>
</mgrwt>
</event>
<event>
 6    4  0.1195577E-003  0.1282382E+03  0.7818608E-02  0.1230094E+00
         -4   -1    0    0    0  501 -0.00000000000E+00  0.00000000000E+00  0.66920501902E+03  0.66920622411E+03  0.12700000000E+01 0.  1.
          4   -1    0    0  502    0  0.00000000000E+00 -0.00000000000E+00 -0.93673073481E+01  0.94530072968E+01  0.12700000000E+01 0.  1.
         25    2    1    2    0    0 -0.28245107077E+02 -0.47611964364E+01  0.57464910313E+03  0.58878401740E+03  0.12499828943E+03 0.  0.
    9000005    1    3    3    0    0  0.14866665520E+02 -0.54597550796E+02  0.18053675682E+03  0.18919944731E+03  0.10000000000E+01 0.  0.
    9000005    1    3    3    0    0 -0.43111772597E+02  0.49836354360E+02  0.39411234630E+03  0.39958457010E+03  0.10000000000E+01 0.  0.
         21    1    1    2  502  501  0.28245107077E+02  0.47611964364E+01  0.85188608551E+02  0.89875214003E+02  0.00000000000E+00 0.  1.
<mgrwt>
<rscale>  1 0.12823817E+03</rscale>
<asrwt>0</asrwt>
<pdfrwt beam="2">  1        4 0.14478091E-02 0.12823817E+03</pdfrwt>
<pdfrwt beam="1">  1       -4 0.10296131E+00 0.12823817E+03</pdfrwt>
<totfact> 0.21738020E+03</totfact>
</mgrwt>
</event>
<event>
 6    4  0.1195577E-003  0.1273902E+03  0.7818608E-02  0.1231380E+00
          4   -1    0    0  502    0  0.00000000000E+00  0.00000000000E+00  0.56930936818E+03  0.56931078472E+03  0.12700000000E+01 0.  1.
         -4   -1    0    0    0  501 -0.00000000000E+00 -0.00000000000E+00 -0.10492640146E+02  0.10569219329E+02  0.12700000000E+01 0.  1.
         25    2    1    2    0    0  0.23842336512E+02 -0.59190464046E+01  0.41957024073E+03  0.43848312874E+03  0.12499910065E+03 0.  0.
    9000005    1    3    3    0    0 -0.41342746850E+02  0.22163481521E+02  0.25463345822E+03  0.25892014343E+03  0.10000000000E+01 0.  0.
    9000005    1    3    3    0    0  0.65185083362E+02 -0.28082527925E+02  0.16493678251E+03  0.17956298531E+03  0.10000000000E+01 0.  0.
         21    1    1    2  502  501 -0.23842336512E+02  0.59190464046E+01  0.13924648730E+03  0.14139687531E+03  0.00000000000E+00 0. -1.
<mgrwt>
<rscale>  1 0.12739022E+03</rscale>
<asrwt>0</asrwt>
<pdfrwt beam="1">  1        4 0.87592064E-01 0.12739022E+03</pdfrwt>
<pdfrwt beam="2">  1       -4 0.16202519E-02 0.12739022E+03</pdfrwt>
<totfact> 0.26445649E+03</totfact>
</mgrwt>
</event>
<event>
 6    4  0.1195577E-003  0.1271335E+03  0.7818608E-02  0.1231772E+00
          4   -1    0    0  502    0  0.00000000000E+00  0.00000000000E+00  0.46353489798E+02  0.46370884361E+02  0.12700000000E+01 0. -1.
         -4   -1    0    0    0  501 -0.00000000000E+00 -0.00000000000E+00 -0.12241309476E+03  0.12241968252E+03  0.12700000000E+01 0. -1.
         25    2    1    2    0    0 -0.11189225135E+02  0.20325325441E+02 -0.68345999367E+02  0.14434026372E+03  0.12499847394E+03 0.  0.
    9000005    1    3    3    0    0  0.27038053966E+00  0.71020847882E+02 -0.21105722973E+02  0.74097810236E+02  0.10000000000E+01 0.  0.
    9000005    1    3    3    0    0 -0.11459605675E+02 -0.50695522442E+02 -0.47240276393E+02  0.70242453485E+02  0.10000000000E+01 0.  0.
         21    1    1    2  502  501  0.11189225135E+02 -0.20325325441E+02 -0.77136055953E+01  0.24450303161E+02  0.00000000000E+00 0.  1.
<mgrwt>
<rscale>  1 0.12713354E+03</rscale>
<asrwt>0</asrwt>
<pdfrwt beam="1">  1        4 0.71331510E-02 0.12713354E+03</pdfrwt>
<pdfrwt beam="2">  1       -4 0.18834629E-01 0.12713354E+03</pdfrwt>
<totfact> 0.53941121E+03</totfact>
</mgrwt>
</event>
<event>
 6    4  0.1195577E-003  0.1399875E+03  0.7818608E-02  0.1213346E+00
         -4   -1    0    0    0  501 -0.00000000000E+00  0.00000000000E+00  0.10726172184E+03  0.10726924010E+03  0.12700000000E+01 0.  1.
          4   -1    0    0  502    0  0.00000000000E+00 -0.00000000000E+00 -0.10118054392E+03  0.10118851401E+03  0.12700000000E+01 0.  1.
         25    2    1    2    0    0 -0.14031940872E+02 -0.61434794479E+02  0.25971454215E+02  0.14237634652E+03  0.12500151310E+03 0.  0.
    9000005    1    3    3    0    0 -0.49837805759E+02 -0.12071134991E+02 -0.30150137769E+02  0.59494117275E+02  0.10000000000E+01 0.  0.
    9000005    1    3    3    0    0  0.35805864887E+02 -0.49363659488E+02  0.56121591984E+02  0.82882229248E+02  0.10000000000E+01 0.  0.
         21    1    1    2  502  501  0.14031940872E+02  0.61434794479E+02 -0.19890276298E+02  0.66081407586E+02  0.00000000000E+00 0.  1.
<mgrwt>
<rscale>  1 0.13998753E+03</rscale>
<asrwt>0</asrwt>
<pdfrwt beam="2">  1        4 0.15567429E-01 0.13998753E+03</pdfrwt>
<pdfrwt beam="1">  1       -4 0.16502995E-01 0.13998753E+03</pdfrwt>
<totfact> 0.18604801E+03</totfact>
</mgrwt>
</event>
<event>
 6    4  0.1195577E-003  0.1268593E+03  0.7818608E-02  0.1232192E+00
          4   -1    0    0  502    0  0.00000000000E+00  0.00000000000E+00  0.15065342253E+02  0.15118777636E+02  0.12700000000E+01 0.  1.
         -4   -1    0    0    0  501 -0.00000000000E+00 -0.00000000000E+00 -0.41376539994E+03  0.41376734898E+03  0.12700000000E+01 0.  1.
         25    2    1    2    0    0  0.17840818341E+02  0.12224918458E+02 -0.37886750282E+03  0.39954206993E+03  0.12500215007E+03 0.  0.
    9000005    1    3    3    0    0  0.63029189494E+02 -0.25117327971E+02 -0.21843496518E+03  0.22873214227E+03  0.10000000000E+01 0.  0.
    9000005    1    3    3    0    0 -0.45188371152E+02  0.37342246429E+02 -0.16043253764E+03  0.17080992766E+03  0.10000000000E+01 0.  0.
         21    1    1    2  502  501 -0.17840818341E+02 -0.12224918458E+02 -0.19832554863E+02  0.29344056686E+02  0.00000000000E+00 0.  1.
<mgrwt>
<rscale>  1 0.12685930E+03</rscale>
<asrwt>0</asrwt>
<pdfrwt beam="1">  1        4 0.23220056E-02 0.12685930E+03</pdfrwt>
<pdfrwt beam="2">  1       -4 0.63660467E-01 0.12685930E+03</pdfrwt>
<totfact> 0.30474944E+03</totfact>
</mgrwt>
</event>
<event>
 6    4  0.1195577E-003  0.1281871E+03  0.7818608E-02  0.1230171E+00
         -4   -1    0    0    0  501 -0.00000000000E+00  0.00000000000E+00  0.60316808067E+01  0.61639332698E+01  0.12700000000E+01 0.  1.
          4   -1    0    0  502    0  0.00000000000E+00 -0.00000000000E+00 -0.11765564612E+04  0.11765571466E+04  0.12700000000E+01 0.  1.
         25    2    1    2    0    0  0.26632668900E+02 -0.98534318988E+01 -0.72147045501E+03  0.73276977552E+03  0.12500214912E+03 0.  0.
    9000005    1    3    3    0    0  0.23492497028E+02 -0.38818030082E+02 -0.91615575336E+02  0.10224065004E+03  0.10000000000E+01 0.  0.
    9000005    1    3    3    0    0  0.31401718715E+01  0.28964598183E+02 -0.62985487968E+03  0.63052912548E+03  0.10000000000E+01 0.  0.
         21    1    1    2  502  501 -0.26632668900E+02  0.98534318988E+01 -0.44905432539E+03  0.44995130439E+03  0.00000000000E+00 0.  1.
<mgrwt>
<rscale>  1 0.12818708E+03</rscale>
<asrwt>0</asrwt>
<pdfrwt beam="2">  1        4 0.18101873E+00 0.12818708E+03</pdfrwt>
<pdfrwt beam="1">  1       -4 0.93817782E-03 0.12818708E+03</pdfrwt>
<totfact> 0.10264381E+03</totfact>
</mgrwt>
</event>
<event>
 6    4  0.1195577E-003  0.1307006E+03  0.7818608E-02  0.1226420E+00
          4   -1    0    0  502    0  0.00000000000E+00  0.00000000000E+00  0.27398981952E+03  0.27399276286E+03  0.12700000000E+01 0. -1.
         -4   -1    0    0    0  501 -0.00000000000E+00 -0.00000000000E+00 -0.28063156452E+02  0.28091878720E+02  0.12700000000E+01 0. -1.
         25    2    1    2    0    0  0.19415496080E+02  0.32877854640E+02  0.15066517959E+03  0.19945586858E+03  0.12499892942E+03 0.  0.
    9000005    1    3    3    0    0 -0.94258610539E+01 -0.38870308010E+02  0.98108064664E+02  0.10595253680E+03  0.10000000000E+01 0.  0.
    9000005    1    3    3    0    0  0.28841357134E+02  0.71748162650E+02  0.52557114926E+02  0.93503331782E+02  0.10000000000E+01 0.  0.
         21    1    1    2  502  501 -0.19415496080E+02 -0.32877854640E+02  0.95261483474E+02  0.10262877300E+03  0.00000000000E+00 0.  1.
<mgrwt>
<rscale>  1 0.13070060E+03</rscale>
<asrwt>0</asrwt>
<pdfrwt beam="1">  1        4 0.42154714E-01 0.13070060E+03</pdfrwt>
<pdfrwt beam="2">  1       -4 0.43198447E-02 0.13070060E+03</pdfrwt>
<totfact> 0.26951048E+03</totfact>
</mgrwt>
</event>
<event>
 6    4  0.1195577E-003  0.1293322E+03  0.7818608E-02  0.1228450E+00
         -4   -1    0    0    0  501 -0.00000000000E+00  0.00000000000E+00  0.12791020804E+03  0.12791651270E+03  0.12700000000E+01 0.  1.
          4   -1    0    0  502    0  0.00000000000E+00 -0.00000000000E+00 -0.28703368039E+03  0.28703648997E+03  0.12700000000E+01 0.  1.
         25    2    1    2    0    0  0.32337184867E+01  0.33038563965E+02  0.93859549453E+02  0.15980125770E+03  0.12499929318E+03 0.  0.
    9000005    1    3    3    0    0  0.43476350318E+01  0.52103595866E+02 -0.10809331310E+02  0.53399702957E+02  0.10000000000E+01 0.  0.
    9000005    1    3    3    0    0 -0.11139165451E+01 -0.19065031902E+02  0.10466888076E+03  0.10640155474E+03  0.10000000000E+01 0.  0.
         21    1    1    2  502  501 -0.32337184867E+01 -0.33038563965E+02 -0.25298302180E+03  0.25515174497E+03  0.00000000000E+00 0.  1.
<mgrwt>
<rscale>  1 0.12933223E+03</rscale>
<asrwt>0</asrwt>
<pdfrwt beam="2">  1        4 0.44159729E-01 0.12933223E+03</pdfrwt>
<pdfrwt beam="1">  1       -4 0.19679195E-01 0.12933223E+03</pdfrwt>
<totfact> 0.19203769E+02</totfact>
</mgrwt>
</event>
<event>
 6    4  0.1195577E-003  0.1275557E+03  0.7818608E-02  0.1231128E+00
          4   -1    0    0  502    0  0.00000000000E+00  0.00000000000E+00  0.37831260464E+02  0.37852571489E+02  0.12700000000E+01 0. -1.
         -4   -1    0    0    0  501 -0.00000000000E+00 -0.00000000000E+00 -0.48639857797E+03  0.48640023597E+03  0.12700000000E+01 0. -1.
         25    2    1    2    0    0  0.13545315563E+01 -0.25356449781E+02 -0.47246646004E+03  0.48938228532E+03  0.12500272404E+03 0.  0.
    9000005    1    3    3    0    0  0.33606376137E+01 -0.46202898519E+02 -0.46472943972E+03  0.46703367529E+03  0.10000000000E+01 0.  0.
    9000005    1    3    3    0    0 -0.20061060574E+01  0.20846448738E+02 -0.77370203201E+01  0.22348610023E+02  0.10000000000E+01 0.  0.
         21    1    1    2  502  501 -0.13545315563E+01  0.25356449781E+02  0.23899142528E+02  0.34870522147E+02  0.00000000000E+00 0. -1.
<mgrwt>
<rscale>  1 0.12755573E+03</rscale>
<asrwt>0</asrwt>
<pdfrwt beam="1">  1        4 0.58219611E-02 0.12755573E+03</pdfrwt>
<pdfrwt beam="2">  1       -4 0.74832313E-01 0.12755573E+03</pdfrwt>
<totfact> 0.50404276E+02</totfact>
</mgrwt>
</event>
<event>
 6    4  0.1195577E-003  0.1363674E+03  0.7818608E-02  0.1218302E+00
          4   -1    0    0  502    0  0.00000000000E+00  0.00000000000E+00  0.91203835595E+02  0.91212677448E+02  0.12700000000E+01 0. -1.
         -4   -1    0    0    0  501 -0.00000000000E+00 -0.00000000000E+00 -0.16993998775E+03  0.16994473319E+03  0.12700000000E+01 0. -1.
         25    2    1    2    0    0  0.43510707600E+02  0.32834110949E+02 -0.12848290532E+03  0.18736039195E+03  0.12499919597E+03 0.  0.
    9000005    1    3    3    0    0  0.30568046722E+02 -0.45106705085E+02 -0.34175446270E+02  0.64327143974E+02  0.10000000000E+01 0.  0.
    9000005    1    3    3    0    0  0.12942660878E+02  0.77940816034E+02 -0.94307459047E+02  0.12303324797E+03  0.10000000000E+01 0.  0.
         21    1    1    2  502  501 -0.43510707600E+02 -0.32834110949E+02  0.49746753158E+02  0.73797018689E+02  0.00000000000E+00 0.  1.
<mgrwt>
<rscale>  1 0.13636737E+03</rscale>
<asrwt>0</asrwt>
<pdfrwt beam="1">  1        4 0.14032405E-01 0.13636737E+03</pdfrwt>
<pdfrwt beam="2">  1       -4 0.26145659E-01 0.13636737E+03</pdfrwt>
<totfact> 0.96499945E+02</totfact>
</mgrwt>
</event>
<event>
 6    4  0.1195577E-003  0.1297754E+03  0.7818608E-02  0.1227789E+00
         -4   -1    0    0    0  501 -0.00000000000E+00  0.00000000000E+00  0.91874111382E+02  0.91882888735E+02  0.12700000000E+01 0.  1.
          4   -1    0    0  502    0  0.00000000000E+00 -0.00000000000E+00 -0.74095014710E+02  0.74105897909E+02  0.12700000000E+01 0.  1.
         25    2    1    2    0    0 -0.29628795486E+02 -0.18414978005E+02  0.18553522471E+02  0.13109499533E+03  0.12499875066E+03 0.  0.
    9000005    1    3    3    0    0  0.12852553366E+01  0.90015038938E+01 -0.50117134488E+02  0.50945128549E+02  0.10000000000E+01 0.  0.
    9000005    1    3    3    0    0 -0.30914050822E+02 -0.27416481899E+02  0.68670656958E+02  0.80149866781E+02  0.10000000000E+01 0.  0.
         21    1    1    2  502  501  0.29628795486E+02  0.18414978005E+02 -0.77442579873E+00  0.34893791313E+02  0.00000000000E+00 0.  1.
<mgrwt>
<rscale>  1 0.12977544E+03</rscale>
<asrwt>0</asrwt>
<pdfrwt beam="2">  1        4 0.11400745E-01 0.12977544E+03</pdfrwt>
<pdfrwt beam="1">  1       -4 0.14135991E-01 0.12977544E+03</pdfrwt>
<totfact> 0.41043250E+03</totfact>
</mgrwt>
</event>
<event>
 6    4  0.1195577E-003  0.1390952E+03  0.7818608E-02  0.1214552E+00
          4   -1    0    0  502    0  0.00000000000E+00  0.00000000000E+00  0.83800822274E+02  0.83810445136E+02  0.12700000000E+01 0.  1.
         -4   -1    0    0    0  501 -0.00000000000E+00 -0.00000000000E+00 -0.12458641318E+03  0.12459288603E+03  0.12700000000E+01 0.  1.
         25    2    1    2    0    0  0.47212621861E+02 -0.38652648053E+02 -0.47583128762E+02  0.14700898789E+03  0.12499771803E+03 0.  0.
    9000005    1    3    3    0    0 -0.35096081401E+02 -0.16939601089E+02 -0.48053285936E+02  0.61877324635E+02  0.10000000000E+01 0.  0.
    9000005    1    3    3    0    0  0.82308703262E+02 -0.21713046964E+02  0.47015717436E+00  0.85131663257E+02  0.10000000000E+01 0.  0.
         21    1    1    2  502  501 -0.47212621861E+02  0.38652648053E+02  0.67975378590E+01  0.61394343270E+02  0.00000000000E+00 0.  1.
<mgrwt>
<rscale>  1 0.13909525E+03</rscale>
<asrwt>0</asrwt>
<pdfrwt beam="1">  1        4 0.12893672E-01 0.13909525E+03</pdfrwt>
<pdfrwt beam="2">  1       -4 0.19168379E-01 0.13909525E+03</pdfrwt>
<totfact> 0.19755154E+03</totfact>
</mgrwt>
</event>
<event>
 6    4  0.1195577E-003  0.1282010E+03  0.7818608E-02  0.1230150E+00
          4   -1    0    0  502    0  0.00000000000E+00  0.00000000000E+00  0.26551469223E+02  0.26581824954E+02  0.12700000000E+01 0. -1.
         -4   -1    0    0    0  501 -0.00000000000E+00 -0.00000000000E+00 -0.25246531816E+03  0.25246851244E+03  0.12700000000E+01 0. -1.
         25    2    1    2    0    0  0.27444134458E+02  0.76937438447E+01 -0.21097030298E+03  0.24686829619E+03  0.12499245062E+03 0.  0.
    9000005    1    3    3    0    0  0.20518901049E+02  0.24946273370E+02  0.26625271654E+01  0.32425775337E+02  0.10000000000E+01 0.  0.
    9000005    1    3    3    0    0  0.69252334088E+01 -0.17252529525E+02 -0.21363283015E+03  0.21444252085E+03  0.10000000000E+01 0.  0.
         21    1    1    2  502  501 -0.27444134458E+02 -0.76937438447E+01 -0.14943545957E+02  0.32182041207E+02  0.00000000000E+00 0. -1.
<mgrwt>
<rscale>  1 0.12820096E+03</rscale>
<asrwt>0</asrwt>
<pdfrwt beam="1">  1        4 0.40874224E-02 0.12820096E+03</pdfrwt>
<pdfrwt beam="2">  1       -4 0.38843397E-01 0.12820096E+03</pdfrwt>
<totfact> 0.34413441E+03</totfact>
</mgrwt>
</event>
<event>
 6    4  0.1195577E-003  0.1267513E+03  0.7818608E-02  0.1232357E+00
         -4   -1    0    0    0  501 -0.00000000000E+00  0.00000000000E+00  0.35905076401E+02  0.35927529993E+02  0.12700000000E+01 0. -1.
          4   -1    0    0  502    0  0.00000000000E+00 -0.00000000000E+00 -0.27349531810E+03  0.27349826676E+03  0.12700000000E+01 0. -1.
         25    2    1    2    0    0  0.17977911441E+02 -0.10667805468E+02 -0.78765028050E+02  0.14923074108E+03  0.12501550730E+03 0.  0.
    9000005    1    3    3    0    0  0.65344622817E+02  0.14360620596E+02 -0.20292692045E+02  0.69920958985E+02  0.10000000000E+01 0.  0.
    9000005    1    3    3    0    0 -0.47366711375E+02 -0.25028426064E+02 -0.58472336005E+02  0.79309782093E+02  0.10000000000E+01 0.  0.
         21    1    1    2  502  501 -0.17977911441E+02  0.10667805468E+02 -0.15882521365E+03  0.16019505568E+03  0.00000000000E+00 0. -1.
<mgrwt>
<rscale>  1 0.12675127E+03</rscale>
<asrwt>0</asrwt>
<pdfrwt beam="2">  1        4 0.42078156E-01 0.12675127E+03</pdfrwt>
<pdfrwt beam="1">  1       -4 0.55258121E-02 0.12675127E+03</pdfrwt>
<totfact> 0.18092976E+03</totfact>
</mgrwt>
</event>
<event>
 6    4  0.1195577E-003  0.1282561E+03  0.7818608E-02  0.1230067E+00
          4   -1    0    0  502    0  0.00000000000E+00  0.00000000000E+00  0.16277347660E+04  0.16277352614E+04  0.12700000000E+01 0.  1.
         -4   -1    0    0    0  501 -0.00000000000E+00 -0.00000000000E+00 -0.36872609905E+01  0.38998453318E+01  0.12700000000E+01 0.  1.
         25    2    1    2    0    0  0.28254165216E+02  0.52000020102E+01  0.13563751152E+04  0.13624254373E+04  0.12499712474E+03 0.  0.
    9000005    1    3    3    0    0 -0.16915031642E+02 -0.27704517411E+02  0.10745364877E+03  0.11225393184E+03  0.10000000000E+01 0.  0.
    9000005    1    3    3    0    0  0.45169196858E+02  0.32904519421E+02  0.12489214664E+04  0.12501715054E+04  0.10000000000E+01 0.  0.
         21    1    1    2  502  501 -0.28254165216E+02 -0.52000020102E+01  0.26767238985E+03  0.26920966952E+03  0.00000000000E+00 0. -1.
<mgrwt>
<rscale>  1 0.12825607E+03</rscale>
<asrwt>0</asrwt>
<pdfrwt beam="1">  1        4 0.25043781E+00 0.12825607E+03</pdfrwt>
<pdfrwt beam="2">  1       -4 0.58366007E-03 0.12825607E+03</pdfrwt>
<totfact> 0.79304014E+02</totfact>
</mgrwt>
</event>
<event>
 6    4  0.1195577E-003  0.1266930E+03  0.7818608E-02  0.1232447E+00
          4   -1    0    0  502    0  0.00000000000E+00  0.00000000000E+00  0.83097194260E+02  0.83106898593E+02  0.12700000000E+01 0.  1.
         -4   -1    0    0    0  501 -0.00000000000E+00 -0.00000000000E+00 -0.30440951652E+03  0.30441216573E+03  0.12700000000E+01 0.  1.
         25    2    1    2    0    0  0.19807442171E+02 -0.51794527205E+01 -0.28966841730E+03  0.31616279462E+03  0.12502783380E+03 0.  0.
    9000005    1    3    3    0    0 -0.70858340695E+01  0.50677762235E+02 -0.63009881316E+02  0.81176904185E+02  0.10000000000E+01 0.  0.
    9000005    1    3    3    0    0  0.26893276240E+02 -0.55857214956E+02 -0.22665853599E+03  0.23498589044E+03  0.10000000000E+01 0.  0.
         21    1    1    2  502  501 -0.19807442171E+02  0.51794527205E+01  0.68356095046E+02  0.71356269702E+02  0.00000000000E+00 0.  1.
<mgrwt>
<rscale>  1 0.12669302E+03</rscale>
<asrwt>0</asrwt>
<pdfrwt beam="1">  1        4 0.12785134E-01 0.12669302E+03</pdfrwt>
<pdfrwt beam="2">  1       -4 0.46833183E-01 0.12669302E+03</pdfrwt>
<totfact> 0.36231935E+02</totfact>
</mgrwt>
</event>
<event>
 6    4  0.1195577E-003  0.1325750E+03  0.7818608E-02  0.1223684E+00
          4   -1    0    0  502    0  0.00000000000E+00  0.00000000000E+00  0.24997576177E+03  0.24997898786E+03  0.12700000000E+01 0. -1.
         -4   -1    0    0    0  501 -0.00000000000E+00 -0.00000000000E+00 -0.31408491441E+02  0.31434157132E+02  0.12700000000E+01 0. -1.
         25    2    1    2    0    0  0.60941427009E+01 -0.43763668962E+02  0.15446154876E+03  0.20355467831E+03  0.12499495878E+03 0.  0.
    9000005    1    3    3    0    0 -0.10687969282E+02 -0.69927073939E-01 -0.20120110572E+02  0.22804745703E+02  0.10000000000E+01 0.  0.
    9000005    1    3    3    0    0  0.16782111983E+02 -0.43693741888E+02  0.17458165933E+03  0.18074993261E+03  0.10000000000E+01 0.  0.
         21    1    1    2  502  501 -0.60941427009E+01  0.43763668962E+02  0.64105721569E+02  0.77858466683E+02  0.00000000000E+00 0. -1.
<mgrwt>
<rscale>  1 0.13257502E+03</rscale>
<asrwt>0</asrwt>
<pdfrwt beam="1">  1        4 0.38460031E-01 0.13257502E+03</pdfrwt>
<pdfrwt beam="2">  1       -4 0.48342982E-02 0.13257502E+03</pdfrwt>
<totfact> 0.27060869E+03</totfact>
</mgrwt>
</event>
<event>
 6    4  0.1195577E-003  0.1290933E+03  0.7818608E-02  0.1228807E+00
          4   -1    0    0  502    0  0.00000000000E+00  0.00000000000E+00  0.20561234426E+03  0.20561626641E+03  0.12700000000E+01 0. -1.
         -4   -1    0    0    0  501 -0.00000000000E+00 -0.00000000000E+00 -0.33998464343E+02  0.34022176263E+02  0.12700000000E+01 0. -1.
         25    2    1    2    0    0  0.15008711349E+02  0.28558879708E+02  0.10800563475E+03  0.16831607676E+03  0.12499685408E+03 0.  0.
    9000005    1    3    3    0    0 -0.45322883479E+02  0.45599737900E+02  0.69753955278E+02  0.94868931376E+02  0.10000000000E+01 0.  0.
    9000005    1    3    3    0    0  0.60331594828E+02 -0.17040858192E+02  0.38251679473E+02  0.73447145383E+02  0.10000000000E+01 0.  0.
         21    1    1    2  502  501 -0.15008711349E+02 -0.28558879708E+02  0.63608245169E+02  0.71322365917E+02  0.00000000000E+00 0.  1.
<mgrwt>
<rscale>  1 0.12909332E+03</rscale>
<asrwt>0</asrwt>
<pdfrwt beam="1">  1        4 0.31634793E-01 0.12909332E+03</pdfrwt>
<pdfrwt beam="2">  1       -4 0.52326588E-02 0.12909332E+03</pdfrwt>
<totfact> 0.34503349E+03</totfact>
</mgrwt>
</event>
<event>
 6    4  0.1195577E-003  0.1298596E+03  0.7818608E-02  0.1227664E+00
         -4   -1    0    0    0  501 -0.00000000000E+00  0.00000000000E+00  0.33105010190E+02  0.33129361594E+02  0.12700000000E+01 0. -1.
          4   -1    0    0  502    0  0.00000000000E+00 -0.00000000000E+00 -0.21372603073E+03  0.21372980399E+03  0.12700000000E+01 0. -1.
         25    2    1    2    0    0  0.22652859175E+02  0.26909299924E+02 -0.12022979922E+03  0.17697095439E+03  0.12500500640E+03 0.  0.
    9000005    1    3    3    0    0  0.20753967775E+02 -0.29982528259E+02  0.73976248488E+01  0.37221016008E+02  0.10000000000E+01 0.  0.
    9000005    1    3    3    0    0  0.18988913993E+01  0.56891828184E+02 -0.12762742407E+03  0.13974993838E+03  0.10000000000E+01 0.  0.
         21    1    1    2  502  501 -0.22652859175E+02 -0.26909299924E+02 -0.60391221327E+02  0.69888211199E+02  0.00000000000E+00 0. -1.
<mgrwt>
<rscale>  1 0.12985959E+03</rscale>
<asrwt>0</asrwt>
<pdfrwt beam="2">  1        4 0.32883090E-01 0.12985959E+03</pdfrwt>
<pdfrwt beam="1">  1       -4 0.50952421E-02 0.12985959E+03</pdfrwt>
<totfact> 0.33499692E+03</totfact>
</mgrwt>
</event>
<event>
 6    4  0.1195577E-003  0.1350456E+03  0.7818608E-02  0.1220155E+00
          4   -1    0    0  502    0  0.00000000000E+00  0.00000000000E+00  0.44138453709E+03  0.44138636418E+03  0.12700000000E+01 0. -1.
         -4   -1    0    0    0  501 -0.00000000000E+00 -0.00000000000E+00 -0.25667232604E+02  0.25698632835E+02  0.12700000000E+01 0. -1.
         25    2    1    2    0    0  0.45724055742E+02  0.22842964103E+02  0.17525339249E+03  0.22124890679E+03  0.12499934758E+03 0.  0.
    9000005    1    3    3    0    0 -0.31961877615E+02 -0.71855386358E+01  0.70102871251E+01  0.33516230571E+02  0.10000000000E+01 0.  0.
    9000005    1    3    3    0    0  0.77685933357E+02  0.30028502739E+02  0.16824310536E+03  0.18773267622E+03  0.10000000000E+01 0.  0.
         21    1    1    2  502  501 -0.45724055742E+02 -0.22842964103E+02  0.24046391200E+03  0.24583609022E+03  0.00000000000E+00 0.  1.
<mgrwt>
<rscale>  1 0.13504565E+03</rscale>
<asrwt>0</asrwt>
<pdfrwt beam="1">  1        4 0.67907857E-01 0.13504565E+03</pdfrwt>
<pdfrwt beam="2">  1       -4 0.39513617E-02 0.13504565E+03</pdfrwt>
<totfact> 0.11712801E+03</totfact>
</mgrwt>
</event>
<event>
 6    4  0.1195577E-003  0.1447315E+03  0.7818608E-02  0.1207101E+00
          4   -1    0    0  502    0  0.00000000000E+00  0.00000000000E+00  0.30666675238E+02  0.30692961247E+02  0.12700000000E+01 0. -1.
         -4   -1    0    0    0  501 -0.00000000000E+00 -0.00000000000E+00 -0.39395947603E+03  0.39396152307E+03  0.12700000000E+01 0. -1.
         25    2    1    2    0    0  0.72436246643E+02  0.86495451175E+01 -0.26869105243E+03  0.30519187404E+03  0.12500149547E+03 0.  0.
    9000005    1    3    3    0    0 -0.74783341627E+01  0.36978772152E+02 -0.17416584956E+03  0.17820801953E+03  0.10000000000E+01 0.  0.
    9000005    1    3    3    0    0  0.79914580806E+02 -0.28329227034E+02 -0.94525202864E+02  0.12698385451E+03  0.10000000000E+01 0.  0.
         21    1    1    2  502  501 -0.72436246643E+02 -0.86495451175E+01 -0.94601748370E+02  0.11946261027E+03  0.00000000000E+00 0. -1.
<mgrwt>
<rscale>  1 0.14473147E+03</rscale>
<asrwt>0</asrwt>
<pdfrwt beam="1">  1        4 0.47201298E-02 0.14473147E+03</pdfrwt>
<pdfrwt beam="2">  1       -4 0.60611326E-01 0.14473147E+03</pdfrwt>
<totfact> 0.11393321E+03</totfact>
</mgrwt>
</event>
<event>
 6    4  0.1195577E-003  0.1404807E+03  0.7818608E-02  0.1212684E+00
         -4   -1    0    0    0  501 -0.00000000000E+00  0.00000000000E+00  0.25048944796E+02  0.25081119102E+02  0.12700000000E+01 0. -1.
          4   -1    0    0  502    0  0.00000000000E+00 -0.00000000000E+00 -0.41856285600E+03  0.41856478271E+03  0.12700000000E+01 0. -1.
         25    2    1    2    0    0  0.35569120143E+02 -0.53329875729E+02 -0.25929173186E+03  0.29490172081E+03  0.12500233907E+03 0.  0.
    9000005    1    3    3    0    0  0.17292183751E+02 -0.30437779333E+02 -0.10862223654E+01  0.35037949549E+02  0.10000000000E+01 0.  0.
    9000005    1    3    3    0    0  0.18276936392E+02 -0.22892096396E+02 -0.25820550949E+03  0.25986377126E+03  0.10000000000E+01 0.  0.
         21    1    1    2  502  501 -0.35569120143E+02  0.53329875729E+02 -0.13422217935E+03  0.14874418100E+03  0.00000000000E+00 0. -1.
<mgrwt>
<rscale>  1 0.14048068E+03</rscale>
<asrwt>0</asrwt>
<pdfrwt beam="2">  1        4 0.64396904E-01 0.14048068E+03</pdfrwt>
<pdfrwt beam="1">  1       -4 0.38563073E-02 0.14048068E+03</pdfrwt>
<totfact> 0.13749889E+03</totfact>
</mgrwt>
</event>
<event>
 6    4  0.1195577E-003  0.1384446E+03  0.7818608E-02  0.1215437E+00
         -4   -1    0    0    0  501 -0.00000000000E+00  0.00000000000E+00  0.70352936304E+02  0.70364398289E+02  0.12700000000E+01 0. -1.
          4   -1    0    0  502    0  0.00000000000E+00 -0.00000000000E+00 -0.71550220429E+03  0.71550333140E+03  0.12700000000E+01 0. -1.
         25    2    1    2    0    0 -0.61265814144E+01 -0.59196441889E+02 -0.46805284302E+00  0.13844543868E+03  0.12500066675E+03 0.  0.
    9000005    1    3    3    0    0 -0.54877360326E+02  0.43309007683E+01 -0.14978078483E+02  0.57058077542E+02  0.10000000000E+01 0.  0.
    9000005    1    3    3    0    0  0.48750778911E+02 -0.63527342658E+02  0.14510025640E+02  0.81387361142E+02  0.10000000000E+01 0.  0.
         21    1    1    2  502  501  0.61265814144E+01  0.59196441889E+02 -0.64468121514E+03  0.64742229101E+03  0.00000000000E+00 0. -1.
<mgrwt>
<rscale>  1 0.13844465E+03</rscale>
<asrwt>0</asrwt>
<pdfrwt beam="2">  1        4 0.11007823E+00 0.13844465E+03</pdfrwt>
<pdfrwt beam="1">  1       -4 0.10824498E-01 0.13844465E+03</pdfrwt>
<totfact> 0.76341558E+01</totfact>
</mgrwt>
</event>
<event>
 6    4  0.1195577E-003  0.1409744E+03  0.7818608E-02  0.1212024E+00
         -4   -1    0    0    0  501 -0.00000000000E+00  0.00000000000E+00  0.67917197584E+02  0.67929070564E+02  0.12700000000E+01 0.  1.
          4   -1    0    0  502    0  0.00000000000E+00 -0.00000000000E+00 -0.16209766495E+03  0.16210263996E+03  0.12700000000E+01 0.  1.
         25    2    1    2    0    0  0.22754915741E+02  0.61084479327E+02 -0.43721485294E+02  0.14759865479E+03  0.12499877926E+03 0.  0.
    9000005    1    3    3    0    0 -0.50399199197E+02  0.33776277183E+02 -0.63028707139E+01  0.61005265013E+02  0.10000000000E+01 0.  0.
    9000005    1    3    3    0    0  0.73154114939E+02  0.27308202143E+02 -0.37418614580E+02  0.86593389781E+02  0.10000000000E+01 0.  0.
         21    1    1    2  502  501 -0.22754915741E+02 -0.61084479327E+02 -0.50458982070E+02  0.82433055728E+02  0.00000000000E+00 0.  1.
<mgrwt>
<rscale>  1 0.14097445E+03</rscale>
<asrwt>0</asrwt>
<pdfrwt beam="2">  1        4 0.24939398E-01 0.14097445E+03</pdfrwt>
<pdfrwt beam="1">  1       -4 0.10450096E-01 0.14097445E+03</pdfrwt>
<totfact> 0.17572517E+03</totfact>
</mgrwt>
</event>
<event>
 6    4  0.1195577E-003  0.1283287E+03  0.7818608E-02  0.1229957E+00
          4   -1    0    0  502    0  0.00000000000E+00  0.00000000000E+00  0.82933970093E+02  0.82943693524E+02  0.12700000000E+01 0. -1.
         -4   -1    0    0    0  501 -0.00000000000E+00 -0.00000000000E+00 -0.35350549441E+03  0.35350777569E+03  0.12700000000E+01 0. -1.
         25    2    1    2    0    0  0.16386081028E+02  0.23968584760E+02 -0.33880681251E+03  0.36229588101E+03  0.12500100994E+03 0.  0.
    9000005    1    3    3    0    0 -0.47363234834E+02 -0.15420111107E+02 -0.17874467856E+03  0.18555785069E+03  0.10000000000E+01 0.  0.
    9000005    1    3    3    0    0  0.63749315862E+02  0.39388695867E+02 -0.16006213396E+03  0.17673803032E+03  0.10000000000E+01 0.  0.
         21    1    1    2  502  501 -0.16386081028E+02 -0.23968584760E+02  0.68235288199E+02  0.74155588208E+02  0.00000000000E+00 0. -1.
<mgrwt>
<rscale>  1 0.12832868E+03</rscale>
<asrwt>0</asrwt>
<pdfrwt beam="1">  1        4 0.12759996E-01 0.12832868E+03</pdfrwt>
<pdfrwt beam="2">  1       -4 0.54386383E-01 0.12832868E+03</pdfrwt>
<totfact> 0.26873511E+02</totfact>
</mgrwt>
</event>
<event>
 6    4  0.1195577E-003  0.1294300E+03  0.7818608E-02  0.1228304E+00
          4   -1    0    0  502    0  0.00000000000E+00  0.00000000000E+00  0.23412777460E+03  0.23413121906E+03  0.12700000000E+01 0. -1.
         -4   -1    0    0    0  501 -0.00000000000E+00 -0.00000000000E+00 -0.63318724423E+02  0.63331459501E+02  0.12700000000E+01 0. -1.
         25    2    1    2    0    0  0.29042966621E+02  0.16920914281E+02  0.63304957124E+01  0.12958472846E+03  0.12498926124E+03 0.  0.
    9000005    1    3    3    0    0 -0.49002366901E+02  0.15250734144E+02  0.38747994213E+01  0.51476508471E+02  0.10000000000E+01 0.  0.
    9000005    1    3    3    0    0  0.78045333522E+02  0.16701801374E+01  0.24556962911E+01  0.78108219993E+02  0.10000000000E+01 0.  0.
         21    1    1    2  502  501 -0.29042966621E+02 -0.16920914281E+02  0.16447855446E+03  0.16787795009E+03  0.00000000000E+00 0. -1.
<mgrwt>
<rscale>  1 0.12943001E+03</rscale>
<asrwt>0</asrwt>
<pdfrwt beam="1">  1        4 0.36020903E-01 0.12943001E+03</pdfrwt>
<pdfrwt beam="2">  1       -4 0.97425866E-02 0.12943001E+03</pdfrwt>
<totfact> 0.96922106E+02</totfact>
</mgrwt>
</event>
<event>
 6    4  0.1195577E-003  0.1271514E+03  0.7818608E-02  0.1231745E+00
          4   -1    0    0  502    0  0.00000000000E+00  0.00000000000E+00  0.13814242006E+03  0.13814825775E+03  0.12700000000E+01 0. -1.
         -4   -1    0    0    0  501 -0.00000000000E+00 -0.00000000000E+00 -0.43263363844E+02  0.43282000313E+02  0.12700000000E+01 0. -1.
         25    2    1    2    0    0  0.19205380435E+02  0.13194995583E+02  0.62889820429E+02  0.14185418256E+03  0.12499810019E+03 0.  0.
    9000005    1    3    3    0    0  0.49351818757E+01 -0.42022248273E+02 -0.15357660540E+02  0.45023139687E+02  0.10000000000E+01 0.  0.
    9000005    1    3    3    0    0  0.14270198559E+02  0.55217243856E+02  0.78247480969E+02  0.96831042873E+02  0.10000000000E+01 0.  0.
         21    1    1    2  502  501 -0.19205380435E+02 -0.13194995583E+02  0.31989235784E+02  0.39576075502E+02  0.00000000000E+00 0.  1.
<mgrwt>
<rscale>  1 0.12715140E+03</rscale>
<asrwt>0</asrwt>
<pdfrwt beam="1">  1        4 0.21254562E-01 0.12715140E+03</pdfrwt>
<pdfrwt beam="2">  1       -4 0.66577848E-02 0.12715140E+03</pdfrwt>
<totfact> 0.48603448E+03</totfact>
</mgrwt>
</event>
<event>
 6    4  0.1195577E-003  0.1266255E+03  0.7818608E-02  0.1232551E+00
         -4   -1    0    0    0  501 -0.00000000000E+00  0.00000000000E+00  0.12194040521E+02  0.12259996910E+02  0.12700000000E+01 0. -1.
          4   -1    0    0  502    0  0.00000000000E+00 -0.00000000000E+00 -0.48262919536E+03  0.48263086631E+03  0.12700000000E+01 0. -1.
         25    2    1    2    0    0 -0.76779440152E+01  0.18716407512E+02 -0.33840332697E+03  0.36131819272E+03  0.12499907979E+03 0.  0.
    9000005    1    3    3    0    0 -0.18838277293E+02 -0.11785807978E+02 -0.32565180663E+03  0.32641060816E+03  0.10000000000E+01 0.  0.
    9000005    1    3    3    0    0  0.11160333278E+02  0.30502215490E+02 -0.12751520349E+02  0.34907584561E+02  0.10000000000E+01 0.  0.
         21    1    1    2  502  501  0.76779440152E+01 -0.18716407512E+02 -0.13203182786E+03  0.13357267050E+03  0.00000000000E+00 0.  1.
<mgrwt>
<rscale>  1 0.12662553E+03</rscale>
<asrwt>0</asrwt>
<pdfrwt beam="2">  1        4 0.74255833E-01 0.12662553E+03</pdfrwt>
<pdfrwt beam="1">  1       -4 0.18812087E-02 0.12662553E+03</pdfrwt>
<totfact> 0.30272048E+03</totfact>
</mgrwt>
</event>
<event>
 6    4  0.1195577E-003  0.1350628E+03  0.7818608E-02  0.1220131E+00
          4   -1    0    0  502    0  0.00000000000E+00  0.00000000000E+00  0.11644607235E+03  0.11645299767E+03  0.12700000000E+01 0. -1.
         -4   -1    0    0    0  501 -0.00000000000E+00 -0.00000000000E+00 -0.97803388765E+02  0.97811634042E+02  0.12700000000E+01 0. -1.
         25    2    1    2    0    0 -0.14945030789E+02  0.48919796101E+02 -0.35632268299E+02  0.13968399885E+03  0.12500184236E+03 0.  0.
    9000005    1    3    3    0    0  0.51243956275E+02 -0.23823237903E+01 -0.12966299040E+02  0.52922050529E+02  0.10000000000E+01 0.  0.
    9000005    1    3    3    0    0 -0.66188987064E+02  0.51302119892E+02 -0.22665969259E+02  0.86761948321E+02  0.10000000000E+01 0.  0.
         21    1    1    2  502  501  0.14945030789E+02 -0.48919796101E+02  0.54274951888E+02  0.74580632863E+02  0.00000000000E+00 0. -1.
<mgrwt>
<rscale>  1 0.13506280E+03</rscale>
<asrwt>0</asrwt>
<pdfrwt beam="1">  1        4 0.17915947E-01 0.13506280E+03</pdfrwt>
<pdfrwt beam="2">  1       -4 0.15047842E-01 0.13506280E+03</pdfrwt>
<totfact> 0.16938929E+03</totfact>
</mgrwt>
</event>
<event>
 6    4  0.1195577E-003  0.1269202E+03  0.7818608E-02  0.1232098E+00
         -4   -1    0    0    0  501 -0.00000000000E+00  0.00000000000E+00  0.14429148392E+03  0.14429707284E+03  0.12700000000E+01 0.  1.
          4   -1    0    0  502    0  0.00000000000E+00 -0.00000000000E+00 -0.48304449211E+02  0.48321141477E+02  0.12700000000E+01 0.  1.
         25    2    1    2    0    0  0.21232086706E+02 -0.56309655777E+01  0.10881485680E+03  0.16718079506E+03  0.12500494349E+03 0.  0.
    9000005    1    3    3    0    0 -0.42855993828E+02  0.30375203878E+02  0.35867640813E+02  0.63614282006E+02  0.10000000000E+01 0.  0.
    9000005    1    3    3    0    0  0.64088080534E+02 -0.36006169456E+02  0.72947215986E+02  0.10356651305E+03  0.10000000000E+01 0.  0.
         21    1    1    2  502  501 -0.21232086706E+02  0.56309655777E+01 -0.12827822091E+02  0.25437419265E+02  0.00000000000E+00 0. -1.
<mgrwt>
<rscale>  1 0.12692023E+03</rscale>
<asrwt>0</asrwt>
<pdfrwt beam="2">  1        4 0.74331677E-02 0.12692023E+03</pdfrwt>
<pdfrwt beam="1">  1       -4 0.22200404E-01 0.12692023E+03</pdfrwt>
<totfact> 0.37473725E+03</totfact>
</mgrwt>
</event>
<event>
 6    4  0.1195577E-003  0.1284148E+03  0.7818608E-02  0.1229827E+00
         -4   -1    0    0    0  501 -0.00000000000E+00  0.00000000000E+00  0.41431414864E+02  0.41450874993E+02  0.12700000000E+01 0. -1.
          4   -1    0    0  502    0  0.00000000000E+00 -0.00000000000E+00 -0.15276846390E+03  0.15277374271E+03  0.12700000000E+01 0. -1.
         25    2    1    2    0    0 -0.26692002829E+02  0.12229615226E+02 -0.80066193617E+02  0.15133064491E+03  0.12501336818E+03 0.  0.
    9000005    1    3    3    0    0  0.46339159247E+02 -0.16439462950E+02 -0.39028364482E+02  0.62783651183E+02  0.10000000000E+01 0.  0.
    9000005    1    3    3    0    0 -0.73031162076E+02  0.28669078175E+02 -0.41037829136E+02  0.88546993725E+02  0.10000000000E+01 0.  0.
         21    1    1    2  502  501  0.26692002829E+02 -0.12229615226E+02 -0.31270855417E+02  0.42893972795E+02  0.00000000000E+00 0. -1.
<mgrwt>
<rscale>  1 0.12841483E+03</rscale>
<asrwt>0</asrwt>
<pdfrwt beam="2">  1        4 0.23504743E-01 0.12841483E+03</pdfrwt>
<pdfrwt beam="1">  1       -4 0.63759669E-02 0.12841483E+03</pdfrwt>
<totfact> 0.43538783E+03</totfact>
</mgrwt>
</event>
<event>
 6    4  0.1195577E-003  0.1352629E+03  0.7818608E-02  0.1219849E+00
          4   -1    0    0  502    0  0.00000000000E+00  0.00000000000E+00  0.34837455016E+02  0.34860596265E+02  0.12700000000E+01 0.  1.
         -4   -1    0    0    0  501 -0.00000000000E+00 -0.00000000000E+00 -0.39326673550E+03  0.39326878614E+03  0.12700000000E+01 0.  1.
         25    2    1    2    0    0 -0.30721190949E+02 -0.41562169674E+02 -0.35068711894E+03  0.37586900940E+03  0.12499940526E+03 0.  0.
    9000005    1    3    3    0    0  0.25051379283E+02  0.31032380341E+02 -0.15124433222E+03  0.15641748068E+03  0.10000000000E+01 0.  0.
    9000005    1    3    3    0    0 -0.55772570232E+02 -0.72594550015E+02 -0.19944278672E+03  0.21945152872E+03  0.10000000000E+01 0.  0.
         21    1    1    2  502  501  0.30721190949E+02  0.41562169674E+02 -0.77421615450E+01  0.52260373006E+02  0.00000000000E+00 0.  1.
<mgrwt>
<rscale>  1 0.13526292E+03</rscale>
<asrwt>0</asrwt>
<pdfrwt beam="1">  1        4 0.53615466E-02 0.13526292E+03</pdfrwt>
<pdfrwt beam="2">  1       -4 0.60504510E-01 0.13526292E+03</pdfrwt>
<totfact> 0.91870933E+02</totfact>
</mgrwt>
</event>
<event>
 6    4  0.1195577E-003  0.1276380E+03  0.7818608E-02  0.1231003E+00
          4   -1    0    0  502    0  0.00000000000E+00  0.00000000000E+00  0.10063203419E+02  0.10143025341E+02  0.12700000000E+01 0. -1.
         -4   -1    0    0    0  501 -0.00000000000E+00 -0.00000000000E+00 -0.61707758154E+03  0.61707888842E+03  0.12700000000E+01 0. -1.
         25    2    1    2    0    0 -0.23637194941E+02  0.10404578802E+02 -0.55023439174E+03  0.56484452124E+03  0.12499790029E+03 0.  0.
    9000005    1    3    3    0    0  0.50910771922E+02 -0.46074135180E+01 -0.24504270536E+03  0.25031992011E+03  0.10000000000E+01 0.  0.
    9000005    1    3    3    0    0 -0.74547966863E+02  0.15011992320E+02 -0.30519168638E+03  0.31452460113E+03  0.10000000000E+01 0.  0.
         21    1    1    2  502  501  0.23637194941E+02 -0.10404578802E+02 -0.56779986377E+02  0.62377392520E+02  0.00000000000E+00 0. -1.
<mgrwt>
<rscale>  1 0.12763795E+03</rscale>
<asrwt>0</asrwt>
<pdfrwt beam="1">  1        4 0.15544263E-02 0.12763795E+03</pdfrwt>
<pdfrwt beam="2">  1       -4 0.94941223E-01 0.12763795E+03</pdfrwt>
<totfact> 0.23489381E+03</totfact>
</mgrwt>
</event>
<event>
 6    4  0.1195577E-003  0.1272298E+03  0.7818608E-02  0.1231625E+00
         -4   -1    0    0    0  501 -0.00000000000E+00  0.00000000000E+00  0.61224632041E+03  0.61224763761E+03  0.12700000000E+01 0.  1.
          4   -1    0    0  502    0  0.00000000000E+00 -0.00000000000E+00 -0.92637829286E+01  0.93504317627E+01  0.12700000000E+01 0.  1.
         25    2    1    2    0    0  0.23693517464E+02 -0.98322654069E+00  0.50290552699E+03  0.51874984365E+03  0.12500032683E+03 0.  0.
    9000005    1    3    3    0    0  0.59119656877E+02 -0.34453485490E+02  0.38710389904E+03  0.39310635347E+03  0.10000000000E+01 0.  0.
    9000005    1    3    3    0    0 -0.35426139412E+02  0.33470258949E+02  0.11580162795E+03  0.12564349018E+03  0.10000000000E+01 0.  0.
         21    1    1    2  502  501 -0.23693517464E+02  0.98322654069E+00  0.10007701049E+03  0.10284822572E+03  0.00000000000E+00 0.  1.
<mgrwt>
<rscale>  1 0.12722984E+03</rscale>
<asrwt>0</asrwt>
<pdfrwt beam="2">  1        4 0.14319644E-02 0.12722984E+03</pdfrwt>
<pdfrwt beam="1">  1       -4 0.94198479E-01 0.12722984E+03</pdfrwt>
<totfact> 0.27075738E+03</totfact>
</mgrwt>
</event>
<event>
 6    4  0.1195577E-003  0.1273542E+03  0.7818608E-02  0.1231435E+00
          4   -1    0    0  502    0  0.00000000000E+00  0.00000000000E+00  0.11469121710E+03  0.11469824837E+03  0.12700000000E+01 0.  1.
         -4   -1    0    0    0  501 -0.00000000000E+00 -0.00000000000E+00 -0.54044845337E+02  0.54059765144E+02  0.12700000000E+01 0.  1.
         25    2    1    2    0    0  0.21250224396E+02  0.11971745024E+02  0.32346430361E+02  0.13139785561E+03  0.12499684070E+03 0.  0.
    9000005    1    3    3    0    0  0.35318607066E+02  0.55273077823E+02  0.50074428009E+02  0.82528573703E+02  0.10000000000E+01 0.  0.
    9000005    1    3    3    0    0 -0.14068382670E+02 -0.43301332799E+02 -0.17727997647E+02  0.48869281903E+02  0.10000000000E+01 0.  0.
         21    1    1    2  502  501 -0.21250224396E+02 -0.11971745024E+02  0.28299941403E+02  0.37360157912E+02  0.00000000000E+00 0. -1.
<mgrwt>
<rscale>  1 0.12735425E+03</rscale>
<asrwt>0</asrwt>
<pdfrwt beam="1">  1        4 0.17646491E-01 0.12735425E+03</pdfrwt>
<pdfrwt beam="2">  1       -4 0.83162802E-02 0.12735425E+03</pdfrwt>
<totfact> 0.47039229E+03</totfact>
</mgrwt>
</event>
<event>
 6    4  0.1195577E-003  0.1341320E+03  0.7818608E-02  0.1221450E+00
          4   -1    0    0  502    0  0.00000000000E+00  0.00000000000E+00  0.53271317999E+03  0.53271469384E+03  0.12700000000E+01 0. -1.
         -4   -1    0    0    0  501 -0.00000000000E+00 -0.00000000000E+00 -0.16021062891E+02  0.16071320922E+02  0.12700000000E+01 0. -1.
         25    2    1    2    0    0  0.26620653737E+02  0.40713421743E+02  0.33945273601E+03  0.36499254338E+03  0.12500061928E+03 0.  0.
    9000005    1    3    3    0    0  0.29423131428E+02  0.70874346321E+02  0.31977942633E+03  0.32885981076E+03  0.10000000000E+01 0.  0.
    9000005    1    3    3    0    0 -0.28024776914E+01 -0.30160924578E+02  0.19673309680E+02  0.36132732617E+02  0.10000000000E+01 0.  0.
         21    1    1    2  502  501 -0.26620653737E+02 -0.40713421743E+02  0.17723938109E+03  0.18379347138E+03  0.00000000000E+00 0. -1.
<mgrwt>
<rscale>  1 0.13413201E+03</rscale>
<asrwt>0</asrwt>
<pdfrwt beam="1">  1        4 0.81959858E-01 0.13413201E+03</pdfrwt>
<pdfrwt beam="2">  1       -4 0.24687613E-02 0.13413201E+03</pdfrwt>
<totfact> 0.16230642E+03</totfact>
</mgrwt>
</event>
<event>
 6    4  0.1195577E-003  0.1281046E+03  0.7818608E-02  0.1230296E+00
         -4   -1    0    0    0  501 -0.00000000000E+00  0.00000000000E+00  0.27531226071E+02  0.27560502699E+02  0.12700000000E+01 0.  1.
          4   -1    0    0  502    0  0.00000000000E+00 -0.00000000000E+00 -0.27977432501E+03  0.27977720750E+03  0.12700000000E+01 0.  1.
         25    2    1    2    0    0 -0.15867366283E+02 -0.23111412193E+02 -0.13228349590E+03  0.18414592051E+03  0.12499954426E+03 0.  0.
    9000005    1    3    3    0    0  0.25631805834E+02  0.19133102790E+02  0.70312406729E+01  0.32764362317E+02  0.10000000000E+01 0.  0.
    9000005    1    3    3    0    0 -0.41499172117E+02 -0.42244514983E+02 -0.13931473657E+03  0.15138155819E+03  0.10000000000E+01 0.  0.
         21    1    1    2  502  501  0.15867366283E+02  0.23111412193E+02 -0.11995960304E+03  0.12319178969E+03  0.00000000000E+00 0.  1.
<mgrwt>
<rscale>  1 0.12810463E+03</rscale>
<asrwt>0</asrwt>
<pdfrwt beam="2">  1        4 0.43044676E-01 0.12810463E+03</pdfrwt>
<pdfrwt beam="1">  1       -4 0.42380472E-02 0.12810463E+03</pdfrwt>
<totfact> 0.26528662E+03</totfact>
</mgrwt>
</event>
<event>
 6    4  0.1195577E-003  0.1277662E+03  0.7818608E-02  0.1230808E+00
          4   -1    0    0  502    0  0.00000000000E+00  0.00000000000E+00  0.51397000950E+03  0.51397157856E+03  0.12700000000E+01 0. -1.
         -4   -1    0    0    0  501 -0.00000000000E+00 -0.00000000000E+00 -0.29882587030E+02  0.29909562143E+02  0.12700000000E+01 0. -1.
         25    2    1    2    0    0 -0.25806892254E+02 -0.56149464028E+01  0.10922683253E+03  0.16809132551E+03  0.12500667765E+03 0.  0.
    9000005    1    3    3    0    0  0.25099265756E+02  0.47770852694E+02  0.44662764741E+02  0.70055621209E+02  0.10000000000E+01 0.  0.
    9000005    1    3    3    0    0 -0.50906158011E+02 -0.53385799097E+02  0.64564067792E+02  0.98035704305E+02  0.10000000000E+01 0.  0.
         21    1    1    2  502  501  0.25806892254E+02  0.56149464028E+01  0.37486058994E+03  0.37578981519E+03  0.00000000000E+00 0. -1.
<mgrwt>
<rscale>  1 0.12776616E+03</rscale>
<asrwt>0</asrwt>
<pdfrwt beam="1">  1        4 0.79074501E-01 0.12776616E+03</pdfrwt>
<pdfrwt beam="2">  1       -4 0.45995170E-02 0.12776616E+03</pdfrwt>
<totfact> 0.65283263E+02</totfact>
</mgrwt>
</event>
<event>
 6    4  0.1195577E-003  0.1301574E+03  0.7818608E-02  0.1227222E+00
         -4   -1    0    0    0  501 -0.00000000000E+00  0.00000000000E+00  0.84607965766E+01  0.85555817283E+01  0.12700000000E+01 0.  1.
          4   -1    0    0  502    0  0.00000000000E+00 -0.00000000000E+00 -0.85571257896E+03  0.85571352139E+03  0.12700000000E+01 0.  1.
         25    2    1    2    0    0  0.31869250167E+01  0.36112736849E+02 -0.57087355066E+03  0.58552331710E+03  0.12500663090E+03 0.  0.
    9000005    1    3    3    0    0 -0.11110820758E+02 -0.45709064369E+02 -0.19958516801E+03  0.20505610986E+03  0.10000000000E+01 0.  0.
    9000005    1    3    3    0    0  0.14297745775E+02  0.81821801218E+02 -0.37128838266E+03  0.38046720724E+03  0.10000000000E+01 0.  0.
         21    1    1    2  502  501 -0.31869250167E+01 -0.36112736849E+02 -0.27637823172E+03  0.27874578602E+03  0.00000000000E+00 0.  1.
<mgrwt>
<rscale>  1 0.13015738E+03</rscale>
<asrwt>0</asrwt>
<pdfrwt beam="2">  1        4 0.13165539E+00 0.13015738E+03</pdfrwt>
<pdfrwt beam="1">  1       -4 0.13090253E-02 0.13015738E+03</pdfrwt>
<totfact> 0.14141612E+03</totfact>
</mgrwt>
</event>
<event>
 6    4  0.1195577E-003  0.1417436E+03  0.7818608E-02  0.1211002E+00
         -4   -1    0    0    0  501 -0.00000000000E+00  0.00000000000E+00  0.40330502691E+02  0.40350493768E+02  0.12700000000E+01 0. -1.
          4   -1    0    0  502    0  0.00000000000E+00 -0.00000000000E+00 -0.27061369413E+03  0.27061667419E+03  0.12700000000E+01 0. -1.
         25    2    1    2    0    0  0.65198148309E+02  0.14642814564E+02 -0.14727182180E+03  0.20440217347E+03  0.12500419378E+03 0.  0.
    9000005    1    3    3    0    0  0.48890699211E+02 -0.20119922335E+02 -0.15625092488E+03  0.16495594343E+03  0.10000000000E+01 0.  0.
    9000005    1    3    3    0    0  0.16307449099E+02  0.34762736899E+02  0.89791030801E+01  0.39446230047E+02  0.10000000000E+01 0.  0.
         21    1    1    2  502  501 -0.65198148309E+02 -0.14642814564E+02 -0.83011369635E+02  0.10656499449E+03  0.00000000000E+00 0. -1.
<mgrwt>
<rscale>  1 0.14174364E+03</rscale>
<asrwt>0</asrwt>
<pdfrwt beam="2">  1        4 0.41634642E-01 0.14174364E+03</pdfrwt>
<pdfrwt beam="1">  1       -4 0.62064599E-02 0.14174364E+03</pdfrwt>
<totfact> 0.15686538E+03</totfact>
</mgrwt>
</event>
<event>
 6    4  0.1195577E-003  0.1274345E+03  0.7818608E-02  0.1231313E+00
          4   -1    0    0  502    0  0.00000000000E+00  0.00000000000E+00  0.94508526834E+01  0.95358018249E+01  0.12700000000E+01 0.  1.
         -4   -1    0    0    0  501 -0.00000000000E+00 -0.00000000000E+00 -0.70439499039E+03  0.70439613528E+03  0.12700000000E+01 0.  1.
         25    2    1    2    0    0 -0.52875325571E+01  0.24318768955E+02 -0.65165973641E+03  0.66400298838E+03  0.12498078253E+03 0.  0.
    9000005    1    3    3    0    0 -0.41653468710E+02  0.69917486780E+01 -0.58197597060E+03  0.58350743471E+03  0.10000000000E+01 0.  0.
    9000005    1    3    3    0    0  0.36365936153E+02  0.17327020277E+02 -0.69683765812E+02  0.80495553677E+02  0.10000000000E+01 0.  0.
         21    1    1    2  502  501  0.52875325571E+01 -0.24318768955E+02 -0.43284401300E+02  0.49928948716E+02  0.00000000000E+00 0.  1.
<mgrwt>
<rscale>  1 0.12743452E+03</rscale>
<asrwt>0</asrwt>
<pdfrwt beam="1">  1        4 0.14606005E-02 0.12743452E+03</pdfrwt>
<pdfrwt beam="2">  1       -4 0.10837504E+00 0.12743452E+03</pdfrwt>
<totfact> 0.18999989E+03</totfact>
</mgrwt>
</event>
<event>
 6    4  0.1195577E-003  0.1277337E+03  0.7818608E-02  0.1230858E+00
          4   -1    0    0  502    0  0.00000000000E+00  0.00000000000E+00  0.26898190501E+02  0.26928155381E+02  0.12700000000E+01 0. -1.
         -4   -1    0    0    0  501 -0.00000000000E+00 -0.00000000000E+00 -0.29061385200E+03  0.29061662697E+03  0.12700000000E+01 0. -1.
         25    2    1    2    0    0 -0.15341091667E+02 -0.21306585289E+02 -0.26170418486E+03  0.29121294405E+03  0.12500631479E+03 0.  0.
    9000005    1    3    3    0    0  0.48291859289E+02  0.15912250186E+02 -0.13963445455E+03  0.14860714746E+03  0.10000000000E+01 0.  0.
    9000005    1    3    3    0    0 -0.63632950956E+02 -0.37218835474E+02 -0.12206973031E+03  0.14260579658E+03  0.10000000000E+01 0.  0.
         21    1    1    2  502  501  0.15341091667E+02  0.21306585289E+02 -0.20114766335E+01  0.26331838304E+02  0.00000000000E+00 0. -1.
<mgrwt>
<rscale>  1 0.12773370E+03</rscale>
<asrwt>0</asrwt>
<pdfrwt beam="1">  1        4 0.41407018E-02 0.12773370E+03</pdfrwt>
<pdfrwt beam="2">  1       -4 0.44712340E-01 0.12773370E+03</pdfrwt>
<totfact> 0.25501259E+03</totfact>
</mgrwt>
</event>
<event>
 6    4  0.1195577E-003  0.1269479E+03  0.7818608E-02  0.1232056E+00
         -4   -1    0    0    0  501 -0.00000000000E+00  0.00000000000E+00  0.69406927931E+02  0.69418546116E+02  0.12700000000E+01 0. -1.
          4   -1    0    0  502    0  0.00000000000E+00 -0.00000000000E+00 -0.82030104995E+02  0.82039935553E+02  0.12700000000E+01 0. -1.
         25    2    1    2    0    0  0.15197150494E+02  0.16148682886E+02 -0.22272076120E+01  0.12696747265E+03  0.12499618120E+03 0.  0.
    9000005    1    3    3    0    0 -0.42806299496E+02 -0.45207362663E+01 -0.36538387546E+02  0.56470081437E+02  0.10000000000E+01 0.  0.
    9000005    1    3    3    0    0  0.58003449990E+02  0.20669419153E+02  0.34311179934E+02  0.70497391210E+02  0.10000000000E+01 0.  0.
         21    1    1    2  502  501 -0.15197150494E+02 -0.16148682886E+02 -0.10395969452E+02  0.24491009022E+02  0.00000000000E+00 0. -1.
<mgrwt>
<rscale>  1 0.12694794E+03</rscale>
<asrwt>0</asrwt>
<pdfrwt beam="2">  1        4 0.12621666E-01 0.12694794E+03</pdfrwt>
<pdfrwt beam="1">  1       -4 0.10679639E-01 0.12694794E+03</pdfrwt>
<totfact> 0.55445974E+03</totfact>
</mgrwt>
</event>
<event>
 6    4  0.1195577E-003  0.1269329E+03  0.7818608E-02  0.1232079E+00
          4   -1    0    0  502    0  0.00000000000E+00  0.00000000000E+00  0.13539451938E+03  0.13540047555E+03  0.12700000000E+01 0. -1.
         -4   -1    0    0    0  501 -0.00000000000E+00 -0.00000000000E+00 -0.44283790817E+02  0.44301998026E+02  0.12700000000E+01 0. -1.
         25    2    1    2    0    0  0.21729100153E+02  0.37900425486E+01  0.57144737562E+02  0.13920300740E+03  0.12500175207E+03 0.  0.
    9000005    1    3    3    0    0 -0.26910234970E+01  0.31495590757E+02 -0.30594453222E+02  0.44002663698E+02  0.10000000000E+01 0.  0.
    9000005    1    3    3    0    0  0.24420123650E+02 -0.27705548208E+02  0.87739190785E+02  0.95200343698E+02  0.10000000000E+01 0.  0.
         21    1    1    2  502  501 -0.21729100153E+02 -0.37900425486E+01  0.33965991004E+02  0.40499466180E+02  0.00000000000E+00 0.  1.
<mgrwt>
<rscale>  1 0.12693288E+03</rscale>
<asrwt>0</asrwt>
<pdfrwt beam="1">  1        4 0.20831784E-01 0.12693288E+03</pdfrwt>
<pdfrwt beam="2">  1       -4 0.68147498E-02 0.12693288E+03</pdfrwt>
<totfact> 0.48494898E+03</totfact>
</mgrwt>
</event>
<event>
 6    4  0.1195577E-003  0.1277697E+03  0.7818608E-02  0.1230803E+00
          4   -1    0    0  502    0  0.00000000000E+00  0.00000000000E+00  0.29473361360E+02  0.29500710667E+02  0.12700000000E+01 0. -1.
         -4   -1    0    0    0  501 -0.00000000000E+00 -0.00000000000E+00 -0.20233063304E+03  0.20233461880E+03  0.12700000000E+01 0. -1.
         25    2    1    2    0    0 -0.16429305773E+02 -0.20756938574E+02 -0.14799196211E+03  0.19551651607E+03  0.12499725844E+03 0.  0.
    9000005    1    3    3    0    0 -0.63128260124E+02 -0.15024034196E+02 -0.12969131777E+03  0.14502322826E+03  0.10000000000E+01 0.  0.
    9000005    1    3    3    0    0  0.46698954350E+02 -0.57329043779E+01 -0.18300644339E+02  0.50493287804E+02  0.10000000000E+01 0.  0.
         21    1    1    2  502  501  0.16429305773E+02  0.20756938574E+02 -0.24865309564E+02  0.36318813401E+02  0.00000000000E+00 0. -1.
<mgrwt>
<rscale>  1 0.12776966E+03</rscale>
<asrwt>0</asrwt>
<pdfrwt beam="1">  1        4 0.45367738E-02 0.12776966E+03</pdfrwt>
<pdfrwt beam="2">  1       -4 0.31130199E-01 0.12776966E+03</pdfrwt>
<totfact> 0.44606522E+03</totfact>
</mgrwt>
</event>
<event>
 6    4  0.1195577E-003  0.1265981E+03  0.7818608E-02  0.1232593E+00
         -4   -1    0    0    0  501 -0.00000000000E+00  0.00000000000E+00  0.59868494088E+01  0.61200707384E+01  0.12700000000E+01 0.  1.
          4   -1    0    0  502    0  0.00000000000E+00 -0.00000000000E+00 -0.10226680562E+04  0.10226688447E+04  0.12700000000E+01 0.  1.
         25    2    1    2    0    0  0.11335170551E+02  0.16558372063E+02 -0.69177414018E+03  0.70326277569E+03  0.12499761944E+03 0.  0.
    9000005    1    3    3    0    0 -0.36521146470E+02 -0.13150124296E+02 -0.80262836182E+02  0.89161890853E+02  0.10000000000E+01 0.  0.
    9000005    1    3    3    0    0  0.47856317022E+02  0.29708496359E+02 -0.61151130400E+03  0.61410088483E+03  0.10000000000E+01 0.  0.
         21    1    1    2  502  501 -0.11335170551E+02 -0.16558372063E+02 -0.32490706656E+03  0.32552613978E+03  0.00000000000E+00 0. -1.
<mgrwt>
<rscale>  1 0.12659807E+03</rscale>
<asrwt>0</asrwt>
<pdfrwt beam="2">  1        4 0.15734372E+00 0.12659807E+03</pdfrwt>
<pdfrwt beam="1">  1       -4 0.93136302E-03 0.12659807E+03</pdfrwt>
<totfact> 0.15006709E+03</totfact>
</mgrwt>
</event>
<event>
 6    4  0.1195577E-003  0.1296171E+03  0.7818608E-02  0.1228025E+00
         -4   -1    0    0    0  501 -0.00000000000E+00  0.00000000000E+00  0.21955243397E+02  0.21991944266E+02  0.12700000000E+01 0. -1.
          4   -1    0    0  502    0  0.00000000000E+00 -0.00000000000E+00 -0.31142985806E+03  0.31143244755E+03  0.12700000000E+01 0. -1.
         25    2    1    2    0    0 -0.32257363127E+02 -0.11569740290E+02 -0.20862049140E+03  0.24560761885E+03  0.12500478647E+03 0.  0.
    9000005    1    3    3    0    0 -0.59846988273E+02  0.39214348038E+02 -0.12303868657E+03  0.14233392249E+03  0.10000000000E+01 0.  0.
    9000005    1    3    3    0    0  0.27589625147E+02 -0.50784088329E+02 -0.85581804823E+02  0.10327369636E+03  0.10000000000E+01 0.  0.
         21    1    1    2  502  501  0.32257363127E+02  0.11569740290E+02 -0.80854123263E+02  0.87816772970E+02  0.00000000000E+00 0. -1.
<mgrwt>
<rscale>  1 0.12961710E+03</rscale>
<asrwt>0</asrwt>
<pdfrwt beam="2">  1        4 0.47915305E-01 0.12961710E+03</pdfrwt>
<pdfrwt beam="1">  1       -4 0.33807523E-02 0.12961710E+03</pdfrwt>
<totfact> 0.30685450E+03</totfact>
</mgrwt>
</event>
<event>
 6    4  0.1195577E-003  0.1276032E+03  0.7818608E-02  0.1231056E+00
         -4   -1    0    0    0  501 -0.00000000000E+00  0.00000000000E+00  0.30168703071E+02  0.30195422583E+02  0.12700000000E+01 0. -1.
          4   -1    0    0  502    0  0.00000000000E+00 -0.00000000000E+00 -0.19667571333E+03  0.19667981369E+03  0.12700000000E+01 0. -1.
         25    2    1    2    0    0 -0.16279856450E+02  0.19750641915E+02 -0.12883944290E+03  0.18133440610E+03  0.12500977245E+03 0.  0.
    9000005    1    3    3    0    0 -0.35144729477E+02  0.47132964062E+02 -0.13522834815E+03  0.14745973842E+03  0.10000000000E+01 0.  0.
    9000005    1    3    3    0    0  0.18864873027E+02 -0.27382322147E+02  0.63889052468E+01  0.33874667685E+02  0.10000000000E+01 0.  0.
         21    1    1    2  502  501  0.16279856450E+02 -0.19750641915E+02 -0.37667567356E+02  0.45540830171E+02  0.00000000000E+00 0. -1.
<mgrwt>
<rscale>  1 0.12760315E+03</rscale>
<asrwt>0</asrwt>
<pdfrwt beam="2">  1        4 0.30260172E-01 0.12760315E+03</pdfrwt>
<pdfrwt beam="1">  1       -4 0.46437098E-02 0.12760315E+03</pdfrwt>
<totfact> 0.45330855E+03</totfact>
</mgrwt>
</event>
<event>
 6    4  0.1195577E-003  0.1335256E+03  0.7818608E-02  0.1222316E+00
         -4   -1    0    0    0  501 -0.00000000000E+00  0.00000000000E+00  0.20944102149E+03  0.20944487194E+03  0.12700000000E+01 0.  1.
          4   -1    0    0  502    0  0.00000000000E+00 -0.00000000000E+00 -0.50097761509E+02  0.50113856449E+02  0.12700000000E+01 0.  1.
         25    2    1    2    0    0  0.16260053090E+02 -0.44041152068E+02  0.16501421826E+03  0.21227054626E+03  0.12500032071E+03 0.  0.
    9000005    1    3    3    0    0  0.55439123839E+02 -0.63560389031E+02  0.78105746876E+02  0.11495619688E+03  0.10000000000E+01 0.  0.
    9000005    1    3    3    0    0 -0.39179070749E+02  0.19519236963E+02  0.86908471384E+02  0.97314349377E+02  0.10000000000E+01 0.  0.
         21    1    1    2  502  501 -0.16260053090E+02  0.44041152068E+02 -0.56709582773E+01  0.47288182137E+02  0.00000000000E+00 0.  1.
<mgrwt>
<rscale>  1 0.13352563E+03</rscale>
<asrwt>0</asrwt>
<pdfrwt beam="2">  1        4 0.77088822E-02 0.13352563E+03</pdfrwt>
<pdfrwt beam="1">  1       -4 0.32223230E-01 0.13352563E+03</pdfrwt>
<totfact> 0.17853476E+03</totfact>
</mgrwt>
</event>
<event>
 6    4  0.1195577E-003  0.1327503E+03  0.7818608E-02  0.1223431E+00
          4   -1    0    0  502    0  0.00000000000E+00  0.00000000000E+00  0.32534239629E+02  0.32559017925E+02  0.12700000000E+01 0. -1.
         -4   -1    0    0    0  501 -0.00000000000E+00 -0.00000000000E+00 -0.25425110695E+03  0.25425427879E+03  0.12700000000E+01 0. -1.
         25    2    1    2    0    0 -0.44373412933E+02 -0.55733958274E+01 -0.19082872822E+03  0.23246129902E+03  0.12499035768E+03 0.  0.
    9000005    1    3    3    0    0  0.35673151027E+02  0.14308345393E+02 -0.21356929515E+02  0.43982051912E+02  0.10000000000E+01 0.  0.
    9000005    1    3    3    0    0 -0.80046563960E+02 -0.19881741220E+02 -0.16947179870E+03  0.18847924711E+03  0.10000000000E+01 0.  0.
         21    1    1    2  502  501  0.44373412933E+02  0.55733958274E+01 -0.30888139101E+02  0.54351997695E+02  0.00000000000E+00 0. -1.
<mgrwt>
<rscale>  1 0.13275034E+03</rscale>
<asrwt>0</asrwt>
<pdfrwt beam="1">  1        4 0.50074178E-02 0.13275034E+03</pdfrwt>
<pdfrwt beam="2">  1       -4 0.39117704E-01 0.13275034E+03</pdfrwt>
<totfact> 0.24747041E+03</totfact>
</mgrwt>
</event>
<event>
 6    4  0.1195577E-003  0.1318679E+03  0.7818608E-02  0.1224710E+00
         -4   -1    0    0    0  501 -0.00000000000E+00  0.00000000000E+00  0.14574305294E+02  0.14629534333E+02  0.12700000000E+01 0. -1.
          4   -1    0    0  502    0  0.00000000000E+00 -0.00000000000E+00 -0.52194898267E+03  0.52195052774E+03  0.12700000000E+01 0. -1.
         25    2    1    2    0    0 -0.38877921499E+02  0.15892232445E+02 -0.40489157949E+03  0.42582428938E+03  0.12500031382E+03 0.  0.
    9000005    1    3    3    0    0  0.15214902264E+02  0.45270791986E+02 -0.66505967198E+02  0.81883951608E+02  0.10000000000E+01 0.  0.
    9000005    1    3    3    0    0 -0.54092823763E+02 -0.29378559541E+02 -0.33838561229E+03  0.34394033777E+03  0.10000000000E+01 0.  0.
         21    1    1    2  502  501  0.38877921499E+02 -0.15892232445E+02 -0.10248309789E+03  0.11075577269E+03  0.00000000000E+00 0. -1.
<mgrwt>
<rscale>  1 0.13186787E+03</rscale>
<asrwt>0</asrwt>
<pdfrwt beam="2">  1        4 0.80304196E-01 0.13186787E+03</pdfrwt>
<pdfrwt beam="1">  1       -4 0.22465685E-02 0.13186787E+03</pdfrwt>
<totfact> 0.19580112E+03</totfact>
</mgrwt>
</event>
<event>
 6    4  0.1195577E-003  0.1914159E+03  0.7818608E-02  0.1157190E+00
          4   -1    0    0  502    0  0.00000000000E+00  0.00000000000E+00  0.97807402048E+03  0.97807484501E+03  0.12700000000E+01 0. -1.
         -4   -1    0    0    0  501 -0.00000000000E+00 -0.00000000000E+00 -0.34443198665E+02  0.34466604623E+02  0.12700000000E+01 0. -1.
         25    2    1    2    0    0 -0.12898530488E+03  0.66164472573E+02  0.32524876707E+03  0.37739476426E+03  0.12500040523E+03 0.  0.
    9000005    1    3    3    0    0 -0.53503449778E+02  0.92269831245E+02  0.14290017928E+03  0.17831938239E+03  0.10000000000E+01 0.  0.
    9000005    1    3    3    0    0 -0.75481855098E+02 -0.26105358672E+02  0.18234858779E+03  0.19907538187E+03  0.10000000000E+01 0.  0.
         21    1    1    2  502  501  0.12898530488E+03 -0.66164472573E+02  0.61838205475E+03  0.63514668537E+03  0.00000000000E+00 0. -1.
<mgrwt>
<rscale>  1 0.19141590E+03</rscale>
<asrwt>0</asrwt>
<pdfrwt beam="1">  1        4 0.15047476E+00 0.19141590E+03</pdfrwt>
<pdfrwt beam="2">  1       -4 0.53008185E-02 0.19141590E+03</pdfrwt>
<totfact> 0.12108287E+02</totfact>
</mgrwt>
</event>
<event>
 6    4  0.1195577E-003  0.1406699E+03  0.7818608E-02  0.1212430E+00
         -4   -1    0    0    0  501 -0.00000000000E+00  0.00000000000E+00  0.22400487060E+02  0.22436459626E+02  0.12700000000E+01 0. -1.
          4   -1    0    0  502    0  0.00000000000E+00 -0.00000000000E+00 -0.48095094341E+03  0.48095262019E+03  0.12700000000E+01 0. -1.
         25    2    1    2    0    0  0.90400770402E+01  0.63866759669E+02 -0.27605531782E+03  0.30982988585E+03  0.12500933438E+03 0.  0.
    9000005    1    3    3    0    0  0.36499108156E+02  0.44153640700E+01 -0.13418679401E+02  0.39150240011E+02  0.10000000000E+01 0.  0.
    9000005    1    3    3    0    0 -0.27459031115E+02  0.59451395599E+02 -0.26263663842E+03  0.27067964583E+03  0.10000000000E+01 0.  0.
         21    1    1    2  502  501 -0.90400770402E+01 -0.63866759669E+02 -0.18249513853E+03  0.19355919397E+03  0.00000000000E+00 0. -1.
<mgrwt>
<rscale>  1 0.14066990E+03</rscale>
<asrwt>0</asrwt>
<pdfrwt beam="2">  1        4 0.73995341E-01 0.14066990E+03</pdfrwt>
<pdfrwt beam="1">  1       -4 0.34491252E-02 0.14066990E+03</pdfrwt>
<totfact> 0.12165343E+03</totfact>
</mgrwt>
</event>
<event>
 6    4  0.1195577E-003  0.1272543E+03  0.7818608E-02  0.1231588E+00
          4   -1    0    0  502    0  0.00000000000E+00  0.00000000000E+00  0.74648515979E+02  0.74659318493E+02  0.12700000000E+01 0. -1.
         -4   -1    0    0    0  501 -0.00000000000E+00 -0.00000000000E+00 -0.77384591269E+02  0.77395011893E+02  0.12700000000E+01 0. -1.
         25    2    1    2    0    0  0.23645657685E+02 -0.30308893588E+01 -0.84680992481E+01  0.12753577585E+03  0.12500144799E+03 0.  0.
    9000005    1    3    3    0    0 -0.28982866179E+02  0.15555783302E+02 -0.48664008717E+02  0.58746699230E+02  0.10000000000E+01 0.  0.
    9000005    1    3    3    0    0  0.52628523864E+02 -0.18586672661E+02  0.40195909469E+02  0.68789076623E+02  0.10000000000E+01 0.  0.
         21    1    1    2  502  501 -0.23645657685E+02  0.30308893588E+01  0.57320239579E+01  0.24518554532E+02  0.00000000000E+00 0.  1.
<mgrwt>
<rscale>  1 0.12725433E+03</rscale>
<asrwt>0</asrwt>
<pdfrwt beam="1">  1        4 0.11486020E-01 0.12725433E+03</pdfrwt>
<pdfrwt beam="2">  1       -4 0.11906954E-01 0.12725433E+03</pdfrwt>
<totfact> 0.54178152E+03</totfact>
</mgrwt>
</event>
<event>
 6    4  0.1195577E-003  0.1271115E+03  0.7818608E-02  0.1231806E+00
          4   -1    0    0  502    0  0.00000000000E+00  0.00000000000E+00  0.90314834551E+01  0.91203395441E+01  0.12700000000E+01 0.  1.
         -4   -1    0    0    0  501 -0.00000000000E+00 -0.00000000000E+00 -0.62167601756E+03  0.62167731478E+03  0.12700000000E+01 0.  1.
         25    2    1    2    0    0  0.14014289616E+02  0.18327552352E+02 -0.51205155371E+03  0.52759277462E+03  0.12500017076E+03 0.  0.
    9000005    1    3    3    0    0  0.18709796253E+02 -0.72000467226E+01 -0.61054262032E+01  0.20980309286E+02  0.10000000000E+01 0.  0.
    9000005    1    3    3    0    0 -0.46955066369E+01  0.25527599074E+02 -0.50594612750E+03  0.50661246533E+03  0.10000000000E+01 0.  0.
         21    1    1    2  502  501 -0.14014289616E+02 -0.18327552352E+02 -0.10059298040E+03  0.10320487970E+03  0.00000000000E+00 0.  1.
<mgrwt>
<rscale>  1 0.12711153E+03</rscale>
<asrwt>0</asrwt>
<pdfrwt beam="1">  1        4 0.13963944E-02 0.12711153E+03</pdfrwt>
<pdfrwt beam="2">  1       -4 0.95649366E-01 0.12711153E+03</pdfrwt>
<totfact> 0.27161232E+03</totfact>
</mgrwt>
</event>
<event>
 6    4  0.1195577E-003  0.1269029E+03  0.7818608E-02  0.1232125E+00
         -4   -1    0    0    0  501 -0.00000000000E+00  0.00000000000E+00  0.66216654085E+03  0.66216775875E+03  0.12700000000E+01 0.  1.
          4   -1    0    0  502    0  0.00000000000E+00 -0.00000000000E+00 -0.11397640273E+02  0.11468177876E+02  0.12700000000E+01 0.  1.
         25    2    1    2    0    0  0.18201574030E+02 -0.11627145541E+02  0.63320828754E+03  0.64579957657E+03  0.12505146893E+03 0.  0.
    9000005    1    3    3    0    0  0.65818359928E+02  0.49329475996E+01  0.47973144345E+03  0.48425163739E+03  0.10000000000E+01 0.  0.
    9000005    1    3    3    0    0 -0.47616785897E+02 -0.16560093141E+02  0.15347684409E+03  0.16154793919E+03  0.10000000000E+01 0.  0.
         21    1    1    2  502  501 -0.18201574030E+02  0.11627145541E+02  0.17560613042E+02  0.27836360054E+02  0.00000000000E+00 0.  1.
<mgrwt>
<rscale>  1 0.12690295E+03</rscale>
<asrwt>0</asrwt>
<pdfrwt beam="2">  1        4 0.17590024E-02 0.12690295E+03</pdfrwt>
<pdfrwt beam="1">  1       -4 0.10187732E+00 0.12690295E+03</pdfrwt>
<totfact> 0.16513222E+03</totfact>
</mgrwt>
</event>
<event>
 6    4  0.1195577E-003  0.1333084E+03  0.7818608E-02  0.1222628E+00
          4   -1    0    0  502    0  0.00000000000E+00  0.00000000000E+00  0.99552814719E+02  0.99560915115E+02  0.12700000000E+01 0.  1.
         -4   -1    0    0    0  501 -0.00000000000E+00 -0.00000000000E+00 -0.11088949827E+03  0.11089677059E+03  0.12700000000E+01 0.  1.
         25    2    1    2    0    0  0.26766578390E+02 -0.37798810761E+02 -0.57394802808E+02  0.14513885103E+03  0.12500369145E+03 0.  0.
    9000005    1    3    3    0    0  0.77174032154E+02 -0.22008176495E+02 -0.30522302732E+02  0.85865022190E+02  0.10000000000E+01 0.  0.
    9000005    1    3    3    0    0 -0.50407453764E+02 -0.15790634266E+02 -0.26872500075E+02  0.59273828843E+02  0.10000000000E+01 0.  0.
         21    1    1    2  502  501 -0.26766578390E+02  0.37798810761E+02  0.46058119254E+02  0.65318834672E+02  0.00000000000E+00 0.  1.
<mgrwt>
<rscale>  1 0.13330837E+03</rscale>
<asrwt>0</asrwt>
<pdfrwt beam="1">  1        4 0.15317000E-01 0.13330837E+03</pdfrwt>
<pdfrwt beam="2">  1       -4 0.17061105E-01 0.13330837E+03</pdfrwt>
<totfact> 0.17857806E+03</totfact>
</mgrwt>
</event>
<event>
 6    4  0.1195577E-003  0.1275306E+03  0.7818608E-02  0.1231167E+00
         -4   -1    0    0    0  501 -0.00000000000E+00  0.00000000000E+00  0.82738958456E+03  0.82739055925E+03  0.12700000000E+01 0.  1.
          4   -1    0    0  502    0  0.00000000000E+00 -0.00000000000E+00 -0.10685511184E+02  0.10760717878E+02  0.12700000000E+01 0.  1.
         25    2    1    2    0    0 -0.13191333223E+02 -0.21518392475E+02  0.79408067878E+03  0.80425628531E+03  0.12500798204E+03 0.  0.
    9000005    1    3    3    0    0  0.37398588859E+02 -0.38993449186E+02  0.61436843039E+03  0.61674039254E+03  0.10000000000E+01 0.  0.
    9000005    1    3    3    0    0 -0.50589922082E+02  0.17475056711E+02  0.17971224838E+03  0.18751589277E+03  0.10000000000E+01 0.  0.
         21    1    1    2  502  501  0.13191333223E+02  0.21518392475E+02  0.22623394597E+02  0.33894991813E+02  0.00000000000E+00 0.  1.
<mgrwt>
<rscale>  1 0.12753058E+03</rscale>
<asrwt>0</asrwt>
<pdfrwt beam="2">  1        4 0.16497844E-02 0.12753058E+03</pdfrwt>
<pdfrwt beam="1">  1       -4 0.12729660E+00 0.12753058E+03</pdfrwt>
<totfact> 0.10748429E+03</totfact>
</mgrwt>
</event>
<event>
 6    4  0.1195577E-003  0.1549643E+03  0.7818608E-02  0.1194502E+00
         -4   -1    0    0    0  501 -0.00000000000E+00  0.00000000000E+00  0.79408127960E+02  0.79418283072E+02  0.12700000000E+01 0. -1.
          4   -1    0    0  502    0  0.00000000000E+00 -0.00000000000E+00 -0.27263840314E+03  0.27264136107E+03  0.12700000000E+01 0. -1.
         25    2    1    2    0    0 -0.41383000552E+02  0.81706314695E+02 -0.20187931005E+02  0.15627372158E+03  0.12500179560E+03 0.  0.
    9000005    1    3    3    0    0  0.29711067721E+02  0.11732086728E+02 -0.43354151878E+02  0.53860671080E+02  0.10000000000E+01 0.  0.
    9000005    1    3    3    0    0 -0.71094068273E+02  0.69974227967E+02  0.23166220873E+02  0.10241305050E+03  0.10000000000E+01 0.  0.
         21    1    1    2  502  501  0.41383000552E+02 -0.81706314695E+02 -0.17304234418E+03  0.19578592256E+03  0.00000000000E+00 0. -1.
<mgrwt>
<rscale>  1 0.15496427E+03</rscale>
<asrwt>0</asrwt>
<pdfrwt beam="2">  1        4 0.41945378E-01 0.15496427E+03</pdfrwt>
<pdfrwt beam="1">  1       -4 0.12217644E-01 0.15496427E+03</pdfrwt>
<totfact> 0.50729928E+02</totfact>
</mgrwt>
</event>
<event>
 6    4  0.1195577E-003  0.1291973E+03  0.7818608E-02  0.1228652E+00
         -4   -1    0    0    0  501 -0.00000000000E+00  0.00000000000E+00  0.53205424843E+02  0.53220579974E+02  0.12700000000E+01 0.  1.
          4   -1    0    0  502    0  0.00000000000E+00 -0.00000000000E+00 -0.17759977317E+03  0.17760431394E+03  0.12700000000E+01 0.  1.
         25    2    1    2    0    0  0.26613744722E+02  0.18930727493E+02 -0.32389749471E+02  0.13319544107E+03  0.12500106320E+03 0.  0.
    9000005    1    3    3    0    0  0.23395448979E+02 -0.44047783684E+02  0.17409638104E+02  0.52836065138E+02  0.10000000000E+01 0.  0.
    9000005    1    3    3    0    0  0.32182957433E+01  0.62978511177E+02 -0.49799387575E+02  0.80359375933E+02  0.10000000000E+01 0.  0.
         21    1    1    2  502  501 -0.26613744722E+02 -0.18930727493E+02 -0.92004598853E+02  0.97629452839E+02  0.00000000000E+00 0.  1.
<mgrwt>
<rscale>  1 0.12919725E+03</rscale>
<asrwt>0</asrwt>
<pdfrwt beam="2">  1        4 0.27324557E-01 0.12919725E+03</pdfrwt>
<pdfrwt beam="1">  1       -4 0.81869651E-02 0.12919725E+03</pdfrwt>
<totfact> 0.21891378E+03</totfact>
</mgrwt>
</event>
<event>
 6    4  0.1195577E-003  0.1306903E+03  0.7818608E-02  0.1226435E+00
         -4   -1    0    0    0  501 -0.00000000000E+00  0.00000000000E+00  0.49106784681E+02  0.49123204310E+02  0.12700000000E+01 0. -1.
          4   -1    0    0  502    0  0.00000000000E+00 -0.00000000000E+00 -0.15282453603E+03  0.15282981291E+03  0.12700000000E+01 0. -1.
         25    2    1    2    0    0 -0.98753605139E+01 -0.36838609754E+02 -0.59611037119E+02  0.14364342835E+03  0.12500141138E+03 0.  0.
    9000005    1    3    3    0    0 -0.28278024536E+02  0.35773693197E+02  0.34204727885E+01  0.45739517168E+02  0.10000000000E+01 0.  0.
    9000005    1    3    3    0    0  0.18402664022E+02 -0.72612302951E+02 -0.63031509908E+02  0.97903911179E+02  0.10000000000E+01 0.  0.
         21    1    1    2  502  501  0.98753605139E+01  0.36838609754E+02 -0.44106714230E+02  0.58309588869E+02  0.00000000000E+00 0. -1.
<mgrwt>
<rscale>  1 0.13069032E+03</rscale>
<asrwt>0</asrwt>
<pdfrwt beam="2">  1        4 0.23513136E-01 0.13069032E+03</pdfrwt>
<pdfrwt beam="1">  1       -4 0.75565590E-02 0.13069032E+03</pdfrwt>
<totfact> 0.33077829E+03</totfact>
</mgrwt>
</event>
<event>
 6    4  0.1195577E-003  0.1447621E+03  0.7818608E-02  0.1207061E+00
         -4   -1    0    0    0  501 -0.00000000000E+00  0.00000000000E+00  0.45138361755E+02  0.45156224399E+02  0.12700000000E+01 0.  1.
          4   -1    0    0  502    0  0.00000000000E+00 -0.00000000000E+00 -0.49078859874E+03  0.49079024191E+03  0.12700000000E+01 0.  1.
         25    2    1    2    0    0 -0.65296483841E+02  0.32691134484E+02 -0.84777218146E+02  0.16775945296E+03  0.12499486495E+03 0.  0.
    9000005    1    3    3    0    0 -0.16971636472E+02 -0.45484297464E+02 -0.10725190071E+02  0.49728135521E+02  0.10000000000E+01 0.  0.
    9000005    1    3    3    0    0 -0.48324847369E+02  0.78175431948E+02 -0.74052028075E+02  0.11803131744E+03  0.10000000000E+01 0.  0.
         21    1    1    2  502  501  0.65296483841E+02 -0.32691134484E+02 -0.36087301884E+03  0.36818701335E+03  0.00000000000E+00 0.  1.
<mgrwt>
<rscale>  1 0.14476207E+03</rscale>
<asrwt>0</asrwt>
<pdfrwt beam="2">  1        4 0.75507435E-01 0.14476207E+03</pdfrwt>
<pdfrwt beam="1">  1       -4 0.69458641E-02 0.14476207E+03</pdfrwt>
<totfact> 0.37964626E+02</totfact>
</mgrwt>
</event>
<event>
 6    4  0.1195577E-003  0.1288423E+03  0.7818608E-02  0.1229184E+00
         -4   -1    0    0    0  501 -0.00000000000E+00  0.00000000000E+00  0.11980720816E+03  0.11981393921E+03  0.12700000000E+01 0. -1.
          4   -1    0    0  502    0  0.00000000000E+00 -0.00000000000E+00 -0.56838432783E+02  0.56852619476E+02  0.12700000000E+01 0. -1.
         25    2    1    2    0    0 -0.30514008904E+02  0.66798266285E+01  0.66913646010E+02  0.14518185085E+03  0.12499843587E+03 0.  0.
    9000005    1    3    3    0    0  0.13474831052E+02  0.56891594995E+02  0.48382268855E+02  0.75895115736E+02  0.10000000000E+01 0.  0.
    9000005    1    3    3    0    0 -0.43988839956E+02 -0.50211768366E+02  0.18531377154E+02  0.69286735112E+02  0.10000000000E+01 0.  0.
         21    1    1    2  502  501  0.30514008904E+02 -0.66798266285E+01 -0.39448706285E+01  0.31484707835E+02  0.00000000000E+00 0.  1.
<mgrwt>
<rscale>  1 0.12884228E+03</rscale>
<asrwt>0</asrwt>
<pdfrwt beam="2">  1        4 0.87459835E-02 0.12884228E+03</pdfrwt>
<pdfrwt beam="1">  1       -4 0.18433487E-01 0.12884228E+03</pdfrwt>
<totfact> 0.40150197E+03</totfact>
</mgrwt>
</event>
<event>
 6    4  0.1195577E-003  0.1332112E+03  0.7818608E-02  0.1222767E+00
         -4   -1    0    0    0  501 -0.00000000000E+00  0.00000000000E+00  0.33979883048E+03  0.33980120378E+03  0.12700000000E+01 0.  1.
          4   -1    0    0  502    0  0.00000000000E+00 -0.00000000000E+00 -0.27551220565E+02  0.27580475968E+02  0.12700000000E+01 0.  1.
         25    2    1    2    0    0 -0.43034021213E+02  0.16379088728E+02  0.28312925655E+03  0.31290159135E+03  0.12500011371E+03 0.  0.
    9000005    1    3    3    0    0  0.14480811742E+02  0.29224560226E+02  0.23373188303E+03  0.23599864825E+03  0.10000000000E+01 0.  0.
    9000005    1    3    3    0    0 -0.57514832955E+02 -0.12845471498E+02  0.49397373514E+02  0.76902943103E+02  0.10000000000E+01 0.  0.
         21    1    1    2  502  501  0.43034021213E+02 -0.16379088728E+02  0.29118353364E+02  0.54480088399E+02  0.00000000000E+00 0.  1.
<mgrwt>
<rscale>  1 0.13321122E+03</rscale>
<asrwt>0</asrwt>
<pdfrwt beam="2">  1        4 0.42410820E-02 0.13321122E+03</pdfrwt>
<pdfrwt beam="1">  1       -4 0.52279179E-01 0.13321122E+03</pdfrwt>
<totfact> 0.18062466E+03</totfact>
</mgrwt>
</event>
<event>
 6    4  0.1195577E-003  0.1346027E+03  0.7818608E-02  0.1220782E+00
          4   -1    0    0  502    0  0.00000000000E+00  0.00000000000E+00  0.16538794417E+03  0.16539282021E+03  0.12700000000E+01 0. -1.
         -4   -1    0    0    0  501 -0.00000000000E+00 -0.00000000000E+00 -0.71154445917E+02  0.71165778811E+02  0.12700000000E+01 0. -1.
         25    2    1    2    0    0  0.23777464290E+02  0.43905134029E+02  0.54677926064E+01  0.13471372138E+03  0.12499944548E+03 0.  0.
    9000005    1    3    3    0    0  0.41428625522E+02  0.35117587928E+02  0.57476958869E+02  0.79083353465E+02  0.10000000000E+01 0.  0.
    9000005    1    3    3    0    0 -0.17651161232E+02  0.87875461005E+01 -0.52009166262E+02  0.55630367917E+02  0.10000000000E+01 0.  0.
         21    1    1    2  502  501 -0.23777464290E+02 -0.43905134029E+02  0.88765705651E+02  0.10184487764E+03  0.00000000000E+00 0. -1.
<mgrwt>
<rscale>  1 0.13460271E+03</rscale>
<asrwt>0</asrwt>
<pdfrwt beam="1">  1        4 0.25445546E-01 0.13460271E+03</pdfrwt>
<pdfrwt beam="2">  1       -4 0.10948085E-01 0.13460271E+03</pdfrwt>
<totfact> 0.15492172E+03</totfact>
</mgrwt>
</event>
<event>
 6    4  0.1195577E-003  0.1555934E+03  0.7818608E-02  0.1193764E+00
         -4   -1    0    0    0  501 -0.00000000000E+00  0.00000000000E+00  0.86305631436E+02  0.86314975048E+02  0.12700000000E+01 0.  1.
          4   -1    0    0  502    0  0.00000000000E+00 -0.00000000000E+00 -0.10232323985E+04  0.10232331867E+04  0.12700000000E+01 0.  1.
         25    2    1    2    0    0 -0.68810030153E+02  0.62036990108E+02  0.12050317801E+02  0.15605934896E+03  0.12500360734E+03 0.  0.
    9000005    1    3    3    0    0  0.39936538528E+01  0.54203404601E+02 -0.38903101294E+02  0.66846163927E+02  0.10000000000E+01 0.  0.
    9000005    1    3    3    0    0 -0.72803684006E+02  0.78335855075E+01  0.50953419096E+02  0.89213185036E+02  0.10000000000E+01 0.  0.
         21    1    1    2  502  501  0.68810030153E+02 -0.62036990108E+02 -0.94897708488E+03  0.95348881274E+03  0.00000000000E+00 0.  1.
<mgrwt>
<rscale>  1 0.15559341E+03</rscale>
<asrwt>0</asrwt>
<pdfrwt beam="2">  1        4 0.15742114E+00 0.15559341E+03</pdfrwt>
<pdfrwt beam="1">  1       -4 0.13278570E-01 0.15559341E+03</pdfrwt>
<totfact> 0.22600247E+01</totfact>
</mgrwt>
</event>
<event>
 6    4  0.1195577E-003  0.1355493E+03  0.7818608E-02  0.1219446E+00
          4   -1    0    0  502    0  0.00000000000E+00  0.00000000000E+00  0.58432172192E+01  0.59796394098E+01  0.12700000000E+01 0. -1.
         -4   -1    0    0    0  501 -0.00000000000E+00 -0.00000000000E+00 -0.16642011758E+04  0.16642016603E+04  0.12700000000E+01 0. -1.
         25    2    1    2    0    0  0.44938291780E+02  0.26971134987E+02 -0.14009218072E+04  0.14074642196E+04  0.12500690927E+03 0.  0.
    9000005    1    3    3    0    0  0.59534552732E+02 -0.36748793362E+02 -0.68586018015E+03  0.68942006317E+03  0.10000000000E+01 0.  0.
    9000005    1    3    3    0    0 -0.14596260952E+02  0.63719928349E+02 -0.71506162704E+03  0.71804415642E+03  0.10000000000E+01 0.  0.
         21    1    1    2  502  501 -0.44938291780E+02 -0.26971134987E+02 -0.25743615134E+03  0.26271708016E+03  0.00000000000E+00 0. -1.
<mgrwt>
<rscale>  1 0.13554933E+03</rscale>
<asrwt>0</asrwt>
<pdfrwt beam="1">  1        4 0.90948911E-03 0.13554933E+03</pdfrwt>
<pdfrwt beam="2">  1       -4 0.25604111E+00 0.13554933E+03</pdfrwt>
<totfact> 0.38335112E+02</totfact>
</mgrwt>
</event>
<event>
 6    4  0.1195577E-003  0.1278816E+03  0.7818608E-02  0.1230633E+00
          4   -1    0    0  502    0  0.00000000000E+00  0.00000000000E+00  0.47725827185E+02  0.47742721754E+02  0.12700000000E+01 0. -1.
         -4   -1    0    0    0  501 -0.00000000000E+00 -0.00000000000E+00 -0.12566288193E+03  0.12566929933E+03  0.12700000000E+01 0. -1.
         25    2    1    2    0    0  0.24402711885E+02 -0.11587997863E+02 -0.65269195903E+02  0.14357498555E+03  0.12499573793E+03 0.  0.
    9000005    1    3    3    0    0 -0.22203957287E+02 -0.32295797683E+02  0.20153037087E+02  0.44081505998E+02  0.10000000000E+01 0.  0.
    9000005    1    3    3    0    0  0.46606669172E+02  0.20707799820E+02 -0.85422232990E+02  0.99493479553E+02  0.10000000000E+01 0.  0.
         21    1    1    2  502  501 -0.24402711885E+02  0.11587997863E+02 -0.12667858838E+02  0.29837035532E+02  0.00000000000E+00 0. -1.
<mgrwt>
<rscale>  1 0.12788162E+03</rscale>
<asrwt>0</asrwt>
<pdfrwt beam="1">  1        4 0.73442282E-02 0.12788162E+03</pdfrwt>
<pdfrwt beam="2">  1       -4 0.19334544E-01 0.12788162E+03</pdfrwt>
<totfact> 0.49138209E+03</totfact>
</mgrwt>
</event>
<event>
 6    4  0.1195577E-003  0.1268854E+03  0.7818608E-02  0.1232152E+00
         -4   -1    0    0    0  501 -0.00000000000E+00  0.00000000000E+00  0.21499667925E+04  0.21499671676E+04  0.12700000000E+01 0. -1.
          4   -1    0    0  502    0  0.00000000000E+00 -0.00000000000E+00 -0.25840342219E+01  0.28792590818E+01  0.12700000000E+01 0. -1.
         25    2    1    2    0    0  0.70886169507E+01 -0.20615818957E+02  0.19781542370E+04  0.19822194860E+04  0.12499857889E+03 0.  0.
    9000005    1    3    3    0    0 -0.97641203582E+00  0.47670248934E+02  0.45029242977E+03  0.45281086374E+03  0.10000000000E+01 0.  0.
    9000005    1    3    3    0    0  0.80650289866E+01 -0.68286067892E+02  0.15278618073E+04  0.15294086223E+04  0.10000000000E+01 0.  0.
         21    1    1    2  502  501 -0.70886169507E+01  0.20615818957E+02  0.16922852122E+03  0.17062694065E+03  0.00000000000E+00 0. -1.
<mgrwt>
<rscale>  1 0.12688540E+03</rscale>
<asrwt>0</asrwt>
<pdfrwt beam="2">  1        4 0.42028297E-03 0.12688540E+03</pdfrwt>
<pdfrwt beam="1">  1       -4 0.33078624E+00 0.12688540E+03</pdfrwt>
<totfact> 0.44163808E+02</totfact>
</mgrwt>
</event>
<event>
 6    4  0.1195577E-003  0.1843076E+03  0.7818608E-02  0.1163698E+00
          4   -1    0    0  502    0  0.00000000000E+00  0.00000000000E+00  0.68044387838E+02  0.68056238628E+02  0.12700000000E+01 0. -1.
         -4   -1    0    0    0  501 -0.00000000000E+00 -0.00000000000E+00 -0.40351806751E+03  0.40352006606E+03  0.12700000000E+01 0. -1.
         25    2    1    2    0    0 -0.55624737220E+02 -0.12349434911E+03 -0.25294370242E+03  0.31296936033E+03  0.12499735301E+03 0.  0.
    9000005    1    3    3    0    0 -0.25274306851E+02 -0.13581114706E+03 -0.24157115135E+03  0.27828237353E+03  0.10000000000E+01 0.  0.
    9000005    1    3    3    0    0 -0.30350430369E+02  0.12316797954E+02 -0.11372551070E+02  0.34686986800E+02  0.10000000000E+01 0.  0.
         21    1    1    2  502  501  0.55624737220E+02  0.12349434911E+03 -0.82529977253E+02  0.15860694435E+03  0.00000000000E+00 0. -1.
<mgrwt>
<rscale>  1 0.18430763E+03</rscale>
<asrwt>0</asrwt>
<pdfrwt beam="1">  1        4 0.10469433E-01 0.18430763E+03</pdfrwt>
<pdfrwt beam="2">  1       -4 0.62080766E-01 0.18430763E+03</pdfrwt>
<totfact> 0.30421775E+02</totfact>
</mgrwt>
</event>
<event>
 6    4  0.1195577E-003  0.1311205E+03  0.7818608E-02  0.1225803E+00
         -4   -1    0    0    0  501 -0.00000000000E+00  0.00000000000E+00  0.11098046089E+03  0.11098772725E+03  0.12700000000E+01 0. -1.
          4   -1    0    0  502    0  0.00000000000E+00 -0.00000000000E+00 -0.67455387263E+02  0.67467341513E+02  0.12700000000E+01 0. -1.
         25    2    1    2    0    0 -0.19373112783E+02 -0.34509840345E+02  0.20629076102E+02  0.13273337498E+03  0.12500537378E+03 0.  0.
    9000005    1    3    3    0    0  0.24036580867E+02 -0.70017477442E+02  0.19796758671E+02  0.76636257875E+02  0.10000000000E+01 0.  0.
    9000005    1    3    3    0    0 -0.43409693650E+02  0.35507637097E+02  0.83231743103E+00  0.56097117104E+02  0.10000000000E+01 0.  0.
         21    1    1    2  502  501  0.19373112783E+02  0.34509840345E+02  0.22895997525E+02  0.45721693781E+02  0.00000000000E+00 0. -1.
<mgrwt>
<rscale>  1 0.13112052E+03</rscale>
<asrwt>0</asrwt>
<pdfrwt beam="2">  1        4 0.10379231E-01 0.13112052E+03</pdfrwt>
<pdfrwt beam="1">  1       -4 0.17075395E-01 0.13112052E+03</pdfrwt>
<totfact> 0.34658586E+03</totfact>
</mgrwt>
</event>
<event>
 6    4  0.1195577E-003  0.1387372E+03  0.7818608E-02  0.1215038E+00
         -4   -1    0    0    0  501 -0.00000000000E+00  0.00000000000E+00  0.11843076039E+03  0.11843756966E+03  0.12700000000E+01 0.  1.
          4   -1    0    0  502    0  0.00000000000E+00 -0.00000000000E+00 -0.88802829699E+02  0.88811910589E+02  0.12700000000E+01 0.  1.
         25    2    1    2    0    0  0.60200480052E+02 -0.10443929566E+00  0.43641554900E+02  0.14543936482E+03  0.12499565920E+03 0.  0.
    9000005    1    3    3    0    0 -0.32825104218E+02  0.23478587772E+02  0.25549044452E+02  0.47775362093E+02  0.10000000000E+01 0.  0.
    9000005    1    3    3    0    0  0.93025584270E+02 -0.23583027067E+02  0.18092510449E+02  0.97664002728E+02  0.10000000000E+01 0.  0.
         21    1    1    2  502  501 -0.60200480052E+02  0.10443929566E+00 -0.14013624206E+02  0.61810115430E+02  0.00000000000E+00 0.  1.
<mgrwt>
<rscale>  1 0.13873725E+03</rscale>
<asrwt>0</asrwt>
<pdfrwt beam="2">  1        4 0.13663196E-01 0.13873725E+03</pdfrwt>
<pdfrwt beam="1">  1       -4 0.18221339E-01 0.13873725E+03</pdfrwt>
<totfact> 0.19555323E+03</totfact>
</mgrwt>
</event>
<event>
 6    4  0.1195577E-003  0.1492838E+03  0.7818608E-02  0.1201356E+00
         -4   -1    0    0    0  501 -0.00000000000E+00  0.00000000000E+00  0.37970282921E+03  0.37970495310E+03  0.12700000000E+01 0. -1.
          4   -1    0    0  502    0  0.00000000000E+00 -0.00000000000E+00 -0.38516064668E+02  0.38536996996E+02  0.12700000000E+01 0. -1.
         25    2    1    2    0    0  0.70679140123E+02  0.40787134652E+02  0.27604861761E+03  0.31382878336E+03  0.12500613898E+03 0.  0.
    9000005    1    3    3    0    0  0.81458071622E+02 -0.56631269871E+01  0.88964866161E+02  0.12076106927E+03  0.10000000000E+01 0.  0.
    9000005    1    3    3    0    0 -0.10778931499E+02  0.46450261639E+02  0.18708375145E+03  0.19306771410E+03  0.10000000000E+01 0.  0.
         21    1    1    2  502  501 -0.70679140123E+02 -0.40787134652E+02  0.65138146936E+02  0.10441316674E+03  0.00000000000E+00 0. -1.
<mgrwt>
<rscale>  1 0.14928384E+03</rscale>
<asrwt>0</asrwt>
<pdfrwt beam="2">  1        4 0.59273221E-02 0.14928384E+03</pdfrwt>
<pdfrwt beam="1">  1       -4 0.58417592E-01 0.14928384E+03</pdfrwt>
<totfact> 0.85745883E+02</totfact>
</mgrwt>
</event>
<event>
 6    4  0.1195577E-003  0.1360317E+03  0.7818608E-02  0.1218771E+00
         -4   -1    0    0    0  501 -0.00000000000E+00  0.00000000000E+00  0.23376991747E+03  0.23377336720E+03  0.12700000000E+01 0. -1.
          4   -1    0    0  502    0  0.00000000000E+00 -0.00000000000E+00 -0.38688979390E+02  0.38709818215E+02  0.12700000000E+01 0. -1.
         25    2    1    2    0    0  0.20530635907E+02 -0.49574970146E+02  0.13033715503E+03  0.18839429127E+03  0.12500180129E+03 0.  0.
    9000005    1    3    3    0    0  0.34123047262E+02 -0.82661206300E+02  0.12265159246E+03  0.15179483032E+03  0.10000000000E+01 0.  0.
    9000005    1    3    3    0    0 -0.13592411355E+02  0.33086236154E+02  0.76855625736E+01  0.36599460943E+02  0.10000000000E+01 0.  0.
         21    1    1    2  502  501 -0.20530635907E+02  0.49574970146E+02  0.64743783051E+02  0.84088894150E+02  0.00000000000E+00 0. -1.
<mgrwt>
<rscale>  1 0.13603174E+03</rscale>
<asrwt>0</asrwt>
<pdfrwt beam="2">  1        4 0.59540191E-02 0.13603174E+03</pdfrwt>
<pdfrwt beam="1">  1       -4 0.35966471E-01 0.13603174E+03</pdfrwt>
<totfact> 0.22156171E+03</totfact>
</mgrwt>
</event>
<event>
 6    4  0.1195577E-003  0.1273618E+03  0.7818608E-02  0.1231424E+00
         -4   -1    0    0    0  501 -0.00000000000E+00  0.00000000000E+00  0.60419769146E+02  0.60433115125E+02  0.12700000000E+01 0. -1.
          4   -1    0    0  502    0  0.00000000000E+00 -0.00000000000E+00 -0.97584081773E+02  0.97592345578E+02  0.12700000000E+01 0. -1.
         25    2    1    2    0    0  0.23487673677E+02  0.66828357210E+01 -0.21909957422E+02  0.12923264110E+03  0.12499879273E+03 0.  0.
    9000005    1    3    3    0    0 -0.50123384485E+01 -0.48358793547E+02  0.21891711859E+02  0.53328636755E+02  0.10000000000E+01 0.  0.
    9000005    1    3    3    0    0  0.28500012125E+02  0.55041629268E+02 -0.43801669281E+02  0.75904004344E+02  0.10000000000E+01 0.  0.
         21    1    1    2  502  501 -0.23487673677E+02 -0.66828357210E+01 -0.15254355205E+02  0.28792819604E+02  0.00000000000E+00 0.  1.
<mgrwt>
<rscale>  1 0.12736180E+03</rscale>
<asrwt>0</asrwt>
<pdfrwt beam="2">  1        4 0.15014598E-01 0.12736180E+03</pdfrwt>
<pdfrwt beam="1">  1       -4 0.92970114E-02 0.12736180E+03</pdfrwt>
<totfact> 0.51893068E+03</totfact>
</mgrwt>
</event>
<event>
 6    4  0.1195577E-003  0.1276810E+03  0.7818608E-02  0.1230938E+00
         -4   -1    0    0    0  501 -0.00000000000E+00  0.00000000000E+00  0.41258805688E+03  0.41259001148E+03  0.12700000000E+01 0. -1.
          4   -1    0    0  502    0  0.00000000000E+00 -0.00000000000E+00 -0.15789640971E+02  0.15840633257E+02  0.12700000000E+01 0. -1.
         25    2    1    2    0    0 -0.24365497695E+02 -0.92425254275E+01  0.36834626895E+03  0.38984792296E+03  0.12499330953E+03 0.  0.
    9000005    1    3    3    0    0  0.35567227024E+02  0.26137466892E+02  0.23821220788E+03  0.24226896375E+03  0.10000000000E+01 0.  0.
    9000005    1    3    3    0    0 -0.59932724719E+02 -0.35379992320E+02  0.13013406107E+03  0.14757895921E+03  0.10000000000E+01 0.  0.
         21    1    1    2  502  501  0.24365497695E+02  0.92425254275E+01  0.28452146951E+02  0.38582721785E+02  0.00000000000E+00 0. -1.
<mgrwt>
<rscale>  1 0.12768097E+03</rscale>
<asrwt>0</asrwt>
<pdfrwt beam="2">  1        4 0.24332490E-02 0.12768097E+03</pdfrwt>
<pdfrwt beam="1">  1       -4 0.63479142E-01 0.12768097E+03</pdfrwt>
<totfact> 0.28560292E+03</totfact>
</mgrwt>
</event>
<event>
 6    4  0.1195577E-003  0.1269478E+03  0.7818608E-02  0.1232056E+00
          4   -1    0    0  502    0  0.00000000000E+00  0.00000000000E+00  0.62845158782E+03  0.62845287105E+03  0.12700000000E+01 0. -1.
         -4   -1    0    0    0  501 -0.00000000000E+00 -0.00000000000E+00 -0.89647303314E+01  0.90542415428E+01  0.12700000000E+01 0. -1.
         25    2    1    2    0    0  0.82666018799E+01 -0.20598178298E+02  0.49267220851E+03  0.50876482408E+03  0.12499247789E+03 0.  0.
    9000005    1    3    3    0    0  0.18749593721E+02 -0.54080156432E+02  0.10572397075E+03  0.12022798583E+03  0.10000000000E+01 0.  0.
    9000005    1    3    3    0    0 -0.10482991841E+02  0.33481978135E+02  0.38694823776E+03  0.38853683825E+03  0.10000000000E+01 0.  0.
         21    1    1    2  502  501 -0.82666018799E+01  0.20598178298E+02  0.12681464898E+03  0.12874228852E+03  0.00000000000E+00 0. -1.
<mgrwt>
<rscale>  1 0.12694779E+03</rscale>
<asrwt>0</asrwt>
<pdfrwt beam="1">  1        4 0.96691860E-01 0.12694779E+03</pdfrwt>
<pdfrwt beam="2">  1       -4 0.13861732E-02 0.12694779E+03</pdfrwt>
<totfact> 0.26785464E+03</totfact>
</mgrwt>
</event>
<event>
 6    4  0.1195577E-003  0.1298348E+03  0.7818608E-02  0.1227701E+00
         -4   -1    0    0    0  501 -0.00000000000E+00  0.00000000000E+00  0.30779265287E+02  0.30805455225E+02  0.12700000000E+01 0.  1.
          4   -1    0    0  502    0  0.00000000000E+00 -0.00000000000E+00 -0.29477218144E+03  0.29477491727E+03  0.12700000000E+01 0.  1.
         25    2    1    2    0    0  0.44759183949E+01 -0.34824352447E+02 -0.11806880861E+03  0.17549168361E+03  0.12499727229E+03 0.  0.
    9000005    1    3    3    0    0  0.34404158407E+02  0.14029378709E+02  0.70911174629E+01  0.37838519125E+02  0.10000000000E+01 0.  0.
    9000005    1    3    3    0    0 -0.29928240012E+02 -0.48853731156E+02 -0.12515992607E+03  0.13765316449E+03  0.10000000000E+01 0.  0.
         21    1    1    2  502  501 -0.44759183949E+01  0.34824352447E+02 -0.14592410754E+03  0.15008868888E+03  0.00000000000E+00 0.  1.
<mgrwt>
<rscale>  1 0.12983485E+03</rscale>
<asrwt>0</asrwt>
<pdfrwt beam="2">  1        4 0.45351790E-01 0.12983485E+03</pdfrwt>
<pdfrwt beam="1">  1       -4 0.47374968E-02 0.12983485E+03</pdfrwt>
<totfact> 0.20072506E+03</totfact>
</mgrwt>
</event>
<event>
 6    4  0.1195577E-003  0.1350128E+03  0.7818608E-02  0.1220202E+00
         -4   -1    0    0    0  501 -0.00000000000E+00  0.00000000000E+00  0.86225001398E+01  0.87155268722E+01  0.12700000000E+01 0. -1.
          4   -1    0    0  502    0  0.00000000000E+00 -0.00000000000E+00 -0.10878725002E+04  0.10878732415E+04  0.12700000000E+01 0. -1.
         25    2    1    2    0    0 -0.99198056164E+01 -0.50080801558E+02 -0.62121919135E+03  0.63572142200E+03  0.12498781327E+03 0.  0.
    9000005    1    3    3    0    0  0.16269347399E+02 -0.70645923433E+02 -0.19235072154E+03  0.20556103288E+03  0.10000000000E+01 0.  0.
    9000005    1    3    3    0    0 -0.26189153015E+02  0.20565121875E+02 -0.42886846981E+03  0.43016038912E+03  0.10000000000E+01 0.  0.
         21    1    1    2  502  501  0.99198056164E+01  0.50080801558E+02 -0.45803080869E+03  0.46086734636E+03  0.00000000000E+00 0. -1.
<mgrwt>
<rscale>  1 0.13501275E+03</rscale>
<asrwt>0</asrwt>
<pdfrwt beam="2">  1        4 0.16737210E+00 0.13501275E+03</pdfrwt>
<pdfrwt beam="1">  1       -4 0.13337523E-02 0.13501275E+03</pdfrwt>
<totfact> 0.75233219E+02</totfact>
</mgrwt>
</event>
<event>
 6    4  0.1195577E-003  0.1300047E+03  0.7818608E-02  0.1227449E+00
          4   -1    0    0  502    0  0.00000000000E+00  0.00000000000E+00  0.37651948936E+02  0.37673361393E+02  0.12700000000E+01 0.  1.
         -4   -1    0    0    0  501 -0.00000000000E+00 -0.00000000000E+00 -0.18921542907E+03  0.18921969109E+03  0.12700000000E+01 0.  1.
         25    2    1    2    0    0 -0.35263519550E+02 -0.57150514136E+01 -0.99313955207E+02  0.16359857817E+03  0.12500022183E+03 0.  0.
    9000005    1    3    3    0    0 -0.60595260666E+02 -0.82781346393E+01 -0.11738165196E+03  0.13236225045E+03  0.10000000000E+01 0.  0.
    9000005    1    3    3    0    0  0.25331741116E+02  0.25630832257E+01  0.18067696751E+02  0.31236327721E+02  0.10000000000E+01 0.  0.
         21    1    1    2  502  501  0.35263519550E+02  0.57150514136E+01 -0.52249524923E+02  0.63294474311E+02  0.00000000000E+00 0. -1.
<mgrwt>
<rscale>  1 0.13000474E+03</rscale>
<asrwt>0</asrwt>
<pdfrwt beam="1">  1        4 0.57945826E-02 0.13000474E+03</pdfrwt>
<pdfrwt beam="2">  1       -4 0.29112041E-01 0.13000474E+03</pdfrwt>
<totfact> 0.34300991E+03</totfact>
</mgrwt>
</event>
<event>
 6    4  0.1195577E-003  0.1465524E+03  0.7818608E-02  0.1204775E+00
         -4   -1    0    0    0  501 -0.00000000000E+00  0.00000000000E+00  0.13024516543E+03  0.13025135707E+03  0.12700000000E+01 0. -1.
          4   -1    0    0  502    0  0.00000000000E+00 -0.00000000000E+00 -0.95716120345E+02  0.95724545410E+02  0.12700000000E+01 0. -1.
         25    2    1    2    0    0  0.75336978497E+02  0.13321820343E+02  0.27890122726E+02  0.14918263118E+03  0.12499786908E+03 0.  0.
    9000005    1    3    3    0    0  0.52062397936E+02 -0.15067373304E+02  0.73056004985E+02  0.90970868313E+02  0.10000000000E+01 0.  0.
    9000005    1    3    3    0    0  0.23274580561E+02  0.28389193647E+02 -0.45165882259E+02  0.58211762870E+02  0.10000000000E+01 0.  0.
         21    1    1    2  502  501 -0.75336978497E+02 -0.13321820343E+02  0.66389223605E+01  0.76793271297E+02  0.00000000000E+00 0. -1.
<mgrwt>
<rscale>  1 0.14655237E+03</rscale>
<asrwt>0</asrwt>
<pdfrwt beam="2">  1        4 0.14726681E-01 0.14655237E+03</pdfrwt>
<pdfrwt beam="1">  1       -4 0.20038842E-01 0.14655237E+03</pdfrwt>
<totfact> 0.14648682E+03</totfact>
</mgrwt>
</event>
<event>
 6    4  0.1195577E-003  0.1274393E+03  0.7818608E-02  0.1231306E+00
          4   -1    0    0  502    0  0.00000000000E+00  0.00000000000E+00  0.49595395018E+03  0.49595557624E+03  0.12700000000E+01 0.  1.
         -4   -1    0    0    0  501 -0.00000000000E+00 -0.00000000000E+00 -0.15028207601E+02  0.15081774554E+02  0.12700000000E+01 0.  1.
         25    2    1    2    0    0  0.24729041395E+02  0.21748341362E+01  0.26897627074E+03  0.29763905181E+03  0.12499806220E+03 0.  0.
    9000005    1    3    3    0    0  0.30226455873E+02 -0.54590653353E+02  0.87974384294E+02  0.10786227496E+03  0.10000000000E+01 0.  0.
    9000005    1    3    3    0    0 -0.54974144778E+01  0.56765487489E+02  0.18100188644E+03  0.18977677685E+03  0.10000000000E+01 0.  0.
         21    1    1    2  502  501 -0.24729041395E+02 -0.21748341362E+01  0.21194947184E+03  0.21339829897E+03  0.00000000000E+00 0.  1.
<mgrwt>
<rscale>  1 0.12743928E+03</rscale>
<asrwt>0</asrwt>
<pdfrwt beam="1">  1        4 0.76304853E-01 0.12743928E+03</pdfrwt>
<pdfrwt beam="2">  1       -4 0.23162776E-02 0.12743928E+03</pdfrwt>
<totfact> 0.20733117E+03</totfact>
</mgrwt>
</event>
<event>
 6    4  0.1195577E-003  0.1344139E+03  0.7818608E-02  0.1221050E+00
          4   -1    0    0  502    0  0.00000000000E+00  0.00000000000E+00  0.11079346052E+04  0.11079353331E+04  0.12700000000E+01 0. -1.
         -4   -1    0    0    0  501 -0.00000000000E+00 -0.00000000000E+00 -0.82756733787E+01  0.83725545606E+01  0.12700000000E+01 0. -1.
         25    2    1    2    0    0 -0.48908015654E+02 -0.71553683865E+01  0.63768641197E+03  0.65169858685E+03  0.12499557910E+03 0.  0.
    9000005    1    3    3    0    0  0.27066249891E+02  0.10049047647E+02  0.41071282399E+03  0.41172756652E+03  0.10000000000E+01 0.  0.
    9000005    1    3    3    0    0 -0.75974265546E+02 -0.17204416033E+02  0.22697358797E+03  0.23997102032E+03  0.10000000000E+01 0.  0.
         21    1    1    2  502  501  0.48908015654E+02  0.71553683865E+01  0.46197251982E+03  0.46460930077E+03  0.00000000000E+00 0. -1.
<mgrwt>
<rscale>  1 0.13441387E+03</rscale>
<asrwt>0</asrwt>
<pdfrwt beam="1">  1        4 0.17045890E+00 0.13441387E+03</pdfrwt>
<pdfrwt beam="2">  1       -4 0.12806895E-02 0.13441387E+03</pdfrwt>
<totfact> 0.76165763E+02</totfact>
</mgrwt>
</event>
<event>
 6    4  0.1195577E-003  0.1267711E+03  0.7818608E-02  0.1232327E+00
         -4   -1    0    0    0  501 -0.00000000000E+00  0.00000000000E+00  0.54718029843E+02  0.54732766145E+02  0.12700000000E+01 0.  1.
          4   -1    0    0  502    0  0.00000000000E+00 -0.00000000000E+00 -0.10102083012E+03  0.10102881281E+03  0.12700000000E+01 0.  1.
         25    2    1    2    0    0 -0.13851660376E+02 -0.15957305299E+02 -0.33762471657E+02  0.13118997076E+03  0.12499759937E+03 0.  0.
    9000005    1    3    3    0    0  0.20425025205E+02 -0.24297345121E+01  0.42088124460E+02  0.46856114703E+02  0.10000000000E+01 0.  0.
    9000005    1    3    3    0    0 -0.34276685581E+02 -0.13527570787E+02 -0.75850596117E+02  0.84333856055E+02  0.10000000000E+01 0.  0.
         21    1    1    2  502  501  0.13851660376E+02  0.15957305299E+02 -0.12540328619E+02  0.24571608199E+02  0.00000000000E+00 0. -1.
<mgrwt>
<rscale>  1 0.12677107E+03</rscale>
<asrwt>0</asrwt>
<pdfrwt beam="2">  1        4 0.15543414E-01 0.12677107E+03</pdfrwt>
<pdfrwt beam="1">  1       -4 0.84199060E-02 0.12677107E+03</pdfrwt>
<totfact> 0.57552537E+03</totfact>
</mgrwt>
</event>
<event>
 6    4  0.1195577E-003  0.1296849E+03  0.7818608E-02  0.1227924E+00
          4   -1    0    0  502    0  0.00000000000E+00  0.00000000000E+00  0.40946283538E+03  0.40946480491E+03  0.12700000000E+01 0. -1.
         -4   -1    0    0    0  501 -0.00000000000E+00 -0.00000000000E+00 -0.17187554441E+02  0.17234411149E+02  0.12700000000E+01 0. -1.
         25    2    1    2    0    0 -0.24067936495E+02 -0.24779626982E+02  0.34142859333E+03  0.36522823818E+03  0.12499954456E+03 0.  0.
    9000005    1    3    3    0    0  0.22570530822E+02  0.37622458587E+02  0.18916965026E+03  0.19419329244E+03  0.10000000000E+01 0.  0.
    9000005    1    3    3    0    0 -0.46638467317E+02 -0.62402085568E+02  0.15225894307E+03  0.17103494574E+03  0.10000000000E+01 0.  0.
         21    1    1    2  502  501  0.24067936495E+02  0.24779626982E+02  0.50846687611E+02  0.61470977880E+02  0.00000000000E+00 0. -1.
<mgrwt>
<rscale>  1 0.12968493E+03</rscale>
<asrwt>0</asrwt>
<pdfrwt beam="1">  1        4 0.62998030E-01 0.12968493E+03</pdfrwt>
<pdfrwt beam="2">  1       -4 0.26479953E-02 0.12968493E+03</pdfrwt>
<totfact> 0.25545275E+03</totfact>
</mgrwt>
</event>
<event>
 6    4  0.1195577E-003  0.1327720E+03  0.7818608E-02  0.1223400E+00
          4   -1    0    0  502    0  0.00000000000E+00  0.00000000000E+00  0.65926202058E+03  0.65926324384E+03  0.12700000000E+01 0. -1.
         -4   -1    0    0    0  501 -0.00000000000E+00 -0.00000000000E+00 -0.13664468138E+02  0.13723359265E+02  0.12700000000E+01 0. -1.
         25    2    1    2    0    0 -0.44701439484E+02  0.22318820045E+01  0.35604485199E+03  0.37999519311E+03  0.12500084069E+03 0.  0.
    9000005    1    3    3    0    0 -0.71490461117E+02  0.27230884797E+02  0.31835914722E+03  0.32742320281E+03  0.10000000000E+01 0.  0.
    9000005    1    3    3    0    0  0.26789021633E+02 -0.24999002793E+02  0.37685704762E+02  0.52571990300E+02  0.10000000000E+01 0.  0.
         21    1    1    2  502  501  0.44701439484E+02 -0.22318820045E+01  0.28955270045E+03  0.29299140999E+03  0.00000000000E+00 0. -1.
<mgrwt>
<rscale>  1 0.13277202E+03</rscale>
<asrwt>0</asrwt>
<pdfrwt beam="1">  1        4 0.10142951E+00 0.13277202E+03</pdfrwt>
<pdfrwt beam="2">  1       -4 0.21068509E-02 0.13277202E+03</pdfrwt>
<totfact> 0.12770197E+03</totfact>
</mgrwt>
</event>
<event>
 6    4  0.1195577E-003  0.1288629E+03  0.7818608E-02  0.1229153E+00
          4   -1    0    0  502    0  0.00000000000E+00  0.00000000000E+00  0.35888640618E+02  0.35911104487E+02  0.12700000000E+01 0. -1.
         -4   -1    0    0    0  501 -0.00000000000E+00 -0.00000000000E+00 -0.20835208874E+03  0.20835595931E+03  0.12700000000E+01 0. -1.
         25    2    1    2    0    0  0.30647268784E+02  0.62870574114E+01 -0.16938465544E+03  0.21283044281E+03  0.12500741463E+03 0.  0.
    9000005    1    3    3    0    0  0.68128126126E+02 -0.22865930720E+02 -0.13890651908E+03  0.15639793285E+03  0.10000000000E+01 0.  0.
    9000005    1    3    3    0    0 -0.37480857342E+02  0.29152988132E+02 -0.30478136357E+02  0.56432509955E+02  0.10000000000E+01 0.  0.
         21    1    1    2  502  501 -0.30647268784E+02 -0.62870574114E+01 -0.30787926765E+01  0.31436620988E+02  0.00000000000E+00 0. -1.
<mgrwt>
<rscale>  1 0.12886286E+03</rscale>
<asrwt>0</asrwt>
<pdfrwt beam="1">  1        4 0.55233552E-02 0.12886286E+03</pdfrwt>
<pdfrwt beam="2">  1       -4 0.32056192E-01 0.12886286E+03</pdfrwt>
<totfact> 0.30822674E+03</totfact>
</mgrwt>
</event>
<event>
 6    4  0.1195577E-003  0.1281492E+03  0.7818608E-02  0.1230228E+00
         -4   -1    0    0    0  501 -0.00000000000E+00  0.00000000000E+00  0.30218525038E+03  0.30218791910E+03  0.12700000000E+01 0.  1.
          4   -1    0    0  502    0  0.00000000000E+00 -0.00000000000E+00 -0.20434069266E+02  0.20473497179E+02  0.12700000000E+01 0.  1.
         25    2    1    2    0    0  0.27989562687E+02 -0.37154912846E+01  0.21686320147E+03  0.25189652104E+03  0.12499995467E+03 0.  0.
    9000005    1    3    3    0    0  0.49850351782E+02  0.49576265449E+02  0.11171081688E+03  0.13199685707E+03  0.10000000000E+01 0.  0.
    9000005    1    3    3    0    0 -0.21860789095E+02 -0.53291756733E+02  0.10515238459E+03  0.11989966397E+03  0.10000000000E+01 0.  0.
         21    1    1    2  502  501 -0.27989562687E+02  0.37154912846E+01  0.64887979648E+02  0.70764895236E+02  0.00000000000E+00 0. -1.
<mgrwt>
<rscale>  1 0.12814917E+03</rscale>
<asrwt>0</asrwt>
<pdfrwt beam="2">  1        4 0.31469415E-02 0.12814917E+03</pdfrwt>
<pdfrwt beam="1">  1       -4 0.46493272E-01 0.12814917E+03</pdfrwt>
<totfact> 0.36391804E+03</totfact>
</mgrwt>
</event>
<event>
 6    4  0.1195577E-003  0.1495621E+03  0.7818608E-02  0.1201012E+00
          4   -1    0    0  502    0  0.00000000000E+00  0.00000000000E+00  0.12851311244E+03  0.12851938752E+03  0.12700000000E+01 0. -1.
         -4   -1    0    0    0  501 -0.00000000000E+00 -0.00000000000E+00 -0.12723365003E+03  0.12723998821E+03  0.12700000000E+01 0. -1.
         25    2    1    2    0    0 -0.79968655232E+02 -0.18676454685E+02 -0.51453621900E+02  0.15816545194E+03  0.12500015681E+03 0.  0.
    9000005    1    3    3    0    0 -0.64373281703E+02 -0.66956944998E+02 -0.11537993641E+02  0.93601694311E+02  0.10000000000E+01 0.  0.
    9000005    1    3    3    0    0 -0.15595373529E+02  0.48280490313E+02 -0.39915628258E+02  0.64563757632E+02  0.10000000000E+01 0.  0.
         21    1    1    2  502  501  0.79968655232E+02  0.18676454685E+02  0.52733084306E+02  0.97593923784E+02  0.00000000000E+00 0. -1.
<mgrwt>
<rscale>  1 0.14956214E+03</rscale>
<asrwt>0</asrwt>
<pdfrwt beam="1">  1        4 0.19772218E-01 0.14956214E+03</pdfrwt>
<pdfrwt beam="2">  1       -4 0.19575378E-01 0.14956214E+03</pdfrwt>
<totfact> 0.91026783E+02</totfact>
</mgrwt>
</event>
<event>
 6    4  0.1195577E-003  0.1304964E+03  0.7818608E-02  0.1226721E+00
         -4   -1    0    0    0  501 -0.00000000000E+00  0.00000000000E+00  0.86274062406E+02  0.86283409437E+02  0.12700000000E+01 0. -1.
          4   -1    0    0  502    0  0.00000000000E+00 -0.00000000000E+00 -0.81855201686E+02  0.81865053247E+02  0.12700000000E+01 0. -1.
         25    2    1    2    0    0  0.36738243746E+02 -0.73679030778E+01  0.61230367871E+01  0.13063994678E+03  0.12500127826E+03 0.  0.
    9000005    1    3    3    0    0  0.24573752798E+02  0.53891066235E+02 -0.20576648927E+02  0.62709766604E+02  0.10000000000E+01 0.  0.
    9000005    1    3    3    0    0  0.12164490948E+02 -0.61258969312E+02  0.26699685714E+02  0.67930180174E+02  0.10000000000E+01 0.  0.
         21    1    1    2  502  501 -0.36738243746E+02  0.73679030778E+01 -0.17041760674E+01  0.37508515905E+02  0.00000000000E+00 0. -1.
<mgrwt>
<rscale>  1 0.13049638E+03</rscale>
<asrwt>0</asrwt>
<pdfrwt beam="2">  1        4 0.12594585E-01 0.13049638E+03</pdfrwt>
<pdfrwt beam="1">  1       -4 0.13274409E-01 0.13049638E+03</pdfrwt>
<totfact> 0.38652029E+03</totfact>
</mgrwt>
</event>
<event>
 6    4  0.1195577E-003  0.1268637E+03  0.7818608E-02  0.1232185E+00
         -4   -1    0    0    0  501 -0.00000000000E+00  0.00000000000E+00  0.14074974528E+03  0.14075547484E+03  0.12700000000E+01 0.  1.
          4   -1    0    0  502    0  0.00000000000E+00 -0.00000000000E+00 -0.45394973600E+02  0.45412735308E+02  0.12700000000E+01 0.  1.
         25    2    1    2    0    0 -0.28852986621E+01 -0.21510467815E+02  0.10273471179E+03  0.16324467006E+03  0.12499350432E+03 0.  0.
    9000005    1    3    3    0    0 -0.51902905297E+02  0.25416510240E+02  0.36181360049E+02  0.68190918648E+02  0.10000000000E+01 0.  0.
    9000005    1    3    3    0    0  0.49017606635E+02 -0.46926978054E+02  0.66553351740E+02  0.95053751411E+02  0.10000000000E+01 0.  0.
         21    1    1    2  502  501  0.28852986621E+01  0.21510467815E+02 -0.73799401105E+01  0.22923540085E+02  0.00000000000E+00 0.  1.
<mgrwt>
<rscale>  1 0.12686371E+03</rscale>
<asrwt>0</asrwt>
<pdfrwt beam="2">  1        4 0.69856492E-02 0.12686371E+03</pdfrwt>
<pdfrwt beam="1">  1       -4 0.21655614E-01 0.12686371E+03</pdfrwt>
<totfact> 0.43406665E+03</totfact>
</mgrwt>
</event>
<event>
 6    4  0.1195577E-003  0.1270278E+03  0.7818608E-02  0.1231934E+00
          4   -1    0    0  502    0  0.00000000000E+00  0.00000000000E+00  0.15125942615E+03  0.15126475762E+03  0.12700000000E+01 0.  1.
         -4   -1    0    0    0  501 -0.00000000000E+00 -0.00000000000E+00 -0.37218874768E+02  0.37240536234E+02  0.12700000000E+01 0.  1.
         25    2    1    2    0    0  0.20046247510E+02  0.10455433111E+02  0.91270901032E+02  0.15641752208E+03  0.12499958287E+03 0.  0.
    9000005    1    3    3    0    0  0.15111022386E+01  0.40671922876E+02 -0.15766455420E+02  0.43658559950E+02  0.10000000000E+01 0.  0.
    9000005    1    3    3    0    0  0.18535145271E+02 -0.30216489766E+02  0.10703735645E+03  0.11275896213E+03  0.10000000000E+01 0.  0.
         21    1    1    2  502  501 -0.20046247510E+02 -0.10455433111E+02  0.22769650349E+02  0.32087771779E+02  0.00000000000E+00 0.  1.
<mgrwt>
<rscale>  1 0.12702781E+03</rscale>
<asrwt>0</asrwt>
<pdfrwt beam="1">  1        4 0.23272757E-01 0.12702781E+03</pdfrwt>
<pdfrwt beam="2">  1       -4 0.57280571E-02 0.12702781E+03</pdfrwt>
<totfact> 0.52619001E+03</totfact>
</mgrwt>
</event>
<event>
 6    4  0.1195577E-003  0.1271988E+03  0.7818608E-02  0.1231672E+00
         -4   -1    0    0    0  501 -0.00000000000E+00  0.00000000000E+00  0.80888386873E+01  0.81879308320E+01  0.12700000000E+01 0. -1.
          4   -1    0    0  502    0  0.00000000000E+00 -0.00000000000E+00 -0.69839109807E+03  0.69839225280E+03  0.12700000000E+01 0. -1.
         25    2    1    2    0    0 -0.21658874363E+02  0.92464822750E+01 -0.58849316560E+03  0.60208283509E+03  0.12499972034E+03 0.  0.
    9000005    1    3    3    0    0  0.39269102376E+02  0.42410267006E+02 -0.26284812388E+03  0.26912976308E+03  0.10000000000E+01 0.  0.
    9000005    1    3    3    0    0 -0.60927976739E+02 -0.33163784731E+02 -0.32564504172E+03  0.33295307201E+03  0.10000000000E+01 0.  0.
         21    1    1    2  502  501  0.21658874363E+02 -0.92464822750E+01 -0.10180909379E+03  0.10449734854E+03  0.00000000000E+00 0. -1.
<mgrwt>
<rscale>  1 0.12719880E+03</rscale>
<asrwt>0</asrwt>
<pdfrwt beam="2">  1        4 0.10745245E+00 0.12719880E+03</pdfrwt>
<pdfrwt beam="1">  1       -4 0.12521486E-02 0.12719880E+03</pdfrwt>
<totfact> 0.24477472E+03</totfact>
</mgrwt>
</event>
<event>
 6    4  0.1195577E-003  0.1350650E+03  0.7818608E-02  0.1220128E+00
          4   -1    0    0  502    0  0.00000000000E+00  0.00000000000E+00  0.72981944205E+02  0.72992993362E+02  0.12700000000E+01 0.  1.
         -4   -1    0    0    0  501 -0.00000000000E+00 -0.00000000000E+00 -0.16783620272E+03  0.16784100764E+03  0.12700000000E+01 0.  1.
         25    2    1    2    0    0 -0.42211938657E+02  0.28913123773E+02 -0.12279193075E+03  0.18253880375E+03  0.12499896050E+03 0.  0.
    9000005    1    3    3    0    0 -0.62421500114E+02 -0.12803114939E+02 -0.12026349325E+03  0.13610536814E+03  0.10000000000E+01 0.  0.
    9000005    1    3    3    0    0  0.20209561457E+02  0.41716238712E+02 -0.25284375055E+01  0.46433435612E+02  0.10000000000E+01 0.  0.
         21    1    1    2  502  501  0.42211938657E+02 -0.28913123773E+02  0.27937672238E+02  0.58295197242E+02  0.00000000000E+00 0.  1.
<mgrwt>
<rscale>  1 0.13506501E+03</rscale>
<asrwt>0</asrwt>
<pdfrwt beam="1">  1        4 0.11229211E-01 0.13506501E+03</pdfrwt>
<pdfrwt beam="2">  1       -4 0.25822174E-01 0.13506501E+03</pdfrwt>
<totfact> 0.14451430E+03</totfact>
</mgrwt>
</event>
<event>
 6    4  0.1195577E-003  0.1271474E+03  0.7818608E-02  0.1231751E+00
         -4   -1    0    0    0  501 -0.00000000000E+00  0.00000000000E+00  0.78168598045E+03  0.78168701213E+03  0.12700000000E+01 0. -1.
          4   -1    0    0  502    0  0.00000000000E+00 -0.00000000000E+00 -0.12437521526E+02  0.12502193476E+02  0.12700000000E+01 0. -1.
         25    2    1    2    0    0 -0.85127218385E+01  0.21689218599E+02  0.75749636042E+03  0.76809322017E+03  0.12499428062E+03 0.  0.
    9000005    1    3    3    0    0 -0.53011206692E+02 -0.77812909113E+01  0.17166942232E+03  0.17983917004E+03  0.10000000000E+01 0.  0.
    9000005    1    3    3    0    0  0.44498484854E+02  0.29470509511E+02  0.58582693810E+03  0.58825405013E+03  0.10000000000E+01 0.  0.
         21    1    1    2  502  501  0.85127218385E+01 -0.21689218599E+02  0.11752098505E+02  0.26095985435E+02  0.00000000000E+00 0. -1.
<mgrwt>
<rscale>  1 0.12714739E+03</rscale>
<asrwt>0</asrwt>
<pdfrwt beam="2">  1        4 0.19185189E-02 0.12714739E+03</pdfrwt>
<pdfrwt beam="1">  1       -4 0.12026444E+00 0.12714739E+03</pdfrwt>
<totfact> 0.97813744E+02</totfact>
</mgrwt>
</event>
<event>
 6    4  0.1195577E-003  0.1266324E+03  0.7818608E-02  0.1232540E+00
         -4   -1    0    0    0  501 -0.00000000000E+00  0.00000000000E+00  0.71607150392E+01  0.72724644979E+01  0.12700000000E+01 0. -1.
          4   -1    0    0  502    0  0.00000000000E+00 -0.00000000000E+00 -0.87075772686E+03  0.87075865301E+03  0.12700000000E+01 0. -1.
         25    2    1    2    0    0  0.11006151083E+02  0.17022250948E+02 -0.57768748455E+03  0.59140392030E+03  0.12499949904E+03 0.  0.
    9000005    1    3    3    0    0  0.15235705554E+02 -0.38218245956E+02 -0.45412105024E+03  0.45598211513E+03  0.10000000000E+01 0.  0.
    9000005    1    3    3    0    0 -0.42295544714E+01  0.55240496904E+02 -0.12356643431E+03  0.13542180518E+03  0.10000000000E+01 0.  0.
         21    1    1    2  502  501 -0.11006151083E+02 -0.17022250948E+02 -0.28590952727E+03  0.28662719720E+03  0.00000000000E+00 0. -1.
<mgrwt>
<rscale>  1 0.12663241E+03</rscale>
<asrwt>0</asrwt>
<pdfrwt beam="2">  1        4 0.13397131E+00 0.12663241E+03</pdfrwt>
<pdfrwt beam="1">  1       -4 0.11103165E-02 0.12663241E+03</pdfrwt>
<totfact> 0.17275491E+03</totfact>
</mgrwt>
</event>
<event>
 6    4  0.1195577E-003  0.1280265E+03  0.7818608E-02  0.1230414E+00
         -4   -1    0    0    0  501 -0.00000000000E+00  0.00000000000E+00  0.65327489368E+03  0.65327612815E+03  0.12700000000E+01 0.  1.
          4   -1    0    0  502    0  0.00000000000E+00 -0.00000000000E+00 -0.92432044910E+01  0.93300444406E+01  0.12700000000E+01 0.  1.
         25    2    1    2    0    0 -0.86830130369E+01  0.26280510871E+02  0.52098203723E+03  0.53648211932E+03  0.12499888505E+03 0.  0.
    9000005    1    3    3    0    0  0.46140557373E+01  0.19176127524E+02  0.52099887034E+03  0.52137302987E+03  0.10000000000E+01 0.  0.
    9000005    1    3    3    0    0 -0.13297068774E+02  0.71043833465E+01 -0.16833108902E-01  0.15109089452E+02  0.10000000000E+01 0.  0.
         21    1    1    2  502  501  0.86830130369E+01 -0.26280510871E+02  0.12304965196E+03  0.12612405327E+03  0.00000000000E+00 0.  1.
<mgrwt>
<rscale>  1 0.12802649E+03</rscale>
<asrwt>0</asrwt>
<pdfrwt beam="2">  1        4 0.14288059E-02 0.12802649E+03</pdfrwt>
<pdfrwt beam="1">  1       -4 0.10051064E+00 0.12802649E+03</pdfrwt>
<totfact> 0.23446699E+03</totfact>
</mgrwt>
</event>
<event>
 6    4  0.1195577E-003  0.1303998E+03  0.7818608E-02  0.1226864E+00
          4   -1    0    0  502    0  0.00000000000E+00  0.00000000000E+00  0.13972159406E+02  0.14029759031E+02  0.12700000000E+01 0.  1.
         -4   -1    0    0    0  501 -0.00000000000E+00 -0.00000000000E+00 -0.15770216084E+04  0.15770221198E+04  0.12700000000E+01 0.  1.
         25    2    1    2    0    0 -0.27897315860E+02 -0.24457863745E+02 -0.15437204827E+04  0.15492182050E+04  0.12501068177E+03 0.  0.
    9000005    1    3    3    0    0 -0.13275337913E+02  0.32010686110E+02 -0.13801705791E+03  0.14230469738E+03  0.10000000000E+01 0.  0.
    9000005    1    3    3    0    0 -0.14621977947E+02 -0.56468549855E+02 -0.14057034248E+04  0.14069135076E+04  0.10000000000E+01 0.  0.
         21    1    1    2  502  501  0.27897315860E+02  0.24457863745E+02 -0.19328966342E+02  0.41833673889E+02  0.00000000000E+00 0.  1.
<mgrwt>
<rscale>  1 0.13039984E+03</rscale>
<asrwt>0</asrwt>
<pdfrwt beam="1">  1        4 0.21540343E-02 0.13039984E+03</pdfrwt>
<pdfrwt beam="2">  1       -4 0.24262304E+00 0.13039984E+03</pdfrwt>
<totfact> 0.12273144E+02</totfact>
</mgrwt>
</event>
<event>
 6    4  0.1195577E-003  0.1490568E+03  0.7818608E-02  0.1201637E+00
         -4   -1    0    0    0  501 -0.00000000000E+00  0.00000000000E+00  0.11336665402E+03  0.11337376744E+03  0.12700000000E+01 0. -1.
          4   -1    0    0  502    0  0.00000000000E+00 -0.00000000000E+00 -0.19453597534E+03  0.19454012080E+03  0.12700000000E+01 0. -1.
         25    2    1    2    0    0  0.54733046099E+02 -0.59967968867E+02  0.46914237687E+02  0.15626540749E+03  0.12500427294E+03 0.  0.
    9000005    1    3    3    0    0  0.28253810074E+02 -0.72035693643E+02 -0.22834240166E+02  0.80683464639E+02  0.10000000000E+01 0.  0.
    9000005    1    3    3    0    0  0.26479236026E+02  0.12067724776E+02  0.69748477853E+02  0.75581942847E+02  0.10000000000E+01 0.  0.
         21    1    1    2  502  501 -0.54733046099E+02  0.59967968867E+02 -0.12808355901E+03  0.15164848075E+03  0.00000000000E+00 0. -1.
<mgrwt>
<rscale>  1 0.14905681E+03</rscale>
<asrwt>0</asrwt>
<pdfrwt beam="2">  1        4 0.29929478E-01 0.14905681E+03</pdfrwt>
<pdfrwt beam="1">  1       -4 0.17441890E-01 0.14905681E+03</pdfrwt>
<totfact> 0.52035855E+02</totfact>
</mgrwt>
</event>
<event>
 6    4  0.1195577E-003  0.1267717E+03  0.7818608E-02  0.1232326E+00
         -4   -1    0    0    0  501 -0.00000000000E+00  0.00000000000E+00  0.88259329283E+02  0.88268466088E+02  0.12700000000E+01 0.  1.
          4   -1    0    0  502    0  0.00000000000E+00 -0.00000000000E+00 -0.10847152804E+03  0.10847896245E+03  0.12700000000E+01 0.  1.
         25    2    1    2    0    0  0.15660997174E+02 -0.14158144288E+02  0.40007013000E+02  0.13293462930E+03  0.12500133878E+03 0.  0.
    9000005    1    3    3    0    0  0.45690083154E+02 -0.55046890027E+02  0.40456684355E+02  0.82191770326E+02  0.10000000000E+01 0.  0.
    9000005    1    3    3    0    0 -0.30029085980E+02  0.40888745739E+02 -0.44967135524E+00  0.50742858978E+02  0.10000000000E+01 0.  0.
         21    1    1    2  502  501 -0.15660997174E+02  0.14158144288E+02 -0.60219211754E+02  0.63812799237E+02  0.00000000000E+00 0.  1.
<mgrwt>
<rscale>  1 0.12677166E+03</rscale>
<asrwt>0</asrwt>
<pdfrwt beam="2">  1        4 0.16689202E-01 0.12677166E+03</pdfrwt>
<pdfrwt beam="1">  1       -4 0.13579633E-01 0.12677166E+03</pdfrwt>
<totfact> 0.22622934E+03</totfact>
</mgrwt>
</event>
<event>
 6    4  0.1195577E-003  0.1278437E+03  0.7818608E-02  0.1230691E+00
         -4   -1    0    0    0  501 -0.00000000000E+00  0.00000000000E+00  0.37964780970E+03  0.37964993390E+03  0.12700000000E+01 0.  1.
          4   -1    0    0  502    0  0.00000000000E+00 -0.00000000000E+00 -0.19410857673E+02  0.19452359641E+02  0.12700000000E+01 0.  1.
         25    2    1    2    0    0  0.25047536832E+02 -0.91577467027E+01  0.34601672182E+03  0.36887881966E+03  0.12503106970E+03 0.  0.
    9000005    1    3    3    0    0  0.22001868298E+02 -0.29212042653E+02  0.18985134566E+02  0.41217241284E+02  0.10000000000E+01 0.  0.
    9000005    1    3    3    0    0  0.30456685337E+01  0.20054295951E+02  0.32703158726E+03  0.32766157838E+03  0.10000000000E+01 0.  0.
         21    1    1    2  502  501 -0.25047536832E+02  0.91577467027E+01  0.14220230203E+02  0.30223473874E+02  0.00000000000E+00 0.  1.
<mgrwt>
<rscale>  1 0.12784370E+03</rscale>
<asrwt>0</asrwt>
<pdfrwt beam="2">  1        4 0.29896419E-02 0.12784370E+03</pdfrwt>
<pdfrwt beam="1">  1       -4 0.58410706E-01 0.12784370E+03</pdfrwt>
<totfact> 0.24695359E+03</totfact>
</mgrwt>
</event>
<event>
 6    4  0.1195577E-003  0.1275518E+03  0.7818608E-02  0.1231134E+00
          4   -1    0    0  502    0  0.00000000000E+00  0.00000000000E+00  0.31501516003E+03  0.31501772005E+03  0.12700000000E+01 0.  1.
         -4   -1    0    0    0  501 -0.00000000000E+00 -0.00000000000E+00 -0.18940486902E+02  0.18983017255E+02  0.12700000000E+01 0.  1.
         25    2    1    2    0    0 -0.29957629183E+00  0.25361220241E+02  0.22647560292E+03  0.25992434558E+03  0.12500474179E+03 0.  0.
    9000005    1    3    3    0    0  0.47520300810E+02  0.39871804414E+02  0.60769358924E+02  0.86843852749E+02  0.10000000000E+01 0.  0.
    9000005    1    3    3    0    0 -0.47819877102E+02 -0.14510584173E+02  0.16570624400E+03  0.17308049283E+03  0.10000000000E+01 0.  0.
         21    1    1    2  502  501  0.29957629183E+00 -0.25361220241E+02  0.69599070199E+02  0.74076391722E+02  0.00000000000E+00 0.  1.
<mgrwt>
<rscale>  1 0.12755182E+03</rscale>
<asrwt>0</asrwt>
<pdfrwt beam="1">  1        4 0.48467340E-01 0.12755182E+03</pdfrwt>
<pdfrwt beam="2">  1       -4 0.29173895E-02 0.12755182E+03</pdfrwt>
<totfact> 0.37632254E+03</totfact>
</mgrwt>
</event>
<event>
 6    4  0.1195577E-003  0.1269684E+03  0.7818608E-02  0.1232025E+00
          4   -1    0    0  502    0  0.00000000000E+00  0.00000000000E+00  0.46518809549E+01  0.48221257158E+01  0.12700000000E+01 0. -1.
         -4   -1    0    0    0  501 -0.00000000000E+00 -0.00000000000E+00 -0.18329137947E+04  0.18329142347E+04  0.12700000000E+01 0. -1.
         25    2    1    2    0    0  0.51673382192E+01 -0.21637395432E+02 -0.17807897715E+04  0.17853103883E+04  0.12500437543E+03 0.  0.
    9000005    1    3    3    0    0  0.61276465160E+02  0.36470658651E+01 -0.66636323651E+03  0.66918537733E+03  0.10000000000E+01 0.  0.
    9000005    1    3    3    0    0 -0.56109126941E+02 -0.25284461297E+02 -0.11144265350E+04  0.11161250109E+04  0.10000000000E+01 0.  0.
         21    1    1    2  502  501 -0.51673382192E+01  0.21637395432E+02 -0.47472142227E+02  0.52425972122E+02  0.00000000000E+00 0.  1.
<mgrwt>
<rscale>  1 0.12696839E+03</rscale>
<asrwt>0</asrwt>
<pdfrwt beam="1">  1        4 0.72880505E-03 0.12696839E+03</pdfrwt>
<pdfrwt beam="2">  1       -4 0.28199930E+00 0.12696839E+03</pdfrwt>
<totfact> 0.37529881E+02</totfact>
</mgrwt>
</event>
<event>
 6    4  0.1195577E-003  0.1319065E+03  0.7818608E-02  0.1224654E+00
          4   -1    0    0  502    0  0.00000000000E+00  0.00000000000E+00  0.16428586020E+02  0.16477601119E+02  0.12700000000E+01 0. -1.
         -4   -1    0    0    0  501 -0.00000000000E+00 -0.00000000000E+00 -0.51627701023E+03  0.51627857227E+03  0.12700000000E+01 0. -1.
         25    2    1    2    0    0 -0.18975456430E+02 -0.37607070014E+02 -0.44155392093E+03  0.46083532263E+03  0.12499987934E+03 0.  0.
    9000005    1    3    3    0    0 -0.61606006320E+02  0.83949930666E+01 -0.29396533353E+03  0.30047028679E+03  0.10000000000E+01 0.  0.
    9000005    1    3    3    0    0  0.42630549890E+02 -0.46002063081E+02 -0.14758858739E+03  0.16036503584E+03  0.10000000000E+01 0.  0.
         21    1    1    2  502  501  0.18975456430E+02  0.37607070014E+02 -0.58294503281E+02  0.71920850764E+02  0.00000000000E+00 0. -1.
<mgrwt>
<rscale>  1 0.13190652E+03</rscale>
<asrwt>0</asrwt>
<pdfrwt beam="1">  1        4 0.25313657E-02 0.13190652E+03</pdfrwt>
<pdfrwt beam="2">  1       -4 0.79431111E-01 0.13190652E+03</pdfrwt>
<totfact> 0.16671515E+03</totfact>
</mgrwt>
</event>
<event>
 6    4  0.1195577E-003  0.1281551E+03  0.7818608E-02  0.1230219E+00
          4   -1    0    0  502    0  0.00000000000E+00  0.00000000000E+00  0.43655597918E+02  0.43674067014E+02  0.12700000000E+01 0. -1.
         -4   -1    0    0    0  501 -0.00000000000E+00 -0.00000000000E+00 -0.17311308240E+03  0.17311774085E+03  0.12700000000E+01 0. -1.
         25    2    1    2    0    0  0.18099962983E+02 -0.21674381280E+02 -0.13696614445E+03  0.18757250879E+03  0.12500533535E+03 0.  0.
    9000005    1    3    3    0    0 -0.39648383394E+02 -0.49987740539E+02 -0.66506450501E+02  0.92167654132E+02  0.10000000000E+01 0.  0.
    9000005    1    3    3    0    0  0.57748346377E+02  0.28313359259E+02 -0.70459693948E+02  0.95404854662E+02  0.10000000000E+01 0.  0.
         21    1    1    2  502  501 -0.18099962983E+02  0.21674381280E+02  0.75086599672E+01  0.29219299074E+02  0.00000000000E+00 0. -1.
<mgrwt>
<rscale>  1 0.12815507E+03</rscale>
<asrwt>0</asrwt>
<pdfrwt beam="1">  1        4 0.67180250E-02 0.12815507E+03</pdfrwt>
<pdfrwt beam="2">  1       -4 0.26634561E-01 0.12815507E+03</pdfrwt>
<totfact> 0.31731437E+03</totfact>
</mgrwt>
</event>
<event>
 6    4  0.1195577E-003  0.1359512E+03  0.7818608E-02  0.1218883E+00
          4   -1    0    0  502    0  0.00000000000E+00  0.00000000000E+00  0.19670928787E+04  0.19670932886E+04  0.12700000000E+01 0. -1.
         -4   -1    0    0    0  501 -0.00000000000E+00 -0.00000000000E+00 -0.60278918460E+01  0.61602256539E+01  0.12700000000E+01 0. -1.
         25    2    1    2    0    0  0.18517670582E+02 -0.50145197640E+02  0.84134287344E+03  0.85225616542E+03  0.12500118338E+03 0.  0.
    9000005    1    3    3    0    0 -0.29509844682E+02 -0.39556220791E+02  0.71458851950E+03  0.71629133580E+03  0.10000000000E+01 0.  0.
    9000005    1    3    3    0    0  0.48027515264E+02 -0.10588976849E+02  0.12675435394E+03  0.13596482963E+03  0.10000000000E+01 0.  0.
         21    1    1    2  502  501 -0.18517670582E+02  0.50145197640E+02  0.11197221134E+04  0.11209973489E+04  0.00000000000E+00 0.  1.
<mgrwt>
<rscale>  1 0.13595124E+03</rscale>
<asrwt>0</asrwt>
<pdfrwt beam="1">  1        4 0.30264012E+00 0.13595124E+03</pdfrwt>
<pdfrwt beam="2">  1       -4 0.93757831E-03 0.13595124E+03</pdfrwt>
<totfact> 0.19766582E+02</totfact>
</mgrwt>
</event>
<event>
 6    4  0.1195577E-003  0.1278624E+03  0.7818608E-02  0.1230663E+00
          4   -1    0    0  502    0  0.00000000000E+00  0.00000000000E+00  0.48978316207E+03  0.48978480861E+03  0.12700000000E+01 0.  1.
         -4   -1    0    0    0  501 -0.00000000000E+00 -0.00000000000E+00 -0.13878962084E+02  0.13936946887E+02  0.12700000000E+01 0.  1.
         25    2    1    2    0    0 -0.15944350285E+02 -0.21682500646E+02  0.30508726289E+03  0.33079755494E+03  0.12499772493E+03 0.  0.
    9000005    1    3    3    0    0 -0.13905104920E+02 -0.53854736083E+02  0.28982637135E+03  0.29511694304E+03  0.10000000000E+01 0.  0.
    9000005    1    3    3    0    0 -0.20392453648E+01  0.32172235437E+02  0.15260891538E+02  0.35680611895E+02  0.10000000000E+01 0.  0.
         21    1    1    2  502  501  0.15944350285E+02  0.21682500646E+02  0.17081693710E+03  0.17292420056E+03  0.00000000000E+00 0.  1.
<mgrwt>
<rscale>  1 0.12786236E+03</rscale>
<asrwt>0</asrwt>
<pdfrwt beam="1">  1        4 0.75355837E-01 0.12786236E+03</pdfrwt>
<pdfrwt beam="2">  1       -4 0.21398121E-02 0.12786236E+03</pdfrwt>
<totfact> 0.24102028E+03</totfact>
</mgrwt>
</event>
<event>
 6    4  0.1195577E-003  0.1266986E+03  0.7818608E-02  0.1232438E+00
          4   -1    0    0  502    0  0.00000000000E+00  0.00000000000E+00  0.16984702986E+03  0.16985177789E+03  0.12700000000E+01 0. -1.
         -4   -1    0    0    0  501 -0.00000000000E+00 -0.00000000000E+00 -0.47835211543E+02  0.47852067493E+02  0.12700000000E+01 0. -1.
         25    2    1    2    0    0  0.66564554034E+01  0.19593147229E+02  0.39613633815E+02  0.13274702914E+03  0.12499733575E+03 0.  0.
    9000005    1    3    3    0    0 -0.38756896391E+02 -0.11095205202E+02 -0.25436629933E+02  0.47678325670E+02  0.10000000000E+01 0.  0.
    9000005    1    3    3    0    0  0.45413351795E+02  0.30688352432E+02  0.65050263748E+02  0.85068703469E+02  0.10000000000E+01 0.  0.
         21    1    1    2  502  501 -0.66564554034E+01 -0.19593147229E+02  0.82398184502E+02  0.84956816242E+02  0.00000000000E+00 0. -1.
<mgrwt>
<rscale>  1 0.12669859E+03</rscale>
<asrwt>0</asrwt>
<pdfrwt beam="1">  1        4 0.26131974E-01 0.12669859E+03</pdfrwt>
<pdfrwt beam="2">  1       -4 0.73609251E-02 0.12669859E+03</pdfrwt>
<totfact> 0.28220034E+03</totfact>
</mgrwt>
</event>
<event>
 6    4  0.1195577E-003  0.1267858E+03  0.7818608E-02  0.1232305E+00
         -4   -1    0    0    0  501 -0.00000000000E+00  0.00000000000E+00  0.93004588691E+02  0.93013259364E+02  0.12700000000E+01 0. -1.
          4   -1    0    0  502    0  0.00000000000E+00 -0.00000000000E+00 -0.59068484204E+02  0.59082135423E+02  0.12700000000E+01 0. -1.
         25    2    1    2    0    0 -0.20748054811E+02  0.45295010642E+01  0.32056932621E+02  0.13077569861E+03  0.12499455292E+03 0.  0.
    9000005    1    3    3    0    0 -0.40955727573E+02 -0.21937974408E+02  0.67617617117E+02  0.82047477029E+02  0.10000000000E+01 0.  0.
    9000005    1    3    3    0    0  0.20207672762E+02  0.26467475472E+02 -0.35560684496E+02  0.48728221578E+02  0.10000000000E+01 0.  0.
         21    1    1    2  502  501  0.20748054811E+02 -0.45295010642E+01  0.18791718655E+01  0.21319696180E+02  0.00000000000E+00 0. -1.
<mgrwt>
<rscale>  1 0.12678579E+03</rscale>
<asrwt>0</asrwt>
<pdfrwt beam="2">  1        4 0.90891763E-02 0.12678579E+03</pdfrwt>
<pdfrwt beam="1">  1       -4 0.14310115E-01 0.12678579E+03</pdfrwt>
<totfact> 0.58523793E+03</totfact>
</mgrwt>
</event>
<event>
 6    4  0.1195577E-003  0.1334542E+03  0.7818608E-02  0.1222419E+00
          4   -1    0    0  502    0  0.00000000000E+00  0.00000000000E+00  0.71479252795E+02  0.71490534200E+02  0.12700000000E+01 0.  1.
         -4   -1    0    0    0  501 -0.00000000000E+00 -0.00000000000E+00 -0.11362826133E+03  0.11363535838E+03  0.12700000000E+01 0.  1.
         25    2    1    2    0    0  0.45392818218E+02 -0.11210604774E+02 -0.29239296147E+02  0.13661974576E+03  0.12499533146E+03 0.  0.
    9000005    1    3    3    0    0 -0.29925951925E+02  0.21122101588E+02  0.19238455953E+02  0.41386277454E+02  0.10000000000E+01 0.  0.
    9000005    1    3    3    0    0  0.75318770143E+02 -0.32332706361E+02 -0.48477752100E+02  0.95233468304E+02  0.10000000000E+01 0.  0.
         21    1    1    2  502  501 -0.45392818218E+02  0.11210604774E+02 -0.12909712391E+02  0.48506146819E+02  0.00000000000E+00 0.  1.
<mgrwt>
<rscale>  1 0.13345418E+03</rscale>
<asrwt>0</asrwt>
<pdfrwt beam="1">  1        4 0.10998222E-01 0.13345418E+03</pdfrwt>
<pdfrwt beam="2">  1       -4 0.17482685E-01 0.13345418E+03</pdfrwt>
<totfact> 0.30263849E+03</totfact>
</mgrwt>
</event>
<event>
 6    4  0.1195577E-003  0.1367422E+03  0.7818608E-02  0.1217781E+00
          4   -1    0    0  502    0  0.00000000000E+00  0.00000000000E+00  0.58798233606E+03  0.58798370762E+03  0.12700000000E+01 0.  1.
         -4   -1    0    0    0  501 -0.00000000000E+00 -0.00000000000E+00 -0.15947022303E+02  0.15997512943E+02  0.12700000000E+01 0.  1.
         25    2    1    2    0    0  0.11520021237E+02  0.54231783255E+02  0.36935119327E+03  0.39385114203E+03  0.12499848360E+03 0.  0.
    9000005    1    3    3    0    0  0.12989245256E+02  0.81936426022E+01 -0.53761599133E+01  0.16302127678E+02  0.10000000000E+01 0.  0.
    9000005    1    3    3    0    0 -0.14692240186E+01  0.46038140653E+02  0.37472735318E+03  0.37754901435E+03  0.10000000000E+01 0.  0.
         21    1    1    2  502  501 -0.11520021237E+02 -0.54231783255E+02  0.20268412049E+03  0.21013007853E+03  0.00000000000E+00 0.  1.
<mgrwt>
<rscale>  1 0.13674216E+03</rscale>
<asrwt>0</asrwt>
<pdfrwt beam="1">  1        4 0.90462813E-01 0.13674216E+03</pdfrwt>
<pdfrwt beam="2">  1       -4 0.24573774E-02 0.13674216E+03</pdfrwt>
<totfact> 0.13157779E+03</totfact>
</mgrwt>
</event>
<event>
 6    4  0.1195577E-003  0.1434548E+03  0.7818608E-02  0.1208754E+00
         -4   -1    0    0    0  501 -0.00000000000E+00  0.00000000000E+00  0.32763066852E+03  0.32763312997E+03  0.12700000000E+01 0. -1.
          4   -1    0    0  502    0  0.00000000000E+00 -0.00000000000E+00 -0.39090264886E+02  0.39110889901E+02  0.12700000000E+01 0. -1.
         25    2    1    2    0    0  0.34835637446E+02 -0.61158713727E+02  0.24521402786E+03  0.28409364335E+03  0.12500147532E+03 0.  0.
    9000005    1    3    3    0    0  0.73770843636E+01 -0.94868816415E+02  0.19929777806E+03  0.22085089550E+03  0.10000000000E+01 0.  0.
    9000005    1    3    3    0    0  0.27458553082E+02  0.33710102688E+02  0.45916249794E+02  0.63242747851E+02  0.10000000000E+01 0.  0.
         21    1    1    2  502  501 -0.34835637446E+02  0.61158713727E+02  0.43326375774E+02  0.82650376519E+02  0.00000000000E+00 0. -1.
<mgrwt>
<rscale>  1 0.14345480E+03</rscale>
<asrwt>0</asrwt>
<pdfrwt beam="2">  1        4 0.60156626E-02 0.14345480E+03</pdfrwt>
<pdfrwt beam="1">  1       -4 0.50406495E-01 0.14345480E+03</pdfrwt>
<totfact> 0.11264472E+03</totfact>
</mgrwt>
</event>
<event>
 6    4  0.1195577E-003  0.2029096E+03  0.7818608E-02  0.1147307E+00
          4   -1    0    0  502    0  0.00000000000E+00  0.00000000000E+00  0.22957192564E+03  0.22957543846E+03  0.12700000000E+01 0. -1.
         -4   -1    0    0    0  501 -0.00000000000E+00 -0.00000000000E+00 -0.15682589426E+03  0.15683103650E+03  0.12700000000E+01 0. -1.
         25    2    1    2    0    0 -0.70353680973E+02 -0.14351519287E+03 -0.16088349777E+02  0.20354642386E+03  0.12500424255E+03 0.  0.
    9000005    1    3    3    0    0 -0.85590326680E+02 -0.84530064274E+02  0.33623330168E+02  0.12491022424E+03  0.10000000000E+01 0.  0.
    9000005    1    3    3    0    0  0.15236645707E+02 -0.58985128596E+02 -0.49711679945E+02  0.78636199621E+02  0.10000000000E+01 0.  0.
         21    1    1    2  502  501  0.70353680973E+02  0.14351519287E+03  0.88834381162E+02  0.18286005110E+03  0.00000000000E+00 0. -1.
<mgrwt>
<rscale>  1 0.20290961E+03</rscale>
<asrwt>0</asrwt>
<pdfrwt beam="1">  1        4 0.35319423E-01 0.20290961E+03</pdfrwt>
<pdfrwt beam="2">  1       -4 0.24127726E-01 0.20290961E+03</pdfrwt>
<totfact> 0.22142722E+02</totfact>
</mgrwt>
</event>
<event>
 6    4  0.1195577E-003  0.1353040E+03  0.7818608E-02  0.1219791E+00
         -4   -1    0    0    0  501 -0.00000000000E+00  0.00000000000E+00  0.33067710527E+03  0.33067954404E+03  0.12700000000E+01 0. -1.
          4   -1    0    0  502    0  0.00000000000E+00 -0.00000000000E+00 -0.33402550444E+02  0.33426685091E+02  0.12700000000E+01 0. -1.
         25    2    1    2    0    0  0.35340410681E+02  0.37880358419E+02  0.27736272879E+03  0.30860535529E+03  0.12499326307E+03 0.  0.
    9000005    1    3    3    0    0 -0.15070814537E+02 -0.26711893766E+02  0.15814937906E+02  0.34521978222E+02  0.10000000000E+01 0.  0.
    9000005    1    3    3    0    0  0.50411225218E+02  0.64592252185E+02  0.26154779088E+03  0.27408337707E+03  0.10000000000E+01 0.  0.
         21    1    1    2  502  501 -0.35340410681E+02 -0.37880358419E+02  0.19911826034E+02  0.55500873841E+02  0.00000000000E+00 0. -1.
<mgrwt>
<rscale>  1 0.13530404E+03</rscale>
<asrwt>0</asrwt>
<pdfrwt beam="2">  1        4 0.51408981E-02 0.13530404E+03</pdfrwt>
<pdfrwt beam="1">  1       -4 0.50875444E-01 0.13530404E+03</pdfrwt>
<totfact> 0.14080701E+03</totfact>
</mgrwt>
</event>
<event>
 6    4  0.1195577E-003  0.1268037E+03  0.7818608E-02  0.1232277E+00
          4   -1    0    0  502    0  0.00000000000E+00  0.00000000000E+00  0.49577541173E+02  0.49593804943E+02  0.12700000000E+01 0.  1.
         -4   -1    0    0    0  501 -0.00000000000E+00 -0.00000000000E+00 -0.16565795555E+03  0.16566282364E+03  0.12700000000E+01 0.  1.
         25    2    1    2    0    0  0.18115715163E+02  0.11246299676E+02 -0.13609399501E+03  0.18601279502E+03  0.12499810415E+03 0.  0.
    9000005    1    3    3    0    0  0.13489830705E+02  0.14532330261E+02 -0.16009936189E+03  0.16132566390E+03  0.10000000000E+01 0.  0.
    9000005    1    3    3    0    0  0.46258844572E+01 -0.32860305850E+01  0.24005366881E+02  0.24687131123E+02  0.10000000000E+01 0.  0.
         21    1    1    2  502  501 -0.18115715163E+02 -0.11246299676E+02  0.20013580626E+02  0.29243833568E+02  0.00000000000E+00 0.  1.
<mgrwt>
<rscale>  1 0.12680372E+03</rscale>
<asrwt>0</asrwt>
<pdfrwt beam="1">  1        4 0.76289396E-02 0.12680372E+03</pdfrwt>
<pdfrwt beam="2">  1       -4 0.25487465E-01 0.12680372E+03</pdfrwt>
<totfact> 0.27870114E+03</totfact>
</mgrwt>
</event>
<event>
 6    4  0.1195577E-003  0.1268484E+03  0.7818608E-02  0.1232208E+00
         -4   -1    0    0    0  501 -0.00000000000E+00  0.00000000000E+00  0.97961562577E+01  0.98781363336E+01  0.12700000000E+01 0. -1.
          4   -1    0    0  502    0  0.00000000000E+00 -0.00000000000E+00 -0.56530201676E+03  0.56530344334E+03  0.12700000000E+01 0. -1.
         25    2    1    2    0    0 -0.11696261672E+02  0.18425798567E+02 -0.48909177829E+03  0.50527347638E+03  0.12495681555E+03 0.  0.
    9000005    1    3    3    0    0  0.46534272005E+02 -0.19296715157E+02 -0.12771016876E+03  0.13729052732E+03  0.10000000000E+01 0.  0.
    9000005    1    3    3    0    0 -0.58230533677E+02  0.37722513723E+02 -0.36138160953E+03  0.36798294906E+03  0.10000000000E+01 0.  0.
         21    1    1    2  502  501  0.11696261672E+02 -0.18425798567E+02 -0.66414082211E+02  0.69908103292E+02  0.00000000000E+00 0. -1.
<mgrwt>
<rscale>  1 0.12684841E+03</rscale>
<asrwt>0</asrwt>
<pdfrwt beam="2">  1        4 0.86975932E-01 0.12684841E+03</pdfrwt>
<pdfrwt beam="1">  1       -4 0.15135173E-02 0.12684841E+03</pdfrwt>
<totfact> 0.29779802E+03</totfact>
</mgrwt>
</event>
<event>
 6    4  0.1195577E-003  0.1269605E+03  0.7818608E-02  0.1232037E+00
         -4   -1    0    0    0  501 -0.00000000000E+00  0.00000000000E+00  0.22828179868E+02  0.22863479527E+02  0.12700000000E+01 0.  1.
          4   -1    0    0  502    0  0.00000000000E+00 -0.00000000000E+00 -0.25321471179E+03  0.25321789661E+03  0.12700000000E+01 0.  1.
         25    2    1    2    0    0  0.18258465132E+02  0.12669423845E+02 -0.21256722368E+03  0.24759605368E+03  0.12500038146E+03 0.  0.
    9000005    1    3    3    0    0 -0.37972273040E+01  0.49464409253E+02 -0.25729664201E+02  0.55894206658E+02  0.10000000000E+01 0.  0.
    9000005    1    3    3    0    0  0.22055692436E+02 -0.36794985409E+02 -0.18683755948E+03  0.19170184702E+03  0.10000000000E+01 0.  0.
         21    1    1    2  502  501 -0.18258465132E+02 -0.12669423845E+02 -0.17819308242E+02  0.28485322462E+02  0.00000000000E+00 0.  1.
<mgrwt>
<rscale>  1 0.12696055E+03</rscale>
<asrwt>0</asrwt>
<pdfrwt beam="2">  1        4 0.38959068E-01 0.12696055E+03</pdfrwt>
<pdfrwt beam="1">  1       -4 0.35149882E-02 0.12696055E+03</pdfrwt>
<totfact> 0.43332594E+03</totfact>
</mgrwt>
</event>
<event>
 6    4  0.1195577E-003  0.1337316E+03  0.7818608E-02  0.1222021E+00
         -4   -1    0    0    0  501 -0.00000000000E+00  0.00000000000E+00  0.82797837347E+03  0.82797934747E+03  0.12700000000E+01 0.  1.
          4   -1    0    0  502    0  0.00000000000E+00 -0.00000000000E+00 -0.37536379247E+02  0.37557857593E+02  0.12700000000E+01 0.  1.
         25    2    1    2    0    0  0.46890300289E+02 -0.77491595561E+01  0.80484244339E+03  0.81587713387E+03  0.12500155662E+03 0.  0.
    9000005    1    3    3    0    0  0.81131414221E+02 -0.10129724388E+01  0.33295878905E+03  0.34270379002E+03  0.10000000000E+01 0.  0.
    9000005    1    3    3    0    0 -0.34241113932E+02 -0.67361871172E+01  0.47188365433E+03  0.47317334385E+03  0.10000000000E+01 0.  0.
         21    1    1    2  502  501 -0.46890300289E+02  0.77491595561E+01 -0.14400449162E+02  0.49660071195E+02  0.00000000000E+00 0.  1.
<mgrwt>
<rscale>  1 0.13373159E+03</rscale>
<asrwt>0</asrwt>
<pdfrwt beam="2">  1        4 0.57765554E-02 0.13373159E+03</pdfrwt>
<pdfrwt beam="1">  1       -4 0.12738300E+00 0.13373159E+03</pdfrwt>
<totfact> 0.15147078E+02</totfact>
</mgrwt>
</event>
<event>
 6    4  0.1195577E-003  0.1269765E+03  0.7818608E-02  0.1232012E+00
          4   -1    0    0  502    0  0.00000000000E+00  0.00000000000E+00  0.27477672127E+02  0.27507005753E+02  0.12700000000E+01 0. -1.
         -4   -1    0    0    0  501 -0.00000000000E+00 -0.00000000000E+00 -0.20781513368E+03  0.20781901425E+03  0.12700000000E+01 0. -1.
         25    2    1    2    0    0 -0.83236690433E+00 -0.22316888235E+02 -0.16514101700E+03  0.20831364761E+03  0.12499713578E+03 0.  0.
    9000005    1    3    3    0    0 -0.58269750275E+01  0.20443182899E+02 -0.16385592360E+03  0.16523208243E+03  0.10000000000E+01 0.  0.
    9000005    1    3    3    0    0  0.49946081232E+01 -0.42760071133E+02 -0.12850933935E+01  0.43081565183E+02  0.10000000000E+01 0.  0.
         21    1    1    2  502  501  0.83236690433E+00  0.22316888235E+02 -0.15196444554E+02  0.27012372391E+02  0.00000000000E+00 0. -1.
<mgrwt>
<rscale>  1 0.12697646E+03</rscale>
<asrwt>0</asrwt>
<pdfrwt beam="1">  1        4 0.42298893E-02 0.12697646E+03</pdfrwt>
<pdfrwt beam="2">  1       -4 0.31974113E-01 0.12697646E+03</pdfrwt>
<totfact> 0.47329762E+03</totfact>
</mgrwt>
</event>
<event>
 6    4  0.1195577E-003  0.1494091E+03  0.7818608E-02  0.1201201E+00
          4   -1    0    0  502    0  0.00000000000E+00  0.00000000000E+00  0.13208411305E+03  0.13209021849E+03  0.12700000000E+01 0. -1.
         -4   -1    0    0    0  501 -0.00000000000E+00 -0.00000000000E+00 -0.12097447249E+03  0.12098113859E+03  0.12700000000E+01 0. -1.
         25    2    1    2    0    0 -0.81961436613E+01 -0.81429975358E+02 -0.42376318471E+02  0.15530241788E+03  0.12500028389E+03 0.  0.
    9000005    1    3    3    0    0 -0.14089556009E+02 -0.49647272381E+02 -0.86419376074E+02  0.10066119314E+03  0.10000000000E+01 0.  0.
    9000005    1    3    3    0    0  0.58934123481E+01 -0.31782702977E+02  0.44043057603E+02  0.54641224736E+02  0.10000000000E+01 0.  0.
         21    1    1    2  502  501  0.81961436613E+01  0.81429975358E+02  0.53485959032E+02  0.97768939195E+02  0.00000000000E+00 0. -1.
<mgrwt>
<rscale>  1 0.14940913E+03</rscale>
<asrwt>0</asrwt>
<pdfrwt beam="1">  1        4 0.20321615E-01 0.14940913E+03</pdfrwt>
<pdfrwt beam="2">  1       -4 0.18612440E-01 0.14940913E+03</pdfrwt>
<totfact> 0.94821376E+02</totfact>
</mgrwt>
</event>
<event>
 6    4  0.1195577E-003  0.1288754E+03  0.7818608E-02  0.1229134E+00
          4   -1    0    0  502    0  0.00000000000E+00  0.00000000000E+00  0.72772243198E+03  0.72772354016E+03  0.12700000000E+01 0.  1.
         -4   -1    0    0    0  501 -0.00000000000E+00 -0.00000000000E+00 -0.88788295183E+01  0.89691980475E+01  0.12700000000E+01 0.  1.
         25    2    1    2    0    0 -0.26225479095E+02  0.17188045191E+02  0.54376909830E+03  0.55883243725E+03  0.12500262398E+03 0.  0.
    9000005    1    3    3    0    0  0.23894025746E+02 -0.41877644737E+02  0.15163437689E+03  0.15911833914E+03  0.10000000000E+01 0.  0.
    9000005    1    3    3    0    0 -0.50119504841E+02  0.59065689927E+02  0.39213472141E+03  0.39971409811E+03  0.10000000000E+01 0.  0.
         21    1    1    2  502  501  0.26225479095E+02 -0.17188045191E+02  0.17507450416E+03  0.17786030097E+03  0.00000000000E+00 0.  1.
<mgrwt>
<rscale>  1 0.12887537E+03</rscale>
<asrwt>0</asrwt>
<pdfrwt beam="1">  1        4 0.11196434E+00 0.12887537E+03</pdfrwt>
<pdfrwt beam="2">  1       -4 0.13730104E-02 0.12887537E+03</pdfrwt>
<totfact> 0.19381630E+03</totfact>
</mgrwt>
</event>
<event>
 6    4  0.1195577E-003  0.1301457E+03  0.7818608E-02  0.1227240E+00
          4   -1    0    0  502    0  0.00000000000E+00  0.00000000000E+00  0.41846531189E+02  0.41865798363E+02  0.12700000000E+01 0. -1.
         -4   -1    0    0    0  501 -0.00000000000E+00 -0.00000000000E+00 -0.18534336502E+03  0.18534771608E+03  0.12700000000E+01 0. -1.
         25    2    1    2    0    0 -0.21363372473E+02  0.29262239916E+02 -0.13946766986E+03  0.19075934417E+03  0.12500089633E+03 0.  0.
    9000005    1    3    3    0    0  0.12970591780E+02  0.72588483273E+02 -0.67229236020E+02  0.99790251682E+02  0.10000000000E+01 0.  0.
    9000005    1    3    3    0    0 -0.34333964253E+02 -0.43326243357E+02 -0.72238433836E+02  0.90969092487E+02  0.10000000000E+01 0.  0.
         21    1    1    2  502  501  0.21363372473E+02 -0.29262239916E+02 -0.40291639766E+01  0.36454170278E+02  0.00000000000E+00 0.  1.
<mgrwt>
<rscale>  1 0.13014567E+03</rscale>
<asrwt>0</asrwt>
<pdfrwt beam="1">  1        4 0.64397448E-02 0.13014567E+03</pdfrwt>
<pdfrwt beam="2">  1       -4 0.28516180E-01 0.13014567E+03</pdfrwt>
<totfact> 0.30044243E+03</totfact>
</mgrwt>
</event>
<event>
 6    4  0.1195577E-003  0.1279368E+03  0.7818608E-02  0.1230550E+00
          4   -1    0    0  502    0  0.00000000000E+00  0.00000000000E+00  0.90103877243E+02  0.90112827024E+02  0.12700000000E+01 0. -1.
         -4   -1    0    0    0  501 -0.00000000000E+00 -0.00000000000E+00 -0.73072180771E+02  0.73083216286E+02  0.12700000000E+01 0. -1.
         25    2    1    2    0    0  0.27207635587E+02 -0.17138162391E+01 -0.51647927289E+01  0.12804100479E+03  0.12499852489E+03 0.  0.
    9000005    1    3    3    0    0  0.24418926500E+02 -0.44175630319E+02 -0.46551889336E+02  0.68672037149E+02  0.10000000000E+01 0.  0.
    9000005    1    3    3    0    0  0.27887090873E+01  0.42461814080E+02  0.41387096607E+02  0.59368967642E+02  0.10000000000E+01 0.  0.
         21    1    1    2  502  501 -0.27207635587E+02  0.17138162391E+01  0.22196489201E+02  0.35155038518E+02  0.00000000000E+00 0.  1.
<mgrwt>
<rscale>  1 0.12793680E+03</rscale>
<asrwt>0</asrwt>
<pdfrwt beam="1">  1        4 0.13863672E-01 0.12793680E+03</pdfrwt>
<pdfrwt beam="2">  1       -4 0.11243411E-01 0.12793680E+03</pdfrwt>
<totfact> 0.43311413E+03</totfact>
</mgrwt>
</event>
<event>
 6    4  0.1195577E-003  0.1288314E+03  0.7818608E-02  0.1229200E+00
          4   -1    0    0  502    0  0.00000000000E+00  0.00000000000E+00  0.32943751525E+02  0.32968222041E+02  0.12700000000E+01 0. -1.
         -4   -1    0    0    0  501 -0.00000000000E+00 -0.00000000000E+00 -0.24185134559E+03  0.24185468005E+03  0.12700000000E+01 0. -1.
         25    2    1    2    0    0  0.11902924539E+02 -0.28828466755E+02 -0.20669209914E+03  0.24355521069E+03  0.12499902678E+03 0.  0.
    9000005    1    3    3    0    0 -0.90043264206E+00 -0.16003540168E+02 -0.22029138768E+03  0.22087602759E+03  0.10000000000E+01 0.  0.
    9000005    1    3    3    0    0  0.12803357181E+02 -0.12824926587E+02  0.13599288542E+02  0.22679183096E+02  0.10000000000E+01 0.  0.
         21    1    1    2  502  501 -0.11902924539E+02  0.28828466755E+02 -0.22154949201E+01  0.31267691404E+02  0.00000000000E+00 0. -1.
<mgrwt>
<rscale>  1 0.12883135E+03</rscale>
<asrwt>0</asrwt>
<pdfrwt beam="1">  1        4 0.50704085E-02 0.12883135E+03</pdfrwt>
<pdfrwt beam="2">  1       -4 0.37210037E-01 0.12883135E+03</pdfrwt>
<totfact> 0.26552942E+03</totfact>
</mgrwt>
</event>
<event>
 6    4  0.1195577E-003  0.1283510E+03  0.7818608E-02  0.1229923E+00
          4   -1    0    0  502    0  0.00000000000E+00  0.00000000000E+00  0.25717036380E+02  0.25748375874E+02  0.12700000000E+01 0. -1.
         -4   -1    0    0    0  501 -0.00000000000E+00 -0.00000000000E+00 -0.24099783119E+03  0.24100117746E+03  0.12700000000E+01 0. -1.
         25    2    1    2    0    0  0.15319196509E+02  0.24783453808E+02 -0.17722082167E+03  0.21881773802E+03  0.12500034189E+03 0.  0.
    9000005    1    3    3    0    0 -0.52079506093E+02  0.28884035706E+02 -0.67906190811E+02  0.90326149171E+02  0.10000000000E+01 0.  0.
    9000005    1    3    3    0    0  0.67398702602E+02 -0.41005818974E+01 -0.10931463086E+03  0.12849158885E+03  0.10000000000E+01 0.  0.
         21    1    1    2  502  501 -0.15319196509E+02 -0.24783453808E+02 -0.38059973135E+02  0.47931815315E+02  0.00000000000E+00 0.  1.
<mgrwt>
<rscale>  1 0.12835101E+03</rscale>
<asrwt>0</asrwt>
<pdfrwt beam="1">  1        4 0.39591354E-02 0.12835101E+03</pdfrwt>
<pdfrwt beam="2">  1       -4 0.37079256E-01 0.12835101E+03</pdfrwt>
<totfact> 0.39645503E+03</totfact>
</mgrwt>
</event>
<event>
 6    4  0.1195577E-003  0.1340396E+03  0.7818608E-02  0.1221582E+00
         -4   -1    0    0    0  501 -0.00000000000E+00  0.00000000000E+00  0.19599295264E+02  0.19640399050E+02  0.12700000000E+01 0. -1.
          4   -1    0    0  502    0  0.00000000000E+00 -0.00000000000E+00 -0.64027374605E+03  0.64027500558E+03  0.12700000000E+01 0. -1.
         25    2    1    2    0    0  0.47848370058E+02  0.72281121201E+01 -0.22963057124E+03  0.26588872045E+03  0.12499960117E+03 0.  0.
    9000005    1    3    3    0    0 -0.36062369710E+02  0.10223754416E+02 -0.13146890978E+03  0.13671171824E+03  0.10000000000E+01 0.  0.
    9000005    1    3    3    0    0  0.83910739768E+02 -0.29956422956E+01 -0.98161661456E+02  0.12917700221E+03  0.10000000000E+01 0.  0.
         21    1    1    2  502  501 -0.47848370058E+02 -0.72281121201E+01 -0.39104387954E+03  0.39402668419E+03  0.00000000000E+00 0. -1.
<mgrwt>
<rscale>  1 0.13403959E+03</rscale>
<asrwt>0</asrwt>
<pdfrwt beam="2">  1        4 0.98506896E-01 0.13403959E+03</pdfrwt>
<pdfrwt beam="1">  1       -4 0.30185354E-02 0.13403959E+03</pdfrwt>
<totfact> 0.78285283E+02</totfact>
</mgrwt>
</event>
<event>
 6    4  0.1195577E-003  0.1699963E+03  0.7818608E-02  0.1177852E+00
          4   -1    0    0  502    0  0.00000000000E+00  0.00000000000E+00  0.25846735388E+02  0.25877917811E+02  0.12700000000E+01 0. -1.
         -4   -1    0    0    0  501 -0.00000000000E+00 -0.00000000000E+00 -0.80972235461E+03  0.80972335057E+03  0.12700000000E+01 0. -1.
         25    2    1    2    0    0  0.34028157382E+02  0.11007706139E+03 -0.39527986783E+03  0.43028468478E+03  0.12499544434E+03 0.  0.
    9000005    1    3    3    0    0  0.70867352237E+02  0.50236014811E+02 -0.29712322578E+03  0.30956267556E+03  0.10000000000E+01 0.  0.
    9000005    1    3    3    0    0 -0.36839194856E+02  0.59841046581E+02 -0.98156642043E+02  0.12072200922E+03  0.10000000000E+01 0.  0.
         21    1    1    2  502  501 -0.34028157382E+02 -0.11007706139E+03 -0.38859575140E+03  0.40531658360E+03  0.00000000000E+00 0. -1.
<mgrwt>
<rscale>  1 0.16999628E+03</rscale>
<asrwt>0</asrwt>
<pdfrwt beam="1">  1        4 0.39788967E-02 0.16999628E+03</pdfrwt>
<pdfrwt beam="2">  1       -4 0.12457513E+00 0.16999628E+03</pdfrwt>
<totfact> 0.30291347E+02</totfact>
</mgrwt>
</event>
<event>
 6    4  0.1195577E-003  0.1271506E+03  0.7818608E-02  0.1231746E+00
          4   -1    0    0  502    0  0.00000000000E+00  0.00000000000E+00  0.12201007833E+03  0.12201668785E+03  0.12700000000E+01 0.  1.
         -4   -1    0    0    0  501 -0.00000000000E+00 -0.00000000000E+00 -0.99554060617E+02  0.99562160912E+02  0.12700000000E+01 0.  1.
         25    2    1    2    0    0  0.87180022474E+01  0.21591237944E+02 -0.56589654700E+02  0.13917494445E+03  0.12500036409E+03 0.  0.
    9000005    1    3    3    0    0 -0.25999659647E+00 -0.80641805243E+01  0.38401730378E+02  0.39252917112E+02  0.10000000000E+01 0.  0.
    9000005    1    3    3    0    0  0.89779988439E+01  0.29655418469E+02 -0.94991385078E+02  0.99922027336E+02  0.10000000000E+01 0.  0.
         21    1    1    2  502  501 -0.87180022474E+01 -0.21591237944E+02  0.79045672414E+02  0.82403904316E+02  0.00000000000E+00 0.  1.
<mgrwt>
<rscale>  1 0.12715060E+03</rscale>
<asrwt>0</asrwt>
<pdfrwt beam="1">  1        4 0.18771913E-01 0.12715060E+03</pdfrwt>
<pdfrwt beam="2">  1       -4 0.15317141E-01 0.12715060E+03</pdfrwt>
<totfact> 0.14910096E+03</totfact>
</mgrwt>
</event>
<event>
 6    4  0.1195577E-003  0.1284034E+03  0.7818608E-02  0.1229844E+00
         -4   -1    0    0    0  501 -0.00000000000E+00  0.00000000000E+00  0.36753367447E+03  0.36753586869E+03  0.12700000000E+01 0.  1.
          4   -1    0    0  502    0  0.00000000000E+00 -0.00000000000E+00 -0.18062943783E+02  0.18107535396E+02  0.12700000000E+01 0.  1.
         25    2    1    2    0    0  0.20898427446E+02 -0.20736438473E+02  0.31586111991E+03  0.34096287043E+03  0.12498274999E+03 0.  0.
    9000005    1    3    3    0    0  0.49510603222E+02 -0.45139447479E+02  0.28359081317E+03  0.29139941466E+03  0.10000000000E+01 0.  0.
    9000005    1    3    3    0    0 -0.28612175776E+02  0.24403009006E+02  0.32270306737E+02  0.49563455773E+02  0.10000000000E+01 0.  0.
         21    1    1    2  502  501 -0.20898427446E+02  0.20736438473E+02  0.33609610782E+02  0.44680533649E+02  0.00000000000E+00 0.  1.
<mgrwt>
<rscale>  1 0.12840340E+03</rscale>
<asrwt>0</asrwt>
<pdfrwt beam="2">  1        4 0.27825133E-02 0.12840340E+03</pdfrwt>
<pdfrwt beam="1">  1       -4 0.56547241E-01 0.12840340E+03</pdfrwt>
<totfact> 0.29585759E+03</totfact>
</mgrwt>
</event>
<event>
 6    4  0.1195577E-003  0.1368951E+03  0.7818608E-02  0.1217569E+00
          4   -1    0    0  502    0  0.00000000000E+00  0.00000000000E+00  0.28570072328E+02  0.28598285487E+02  0.12700000000E+01 0. -1.
         -4   -1    0    0    0  501 -0.00000000000E+00 -0.00000000000E+00 -0.32572370073E+03  0.32572617659E+03  0.12700000000E+01 0. -1.
         25    2    1    2    0    0  0.40660674781E+02  0.38233776961E+02 -0.21960673045E+03  0.25878057920E+03  0.12500063974E+03 0.  0.
    9000005    1    3    3    0    0 -0.41478885610E+02 -0.41900930389E+01 -0.93830058339E+02  0.10267976762E+03  0.10000000000E+01 0.  0.
    9000005    1    3    3    0    0  0.82139560391E+02  0.42423869999E+02 -0.12577667211E+03  0.15610081157E+03  0.10000000000E+01 0.  0.
         21    1    1    2  502  501 -0.40660674781E+02 -0.38233776961E+02 -0.77546897954E+02  0.95543882884E+02  0.00000000000E+00 0. -1.
<mgrwt>
<rscale>  1 0.13689511E+03</rscale>
<asrwt>0</asrwt>
<pdfrwt beam="1">  1        4 0.43977567E-02 0.13689511E+03</pdfrwt>
<pdfrwt beam="2">  1       -4 0.50113697E-01 0.13689511E+03</pdfrwt>
<totfact> 0.18698544E+03</totfact>
</mgrwt>
</event>
<event>
 6    4  0.1195577E-003  0.1275907E+03  0.7818608E-02  0.1231075E+00
         -4   -1    0    0    0  501 -0.00000000000E+00  0.00000000000E+00  0.20206438893E+03  0.20206837995E+03  0.12700000000E+01 0. -1.
          4   -1    0    0  502    0  0.00000000000E+00 -0.00000000000E+00 -0.41683545096E+02  0.41702887571E+02  0.12700000000E+01 0. -1.
         25    2    1    2    0    0 -0.16703870126E+02  0.19378337786E+02  0.17322632907E+03  0.21514355815E+03  0.12499940111E+03 0.  0.
    9000005    1    3    3    0    0  0.52504293776E+02  0.21720756193E+02  0.61870827388E+02  0.84008876889E+02  0.10000000000E+01 0.  0.
    9000005    1    3    3    0    0 -0.69208163902E+02 -0.23424184071E+01  0.11135550168E+03  0.13113468126E+03  0.10000000000E+01 0.  0.
         21    1    1    2  502  501  0.16703870126E+02 -0.19378337786E+02 -0.12845485236E+02  0.28627709365E+02  0.00000000000E+00 0. -1.
<mgrwt>
<rscale>  1 0.12759071E+03</rscale>
<asrwt>0</asrwt>
<pdfrwt beam="2">  1        4 0.64146481E-02 0.12759071E+03</pdfrwt>
<pdfrwt beam="1">  1       -4 0.31088623E-01 0.12759071E+03</pdfrwt>
<totfact> 0.25569495E+03</totfact>
</mgrwt>
</event>
<event>
 6    4  0.1195577E-003  0.1286747E+03  0.7818608E-02  0.1229436E+00
          4   -1    0    0  502    0  0.00000000000E+00  0.00000000000E+00  0.24971870219E+03  0.24972193160E+03  0.12700000000E+01 0.  1.
         -4   -1    0    0    0  501 -0.00000000000E+00 -0.00000000000E+00 -0.42926700645E+02  0.42945483211E+02  0.12700000000E+01 0.  1.
         25    2    1    2    0    0  0.19119928648E+02 -0.23803441451E+02  0.58647933429E+02  0.14140988471E+03  0.12499999960E+03 0.  0.
    9000005    1    3    3    0    0  0.20610096545E+02 -0.73134681983E+02  0.19620752464E+02  0.78482047091E+02  0.10000000000E+01 0.  0.
    9000005    1    3    3    0    0 -0.14901678965E+01  0.49331240532E+02  0.39027180965E+02  0.62927837615E+02  0.10000000000E+01 0.  0.
         21    1    1    2  502  501 -0.19119928648E+02  0.23803441451E+02  0.14814406811E+03  0.15125753010E+03  0.00000000000E+00 0.  1.
<mgrwt>
<rscale>  1 0.12867469E+03</rscale>
<asrwt>0</asrwt>
<pdfrwt beam="1">  1        4 0.38419955E-01 0.12867469E+03</pdfrwt>
<pdfrwt beam="2">  1       -4 0.66058010E-02 0.12867469E+03</pdfrwt>
<totfact> 0.16247924E+03</totfact>
</mgrwt>
</event>
<event>
 6    4  0.1195577E-003  0.1277284E+03  0.7818608E-02  0.1230866E+00
         -4   -1    0    0    0  501 -0.00000000000E+00  0.00000000000E+00  0.26427450356E+04  0.26427453408E+04  0.12700000000E+01 0. -1.
          4   -1    0    0  502    0  0.00000000000E+00 -0.00000000000E+00 -0.21441048924E+01  0.24920043719E+01  0.12700000000E+01 0. -1.
         25    2    1    2    0    0  0.17927082072E+02  0.19205719919E+02  0.23430090962E+04  0.23464880524E+04  0.12499726060E+03 0.  0.
    9000005    1    3    3    0    0  0.68122311166E+02 -0.11171716235E+02  0.12802805897E+04  0.12821407274E+04  0.10000000000E+01 0.  0.
    9000005    1    3    3    0    0 -0.50195229095E+02  0.30377436154E+02  0.10627285065E+04  0.10643473250E+04  0.10000000000E+01 0.  0.
         21    1    1    2  502  501 -0.17927082072E+02 -0.19205719919E+02  0.29759183446E+03  0.29874929270E+03  0.00000000000E+00 0. -1.
<mgrwt>
<rscale>  1 0.12772844E+03</rscale>
<asrwt>0</asrwt>
<pdfrwt beam="2">  1        4 0.35664683E-03 0.12772844E+03</pdfrwt>
<pdfrwt beam="1">  1       -4 0.40660343E+00 0.12772844E+03</pdfrwt>
<totfact> 0.18886400E+02</totfact>
</mgrwt>
</event>
<event>
 6    4  0.1195577E-003  0.1425703E+03  0.7818608E-02  0.1209912E+00
         -4   -1    0    0    0  501 -0.00000000000E+00  0.00000000000E+00  0.22360628611E+02  0.22396665195E+02  0.12700000000E+01 0.  1.
          4   -1    0    0  502    0  0.00000000000E+00 -0.00000000000E+00 -0.62805829263E+03  0.62805957666E+03  0.12700000000E+01 0.  1.
         25    2    1    2    0    0  0.34591404677E+02  0.59203874239E+02 -0.24639723137E+03  0.28467151705E+03  0.12499845196E+03 0.  0.
    9000005    1    3    3    0    0 -0.23007367980E+02  0.32571292918E+02 -0.11738117494E+02  0.41581384128E+02  0.10000000000E+01 0.  0.
    9000005    1    3    3    0    0  0.57598772657E+02  0.26632581321E+02 -0.23465911388E+03  0.24309013293E+03  0.10000000000E+01 0.  0.
         21    1    1    2  502  501 -0.34591404677E+02 -0.59203874239E+02 -0.35930043264E+03  0.36578472480E+03  0.00000000000E+00 0.  1.
<mgrwt>
<rscale>  1 0.14257025E+03</rscale>
<asrwt>0</asrwt>
<pdfrwt beam="2">  1        4 0.96627210E-01 0.14257025E+03</pdfrwt>
<pdfrwt beam="1">  1       -4 0.34429680E-02 0.14257025E+03</pdfrwt>
<totfact> 0.67351072E+02</totfact>
</mgrwt>
</event>
<event>
 6    4  0.1195577E-003  0.1284770E+03  0.7818608E-02  0.1229733E+00
         -4   -1    0    0    0  501 -0.00000000000E+00  0.00000000000E+00  0.33345256970E+03  0.33345498817E+03  0.12700000000E+01 0. -1.
          4   -1    0    0  502    0  0.00000000000E+00 -0.00000000000E+00 -0.20174765619E+02  0.20214699299E+02  0.12700000000E+01 0. -1.
         25    2    1    2    0    0 -0.27744640833E+02 -0.10593623640E+02  0.28518791047E+03  0.31279142822E+03  0.12499737330E+03 0.  0.
    9000005    1    3    3    0    0 -0.49721717426E+01 -0.66323374700E+02  0.12381207132E+03  0.14054871585E+03  0.10000000000E+01 0.  0.
    9000005    1    3    3    0    0 -0.22772469091E+02  0.55729751060E+02  0.16137583915E+03  0.17224271236E+03  0.10000000000E+01 0.  0.
         21    1    1    2  502  501  0.27744640833E+02  0.10593623640E+02  0.28089893612E+02  0.40878259257E+02  0.00000000000E+00 0.  1.
<mgrwt>
<rscale>  1 0.12847698E+03</rscale>
<asrwt>0</asrwt>
<pdfrwt beam="2">  1        4 0.31070681E-02 0.12847698E+03</pdfrwt>
<pdfrwt beam="1">  1       -4 0.51303650E-01 0.12847698E+03</pdfrwt>
<totfact> 0.30428783E+03</totfact>
</mgrwt>
</event>
<event>
 6    4  0.1195577E-003  0.1468471E+03  0.7818608E-02  0.1204402E+00
          4   -1    0    0  502    0  0.00000000000E+00  0.00000000000E+00  0.10297532349E+04  0.10297540181E+04  0.12700000000E+01 0.  1.
         -4   -1    0    0    0  501 -0.00000000000E+00 -0.00000000000E+00 -0.24249748831E+02  0.24282982074E+02  0.12700000000E+01 0.  1.
         25    2    1    2    0    0  0.53137936112E+02  0.55817230108E+02  0.21844987501E+03  0.26321932827E+03  0.12499945381E+03 0.  0.
    9000005    1    3    3    0    0  0.37760807768E+02 -0.33274586037E+02  0.11674672064E+03  0.12713722295E+03  0.10000000000E+01 0.  0.
    9000005    1    3    3    0    0  0.15377128344E+02  0.89091816145E+02  0.10170315437E+03  0.13608210533E+03  0.10000000000E+01 0.  0.
         21    1    1    2  502  501 -0.53137936112E+02 -0.55817230108E+02  0.78705361110E+03  0.79081767189E+03  0.00000000000E+00 0.  1.
<mgrwt>
<rscale>  1 0.14684709E+03</rscale>
<asrwt>0</asrwt>
<pdfrwt beam="1">  1        4 0.15842618E+00 0.14684709E+03</pdfrwt>
<pdfrwt beam="2">  1       -4 0.37333475E-02 0.14684709E+03</pdfrwt>
<totfact> 0.17893034E+02</totfact>
</mgrwt>
</event>
<event>
 6    4  0.1195577E-003  0.1393517E+03  0.7818608E-02  0.1214204E+00
          4   -1    0    0  502    0  0.00000000000E+00  0.00000000000E+00  0.21833528942E+02  0.21870434062E+02  0.12700000000E+01 0. -1.
         -4   -1    0    0    0  501 -0.00000000000E+00 -0.00000000000E+00 -0.48146516107E+03  0.48146683606E+03  0.12700000000E+01 0. -1.
         25    2    1    2    0    0  0.56406340332E+02  0.24550230828E+02 -0.36251669208E+03  0.38837770921E+03  0.12503800988E+03 0.  0.
    9000005    1    3    3    0    0  0.25246850286E+02 -0.85057611650E+01 -0.39588136528E+01  0.26952247177E+02  0.10000000000E+01 0.  0.
    9000005    1    3    3    0    0  0.31159490046E+02  0.33055991993E+02 -0.35855787842E+03  0.36142546203E+03  0.10000000000E+01 0.  0.
         21    1    1    2  502  501 -0.56406340332E+02 -0.24550230828E+02 -0.97114940053E+02  0.11495956091E+03  0.00000000000E+00 0. -1.
<mgrwt>
<rscale>  1 0.13935169E+03</rscale>
<asrwt>0</asrwt>
<pdfrwt beam="1">  1        4 0.33619725E-02 0.13935169E+03</pdfrwt>
<pdfrwt beam="2">  1       -4 0.74074523E-01 0.13935169E+03</pdfrwt>
<totfact> 0.12611962E+03</totfact>
</mgrwt>
</event>
<event>
 6    4  0.1195577E-003  0.1267493E+03  0.7818608E-02  0.1232361E+00
          4   -1    0    0  502    0  0.00000000000E+00  0.00000000000E+00  0.23453154399E+04  0.23453157837E+04  0.12700000000E+01 0. -1.
         -4   -1    0    0    0  501 -0.00000000000E+00 -0.00000000000E+00 -0.37913096120E+01  0.39983657379E+01  0.12700000000E+01 0. -1.
         25    2    1    2    0    0  0.16423370775E+02 -0.13027919196E+02  0.10503690874E+04  0.10579889393E+04  0.12500368820E+03 0.  0.
    9000005    1    3    3    0    0  0.70698234956E+02 -0.10614948543E+02  0.65860080804E+03  0.66247033286E+03  0.10000000000E+01 0.  0.
    9000005    1    3    3    0    0 -0.54274864182E+02 -0.24129706530E+01  0.39176827938E+03  0.39551860644E+03  0.10000000000E+01 0.  0.
         21    1    1    2  502  501 -0.16423370775E+02  0.13027919196E+02  0.12911550428E+04  0.12913252102E+04  0.00000000000E+00 0. -1.
<mgrwt>
<rscale>  1 0.12674926E+03</rscale>
<asrwt>0</asrwt>
<pdfrwt beam="1">  1        4 0.36083428E+00 0.12674926E+03</pdfrwt>
<pdfrwt beam="2">  1       -4 0.59923131E-03 0.12674926E+03</pdfrwt>
<totfact> 0.17219609E+02</totfact>
</mgrwt>
</event>
<event>
 6    4  0.1195577E-003  0.1269407E+03  0.7818608E-02  0.1232067E+00
          4   -1    0    0  502    0  0.00000000000E+00  0.00000000000E+00  0.30818567003E+02  0.30844723570E+02  0.12700000000E+01 0.  1.
         -4   -1    0    0    0  501 -0.00000000000E+00 -0.00000000000E+00 -0.18784364708E+03  0.18784794023E+03  0.12700000000E+01 0.  1.
         25    2    1    2    0    0  0.35792904523E+01 -0.21816275304E+02 -0.14754798716E+03  0.19463904706E+03  0.12500075574E+03 0.  0.
    9000005    1    3    3    0    0  0.26368648538E+02 -0.69348616511E+02 -0.84603899496E+02  0.11253157800E+03  0.10000000000E+01 0.  0.
    9000005    1    3    3    0    0 -0.22789358086E+02  0.47532341207E+02 -0.62944087667E+02  0.82107469056E+02  0.10000000000E+01 0.  0.
         21    1    1    2  502  501 -0.35792904523E+01  0.21816275304E+02 -0.94770929180E+01  0.24053616744E+02  0.00000000000E+00 0.  1.
<mgrwt>
<rscale>  1 0.12694073E+03</rscale>
<asrwt>0</asrwt>
<pdfrwt beam="1">  1        4 0.47436604E-02 0.12694073E+03</pdfrwt>
<pdfrwt beam="2">  1       -4 0.28901364E-01 0.12694073E+03</pdfrwt>
<totfact> 0.47710929E+03</totfact>
</mgrwt>
</event>
<event>
 6    4  0.1195577E-003  0.1311870E+03  0.7818608E-02  0.1225705E+00
         -4   -1    0    0    0  501 -0.00000000000E+00  0.00000000000E+00  0.39336525093E+03  0.39336730105E+03  0.12700000000E+01 0.  1.
          4   -1    0    0  502    0  0.00000000000E+00 -0.00000000000E+00 -0.18683202170E+02  0.18726316865E+02  0.12700000000E+01 0.  1.
         25    2    1    2    0    0  0.15206754987E+01 -0.39769050492E+02  0.27247296904E+03  0.30240959079E+03  0.12500460756E+03 0.  0.
    9000005    1    3    3    0    0  0.11749667226E+01  0.11496735756E+02 -0.10003094189E+02  0.15317224723E+02  0.10000000000E+01 0.  0.
    9000005    1    3    3    0    0  0.34570877604E+00 -0.51265786249E+02  0.28247606323E+03  0.28709236607E+03  0.10000000000E+01 0.  0.
         21    1    1    2  502  501 -0.15206754987E+01  0.39769050492E+02  0.10220907971E+03  0.10968402713E+03  0.00000000000E+00 0. -1.
<mgrwt>
<rscale>  1 0.13118705E+03</rscale>
<asrwt>0</asrwt>
<pdfrwt beam="2">  1        4 0.28778133E-02 0.13118705E+03</pdfrwt>
<pdfrwt beam="1">  1       -4 0.60521198E-01 0.13118705E+03</pdfrwt>
<totfact> 0.24482696E+03</totfact>
</mgrwt>
</event>
<event>
 6    4  0.1195577E-003  0.1270021E+03  0.7818608E-02  0.1231973E+00
          4   -1    0    0  502    0  0.00000000000E+00  0.00000000000E+00  0.42754965985E+03  0.42755154606E+03  0.12700000000E+01 0. -1.
         -4   -1    0    0    0  501 -0.00000000000E+00 -0.00000000000E+00 -0.13031785826E+02  0.13093522896E+02  0.12700000000E+01 0. -1.
         25    2    1    2    0    0  0.11021815615E+02  0.19578511085E+02  0.35079550813E+03  0.37307778078E+03  0.12499897389E+03 0.  0.
    9000005    1    3    3    0    0  0.34304139351E+02 -0.41640733462E+02  0.97357512450E+02  0.11131131969E+03  0.10000000000E+01 0.  0.
    9000005    1    3    3    0    0 -0.23282323735E+02  0.61219244547E+02  0.25343799567E+03  0.26176646109E+03  0.10000000000E+01 0.  0.
         21    1    1    2  502  501 -0.11021815615E+02 -0.19578511085E+02  0.63722365900E+02  0.67567288178E+02  0.00000000000E+00 0. -1.
<mgrwt>
<rscale>  1 0.12700213E+03</rscale>
<asrwt>0</asrwt>
<pdfrwt beam="1">  1        4 0.65781757E-01 0.12700213E+03</pdfrwt>
<pdfrwt beam="2">  1       -4 0.20097845E-02 0.12700213E+03</pdfrwt>
<totfact> 0.35529073E+03</totfact>
</mgrwt>
</event>
<event>
 6    4  0.1195577E-003  0.1272880E+03  0.7818608E-02  0.1231536E+00
          4   -1    0    0  502    0  0.00000000000E+00  0.00000000000E+00  0.19063930001E+03  0.19064353020E+03  0.12700000000E+01 0. -1.
         -4   -1    0    0    0  501 -0.00000000000E+00 -0.00000000000E+00 -0.33367214580E+02  0.33391374767E+02  0.12700000000E+01 0. -1.
         25    2    1    2    0    0 -0.23654654667E+02 -0.44418390379E+01  0.99868420766E+02  0.16178979803E+03  0.12499185837E+03 0.  0.
    9000005    1    3    3    0    0  0.47671170416E+02 -0.21859755280E+02  0.29971422580E+02  0.60412544733E+02  0.10000000000E+01 0.  0.
    9000005    1    3    3    0    0 -0.71325825082E+02  0.17417916242E+02  0.69896998186E+02  0.10137725329E+03  0.10000000000E+01 0.  0.
         21    1    1    2  502  501  0.23654654667E+02  0.44418390379E+01  0.57403664662E+02  0.62245106941E+02  0.00000000000E+00 0. -1.
<mgrwt>
<rscale>  1 0.12728801E+03</rscale>
<asrwt>0</asrwt>
<pdfrwt beam="1">  1        4 0.29331307E-01 0.12728801E+03</pdfrwt>
<pdfrwt beam="2">  1       -4 0.51356016E-02 0.12728801E+03</pdfrwt>
<totfact> 0.40883176E+03</totfact>
</mgrwt>
</event>
<event>
 6    4  0.1195577E-003  0.1288530E+03  0.7818608E-02  0.1229168E+00
         -4   -1    0    0    0  501 -0.00000000000E+00  0.00000000000E+00  0.19820058775E+03  0.19820465657E+03  0.12700000000E+01 0. -1.
          4   -1    0    0  502    0  0.00000000000E+00 -0.00000000000E+00 -0.35006431777E+02  0.35029461397E+02  0.12700000000E+01 0. -1.
         25    2    1    2    0    0 -0.28670167829E+02 -0.12505981160E+02  0.15365750343E+03  0.20053357011E+03  0.12499882517E+03 0.  0.
    9000005    1    3    3    0    0 -0.15839522511E+02 -0.34829698959E+02 -0.60589268624E+01  0.38751890247E+02  0.10000000000E+01 0.  0.
    9000005    1    3    3    0    0 -0.12830645317E+02  0.22323717799E+02  0.15971643029E+03  0.16178167987E+03  0.10000000000E+01 0.  0.
         21    1    1    2  502  501  0.28670167829E+02  0.12505981160E+02  0.95366525478E+01  0.32700547854E+02  0.00000000000E+00 0. -1.
<mgrwt>
<rscale>  1 0.12885296E+03</rscale>
<asrwt>0</asrwt>
<pdfrwt beam="2">  1        4 0.53876893E-02 0.12885296E+03</pdfrwt>
<pdfrwt beam="1">  1       -4 0.30494483E-01 0.12885296E+03</pdfrwt>
<totfact> 0.35275138E+03</totfact>
</mgrwt>
</event>
<event>
 6    4  0.1195577E-003  0.1301928E+03  0.7818608E-02  0.1227170E+00
         -4   -1    0    0    0  501 -0.00000000000E+00  0.00000000000E+00  0.15931280532E+02  0.15981820904E+02  0.12700000000E+01 0. -1.
          4   -1    0    0  502    0  0.00000000000E+00 -0.00000000000E+00 -0.48290729150E+03  0.48290896149E+03  0.12700000000E+01 0. -1.
         25    2    1    2    0    0 -0.35487188139E+02  0.81431744931E+01 -0.28529679353E+03  0.31359914776E+03  0.12499805306E+03 0.  0.
    9000005    1    3    3    0    0 -0.28932660319E+02  0.50417645590E+02 -0.57327467018E+02  0.81648492299E+02  0.10000000000E+01 0.  0.
    9000005    1    3    3    0    0 -0.65545278198E+01 -0.42274471097E+02 -0.22796932651E+03  0.23195065546E+03  0.10000000000E+01 0.  0.
         21    1    1    2  502  501  0.35487188139E+02 -0.81431744931E+01 -0.18167921744E+03  0.18529163463E+03  0.00000000000E+00 0. -1.
<mgrwt>
<rscale>  1 0.13019280E+03</rscale>
<asrwt>0</asrwt>
<pdfrwt beam="2">  1        4 0.74297434E-01 0.13019280E+03</pdfrwt>
<pdfrwt beam="1">  1       -4 0.24549828E-02 0.13019280E+03</pdfrwt>
<totfact> 0.20182038E+03</totfact>
</mgrwt>
</event>
<event>
 6    4  0.1195577E-003  0.1287258E+03  0.7818608E-02  0.1229359E+00
          4   -1    0    0  502    0  0.00000000000E+00  0.00000000000E+00  0.25158258245E+03  0.25158578794E+03  0.12700000000E+01 0. -1.
         -4   -1    0    0    0  501 -0.00000000000E+00 -0.00000000000E+00 -0.25340249622E+02  0.25372054527E+02  0.12700000000E+01 0. -1.
         25    2    1    2    0    0  0.27463689918E+02 -0.13838214806E+02  0.18874882943E+03  0.22846543842E+03  0.12499834194E+03 0.  0.
    9000005    1    3    3    0    0 -0.27299273408E+02  0.18731999741E+02  0.44007700195E+01  0.33414142510E+02  0.10000000000E+01 0.  0.
    9000005    1    3    3    0    0  0.54762963326E+02 -0.32570214547E+02  0.18434805941E+03  0.19505129591E+03  0.10000000000E+01 0.  0.
         21    1    1    2  502  501 -0.27463689918E+02  0.13838214806E+02  0.37493503399E+02  0.48492404045E+02  0.00000000000E+00 0. -1.
<mgrwt>
<rscale>  1 0.12872582E+03</rscale>
<asrwt>0</asrwt>
<pdfrwt beam="1">  1        4 0.38707707E-01 0.12872582E+03</pdfrwt>
<pdfrwt beam="2">  1       -4 0.39011929E-02 0.12872582E+03</pdfrwt>
<totfact> 0.37347357E+03</totfact>
</mgrwt>
</event>
<event>
 6    4  0.1195577E-003  0.1514529E+03  0.7818608E-02  0.1198699E+00
          4   -1    0    0  502    0  0.00000000000E+00  0.00000000000E+00  0.78230904623E+02  0.78241212530E+02  0.12700000000E+01 0.  1.
         -4   -1    0    0    0  501 -0.00000000000E+00 -0.00000000000E+00 -0.30429246050E+03  0.30429511074E+03  0.12700000000E+01 0.  1.
         25    2    1    2    0    0  0.35592683005E+02 -0.77752318508E+02 -0.25127139788E+03  0.29338589842E+03  0.12500283150E+03 0.  0.
    9000005    1    3    3    0    0 -0.36744498089E+02 -0.53086911348E+02 -0.16985191492E+03  0.18171145065E+03  0.10000000000E+01 0.  0.
    9000005    1    3    3    0    0  0.72337181094E+02 -0.24665407159E+02 -0.81419482967E+02  0.11167444777E+03  0.10000000000E+01 0.  0.
         21    1    1    2  502  501 -0.35592683005E+02  0.77752318508E+02  0.25209842001E+02  0.89150424847E+02  0.00000000000E+00 0.  1.
<mgrwt>
<rscale>  1 0.15145286E+03</rscale>
<asrwt>0</asrwt>
<pdfrwt beam="1">  1        4 0.12036521E-01 0.15145286E+03</pdfrwt>
<pdfrwt beam="2">  1       -4 0.46815221E-01 0.15145286E+03</pdfrwt>
<totfact> 0.41587038E+02</totfact>
</mgrwt>
</event>
<event>
 6    4  0.1195577E-003  0.1271079E+03  0.7818608E-02  0.1231811E+00
          4   -1    0    0  502    0  0.00000000000E+00  0.00000000000E+00  0.39924382166E+03  0.39924584160E+03  0.12700000000E+01 0. -1.
         -4   -1    0    0    0  501 -0.00000000000E+00 -0.00000000000E+00 -0.14321160657E+02  0.14377362156E+02  0.12700000000E+01 0. -1.
         25    2    1    2    0    0  0.12496676602E+02 -0.19519962691E+02  0.30549802314E+03  0.33088585445E+03  0.12497684052E+03 0.  0.
    9000005    1    3    3    0    0 -0.34131153461E+02 -0.50839978349E+02  0.95074358707E+02  0.11309187733E+03  0.10000000000E+01 0.  0.
    9000005    1    3    3    0    0  0.46627830063E+02  0.31320015658E+02  0.21042366443E+03  0.21779397712E+03  0.10000000000E+01 0.  0.
         21    1    1    2  502  501 -0.12496676602E+02  0.19519962691E+02  0.79424637863E+02  0.82737349300E+02  0.00000000000E+00 0.  1.
<mgrwt>
<rscale>  1 0.12710785E+03</rscale>
<asrwt>0</asrwt>
<pdfrwt beam="1">  1        4 0.61426610E-01 0.12710785E+03</pdfrwt>
<pdfrwt beam="2">  1       -4 0.22077339E-02 0.12710785E+03</pdfrwt>
<totfact> 0.35545985E+03</totfact>
</mgrwt>
</event>
<event>
 6    4  0.1195577E-003  0.1334499E+03  0.7818608E-02  0.1222425E+00
          4   -1    0    0  502    0  0.00000000000E+00  0.00000000000E+00  0.29040339718E+03  0.29040617417E+03  0.12700000000E+01 0. -1.
         -4   -1    0    0    0  501 -0.00000000000E+00 -0.00000000000E+00 -0.67908702250E+02  0.67920576714E+02  0.12700000000E+01 0. -1.
         25    2    1    2    0    0  0.20878716145E+01  0.46695978835E+02  0.25543656790E+01  0.13347430576E+03  0.12499596740E+03 0.  0.
    9000005    1    3    3    0    0 -0.60758419497E+02  0.32677443490E+02 -0.60455813027E+00  0.68998306816E+02  0.10000000000E+01 0.  0.
    9000005    1    3    3    0    0  0.62846291112E+02  0.14018535344E+02  0.31589238092E+01  0.64475998940E+02  0.10000000000E+01 0.  0.
         21    1    1    2  502  501 -0.20878716145E+01 -0.46695978835E+02  0.21994032925E+03  0.22485244513E+03  0.00000000000E+00 0. -1.
<mgrwt>
<rscale>  1 0.13344986E+03</rscale>
<asrwt>0</asrwt>
<pdfrwt beam="1">  1        4 0.44678574E-01 0.13344986E+03</pdfrwt>
<pdfrwt beam="2">  1       -4 0.10448619E-01 0.13344986E+03</pdfrwt>
<totfact> 0.56746477E+02</totfact>
</mgrwt>
</event>
<event>
 6    4  0.1195577E-003  0.1269456E+03  0.7818608E-02  0.1232060E+00
          4   -1    0    0  502    0  0.00000000000E+00  0.00000000000E+00  0.16001152616E+03  0.16001656603E+03  0.12700000000E+01 0.  1.
         -4   -1    0    0    0  501 -0.00000000000E+00 -0.00000000000E+00 -0.38292994836E+02  0.38314049035E+02  0.12700000000E+01 0.  1.
         25    2    1    2    0    0 -0.36624055347E+00  0.22107961966E+02  0.77075621387E+02  0.14851208917E+03  0.12500517231E+03 0.  0.
    9000005    1    3    3    0    0  0.40977644096E+02  0.58637442861E+02  0.47858113834E+02  0.86075060736E+02  0.10000000000E+01 0.  0.
    9000005    1    3    3    0    0 -0.41343884650E+02 -0.36529480895E+02  0.29217507552E+02  0.62437028436E+02  0.10000000000E+01 0.  0.
         21    1    1    2  502  501  0.36624055347E+00 -0.22107961966E+02  0.44642909934E+02  0.49818525890E+02  0.00000000000E+00 0. -1.
<mgrwt>
<rscale>  1 0.12694562E+03</rscale>
<asrwt>0</asrwt>
<pdfrwt beam="1">  1        4 0.24619165E-01 0.12694562E+03</pdfrwt>
<pdfrwt beam="2">  1       -4 0.58932373E-02 0.12694562E+03</pdfrwt>
<totfact> 0.45319112E+03</totfact>
</mgrwt>
</event>
<event>
 6    4  0.1195577E-003  0.1284944E+03  0.7818608E-02  0.1229707E+00
         -4   -1    0    0    0  501 -0.00000000000E+00  0.00000000000E+00  0.15313695019E+02  0.15366266792E+02  0.12700000000E+01 0. -1.
          4   -1    0    0  502    0  0.00000000000E+00 -0.00000000000E+00 -0.43511874781E+03  0.43512060121E+03  0.12700000000E+01 0. -1.
         25    2    1    2    0    0 -0.13058241839E+02 -0.26680053153E+02 -0.28781484330E+03  0.31519548498E+03  0.12501386649E+03 0.  0.
    9000005    1    3    3    0    0 -0.50547137917E+02 -0.52904322392E+02 -0.11406285198E+03  0.13551831861E+03  0.10000000000E+01 0.  0.
    9000005    1    3    3    0    0  0.37488896078E+02  0.26224269238E+02 -0.17375199132E+03  0.17967716637E+03  0.10000000000E+01 0.  0.
         21    1    1    2  502  501  0.13058241839E+02  0.26680053153E+02 -0.13199020949E+03  0.13529138301E+03  0.00000000000E+00 0. -1.
<mgrwt>
<rscale>  1 0.12849440E+03</rscale>
<asrwt>0</asrwt>
<pdfrwt beam="2">  1        4 0.66945523E-01 0.12849440E+03</pdfrwt>
<pdfrwt beam="1">  1       -4 0.23601400E-02 0.12849440E+03</pdfrwt>
<totfact> 0.26780597E+03</totfact>
</mgrwt>
</event>
<event>
 6    4  0.1195577E-003  0.1273810E+03  0.7818608E-02  0.1231394E+00
          4   -1    0    0  502    0  0.00000000000E+00  0.00000000000E+00  0.44204956627E+02  0.44223196293E+02  0.12700000000E+01 0. -1.
         -4   -1    0    0    0  501 -0.00000000000E+00 -0.00000000000E+00 -0.25113369067E+03  0.25113690189E+03  0.12700000000E+01 0. -1.
         25    2    1    2    0    0  0.11273063430E+02 -0.21795633468E+02 -0.22920216600E+03  0.26222043361E+03  0.12499516514E+03 0.  0.
    9000005    1    3    3    0    0  0.17568887241E+02  0.39005515497E+02 -0.26113748584E+02  0.50130069850E+02  0.10000000000E+01 0.  0.
    9000005    1    3    3    0    0 -0.62958238108E+01 -0.60801148965E+02 -0.20308841741E+03  0.21209036376E+03  0.10000000000E+01 0.  0.
         21    1    1    2  502  501 -0.11273063430E+02  0.21795633468E+02  0.22273431948E+02  0.33139664575E+02  0.00000000000E+00 0. -1.
<mgrwt>
<rscale>  1 0.12738101E+03</rscale>
<asrwt>0</asrwt>
<pdfrwt beam="1">  1        4 0.68024128E-02 0.12738101E+03</pdfrwt>
<pdfrwt beam="2">  1       -4 0.38637602E-01 0.12738101E+03</pdfrwt>
<totfact> 0.15282011E+03</totfact>
</mgrwt>
</event>
<event>
 6    4  0.1195577E-003  0.1299663E+03  0.7818608E-02  0.1227506E+00
         -4   -1    0    0    0  501 -0.00000000000E+00  0.00000000000E+00  0.43082033566E+03  0.43082220755E+03  0.12700000000E+01 0. -1.
          4   -1    0    0  502    0  0.00000000000E+00 -0.00000000000E+00 -0.16187178260E+02  0.16236922123E+02  0.12700000000E+01 0. -1.
         25    2    1    2    0    0 -0.24471339561E+02 -0.25828274408E+02  0.34879432252E+03  0.37222131572E+03  0.12500112894E+03 0.  0.
    9000005    1    3    3    0    0 -0.56984182236E+02 -0.53794624034E+02  0.28320936306E+03  0.29385302777E+03  0.10000000000E+01 0.  0.
    9000005    1    3    3    0    0  0.32512842675E+02  0.27966349626E+02  0.65584959460E+02  0.78368287959E+02  0.10000000000E+01 0.  0.
         21    1    1    2  502  501  0.24471339561E+02  0.25828274408E+02  0.65838834879E+02  0.74837813951E+02  0.00000000000E+00 0. -1.
<mgrwt>
<rscale>  1 0.12996626E+03</rscale>
<asrwt>0</asrwt>
<pdfrwt beam="2">  1        4 0.24943060E-02 0.12996626E+03</pdfrwt>
<pdfrwt beam="1">  1       -4 0.66284010E-01 0.12996626E+03</pdfrwt>
<totfact> 0.25175139E+03</totfact>
</mgrwt>
</event>
<event>
 6    4  0.1195577E-003  0.1297402E+03  0.7818608E-02  0.1227842E+00
          4   -1    0    0  502    0  0.00000000000E+00  0.00000000000E+00  0.47778030206E+03  0.47778198997E+03  0.12700000000E+01 0.  1.
         -4   -1    0    0    0  501 -0.00000000000E+00 -0.00000000000E+00 -0.14130004949E+02  0.14186963730E+02  0.12700000000E+01 0.  1.
         25    2    1    2    0    0  0.31882453540E+02  0.13809036937E+02  0.36882646177E+03  0.39098014198E+03  0.12500132867E+03 0.  0.
    9000005    1    3    3    0    0  0.34606100098E+02 -0.20728953907E+02  0.34844149257E+03  0.35077021744E+03  0.10000000000E+01 0.  0.
    9000005    1    3    3    0    0 -0.27236465589E+01  0.34537990844E+02  0.20384969202E+02  0.40209924540E+02  0.10000000000E+01 0.  0.
         21    1    1    2  502  501 -0.31882453540E+02 -0.13809036937E+02  0.94823835337E+02  0.10098881172E+03  0.00000000000E+00 0.  1.
<mgrwt>
<rscale>  1 0.12974017E+03</rscale>
<asrwt>0</asrwt>
<pdfrwt beam="1">  1        4 0.73509158E-01 0.12974017E+03</pdfrwt>
<pdfrwt beam="2">  1       -4 0.21783587E-02 0.12974017E+03</pdfrwt>
<totfact> 0.24834710E+03</totfact>
</mgrwt>
</event>
<event>
 6    4  0.1195577E-003  0.1285474E+03  0.7818608E-02  0.1229627E+00
          4   -1    0    0  502    0  0.00000000000E+00  0.00000000000E+00  0.12174789512E+03  0.12175451888E+03  0.12700000000E+01 0. -1.
         -4   -1    0    0    0  501 -0.00000000000E+00 -0.00000000000E+00 -0.64404323343E+02  0.64416843801E+02  0.12700000000E+01 0. -1.
         25    2    1    2    0    0 -0.23699576021E+02  0.18356972542E+02  0.84567499710E+01  0.12882531058E+03  0.12500318269E+03 0.  0.
    9000005    1    3    3    0    0  0.25074955154E+02  0.21553615005E+02  0.53138257614E+02  0.62593818528E+02  0.10000000000E+01 0.  0.
    9000005    1    3    3    0    0 -0.48774531175E+02 -0.31966424629E+01 -0.44681507643E+02  0.66231492053E+02  0.10000000000E+01 0.  0.
         21    1    1    2  502  501  0.23699576021E+02 -0.18356972542E+02  0.48886821810E+02  0.57346052097E+02  0.00000000000E+00 0. -1.
<mgrwt>
<rscale>  1 0.12854744E+03</rscale>
<asrwt>0</asrwt>
<pdfrwt beam="1">  1        4 0.18731918E-01 0.12854744E+03</pdfrwt>
<pdfrwt beam="2">  1       -4 0.99098301E-02 0.12854744E+03</pdfrwt>
<totfact> 0.31637500E+03</totfact>
</mgrwt>
</event>
<event>
 6    4  0.1195577E-003  0.1331484E+03  0.7818608E-02  0.1222857E+00
          4   -1    0    0  502    0  0.00000000000E+00  0.00000000000E+00  0.44333080601E+03  0.44333262507E+03  0.12700000000E+01 0.  1.
         -4   -1    0    0    0  501 -0.00000000000E+00 -0.00000000000E+00 -0.18110301964E+02  0.18154777256E+02  0.12700000000E+01 0.  1.
         25    2    1    2    0    0 -0.66241008038E+01  0.45422415285E+02  0.30471630722E+03  0.33253649705E+03  0.12498567702E+03 0.  0.
    9000005    1    3    3    0    0 -0.18435077156E+02 -0.30212911929E+02  0.27186080544E+02  0.44640285532E+02  0.10000000000E+01 0.  0.
    9000005    1    3    3    0    0  0.11810976352E+02  0.75635327214E+02  0.27753022668E+03  0.28789621151E+03  0.10000000000E+01 0.  0.
         21    1    1    2  502  501  0.66241008038E+01 -0.45422415285E+02  0.12050419682E+03  0.12895090528E+03  0.00000000000E+00 0. -1.
<mgrwt>
<rscale>  1 0.13314839E+03</rscale>
<asrwt>0</asrwt>
<pdfrwt beam="1">  1        4 0.68208294E-01 0.13314839E+03</pdfrwt>
<pdfrwt beam="2">  1       -4 0.27897617E-02 0.13314839E+03</pdfrwt>
<totfact> 0.20004278E+03</totfact>
</mgrwt>
</event>
<event>
 6    4  0.1195577E-003  0.1363938E+03  0.7818608E-02  0.1218265E+00
         -4   -1    0    0    0  501 -0.00000000000E+00  0.00000000000E+00  0.26306383788E+02  0.26337022003E+02  0.12700000000E+01 0. -1.
          4   -1    0    0  502    0  0.00000000000E+00 -0.00000000000E+00 -0.37599649174E+03  0.37599863657E+03  0.12700000000E+01 0. -1.
         25    2    1    2    0    0  0.52066932158E+02  0.16305335952E+02 -0.19232028026E+03  0.23577608342E+03  0.12500576751E+03 0.  0.
    9000005    1    3    3    0    0  0.61601755639E+02 -0.43013805643E+02 -0.12196382140E+03  0.14325200698E+03  0.10000000000E+01 0.  0.
    9000005    1    3    3    0    0 -0.95348234817E+01  0.59319141596E+02 -0.70356458861E+02  0.92524076445E+02  0.10000000000E+01 0.  0.
         21    1    1    2  502  501 -0.52066932158E+02 -0.16305335952E+02 -0.15736982770E+03  0.16655957515E+03  0.00000000000E+00 0. -1.
<mgrwt>
<rscale>  1 0.13639381E+03</rscale>
<asrwt>0</asrwt>
<pdfrwt beam="2">  1        4 0.57848132E-01 0.13639381E+03</pdfrwt>
<pdfrwt beam="1">  1       -4 0.40496580E-02 0.13639381E+03</pdfrwt>
<totfact> 0.15847656E+03</totfact>
</mgrwt>
</event>
<event>
 6    4  0.1195577E-003  0.1293998E+03  0.7818608E-02  0.1228349E+00
         -4   -1    0    0    0  501 -0.00000000000E+00  0.00000000000E+00  0.12476361434E+03  0.12477007799E+03  0.12700000000E+01 0. -1.
          4   -1    0    0  502    0  0.00000000000E+00 -0.00000000000E+00 -0.70676457595E+02  0.70687867121E+02  0.12700000000E+01 0. -1.
         25    2    1    2    0    0 -0.30313240652E+02  0.14168795270E+02  0.80875421851E+02  0.15259469202E+03  0.12499863541E+03 0.  0.
    9000005    1    3    3    0    0  0.16240599295E+02 -0.47280150540E+02  0.46121770385E+02  0.68024902822E+02  0.10000000000E+01 0.  0.
    9000005    1    3    3    0    0 -0.46553839947E+02  0.61448945810E+02  0.34753651466E+02  0.84569789199E+02  0.10000000000E+01 0.  0.
         21    1    1    2  502  501  0.30313240652E+02 -0.14168795270E+02 -0.26788265108E+02  0.42863253093E+02  0.00000000000E+00 0. -1.
<mgrwt>
<rscale>  1 0.12939979E+03</rscale>
<asrwt>0</asrwt>
<pdfrwt beam="2">  1        4 0.10874676E-01 0.12939979E+03</pdfrwt>
<pdfrwt beam="1">  1       -4 0.19195777E-01 0.12939979E+03</pdfrwt>
<totfact> 0.25929403E+03</totfact>
</mgrwt>
</event>
<event>
 6    4  0.1195577E-003  0.1269659E+03  0.7818608E-02  0.1232028E+00
         -4   -1    0    0    0  501 -0.00000000000E+00  0.00000000000E+00  0.54175411525E+03  0.54175560383E+03  0.12700000000E+01 0. -1.
          4   -1    0    0  502    0  0.00000000000E+00 -0.00000000000E+00 -0.11581753698E+02  0.11651176710E+02  0.12700000000E+01 0. -1.
         25    2    1    2    0    0 -0.18420653545E+02  0.12448754001E+02  0.50035807549E+03  0.51621560409E+03  0.12500421689E+03 0.  0.
    9000005    1    3    3    0    0  0.17922011153E+02  0.41534631616E+01  0.46322033476E+03  0.46358659199E+03  0.10000000000E+01 0.  0.
    9000005    1    3    3    0    0 -0.36342664697E+02  0.82952908396E+01  0.37137740728E+02  0.52629012092E+02  0.10000000000E+01 0.  0.
         21    1    1    2  502  501  0.18420653545E+02 -0.12448754001E+02  0.29814286058E+02  0.37191176458E+02  0.00000000000E+00 0. -1.
<mgrwt>
<rscale>  1 0.12696593E+03</rscale>
<asrwt>0</asrwt>
<pdfrwt beam="2">  1        4 0.17872626E-02 0.12696593E+03</pdfrwt>
<pdfrwt beam="1">  1       -4 0.83352262E-01 0.12696593E+03</pdfrwt>
<totfact> 0.25408779E+03</totfact>
</mgrwt>
</event>
<event>
 6    4  0.1195577E-003  0.1270458E+03  0.7818608E-02  0.1231906E+00
          4   -1    0    0  502    0  0.00000000000E+00  0.00000000000E+00  0.50508707233E+02  0.50524671264E+02  0.12700000000E+01 0. -1.
         -4   -1    0    0    0  501 -0.00000000000E+00 -0.00000000000E+00 -0.11145848516E+03  0.11146572035E+03  0.12700000000E+01 0. -1.
         25    2    1    2    0    0  0.18998803885E+02  0.12463392043E+02 -0.47818912376E+02  0.13574710066E+03  0.12499734504E+03 0.  0.
    9000005    1    3    3    0    0 -0.30154632207E+02  0.47759598821E+02 -0.49633466973E+02  0.75198152682E+02  0.10000000000E+01 0.  0.
    9000005    1    3    3    0    0  0.49153436092E+02 -0.35296206778E+02  0.18145545971E+01  0.60548947975E+02  0.10000000000E+01 0.  0.
         21    1    1    2  502  501 -0.18998803885E+02 -0.12463392043E+02 -0.13130865549E+02  0.26243290959E+02  0.00000000000E+00 0. -1.
<mgrwt>
<rscale>  1 0.12704577E+03</rscale>
<asrwt>0</asrwt>
<pdfrwt beam="1">  1        4 0.77723549E-02 0.12704577E+03</pdfrwt>
<pdfrwt beam="2">  1       -4 0.17149244E-01 0.12704577E+03</pdfrwt>
<totfact> 0.55306375E+03</totfact>
</mgrwt>
</event>
<event>
 6    4  0.1195577E-003  0.1289449E+03  0.7818608E-02  0.1229030E+00
         -4   -1    0    0    0  501 -0.00000000000E+00  0.00000000000E+00  0.13287123391E+02  0.13347679499E+02  0.12700000000E+01 0. -1.
          4   -1    0    0  502    0  0.00000000000E+00 -0.00000000000E+00 -0.59797116649E+03  0.59797251514E+03  0.12700000000E+01 0. -1.
         25    2    1    2    0    0  0.23557643144E+02  0.21342995401E+02 -0.32416933231E+03  0.34887324658E+03  0.12496519582E+03 0.  0.
    9000005    1    3    3    0    0  0.69160733142E+01  0.72556712417E+02 -0.15391593211E+03  0.17030391289E+03  0.10000000000E+01 0.  0.
    9000005    1    3    3    0    0  0.16641569830E+02 -0.51213717015E+02 -0.17025340020E+03  0.17856933370E+03  0.10000000000E+01 0.  0.
         21    1    1    2  502  501 -0.23557643144E+02 -0.21342995401E+02 -0.26051471079E+03  0.26244694805E+03  0.00000000000E+00 0. -1.
<mgrwt>
<rscale>  1 0.12894490E+03</rscale>
<asrwt>0</asrwt>
<pdfrwt beam="2">  1        4 0.92000305E-01 0.12894490E+03</pdfrwt>
<pdfrwt beam="1">  1       -4 0.20489352E-02 0.12894490E+03</pdfrwt>
<totfact> 0.16563614E+03</totfact>
</mgrwt>
</event>
<event>
 6    4  0.1195577E-003  0.1275574E+03  0.7818608E-02  0.1231126E+00
          4   -1    0    0  502    0  0.00000000000E+00  0.00000000000E+00  0.37473236052E+03  0.37473451259E+03  0.12700000000E+01 0.  1.
         -4   -1    0    0    0  501 -0.00000000000E+00 -0.00000000000E+00 -0.18431289395E+02  0.18474991982E+02  0.12700000000E+01 0.  1.
         25    2    1    2    0    0  0.25242605769E+02 -0.30784016215E+01  0.21788815825E+03  0.25247997620E+03  0.12499689266E+03 0.  0.
    9000005    1    3    3    0    0  0.34750246809E+02 -0.29177648244E+02  0.21997340322E+03  0.22460679628E+03  0.10000000000E+01 0.  0.
    9000005    1    3    3    0    0 -0.95076410407E+01  0.26099246622E+02 -0.20852449716E+01  0.27873179923E+02  0.10000000000E+01 0.  0.
         21    1    1    2  502  501 -0.25242605769E+02  0.30784016215E+01  0.13841291288E+03  0.14072952837E+03  0.00000000000E+00 0.  1.
<mgrwt>
<rscale>  1 0.12755739E+03</rscale>
<asrwt>0</asrwt>
<pdfrwt beam="1">  1        4 0.57654657E-01 0.12755739E+03</pdfrwt>
<pdfrwt beam="2">  1       -4 0.28391104E-02 0.12755739E+03</pdfrwt>
<totfact> 0.27493976E+03</totfact>
</mgrwt>
</event>
<event>
 6    4  0.1195577E-003  0.1273674E+03  0.7818608E-02  0.1231415E+00
          4   -1    0    0  502    0  0.00000000000E+00  0.00000000000E+00  0.82909621082E+02  0.82919347368E+02  0.12700000000E+01 0.  1.
         -4   -1    0    0    0  501 -0.00000000000E+00 -0.00000000000E+00 -0.16283946302E+03  0.16284441537E+03  0.12700000000E+01 0.  1.
         25    2    1    2    0    0  0.22822496524E+02 -0.87534060031E+01 -0.13494655558E+03  0.18556137704E+03  0.12499985329E+03 0.  0.
    9000005    1    3    3    0    0 -0.43328490707E+02  0.28050373249E+02 -0.56871068738E+02  0.76808202725E+02  0.10000000000E+01 0.  0.
    9000005    1    3    3    0    0  0.66150987231E+02 -0.36803779252E+02 -0.78075486838E+02  0.10875317432E+03  0.10000000000E+01 0.  0.
         21    1    1    2  502  501 -0.22822496524E+02  0.87534060031E+01  0.55016713636E+02  0.60202385697E+02  0.00000000000E+00 0.  1.
<mgrwt>
<rscale>  1 0.12736739E+03</rscale>
<asrwt>0</asrwt>
<pdfrwt beam="1">  1        4 0.12756455E-01 0.12736739E+03</pdfrwt>
<pdfrwt beam="2">  1       -4 0.25053354E-01 0.12736739E+03</pdfrwt>
<totfact> 0.12132316E+03</totfact>
</mgrwt>
</event>
<event>
 6    4  0.1195577E-003  0.1272599E+03  0.7818608E-02  0.1231579E+00
          4   -1    0    0  502    0  0.00000000000E+00  0.00000000000E+00  0.64365558115E+02  0.64378086112E+02  0.12700000000E+01 0. -1.
         -4   -1    0    0    0  501 -0.00000000000E+00 -0.00000000000E+00 -0.10453459079E+03  0.10454230517E+03  0.12700000000E+01 0. -1.
         25    2    1    2    0    0 -0.22124610658E+02 -0.89981266180E+01 -0.57262387493E+02  0.13954953058E+03  0.12499850313E+03 0.  0.
    9000005    1    3    3    0    0 -0.24028563974E+02  0.56302828322E+02 -0.20408866985E+02  0.64536053608E+02  0.10000000000E+01 0.  0.
    9000005    1    3    3    0    0  0.19039533153E+01 -0.65300954939E+02 -0.36853520508E+02  0.75013476976E+02  0.10000000000E+01 0.  0.
         21    1    1    2  502  501  0.22124610658E+02  0.89981266180E+01  0.17093354820E+02  0.29370860703E+02  0.00000000000E+00 0. -1.
<mgrwt>
<rscale>  1 0.12725993E+03</rscale>
<asrwt>0</asrwt>
<pdfrwt beam="1">  1        4 0.99039507E-02 0.12725993E+03</pdfrwt>
<pdfrwt beam="2">  1       -4 0.16083802E-01 0.12725993E+03</pdfrwt>
<totfact> 0.41369955E+03</totfact>
</mgrwt>
</event>
<event>
 6    4  0.1195577E-003  0.1278241E+03  0.7818608E-02  0.1230721E+00
          4   -1    0    0  502    0  0.00000000000E+00  0.00000000000E+00  0.12336752033E+02  0.12401949473E+02  0.12700000000E+01 0. -1.
         -4   -1    0    0    0  501 -0.00000000000E+00 -0.00000000000E+00 -0.48278426612E+03  0.48278593653E+03  0.12700000000E+01 0. -1.
         25    2    1    2    0    0 -0.26564912309E+02  0.26943933978E+01 -0.38486111352E+03  0.40553306860E+03  0.12500415476E+03 0.  0.
    9000005    1    3    3    0    0  0.28598632690E+02  0.44731838531E+02 -0.22660467831E+03  0.23274341968E+03  0.10000000000E+01 0.  0.
    9000005    1    3    3    0    0 -0.55163544999E+02 -0.42037445133E+02 -0.15825643521E+03  0.17278964892E+03  0.10000000000E+01 0.  0.
         21    1    1    2  502  501  0.26564912309E+02 -0.26943933978E+01 -0.85586400565E+02  0.89654817402E+02  0.00000000000E+00 0. -1.
<mgrwt>
<rscale>  1 0.12782407E+03</rscale>
<asrwt>0</asrwt>
<pdfrwt beam="1">  1        4 0.19031059E-02 0.12782407E+03</pdfrwt>
<pdfrwt beam="2">  1       -4 0.74279632E-01 0.12782407E+03</pdfrwt>
<totfact> 0.29785583E+03</totfact>
</mgrwt>
</event>
<event>
 6    4  0.1195577E-003  0.1303889E+03  0.7818608E-02  0.1226880E+00
         -4   -1    0    0    0  501 -0.00000000000E+00  0.00000000000E+00  0.28971395318E+03  0.28971673677E+03  0.12700000000E+01 0.  1.
          4   -1    0    0  502    0  0.00000000000E+00 -0.00000000000E+00 -0.26444832760E+02  0.26475310757E+02  0.12700000000E+01 0.  1.
         25    2    1    2    0    0  0.34990665619E+02 -0.12285345559E+02  0.23780792799E+03  0.27120817580E+03  0.12500395038E+03 0.  0.
    9000005    1    3    3    0    0  0.34032010173E+02 -0.58559053273E+02  0.71141360398E+02  0.98231530558E+02  0.10000000000E+01 0.  0.
    9000005    1    3    3    0    0  0.95865544611E+00  0.46273707714E+02  0.16666656759E+03  0.17297664524E+03  0.10000000000E+01 0.  0.
         21    1    1    2  502  501 -0.34990665619E+02  0.12285345559E+02  0.25461192427E+02  0.44983871729E+02  0.00000000000E+00 0.  1.
<mgrwt>
<rscale>  1 0.13038890E+03</rscale>
<asrwt>0</asrwt>
<pdfrwt beam="2">  1        4 0.40709943E-02 0.13038890E+03</pdfrwt>
<pdfrwt beam="1">  1       -4 0.44573937E-01 0.13038890E+03</pdfrwt>
<totfact> 0.26490513E+03</totfact>
</mgrwt>
</event>
<event>
 6    4  0.1195577E-003  0.1266333E+03  0.7818608E-02  0.1232539E+00
         -4   -1    0    0    0  501 -0.00000000000E+00  0.00000000000E+00  0.11312642194E+02  0.11383706488E+02  0.12700000000E+01 0.  1.
          4   -1    0    0  502    0  0.00000000000E+00 -0.00000000000E+00 -0.50748052016E+03  0.50748210928E+03  0.12700000000E+01 0.  1.
         25    2    1    2    0    0  0.20139418538E+02 -0.21658772610E+01 -0.36970962286E+03  0.39079561046E+03  0.12500286684E+03 0.  0.
    9000005    1    3    3    0    0  0.53051308988E+02  0.31529611176E+02 -0.10395641416E+03  0.12089869235E+03  0.10000000000E+01 0.  0.
    9000005    1    3    3    0    0 -0.32911890450E+02 -0.33695488437E+02 -0.26575320870E+03  0.26989691811E+03  0.10000000000E+01 0.  0.
         21    1    1    2  502  501 -0.20139418538E+02  0.21658772610E+01 -0.12645825510E+03  0.12807020531E+03  0.00000000000E+00 0.  1.
<mgrwt>
<rscale>  1 0.12663334E+03</rscale>
<asrwt>0</asrwt>
<pdfrwt beam="2">  1        4 0.78079497E-01 0.12663334E+03</pdfrwt>
<pdfrwt beam="1">  1       -4 0.17459956E-02 0.12663334E+03</pdfrwt>
<totfact> 0.30408407E+03</totfact>
</mgrwt>
</event>
<event>
 6    4  0.1195577E-003  0.1352946E+03  0.7818608E-02  0.1219804E+00
         -4   -1    0    0    0  501 -0.00000000000E+00  0.00000000000E+00  0.30167342151E+03  0.30167609475E+03  0.12700000000E+01 0. -1.
          4   -1    0    0  502    0  0.00000000000E+00 -0.00000000000E+00 -0.39491582862E+02  0.39511998393E+02  0.12700000000E+01 0. -1.
         25    2    1    2    0    0 -0.63146891878E+00 -0.51761806436E+02  0.25534415584E+03  0.28897279591E+03  0.12499982199E+03 0.  0.
    9000005    1    3    3    0    0 -0.30633312395E+01 -0.33990661991E+02  0.11684770349E+01  0.34163056647E+02  0.10000000000E+01 0.  0.
    9000005    1    3    3    0    0  0.24318623207E+01 -0.17771144445E+02  0.25417567880E+03  0.25480973927E+03  0.10000000000E+01 0.  0.
         21    1    1    2  502  501  0.63146891878E+00  0.51761806436E+02  0.68376828044E+01  0.52215297229E+02  0.00000000000E+00 0. -1.
<mgrwt>
<rscale>  1 0.13529464E+03</rscale>
<asrwt>0</asrwt>
<pdfrwt beam="2">  1        4 0.60774040E-02 0.13529464E+03</pdfrwt>
<pdfrwt beam="1">  1       -4 0.46413073E-01 0.13529464E+03</pdfrwt>
<totfact> 0.12937689E+03</totfact>
</mgrwt>
</event>
<event>
 6    4  0.1195577E-003  0.1414027E+03  0.7818608E-02  0.1211454E+00
          4   -1    0    0  502    0  0.00000000000E+00  0.00000000000E+00  0.34254124799E+02  0.34277659864E+02  0.12700000000E+01 0.  1.
         -4   -1    0    0    0  501 -0.00000000000E+00 -0.00000000000E+00 -0.43540408088E+03  0.43540593307E+03  0.12700000000E+01 0.  1.
         25    2    1    2    0    0  0.66082960649E+02  0.12948620086E+01 -0.37100476748E+03  0.39703810614E+03  0.12500434342E+03 0.  0.
    9000005    1    3    3    0    0  0.53741232274E+01  0.48791107313E+02 -0.64914811026E+02  0.81390331391E+02  0.10000000000E+01 0.  0.
    9000005    1    3    3    0    0  0.60708837422E+02 -0.47496245305E+02 -0.30608995645E+03  0.31564777474E+03  0.10000000000E+01 0.  0.
         21    1    1    2  502  501 -0.66082960649E+02 -0.12948620086E+01 -0.30145188603E+02  0.72645486795E+02  0.00000000000E+00 0.  1.
<mgrwt>
<rscale>  1 0.14140269E+03</rscale>
<asrwt>0</asrwt>
<pdfrwt beam="1">  1        4 0.52718185E-02 0.14140269E+03</pdfrwt>
<pdfrwt beam="2">  1       -4 0.66987192E-01 0.14140269E+03</pdfrwt>
<totfact> 0.76748001E+02</totfact>
</mgrwt>
</event>
<event>
 6    4  0.1195577E-003  0.1308358E+03  0.7818608E-02  0.1226221E+00
          4   -1    0    0  502    0  0.00000000000E+00  0.00000000000E+00  0.35149173782E+03  0.35149403218E+03  0.12700000000E+01 0.  1.
         -4   -1    0    0    0  501 -0.00000000000E+00 -0.00000000000E+00 -0.30232861085E+02  0.30259523945E+02  0.12700000000E+01 0.  1.
         25    2    1    2    0    0 -0.36713598195E+02 -0.12020667624E+02  0.12235641463E+03  0.17913427230E+03  0.12500244226E+03 0.  0.
    9000005    1    3    3    0    0  0.12005097690E+02  0.45643327515E+02  0.18420652601E+02  0.50673031875E+02  0.10000000000E+01 0.  0.
    9000005    1    3    3    0    0 -0.48718695885E+02 -0.57663995138E+02  0.10393576203E+03  0.12846124043E+03  0.10000000000E+01 0.  0.
         21    1    1    2  502  501  0.36713598195E+02  0.12020667624E+02  0.19890246211E+03  0.20261928382E+03  0.00000000000E+00 0.  1.
<mgrwt>
<rscale>  1 0.13083576E+03</rscale>
<asrwt>0</asrwt>
<pdfrwt beam="1">  1        4 0.54077883E-01 0.13083576E+03</pdfrwt>
<pdfrwt beam="2">  1       -4 0.46534366E-02 0.13083576E+03</pdfrwt>
<totfact> 0.14470607E+03</totfact>
</mgrwt>
</event>
<event>
 6    4  0.1195577E-003  0.1356412E+03  0.7818608E-02  0.1219317E+00
         -4   -1    0    0    0  501 -0.00000000000E+00  0.00000000000E+00  0.17378245807E+03  0.17378709858E+03  0.12700000000E+01 0. -1.
          4   -1    0    0  502    0  0.00000000000E+00 -0.00000000000E+00 -0.51517045639E+02  0.51532697304E+02  0.12700000000E+01 0. -1.
         25    2    1    2    0    0  0.70848359867E+01 -0.52188213974E+02  0.97952795637E+02  0.16731196957E+03  0.12499896163E+03 0.  0.
    9000005    1    3    3    0    0 -0.51289036272E+02 -0.32493101457E+02  0.12557097142E+02  0.62008447591E+02  0.10000000000E+01 0.  0.
    9000005    1    3    3    0    0  0.58373872258E+02 -0.19695112517E+02  0.85395698494E+02  0.10530352198E+03  0.10000000000E+01 0.  0.
         21    1    1    2  502  501 -0.70848359867E+01  0.52188213974E+02  0.24312616799E+02  0.58007826320E+02  0.00000000000E+00 0. -1.
<mgrwt>
<rscale>  1 0.13564124E+03</rscale>
<asrwt>0</asrwt>
<pdfrwt beam="2">  1        4 0.79272601E-02 0.13564124E+03</pdfrwt>
<pdfrwt beam="1">  1       -4 0.26737324E-01 0.13564124E+03</pdfrwt>
<totfact> 0.24316283E+03</totfact>
</mgrwt>
</event>
<event>
 6    4  0.1195577E-003  0.1267582E+03  0.7818608E-02  0.1232347E+00
          4   -1    0    0  502    0  0.00000000000E+00  0.00000000000E+00  0.12297022839E+04  0.12297029397E+04  0.12700000000E+01 0. -1.
         -4   -1    0    0    0  501 -0.00000000000E+00 -0.00000000000E+00 -0.47250815584E+01  0.48927799597E+01  0.12700000000E+01 0. -1.
         25    2    1    2    0    0  0.21004270678E+02 -0.89480106362E+00  0.89275724249E+03  0.90171123253E+03  0.12500269114E+03 0.  0.
    9000005    1    3    3    0    0  0.53320931091E+01  0.60789398215E+02  0.35606637336E+03  0.36125897136E+03  0.10000000000E+01 0.  0.
    9000005    1    3    3    0    0  0.15672177569E+02 -0.61684199278E+02  0.53669086913E+03  0.54045226116E+03  0.10000000000E+01 0.  0.
         21    1    1    2  502  501 -0.21004270678E+02  0.89480106362E+00  0.33221995986E+03  0.33288448715E+03  0.00000000000E+00 0. -1.
<mgrwt>
<rscale>  1 0.12675825E+03</rscale>
<asrwt>0</asrwt>
<pdfrwt beam="1">  1        4 0.18919787E+00 0.12675825E+03</pdfrwt>
<pdfrwt beam="2">  1       -4 0.73988612E-03 0.12675825E+03</pdfrwt>
<totfact> 0.12938098E+03</totfact>
</mgrwt>
</event>
<event>
 6    4  0.1195577E-003  0.1273270E+03  0.7818608E-02  0.1231477E+00
          4   -1    0    0  502    0  0.00000000000E+00  0.00000000000E+00  0.32240310088E+03  0.32240560224E+03  0.12700000000E+01 0. -1.
         -4   -1    0    0    0  501 -0.00000000000E+00 -0.00000000000E+00 -0.17846978807E+02  0.17892108667E+02  0.12700000000E+01 0. -1.
         25    2    1    2    0    0 -0.22036089341E+02 -0.10072342112E+02  0.24820520023E+03  0.27895875346E+03  0.12500049359E+03 0.  0.
    9000005    1    3    3    0    0 -0.52030713907E+02  0.32009474287E+02  0.19678234010E+03  0.20604875882E+03  0.10000000000E+01 0.  0.
    9000005    1    3    3    0    0  0.29994624566E+02 -0.42081816399E+02  0.51422860128E+02  0.72909994638E+02  0.10000000000E+01 0.  0.
         21    1    1    2  502  501  0.22036089341E+02  0.10072342112E+02  0.56350921844E+02  0.61338957455E+02  0.00000000000E+00 0.  1.
<mgrwt>
<rscale>  1 0.12732700E+03</rscale>
<asrwt>0</asrwt>
<pdfrwt beam="1">  1        4 0.49604141E-01 0.12732700E+03</pdfrwt>
<pdfrwt beam="2">  1       -4 0.27493530E-02 0.12732700E+03</pdfrwt>
<totfact> 0.39368711E+03</totfact>
</mgrwt>
</event>
<event>
 6    4  0.1195577E-003  0.1408779E+03  0.7818608E-02  0.1212153E+00
          4   -1    0    0  502    0  0.00000000000E+00  0.00000000000E+00  0.17532676530E+04  0.17532681130E+04  0.12700000000E+01 0. -1.
         -4   -1    0    0    0  501 -0.00000000000E+00 -0.00000000000E+00 -0.79665880667E+01  0.80671820002E+01  0.12700000000E+01 0. -1.
         25    2    1    2    0    0 -0.64847094221E+02 -0.40470400441E+01  0.70104652630E+03  0.71506139889E+03  0.12500019193E+03 0.  0.
    9000005    1    3    3    0    0 -0.19425928604E+02 -0.12764326586E+02  0.15500740398E+02  0.27956532120E+02  0.10000000000E+01 0.  0.
    9000005    1    3    3    0    0 -0.45421165617E+02  0.87172865417E+01  0.68554578590E+03  0.68710486677E+03  0.10000000000E+01 0.  0.
         21    1    1    2  502  501  0.64847094221E+02  0.40470400441E+01  0.10442545387E+04  0.10462738961E+04  0.00000000000E+00 0. -1.
<mgrwt>
<rscale>  1 0.14087786E+03</rscale>
<asrwt>0</asrwt>
<pdfrwt beam="1">  1        4 0.26974141E+00 0.14087786E+03</pdfrwt>
<pdfrwt beam="2">  1       -4 0.12334016E-02 0.14087786E+03</pdfrwt>
<totfact> 0.20305569E+02</totfact>
</mgrwt>
</event>
<event>
 6    4  0.1195577E-003  0.1320430E+03  0.7818608E-02  0.1224455E+00
          4   -1    0    0  502    0  0.00000000000E+00  0.00000000000E+00  0.11272191949E+03  0.11272907359E+03  0.12700000000E+01 0.  1.
         -4   -1    0    0    0  501 -0.00000000000E+00 -0.00000000000E+00 -0.69687025195E+02  0.69698596690E+02  0.12700000000E+01 0.  1.
         25    2    1    2    0    0  0.42378597260E+02  0.40300930711E+01  0.18608426068E+02  0.13334774052E+03  0.12499263668E+03 0.  0.
    9000005    1    3    3    0    0 -0.17764023304E+02  0.43660890094E+02 -0.20468199206E+02  0.51398258983E+02  0.10000000000E+01 0.  0.
    9000005    1    3    3    0    0  0.60142620564E+02 -0.39630797023E+02  0.39076625274E+02  0.81949481535E+02  0.10000000000E+01 0.  0.
         21    1    1    2  502  501 -0.42378597260E+02 -0.40300930711E+01  0.24426468225E+02  0.49079929766E+02  0.00000000000E+00 0. -1.
<mgrwt>
<rscale>  1 0.13204297E+03</rscale>
<asrwt>0</asrwt>
<pdfrwt beam="1">  1        4 0.17343274E-01 0.13204297E+03</pdfrwt>
<pdfrwt beam="2">  1       -4 0.10722521E-01 0.13204297E+03</pdfrwt>
<totfact> 0.31966426E+03</totfact>
</mgrwt>
</event>
<event>
 6    4  0.1195577E-003  0.1284059E+03  0.7818608E-02  0.1229840E+00
         -4   -1    0    0    0  501 -0.00000000000E+00  0.00000000000E+00  0.14685155644E+04  0.14685161136E+04  0.12700000000E+01 0.  1.
          4   -1    0    0  502    0  0.00000000000E+00 -0.00000000000E+00 -0.42065267846E+01  0.43940604900E+01  0.12700000000E+01 0.  1.
         25    2    1    2    0    0 -0.19522197691E+01  0.29313304925E+02  0.11154932596E+04  0.11228594235E+04  0.12499996638E+03 0.  0.
    9000005    1    3    3    0    0 -0.58390025026E+02 -0.96863784076E+01  0.46297090829E+03  0.46674005921E+03  0.10000000000E+01 0.  0.
    9000005    1    3    3    0    0  0.56437805256E+02  0.38999683332E+02  0.65252235132E+03  0.65611936424E+03  0.10000000000E+01 0.  0.
         21    1    1    2  502  501  0.19522197691E+01 -0.29313304925E+02  0.34881577802E+03  0.35005075061E+03  0.00000000000E+00 0.  1.
<mgrwt>
<rscale>  1 0.12840589E+03</rscale>
<asrwt>0</asrwt>
<pdfrwt beam="2">  1        4 0.66162667E-03 0.12840589E+03</pdfrwt>
<pdfrwt beam="1">  1       -4 0.22593967E+00 0.12840589E+03</pdfrwt>
<totfact> 0.91416723E+02</totfact>
</mgrwt>
</event>
<event>
 6    4  0.1195577E-003  0.1296269E+03  0.7818608E-02  0.1228010E+00
         -4   -1    0    0    0  501 -0.00000000000E+00  0.00000000000E+00  0.23602072075E+02  0.23636215988E+02  0.12700000000E+01 0.  1.
          4   -1    0    0  502    0  0.00000000000E+00 -0.00000000000E+00 -0.34533948771E+03  0.34534182294E+03  0.12700000000E+01 0.  1.
         25    2    1    2    0    0 -0.21712070878E+02  0.26574692140E+02 -0.17210260894E+03  0.21545864713E+03  0.12500196932E+03 0.  0.
    9000005    1    3    3    0    0 -0.23416583582E+02 -0.75426768362E+00 -0.18407083046E+03  0.18555855122E+03  0.10000000000E+01 0.  0.
    9000005    1    3    3    0    0  0.17045127036E+01  0.27328959824E+02  0.11968221520E+02  0.29900095903E+02  0.10000000000E+01 0.  0.
         21    1    1    2  502  501  0.21712070878E+02 -0.26574692140E+02 -0.14963480669E+03  0.15351939180E+03  0.00000000000E+00 0. -1.
<mgrwt>
<rscale>  1 0.12962685E+03</rscale>
<asrwt>0</asrwt>
<pdfrwt beam="2">  1        4 0.53131955E-01 0.12962685E+03</pdfrwt>
<pdfrwt beam="1">  1       -4 0.36338943E-02 0.12962685E+03</pdfrwt>
<totfact> 0.22183689E+03</totfact>
</mgrwt>
</event>
<event>
 6    4  0.1195577E-003  0.1374129E+03  0.7818608E-02  0.1216853E+00
         -4   -1    0    0    0  501 -0.00000000000E+00  0.00000000000E+00  0.18330711678E+02  0.18374653483E+02  0.12700000000E+01 0. -1.
          4   -1    0    0  502    0  0.00000000000E+00 -0.00000000000E+00 -0.56239633621E+03  0.56239777016E+03  0.12700000000E+01 0. -1.
         25    2    1    2    0    0 -0.45274764416E+02  0.34736927677E+02 -0.29769033424E+03  0.32787473266E+03  0.12500338708E+03 0.  0.
    9000005    1    3    3    0    0  0.14784882839E+02  0.57876994994E+02 -0.21463444802E+03  0.22279426740E+03  0.10000000000E+01 0.  0.
    9000005    1    3    3    0    0 -0.60059647256E+02 -0.23140067317E+02 -0.83055886221E+02  0.10508046526E+03  0.10000000000E+01 0.  0.
         21    1    1    2  502  501  0.45274764416E+02 -0.34736927677E+02 -0.24637529029E+03  0.25289769098E+03  0.00000000000E+00 0. -1.
<mgrwt>
<rscale>  1 0.13741290E+03</rscale>
<asrwt>0</asrwt>
<pdfrwt beam="2">  1        4 0.86525990E-01 0.13741290E+03</pdfrwt>
<pdfrwt beam="1">  1       -4 0.28236004E-02 0.13741290E+03</pdfrwt>
<totfact> 0.11726633E+03</totfact>
</mgrwt>
</event>
<event>
 6    4  0.1195577E-003  0.1493863E+03  0.7818608E-02  0.1201229E+00
         -4   -1    0    0    0  501 -0.00000000000E+00  0.00000000000E+00  0.28478066531E+03  0.28478349712E+03  0.12700000000E+01 0.  1.
          4   -1    0    0  502    0  0.00000000000E+00 -0.00000000000E+00 -0.73365197448E+02  0.73376188894E+02  0.12700000000E+01 0.  1.
         25    2    1    2    0    0 -0.77930390869E+00  0.81793012158E+02  0.23002117145E+03  0.27427359445E+03  0.12500224455E+03 0.  0.
    9000005    1    3    3    0    0  0.13879444346E+02  0.21001629139E+02  0.20559230610E+03  0.20713016132E+03  0.10000000000E+01 0.  0.
    9000005    1    3    3    0    0 -0.14658748255E+02  0.60791383018E+02  0.24428865351E+02  0.67143433126E+02  0.10000000000E+01 0.  0.
         21    1    1    2  502  501  0.77930390869E+00 -0.81793012158E+02 -0.18605703591E+02  0.83886091568E+02  0.00000000000E+00 0.  1.
<mgrwt>
<rscale>  1 0.14938630E+03</rscale>
<asrwt>0</asrwt>
<pdfrwt beam="2">  1        4 0.11288017E-01 0.14938630E+03</pdfrwt>
<pdfrwt beam="1">  1       -4 0.43813474E-01 0.14938630E+03</pdfrwt>
<totfact> 0.52887760E+02</totfact>
</mgrwt>
</event>
<event>
 6    4  0.1195577E-003  0.1401045E+03  0.7818608E-02  0.1213188E+00
         -4   -1    0    0    0  501 -0.00000000000E+00  0.00000000000E+00  0.44229494663E+03  0.44229676995E+03  0.12700000000E+01 0.  1.
          4   -1    0    0  502    0  0.00000000000E+00 -0.00000000000E+00 -0.23690655049E+02  0.23724671476E+02  0.12700000000E+01 0.  1.
         25    2    1    2    0    0 -0.36453749769E+02 -0.51730067503E+02  0.26187536775E+03  0.29699827343E+03  0.12499756170E+03 0.  0.
    9000005    1    3    3    0    0 -0.20996202600E+02 -0.90999736047E+02  0.21196831676E+03  0.23163194900E+03  0.10000000000E+01 0.  0.
    9000005    1    3    3    0    0 -0.15457547170E+02  0.39269668544E+02  0.49907050988E+02  0.65366324436E+02  0.10000000000E+01 0.  0.
         21    1    1    2  502  501  0.36453749769E+02  0.51730067503E+02  0.15672892383E+03  0.16902316800E+03  0.00000000000E+00 0.  1.
<mgrwt>
<rscale>  1 0.14010448E+03</rscale>
<asrwt>0</asrwt>
<pdfrwt beam="2">  1        4 0.36474728E-02 0.14010448E+03</pdfrwt>
<pdfrwt beam="1">  1       -4 0.68048137E-01 0.14010448E+03</pdfrwt>
<totfact> 0.13340025E+03</totfact>
</mgrwt>
</event>
<event>
 6    4  0.1195577E-003  0.1269698E+03  0.7818608E-02  0.1232023E+00
          4   -1    0    0  502    0  0.00000000000E+00  0.00000000000E+00  0.99313045877E+01  0.10012178125E+02  0.12700000000E+01 0.  1.
         -4   -1    0    0    0  501 -0.00000000000E+00 -0.00000000000E+00 -0.59130310121E+03  0.59130446506E+03  0.12700000000E+01 0.  1.
         25    2    1    2    0    0 -0.19444625752E+01 -0.22193726072E+02 -0.53514483091E+03  0.55000119940E+03  0.12499994753E+03 0.  0.
    9000005    1    3    3    0    0  0.26972615704E+01  0.38824174013E+02 -0.39702319810E+03  0.39892732614E+03  0.10000000000E+01 0.  0.
    9000005    1    3    3    0    0 -0.46417241456E+01 -0.61017900085E+02 -0.13812163280E+03  0.15107387326E+03  0.10000000000E+01 0.  0.
         21    1    1    2  502  501  0.19444625752E+01  0.22193726072E+02 -0.46226965711E+02  0.51315443782E+02  0.00000000000E+00 0.  1.
<mgrwt>
<rscale>  1 0.12696980E+03</rscale>
<asrwt>0</asrwt>
<pdfrwt beam="1">  1        4 0.15342194E-02 0.12696980E+03</pdfrwt>
<pdfrwt beam="2">  1       -4 0.90976006E-01 0.12696980E+03</pdfrwt>
<totfact> 0.26367747E+03</totfact>
</mgrwt>
</event>
<event>
 6    4  0.1195577E-003  0.1300329E+03  0.7818608E-02  0.1227407E+00
         -4   -1    0    0    0  501 -0.00000000000E+00  0.00000000000E+00  0.23094035688E+03  0.23094384888E+03  0.12700000000E+01 0. -1.
          4   -1    0    0  502    0  0.00000000000E+00 -0.00000000000E+00 -0.33733640739E+02  0.33757538677E+02  0.12700000000E+01 0. -1.
         25    2    1    2    0    0  0.14340238316E+02  0.32820732969E+02  0.18642952277E+03  0.22729830153E+03  0.12500283185E+03 0.  0.
    9000005    1    3    3    0    0  0.75016314172E-01 -0.42451295455E+02  0.26744791013E+02  0.50183682204E+02  0.10000000000E+01 0.  0.
    9000005    1    3    3    0    0  0.14265222002E+02  0.75272028424E+02  0.15968473176E+03  0.17711461932E+03  0.10000000000E+01 0.  0.
         21    1    1    2  502  501 -0.14340238316E+02 -0.32820732969E+02  0.10777193373E+02  0.37403086030E+02  0.00000000000E+00 0. -1.
<mgrwt>
<rscale>  1 0.13003288E+03</rscale>
<asrwt>0</asrwt>
<pdfrwt beam="2">  1        4 0.51918977E-02 0.13003288E+03</pdfrwt>
<pdfrwt beam="1">  1       -4 0.35531393E-01 0.13003288E+03</pdfrwt>
<totfact> 0.28015504E+03</totfact>
</mgrwt>
</event>
<event>
 6    4  0.1195577E-003  0.1283969E+03  0.7818608E-02  0.1229854E+00
          4   -1    0    0  502    0  0.00000000000E+00  0.00000000000E+00  0.18203850294E+03  0.18204293299E+03  0.12700000000E+01 0.  1.
         -4   -1    0    0    0  501 -0.00000000000E+00 -0.00000000000E+00 -0.45327531534E+02  0.45345319659E+02  0.12700000000E+01 0.  1.
         25    2    1    2    0    0 -0.16536177859E+02  0.24230617346E+02  0.53391596945E+02  0.13905543794E+03  0.12500073680E+03 0.  0.
    9000005    1    3    3    0    0 -0.21162765558E+02  0.55430257459E+02 -0.17156206615E+02  0.61771445777E+02  0.10000000000E+01 0.  0.
    9000005    1    3    3    0    0  0.46265876996E+01 -0.31199640112E+02  0.70547803559E+02  0.77283992158E+02  0.10000000000E+01 0.  0.
         21    1    1    2  502  501  0.16536177859E+02 -0.24230617346E+02  0.83319374458E+02  0.88332814713E+02  0.00000000000E+00 0.  1.
<mgrwt>
<rscale>  1 0.12839685E+03</rscale>
<asrwt>0</asrwt>
<pdfrwt beam="1">  1        4 0.28007633E-01 0.12839685E+03</pdfrwt>
<pdfrwt beam="2">  1       -4 0.69751753E-02 0.12839685E+03</pdfrwt>
<totfact> 0.27181394E+03</totfact>
</mgrwt>
</event>
<event>
 6    4  0.1195577E-003  0.1292186E+03  0.7818608E-02  0.1228620E+00
         -4   -1    0    0    0  501 -0.00000000000E+00  0.00000000000E+00  0.25264194463E+02  0.25296094993E+02  0.12700000000E+01 0. -1.
          4   -1    0    0  502    0  0.00000000000E+00 -0.00000000000E+00 -0.26540760538E+03  0.26541064389E+03  0.12700000000E+01 0. -1.
         25    2    1    2    0    0  0.28547904359E+02  0.16073078657E+02 -0.17234025267E+03  0.21540338592E+03  0.12499651704E+03 0.  0.
    9000005    1    3    3    0    0 -0.48525730531E+01 -0.52567869665E+02 -0.74096050481E+02  0.90984356255E+02  0.10000000000E+01 0.  0.
    9000005    1    3    3    0    0  0.33400477412E+02  0.68640948322E+02 -0.98244202194E+02  0.12441902966E+03  0.10000000000E+01 0.  0.
         21    1    1    2  502  501 -0.28547904359E+02 -0.16073078657E+02 -0.67803158240E+02  0.75303352967E+02  0.00000000000E+00 0.  1.
<mgrwt>
<rscale>  1 0.12921864E+03</rscale>
<asrwt>0</asrwt>
<pdfrwt beam="2">  1        4 0.40834625E-01 0.12921864E+03</pdfrwt>
<pdfrwt beam="1">  1       -4 0.38894870E-02 0.12921864E+03</pdfrwt>
<totfact> 0.33815090E+03</totfact>
</mgrwt>
</event>
<event>
 6    4  0.1195577E-003  0.1277247E+03  0.7818608E-02  0.1230871E+00
          4   -1    0    0  502    0  0.00000000000E+00  0.00000000000E+00  0.77008859734E+02  0.77019331194E+02  0.12700000000E+01 0. -1.
         -4   -1    0    0    0  501 -0.00000000000E+00 -0.00000000000E+00 -0.77438907415E+02  0.77449320731E+02  0.12700000000E+01 0. -1.
         25    2    1    2    0    0  0.18325014215E+02  0.18792668120E+02  0.43026899283E+01  0.12779714416E+03  0.12499850557E+03 0.  0.
    9000005    1    3    3    0    0  0.89288537152E+00 -0.49235953274E+02 -0.20447766358E+02  0.53329986763E+02  0.10000000000E+01 0.  0.
    9000005    1    3    3    0    0  0.17432128843E+02  0.68028621394E+02  0.24750456286E+02  0.74467157399E+02  0.10000000000E+01 0.  0.
         21    1    1    2  502  501 -0.18325014215E+02 -0.18792668120E+02 -0.47327376093E+01  0.26671507762E+02  0.00000000000E+00 0. -1.
<mgrwt>
<rscale>  1 0.12772469E+03</rscale>
<asrwt>0</asrwt>
<pdfrwt beam="1">  1        4 0.11849123E-01 0.12772469E+03</pdfrwt>
<pdfrwt beam="2">  1       -4 0.11915285E-01 0.12772469E+03</pdfrwt>
<totfact> 0.51366384E+03</totfact>
</mgrwt>
</event>
<event>
 6    4  0.1195577E-003  0.2535445E+03  0.7818608E-02  0.1111085E+00
         -4   -1    0    0    0  501 -0.00000000000E+00  0.00000000000E+00  0.62539102622E+02  0.62551996425E+02  0.12700000000E+01 0.  1.
          4   -1    0    0  502    0  0.00000000000E+00 -0.00000000000E+00 -0.89859822259E+03  0.89859912004E+03  0.12700000000E+01 0.  1.
         25    2    1    2    0    0 -0.19959061939E+03  0.93935392947E+02 -0.45064319040E+03  0.51707261872E+03  0.12499813830E+03 0.  0.
    9000005    1    3    3    0    0 -0.16970518178E+02 -0.28021903886E+02 -0.43299908571E+02  0.54305687243E+02  0.10000000000E+01 0.  0.
    9000005    1    3    3    0    0 -0.18262010121E+03  0.12195729683E+03 -0.40734328183E+03  0.46276693148E+03  0.10000000000E+01 0.  0.
         21    1    1    2  502  501  0.19959061939E+03 -0.93935392947E+02 -0.38541592957E+03  0.44407849775E+03  0.00000000000E+00 0.  1.
<mgrwt>
<rscale>  1 0.25354449E+03</rscale>
<asrwt>0</asrwt>
<pdfrwt beam="2">  1        4 0.13824693E+00 0.25354449E+03</pdfrwt>
<pdfrwt beam="1">  1       -4 0.96224619E-02 0.25354449E+03</pdfrwt>
<totfact> 0.57759954E+01</totfact>
</mgrwt>
</event>
<event>
 6    4  0.1195577E-003  0.1306255E+03  0.7818608E-02  0.1226530E+00
          4   -1    0    0  502    0  0.00000000000E+00  0.00000000000E+00  0.37888766902E+03  0.37888979748E+03  0.12700000000E+01 0.  1.
         -4   -1    0    0    0  501 -0.00000000000E+00 -0.00000000000E+00 -0.19317099082E+02  0.19358802054E+02  0.12700000000E+01 0.  1.
         25    2    1    2    0    0 -0.31647748693E+02 -0.20871806720E+02  0.24619056020E+03  0.27869844721E+03  0.12500328088E+03 0.  0.
    9000005    1    3    3    0    0  0.13647783968E+01 -0.56383511182E+02  0.21196140351E+03  0.21933900595E+03  0.10000000000E+01 0.  0.
    9000005    1    3    3    0    0 -0.33012527090E+02  0.35511704461E+02  0.34229156685E+02  0.59359441254E+02  0.10000000000E+01 0.  0.
         21    1    1    2  502  501  0.31647748693E+02  0.20871806720E+02  0.11338000974E+03  0.11955015233E+03  0.00000000000E+00 0.  1.
<mgrwt>
<rscale>  1 0.13062554E+03</rscale>
<asrwt>0</asrwt>
<pdfrwt beam="1">  1        4 0.58293780E-01 0.13062554E+03</pdfrwt>
<pdfrwt beam="2">  1       -4 0.29752332E-02 0.13062554E+03</pdfrwt>
<totfact> 0.25114537E+03</totfact>
</mgrwt>
</event>
<event>
 6    4  0.1195577E-003  0.1273340E+03  0.7818608E-02  0.1231466E+00
         -4   -1    0    0    0  501 -0.00000000000E+00  0.00000000000E+00  0.13334918127E+04  0.13334924175E+04  0.12700000000E+01 0. -1.
          4   -1    0    0  502    0  0.00000000000E+00 -0.00000000000E+00 -0.50251318985E+01  0.51831313506E+01  0.12700000000E+01 0. -1.
         25    2    1    2    0    0  0.23951963822E+02  0.38934615017E+01  0.12518137826E+04  0.12582732950E+04  0.12500033214E+03 0.  0.
    9000005    1    3    3    0    0  0.16858622423E+02  0.59275125576E+02  0.89462707514E+03  0.89674765527E+03  0.10000000000E+01 0.  0.
    9000005    1    3    3    0    0  0.70933413984E+01 -0.55381664075E+02  0.35718670748E+03  0.36152563977E+03  0.10000000000E+01 0.  0.
         21    1    1    2  502  501 -0.23951963822E+02 -0.38934615017E+01  0.76652898235E+02  0.80402253832E+02  0.00000000000E+00 0. -1.
<mgrwt>
<rscale>  1 0.12733397E+03</rscale>
<asrwt>0</asrwt>
<pdfrwt beam="2">  1        4 0.78529700E-03 0.12733397E+03</pdfrwt>
<pdfrwt beam="1">  1       -4 0.20516493E+00 0.12733397E+03</pdfrwt>
<totfact> 0.94192348E+02</totfact>
</mgrwt>
</event>
<event>
 6    4  0.1195577E-003  0.1268122E+03  0.7818608E-02  0.1232264E+00
         -4   -1    0    0    0  501 -0.00000000000E+00  0.00000000000E+00  0.74494775685E+01  0.75569581211E+01  0.12700000000E+01 0.  1.
          4   -1    0    0  502    0  0.00000000000E+00 -0.00000000000E+00 -0.73212185819E+03  0.73212295971E+03  0.12700000000E+01 0.  1.
         25    2    1    2    0    0 -0.18857639221E+02 -0.10009194030E+02 -0.62863621604E+03  0.64129933322E+03  0.12500219256E+03 0.  0.
    9000005    1    3    3    0    0  0.51180087531E+02  0.60111235988E+01 -0.33830932038E+03  0.34221299102E+03  0.10000000000E+01 0.  0.
    9000005    1    3    3    0    0 -0.70037726752E+02 -0.16020317629E+02 -0.29032689566E+03  0.29908634220E+03  0.10000000000E+01 0.  0.
         21    1    1    2  502  501  0.18857639221E+02  0.10009194030E+02 -0.96036164574E+02  0.98380584609E+02  0.00000000000E+00 0. -1.
<mgrwt>
<rscale>  1 0.12681223E+03</rscale>
<asrwt>0</asrwt>
<pdfrwt beam="2">  1        4 0.11264243E+00 0.12681223E+03</pdfrwt>
<pdfrwt beam="1">  1       -4 0.11544265E-02 0.12681223E+03</pdfrwt>
<totfact> 0.24752701E+03</totfact>
</mgrwt>
</event>
<event>
 6    4  0.1195577E-003  0.1283510E+03  0.7818608E-02  0.1229923E+00
          4   -1    0    0  502    0  0.00000000000E+00  0.00000000000E+00  0.19686315039E+02  0.19727237511E+02  0.12700000000E+01 0.  1.
         -4   -1    0    0    0  501 -0.00000000000E+00 -0.00000000000E+00 -0.31549099338E+03  0.31549354955E+03  0.12700000000E+01 0.  1.
         25    2    1    2    0    0 -0.78318948681E+01  0.28066963775E+02 -0.23393191872E+03  0.26682976852E+03  0.12499955896E+03 0.  0.
    9000005    1    3    3    0    0 -0.19763093686E+02  0.75888073937E+02 -0.15622042367E+03  0.17480103092E+03  0.10000000000E+01 0.  0.
    9000005    1    3    3    0    0  0.11931198817E+02 -0.47821110162E+02 -0.77711495048E+02  0.92028737604E+02  0.10000000000E+01 0.  0.
         21    1    1    2  502  501  0.78318948681E+01 -0.28066963775E+02 -0.61872759624E+02  0.68391018535E+02  0.00000000000E+00 0.  1.
<mgrwt>
<rscale>  1 0.12835101E+03</rscale>
<asrwt>0</asrwt>
<pdfrwt beam="1">  1        4 0.30320086E-02 0.12835101E+03</pdfrwt>
<pdfrwt beam="2">  1       -4 0.48540417E-01 0.12835101E+03</pdfrwt>
<totfact> 0.35377243E+03</totfact>
</mgrwt>
</event>
<event>
 6    4  0.1195577E-003  0.1266972E+03  0.7818608E-02  0.1232440E+00
          4   -1    0    0  502    0  0.00000000000E+00  0.00000000000E+00  0.92418752965E+01  0.93287276194E+01  0.12700000000E+01 0. -1.
         -4   -1    0    0    0  501 -0.00000000000E+00 -0.00000000000E+00 -0.58460879305E+03  0.58461017252E+03  0.12700000000E+01 0. -1.
         25    2    1    2    0    0  0.12769939056E+02 -0.16250023967E+02 -0.49498443697E+03  0.51094204575E+03  0.12500018657E+03 0.  0.
    9000005    1    3    3    0    0 -0.44051668575E+02  0.19460640782E+02 -0.31856587606E+03  0.32218703176E+03  0.10000000000E+01 0.  0.
    9000005    1    3    3    0    0  0.56821607631E+02 -0.35710664749E+02 -0.17641856091E+03  0.18875501399E+03  0.10000000000E+01 0.  0.
         21    1    1    2  502  501 -0.12769939056E+02  0.16250023967E+02 -0.80382480781E+02  0.82996854392E+02  0.00000000000E+00 0. -1.
<mgrwt>
<rscale>  1 0.12669720E+03</rscale>
<asrwt>0</asrwt>
<pdfrwt beam="1">  1        4 0.14286145E-02 0.12669720E+03</pdfrwt>
<pdfrwt beam="2">  1       -4 0.89946573E-01 0.12669720E+03</pdfrwt>
<totfact> 0.30140819E+03</totfact>
</mgrwt>
</event>
<event>
 6    4  0.1195577E-003  0.1266449E+03  0.7818608E-02  0.1232521E+00
          4   -1    0    0  502    0  0.00000000000E+00  0.00000000000E+00  0.15114757357E+01  0.19741982929E+01  0.12700000000E+01 0.  1.
         -4   -1    0    0    0  501 -0.00000000000E+00 -0.00000000000E+00 -0.35581961430E+04  0.35581963697E+04  0.12700000000E+01 0.  1.
         25    2    1    2    0    0 -0.20153694138E+02  0.28580997116E+01 -0.33701197490E+04  0.33724984900E+04  0.12499840855E+03 0.  0.
    9000005    1    3    3    0    0 -0.68879810609E+02 -0.53423014451E+01 -0.25172112202E+04  0.25181593070E+04  0.10000000000E+01 0.  0.
    9000005    1    3    3    0    0  0.48726116471E+02  0.82004011567E+01 -0.85290852886E+03  0.85433918300E+03  0.10000000000E+01 0.  0.
         21    1    1    2  502  501  0.20153694138E+02 -0.28580997116E+01 -0.18656491826E+03  0.18767207796E+03  0.00000000000E+00 0.  1.
<mgrwt>
<rscale>  1 0.12664495E+03</rscale>
<asrwt>0</asrwt>
<pdfrwt beam="1">  1        4 0.26814905E-03 0.12664495E+03</pdfrwt>
<pdfrwt beam="2">  1       -4 0.54744459E+00 0.12664495E+03</pdfrwt>
<totfact> 0.25495251E+01</totfact>
</mgrwt>
</event>
<event>
 6    4  0.1195577E-003  0.1272488E+03  0.7818608E-02  0.1231596E+00
         -4   -1    0    0    0  501 -0.00000000000E+00  0.00000000000E+00  0.13221871965E+02  0.13282725559E+02  0.12700000000E+01 0. -1.
          4   -1    0    0  502    0  0.00000000000E+00 -0.00000000000E+00 -0.43698454241E+03  0.43698638790E+03  0.12700000000E+01 0. -1.
         25    2    1    2    0    0  0.68527096336E+01  0.22775696376E+02 -0.33431325109E+03  0.35771161458E+03  0.12500622935E+03 0.  0.
    9000005    1    3    3    0    0  0.61237941302E+02  0.36276783004E+02 -0.18386364676E+03  0.19716219475E+03  0.10000000000E+01 0.  0.
    9000005    1    3    3    0    0 -0.54385231668E+02 -0.13501086628E+02 -0.15044960433E+03  0.16054941983E+03  0.10000000000E+01 0.  0.
         21    1    1    2  502  501 -0.68527096336E+01 -0.22775696376E+02 -0.89449419360E+02  0.92557498878E+02  0.00000000000E+00 0.  1.
<mgrwt>
<rscale>  1 0.12724877E+03</rscale>
<asrwt>0</asrwt>
<pdfrwt beam="2">  1        4 0.67233203E-01 0.12724877E+03</pdfrwt>
<pdfrwt beam="1">  1       -4 0.20389575E-02 0.12724877E+03</pdfrwt>
<totfact> 0.33183367E+03</totfact>
</mgrwt>
</event>
<event>
 6    4  0.1195577E-003  0.1313735E+03  0.7818608E-02  0.1225432E+00
          4   -1    0    0  502    0  0.00000000000E+00  0.00000000000E+00  0.32212925729E+02  0.32237950990E+02  0.12700000000E+01 0.  1.
         -4   -1    0    0    0  501 -0.00000000000E+00 -0.00000000000E+00 -0.25357628701E+03  0.25357946730E+03  0.12700000000E+01 0.  1.
         25    2    1    2    0    0 -0.11582426667E+02 -0.38724389753E+02 -0.20208986113E+03  0.24103797236E+03  0.12500104471E+03 0.  0.
    9000005    1    3    3    0    0 -0.57370559030E+02  0.74102535729E+01 -0.53292269064E+02  0.78659766358E+02  0.10000000000E+01 0.  0.
    9000005    1    3    3    0    0  0.45788132362E+02 -0.46134643326E+02 -0.14879759207E+03  0.16237820600E+03  0.10000000000E+01 0.  0.
         21    1    1    2  502  501  0.11582426667E+02  0.38724389753E+02 -0.19273500152E+02  0.44779445925E+02  0.00000000000E+00 0.  1.
<mgrwt>
<rscale>  1 0.13137348E+03</rscale>
<asrwt>0</asrwt>
<pdfrwt beam="1">  1        4 0.49580045E-02 0.13137348E+03</pdfrwt>
<pdfrwt beam="2">  1       -4 0.39013905E-01 0.13137348E+03</pdfrwt>
<totfact> 0.25213908E+03</totfact>
</mgrwt>
</event>
<event>
 6    4  0.1195577E-003  0.1278820E+03  0.7818608E-02  0.1230633E+00
          4   -1    0    0  502    0  0.00000000000E+00  0.00000000000E+00  0.20081396341E+02  0.20121515326E+02  0.12700000000E+01 0. -1.
         -4   -1    0    0    0  501 -0.00000000000E+00 -0.00000000000E+00 -0.48709766754E+03  0.48709932316E+03  0.12700000000E+01 0. -1.
         25    2    1    2    0    0 -0.36524000542E+01  0.26764097481E+02 -0.46247437685E+03  0.47982949415E+03  0.12499654905E+03 0.  0.
    9000005    1    3    3    0    0 -0.60766087064E+02  0.34824569905E+02 -0.24203580841E+03  0.25196745933E+03  0.10000000000E+01 0.  0.
    9000005    1    3    3    0    0  0.57113687009E+02 -0.80604724235E+01 -0.22043856843E+03  0.22786203482E+03  0.10000000000E+01 0.  0.
         21    1    1    2  502  501  0.36524000542E+01 -0.26764097481E+02 -0.45418943479E+01  0.27391344334E+02  0.00000000000E+00 0. -1.
<mgrwt>
<rscale>  1 0.12788195E+03</rscale>
<asrwt>0</asrwt>
<pdfrwt beam="1">  1        4 0.30926594E-02 0.12788195E+03</pdfrwt>
<pdfrwt beam="2">  1       -4 0.74941308E-01 0.12788195E+03</pdfrwt>
<totfact> 0.13762170E+03</totfact>
</mgrwt>
</event>
<event>
 6    4  0.1195577E-003  0.1301486E+03  0.7818608E-02  0.1227235E+00
          4   -1    0    0  502    0  0.00000000000E+00  0.00000000000E+00  0.23475172681E+03  0.23475516212E+03  0.12700000000E+01 0. -1.
         -4   -1    0    0    0  501 -0.00000000000E+00 -0.00000000000E+00 -0.65371600164E+02  0.65383935397E+02  0.12700000000E+01 0. -1.
         25    2    1    2    0    0 -0.22885964954E+02 -0.28102578381E+02  0.33419715245E+01  0.13019148423E+03  0.12500052596E+03 0.  0.
    9000005    1    3    3    0    0  0.21849850017E+02 -0.16500744331E+02  0.54648170840E+02  0.61131931798E+02  0.10000000000E+01 0.  0.
    9000005    1    3    3    0    0 -0.44735814971E+02 -0.11601834050E+02 -0.51306199315E+02  0.69059552435E+02  0.10000000000E+01 0.  0.
         21    1    1    2  502  501  0.22885964954E+02  0.28102578381E+02  0.16603815512E+03  0.16994761328E+03  0.00000000000E+00 0. -1.
<mgrwt>
<rscale>  1 0.13014858E+03</rscale>
<asrwt>0</asrwt>
<pdfrwt beam="1">  1        4 0.36116863E-01 0.13014858E+03</pdfrwt>
<pdfrwt beam="2">  1       -4 0.10058383E-01 0.13014858E+03</pdfrwt>
<totfact> 0.91496108E+02</totfact>
</mgrwt>
</event>
<event>
 6    4  0.1195577E-003  0.1283602E+03  0.7818608E-02  0.1229909E+00
          4   -1    0    0  502    0  0.00000000000E+00  0.00000000000E+00  0.16725074846E+02  0.16773223560E+02  0.12700000000E+01 0. -1.
         -4   -1    0    0    0  501 -0.00000000000E+00 -0.00000000000E+00 -0.37140010787E+03  0.37140227925E+03  0.12700000000E+01 0. -1.
         25    2    1    2    0    0  0.75746669388E+01  0.28191807329E+02 -0.29628617580E+03  0.32289600964E+03  0.12499672592E+03 0.  0.
    9000005    1    3    3    0    0  0.20068132049E+02  0.27578792563E+02 -0.30545488138E+03  0.30735485076E+03  0.10000000000E+01 0.  0.
    9000005    1    3    3    0    0 -0.12493465110E+02  0.61301476602E+00  0.91687055778E+01  0.15541158886E+02  0.10000000000E+01 0.  0.
         21    1    1    2  502  501 -0.75746669388E+01 -0.28191807329E+02 -0.58388857225E+02  0.65279493164E+02  0.00000000000E+00 0. -1.
<mgrwt>
<rscale>  1 0.12836018E+03</rscale>
<asrwt>0</asrwt>
<pdfrwt beam="1">  1        4 0.25769595E-02 0.12836018E+03</pdfrwt>
<pdfrwt beam="2">  1       -4 0.57142343E-01 0.12836018E+03</pdfrwt>
<totfact> 0.32620076E+03</totfact>
</mgrwt>
</event>
<event>
 6    4  0.1195577E-003  0.1283477E+03  0.7818608E-02  0.1229928E+00
         -4   -1    0    0    0  501 -0.00000000000E+00  0.00000000000E+00  0.11753112806E+03  0.11753798944E+03  0.12700000000E+01 0. -1.
          4   -1    0    0  502    0  0.00000000000E+00 -0.00000000000E+00 -0.12097437981E+03  0.12098104592E+03  0.12700000000E+01 0. -1.
         25    2    1    2    0    0  0.12539237656E+02  0.26280637434E+02  0.79253704120E+02  0.15084525994E+03  0.12500095378E+03 0.  0.
    9000005    1    3    3    0    0  0.31314648065E+02  0.70651860788E+02  0.63857672833E+02  0.10025514947E+03  0.10000000000E+01 0.  0.
    9000005    1    3    3    0    0 -0.18775410409E+02 -0.44371223354E+02  0.15396031287E+02  0.50590110470E+02  0.10000000000E+01 0.  0.
         21    1    1    2  502  501 -0.12539237656E+02 -0.26280637434E+02 -0.82696955877E+02  0.87673775419E+02  0.00000000000E+00 0. -1.
<mgrwt>
<rscale>  1 0.12834774E+03</rscale>
<asrwt>0</asrwt>
<pdfrwt beam="2">  1        4 0.18612484E-01 0.12834774E+03</pdfrwt>
<pdfrwt beam="1">  1       -4 0.18082753E-01 0.12834774E+03</pdfrwt>
<totfact> 0.11323796E+03</totfact>
</mgrwt>
</event>
<event>
 6    4  0.1195577E-003  0.1300915E+03  0.7818608E-02  0.1227320E+00
         -4   -1    0    0    0  501 -0.00000000000E+00  0.00000000000E+00  0.15388205097E+03  0.15388729159E+03  0.12700000000E+01 0.  1.
          4   -1    0    0  502    0  0.00000000000E+00 -0.00000000000E+00 -0.46169680674E+02  0.46187144462E+02  0.12700000000E+01 0.  1.
         25    2    1    2    0    0 -0.48368840270E+01 -0.35714077750E+02  0.97628165186E+02  0.16265008583E+03  0.12499960394E+03 0.  0.
    9000005    1    3    3    0    0  0.26041866938E+02 -0.47394882051E+02  0.11370655215E+03  0.12591518447E+03  0.10000000000E+01 0.  0.
    9000005    1    3    3    0    0 -0.30878750965E+02  0.11680804301E+02 -0.16078386964E+02  0.36734901357E+02  0.10000000000E+01 0.  0.
         21    1    1    2  502  501  0.48368840270E+01  0.35714077750E+02  0.10084205113E+02  0.37424350220E+02  0.00000000000E+00 0.  1.
<mgrwt>
<rscale>  1 0.13009147E+03</rscale>
<asrwt>0</asrwt>
<pdfrwt beam="2">  1        4 0.71047744E-02 0.13009147E+03</pdfrwt>
<pdfrwt beam="1">  1       -4 0.23675908E-01 0.13009147E+03</pdfrwt>
<totfact> 0.36108677E+03</totfact>
</mgrwt>
</event>
<event>
 6    4  0.1195577E-003  0.1266446E+03  0.7818608E-02  0.1232521E+00
         -4   -1    0    0    0  501 -0.00000000000E+00  0.00000000000E+00  0.25061746116E+02  0.25093904008E+02  0.12700000000E+01 0.  1.
          4   -1    0    0  502    0  0.00000000000E+00 -0.00000000000E+00 -0.21686931814E+03  0.21687303671E+03  0.12700000000E+01 0.  1.
         25    2    1    2    0    0  0.18662600595E+02  0.80832983175E+01 -0.17183189139E+03  0.21345974532E+03  0.12500092640E+03 0.  0.
    9000005    1    3    3    0    0  0.56441965260E+02 -0.31608813123E+02 -0.57024723517E+02  0.86241704538E+02  0.10000000000E+01 0.  0.
    9000005    1    3    3    0    0 -0.37779364665E+02  0.39692111440E+02 -0.11480716787E+03  0.12721804078E+03  0.10000000000E+01 0.  0.
         21    1    1    2  502  501 -0.18662600595E+02 -0.80832983175E+01 -0.19975680639E+02  0.28507195401E+02  0.00000000000E+00 0.  1.
<mgrwt>
<rscale>  1 0.12664464E+03</rscale>
<asrwt>0</asrwt>
<pdfrwt beam="2">  1        4 0.33367269E-01 0.12664464E+03</pdfrwt>
<pdfrwt beam="1">  1       -4 0.38584131E-02 0.12664464E+03</pdfrwt>
<totfact> 0.50446936E+03</totfact>
</mgrwt>
</event>
<event>
 6    4  0.1195577E-003  0.1783612E+03  0.7818608E-02  0.1169399E+00
         -4   -1    0    0    0  501 -0.00000000000E+00  0.00000000000E+00  0.35319137360E+02  0.35341963214E+02  0.12700000000E+01 0.  1.
          4   -1    0    0  502    0  0.00000000000E+00 -0.00000000000E+00 -0.68867280207E+03  0.68867397309E+03  0.12700000000E+01 0.  1.
         25    2    1    2    0    0  0.10895114049E+03  0.65607308725E+02 -0.30701710621E+03  0.35506650654E+03  0.12505219145E+03 0.  0.
    9000005    1    3    3    0    0  0.89606398666E+02  0.14732343612E+02 -0.27986930670E+03  0.29423490184E+03  0.10000000000E+01 0.  0.
    9000005    1    3    3    0    0  0.19344741823E+02  0.50874965114E+02 -0.27147799514E+02  0.60831604696E+02  0.10000000000E+01 0.  0.
         21    1    1    2  502  501 -0.10895114049E+03 -0.65607308725E+02 -0.34633655850E+03  0.36894942977E+03  0.00000000000E+00 0.  1.
<mgrwt>
<rscale>  1 0.17836121E+03</rscale>
<asrwt>0</asrwt>
<pdfrwt beam="2">  1        4 0.10595150E+00 0.17836121E+03</pdfrwt>
<pdfrwt beam="1">  1       -4 0.54355599E-02 0.17836121E+03</pdfrwt>
<totfact> 0.27228169E+02</totfact>
</mgrwt>
</event>
<event>
 6    4  0.1195577E-003  0.1274853E+03  0.7818608E-02  0.1231236E+00
         -4   -1    0    0    0  501 -0.00000000000E+00  0.00000000000E+00  0.17799052776E+03  0.17799505856E+03  0.12700000000E+01 0. -1.
          4   -1    0    0  502    0  0.00000000000E+00 -0.00000000000E+00 -0.33121592187E+02  0.33145931409E+02  0.12700000000E+01 0. -1.
         25    2    1    2    0    0  0.17089956486E+02  0.18306841686E+02  0.12968480995E+03  0.18185336910E+03  0.12500116342E+03 0.  0.
    9000005    1    3    3    0    0  0.44143551164E+02  0.10845648441E+02 -0.36310234929E+01  0.45612120441E+02  0.10000000000E+01 0.  0.
    9000005    1    3    3    0    0 -0.27053594679E+02  0.74611932445E+01  0.13331583345E+03  0.13624124866E+03  0.10000000000E+01 0.  0.
         21    1    1    2  502  501 -0.17089956486E+02 -0.18306841686E+02  0.15184125618E+02  0.29287620866E+02  0.00000000000E+00 0.  1.
<mgrwt>
<rscale>  1 0.12748529E+03</rscale>
<asrwt>0</asrwt>
<pdfrwt beam="2">  1        4 0.50978504E-02 0.12748529E+03</pdfrwt>
<pdfrwt beam="1">  1       -4 0.27385379E-01 0.12748529E+03</pdfrwt>
<totfact> 0.47066920E+03</totfact>
</mgrwt>
</event>
<event>
 6    4  0.1195577E-003  0.1302946E+03  0.7818608E-02  0.1227019E+00
         -4   -1    0    0    0  501 -0.00000000000E+00  0.00000000000E+00  0.23112874442E+03  0.23113223357E+03  0.12700000000E+01 0. -1.
          4   -1    0    0  502    0  0.00000000000E+00 -0.00000000000E+00 -0.30293238070E+02  0.30319847835E+02  0.12700000000E+01 0. -1.
         25    2    1    2    0    0 -0.12352084935E+02 -0.34627176544E+02  0.16331351779E+03  0.20892099554E+03  0.12500024770E+03 0.  0.
    9000005    1    3    3    0    0  0.14858300546E+02 -0.10619348923E+02 -0.17011351861E+02  0.24978505936E+02  0.10000000000E+01 0.  0.
    9000005    1    3    3    0    0 -0.27210385480E+02 -0.24007827622E+02  0.18032486965E+03  0.18394248960E+03  0.10000000000E+01 0.  0.
         21    1    1    2  502  501  0.12352084935E+02  0.34627176544E+02  0.37521988557E+02  0.52531085872E+02  0.00000000000E+00 0.  1.
<mgrwt>
<rscale>  1 0.13029458E+03</rscale>
<asrwt>0</asrwt>
<pdfrwt beam="2">  1        4 0.46628137E-02 0.13029458E+03</pdfrwt>
<pdfrwt beam="1">  1       -4 0.35560582E-01 0.13029458E+03</pdfrwt>
<totfact> 0.33253039E+03</totfact>
</mgrwt>
</event>
<event>
 6    4  0.1195577E-003  0.1523705E+03  0.7818608E-02  0.1197590E+00
          4   -1    0    0  502    0  0.00000000000E+00  0.00000000000E+00  0.16063462248E+03  0.16063964281E+03  0.12700000000E+01 0. -1.
         -4   -1    0    0    0  501 -0.00000000000E+00 -0.00000000000E+00 -0.90387479195E+02  0.90396400897E+02  0.12700000000E+01 0. -1.
         25    2    1    2    0    0  0.52662123486E+02 -0.69441795661E+02  0.57961571485E+02  0.16302242255E+03  0.12498521612E+03 0.  0.
    9000005    1    3    3    0    0  0.47147296651E+02 -0.11984337815E+02 -0.30473666295E+02  0.57411987179E+02  0.10000000000E+01 0.  0.
    9000005    1    3    3    0    0  0.55148268354E+01 -0.57457457846E+02  0.88435237780E+02  0.10561043537E+03  0.10000000000E+01 0.  0.
         21    1    1    2  502  501 -0.52662123486E+02  0.69441795661E+02  0.12285571805E+02  0.88013621157E+02  0.00000000000E+00 0. -1.
<mgrwt>
<rscale>  1 0.15237049E+03</rscale>
<asrwt>0</asrwt>
<pdfrwt beam="1">  1        4 0.24714091E-01 0.15237049E+03</pdfrwt>
<pdfrwt beam="2">  1       -4 0.13906839E-01 0.15237049E+03</pdfrwt>
<totfact> 0.11129215E+03</totfact>
</mgrwt>
</event>
<event>
 6    4  0.1195577E-003  0.1267223E+03  0.7818608E-02  0.1232402E+00
         -4   -1    0    0    0  501 -0.00000000000E+00  0.00000000000E+00  0.15213512342E+02  0.15266429110E+02  0.12700000000E+01 0. -1.
          4   -1    0    0  502    0  0.00000000000E+00 -0.00000000000E+00 -0.37281182015E+03  0.37281398330E+03  0.12700000000E+01 0. -1.
         25    2    1    2    0    0  0.10816792186E+02 -0.17796010963E+02 -0.27333116045E+03  0.30127803270E+03  0.12499931486E+03 0.  0.
    9000005    1    3    3    0    0  0.61558543701E+02  0.62673205625E+01 -0.19711605608E+03  0.20660220999E+03  0.10000000000E+01 0.  0.
    9000005    1    3    3    0    0 -0.50741751516E+02 -0.24063331525E+02 -0.76215104369E+02  0.94675822705E+02  0.10000000000E+01 0.  0.
         21    1    1    2  502  501 -0.10816792186E+02  0.17796010963E+02 -0.84267147358E+02  0.86802379709E+02  0.00000000000E+00 0.  1.
<mgrwt>
<rscale>  1 0.12672225E+03</rscale>
<asrwt>0</asrwt>
<pdfrwt beam="2">  1        4 0.57359895E-01 0.12672225E+03</pdfrwt>
<pdfrwt beam="1">  1       -4 0.23447776E-02 0.12672225E+03</pdfrwt>
<totfact> 0.37350164E+03</totfact>
</mgrwt>
</event>
<event>
 6    4  0.1195577E-003  0.1275637E+03  0.7818608E-02  0.1231116E+00
          4   -1    0    0  502    0  0.00000000000E+00  0.00000000000E+00  0.23098358689E+02  0.23133246078E+02  0.12700000000E+01 0. -1.
         -4   -1    0    0    0  501 -0.00000000000E+00 -0.00000000000E+00 -0.25425011529E+03  0.25425328715E+03  0.12700000000E+01 0. -1.
         25    2    1    2    0    0 -0.13159731605E+02 -0.21784017943E+02 -0.19908879644E+03  0.23645054187E+03  0.12499915164E+03 0.  0.
    9000005    1    3    3    0    0 -0.43493148996E+01  0.48898662124E+02 -0.12187844796E+03  0.13139768557E+03  0.10000000000E+01 0.  0.
    9000005    1    3    3    0    0 -0.88104167055E+01 -0.70682680067E+02 -0.77210348482E+02  0.10505285630E+03  0.10000000000E+01 0.  0.
         21    1    1    2  502  501  0.13159731605E+02  0.21784017943E+02 -0.32062960165E+02  0.40935991355E+02  0.00000000000E+00 0.  1.
<mgrwt>
<rscale>  1 0.12756375E+03</rscale>
<asrwt>0</asrwt>
<pdfrwt beam="1">  1        4 0.35565215E-02 0.12756375E+03</pdfrwt>
<pdfrwt beam="2">  1       -4 0.39118328E-01 0.12756375E+03</pdfrwt>
<totfact> 0.42248944E+03</totfact>
</mgrwt>
</event>
<event>
 6    4  0.1195577E-003  0.1295951E+03  0.7818608E-02  0.1228058E+00
          4   -1    0    0  502    0  0.00000000000E+00  0.00000000000E+00  0.10574284004E+03  0.10575046629E+03  0.12700000000E+01 0.  1.
         -4   -1    0    0    0  501 -0.00000000000E+00 -0.00000000000E+00 -0.63593712815E+02  0.63606392836E+02  0.12700000000E+01 0.  1.
         25    2    1    2    0    0  0.24234994116E+01 -0.34049375996E+02  0.37461891559E+02  0.13490103910E+03  0.12501865332E+03 0.  0.
    9000005    1    3    3    0    0 -0.36775166520E+02 -0.51002493746E+02  0.59725485399E+02  0.86728316293E+02  0.10000000000E+01 0.  0.
    9000005    1    3    3    0    0  0.39198665932E+02  0.16953117750E+02 -0.22263593840E+02  0.48172722810E+02  0.10000000000E+01 0.  0.
         21    1    1    2  502  501 -0.24234994116E+01  0.34049375996E+02  0.46872356692E+01  0.34455820021E+02  0.00000000000E+00 0. -1.
<mgrwt>
<rscale>  1 0.12959513E+03</rscale>
<asrwt>0</asrwt>
<pdfrwt beam="1">  1        4 0.16269691E-01 0.12959513E+03</pdfrwt>
<pdfrwt beam="2">  1       -4 0.97852103E-02 0.12959513E+03</pdfrwt>
<totfact> 0.41560507E+03</totfact>
</mgrwt>
</event>
<event>
 6    4  0.1195577E-003  0.1268770E+03  0.7818608E-02  0.1232165E+00
          4   -1    0    0  502    0  0.00000000000E+00  0.00000000000E+00  0.21219305061E+03  0.21219685113E+03  0.12700000000E+01 0. -1.
         -4   -1    0    0    0  501 -0.00000000000E+00 -0.00000000000E+00 -0.41728185228E+02  0.41747507021E+02  0.12700000000E+01 0. -1.
         25    2    1    2    0    0 -0.12779916153E+02  0.17632442263E+02  0.58203239485E+02  0.13959007564E+03  0.12499417128E+03 0.  0.
    9000005    1    3    3    0    0 -0.44191426174E+02 -0.32087657353E+02  0.59481844101E+02  0.80756359993E+02  0.10000000000E+01 0.  0.
    9000005    1    3    3    0    0  0.31411510021E+02  0.49720099616E+02 -0.12786046165E+01  0.58833715652E+02  0.10000000000E+01 0.  0.
         21    1    1    2  502  501  0.12779916153E+02 -0.17632442263E+02  0.11226162590E+03  0.11435428250E+03  0.00000000000E+00 0. -1.
<mgrwt>
<rscale>  1 0.12687700E+03</rscale>
<asrwt>0</asrwt>
<pdfrwt beam="1">  1        4 0.32646863E-01 0.12687700E+03</pdfrwt>
<pdfrwt beam="2">  1       -4 0.64214995E-02 0.12687700E+03</pdfrwt>
<totfact> 0.23226236E+03</totfact>
</mgrwt>
</event>
<event>
 6    4  0.1195577E-003  0.1277120E+03  0.7818608E-02  0.1230891E+00
         -4   -1    0    0    0  501 -0.00000000000E+00  0.00000000000E+00  0.98468115506E+02  0.98476305126E+02  0.12700000000E+01 0.  1.
          4   -1    0    0  502    0  0.00000000000E+00 -0.00000000000E+00 -0.65449251075E+02  0.65461571676E+02  0.12700000000E+01 0.  1.
         25    2    1    2    0    0 -0.26189066105E+02 -0.26401759315E+00  0.44634744455E+02  0.13528712537E+03  0.12499763594E+03 0.  0.
    9000005    1    3    3    0    0  0.15093599359E+02 -0.55346458897E+02  0.10066517605E+02  0.58252742689E+02  0.10000000000E+01 0.  0.
    9000005    1    3    3    0    0 -0.41282665465E+02  0.55082441304E+02  0.34568226850E+02  0.77034382683E+02  0.10000000000E+01 0.  0.
         21    1    1    2  502  501  0.26189066105E+02  0.26401759315E+00 -0.11615880025E+02  0.28650751430E+02  0.00000000000E+00 0.  1.
<mgrwt>
<rscale>  1 0.12771196E+03</rscale>
<asrwt>0</asrwt>
<pdfrwt beam="2">  1        4 0.10070693E-01 0.12771196E+03</pdfrwt>
<pdfrwt beam="1">  1       -4 0.15150518E-01 0.12771196E+03</pdfrwt>
<totfact> 0.44700570E+03</totfact>
</mgrwt>
</event>
<event>
 6    4  0.1195577E-003  0.1294694E+03  0.7818608E-02  0.1228245E+00
         -4   -1    0    0    0  501 -0.00000000000E+00  0.00000000000E+00  0.25755431687E+03  0.25755744803E+03  0.12700000000E+01 0.  1.
          4   -1    0    0  502    0  0.00000000000E+00 -0.00000000000E+00 -0.26272526500E+02  0.26303204153E+02  0.12700000000E+01 0.  1.
         25    2    1    2    0    0 -0.32649474853E+02  0.84636639149E+01  0.16743699176E+03  0.21165414193E+03  0.12499883107E+03 0.  0.
    9000005    1    3    3    0    0 -0.42079113489E+02  0.62061859711E+02  0.99911195632E+02  0.12492226877E+03  0.10000000000E+01 0.  0.
    9000005    1    3    3    0    0  0.94296386360E+01 -0.53598195796E+02  0.67525796130E+02  0.86731873152E+02  0.10000000000E+01 0.  0.
         21    1    1    2  502  501  0.32649474853E+02 -0.84636639149E+01  0.63844798603E+02  0.72206510258E+02  0.00000000000E+00 0.  1.
<mgrwt>
<rscale>  1 0.12946942E+03</rscale>
<asrwt>0</asrwt>
<pdfrwt beam="2">  1        4 0.40445279E-02 0.12946942E+03</pdfrwt>
<pdfrwt beam="1">  1       -4 0.39626341E-01 0.12946942E+03</pdfrwt>
<totfact> 0.33733287E+03</totfact>
</mgrwt>
</event>
<event>
 6    4  0.1195577E-003  0.1309515E+03  0.7818608E-02  0.1226051E+00
          4   -1    0    0  502    0  0.00000000000E+00  0.00000000000E+00  0.26273388712E+02  0.26304065359E+02  0.12700000000E+01 0. -1.
         -4   -1    0    0    0  501 -0.00000000000E+00 -0.00000000000E+00 -0.27525348170E+03  0.27525641153E+03  0.12700000000E+01 0. -1.
         25    2    1    2    0    0  0.34595850025E+02 -0.18080927760E+02 -0.19705883739E+03  0.23660195497E+03  0.12499802764E+03 0.  0.
    9000005    1    3    3    0    0  0.80600484839E+02 -0.23422412117E+02 -0.11509800414E+03  0.14245560046E+03  0.10000000000E+01 0.  0.
    9000005    1    3    3    0    0 -0.46004634815E+02  0.53414843565E+01 -0.81960833252E+02  0.94146354507E+02  0.10000000000E+01 0.  0.
         21    1    1    2  502  501 -0.34595850025E+02  0.18080927760E+02 -0.51921255598E+02  0.64958521924E+02  0.00000000000E+00 0. -1.
<mgrwt>
<rscale>  1 0.13095152E+03</rscale>
<asrwt>0</asrwt>
<pdfrwt beam="1">  1        4 0.40446451E-02 0.13095152E+03</pdfrwt>
<pdfrwt beam="2">  1       -4 0.42349273E-01 0.13095152E+03</pdfrwt>
<totfact> 0.29667720E+03</totfact>
</mgrwt>
</event>
<event>
 6    4  0.1195577E-003  0.1309602E+03  0.7818608E-02  0.1226038E+00
         -4   -1    0    0    0  501 -0.00000000000E+00  0.00000000000E+00  0.26055026512E+02  0.26085959951E+02  0.12700000000E+01 0.  1.
          4   -1    0    0  502    0  0.00000000000E+00 -0.00000000000E+00 -0.29174771812E+03  0.29175048231E+03  0.12700000000E+01 0.  1.
         25    2    1    2    0    0 -0.38328849291E+02  0.75282222461E+01 -0.23125565716E+03  0.26576260853E+03  0.12499924121E+03 0.  0.
    9000005    1    3    3    0    0  0.31512402455E+02 -0.15802293331E+02 -0.16894314653E+02  0.39104499110E+02  0.10000000000E+01 0.  0.
    9000005    1    3    3    0    0 -0.69841251746E+02  0.23330515577E+02 -0.21436134251E+03  0.22665810942E+03  0.10000000000E+01 0.  0.
         21    1    1    2  502  501  0.38328849291E+02 -0.75282222461E+01 -0.34437034440E+02  0.52073833729E+02  0.00000000000E+00 0.  1.
<mgrwt>
<rscale>  1 0.13096024E+03</rscale>
<asrwt>0</asrwt>
<pdfrwt beam="2">  1        4 0.44886854E-01 0.13096024E+03</pdfrwt>
<pdfrwt beam="1">  1       -4 0.40110580E-02 0.13096024E+03</pdfrwt>
<totfact> 0.26772780E+03</totfact>
</mgrwt>
</event>
<event>
 6    4  0.1195577E-003  0.1282492E+03  0.7818608E-02  0.1230077E+00
          4   -1    0    0  502    0  0.00000000000E+00  0.00000000000E+00  0.84010667651E+02  0.84020266479E+02  0.12700000000E+01 0.  1.
         -4   -1    0    0    0  501 -0.00000000000E+00 -0.00000000000E+00 -0.80744549100E+02  0.80754536154E+02  0.12700000000E+01 0.  1.
         25    2    1    2    0    0  0.24865619567E+02  0.14306180372E+02 -0.17392353512E+02  0.12942316475E+03  0.12499958311E+03 0.  0.
    9000005    1    3    3    0    0 -0.59373704776E+01  0.66944448932E+02 -0.10685455724E+02  0.68058728867E+02  0.10000000000E+01 0.  0.
    9000005    1    3    3    0    0  0.30802990045E+02 -0.52638268560E+02 -0.67068977881E+01  0.61364435878E+02  0.10000000000E+01 0.  0.
         21    1    1    2  502  501 -0.24865619567E+02 -0.14306180372E+02  0.20658472063E+02  0.35351637887E+02  0.00000000000E+00 0.  1.
<mgrwt>
<rscale>  1 0.12824922E+03</rscale>
<asrwt>0</asrwt>
<pdfrwt beam="1">  1        4 0.12926225E-01 0.12824922E+03</pdfrwt>
<pdfrwt beam="2">  1       -4 0.12423745E-01 0.12824922E+03</pdfrwt>
<totfact> 0.41244249E+03</totfact>
</mgrwt>
</event>
<event>
 6    4  0.1195577E-003  0.1268486E+03  0.7818608E-02  0.1232208E+00
          4   -1    0    0  502    0  0.00000000000E+00  0.00000000000E+00  0.93702110115E+01  0.94558846440E+01  0.12700000000E+01 0.  1.
         -4   -1    0    0    0  501 -0.00000000000E+00 -0.00000000000E+00 -0.17880485710E+04  0.17880490221E+04  0.12700000000E+01 0.  1.
         25    2    1    2    0    0 -0.20332853994E+02 -0.71920549289E+01 -0.17695411407E+04  0.17740818543E+04  0.12500170663E+03 0.  0.
    9000005    1    3    3    0    0 -0.34905236321E+01 -0.59189902483E+02 -0.52460485072E+03  0.52794590415E+03  0.10000000000E+01 0.  0.
    9000005    1    3    3    0    0 -0.16842330362E+02  0.51997847554E+02 -0.12449362900E+04  0.12461359502E+04  0.10000000000E+01 0.  0.
         21    1    1    2  502  501  0.20332853994E+02  0.71920549289E+01 -0.91372193462E+01  0.23423052385E+02  0.00000000000E+00 0.  1.
<mgrwt>
<rscale>  1 0.12684864E+03</rscale>
<asrwt>0</asrwt>
<pdfrwt beam="1">  1        4 0.14481973E-02 0.12684864E+03</pdfrwt>
<pdfrwt beam="2">  1       -4 0.27509075E+00 0.12684864E+03</pdfrwt>
<totfact> 0.14621751E+02</totfact>
</mgrwt>
</event>
<event>
 6    4  0.1195577E-003  0.1281094E+03  0.7818608E-02  0.1230288E+00
         -4   -1    0    0    0  501 -0.00000000000E+00  0.00000000000E+00  0.59345887228E+03  0.59346023117E+03  0.12700000000E+01 0.  1.
          4   -1    0    0  502    0  0.00000000000E+00 -0.00000000000E+00 -0.11076130143E+02  0.11148702120E+02  0.12700000000E+01 0.  1.
         25    2    1    2    0    0 -0.17382697096E+02 -0.21990602198E+02  0.52926235491E+03  0.54454629697E+03  0.12500513779E+03 0.  0.
    9000005    1    3    3    0    0 -0.31977704401E+02  0.42401128121E+02  0.14029395678E+03  0.15001274464E+03  0.10000000000E+01 0.  0.
    9000005    1    3    3    0    0  0.14595007305E+02 -0.64391730319E+02  0.38896839813E+03  0.39453355233E+03  0.10000000000E+01 0.  0.
         21    1    1    2  502  501  0.17382697096E+02  0.21990602198E+02  0.53120387226E+02  0.60062636325E+02  0.00000000000E+00 0.  1.
<mgrwt>
<rscale>  1 0.12810944E+03</rscale>
<asrwt>0</asrwt>
<pdfrwt beam="2">  1        4 0.17097065E-02 0.12810944E+03</pdfrwt>
<pdfrwt beam="1">  1       -4 0.91307077E-01 0.12810944E+03</pdfrwt>
<totfact> 0.22212678E+03</totfact>
</mgrwt>
</event>
<event>
 6    4  0.1195577E-003  0.1291926E+03  0.7818608E-02  0.1228659E+00
         -4   -1    0    0    0  501 -0.00000000000E+00  0.00000000000E+00  0.62871220870E+02  0.62884046575E+02  0.12700000000E+01 0. -1.
          4   -1    0    0  502    0  0.00000000000E+00 -0.00000000000E+00 -0.13833212071E+03  0.13833795040E+03  0.12700000000E+01 0. -1.
         25    2    1    2    0    0  0.18858887657E+02  0.26635692339E+02 -0.11859267847E+02  0.12973573716E+03  0.12500240603E+03 0.  0.
    9000005    1    3    3    0    0  0.59052351298E+02  0.54427975994E+02 -0.72164198895E+01  0.80639081596E+02  0.10000000000E+01 0.  0.
    9000005    1    3    3    0    0 -0.40193463641E+02 -0.27792283655E+02 -0.46428479572E+01  0.49096655562E+02  0.10000000000E+01 0.  0.
         21    1    1    2  502  501 -0.18858887657E+02 -0.26635692339E+02 -0.63601631991E+02  0.71486259812E+02  0.00000000000E+00 0. -1.
<mgrwt>
<rscale>  1 0.12919257E+03</rscale>
<asrwt>0</asrwt>
<pdfrwt beam="2">  1        4 0.21283300E-01 0.12919257E+03</pdfrwt>
<pdfrwt beam="1">  1       -4 0.96739306E-02 0.12919257E+03</pdfrwt>
<totfact> 0.26221668E+03</totfact>
</mgrwt>
</event>
<event>
 6    4  0.1195577E-003  0.1360714E+03  0.7818608E-02  0.1218715E+00
          4   -1    0    0  502    0  0.00000000000E+00  0.00000000000E+00  0.68156333345E+03  0.68156451669E+03  0.12700000000E+01 0.  1.
         -4   -1    0    0    0  501 -0.00000000000E+00 -0.00000000000E+00 -0.53592329597E+02  0.53607375348E+02  0.12700000000E+01 0.  1.
         25    2    1    2    0    0 -0.44885779228E+01 -0.53573140664E+02  0.35984251456E+02  0.14074902593E+03  0.12500077286E+03 0.  0.
    9000005    1    3    3    0    0 -0.42305834227E+02 -0.50776663797E+02  0.65218473297E+02  0.92857430802E+02  0.10000000000E+01 0.  0.
    9000005    1    3    3    0    0  0.37817256305E+02 -0.27964768672E+01 -0.29234221841E+02  0.47891595128E+02  0.10000000000E+01 0.  0.
         21    1    1    2  502  501  0.44885779228E+01  0.53573140664E+02  0.59198675240E+03  0.59442286610E+03  0.00000000000E+00 0.  1.
<mgrwt>
<rscale>  1 0.13607139E+03</rscale>
<asrwt>0</asrwt>
<pdfrwt beam="1">  1        4 0.10485715E+00 0.13607139E+03</pdfrwt>
<pdfrwt beam="2">  1       -4 0.82462221E-02 0.13607139E+03</pdfrwt>
<totfact> 0.13471608E+02</totfact>
</mgrwt>
</event>
<event>
 6    4  0.1195577E-003  0.1309521E+03  0.7818608E-02  0.1226050E+00
         -4   -1    0    0    0  501 -0.00000000000E+00  0.00000000000E+00  0.19428651264E+03  0.19429066342E+03  0.12700000000E+01 0. -1.
          4   -1    0    0  502    0  0.00000000000E+00 -0.00000000000E+00 -0.51164997874E+02  0.51180757198E+02  0.12700000000E+01 0. -1.
         25    2    1    2    0    0  0.38985689825E+02 -0.43598128326E+00  0.15667490510E+03  0.20419469013E+03  0.12501348527E+03 0.  0.
    9000005    1    3    3    0    0  0.68725491151E+02 -0.41183213339E+02  0.88569099131E+02  0.11943506820E+03  0.10000000000E+01 0.  0.
    9000005    1    3    3    0    0 -0.29739801326E+02  0.40747232056E+02  0.68105805966E+02  0.84759621928E+02  0.10000000000E+01 0.  0.
         21    1    1    2  502  501 -0.38985689825E+02  0.43598128326E+00 -0.13553390332E+02  0.41276730494E+02  0.00000000000E+00 0. -1.
<mgrwt>
<rscale>  1 0.13095207E+03</rscale>
<asrwt>0</asrwt>
<pdfrwt beam="2">  1        4 0.78730696E-02 0.13095207E+03</pdfrwt>
<pdfrwt beam="1">  1       -4 0.29891764E-01 0.13095207E+03</pdfrwt>
<totfact> 0.19795829E+03</totfact>
</mgrwt>
</event>
<event>
 6    4  0.1195577E-003  0.1266622E+03  0.7818608E-02  0.1232494E+00
         -4   -1    0    0    0  501 -0.00000000000E+00  0.00000000000E+00  0.45285294181E+03  0.45285472263E+03  0.12700000000E+01 0. -1.
          4   -1    0    0  502    0  0.00000000000E+00 -0.00000000000E+00 -0.13245314661E+02  0.13306061042E+02  0.12700000000E+01 0. -1.
         25    2    1    2    0    0  0.23577215858E+01  0.20311282723E+02  0.41636131641E+03  0.43520116449E+03  0.12500080284E+03 0.  0.
    9000005    1    3    3    0    0  0.27296843247E+02 -0.88487563859E+01  0.38378483195E+03  0.38485739615E+03  0.10000000000E+01 0.  0.
    9000005    1    3    3    0    0 -0.24939121662E+02  0.29160039109E+02  0.32576484460E+02  0.50343768332E+02  0.10000000000E+01 0.  0.
         21    1    1    2  502  501 -0.23577215858E+01 -0.20311282723E+02  0.23246310740E+02  0.30959619183E+02  0.00000000000E+00 0. -1.
<mgrwt>
<rscale>  1 0.12666218E+03</rscale>
<asrwt>0</asrwt>
<pdfrwt beam="2">  1        4 0.20425508E-02 0.12666218E+03</pdfrwt>
<pdfrwt beam="1">  1       -4 0.69674484E-01 0.12666218E+03</pdfrwt>
<totfact> 0.30621042E+03</totfact>
</mgrwt>
</event>
<event>
 6    4  0.1195577E-003  0.2108762E+03  0.7818608E-02  0.1140874E+00
         -4   -1    0    0    0  501 -0.00000000000E+00  0.00000000000E+00  0.30551486041E+03  0.30551750004E+03  0.12700000000E+01 0.  1.
          4   -1    0    0  502    0  0.00000000000E+00 -0.00000000000E+00 -0.12115152956E+03  0.12115818592E+03  0.12700000000E+01 0.  1.
         25    2    1    2    0    0  0.15267466639E+03 -0.74393859494E+02  0.13270707562E+03  0.24915845077E+03  0.12499906233E+03 0.  0.
    9000005    1    3    3    0    0 -0.90007698620E+01 -0.42907490156E+02  0.43800091818E+02  0.61979953315E+02  0.10000000000E+01 0.  0.
    9000005    1    3    3    0    0  0.16167543625E+03 -0.31486369338E+02  0.88906983804E+02  0.18717849745E+03  0.10000000000E+01 0.  0.
         21    1    1    2  502  501 -0.15267466639E+03  0.74393859494E+02  0.51656255225E+02  0.17751723519E+03  0.00000000000E+00 0.  1.
<mgrwt>
<rscale>  1 0.21087619E+03</rscale>
<asrwt>0</asrwt>
<pdfrwt beam="2">  1        4 0.18639412E-01 0.21087619E+03</pdfrwt>
<pdfrwt beam="1">  1       -4 0.47003001E-01 0.21087619E+03</pdfrwt>
<totfact> 0.20200503E+02</totfact>
</mgrwt>
</event>
<event>
 6    4  0.1195577E-003  0.1319922E+03  0.7818608E-02  0.1224529E+00
         -4   -1    0    0    0  501 -0.00000000000E+00  0.00000000000E+00  0.24036484750E+02  0.24070012445E+02  0.12700000000E+01 0.  1.
          4   -1    0    0  502    0  0.00000000000E+00 -0.00000000000E+00 -0.32299629296E+03  0.32299878973E+03  0.12700000000E+01 0.  1.
         25    2    1    2    0    0 -0.28744750817E+02  0.31162558760E+02 -0.24655007699E+03  0.27965852332E+03  0.12499833373E+03 0.  0.
    9000005    1    3    3    0    0  0.12484570730E+02  0.35877419948E+02 -0.23287317914E+03  0.23595332448E+03  0.10000000000E+01 0.  0.
    9000005    1    3    3    0    0 -0.41229321547E+02 -0.47148611877E+01 -0.13676897846E+02  0.43705198844E+02  0.10000000000E+01 0.  0.
         21    1    1    2  502  501  0.28744750817E+02 -0.31162558760E+02 -0.52409731221E+02  0.67410278851E+02  0.00000000000E+00 0.  1.
<mgrwt>
<rscale>  1 0.13199223E+03</rscale>
<asrwt>0</asrwt>
<pdfrwt beam="2">  1        4 0.49694505E-01 0.13199223E+03</pdfrwt>
<pdfrwt beam="1">  1       -4 0.37006921E-02 0.13199223E+03</pdfrwt>
<totfact> 0.24817942E+03</totfact>
</mgrwt>
</event>
<event>
 6    4  0.1195577E-003  0.1279214E+03  0.7818608E-02  0.1230573E+00
          4   -1    0    0  502    0  0.00000000000E+00  0.00000000000E+00  0.59606382265E+03  0.59606517561E+03  0.12700000000E+01 0. -1.
         -4   -1    0    0    0  501 -0.00000000000E+00 -0.00000000000E+00 -0.10123659015E+02  0.10203007981E+02  0.12700000000E+01 0. -1.
         25    2    1    2    0    0  0.19435243368E+02  0.19003624188E+02  0.46204064061E+03  0.47942198450E+03  0.12500007692E+03 0.  0.
    9000005    1    3    3    0    0 -0.33624603906E+02 -0.13796309784E+00  0.36958784572E+03  0.37111562716E+03  0.10000000000E+01 0.  0.
    9000005    1    3    3    0    0  0.53059847274E+02  0.19141587286E+02  0.92452794887E+02  0.10830635733E+03  0.10000000000E+01 0.  0.
         21    1    1    2  502  501 -0.19435243368E+02 -0.19003624188E+02  0.12389952303E+03  0.12684619909E+03  0.00000000000E+00 0.  1.
<mgrwt>
<rscale>  1 0.12792140E+03</rscale>
<asrwt>0</asrwt>
<pdfrwt beam="1">  1        4 0.91708345E-01 0.12792140E+03</pdfrwt>
<pdfrwt beam="2">  1       -4 0.15636937E-02 0.12792140E+03</pdfrwt>
<totfact> 0.25197571E+03</totfact>
</mgrwt>
</event>
<event>
 6    4  0.1195577E-003  0.1290389E+03  0.7818608E-02  0.1228889E+00
         -4   -1    0    0    0  501 -0.00000000000E+00  0.00000000000E+00  0.52447016835E+02  0.52462391052E+02  0.12700000000E+01 0.  1.
          4   -1    0    0  502    0  0.00000000000E+00 -0.00000000000E+00 -0.13628884394E+03  0.13629476103E+03  0.12700000000E+01 0.  1.
         25    2    1    2    0    0 -0.29937825693E+02  0.11387355513E+02 -0.41262877261E+02  0.13547570838E+03  0.12500038899E+03 0.  0.
    9000005    1    3    3    0    0  0.46779624247E+02  0.14708524700E+02 -0.16740872997E+01  0.49076231639E+02  0.10000000000E+01 0.  0.
    9000005    1    3    3    0    0 -0.76717449940E+02 -0.33211691868E+01 -0.39588789961E+02  0.86399476738E+02  0.10000000000E+01 0.  0.
         21    1    1    2  502  501  0.29937825693E+02 -0.11387355513E+02 -0.42578949847E+02  0.53281443701E+02  0.00000000000E+00 0.  1.
<mgrwt>
<rscale>  1 0.12903892E+03</rscale>
<asrwt>0</asrwt>
<pdfrwt beam="2">  1        4 0.20969152E-01 0.12903892E+03</pdfrwt>
<pdfrwt beam="1">  1       -4 0.80704096E-02 0.12903892E+03</pdfrwt>
<totfact> 0.36427394E+03</totfact>
</mgrwt>
</event>
<event>
 6    4  0.1195577E-003  0.1281830E+03  0.7818608E-02  0.1230177E+00
         -4   -1    0    0    0  501 -0.00000000000E+00  0.00000000000E+00  0.17526498106E+02  0.17572451048E+02  0.12700000000E+01 0.  1.
          4   -1    0    0  502    0  0.00000000000E+00 -0.00000000000E+00 -0.35031327069E+03  0.35031557276E+03  0.12700000000E+01 0.  1.
         25    2    1    2    0    0 -0.13490613267E+02 -0.24976375077E+02 -0.28021775388E+03  0.30814425689E+03  0.12500031003E+03 0.  0.
    9000005    1    3    3    0    0  0.46579132421E+02 -0.35472850725E+02 -0.19322178701E+03  0.20189996952E+03  0.10000000000E+01 0.  0.
    9000005    1    3    3    0    0 -0.60069745689E+02  0.10496475648E+02 -0.86995966865E+02  0.10624428737E+03  0.10000000000E+01 0.  0.
         21    1    1    2  502  501  0.13490613267E+02  0.24976375077E+02 -0.52569018703E+02  0.59743766919E+02  0.00000000000E+00 0. -1.
<mgrwt>
<rscale>  1 0.12818305E+03</rscale>
<asrwt>0</asrwt>
<pdfrwt beam="2">  1        4 0.53898056E-01 0.12818305E+03</pdfrwt>
<pdfrwt beam="1">  1       -4 0.27000965E-02 0.12818305E+03</pdfrwt>
<totfact> 0.34224906E+03</totfact>
</mgrwt>
</event>
<event>
 6    4  0.1195577E-003  0.1295122E+03  0.7818608E-02  0.1228181E+00
          4   -1    0    0  502    0  0.00000000000E+00  0.00000000000E+00  0.79608884185E+02  0.79619013691E+02  0.12700000000E+01 0. -1.
         -4   -1    0    0    0  501 -0.00000000000E+00 -0.00000000000E+00 -0.85117847633E+02  0.85127321617E+02  0.12700000000E+01 0. -1.
         25    2    1    2    0    0 -0.33874015184E+02  0.11222486097E+01  0.39034519688E+01  0.12957103274E+03  0.12499882896E+03 0.  0.
    9000005    1    3    3    0    0  0.28337181151E+02 -0.41249925764E+02 -0.14429403422E+02  0.52093760608E+02  0.10000000000E+01 0.  0.
    9000005    1    3    3    0    0 -0.62211196335E+02  0.42372174374E+02  0.18332855391E+02  0.77477272134E+02  0.10000000000E+01 0.  0.
         21    1    1    2  502  501  0.33874015184E+02 -0.11222486097E+01 -0.94124154173E+01  0.35175302566E+02  0.00000000000E+00 0.  1.
<mgrwt>
<rscale>  1 0.12951222E+03</rscale>
<asrwt>0</asrwt>
<pdfrwt beam="1">  1        4 0.12249029E-01 0.12951222E+03</pdfrwt>
<pdfrwt beam="2">  1       -4 0.13096561E-01 0.12951222E+03</pdfrwt>
<totfact> 0.41415804E+03</totfact>
</mgrwt>
</event>
<event>
 6    4  0.1195577E-003  0.1266663E+03  0.7818608E-02  0.1232488E+00
         -4   -1    0    0    0  501 -0.00000000000E+00  0.00000000000E+00  0.92327192280E+01  0.93196568791E+01  0.12700000000E+01 0. -1.
          4   -1    0    0  502    0  0.00000000000E+00 -0.00000000000E+00 -0.60443155261E+03  0.60443288684E+03  0.12700000000E+01 0. -1.
         25    2    1    2    0    0 -0.17574742286E+02  0.98066806040E+01 -0.46231206124E+03  0.47935039805E+03  0.12505726523E+03 0.  0.
    9000005    1    3    3    0    0 -0.45308306829E+02  0.83209288073E+01 -0.44327674877E+03  0.44566507214E+03  0.10000000000E+01 0.  0.
    9000005    1    3    3    0    0  0.27733564543E+02  0.14857517967E+01 -0.19035312474E+02  0.33685325910E+02  0.10000000000E+01 0.  0.
         21    1    1    2  502  501  0.17574742286E+02 -0.98066806040E+01 -0.13288677214E+03  0.13440214567E+03  0.00000000000E+00 0.  1.
<mgrwt>
<rscale>  1 0.12666634E+03</rscale>
<asrwt>0</asrwt>
<pdfrwt beam="2">  1        4 0.92996229E-01 0.12666634E+03</pdfrwt>
<pdfrwt beam="1">  1       -4 0.14272090E-02 0.12666634E+03</pdfrwt>
<totfact> 0.27990132E+03</totfact>
</mgrwt>
</event>
<event>
 6    4  0.1195577E-003  0.1286072E+03  0.7818608E-02  0.1229537E+00
         -4   -1    0    0    0  501 -0.00000000000E+00  0.00000000000E+00  0.16094811181E+02  0.16144839639E+02  0.12700000000E+01 0. -1.
          4   -1    0    0  502    0  0.00000000000E+00 -0.00000000000E+00 -0.46572966865E+03  0.46573140023E+03  0.12700000000E+01 0. -1.
         25    2    1    2    0    0 -0.24556621208E+02 -0.17669424641E+02 -0.26249806260E+03  0.29230984990E+03  0.12499831706E+03 0.  0.
    9000005    1    3    3    0    0 -0.25173667495E+01 -0.45089718569E+02 -0.25137339780E+03  0.25539969651E+03  0.10000000000E+01 0.  0.
    9000005    1    3    3    0    0 -0.22039254458E+02  0.27420293928E+02 -0.11124664797E+02  0.36910153387E+02  0.10000000000E+01 0.  0.
         21    1    1    2  502  501  0.24556621208E+02  0.17669424641E+02 -0.18713679487E+03  0.18956638997E+03  0.00000000000E+00 0.  1.
<mgrwt>
<rscale>  1 0.12860721E+03</rscale>
<asrwt>0</asrwt>
<pdfrwt beam="2">  1        4 0.71654690E-01 0.12860721E+03</pdfrwt>
<pdfrwt beam="1">  1       -4 0.24801067E-02 0.12860721E+03</pdfrwt>
<totfact> 0.21430171E+03</totfact>
</mgrwt>
</event>
<event>
 6    4  0.1195577E-003  0.1272012E+03  0.7818608E-02  0.1231669E+00
         -4   -1    0    0    0  501 -0.00000000000E+00  0.00000000000E+00  0.45433694850E+02  0.45451441426E+02  0.12700000000E+01 0. -1.
          4   -1    0    0  502    0  0.00000000000E+00 -0.00000000000E+00 -0.13453467451E+03  0.13454066874E+03  0.12700000000E+01 0. -1.
         25    2    1    2    0    0 -0.19222118725E+00  0.23448806795E+02 -0.54944002527E+02  0.13856044865E+03  0.12502108233E+03 0.  0.
    9000005    1    3    3    0    0  0.17115612552E+02  0.63048187691E+02 -0.67099750391E+02  0.93655724153E+02  0.10000000000E+01 0.  0.
    9000005    1    3    3    0    0 -0.17307833739E+02 -0.39599380896E+02  0.12155747864E+02  0.44904724498E+02  0.10000000000E+01 0.  0.
         21    1    1    2  502  501  0.19222118725E+00 -0.23448806795E+02 -0.34156977129E+02  0.41431661513E+02  0.00000000000E+00 0. -1.
<mgrwt>
<rscale>  1 0.12720124E+03</rscale>
<asrwt>0</asrwt>
<pdfrwt beam="2">  1        4 0.20699468E-01 0.12720124E+03</pdfrwt>
<pdfrwt beam="1">  1       -4 0.69916255E-02 0.12720124E+03</pdfrwt>
<totfact> 0.47064499E+03</totfact>
</mgrwt>
</event>
<event>
 6    4  0.1195577E-003  0.1278482E+03  0.7818608E-02  0.1230684E+00
         -4   -1    0    0    0  501 -0.00000000000E+00  0.00000000000E+00  0.87680776835E+01  0.88595759641E+01  0.12700000000E+01 0. -1.
          4   -1    0    0  502    0  0.00000000000E+00 -0.00000000000E+00 -0.10483857630E+04  0.10483865323E+04  0.12700000000E+01 0. -1.
         25    2    1    2    0    0 -0.73750302022E+01  0.25862255467E+02 -0.47249518782E+03  0.48948632229E+03  0.12498763884E+03 0.  0.
    9000005    1    3    3    0    0  0.21432349993E+02  0.38215444599E+02 -0.44679810732E+03  0.44894244011E+03  0.10000000000E+01 0.  0.
    9000005    1    3    3    0    0 -0.28807380195E+02 -0.12353189133E+02 -0.25697080509E+02  0.40543882178E+02  0.10000000000E+01 0.  0.
         21    1    1    2  502  501  0.73750302022E+01 -0.25862255467E+02 -0.56712249751E+03  0.56775978592E+03  0.00000000000E+00 0. -1.
<mgrwt>
<rscale>  1 0.12784818E+03</rscale>
<asrwt>0</asrwt>
<pdfrwt beam="2">  1        4 0.16129712E+00 0.12784818E+03</pdfrwt>
<pdfrwt beam="1">  1       -4 0.13560334E-02 0.12784818E+03</pdfrwt>
<totfact> 0.79982926E+02</totfact>
</mgrwt>
</event>
<event>
 6    4  0.1195577E-003  0.1266846E+03  0.7818608E-02  0.1232460E+00
          4   -1    0    0  502    0  0.00000000000E+00  0.00000000000E+00  0.21987574721E+02  0.22024221714E+02  0.12700000000E+01 0.  1.
         -4   -1    0    0    0  501 -0.00000000000E+00 -0.00000000000E+00 -0.26328522227E+03  0.26328828528E+03  0.12700000000E+01 0.  1.
         25    2    1    2    0    0 -0.15240759574E+02 -0.13837661092E+02 -0.22792199440E+03  0.26076317474E+03  0.12500094460E+03 0.  0.
    9000005    1    3    3    0    0 -0.32933703594E+02 -0.64243337820E+02 -0.14730820901E+03  0.16405043044E+03  0.10000000000E+01 0.  0.
    9000005    1    3    3    0    0  0.17692944020E+02  0.50405676728E+02 -0.80613785397E+02  0.96712744302E+02  0.10000000000E+01 0.  0.
         21    1    1    2  502  501  0.15240759574E+02  0.13837661092E+02 -0.13375653143E+02  0.24549332249E+02  0.00000000000E+00 0.  1.
<mgrwt>
<rscale>  1 0.12668464E+03</rscale>
<asrwt>0</asrwt>
<pdfrwt beam="1">  1        4 0.33857586E-02 0.12668464E+03</pdfrwt>
<pdfrwt beam="2">  1       -4 0.40508471E-01 0.12668464E+03</pdfrwt>
<totfact> 0.42554557E+03</totfact>
</mgrwt>
</event>
<event>
 6    4  0.1195577E-003  0.1270904E+03  0.7818608E-02  0.1231838E+00
         -4   -1    0    0    0  501 -0.00000000000E+00  0.00000000000E+00  0.23233929418E+03  0.23234276515E+03  0.12700000000E+01 0.  1.
          4   -1    0    0  502    0  0.00000000000E+00 -0.00000000000E+00 -0.32709142400E+02  0.32733788301E+02  0.12700000000E+01 0.  1.
         25    2    1    2    0    0 -0.20262479150E+02 -0.10792631328E+02  0.20527723650E+03  0.24143467286E+03  0.12499963393E+03 0.  0.
    9000005    1    3    3    0    0 -0.46117338535E+02 -0.49920601282E+02  0.67094415559E+02  0.95506732459E+02  0.10000000000E+01 0.  0.
    9000005    1    3    3    0    0  0.25854859385E+02  0.39127969954E+02  0.13818282094E+03  0.14592794040E+03  0.10000000000E+01 0.  0.
         21    1    1    2  502  501  0.20262479150E+02  0.10792631328E+02 -0.56470847194E+01  0.23641880596E+02  0.00000000000E+00 0.  1.
<mgrwt>
<rscale>  1 0.12709035E+03</rscale>
<asrwt>0</asrwt>
<pdfrwt beam="2">  1        4 0.50343386E-02 0.12709035E+03</pdfrwt>
<pdfrwt beam="1">  1       -4 0.35746670E-01 0.12709035E+03</pdfrwt>
<totfact> 0.28937640E+03</totfact>
</mgrwt>
</event>
<event>
 6    4  0.1195577E-003  0.1302700E+03  0.7818608E-02  0.1227056E+00
         -4   -1    0    0    0  501 -0.00000000000E+00  0.00000000000E+00  0.17491097721E+03  0.17491558778E+03  0.12700000000E+01 0.  1.
          4   -1    0    0  502    0  0.00000000000E+00 -0.00000000000E+00 -0.39819066350E+02  0.39839314062E+02  0.12700000000E+01 0.  1.
         25    2    1    2    0    0  0.36657540623E+02 -0.10189367761E+01  0.10571338639E+03  0.16776648607E+03  0.12500184106E+03 0.  0.
    9000005    1    3    3    0    0 -0.40084826338E+02 -0.96967148092E+01  0.73075802205E+02  0.83915984464E+02  0.10000000000E+01 0.  0.
    9000005    1    3    3    0    0  0.76742366961E+02  0.86777780331E+01  0.32637584189E+02  0.83850501609E+02  0.10000000000E+01 0.  0.
         21    1    1    2  502  501 -0.36657540623E+02  0.10189367761E+01  0.29378524463E+02  0.46988415767E+02  0.00000000000E+00 0.  1.
<mgrwt>
<rscale>  1 0.13027000E+03</rscale>
<asrwt>0</asrwt>
<pdfrwt beam="2">  1        4 0.61279226E-02 0.13027000E+03</pdfrwt>
<pdfrwt beam="1">  1       -4 0.26911293E-01 0.13027000E+03</pdfrwt>
<totfact> 0.36306116E+03</totfact>
</mgrwt>
</event>
<event>
 6    4  0.1195577E-003  0.1277767E+03  0.7818608E-02  0.1230792E+00
          4   -1    0    0  502    0  0.00000000000E+00  0.00000000000E+00  0.84450562798E+02  0.84460111632E+02  0.12700000000E+01 0.  1.
         -4   -1    0    0    0  501 -0.00000000000E+00 -0.00000000000E+00 -0.21713001794E+03  0.21713373204E+03  0.12700000000E+01 0.  1.
         25    2    1    2    0    0 -0.11100455414E+00  0.26482358635E+02 -0.19542388782E+03  0.23348957454E+03  0.12500223137E+03 0.  0.
    9000005    1    3    3    0    0 -0.76706012340E+01 -0.22737429529E+02  0.70092558306E+01  0.25019162500E+02  0.10000000000E+01 0.  0.
    9000005    1    3    3    0    0  0.75595966798E+01  0.49219788164E+02 -0.20243314365E+03  0.20847041204E+03  0.10000000000E+01 0.  0.
         21    1    1    2  502  501  0.11100455414E+00 -0.26482358635E+02  0.62744432682E+02  0.68104269128E+02  0.00000000000E+00 0.  1.
<mgrwt>
<rscale>  1 0.12777670E+03</rscale>
<asrwt>0</asrwt>
<pdfrwt beam="1">  1        4 0.12993415E-01 0.12777670E+03</pdfrwt>
<pdfrwt beam="2">  1       -4 0.33405638E-01 0.12777670E+03</pdfrwt>
<totfact> 0.68508624E+02</totfact>
</mgrwt>
</event>
<event>
 6    4  0.1195577E-003  0.1462012E+03  0.7818608E-02  0.1205220E+00
         -4   -1    0    0    0  501 -0.00000000000E+00  0.00000000000E+00  0.44410554718E+02  0.44428709979E+02  0.12700000000E+01 0. -1.
          4   -1    0    0  502    0  0.00000000000E+00 -0.00000000000E+00 -0.85052225524E+03  0.85052320342E+03  0.12700000000E+01 0. -1.
         25    2    1    2    0    0  0.54430786378E+02 -0.52796324083E+02 -0.83486728408E+02  0.16835917144E+03  0.12499845778E+03 0.  0.
    9000005    1    3    3    0    0  0.75772954899E+02 -0.41782344270E+02 -0.54524625021E+01  0.86706599138E+02  0.10000000000E+01 0.  0.
    9000005    1    3    3    0    0 -0.21342168521E+02 -0.11013979813E+02 -0.78034265905E+02  0.81652572304E+02  0.10000000000E+01 0.  0.
         21    1    1    2  502  501 -0.54430786378E+02  0.52796324083E+02 -0.72262497211E+03  0.72659274196E+03  0.00000000000E+00 0. -1.
<mgrwt>
<rscale>  1 0.14620115E+03</rscale>
<asrwt>0</asrwt>
<pdfrwt beam="2">  1        4 0.13085103E+00 0.14620115E+03</pdfrwt>
<pdfrwt beam="1">  1       -4 0.68338632E-02 0.14620115E+03</pdfrwt>
<totfact> 0.10934879E+02</totfact>
</mgrwt>
</event>
<event>
 6    4  0.1195577E-003  0.1361446E+03  0.7818608E-02  0.1218613E+00
          4   -1    0    0  502    0  0.00000000000E+00  0.00000000000E+00  0.20403366066E+03  0.20403761315E+03  0.12700000000E+01 0.  1.
         -4   -1    0    0    0  501 -0.00000000000E+00 -0.00000000000E+00 -0.66212659583E+02  0.66224838158E+02  0.12700000000E+01 0.  1.
         25    2    1    2    0    0 -0.33325930481E+02  0.42423035489E+02  0.16063760490E+02  0.13708904099E+03  0.12500011670E+03 0.  0.
    9000005    1    3    3    0    0  0.43761820041E+02 -0.72565944470E+01  0.33438473434E+01  0.44496475943E+02  0.10000000000E+01 0.  0.
    9000005    1    3    3    0    0 -0.77087750522E+02  0.49679629936E+02  0.12719913147E+02  0.92592565045E+02  0.10000000000E+01 0.  0.
         21    1    1    2  502  501  0.33325930481E+02 -0.42423035489E+02  0.12175724058E+03  0.13317341032E+03  0.00000000000E+00 0.  1.
<mgrwt>
<rscale>  1 0.13614463E+03</rscale>
<asrwt>0</asrwt>
<pdfrwt beam="1">  1        4 0.31391034E-01 0.13614463E+03</pdfrwt>
<pdfrwt beam="2">  1       -4 0.10187804E-01 0.13614463E+03</pdfrwt>
<totfact> 0.11831692E+03</totfact>
</mgrwt>
</event>
<event>
 6    4  0.1195577E-003  0.1266505E+03  0.7818608E-02  0.1232512E+00
          4   -1    0    0  502    0  0.00000000000E+00  0.00000000000E+00  0.12351161065E+03  0.12351813982E+03  0.12700000000E+01 0.  1.
         -4   -1    0    0    0  501 -0.00000000000E+00 -0.00000000000E+00 -0.48640443848E+02  0.48657020847E+02  0.12700000000E+01 0.  1.
         25    2    1    2    0    0  0.44327758885E+01 -0.19914631639E+02  0.41898691135E+02  0.13340112030E+03  0.12499646604E+03 0.  0.
    9000005    1    3    3    0    0  0.30674865257E+02  0.42410424249E+02 -0.26466147162E+01  0.52417516280E+02  0.10000000000E+01 0.  0.
    9000005    1    3    3    0    0 -0.26242089369E+02 -0.62325055888E+02  0.44545305851E+02  0.80983604015E+02  0.10000000000E+01 0.  0.
         21    1    1    2  502  501 -0.44327758885E+01  0.19914631639E+02  0.32972475665E+02  0.38774040373E+02  0.00000000000E+00 0. -1.
<mgrwt>
<rscale>  1 0.12665054E+03</rscale>
<asrwt>0</asrwt>
<pdfrwt beam="1">  1        4 0.19003563E-01 0.12665054E+03</pdfrwt>
<pdfrwt beam="2">  1       -4 0.74849228E-02 0.12665054E+03</pdfrwt>
<totfact> 0.49001427E+03</totfact>
</mgrwt>
</event>
<event>
 6    4  0.1195577E-003  0.1290635E+03  0.7818608E-02  0.1228852E+00
         -4   -1    0    0    0  501 -0.00000000000E+00  0.00000000000E+00  0.44499904134E+01  0.46276683847E+01  0.12700000000E+01 0. -1.
          4   -1    0    0  502    0  0.00000000000E+00 -0.00000000000E+00 -0.14375485228E+04  0.14375490838E+04  0.12700000000E+01 0. -1.
         25    2    1    2    0    0 -0.15959784816E+02 -0.27881928678E+02 -0.11063514638E+04  0.11138541006E+04  0.12500111755E+03 0.  0.
    9000005    1    3    3    0    0  0.37247433404E+02  0.29317579630E+02 -0.29956987834E+03  0.30329853903E+03  0.10000000000E+01 0.  0.
    9000005    1    3    3    0    0 -0.53207218219E+02 -0.57199508309E+02 -0.80678158543E+03  0.81055556158E+03  0.10000000000E+01 0.  0.
         21    1    1    2  502  501  0.15959784816E+02  0.27881928678E+02 -0.32674706860E+03  0.32832265154E+03  0.00000000000E+00 0. -1.
<mgrwt>
<rscale>  1 0.12906354E+03</rscale>
<asrwt>0</asrwt>
<pdfrwt beam="2">  1        4 0.22117466E+00 0.12906354E+03</pdfrwt>
<pdfrwt beam="1">  1       -4 0.69832575E-03 0.12906354E+03</pdfrwt>
<totfact> 0.90099814E+02</totfact>
</mgrwt>
</event>
<event>
 6    4  0.1195577E-003  0.1294340E+03  0.7818608E-02  0.1228298E+00
         -4   -1    0    0    0  501 -0.00000000000E+00  0.00000000000E+00  0.67145243550E+03  0.67145363655E+03  0.12700000000E+01 0.  1.
          4   -1    0    0  502    0  0.00000000000E+00 -0.00000000000E+00 -0.10121728870E+02  0.10201092849E+02  0.12700000000E+01 0.  1.
         25    2    1    2    0    0  0.32953764652E+02  0.64924036399E+01  0.56501080687E+03  0.57964676403E+03  0.12500022903E+03 0.  0.
    9000005    1    3    3    0    0 -0.41856565524E+02 -0.78138600321E+01  0.10396797039E+03  0.11235375986E+03  0.10000000000E+01 0.  0.
    9000005    1    3    3    0    0  0.74810330177E+02  0.14306263672E+02  0.46104283648E+03  0.46729300417E+03  0.10000000000E+01 0.  0.
         21    1    1    2  502  501 -0.32953764652E+02 -0.64924036399E+01  0.96319899757E+02  0.10200796537E+03  0.00000000000E+00 0.  1.
<mgrwt>
<rscale>  1 0.12943400E+03</rscale>
<asrwt>0</asrwt>
<pdfrwt beam="2">  1        4 0.15633854E-02 0.12943400E+03</pdfrwt>
<pdfrwt beam="1">  1       -4 0.10330664E+00 0.12943400E+03</pdfrwt>
<totfact> 0.19228546E+03</totfact>
</mgrwt>
</event>
<event>
 6    4  0.1195577E-003  0.1274323E+03  0.7818608E-02  0.1231316E+00
          4   -1    0    0  502    0  0.00000000000E+00  0.00000000000E+00  0.86129965468E+02  0.86139328135E+02  0.12700000000E+01 0.  1.
         -4   -1    0    0    0  501 -0.00000000000E+00 -0.00000000000E+00 -0.71725326197E+02  0.71736568904E+02  0.12700000000E+01 0.  1.
         25    2    1    2    0    0  0.18028795267E+02 -0.16995403494E+02 -0.32152803322E+01  0.12747289118E+03  0.12500047503E+03 0.  0.
    9000005    1    3    3    0    0 -0.27099205040E+01  0.28138812370E+02 -0.51141525034E+02  0.58443066428E+02  0.10000000000E+01 0.  0.
    9000005    1    3    3    0    0  0.20738715771E+02 -0.45134215864E+02  0.47926244702E+02  0.69029824748E+02  0.10000000000E+01 0.  0.
         21    1    1    2  502  501 -0.18028795267E+02  0.16995403494E+02  0.17619919603E+02  0.30403005863E+02  0.00000000000E+00 0. -1.
<mgrwt>
<rscale>  1 0.12743233E+03</rscale>
<asrwt>0</asrwt>
<pdfrwt beam="1">  1        4 0.13252349E-01 0.12743233E+03</pdfrwt>
<pdfrwt beam="2">  1       -4 0.11036251E-01 0.12743233E+03</pdfrwt>
<totfact> 0.48273945E+03</totfact>
</mgrwt>
</event>
<event>
 6    4  0.1195577E-003  0.1432114E+03  0.7818608E-02  0.1209072E+00
         -4   -1    0    0    0  501 -0.00000000000E+00  0.00000000000E+00  0.49475191581E+02  0.49491488985E+02  0.12700000000E+01 0. -1.
          4   -1    0    0  502    0  0.00000000000E+00 -0.00000000000E+00 -0.23555971811E+03  0.23556314163E+03  0.12700000000E+01 0. -1.
         25    2    1    2    0    0 -0.67198726267E+02 -0.19218544875E+02 -0.14586138201E+03  0.20441392976E+03  0.12499796255E+03 0.  0.
    9000005    1    3    3    0    0 -0.56775564121E+02 -0.11549529986E+02 -0.16857337241E+03  0.17825498088E+03  0.10000000000E+01 0.  0.
    9000005    1    3    3    0    0 -0.10423162145E+02 -0.76690148894E+01  0.22711990403E+02  0.26158948881E+02  0.10000000000E+01 0.  0.
         21    1    1    2  502  501  0.67198726267E+02  0.19218544875E+02 -0.40223144522E+02  0.80640700854E+02  0.00000000000E+00 0. -1.
<mgrwt>
<rscale>  1 0.14321142E+03</rscale>
<asrwt>0</asrwt>
<pdfrwt beam="2">  1        4 0.36241473E-01 0.14321142E+03</pdfrwt>
<pdfrwt beam="1">  1       -4 0.76130851E-02 0.14321142E+03</pdfrwt>
<totfact> 0.14758044E+03</totfact>
</mgrwt>
</event>
<event>
 6    4  0.1195577E-003  0.1272675E+03  0.7818608E-02  0.1231568E+00
          4   -1    0    0  502    0  0.00000000000E+00  0.00000000000E+00  0.28167032456E+01  0.30897762336E+01  0.12700000000E+01 0.  1.
         -4   -1    0    0    0  501 -0.00000000000E+00 -0.00000000000E+00 -0.19423102988E+04  0.19423107140E+04  0.12700000000E+01 0.  1.
         25    2    1    2    0    0 -0.15370443565E+02  0.18318800196E+02 -0.15849934192E+04  0.15900947008E+04  0.12500075842E+03 0.  0.
    9000005    1    3    3    0    0 -0.56627998990E+02  0.32525032739E+02 -0.13128454881E+04  0.13144690501E+04  0.10000000000E+01 0.  0.
    9000005    1    3    3    0    0  0.41257555425E+02 -0.14206232542E+02 -0.27214793117E+03  0.27562565077E+03  0.10000000000E+01 0.  0.
         21    1    1    2  502  501  0.15370443565E+02 -0.18318800196E+02 -0.35450017632E+03  0.35530578941E+03  0.00000000000E+00 0. -1.
<mgrwt>
<rscale>  1 0.12726751E+03</rscale>
<asrwt>0</asrwt>
<pdfrwt beam="1">  1        4 0.45437807E-03 0.12726751E+03</pdfrwt>
<pdfrwt beam="2">  1       -4 0.29883699E+00 0.12726751E+03</pdfrwt>
<totfact> 0.60519326E+02</totfact>
</mgrwt>
</event>
<event>
 6    4  0.1195577E-003  0.1717142E+03  0.7818608E-02  0.1176072E+00
          4   -1    0    0  502    0  0.00000000000E+00  0.00000000000E+00  0.43962165788E+02  0.43980506145E+02  0.12700000000E+01 0.  1.
         -4   -1    0    0    0  501 -0.00000000000E+00 -0.00000000000E+00 -0.92128699664E+03  0.92128787199E+03  0.12700000000E+01 0.  1.
         25    2    1    2    0    0 -0.16477156081E+02  0.11656487418E+03 -0.81336217555E+03  0.83129044026E+03  0.12500760335E+03 0.  0.
    9000005    1    3    3    0    0 -0.10161882788E+02 -0.26092289979E+02 -0.10473748650E+03  0.10842053558E+03  0.10000000000E+01 0.  0.
    9000005    1    3    3    0    0 -0.63152732929E+01  0.14265716415E+03 -0.70862468905E+03  0.72286990468E+03  0.10000000000E+01 0.  0.
         21    1    1    2  502  501  0.16477156081E+02 -0.11656487418E+03 -0.63962655309E+02  0.13397793788E+03  0.00000000000E+00 0.  1.
<mgrwt>
<rscale>  1 0.17171420E+03</rscale>
<asrwt>0</asrwt>
<pdfrwt beam="1">  1        4 0.67648889E-02 0.17171420E+03</pdfrwt>
<pdfrwt beam="2">  1       -4 0.14173792E+00 0.17171420E+03</pdfrwt>
<totfact> 0.93272463E+01</totfact>
</mgrwt>
</event>
<event>
 6    4  0.1195577E-003  0.1325273E+03  0.7818608E-02  0.1223753E+00
         -4   -1    0    0    0  501 -0.00000000000E+00  0.00000000000E+00  0.44309146232E+03  0.44309328237E+03  0.12700000000E+01 0. -1.
          4   -1    0    0  502    0  0.00000000000E+00 -0.00000000000E+00 -0.18763655987E+02  0.18806586240E+02  0.12700000000E+01 0. -1.
         25    2    1    2    0    0  0.31713843328E+02 -0.30431509071E+02  0.26043100701E+03  0.29221190372E+03  0.12502656780E+03 0.  0.
    9000005    1    3    3    0    0 -0.67009067745E+01  0.45477877740E+02  0.71515961740E+02  0.85021599014E+02  0.10000000000E+01 0.  0.
    9000005    1    3    3    0    0  0.38414750102E+02 -0.75909386811E+02  0.18891504528E+03  0.20719030470E+03  0.10000000000E+01 0.  0.
         21    1    1    2  502  501 -0.31713843328E+02  0.30431509071E+02  0.16389679932E+03  0.16968796489E+03  0.00000000000E+00 0.  1.
<mgrwt>
<rscale>  1 0.13252731E+03</rscale>
<asrwt>0</asrwt>
<pdfrwt beam="2">  1        4 0.28901587E-02 0.13252731E+03</pdfrwt>
<pdfrwt beam="1">  1       -4 0.68171358E-01 0.13252731E+03</pdfrwt>
<totfact> 0.18932101E+03</totfact>
</mgrwt>
</event>
<event>
 6    4  0.1195577E-003  0.1284236E+03  0.7818608E-02  0.1229814E+00
          4   -1    0    0  502    0  0.00000000000E+00  0.00000000000E+00  0.62750137749E+01  0.64022416289E+01  0.12700000000E+01 0. -1.
         -4   -1    0    0    0  501 -0.00000000000E+00 -0.00000000000E+00 -0.10459828227E+04  0.10459835937E+04  0.12700000000E+01 0. -1.
         25    2    1    2    0    0  0.27170478182E+02  0.11427157899E+02 -0.92844999375E+03  0.93728971784E+03  0.12499523773E+03 0.  0.
    9000005    1    3    3    0    0 -0.42408851250E+02  0.26790220139E+02 -0.54256517802E+03  0.54487998583E+03  0.10000000000E+01 0.  0.
    9000005    1    3    3    0    0  0.69579329432E+02 -0.15363062240E+02 -0.38588481573E+03  0.39240973201E+03  0.10000000000E+01 0.  0.
         21    1    1    2  502  501 -0.27170478182E+02 -0.11427157899E+02 -0.11125781516E+03  0.11509611747E+03  0.00000000000E+00 0. -1.
<mgrwt>
<rscale>  1 0.12842361E+03</rscale>
<asrwt>0</asrwt>
<pdfrwt beam="1">  1        4 0.97523363E-03 0.12842361E+03</pdfrwt>
<pdfrwt beam="2">  1       -4 0.16093014E+00 0.12842361E+03</pdfrwt>
<totfact> 0.13248905E+03</totfact>
</mgrwt>
</event>
<event>
 6    4  0.1195577E-003  0.1274944E+03  0.7818608E-02  0.1231222E+00
          4   -1    0    0  502    0  0.00000000000E+00  0.00000000000E+00  0.16788717209E+02  0.16836683923E+02  0.12700000000E+01 0.  1.
         -4   -1    0    0    0  501 -0.00000000000E+00 -0.00000000000E+00 -0.42855239652E+03  0.42855427831E+03  0.12700000000E+01 0.  1.
         25    2    1    2    0    0  0.24962219317E+02  0.28990070730E+01 -0.39529164335E+03  0.41534358957E+03  0.12499318967E+03 0.  0.
    9000005    1    3    3    0    0 -0.16155515930E+02 -0.32428438822E+02 -0.32275065798E+03  0.32477929670E+03  0.10000000000E+01 0.  0.
    9000005    1    3    3    0    0  0.41117735246E+02  0.35327445895E+02 -0.72540985369E+02  0.90564292873E+02  0.10000000000E+01 0.  0.
         21    1    1    2  502  501 -0.24962219317E+02 -0.28990070730E+01 -0.16472035959E+02  0.30047372661E+02  0.00000000000E+00 0.  1.
<mgrwt>
<rscale>  1 0.12749437E+03</rscale>
<asrwt>0</asrwt>
<pdfrwt beam="1">  1        4 0.25867144E-02 0.12749437E+03</pdfrwt>
<pdfrwt beam="2">  1       -4 0.65934964E-01 0.12749437E+03</pdfrwt>
<totfact> 0.23952648E+03</totfact>
</mgrwt>
</event>
<event>
 6    4  0.1195577E-003  0.1310101E+03  0.7818608E-02  0.1225965E+00
         -4   -1    0    0    0  501 -0.00000000000E+00  0.00000000000E+00  0.17349896156E+02  0.17396315604E+02  0.12700000000E+01 0.  1.
          4   -1    0    0  502    0  0.00000000000E+00 -0.00000000000E+00 -0.13118448499E+04  0.13118454646E+04  0.12700000000E+01 0.  1.
         25    2    1    2    0    0  0.18507965851E+01  0.39185813302E+02 -0.23524298122E+03  0.26926362259E+03  0.12499873930E+03 0.  0.
    9000005    1    3    3    0    0 -0.43539607853E+02 -0.53054445529E+01 -0.26955673188E+02  0.51492266516E+02  0.10000000000E+01 0.  0.
    9000005    1    3    3    0    0  0.45390404438E+02  0.44491257855E+02 -0.20828730803E+03  0.21777135608E+03  0.10000000000E+01 0.  0.
         21    1    1    2  502  501 -0.18507965851E+01 -0.39185813302E+02 -0.10592519725E+04  0.10599781576E+04  0.00000000000E+00 0.  1.
<mgrwt>
<rscale>  1 0.13101007E+03</rscale>
<asrwt>0</asrwt>
<pdfrwt beam="2">  1        4 0.20182582E+00 0.13101007E+03</pdfrwt>
<pdfrwt beam="1">  1       -4 0.26728338E-02 0.13101007E+03</pdfrwt>
<totfact> 0.15369737E+02</totfact>
</mgrwt>
</event>
<event>
 6    4  0.1195577E-003  0.1279439E+03  0.7818608E-02  0.1230539E+00
          4   -1    0    0  502    0  0.00000000000E+00  0.00000000000E+00  0.78558852507E+01  0.79578786792E+01  0.12700000000E+01 0.  1.
         -4   -1    0    0    0  501 -0.00000000000E+00 -0.00000000000E+00 -0.85907460813E+03  0.85907554687E+03  0.12700000000E+01 0.  1.
         25    2    1    2    0    0 -0.22848024199E+02  0.14922087271E+02 -0.78585112189E+03  0.79619823544E+03  0.12499977381E+03 0.  0.
    9000005    1    3    3    0    0  0.68164475562E+01  0.25529295879E+02 -0.74048589858E+03  0.74095787660E+03  0.10000000000E+01 0.  0.
    9000005    1    3    3    0    0 -0.29664471755E+02 -0.10607208608E+02 -0.45365223311E+02  0.55240358842E+02  0.10000000000E+01 0.  0.
         21    1    1    2  502  501  0.22848024199E+02 -0.14922087271E+02 -0.65367600991E+02  0.70835190108E+02  0.00000000000E+00 0. -1.
<mgrwt>
<rscale>  1 0.12794391E+03</rscale>
<asrwt>0</asrwt>
<pdfrwt beam="1">  1        4 0.12165163E-02 0.12794391E+03</pdfrwt>
<pdfrwt beam="2">  1       -4 0.13217317E+00 0.12794391E+03</pdfrwt>
<totfact> 0.15591984E+03</totfact>
</mgrwt>
</event>
<event>
 6    4  0.1195577E-003  0.1295765E+03  0.7818608E-02  0.1228085E+00
         -4   -1    0    0    0  501 -0.00000000000E+00  0.00000000000E+00  0.42989340079E+03  0.42989527671E+03  0.12700000000E+01 0. -1.
          4   -1    0    0  502    0  0.00000000000E+00 -0.00000000000E+00 -0.39870998234E+02  0.39891219587E+02  0.12700000000E+01 0. -1.
         25    2    1    2    0    0  0.27729088720E+02 -0.19885837093E+02  0.41017633043E+03  0.43015658730E+03  0.12500287466E+03 0.  0.
    9000005    1    3    3    0    0  0.17834354837E+02 -0.35185122488E+02  0.30066433536E+02  0.49608945590E+02  0.10000000000E+01 0.  0.
    9000005    1    3    3    0    0  0.98947338837E+01  0.15299285396E+02  0.38010989690E+03  0.38054764171E+03  0.10000000000E+01 0.  0.
         21    1    1    2  502  501 -0.27729088720E+02  0.19885837093E+02 -0.20153927881E+02  0.39629908998E+02  0.00000000000E+00 0. -1.
<mgrwt>
<rscale>  1 0.12957649E+03</rscale>
<asrwt>0</asrwt>
<pdfrwt beam="2">  1        4 0.61356994E-02 0.12957649E+03</pdfrwt>
<pdfrwt beam="1">  1       -4 0.66139147E-01 0.12957649E+03</pdfrwt>
<totfact> 0.60611854E+02</totfact>
</mgrwt>
</event>
<event>
 6    4  0.1195577E-003  0.1269215E+03  0.7818608E-02  0.1232097E+00
         -4   -1    0    0    0  501 -0.00000000000E+00  0.00000000000E+00  0.10631943535E+02  0.10707526481E+02  0.12700000000E+01 0.  1.
          4   -1    0    0  502    0  0.00000000000E+00 -0.00000000000E+00 -0.66892189672E+03  0.66892310232E+03  0.12700000000E+01 0.  1.
         25    2    1    2    0    0 -0.18915603674E+02 -0.11262905437E+02 -0.38343359393E+03  0.40389403108E+03  0.12499765710E+03 0.  0.
    9000005    1    3    3    0    0  0.50432968523E+01 -0.60226978822E+02 -0.11435559364E+03  0.12934807930E+03  0.10000000000E+01 0.  0.
    9000005    1    3    3    0    0 -0.23958900526E+02  0.48964073385E+02 -0.26907800029E+03  0.27454595178E+03  0.10000000000E+01 0.  0.
         21    1    1    2  502  501  0.18915603674E+02  0.11262905437E+02 -0.27485635925E+03  0.27573659772E+03  0.00000000000E+00 0.  1.
<mgrwt>
<rscale>  1 0.12692150E+03</rscale>
<asrwt>0</asrwt>
<pdfrwt beam="2">  1        4 0.10291694E+00 0.12692150E+03</pdfrwt>
<pdfrwt beam="1">  1       -4 0.16415910E-02 0.12692150E+03</pdfrwt>
<totfact> 0.17925549E+03</totfact>
</mgrwt>
</event>
<event>
 6    4  0.1195577E-003  0.1301132E+03  0.7818608E-02  0.1227288E+00
          4   -1    0    0  502    0  0.00000000000E+00  0.00000000000E+00  0.12817099246E+03  0.12817728429E+03  0.12700000000E+01 0.  1.
         -4   -1    0    0    0  501 -0.00000000000E+00 -0.00000000000E+00 -0.55623043691E+02  0.55637540290E+02  0.12700000000E+01 0.  1.
         25    2    1    2    0    0  0.95454120042E+01  0.34832389540E+02  0.69649318234E+02  0.14758207268E+03  0.12500012158E+03 0.  0.
    9000005    1    3    3    0    0 -0.52508060175E+02  0.36708834740E+02  0.17302265001E+02  0.66370198926E+02  0.10000000000E+01 0.  0.
    9000005    1    3    3    0    0  0.62053472179E+02 -0.18764452003E+01  0.52347053233E+02  0.81211873752E+02  0.10000000000E+01 0.  0.
         21    1    1    2  502  501 -0.95454120042E+01 -0.34832389540E+02  0.28986305338E+01  0.36232751902E+02  0.00000000000E+00 0.  1.
<mgrwt>
<rscale>  1 0.13011318E+03</rscale>
<asrwt>0</asrwt>
<pdfrwt beam="1">  1        4 0.19720213E-01 0.13011318E+03</pdfrwt>
<pdfrwt beam="2">  1       -4 0.85589906E-02 0.13011318E+03</pdfrwt>
<totfact> 0.36980207E+03</totfact>
</mgrwt>
</event>
<event>
 6    4  0.1195577E-003  0.1279397E+03  0.7818608E-02  0.1230545E+00
          4   -1    0    0  502    0  0.00000000000E+00  0.00000000000E+00  0.75393302979E+02  0.75403998794E+02  0.12700000000E+01 0. -1.
         -4   -1    0    0    0  501 -0.00000000000E+00 -0.00000000000E+00 -0.12756051925E+03  0.12756684119E+03  0.12700000000E+01 0. -1.
         25    2    1    2    0    0  0.26235674132E+02 -0.74045325141E+01 -0.89939004477E+02  0.15638923758E+03  0.12500172561E+03 0.  0.
    9000005    1    3    3    0    0 -0.29456610402E+02 -0.41354775205E+02 -0.76105309239E+01  0.51350068253E+02  0.10000000000E+01 0.  0.
    9000005    1    3    3    0    0  0.55692284534E+02  0.33950242691E+02 -0.82328473553E+02  0.10503916933E+03  0.10000000000E+01 0.  0.
         21    1    1    2  502  501 -0.26235674132E+02  0.74045325141E+01  0.37771788202E+02  0.46581602408E+02  0.00000000000E+00 0. -1.
<mgrwt>
<rscale>  1 0.12793971E+03</rscale>
<asrwt>0</asrwt>
<pdfrwt beam="1">  1        4 0.11600279E-01 0.12793971E+03</pdfrwt>
<pdfrwt beam="2">  1       -4 0.19626004E-01 0.12793971E+03</pdfrwt>
<totfact> 0.22270352E+03</totfact>
</mgrwt>
</event>
<event>
 6    4  0.1195577E-003  0.1282997E+03  0.7818608E-02  0.1230001E+00
          4   -1    0    0  502    0  0.00000000000E+00  0.00000000000E+00  0.16181238969E+03  0.16181737348E+03  0.12700000000E+01 0.  1.
         -4   -1    0    0    0  501 -0.00000000000E+00 -0.00000000000E+00 -0.38546293501E+02  0.38567209422E+02  0.12700000000E+01 0.  1.
         25    2    1    2    0    0  0.20680629481E+02  0.20205127592E+02  0.92519064656E+02  0.15817894862E+03  0.12499946737E+03 0.  0.
    9000005    1    3    3    0    0 -0.14071250666E+02  0.24558400713E+02 -0.23614547138E+02  0.36874950541E+02  0.10000000000E+01 0.  0.
    9000005    1    3    3    0    0  0.34751880147E+02 -0.43532731203E+01  0.11613361179E+03  0.12130399808E+03  0.10000000000E+01 0.  0.
         21    1    1    2  502  501 -0.20680629481E+02 -0.20205127592E+02  0.30747031537E+02  0.42205634281E+02  0.00000000000E+00 0. -1.
<mgrwt>
<rscale>  1 0.12829966E+03</rscale>
<asrwt>0</asrwt>
<pdfrwt beam="1">  1        4 0.24896206E-01 0.12829966E+03</pdfrwt>
<pdfrwt beam="2">  1       -4 0.59321913E-02 0.12829966E+03</pdfrwt>
<totfact> 0.44039605E+03</totfact>
</mgrwt>
</event>
<event>
 6    4  0.1195577E-003  0.1360230E+03  0.7818608E-02  0.1218783E+00
          4   -1    0    0  502    0  0.00000000000E+00  0.00000000000E+00  0.11911571160E+04  0.11911577931E+04  0.12700000000E+01 0.  1.
         -4   -1    0    0    0  501 -0.00000000000E+00 -0.00000000000E+00 -0.22975746686E+02  0.23010819972E+02  0.12700000000E+01 0.  1.
         25    2    1    2    0    0 -0.29718244074E+02  0.44655625403E+02  0.18551485259E+03  0.23003915912E+03  0.12499982114E+03 0.  0.
    9000005    1    3    3    0    0 -0.76326322274E+02  0.27481566282E+02  0.82700056473E+02  0.11585008976E+03  0.10000000000E+01 0.  0.
    9000005    1    3    3    0    0  0.46608078200E+02  0.17174059121E+02  0.10281479612E+03  0.11418906936E+03  0.10000000000E+01 0.  0.
         21    1    1    2  502  501  0.29718244074E+02 -0.44655625403E+02  0.98266651675E+03  0.98412945391E+03  0.00000000000E+00 0.  1.
<mgrwt>
<rscale>  1 0.13602299E+03</rscale>
<asrwt>0</asrwt>
<pdfrwt beam="1">  1        4 0.18325770E+00 0.13602299E+03</pdfrwt>
<pdfrwt beam="2">  1       -4 0.35374800E-02 0.13602299E+03</pdfrwt>
<totfact> 0.13056207E+02</totfact>
</mgrwt>
</event>
<event>
 6    4  0.1195577E-003  0.1356384E+03  0.7818608E-02  0.1219321E+00
         -4   -1    0    0    0  501 -0.00000000000E+00  0.00000000000E+00  0.42813912994E+03  0.42814101355E+03  0.12700000000E+01 0. -1.
          4   -1    0    0  502    0  0.00000000000E+00 -0.00000000000E+00 -0.40754716864E+02  0.40774499956E+02  0.12700000000E+01 0. -1.
         25    2    1    2    0    0  0.12601625692E+02  0.51129611915E+02  0.39319828101E+03  0.41593590191E+03  0.12499899249E+03 0.  0.
    9000005    1    3    3    0    0 -0.25364216502E+02  0.82538660546E+02  0.24981019317E+03  0.26431440856E+03  0.10000000000E+01 0.  0.
    9000005    1    3    3    0    0  0.37965842195E+02 -0.31409048631E+02  0.14338808784E+03  0.15162149334E+03  0.10000000000E+01 0.  0.
         21    1    1    2  502  501 -0.12601625692E+02 -0.51129611915E+02 -0.58138679354E+01  0.52979611597E+02  0.00000000000E+00 0. -1.
<mgrwt>
<rscale>  1 0.13563844E+03</rscale>
<asrwt>0</asrwt>
<pdfrwt beam="2">  1        4 0.62716232E-02 0.13563844E+03</pdfrwt>
<pdfrwt beam="1">  1       -4 0.65869225E-01 0.13563844E+03</pdfrwt>
<totfact> 0.59543892E+02</totfact>
</mgrwt>
</event>
<event>
 6    4  0.1195577E-003  0.1268407E+03  0.7818608E-02  0.1232220E+00
          4   -1    0    0  502    0  0.00000000000E+00  0.00000000000E+00  0.66824828107E+02  0.66836895137E+02  0.12700000000E+01 0.  1.
         -4   -1    0    0    0  501 -0.00000000000E+00 -0.00000000000E+00 -0.82991614330E+02  0.83001331008E+02  0.12700000000E+01 0.  1.
         25    2    1    2    0    0 -0.85226498514E+01 -0.19797646390E+02 -0.18401431760E+02  0.12816852371E+03  0.12499590159E+03 0.  0.
    9000005    1    3    3    0    0 -0.30074296657E+02 -0.42736099653E+02 -0.57671296326E+02  0.77831972562E+02  0.10000000000E+01 0.  0.
    9000005    1    3    3    0    0  0.21551646805E+02  0.22938453263E+02  0.39269864567E+02  0.50336551145E+02  0.10000000000E+01 0.  0.
         21    1    1    2  502  501  0.85226498514E+01  0.19797646390E+02  0.22346455364E+01  0.21669702438E+02  0.00000000000E+00 0. -1.
<mgrwt>
<rscale>  1 0.12684068E+03</rscale>
<asrwt>0</asrwt>
<pdfrwt beam="1">  1        4 0.10282418E-01 0.12684068E+03</pdfrwt>
<pdfrwt beam="2">  1       -4 0.12769616E-01 0.12684068E+03</pdfrwt>
<totfact> 0.57928168E+03</totfact>
</mgrwt>
</event>
<event>
 6    4  0.1195577E-003  0.1287261E+03  0.7818608E-02  0.1229358E+00
          4   -1    0    0  502    0  0.00000000000E+00  0.00000000000E+00  0.60115768702E+03  0.60115902851E+03  0.12700000000E+01 0. -1.
         -4   -1    0    0    0  501 -0.00000000000E+00 -0.00000000000E+00 -0.22479231291E+02  0.22515078047E+02  0.12700000000E+01 0. -1.
         25    2    1    2    0    0 -0.12533437405E+02  0.28073142698E+02  0.16702309899E+03  0.21087231256E+03  0.12500091286E+03 0.  0.
    9000005    1    3    3    0    0  0.47485069418E+02  0.38640269822E+02  0.11688236239E+03  0.13194843276E+03  0.10000000000E+01 0.  0.
    9000005    1    3    3    0    0 -0.60018506824E+02 -0.10567127124E+02  0.50140736602E+02  0.78923879808E+02  0.10000000000E+01 0.  0.
         21    1    1    2  502  501  0.12533437405E+02 -0.28073142698E+02  0.41165535674E+03  0.41280179400E+03  0.00000000000E+00 0. -1.
<mgrwt>
<rscale>  1 0.12872613E+03</rscale>
<asrwt>0</asrwt>
<pdfrwt beam="1">  1        4 0.92488661E-01 0.12872613E+03</pdfrwt>
<pdfrwt beam="2">  1       -4 0.34612038E-02 0.12872613E+03</pdfrwt>
<totfact> 0.72319531E+02</totfact>
</mgrwt>
</event>
<event>
 6    4  0.1195577E-003  0.1284232E+03  0.7818608E-02  0.1229814E+00
         -4   -1    0    0    0  501 -0.00000000000E+00  0.00000000000E+00  0.42650794662E+02  0.42669698679E+02  0.12700000000E+01 0. -1.
          4   -1    0    0  502    0  0.00000000000E+00 -0.00000000000E+00 -0.14661204141E+03  0.14661754188E+03  0.12700000000E+01 0. -1.
         25    2    1    2    0    0  0.25318639277E+02  0.15031378665E+02 -0.79785077635E+02  0.15118916984E+03  0.12500212248E+03 0.  0.
    9000005    1    3    3    0    0  0.31808991573E+02  0.67976913282E+02 -0.45529636091E+02  0.87787359265E+02  0.10000000000E+01 0.  0.
    9000005    1    3    3    0    0 -0.64903522963E+01 -0.52945534616E+02 -0.34255441545E+02  0.63401810575E+02  0.10000000000E+01 0.  0.
         21    1    1    2  502  501 -0.25318639277E+02 -0.15031378665E+02 -0.24176169113E+02  0.38098070717E+02  0.00000000000E+00 0. -1.
<mgrwt>
<rscale>  1 0.12842315E+03</rscale>
<asrwt>0</asrwt>
<pdfrwt beam="2">  1        4 0.22557576E-01 0.12842315E+03</pdfrwt>
<pdfrwt beam="1">  1       -4 0.65635381E-02 0.12842315E+03</pdfrwt>
<totfact> 0.44767184E+03</totfact>
</mgrwt>
</event>
<event>
 6    4  0.1195577E-003  0.1290868E+03  0.7818608E-02  0.1228817E+00
         -4   -1    0    0    0  501 -0.00000000000E+00  0.00000000000E+00  0.98971984096E+02  0.98980132026E+02  0.12700000000E+01 0.  1.
          4   -1    0    0  502    0  0.00000000000E+00 -0.00000000000E+00 -0.66359382157E+02  0.66371533810E+02  0.12700000000E+01 0.  1.
         25    2    1    2    0    0 -0.29521739713E+02 -0.12868073535E+02  0.19374592384E+02  0.13053262896E+03  0.12500508774E+03 0.  0.
    9000005    1    3    3    0    0  0.51003590328E+01 -0.55344693147E+02  0.43562858663E+02  0.70624155760E+02  0.10000000000E+01 0.  0.
    9000005    1    3    3    0    0 -0.34622098746E+02  0.42476619612E+02 -0.24188266280E+02  0.59908473197E+02  0.10000000000E+01 0.  0.
         21    1    1    2  502  501  0.29521739713E+02  0.12868073535E+02  0.13238009555E+02  0.34819036879E+02  0.00000000000E+00 0.  1.
<mgrwt>
<rscale>  1 0.12908676E+03</rscale>
<asrwt>0</asrwt>
<pdfrwt beam="2">  1        4 0.10210697E-01 0.12908676E+03</pdfrwt>
<pdfrwt beam="1">  1       -4 0.15228021E-01 0.12908676E+03</pdfrwt>
<totfact> 0.43401115E+03</totfact>
</mgrwt>
</event>
<event>
 6    4  0.1195577E-003  0.1299798E+03  0.7818608E-02  0.1227486E+00
         -4   -1    0    0    0  501 -0.00000000000E+00  0.00000000000E+00  0.43138538578E+02  0.43157228950E+02  0.12700000000E+01 0.  1.
          4   -1    0    0  502    0  0.00000000000E+00 -0.00000000000E+00 -0.16036227471E+03  0.16036730356E+03  0.12700000000E+01 0.  1.
         25    2    1    2    0    0  0.34865932711E+02  0.74445632258E+01 -0.83775295585E+02  0.15463841014E+03  0.12499473170E+03 0.  0.
    9000005    1    3    3    0    0 -0.36383306178E+02  0.14015404417E+02 -0.72322882857E+02  0.82169190784E+02  0.10000000000E+01 0.  0.
    9000005    1    3    3    0    0  0.71249238889E+02 -0.65708411912E+01 -0.11452412728E+02  0.72469219352E+02  0.10000000000E+01 0.  0.
         21    1    1    2  502  501 -0.34865932711E+02 -0.74445632258E+01 -0.33448440550E+02  0.48886122373E+02  0.00000000000E+00 0.  1.
<mgrwt>
<rscale>  1 0.12997976E+03</rscale>
<asrwt>0</asrwt>
<pdfrwt beam="2">  1        4 0.24672944E-01 0.12997976E+03</pdfrwt>
<pdfrwt beam="1">  1       -4 0.66385229E-02 0.12997976E+03</pdfrwt>
<totfact> 0.37402432E+03</totfact>
</mgrwt>
</event>
<event>
 6    4  0.1195577E-003  0.1284355E+03  0.7818608E-02  0.1229796E+00
          4   -1    0    0  502    0  0.00000000000E+00  0.00000000000E+00  0.53107241238E+03  0.53107393091E+03  0.12700000000E+01 0. -1.
         -4   -1    0    0    0  501 -0.00000000000E+00 -0.00000000000E+00 -0.11903722099E+02  0.11971278119E+02  0.12700000000E+01 0. -1.
         25    2    1    2    0    0 -0.22620285962E+02 -0.18958287156E+02  0.39232342985E+03  0.41281151876E+03  0.12499832966E+03 0.  0.
    9000005    1    3    3    0    0 -0.22635338386E+01  0.31964097096E+02  0.23047593374E+02  0.39484410201E+02  0.10000000000E+01 0.  0.
    9000005    1    3    3    0    0 -0.20356752124E+02 -0.50922384252E+02  0.36927583648E+03  0.37332710855E+03  0.10000000000E+01 0.  0.
         21    1    1    2  502  501  0.22620285962E+02  0.18958287156E+02  0.12684526043E+03  0.13023369027E+03  0.00000000000E+00 0. -1.
<mgrwt>
<rscale>  1 0.12843550E+03</rscale>
<asrwt>0</asrwt>
<pdfrwt beam="1">  1        4 0.81708738E-01 0.12843550E+03</pdfrwt>
<pdfrwt beam="2">  1       -4 0.18366558E-02 0.12843550E+03</pdfrwt>
<totfact> 0.25539964E+03</totfact>
</mgrwt>
</event>
<event>
 6    4  0.1195577E-003  0.1317359E+03  0.7818608E-02  0.1224903E+00
         -4   -1    0    0    0  501 -0.00000000000E+00  0.00000000000E+00  0.13543938899E+02  0.13603351825E+02  0.12700000000E+01 0. -1.
          4   -1    0    0  502    0  0.00000000000E+00 -0.00000000000E+00 -0.55784684481E+03  0.55784829046E+03  0.12700000000E+01 0. -1.
         25    2    1    2    0    0 -0.15763776981E+02  0.38489100279E+02 -0.43467645889E+03  0.45420035064E+03  0.12499770839E+03 0.  0.
    9000005    1    3    3    0    0  0.38744205277E+02  0.50000602984E+02 -0.13125599103E+03  0.14570624188E+03  0.10000000000E+01 0.  0.
    9000005    1    3    3    0    0 -0.54507982257E+02 -0.11511502704E+02 -0.30342046785E+03  0.30849410875E+03  0.10000000000E+01 0.  0.
         21    1    1    2  502  501  0.15763776981E+02 -0.38489100279E+02 -0.10962644703E+03  0.11725129165E+03  0.00000000000E+00 0. -1.
<mgrwt>
<rscale>  1 0.13173585E+03</rscale>
<asrwt>0</asrwt>
<pdfrwt beam="2">  1        4 0.85827255E-01 0.13173585E+03</pdfrwt>
<pdfrwt beam="1">  1       -4 0.20883648E-02 0.13173585E+03</pdfrwt>
<totfact> 0.18899150E+03</totfact>
</mgrwt>
</event>
<event>
 6    4  0.1195577E-003  0.1288456E+03  0.7818608E-02  0.1229179E+00
          4   -1    0    0  502    0  0.00000000000E+00  0.00000000000E+00  0.31809332576E+02  0.31834675104E+02  0.12700000000E+01 0. -1.
         -4   -1    0    0    0  501 -0.00000000000E+00 -0.00000000000E+00 -0.22704444112E+03  0.22704799304E+03  0.12700000000E+01 0. -1.
         25    2    1    2    0    0  0.18962615062E+02 -0.24835608304E+02 -0.18605815714E+03  0.22631574248E+03  0.12499915699E+03 0.  0.
    9000005    1    3    3    0    0 -0.69669653041E+01  0.17433316830E+02  0.11892394577E+02  0.22246082577E+02  0.10000000000E+01 0.  0.
    9000005    1    3    3    0    0  0.25929580366E+02 -0.42268925134E+02 -0.19795055171E+03  0.20406965990E+03  0.10000000000E+01 0.  0.
         21    1    1    2  502  501 -0.18962615062E+02  0.24835608304E+02 -0.91769514043E+01  0.32566925659E+02  0.00000000000E+00 0.  1.
<mgrwt>
<rscale>  1 0.12884556E+03</rscale>
<asrwt>0</asrwt>
<pdfrwt beam="1">  1        4 0.48959663E-02 0.12884556E+03</pdfrwt>
<pdfrwt beam="2">  1       -4 0.34932136E-01 0.12884556E+03</pdfrwt>
<totfact> 0.31743223E+03</totfact>
</mgrwt>
</event>
<event>
 6    4  0.1195577E-003  0.1336859E+03  0.7818608E-02  0.1222087E+00
         -4   -1    0    0    0  501 -0.00000000000E+00  0.00000000000E+00  0.22959689945E+02  0.22994787722E+02  0.12700000000E+01 0.  1.
          4   -1    0    0  502    0  0.00000000000E+00 -0.00000000000E+00 -0.36635469637E+03  0.36635689764E+03  0.12700000000E+01 0.  1.
         25    2    1    2    0    0  0.45760198308E+02 -0.12369216352E+02 -0.22356455583E+03  0.26048613469E+03  0.12499968991E+03 0.  0.
    9000005    1    3    3    0    0  0.72553990761E+01 -0.36665762864E+02 -0.55906753356E+01  0.37805748675E+02  0.10000000000E+01 0.  0.
    9000005    1    3    3    0    0  0.38504799232E+02  0.24296546513E+02 -0.21797388050E+03  0.22268038602E+03  0.10000000000E+01 0.  0.
         21    1    1    2  502  501 -0.45760198308E+02  0.12369216352E+02 -0.11983045059E+03  0.12886555068E+03  0.00000000000E+00 0.  1.
<mgrwt>
<rscale>  1 0.13368588E+03</rscale>
<asrwt>0</asrwt>
<pdfrwt beam="2">  1        4 0.56365126E-01 0.13368588E+03</pdfrwt>
<pdfrwt beam="1">  1       -4 0.35351294E-02 0.13368588E+03</pdfrwt>
<totfact> 0.20653823E+03</totfact>
</mgrwt>
</event>
<event>
 6    4  0.1195577E-003  0.1269390E+03  0.7818608E-02  0.1232070E+00
          4   -1    0    0  502    0  0.00000000000E+00  0.00000000000E+00  0.98339315324E+02  0.98347515670E+02  0.12700000000E+01 0.  1.
         -4   -1    0    0    0  501 -0.00000000000E+00 -0.00000000000E+00 -0.64690600359E+02  0.64703065421E+02  0.12700000000E+01 0.  1.
         25    2    1    2    0    0 -0.21139572687E+02  0.64569228468E+01  0.52285111630E+01  0.12704667338E+03  0.12499978601E+03 0.  0.
    9000005    1    3    3    0    0 -0.72635499732E+02  0.31695738394E+01  0.15693822555E+02  0.74385872893E+02  0.10000000000E+01 0.  0.
    9000005    1    3    3    0    0  0.51495927045E+02  0.32873490075E+01 -0.10465311392E+02  0.52660800490E+02  0.10000000000E+01 0.  0.
         21    1    1    2  502  501  0.21139572687E+02 -0.64569228468E+01  0.28420203802E+02  0.36003907707E+02  0.00000000000E+00 0. -1.
<mgrwt>
<rscale>  1 0.12693904E+03</rscale>
<asrwt>0</asrwt>
<pdfrwt beam="1">  1        4 0.15130715E-01 0.12693904E+03</pdfrwt>
<pdfrwt beam="2">  1       -4 0.99539898E-02 0.12693904E+03</pdfrwt>
<totfact> 0.45620886E+03</totfact>
</mgrwt>
</event>
<event>
 6    4  0.1195577E-003  0.1269107E+03  0.7818608E-02  0.1232113E+00
          4   -1    0    0  502    0  0.00000000000E+00  0.00000000000E+00  0.13653720848E+03  0.13654311480E+03  0.12700000000E+01 0.  1.
         -4   -1    0    0    0  501 -0.00000000000E+00 -0.00000000000E+00 -0.42009538775E+02  0.42028731221E+02  0.12700000000E+01 0.  1.
         25    2    1    2    0    0 -0.80183453789E+01  0.20452047654E+02  0.67507126614E+02  0.14374814913E+03  0.12499495238E+03 0.  0.
    9000005    1    3    3    0    0 -0.29120851836E+01  0.39026220265E+02  0.99200967911E+02  0.10664594762E+03  0.10000000000E+01 0.  0.
    9000005    1    3    3    0    0 -0.51062601953E+01 -0.18574172612E+02 -0.31693841298E+02  0.37102201519E+02  0.10000000000E+01 0.  0.
         21    1    1    2  502  501  0.80183453789E+01 -0.20452047654E+02  0.27020543088E+02  0.34823696883E+02  0.00000000000E+00 0.  1.
<mgrwt>
<rscale>  1 0.12691067E+03</rscale>
<asrwt>0</asrwt>
<pdfrwt beam="1">  1        4 0.21007655E-01 0.12691067E+03</pdfrwt>
<pdfrwt beam="2">  1       -4 0.64649366E-02 0.12691067E+03</pdfrwt>
<totfact> 0.52055876E+03</totfact>
</mgrwt>
</event>
<event>
 6    4  0.1195577E-003  0.1279237E+03  0.7818608E-02  0.1230570E+00
          4   -1    0    0  502    0  0.00000000000E+00  0.00000000000E+00  0.44691048570E+03  0.44691229020E+03  0.12700000000E+01 0.  1.
         -4   -1    0    0    0  501 -0.00000000000E+00 -0.00000000000E+00 -0.13865728401E+02  0.13923768315E+02  0.12700000000E+01 0.  1.
         25    2    1    2    0    0  0.27085297495E+02  0.24635491705E+01  0.32131062455E+03  0.34583954189E+03  0.12499915547E+03 0.  0.
    9000005    1    3    3    0    0 -0.11077736320E+02  0.17086215860E+02  0.29816509052E+03  0.29886129930E+03  0.10000000000E+01 0.  0.
    9000005    1    3    3    0    0  0.38163033815E+02 -0.14622666690E+02  0.23145534033E+02  0.46978242589E+02  0.10000000000E+01 0.  0.
         21    1    1    2  502  501 -0.27085297495E+02 -0.24635491705E+01  0.11173413275E+03  0.11499651663E+03  0.00000000000E+00 0.  1.
<mgrwt>
<rscale>  1 0.12792369E+03</rscale>
<asrwt>0</asrwt>
<pdfrwt beam="1">  1        4 0.68760050E-01 0.12792369E+03</pdfrwt>
<pdfrwt beam="2">  1       -4 0.21377928E-02 0.12792369E+03</pdfrwt>
<totfact> 0.29436710E+03</totfact>
</mgrwt>
</event>
<event>
 6    4  0.1195577E-003  0.1317839E+03  0.7818608E-02  0.1224832E+00
         -4   -1    0    0    0  501 -0.00000000000E+00  0.00000000000E+00  0.70937090877E+02  0.70948458490E+02  0.12700000000E+01 0. -1.
          4   -1    0    0  502    0  0.00000000000E+00 -0.00000000000E+00 -0.10821858502E+03  0.10822603681E+03  0.12700000000E+01 0. -1.
         25    2    1    2    0    0  0.41352871343E+02 -0.55188837047E+01 -0.17292822994E+02  0.13291365851E+03  0.12500592325E+03 0.  0.
    9000005    1    3    3    0    0  0.73020738346E+02 -0.28823054791E+01  0.27412202812E+02  0.78056164244E+02  0.10000000000E+01 0.  0.
    9000005    1    3    3    0    0 -0.31667867003E+02 -0.26365782256E+01 -0.44705025806E+02  0.54857494270E+02  0.10000000000E+01 0.  0.
         21    1    1    2  502  501 -0.41352871343E+02  0.55188837047E+01 -0.19988671146E+02  0.46260836783E+02  0.00000000000E+00 0. -1.
<mgrwt>
<rscale>  1 0.13178391E+03</rscale>
<asrwt>0</asrwt>
<pdfrwt beam="2">  1        4 0.16650461E-01 0.13178391E+03</pdfrwt>
<pdfrwt beam="1">  1       -4 0.10914846E-01 0.13178391E+03</pdfrwt>
<totfact> 0.33318225E+03</totfact>
</mgrwt>
</event>
<event>
 6    4  0.1195577E-003  0.1654970E+03  0.7818608E-02  0.1182627E+00
         -4   -1    0    0    0  501 -0.00000000000E+00  0.00000000000E+00  0.54451052804E+03  0.54451200910E+03  0.12700000000E+01 0. -1.
          4   -1    0    0  502    0  0.00000000000E+00 -0.00000000000E+00 -0.60123973370E+02  0.60137384993E+02  0.12700000000E+01 0. -1.
         25    2    1    2    0    0 -0.10500795049E+03 -0.27152185320E+02  0.46616138307E+03  0.49466726957E+03  0.12500144676E+03 0.  0.
    9000005    1    3    3    0    0 -0.10264821638E+03  0.30862431218E+02  0.31471201135E+03  0.33246623298E+03  0.10000000000E+01 0.  0.
    9000005    1    3    3    0    0 -0.23597341069E+01 -0.58014616538E+02  0.15144937172E+03  0.16220103659E+03  0.10000000000E+01 0.  0.
         21    1    1    2  502  501  0.10500795049E+03  0.27152185320E+02  0.18225171608E+02  0.10998212452E+03  0.00000000000E+00 0. -1.
<mgrwt>
<rscale>  1 0.16549705E+03</rscale>
<asrwt>0</asrwt>
<pdfrwt beam="2">  1        4 0.92509876E-02 0.16549705E+03</pdfrwt>
<pdfrwt beam="1">  1       -4 0.83771997E-01 0.16549705E+03</pdfrwt>
<totfact> 0.19171333E+02</totfact>
</mgrwt>
</event>
<event>
 6    4  0.1195577E-003  0.1334122E+03  0.7818608E-02  0.1222479E+00
          4   -1    0    0  502    0  0.00000000000E+00  0.00000000000E+00  0.39478251873E+02  0.39498674293E+02  0.12700000000E+01 0.  1.
         -4   -1    0    0    0  501 -0.00000000000E+00 -0.00000000000E+00 -0.22761832163E+03  0.22762186459E+03  0.12700000000E+01 0.  1.
         25    2    1    2    0    0 -0.10754036202E+02 -0.45363443567E+02 -0.17223436417E+03  0.21786119686E+03  0.12500133435E+03 0.  0.
    9000005    1    3    3    0    0 -0.42440973636E+02  0.29760963508E+02 -0.69089296312E+02  0.86378712985E+02  0.10000000000E+01 0.  0.
    9000005    1    3    3    0    0  0.31686937434E+02 -0.75124407075E+02 -0.10314506786E+03  0.13148248387E+03  0.10000000000E+01 0.  0.
         21    1    1    2  502  501  0.10754036202E+02  0.45363443567E+02 -0.15905705588E+02  0.49259342029E+02  0.00000000000E+00 0.  1.
<mgrwt>
<rscale>  1 0.13341224E+03</rscale>
<asrwt>0</asrwt>
<pdfrwt beam="1">  1        4 0.60754209E-02 0.13341224E+03</pdfrwt>
<pdfrwt beam="2">  1       -4 0.35020046E-01 0.13341224E+03</pdfrwt>
<totfact> 0.22478088E+03</totfact>
</mgrwt>
</event>
<event>
 6    4  0.1195577E-003  0.1297688E+03  0.7818608E-02  0.1227799E+00
          4   -1    0    0  502    0  0.00000000000E+00  0.00000000000E+00  0.18628380218E+03  0.18628813128E+03  0.12700000000E+01 0.  1.
         -4   -1    0    0    0  501 -0.00000000000E+00 -0.00000000000E+00 -0.42039683205E+02  0.42058861896E+02  0.12700000000E+01 0.  1.
         25    2    1    2    0    0  0.32092055161E+02 -0.13611649949E+02  0.72659451398E+02  0.14872575448E+03  0.12499910860E+03 0.  0.
    9000005    1    3    3    0    0  0.79367491643E+02  0.49422937329E+00  0.35491676041E+02  0.86948847379E+02  0.10000000000E+01 0.  0.
    9000005    1    3    3    0    0 -0.47275436482E+02 -0.14105879322E+02  0.37167775357E+02  0.61776907102E+02  0.10000000000E+01 0.  0.
         21    1    1    2  502  501 -0.32092055161E+02  0.13611649949E+02  0.71584667576E+02  0.79621238692E+02  0.00000000000E+00 0.  1.
<mgrwt>
<rscale>  1 0.12976885E+03</rscale>
<asrwt>0</asrwt>
<pdfrwt beam="1">  1        4 0.28660855E-01 0.12976885E+03</pdfrwt>
<pdfrwt beam="2">  1       -4 0.64694518E-02 0.12976885E+03</pdfrwt>
<totfact> 0.29517101E+03</totfact>
</mgrwt>
</event>
<event>
 6    4  0.1195577E-003  0.1285410E+03  0.7818608E-02  0.1229637E+00
         -4   -1    0    0    0  501 -0.00000000000E+00  0.00000000000E+00  0.60557055898E+03  0.60557189069E+03  0.12700000000E+01 0. -1.
          4   -1    0    0  502    0  0.00000000000E+00 -0.00000000000E+00 -0.10739518740E+02  0.10814349854E+02  0.12700000000E+01 0. -1.
         25    2    1    2    0    0  0.22845837570E+02 -0.19472151738E+02  0.42836266563E+03  0.44723300608E+03  0.12498676503E+03 0.  0.
    9000005    1    3    3    0    0  0.33859964953E+02 -0.68687100412E+02  0.22373994020E+03  0.23648462070E+03  0.10000000000E+01 0.  0.
    9000005    1    3    3    0    0 -0.11014127382E+02  0.49214948674E+02  0.20462272543E+03  0.21074838538E+03  0.10000000000E+01 0.  0.
         21    1    1    2  502  501 -0.22845837570E+02  0.19472151738E+02  0.16646837460E+03  0.16915323447E+03  0.00000000000E+00 0.  1.
<mgrwt>
<rscale>  1 0.12854100E+03</rscale>
<asrwt>0</asrwt>
<pdfrwt beam="2">  1        4 0.16580918E-02 0.12854100E+03</pdfrwt>
<pdfrwt beam="1">  1       -4 0.93170587E-01 0.12854100E+03</pdfrwt>
<totfact> 0.22253458E+03</totfact>
</mgrwt>
</event>
<event>
 6    4  0.1195577E-003  0.1286616E+03  0.7818608E-02  0.1229455E+00
         -4   -1    0    0    0  501 -0.00000000000E+00  0.00000000000E+00  0.10397997875E+02  0.10475268961E+02  0.12700000000E+01 0.  1.
          4   -1    0    0  502    0  0.00000000000E+00 -0.00000000000E+00 -0.61577264120E+03  0.61577395085E+03  0.12700000000E+01 0.  1.
         25    2    1    2    0    0 -0.24531392439E+02  0.18064898112E+02 -0.51707301994E+03  0.53283987097E+03  0.12500276152E+03 0.  0.
    9000005    1    3    3    0    0  0.41824130876E+02 -0.17280168461E+02 -0.11117170931E+03  0.12003337493E+03  0.10000000000E+01 0.  0.
    9000005    1    3    3    0    0 -0.66355523315E+02  0.35345066573E+02 -0.40590131062E+03  0.41280649604E+03  0.10000000000E+01 0.  0.
         21    1    1    2  502  501  0.24531392439E+02 -0.18064898112E+02 -0.88301623383E+02  0.93409348841E+02  0.00000000000E+00 0. -1.
<mgrwt>
<rscale>  1 0.12866165E+03</rscale>
<asrwt>0</asrwt>
<pdfrwt beam="2">  1        4 0.94740269E-01 0.12866165E+03</pdfrwt>
<pdfrwt beam="1">  1       -4 0.16057371E-02 0.12866165E+03</pdfrwt>
<totfact> 0.22503969E+03</totfact>
</mgrwt>
</event>
<event>
 6    4  0.1195577E-003  0.1329550E+03  0.7818608E-02  0.1223136E+00
         -4   -1    0    0    0  501 -0.00000000000E+00  0.00000000000E+00  0.13798585566E+04  0.13798591411E+04  0.12700000000E+01 0. -1.
          4   -1    0    0  502    0  0.00000000000E+00 -0.00000000000E+00 -0.60419889035E+01  0.61740205628E+01  0.12700000000E+01 0. -1.
         25    2    1    2    0    0  0.35382180747E+02 -0.28286990931E+02  0.11513616619E+04  0.11590128152E+04  0.12499990693E+03 0.  0.
    9000005    1    3    3    0    0 -0.16302764321E+02  0.21573571533E+02  0.66755084899E+02  0.72030830018E+02  0.10000000000E+01 0.  0.
    9000005    1    3    3    0    0  0.51684945068E+02 -0.49860562464E+02  0.10846065770E+04  0.10869819851E+04  0.10000000000E+01 0.  0.
         21    1    1    2  502  501 -0.35382180747E+02  0.28286990931E+02  0.22245490587E+03  0.22702034648E+03  0.00000000000E+00 0. -1.
<mgrwt>
<rscale>  1 0.13295499E+03</rscale>
<asrwt>0</asrwt>
<pdfrwt beam="2">  1        4 0.93973705E-03 0.13295499E+03</pdfrwt>
<pdfrwt beam="1">  1       -4 0.21229635E+00 0.13295499E+03</pdfrwt>
<totfact> 0.65674804E+02</totfact>
</mgrwt>
</event>
<event>
 6    4  0.1195577E-003  0.1275191E+03  0.7818608E-02  0.1231184E+00
         -4   -1    0    0    0  501 -0.00000000000E+00  0.00000000000E+00  0.35862166876E+02  0.35884647317E+02  0.12700000000E+01 0. -1.
          4   -1    0    0  502    0  0.00000000000E+00 -0.00000000000E+00 -0.21965733500E+03  0.21966100637E+03  0.12700000000E+01 0. -1.
         25    2    1    2    0    0 -0.21643744074E+02 -0.13010787121E+02 -0.84225943972E+02  0.15282388074E+03  0.12499358643E+03 0.  0.
    9000005    1    3    3    0    0  0.46124876024E+02  0.20201542267E+02 -0.46043427411E+02  0.68239312027E+02  0.10000000000E+01 0.  0.
    9000005    1    3    3    0    0 -0.67768620098E+02 -0.33212329388E+02 -0.38182516561E+02  0.84584568712E+02  0.10000000000E+01 0.  0.
         21    1    1    2  502  501  0.21643744074E+02  0.13010787121E+02 -0.99569224149E+02  0.10272177294E+03  0.00000000000E+00 0. -1.
<mgrwt>
<rscale>  1 0.12751913E+03</rscale>
<asrwt>0</asrwt>
<pdfrwt beam="2">  1        4 0.33795447E-01 0.12751913E+03</pdfrwt>
<pdfrwt beam="1">  1       -4 0.55192683E-02 0.12751913E+03</pdfrwt>
<totfact> 0.27825070E+03</totfact>
</mgrwt>
</event>
<event>
 6    4  0.1195577E-003  0.1270816E+03  0.7818608E-02  0.1231851E+00
         -4   -1    0    0    0  501 -0.00000000000E+00  0.00000000000E+00  0.51827304549E+02  0.51842862545E+02  0.12700000000E+01 0. -1.
          4   -1    0    0  502    0  0.00000000000E+00 -0.00000000000E+00 -0.13403973904E+03  0.13404575541E+03  0.12700000000E+01 0. -1.
         25    2    1    2    0    0 -0.18601318829E+02 -0.13385575387E+02 -0.32535409288E+02  0.13118039623E+03  0.12499824322E+03 0.  0.
    9000005    1    3    3    0    0  0.53052410745E+02  0.12909618803E+01 -0.62114676063E+01  0.53439752977E+02  0.10000000000E+01 0.  0.
    9000005    1    3    3    0    0 -0.71653729573E+02 -0.14676537268E+02 -0.26323941682E+02  0.77740643255E+02  0.10000000000E+01 0.  0.
         21    1    1    2  502  501  0.18601318829E+02  0.13385575387E+02 -0.49677025206E+02  0.54708221721E+02  0.00000000000E+00 0. -1.
<mgrwt>
<rscale>  1 0.12708164E+03</rscale>
<asrwt>0</asrwt>
<pdfrwt beam="2">  1        4 0.20623158E-01 0.12708164E+03</pdfrwt>
<pdfrwt beam="1">  1       -4 0.79750911E-02 0.12708164E+03</pdfrwt>
<totfact> 0.38139524E+03</totfact>
</mgrwt>
</event>
<event>
 6    4  0.1195577E-003  0.1388579E+03  0.7818608E-02  0.1214874E+00
          4   -1    0    0  502    0  0.00000000000E+00  0.00000000000E+00  0.15757682050E+03  0.15758193824E+03  0.12700000000E+01 0.  1.
         -4   -1    0    0    0  501 -0.00000000000E+00 -0.00000000000E+00 -0.68226229381E+02  0.68238048591E+02  0.12700000000E+01 0.  1.
         25    2    1    2    0    0  0.38013256708E+02  0.47040472840E+02  0.32055218457E+02  0.14250988241E+03  0.12499486302E+03 0.  0.
    9000005    1    3    3    0    0  0.56873893739E+02  0.49819931146E+01 -0.30550531874E+02  0.64759517001E+02  0.10000000000E+01 0.  0.
    9000005    1    3    3    0    0 -0.18860637031E+02  0.42058479725E+02  0.62605750331E+02  0.77750365404E+02  0.10000000000E+01 0.  0.
         21    1    1    2  502  501 -0.38013256708E+02 -0.47040472840E+02  0.57295372665E+02  0.83310104425E+02  0.00000000000E+00 0.  1.
<mgrwt>
<rscale>  1 0.13885795E+03</rscale>
<asrwt>0</asrwt>
<pdfrwt beam="1">  1        4 0.24243891E-01 0.13885795E+03</pdfrwt>
<pdfrwt beam="2">  1       -4 0.10497646E-01 0.13885795E+03</pdfrwt>
<totfact> 0.18311256E+03</totfact>
</mgrwt>
</event>
<event>
 6    4  0.1195577E-003  0.1348853E+03  0.7818608E-02  0.1220382E+00
         -4   -1    0    0    0  501 -0.00000000000E+00  0.00000000000E+00  0.42378420405E+03  0.42378610702E+03  0.12700000000E+01 0. -1.
          4   -1    0    0  502    0  0.00000000000E+00 -0.00000000000E+00 -0.33928858981E+02  0.33952619513E+02  0.12700000000E+01 0. -1.
         25    2    1    2    0    0  0.27205247593E+02 -0.42614550889E+02  0.38380809865E+03  0.40682021680E+03  0.12505161640E+03 0.  0.
    9000005    1    3    3    0    0  0.26567299343E+02  0.26835502565E+02  0.27600059468E+03  0.27857367760E+03  0.10000000000E+01 0.  0.
    9000005    1    3    3    0    0  0.63794825010E+00 -0.69450053454E+02  0.10780750397E+03  0.12824653920E+03  0.10000000000E+01 0.  0.
         21    1    1    2  502  501 -0.27205247593E+02  0.42614550889E+02  0.60472464207E+01  0.50918509733E+02  0.00000000000E+00 0. -1.
<mgrwt>
<rscale>  1 0.13488526E+03</rscale>
<asrwt>0</asrwt>
<pdfrwt beam="2">  1        4 0.52217988E-02 0.13488526E+03</pdfrwt>
<pdfrwt beam="1">  1       -4 0.65199541E-01 0.13488526E+03</pdfrwt>
<totfact> 0.81797254E+02</totfact>
</mgrwt>
</event>
<event>
 6    4  0.1195577E-003  0.1294595E+03  0.7818608E-02  0.1228260E+00
         -4   -1    0    0    0  501 -0.00000000000E+00  0.00000000000E+00  0.13240388827E+03  0.13240997897E+03  0.12700000000E+01 0.  1.
          4   -1    0    0  502    0  0.00000000000E+00 -0.00000000000E+00 -0.55335230746E+02  0.55349802725E+02  0.12700000000E+01 0.  1.
         25    2    1    2    0    0  0.26259012646E+02  0.21064326504E+02  0.82712144215E+02  0.15362635909E+03  0.12500607110E+03 0.  0.
    9000005    1    3    3    0    0  0.58811584851E+02  0.42123631168E+02  0.88613402879E+02  0.11439640722E+03  0.10000000000E+01 0.  0.
    9000005    1    3    3    0    0 -0.32552572205E+02 -0.21059304664E+02 -0.59012586635E+01  0.39229951872E+02  0.10000000000E+01 0.  0.
         21    1    1    2  502  501 -0.26259012646E+02 -0.21064326504E+02 -0.56434866882E+01  0.34133422598E+02  0.00000000000E+00 0.  1.
<mgrwt>
<rscale>  1 0.12945949E+03</rscale>
<asrwt>0</asrwt>
<pdfrwt beam="2">  1        4 0.85147019E-02 0.12945949E+03</pdfrwt>
<pdfrwt beam="1">  1       -4 0.20371418E-01 0.12945949E+03</pdfrwt>
<totfact> 0.35141035E+03</totfact>
</mgrwt>
</event>
<event>
 6    4  0.1195577E-003  0.1282559E+03  0.7818608E-02  0.1230067E+00
         -4   -1    0    0    0  501 -0.00000000000E+00  0.00000000000E+00  0.30085057521E+03  0.30085325576E+03  0.12700000000E+01 0. -1.
          4   -1    0    0  502    0  0.00000000000E+00 -0.00000000000E+00 -0.22180748602E+02  0.22217076958E+02  0.12700000000E+01 0. -1.
         25    2    1    2    0    0  0.26568673394E+02 -0.10862034304E+02  0.25658391753E+03  0.28685340884E+03  0.12500277292E+03 0.  0.
    9000005    1    3    3    0    0  0.50222891668E+02 -0.34725429897E+02  0.54057305223E+02  0.81556033357E+02  0.10000000000E+01 0.  0.
    9000005    1    3    3    0    0 -0.23654218274E+02  0.23863395593E+02  0.20252661230E+03  0.20529737549E+03  0.10000000000E+01 0.  0.
         21    1    1    2  502  501 -0.26568673394E+02  0.10862034304E+02  0.22085909080E+02  0.36216923875E+02  0.00000000000E+00 0.  1.
<mgrwt>
<rscale>  1 0.12825588E+03</rscale>
<asrwt>0</asrwt>
<pdfrwt beam="2">  1        4 0.34154237E-02 0.12825588E+03</pdfrwt>
<pdfrwt beam="1">  1       -4 0.46287703E-01 0.12825588E+03</pdfrwt>
<totfact> 0.32292325E+03</totfact>
</mgrwt>
</event>
<event>
 6    4  0.1195577E-003  0.1295049E+03  0.7818608E-02  0.1228192E+00
         -4   -1    0    0    0  501 -0.00000000000E+00  0.00000000000E+00  0.21458438656E+03  0.21458814472E+03  0.12700000000E+01 0.  1.
          4   -1    0    0  502    0  0.00000000000E+00 -0.00000000000E+00 -0.40952550050E+02  0.40972237620E+02  0.12700000000E+01 0.  1.
         25    2    1    2    0    0  0.26074194267E+02  0.21545458897E+02  0.17938794489E+03  0.22124998757E+03  0.12500980690E+03 0.  0.
    9000005    1    3    3    0    0  0.16553032670E+02  0.31215026966E+01  0.19471370046E+03  0.19544352590E+03  0.10000000000E+01 0.  0.
    9000005    1    3    3    0    0  0.95211615962E+01  0.18423956200E+02 -0.15325755569E+02  0.25806461671E+02  0.10000000000E+01 0.  0.
         21    1    1    2  502  501 -0.26074194267E+02 -0.21545458897E+02 -0.57561083803E+01  0.34310394772E+02  0.00000000000E+00 0.  1.
<mgrwt>
<rscale>  1 0.12950491E+03</rscale>
<asrwt>0</asrwt>
<pdfrwt beam="2">  1        4 0.63021959E-02 0.12950491E+03</pdfrwt>
<pdfrwt beam="1">  1       -4 0.33014786E-01 0.12950491E+03</pdfrwt>
<totfact> 0.23553241E+03</totfact>
</mgrwt>
</event>
<event>
 6    4  0.1195577E-003  0.1272691E+03  0.7818608E-02  0.1231565E+00
         -4   -1    0    0    0  501 -0.00000000000E+00  0.00000000000E+00  0.39690884251E+02  0.39711197320E+02  0.12700000000E+01 0. -1.
          4   -1    0    0  502    0  0.00000000000E+00 -0.00000000000E+00 -0.19991290719E+03  0.19991694115E+03  0.12700000000E+01 0. -1.
         25    2    1    2    0    0  0.22906769719E+02 -0.68613351591E+01 -0.67879076790E+02  0.14423936700E+03  0.12500251161E+03 0.  0.
    9000005    1    3    3    0    0  0.36443170714E+02  0.23911421601E+02 -0.92698656621E+02  0.10243974675E+03  0.10000000000E+01 0.  0.
    9000005    1    3    3    0    0 -0.13536400995E+02 -0.30772756761E+02  0.24819579831E+02  0.41799620256E+02  0.10000000000E+01 0.  0.
         21    1    1    2  502  501 -0.22906769719E+02  0.68613351591E+01 -0.92342946148E+02  0.95388771469E+02  0.00000000000E+00 0. -1.
<mgrwt>
<rscale>  1 0.12726911E+03</rscale>
<asrwt>0</asrwt>
<pdfrwt beam="2">  1        4 0.30757704E-01 0.12726911E+03</pdfrwt>
<pdfrwt beam="1">  1       -4 0.61081628E-02 0.12726911E+03</pdfrwt>
<totfact> 0.28240512E+03</totfact>
</mgrwt>
</event>
<event>
 6    4  0.1195577E-003  0.1346277E+03  0.7818608E-02  0.1220746E+00
         -4   -1    0    0    0  501 -0.00000000000E+00  0.00000000000E+00  0.28497881659E+02  0.28526166217E+02  0.12700000000E+01 0. -1.
          4   -1    0    0  502    0  0.00000000000E+00 -0.00000000000E+00 -0.33193762255E+03  0.33194005207E+03  0.12700000000E+01 0. -1.
         25    2    1    2    0    0  0.23247321348E+02  0.44248296587E+02 -0.16306875108E+03  0.21146163956E+03  0.12500503080E+03 0.  0.
    9000005    1    3    3    0    0  0.39631479603E+02  0.53468172578E+02 -0.17630245902E+03  0.18844908254E+03  0.10000000000E+01 0.  0.
    9000005    1    3    3    0    0 -0.16384158255E+02 -0.92198759902E+01  0.13233707933E+02  0.23012557021E+02  0.10000000000E+01 0.  0.
         21    1    1    2  502  501 -0.23247321348E+02 -0.44248296587E+02 -0.14037098981E+03  0.14900457872E+03  0.00000000000E+00 0. -1.
<mgrwt>
<rscale>  1 0.13462766E+03</rscale>
<asrwt>0</asrwt>
<pdfrwt beam="2">  1        4 0.51069686E-01 0.13462766E+03</pdfrwt>
<pdfrwt beam="1">  1       -4 0.43866524E-02 0.13462766E+03</pdfrwt>
<totfact> 0.17998078E+03</totfact>
</mgrwt>
</event>
<event>
 6    4  0.1195577E-003  0.1270663E+03  0.7818608E-02  0.1231875E+00
         -4   -1    0    0    0  501 -0.00000000000E+00  0.00000000000E+00  0.72347232015E+02  0.72358378093E+02  0.12700000000E+01 0.  1.
          4   -1    0    0  502    0  0.00000000000E+00 -0.00000000000E+00 -0.85998547811E+02  0.86007924784E+02  0.12700000000E+01 0.  1.
         25    2    1    2    0    0 -0.91688374727E+01  0.20883213089E+02  0.74638061483E+01  0.12728536749E+03  0.12500272080E+03 0.  0.
    9000005    1    3    3    0    0  0.18786578700E+02  0.46642194286E+02 -0.41559309481E+02  0.65242670328E+02  0.10000000000E+01 0.  0.
    9000005    1    3    3    0    0 -0.27955416173E+02 -0.25758981196E+02  0.49023115629E+02  0.62042697166E+02  0.10000000000E+01 0.  0.
         21    1    1    2  502  501  0.91688374727E+01 -0.20883213089E+02 -0.21115121945E+02  0.31080935383E+02  0.00000000000E+00 0.  1.
<mgrwt>
<rscale>  1 0.12706635E+03</rscale>
<asrwt>0</asrwt>
<pdfrwt beam="2">  1        4 0.13232125E-01 0.12706635E+03</pdfrwt>
<pdfrwt beam="1">  1       -4 0.11131922E-01 0.12706635E+03</pdfrwt>
<totfact> 0.47663034E+03</totfact>
</mgrwt>
</event>
<event>
 6    4  0.1195577E-003  0.1301867E+03  0.7818608E-02  0.1227179E+00
         -4   -1    0    0    0  501 -0.00000000000E+00  0.00000000000E+00  0.43297113916E+03  0.43297300175E+03  0.12700000000E+01 0.  1.
          4   -1    0    0  502    0  0.00000000000E+00 -0.00000000000E+00 -0.22728679989E+02  0.22764133940E+02  0.12700000000E+01 0.  1.
         25    2    1    2    0    0 -0.13242509108E+02  0.33883432575E+02  0.39568809058E+03  0.41655447760E+03  0.12500046691E+03 0.  0.
    9000005    1    3    3    0    0  0.42277412548E+02 -0.24274255288E+02  0.12493417149E+03  0.13411251353E+03  0.10000000000E+01 0.  0.
    9000005    1    3    3    0    0 -0.55519921656E+02  0.58157687863E+02  0.27075391909E+03  0.28244196406E+03  0.10000000000E+01 0.  0.
         21    1    1    2  502  501  0.13242509108E+02 -0.33883432575E+02  0.14554368593E+02  0.39182658099E+02  0.00000000000E+00 0. -1.
<mgrwt>
<rscale>  1 0.13018667E+03</rscale>
<asrwt>0</asrwt>
<pdfrwt beam="2">  1        4 0.34995903E-02 0.13018667E+03</pdfrwt>
<pdfrwt beam="1">  1       -4 0.66613818E-01 0.13018667E+03</pdfrwt>
<totfact> 0.14672386E+03</totfact>
</mgrwt>
</event>
<event>
 6    4  0.1195577E-003  0.1289710E+03  0.7818608E-02  0.1228991E+00
          4   -1    0    0  502    0  0.00000000000E+00  0.00000000000E+00  0.24564518926E+02  0.24597326889E+02  0.12700000000E+01 0.  1.
         -4   -1    0    0    0  501 -0.00000000000E+00 -0.00000000000E+00 -0.26568583764E+03  0.26568887297E+03  0.12700000000E+01 0.  1.
         25    2    1    2    0    0  0.30576745648E+02  0.85414488936E+01 -0.20501066970E+03  0.24220426255E+03  0.12500254550E+03 0.  0.
    9000005    1    3    3    0    0 -0.46546230656E+02 -0.11628019899E+01 -0.10994000088E+03  0.11939726752E+03  0.10000000000E+01 0.  0.
    9000005    1    3    3    0    0  0.77122976304E+02  0.97042508835E+01 -0.95070668823E+02  0.12280699504E+03  0.10000000000E+01 0.  0.
         21    1    1    2  502  501 -0.30576745648E+02 -0.85414488936E+01 -0.36110649010E+02  0.48081937311E+02  0.00000000000E+00 0.  1.
<mgrwt>
<rscale>  1 0.12897104E+03</rscale>
<asrwt>0</asrwt>
<pdfrwt beam="1">  1        4 0.37819141E-02 0.12897104E+03</pdfrwt>
<pdfrwt beam="2">  1       -4 0.40877499E-01 0.12897104E+03</pdfrwt>
<totfact> 0.35260862E+03</totfact>
</mgrwt>
</event>
<event>
 6    4  0.1195577E-003  0.1312122E+03  0.7818608E-02  0.1225668E+00
         -4   -1    0    0    0  501 -0.00000000000E+00  0.00000000000E+00  0.10779995113E+04  0.10780002594E+04  0.12700000000E+01 0.  1.
          4   -1    0    0  502    0  0.00000000000E+00 -0.00000000000E+00 -0.11176354185E+02  0.11248279551E+02  0.12700000000E+01 0.  1.
         25    2    1    2    0    0  0.31275722641E+02 -0.24716792950E+02  0.10170531771E+04  0.10254822344E+04  0.12501022933E+03 0.  0.
    9000005    1    3    3    0    0  0.15027587475E+02 -0.13414957385E+02  0.20591770199E+02  0.28823783008E+02  0.10000000000E+01 0.  0.
    9000005    1    3    3    0    0  0.16248135166E+02 -0.11301835565E+02  0.99646140687E+03  0.99665845141E+03  0.10000000000E+01 0.  0.
         21    1    1    2  502  501 -0.31275722641E+02  0.24716792950E+02  0.49769980061E+02  0.63766304548E+02  0.00000000000E+00 0.  1.
<mgrwt>
<rscale>  1 0.13121223E+03</rscale>
<asrwt>0</asrwt>
<pdfrwt beam="2">  1        4 0.17250289E-02 0.13121223E+03</pdfrwt>
<pdfrwt beam="1">  1       -4 0.16585172E+00 0.13121223E+03</pdfrwt>
<totfact> 0.51782038E+02</totfact>
</mgrwt>
</event>
<event>
 6    4  0.1195577E-003  0.1368403E+03  0.7818608E-02  0.1217645E+00
         -4   -1    0    0    0  501 -0.00000000000E+00  0.00000000000E+00  0.59010849190E+03  0.59010985851E+03  0.12700000000E+01 0. -1.
          4   -1    0    0  502    0  0.00000000000E+00 -0.00000000000E+00 -0.15837217075E+02  0.15888056668E+02  0.12700000000E+01 0. -1.
         25    2    1    2    0    0 -0.36307827481E+02 -0.42208663602E+02  0.43478364624E+03  0.45580927331E+03  0.12500177989E+03 0.  0.
    9000005    1    3    3    0    0  0.76231263497E+01  0.11003672902E+02  0.33041854282E+03  0.33069110407E+03  0.10000000000E+01 0.  0.
    9000005    1    3    3    0    0 -0.43930953831E+02 -0.53212336504E+02  0.10436510342E+03  0.12511816923E+03  0.10000000000E+01 0.  0.
         21    1    1    2  502  501  0.36307827481E+02  0.42208663602E+02  0.13948762858E+03  0.15018864187E+03  0.00000000000E+00 0. -1.
<mgrwt>
<rscale>  1 0.13684033E+03</rscale>
<asrwt>0</asrwt>
<pdfrwt beam="2">  1        4 0.24405106E-02 0.13684033E+03</pdfrwt>
<pdfrwt beam="1">  1       -4 0.90789947E-01 0.13684033E+03</pdfrwt>
<totfact> 0.13193053E+03</totfact>
</mgrwt>
</event>
<event>
 6    4  0.1195577E-003  0.1538147E+03  0.7818608E-02  0.1195862E+00
          4   -1    0    0  502    0  0.00000000000E+00  0.00000000000E+00  0.18273036168E+03  0.18273477496E+03  0.12700000000E+01 0. -1.
         -4   -1    0    0    0  501 -0.00000000000E+00 -0.00000000000E+00 -0.87961037122E+02  0.87970204909E+02  0.12700000000E+01 0. -1.
         25    2    1    2    0    0  0.76964369991E+02  0.45983289818E+02  0.22298178154E+02  0.15542252565E+03  0.12498390112E+03 0.  0.
    9000005    1    3    3    0    0  0.56066063383E+02  0.61031822278E+02  0.65147091979E+02  0.10542025606E+03  0.10000000000E+01 0.  0.
    9000005    1    3    3    0    0  0.20898306607E+02 -0.15048532460E+02 -0.42848913825E+02  0.50002269591E+02  0.10000000000E+01 0.  0.
         21    1    1    2  502  501 -0.76964369991E+02 -0.45983289818E+02  0.72471146408E+02  0.11528245422E+03  0.00000000000E+00 0. -1.
<mgrwt>
<rscale>  1 0.15381467E+03</rscale>
<asrwt>0</asrwt>
<pdfrwt beam="1">  1        4 0.28113408E-01 0.15381467E+03</pdfrwt>
<pdfrwt beam="2">  1       -4 0.13533512E-01 0.15381467E+03</pdfrwt>
<totfact> 0.91946174E+02</totfact>
</mgrwt>
</event>
<event>
 6    4  0.1195577E-003  0.1274905E+03  0.7818608E-02  0.1231228E+00
         -4   -1    0    0    0  501 -0.00000000000E+00  0.00000000000E+00  0.39684229470E+02  0.39704545944E+02  0.12700000000E+01 0.  1.
          4   -1    0    0  502    0  0.00000000000E+00 -0.00000000000E+00 -0.14657638305E+03  0.14658188485E+03  0.12700000000E+01 0.  1.
         25    2    1    2    0    0  0.97690142416E+01 -0.23094368603E+02 -0.89574905179E+02  0.15581233372E+03  0.12500014481E+03 0.  0.
    9000005    1    3    3    0    0  0.57406962156E+02 -0.40091924799E+02 -0.26308992328E+02  0.74806983734E+02  0.10000000000E+01 0.  0.
    9000005    1    3    3    0    0 -0.47637947914E+02  0.16997556196E+02 -0.63265912851E+02  0.81005349990E+02  0.10000000000E+01 0.  0.
         21    1    1    2  502  501 -0.97690142416E+01  0.23094368603E+02 -0.17317248399E+02  0.30474097075E+02  0.00000000000E+00 0. -1.
<mgrwt>
<rscale>  1 0.12749047E+03</rscale>
<asrwt>0</asrwt>
<pdfrwt beam="2">  1        4 0.22552199E-01 0.12749047E+03</pdfrwt>
<pdfrwt beam="1">  1       -4 0.61072521E-02 0.12749047E+03</pdfrwt>
<totfact> 0.50271865E+03</totfact>
</mgrwt>
</event>
<event>
 6    4  0.1195577E-003  0.1408250E+03  0.7818608E-02  0.1212223E+00
          4   -1    0    0  502    0  0.00000000000E+00  0.00000000000E+00  0.83120508985E+03  0.83120606007E+03  0.12700000000E+01 0.  1.
         -4   -1    0    0    0  501 -0.00000000000E+00 -0.00000000000E+00 -0.12853557460E+02  0.12916146460E+02  0.12700000000E+01 0.  1.
         25    2    1    2    0    0 -0.25392430764E+02  0.59671715907E+02  0.60253161312E+03  0.61876975641E+03  0.12500470959E+03 0.  0.
    9000005    1    3    3    0    0 -0.17252572154E+02  0.45243683248E+02  0.65393779414E+02  0.81375601416E+02  0.10000000000E+01 0.  0.
    9000005    1    3    3    0    0 -0.81398586103E+01  0.14428032659E+02  0.53713783370E+03  0.53739415499E+03  0.10000000000E+01 0.  0.
         21    1    1    2  502  501  0.25392430764E+02 -0.59671715907E+02  0.21581991927E+03  0.22535245012E+03  0.00000000000E+00 0.  1.
<mgrwt>
<rscale>  1 0.14082495E+03</rscale>
<asrwt>0</asrwt>
<pdfrwt beam="1">  1        4 0.12788258E+00 0.14082495E+03</pdfrwt>
<pdfrwt beam="2">  1       -4 0.19823598E-02 0.14082495E+03</pdfrwt>
<totfact> 0.81824344E+02</totfact>
</mgrwt>
</event>
<event>
 6    4  0.1195577E-003  0.1868191E+03  0.7818608E-02  0.1161362E+00
          4   -1    0    0  502    0  0.00000000000E+00  0.00000000000E+00  0.31989756687E+02  0.32014956394E+02  0.12700000000E+01 0. -1.
         -4   -1    0    0    0  501 -0.00000000000E+00 -0.00000000000E+00 -0.10446934781E+04  0.10446942500E+04  0.12700000000E+01 0. -1.
         25    2    1    2    0    0  0.70693397421E+02  0.11949128955E+03 -0.80832952870E+03  0.82963728298E+03  0.12500267847E+03 0.  0.
    9000005    1    3    3    0    0  0.13950864727E+02  0.42790107512E+01 -0.42720122177E+03  0.42745154163E+03  0.10000000000E+01 0.  0.
    9000005    1    3    3    0    0  0.56742532694E+02  0.11521227880E+03 -0.38112830694E+03  0.40218574135E+03  0.10000000000E+01 0.  0.
         21    1    1    2  502  501 -0.70693397421E+02 -0.11949128955E+03 -0.20437419271E+03  0.24707192346E+03  0.00000000000E+00 0. -1.
<mgrwt>
<rscale>  1 0.18681915E+03</rscale>
<asrwt>0</asrwt>
<pdfrwt beam="1">  1        4 0.49234997E-02 0.18681915E+03</pdfrwt>
<pdfrwt beam="2">  1       -4 0.16072404E+00 0.18681915E+03</pdfrwt>
<totfact> 0.11456975E+02</totfact>
</mgrwt>
</event>
<event>
 6    4  0.1195577E-003  0.1266205E+03  0.7818608E-02  0.1232558E+00
         -4   -1    0    0    0  501 -0.00000000000E+00  0.00000000000E+00  0.90662441172E+03  0.90662530123E+03  0.12700000000E+01 0. -1.
          4   -1    0    0  502    0  0.00000000000E+00 -0.00000000000E+00 -0.80705232162E+01  0.81698375126E+01  0.12700000000E+01 0. -1.
         25    2    1    2    0    0  0.68515469816E+01 -0.18917779940E+02  0.87365474186E+03  0.88278274118E+03  0.12501173570E+03 0.  0.
    9000005    1    3    3    0    0 -0.27454538583E+02  0.42310549779E+02  0.50435610175E+03  0.50687277663E+03  0.10000000000E+01 0.  0.
    9000005    1    3    3    0    0  0.34306085565E+02 -0.61228329718E+02  0.36929864010E+03  0.37590996455E+03  0.10000000000E+01 0.  0.
         21    1    1    2  502  501 -0.68515469816E+01  0.18917779940E+02  0.24899146652E+02  0.32012397566E+02  0.00000000000E+00 0. -1.
<mgrwt>
<rscale>  1 0.12662054E+03</rscale>
<asrwt>0</asrwt>
<pdfrwt beam="2">  1        4 0.12493271E-02 0.12662054E+03</pdfrwt>
<pdfrwt beam="1">  1       -4 0.13948837E+00 0.12662054E+03</pdfrwt>
<totfact> 0.13081003E+03</totfact>
</mgrwt>
</event>
<event>
 6    4  0.1195577E-003  0.1265687E+03  0.7818608E-02  0.1232638E+00
          4   -1    0    0  502    0  0.00000000000E+00  0.00000000000E+00  0.18607735794E+03  0.18608169184E+03  0.12700000000E+01 0. -1.
         -4   -1    0    0    0  501 -0.00000000000E+00 -0.00000000000E+00 -0.29763965976E+02  0.29791048499E+02  0.12700000000E+01 0. -1.
         25    2    1    2    0    0  0.13928041383E+02  0.14525206232E+02  0.12030308135E+03  0.17462089888E+03  0.12495861312E+03 0.  0.
    9000005    1    3    3    0    0  0.43767095188E+02  0.44717465648E+02  0.19995710714E+02  0.65696566137E+02  0.10000000000E+01 0.  0.
    9000005    1    3    3    0    0 -0.29839053805E+02 -0.30192259417E+02  0.10030737063E+03  0.10892433274E+03  0.10000000000E+01 0.  0.
         21    1    1    2  502  501 -0.13928041383E+02 -0.14525206232E+02  0.36010310618E+02  0.41251841457E+02  0.00000000000E+00 0. -1.
<mgrwt>
<rscale>  1 0.12656866E+03</rscale>
<asrwt>0</asrwt>
<pdfrwt beam="1">  1        4 0.28629703E-01 0.12656866E+03</pdfrwt>
<pdfrwt beam="2">  1       -4 0.45814883E-02 0.12656866E+03</pdfrwt>
<totfact> 0.51304181E+03</totfact>
</mgrwt>
</event>
<event>
 6    4  0.1195577E-003  0.1273810E+03  0.7818608E-02  0.1231394E+00
          4   -1    0    0  502    0  0.00000000000E+00  0.00000000000E+00  0.78118383886E+01  0.79143994724E+01  0.12700000000E+01 0.  1.
         -4   -1    0    0    0  501 -0.00000000000E+00 -0.00000000000E+00 -0.86538363106E+03  0.86538456296E+03  0.12700000000E+01 0.  1.
         25    2    1    2    0    0 -0.17551154164E+02  0.17109158425E+02 -0.80821182065E+03  0.81818840852E+03  0.12500063393E+03 0.  0.
    9000005    1    3    3    0    0  0.21609346513E+02 -0.24181837239E+02 -0.63574928716E+03  0.63657668920E+03  0.10000000000E+01 0.  0.
    9000005    1    3    3    0    0 -0.39160500677E+02  0.41290995663E+02 -0.17246253350E+03  0.18161171933E+03  0.10000000000E+01 0.  0.
         21    1    1    2  502  501  0.17551154164E+02 -0.17109158425E+02 -0.49359972018E+02  0.55110553908E+02  0.00000000000E+00 0.  1.
<mgrwt>
<rscale>  1 0.12738102E+03</rscale>
<asrwt>0</asrwt>
<pdfrwt beam="1">  1        4 0.12097830E-02 0.12738102E+03</pdfrwt>
<pdfrwt beam="2">  1       -4 0.13314383E+00 0.12738102E+03</pdfrwt>
<totfact> 0.15428807E+03</totfact>
</mgrwt>
</event>
<event>
 6    4  0.1195577E-003  0.1360522E+03  0.7818608E-02  0.1218742E+00
          4   -1    0    0  502    0  0.00000000000E+00  0.00000000000E+00  0.52426538431E+03  0.52426692256E+03  0.12700000000E+01 0.  1.
         -4   -1    0    0    0  501 -0.00000000000E+00 -0.00000000000E+00 -0.28893781924E+02  0.28921679306E+02  0.12700000000E+01 0.  1.
         25    2    1    2    0    0 -0.48648199387E+01  0.53451858146E+02  0.14540502063E+03  0.19913016606E+03  0.12501774034E+03 0.  0.
    9000005    1    3    3    0    0  0.28425774591E+02 -0.12928170223E+02 -0.47596401815E+01  0.31604057035E+02  0.10000000000E+01 0.  0.
    9000005    1    3    3    0    0 -0.33290594529E+02  0.66380028369E+02  0.15016466081E+03  0.16752610903E+03  0.10000000000E+01 0.  0.
         21    1    1    2  502  501  0.48648199387E+01 -0.53451858146E+02  0.34996658176E+03  0.35405843580E+03  0.00000000000E+00 0.  1.
<mgrwt>
<rscale>  1 0.13605221E+03</rscale>
<asrwt>0</asrwt>
<pdfrwt beam="1">  1        4 0.80658470E-01 0.13605221E+03</pdfrwt>
<pdfrwt beam="2">  1       -4 0.44474619E-02 0.13605221E+03</pdfrwt>
<totfact> 0.66780202E+02</totfact>
</mgrwt>
</event>
<event>
 6    4  0.1195577E-003  0.1536427E+03  0.7818608E-02  0.1196067E+00
         -4   -1    0    0    0  501 -0.00000000000E+00  0.00000000000E+00  0.15717871118E+02  0.15769095487E+02  0.12700000000E+01 0. -1.
          4   -1    0    0  502    0  0.00000000000E+00 -0.00000000000E+00 -0.93772372442E+03  0.93772458443E+03  0.12700000000E+01 0. -1.
         25    2    1    2    0    0 -0.14470543170E+02 -0.88159312088E+02 -0.57557875996E+03  0.59573231821E+03  0.12499850045E+03 0.  0.
    9000005    1    3    3    0    0  0.22203472228E+02 -0.99732438107E+02 -0.50612491247E+03  0.51633611186E+03  0.10000000000E+01 0.  0.
    9000005    1    3    3    0    0 -0.36674015398E+02  0.11573126020E+02 -0.69453847487E+02  0.79396206345E+02  0.10000000000E+01 0.  0.
         21    1    1    2  502  501  0.14470543170E+02  0.88159312088E+02 -0.34642709335E+03  0.35776136171E+03  0.00000000000E+00 0. -1.
<mgrwt>
<rscale>  1 0.15364272E+03</rscale>
<asrwt>0</asrwt>
<pdfrwt beam="2">  1        4 0.14426915E+00 0.15364272E+03</pdfrwt>
<pdfrwt beam="1">  1       -4 0.24221412E-02 0.15364272E+03</pdfrwt>
<totfact> 0.45204983E+02</totfact>
</mgrwt>
</event>
<event>
 6    4  0.1195577E-003  0.1295230E+03  0.7818608E-02  0.1228165E+00
         -4   -1    0    0    0  501 -0.00000000000E+00  0.00000000000E+00  0.19488303282E+02  0.19529640672E+02  0.12700000000E+01 0.  1.
          4   -1    0    0  502    0  0.00000000000E+00 -0.00000000000E+00 -0.35709450868E+03  0.35709676704E+03  0.12700000000E+01 0.  1.
         25    2    1    2    0    0 -0.31348600034E+02  0.12993615857E+02 -0.23206405160E+03  0.26576291054E+03  0.12499852717E+03 0.  0.
    9000005    1    3    3    0    0  0.36292324431E+02  0.10823202190E+02 -0.16919917269E+03  0.17338868059E+03  0.10000000000E+01 0.  0.
    9000005    1    3    3    0    0 -0.67640924465E+02  0.21704136673E+01 -0.62864878915E+02  0.92374229951E+02  0.10000000000E+01 0.  0.
         21    1    1    2  502  501  0.31348600034E+02 -0.12993615857E+02 -0.10554215379E+03  0.11086349717E+03  0.00000000000E+00 0. -1.
<mgrwt>
<rscale>  1 0.12952297E+03</rscale>
<asrwt>0</asrwt>
<pdfrwt beam="2">  1        4 0.54940965E-01 0.12952297E+03</pdfrwt>
<pdfrwt beam="1">  1       -4 0.30015543E-02 0.12952297E+03</pdfrwt>
<totfact> 0.27957752E+03</totfact>
</mgrwt>
</event>
<event>
 6    4  0.1195577E-003  0.1307359E+03  0.7818608E-02  0.1226368E+00
         -4   -1    0    0    0  501 -0.00000000000E+00  0.00000000000E+00  0.69473278165E+03  0.69473394245E+03  0.12700000000E+01 0.  1.
          4   -1    0    0  502    0  0.00000000000E+00 -0.00000000000E+00 -0.15904874268E+02  0.15955498284E+02  0.12700000000E+01 0.  1.
         25    2    1    2    0    0  0.17897945426E+02 -0.33856650060E+02  0.64930086747E+03  0.66233186336E+03  0.12500108608E+03 0.  0.
    9000005    1    3    3    0    0  0.64549449327E+02  0.28349843223E+01  0.44203311107E+03  0.44673139561E+03  0.10000000000E+01 0.  0.
    9000005    1    3    3    0    0 -0.46651503900E+02 -0.36691634382E+02  0.20726775640E+03  0.21560046775E+03  0.10000000000E+01 0.  0.
         21    1    1    2  502  501 -0.17897945426E+02  0.33856650060E+02  0.29527039908E+02  0.48357577374E+02  0.00000000000E+00 0.  1.
<mgrwt>
<rscale>  1 0.13073592E+03</rscale>
<asrwt>0</asrwt>
<pdfrwt beam="2">  1        4 0.24508874E-02 0.13073592E+03</pdfrwt>
<pdfrwt beam="1">  1       -4 0.10688594E+00 0.13073592E+03</pdfrwt>
<totfact> 0.89127452E+02</totfact>
</mgrwt>
</event>
<event>
 6    4  0.1195577E-003  0.1266696E+03  0.7818608E-02  0.1232483E+00
         -4   -1    0    0    0  501 -0.00000000000E+00  0.00000000000E+00  0.17526044303E+03  0.17526504440E+03  0.12700000000E+01 0.  1.
          4   -1    0    0  502    0  0.00000000000E+00 -0.00000000000E+00 -0.32028349549E+02  0.32053518915E+02  0.12700000000E+01 0.  1.
         25    2    1    2    0    0 -0.85177966106E+01 -0.18628654881E+02  0.13533180889E+03  0.18536419842E+03  0.12500243163E+03 0.  0.
    9000005    1    3    3    0    0 -0.30056939478E+02 -0.64028649038E+02  0.51058439143E+02  0.87241341783E+02  0.10000000000E+01 0.  0.
    9000005    1    3    3    0    0  0.21539142868E+02  0.45399994156E+02  0.84273369749E+02  0.98122856633E+02  0.10000000000E+01 0.  0.
         21    1    1    2  502  501  0.85177966106E+01  0.18628654881E+02  0.79002845854E+01  0.21954364904E+02  0.00000000000E+00 0.  1.
<mgrwt>
<rscale>  1 0.12666960E+03</rscale>
<asrwt>0</asrwt>
<pdfrwt beam="2">  1        4 0.49297284E-02 0.12666960E+03</pdfrwt>
<pdfrwt beam="1">  1       -4 0.26965435E-01 0.12666960E+03</pdfrwt>
<totfact> 0.51039016E+03</totfact>
</mgrwt>
</event>
<event>
 6    4  0.1195577E-003  0.1270155E+03  0.7818608E-02  0.1231953E+00
         -4   -1    0    0    0  501 -0.00000000000E+00  0.00000000000E+00  0.47272897010E+02  0.47289953391E+02  0.12700000000E+01 0.  1.
          4   -1    0    0  502    0  0.00000000000E+00 -0.00000000000E+00 -0.15957963891E+03  0.15958469242E+03  0.12700000000E+01 0.  1.
         25    2    1    2    0    0 -0.22040408033E+02  0.46912604171E+01 -0.43159007498E+02  0.13414778225E+03  0.12500056017E+03 0.  0.
    9000005    1    3    3    0    0 -0.57047889786E+02 -0.27782876307E+02  0.82282891158E+01  0.63992614314E+02  0.10000000000E+01 0.  0.
    9000005    1    3    3    0    0  0.35007481753E+02  0.32474136724E+02 -0.51387296614E+02  0.70155167935E+02  0.10000000000E+01 0.  0.
         21    1    1    2  502  501  0.22040408033E+02 -0.46912604171E+01 -0.69147734406E+02  0.72726863565E+02  0.00000000000E+00 0.  1.
<mgrwt>
<rscale>  1 0.12701546E+03</rscale>
<asrwt>0</asrwt>
<pdfrwt beam="2">  1        4 0.24552414E-01 0.12701546E+03</pdfrwt>
<pdfrwt beam="1">  1       -4 0.72744542E-02 0.12701546E+03</pdfrwt>
<totfact> 0.32303937E+03</totfact>
</mgrwt>
</event>
<event>
 6    4  0.1195577E-003  0.1324330E+03  0.7818608E-02  0.1223890E+00
          4   -1    0    0  502    0  0.00000000000E+00  0.00000000000E+00  0.49680064427E+02  0.49696294645E+02  0.12700000000E+01 0.  1.
         -4   -1    0    0    0  501 -0.00000000000E+00 -0.00000000000E+00 -0.15651251823E+03  0.15651767077E+03  0.12700000000E+01 0.  1.
         25    2    1    2    0    0 -0.20768444980E+02 -0.38490375241E+02 -0.75854049799E+02  0.15261826775E+03  0.12500264592E+03 0.  0.
    9000005    1    3    3    0    0 -0.64247797027E+02 -0.56051120124E+02 -0.53496013820E+02  0.10065948035E+03  0.10000000000E+01 0.  0.
    9000005    1    3    3    0    0  0.43479352047E+02  0.17560744883E+02 -0.22358035980E+02  0.51958787401E+02  0.10000000000E+01 0.  0.
         21    1    1    2  502  501  0.20768444980E+02  0.38490375241E+02 -0.30978404001E+02  0.53595697659E+02  0.00000000000E+00 0.  1.
<mgrwt>
<rscale>  1 0.13243300E+03</rscale>
<asrwt>0</asrwt>
<pdfrwt beam="1">  1        4 0.76447317E-02 0.13243300E+03</pdfrwt>
<pdfrwt beam="2">  1       -4 0.24080494E-01 0.13243300E+03</pdfrwt>
<totfact> 0.31162026E+03</totfact>
</mgrwt>
</event>
<event>
 6    4  0.1195577E-003  0.1268174E+03  0.7818608E-02  0.1232256E+00
          4   -1    0    0  502    0  0.00000000000E+00  0.00000000000E+00  0.81965594586E+01  0.82943647713E+01  0.12700000000E+01 0.  1.
         -4   -1    0    0    0  501 -0.00000000000E+00 -0.00000000000E+00 -0.11597487512E+04  0.11597494465E+04  0.12700000000E+01 0.  1.
         25    2    1    2    0    0 -0.15605026887E+02 -0.14725505093E+02 -0.11317925072E+04  0.11388752924E+04  0.12498917899E+03 0.  0.
    9000005    1    3    3    0    0  0.37533258062E+02  0.27818927771E+02 -0.71807775106E+03  0.71959661949E+03  0.10000000000E+01 0.  0.
    9000005    1    3    3    0    0 -0.53138284948E+02 -0.42544432864E+02 -0.41371475615E+03  0.41927867290E+03  0.10000000000E+01 0.  0.
         21    1    1    2  502  501  0.15605026887E+02  0.14725505093E+02 -0.19759684495E+02  0.29168518916E+02  0.00000000000E+00 0.  1.
<mgrwt>
<rscale>  1 0.12681740E+03</rscale>
<asrwt>0</asrwt>
<pdfrwt beam="1">  1        4 0.12685870E-02 0.12681740E+03</pdfrwt>
<pdfrwt beam="2">  1       -4 0.17843033E+00 0.12681740E+03</pdfrwt>
<totfact> 0.67584203E+02</totfact>
</mgrwt>
</event>
<event>
 6    4  0.1195577E-003  0.1276924E+03  0.7818608E-02  0.1230921E+00
          4   -1    0    0  502    0  0.00000000000E+00  0.00000000000E+00  0.47844878140E+03  0.47845046695E+03  0.12700000000E+01 0.  1.
         -4   -1    0    0    0  501 -0.00000000000E+00 -0.00000000000E+00 -0.12330429328E+02  0.12395660023E+02  0.12700000000E+01 0.  1.
         25    2    1    2    0    0  0.14944493888E+02 -0.21394842311E+02  0.38274181725E+03  0.40348066621E+03  0.12499708860E+03 0.  0.
    9000005    1    3    3    0    0  0.43737993701E+02 -0.29839239662E+02  0.62862084314E+02  0.82195096940E+02  0.10000000000E+01 0.  0.
    9000005    1    3    3    0    0 -0.28793499813E+02  0.84443973506E+01  0.31987973294E+03  0.32128556927E+03  0.10000000000E+01 0.  0.
         21    1    1    2  502  501 -0.14944493888E+02  0.21394842311E+02  0.83376534821E+02  0.87365460760E+02  0.00000000000E+00 0.  1.
<mgrwt>
<rscale>  1 0.12769240E+03</rscale>
<asrwt>0</asrwt>
<pdfrwt beam="1">  1        4 0.73612638E-01 0.12769240E+03</pdfrwt>
<pdfrwt beam="2">  1       -4 0.19021369E-02 0.12769240E+03</pdfrwt>
<totfact> 0.30392280E+03</totfact>
</mgrwt>
</event>
<event>
 6    4  0.1195577E-003  0.1280344E+03  0.7818608E-02  0.1230402E+00
          4   -1    0    0  502    0  0.00000000000E+00  0.00000000000E+00  0.10640390835E+03  0.10641148722E+03  0.12700000000E+01 0. -1.
         -4   -1    0    0    0  501 -0.00000000000E+00 -0.00000000000E+00 -0.59929878720E+02  0.59943333770E+02  0.12700000000E+01 0. -1.
         25    2    1    2    0    0  0.11346976672E+02  0.25437624473E+02  0.23334420676E+02  0.13014338466E+03  0.12496791094E+03 0.  0.
    9000005    1    3    3    0    0  0.18837117278E+02  0.34828824535E+02  0.70824199250E+02  0.81147712261E+02  0.10000000000E+01 0.  0.
    9000005    1    3    3    0    0 -0.74901406056E+01 -0.93912000613E+01 -0.47489778574E+02  0.48995672399E+02  0.10000000000E+01 0.  0.
         21    1    1    2  502  501 -0.11346976672E+02 -0.25437624473E+02  0.23139608953E+02  0.36211436328E+02  0.00000000000E+00 0.  1.
<mgrwt>
<rscale>  1 0.12803439E+03</rscale>
<asrwt>0</asrwt>
<pdfrwt beam="1">  1        4 0.16371450E-01 0.12803439E+03</pdfrwt>
<pdfrwt beam="2">  1       -4 0.92215994E-02 0.12803439E+03</pdfrwt>
<totfact> 0.45268833E+03</totfact>
</mgrwt>
</event>
<event>
 6    4  0.1195577E-003  0.1311318E+03  0.7818608E-02  0.1225786E+00
          4   -1    0    0  502    0  0.00000000000E+00  0.00000000000E+00  0.31980526385E+02  0.32005733359E+02  0.12700000000E+01 0. -1.
         -4   -1    0    0    0  501 -0.00000000000E+00 -0.00000000000E+00 -0.38758667368E+03  0.38758875437E+03  0.12700000000E+01 0. -1.
         25    2    1    2    0    0  0.21811757463E+02 -0.33074762501E+02 -0.35661711167E+03  0.37996224420E+03  0.12500339995E+03 0.  0.
    9000005    1    3    3    0    0  0.93523791049E+01  0.47989892264E+02 -0.14364887870E+03  0.15174484211E+03  0.10000000000E+01 0.  0.
    9000005    1    3    3    0    0  0.12459378359E+02 -0.81064654765E+02 -0.21296823297E+03  0.22821740209E+03  0.10000000000E+01 0.  0.
         21    1    1    2  502  501 -0.21811757463E+02  0.33074762501E+02  0.10109643810E+01  0.39632243528E+02  0.00000000000E+00 0. -1.
<mgrwt>
<rscale>  1 0.13113178E+03</rscale>
<asrwt>0</asrwt>
<pdfrwt beam="1">  1        4 0.49221803E-02 0.13113178E+03</pdfrwt>
<pdfrwt beam="2">  1       -4 0.59630815E-01 0.13113178E+03</pdfrwt>
<totfact> 0.10798960E+03</totfact>
</mgrwt>
</event>
<event>
 6    4  0.1195577E-003  0.1331583E+03  0.7818608E-02  0.1222843E+00
          4   -1    0    0  502    0  0.00000000000E+00  0.00000000000E+00  0.25217289453E+03  0.25217609252E+03  0.12700000000E+01 0.  1.
         -4   -1    0    0    0  501 -0.00000000000E+00 -0.00000000000E+00 -0.32148681857E+02  0.32173757087E+02  0.12700000000E+01 0.  1.
         25    2    1    2    0    0 -0.13001170400E+02 -0.44017928130E+02  0.14947655103E+03  0.20018583715E+03  0.12499808662E+03 0.  0.
    9000005    1    3    3    0    0 -0.70132838783E+00 -0.47268455723E+02 -0.28079879382E+01  0.47367537029E+02  0.10000000000E+01 0.  0.
    9000005    1    3    3    0    0 -0.12299842012E+02  0.32505275929E+01  0.15228453897E+03  0.15281830012E+03  0.10000000000E+01 0.  0.
         21    1    1    2  502  501  0.13001170400E+02  0.44017928130E+02  0.70547661647E+02  0.84164012455E+02  0.00000000000E+00 0.  1.
<mgrwt>
<rscale>  1 0.13315829E+03</rscale>
<asrwt>0</asrwt>
<pdfrwt beam="1">  1        4 0.38798005E-01 0.13315829E+03</pdfrwt>
<pdfrwt beam="2">  1       -4 0.49481259E-02 0.13315829E+03</pdfrwt>
<totfact> 0.25651777E+03</totfact>
</mgrwt>
</event>
<event>
 6    4  0.1195577E-003  0.1278462E+03  0.7818608E-02  0.1230687E+00
         -4   -1    0    0    0  501 -0.00000000000E+00  0.00000000000E+00  0.27363804180E+02  0.27393259740E+02  0.12700000000E+01 0. -1.
          4   -1    0    0  502    0  0.00000000000E+00 -0.00000000000E+00 -0.21902394711E+03  0.21902762909E+03  0.12700000000E+01 0. -1.
         25    2    1    2    0    0 -0.26563596460E+02 -0.41561961636E+01 -0.16238468605E+03  0.20667229139E+03  0.12498700389E+03 0.  0.
    9000005    1    3    3    0    0 -0.53694203533E+02  0.25209916097E+02 -0.26411756649E+02  0.64939881829E+02  0.10000000000E+01 0.  0.
    9000005    1    3    3    0    0  0.27130607073E+02 -0.29366112261E+02 -0.13597292940E+03  0.14173240956E+03  0.10000000000E+01 0.  0.
         21    1    1    2  502  501  0.26563596460E+02  0.41561961636E+01 -0.29275456872E+02  0.39748597441E+02  0.00000000000E+00 0. -1.
<mgrwt>
<rscale>  1 0.12784620E+03</rscale>
<asrwt>0</asrwt>
<pdfrwt beam="2">  1        4 0.33698540E-01 0.12784620E+03</pdfrwt>
<pdfrwt beam="1">  1       -4 0.42123652E-02 0.12784620E+03</pdfrwt>
<totfact> 0.43168080E+03</totfact>
</mgrwt>
</event>
<event>
 6    4  0.1195577E-003  0.1286048E+03  0.7818608E-02  0.1229541E+00
         -4   -1    0    0    0  501 -0.00000000000E+00  0.00000000000E+00  0.48503733654E+01  0.50138829049E+01  0.12700000000E+01 0.  1.
          4   -1    0    0  502    0  0.00000000000E+00 -0.00000000000E+00 -0.13090850182E+04  0.13090856343E+04  0.12700000000E+01 0.  1.
         25    2    1    2    0    0 -0.26305910735E+02 -0.14953227327E+02 -0.96790104838E+03  0.97640751539E+03  0.12499438669E+03 0.  0.
    9000005    1    3    3    0    0  0.41020590463E+02  0.26261984264E+02 -0.31373103195E+03  0.31749100943E+03  0.10000000000E+01 0.  0.
    9000005    1    3    3    0    0 -0.67326501198E+02 -0.41215211591E+02 -0.65417001643E+03  0.65891650596E+03  0.10000000000E+01 0.  0.
         21    1    1    2  502  501  0.26305910735E+02  0.14953227327E+02 -0.33633359649E+03  0.33769200179E+03  0.00000000000E+00 0. -1.
<mgrwt>
<rscale>  1 0.12860481E+03</rscale>
<asrwt>0</asrwt>
<pdfrwt beam="2">  1        4 0.20141004E+00 0.12860481E+03</pdfrwt>
<pdfrwt beam="1">  1       -4 0.75883738E-03 0.12860481E+03</pdfrwt>
<totfact> 0.10475039E+03</totfact>
</mgrwt>
</event>
<event>
 6    4  0.1195577E-003  0.1382327E+03  0.7818608E-02  0.1215727E+00
         -4   -1    0    0    0  501 -0.00000000000E+00  0.00000000000E+00  0.39850894007E+03  0.39851096373E+03  0.12700000000E+01 0. -1.
          4   -1    0    0  502    0  0.00000000000E+00 -0.00000000000E+00 -0.43469219315E+02  0.43487767566E+02  0.12700000000E+01 0. -1.
         25    2    1    2    0    0  0.54876451080E+02 -0.21694490286E+02  0.35713349325E+03  0.38295248100E+03  0.12500477955E+03 0.  0.
    9000005    1    3    3    0    0  0.33921008265E+01 -0.60526096555E+02  0.25540335841E+03  0.26250102895E+03  0.10000000000E+01 0.  0.
    9000005    1    3    3    0    0  0.51484350253E+02  0.38831606269E+02  0.10173013484E+03  0.12045145205E+03  0.10000000000E+01 0.  0.
         21    1    1    2  502  501 -0.54876451080E+02  0.21694490286E+02 -0.20937724894E+01  0.59046250305E+02  0.00000000000E+00 0. -1.
<mgrwt>
<rscale>  1 0.13823267E+03</rscale>
<asrwt>0</asrwt>
<pdfrwt beam="2">  1        4 0.66891544E-02 0.13823267E+03</pdfrwt>
<pdfrwt beam="1">  1       -4 0.61310653E-01 0.13823267E+03</pdfrwt>
<totfact> 0.62630676E+02</totfact>
</mgrwt>
</event>
<event>
 6    4  0.1195577E-003  0.1275001E+03  0.7818608E-02  0.1231213E+00
         -4   -1    0    0    0  501 -0.00000000000E+00  0.00000000000E+00  0.24287947987E+02  0.24321129033E+02  0.12700000000E+01 0.  1.
          4   -1    0    0  502    0  0.00000000000E+00 -0.00000000000E+00 -0.24886100854E+03  0.24886424908E+03  0.12700000000E+01 0.  1.
         25    2    1    2    0    0 -0.24995797334E+02 -0.25474311546E+01 -0.16493069900E+03  0.20846682914E+03  0.12500001636E+03 0.  0.
    9000005    1    3    3    0    0 -0.61491324907E+02 -0.40479220835E+02 -0.81673894824E+02  0.10996079053E+03  0.10000000000E+01 0.  0.
    9000005    1    3    3    0    0  0.36495527573E+02  0.37931789681E+02 -0.83256804175E+02  0.98506038610E+02  0.10000000000E+01 0.  0.
         21    1    1    2  502  501  0.24995797334E+02  0.25474311546E+01 -0.59642361555E+02  0.64718548977E+02  0.00000000000E+00 0. -1.
<mgrwt>
<rscale>  1 0.12750013E+03</rscale>
<asrwt>0</asrwt>
<pdfrwt beam="2">  1        4 0.38289109E-01 0.12750013E+03</pdfrwt>
<pdfrwt beam="1">  1       -4 0.37394092E-02 0.12750013E+03</pdfrwt>
<totfact> 0.40698079E+03</totfact>
</mgrwt>
</event>
<event>
 6    4  0.1195577E-003  0.1272480E+03  0.7818608E-02  0.1231597E+00
         -4   -1    0    0    0  501 -0.00000000000E+00  0.00000000000E+00  0.12773501933E+03  0.12774133264E+03  0.12700000000E+01 0. -1.
          4   -1    0    0  502    0  0.00000000000E+00 -0.00000000000E+00 -0.44815344670E+02  0.44833336011E+02  0.12700000000E+01 0. -1.
         25    2    1    2    0    0  0.16050991055E+02  0.17583238149E+02  0.73656739854E+02  0.14702850379E+03  0.12500104409E+03 0.  0.
    9000005    1    3    3    0    0  0.46345042504E+02 -0.19863299968E+02 -0.91225675569E+01  0.51250706231E+02  0.10000000000E+01 0.  0.
    9000005    1    3    3    0    0 -0.30294051450E+02  0.37446538117E+02  0.82779307411E+02  0.95777797561E+02  0.10000000000E+01 0.  0.
         21    1    1    2  502  501 -0.16050991055E+02 -0.17583238149E+02  0.92629348097E+01  0.25546164857E+02  0.00000000000E+00 0. -1.
<mgrwt>
<rscale>  1 0.12724805E+03</rscale>
<asrwt>0</asrwt>
<pdfrwt beam="2">  1        4 0.68965381E-02 0.12724805E+03</pdfrwt>
<pdfrwt beam="1">  1       -4 0.19653411E-01 0.12724805E+03</pdfrwt>
<totfact> 0.52841724E+03</totfact>
</mgrwt>
</event>
<event>
 6    4  0.1195577E-003  0.1413147E+03  0.7818608E-02  0.1211571E+00
         -4   -1    0    0    0  501 -0.00000000000E+00  0.00000000000E+00  0.55454559001E+03  0.55454704427E+03  0.12700000000E+01 0.  1.
          4   -1    0    0  502    0  0.00000000000E+00 -0.00000000000E+00 -0.23920793853E+02  0.23954483475E+02  0.12700000000E+01 0.  1.
         25    2    1    2    0    0  0.24839071013E+02 -0.61053937023E+02  0.46292712614E+03  0.48401588226E+03  0.12500114997E+03 0.  0.
    9000005    1    3    3    0    0  0.36407804545E+02  0.27656213583E+02  0.22989761168E+03  0.23440201842E+03  0.10000000000E+01 0.  0.
    9000005    1    3    3    0    0 -0.11568733532E+02 -0.88710150607E+02  0.23302951446E+03  0.24961386384E+03  0.10000000000E+01 0.  0.
         21    1    1    2  502  501 -0.24839071013E+02  0.61053937023E+02  0.67697670025E+02  0.94485645479E+02  0.00000000000E+00 0.  1.
<mgrwt>
<rscale>  1 0.14131472E+03</rscale>
<asrwt>0</asrwt>
<pdfrwt beam="2">  1        4 0.36828252E-02 0.14131472E+03</pdfrwt>
<pdfrwt beam="1">  1       -4 0.85317416E-01 0.14131472E+03</pdfrwt>
<totfact> 0.80146379E+02</totfact>
</mgrwt>
</event>
<event>
 6    4  0.1195577E-003  0.1270201E+03  0.7818608E-02  0.1231946E+00
         -4   -1    0    0    0  501 -0.00000000000E+00  0.00000000000E+00  0.15155958945E+03  0.15156491037E+03  0.12700000000E+01 0. -1.
          4   -1    0    0  502    0  0.00000000000E+00 -0.00000000000E+00 -0.38444795798E+02  0.38465766910E+02  0.12700000000E+01 0. -1.
         25    2    1    2    0    0  0.10043850711E+02  0.20198321779E+02  0.10839664716E+03  0.16698480897E+03  0.12500096868E+03 0.  0.
    9000005    1    3    3    0    0  0.73374812473E+01 -0.32875112950E+02  0.10872950303E+03  0.11383196612E+03  0.10000000000E+01 0.  0.
    9000005    1    3    3    0    0  0.27063694634E+01  0.53073434729E+02 -0.33285586753E+00  0.53152842846E+02  0.10000000000E+01 0.  0.
         21    1    1    2  502  501 -0.10043850711E+02 -0.20198321779E+02  0.47181464924E+01  0.23045868309E+02  0.00000000000E+00 0. -1.
<mgrwt>
<rscale>  1 0.12702005E+03</rscale>
<asrwt>0</asrwt>
<pdfrwt beam="2">  1        4 0.59166065E-02 0.12702005E+03</pdfrwt>
<pdfrwt beam="1">  1       -4 0.23318882E-01 0.12702005E+03</pdfrwt>
<totfact> 0.49748638E+03</totfact>
</mgrwt>
</event>
<event>
 6    4  0.1195577E-003  0.1306853E+03  0.7818608E-02  0.1226442E+00
          4   -1    0    0  502    0  0.00000000000E+00  0.00000000000E+00  0.95156934743E+02  0.95165409313E+02  0.12700000000E+01 0.  1.
         -4   -1    0    0    0  501 -0.00000000000E+00 -0.00000000000E+00 -0.76203021522E+02  0.76213603701E+02  0.12700000000E+01 0.  1.
         25    2    1    2    0    0 -0.30120609715E+02 -0.23391115730E+02  0.50364538208E+01  0.13078232471E+03  0.12499702063E+03 0.  0.
    9000005    1    3    3    0    0 -0.56770317874E+02 -0.56486334639E+02 -0.18496896067E+02  0.82199210194E+02  0.10000000000E+01 0.  0.
    9000005    1    3    3    0    0  0.26649708159E+02  0.33095218908E+02  0.23533349888E+02  0.48583114520E+02  0.10000000000E+01 0.  0.
         21    1    1    2  502  501  0.30120609715E+02  0.23391115730E+02  0.13917459400E+02  0.40596688299E+02  0.00000000000E+00 0. -1.
<mgrwt>
<rscale>  1 0.13068531E+03</rscale>
<asrwt>0</asrwt>
<pdfrwt beam="1">  1        4 0.14640994E-01 0.13068531E+03</pdfrwt>
<pdfrwt beam="2">  1       -4 0.11725008E-01 0.13068531E+03</pdfrwt>
<totfact> 0.36876647E+03</totfact>
</mgrwt>
</event>
<event>
 6    4  0.1195577E-003  0.1329813E+03  0.7818608E-02  0.1223098E+00
         -4   -1    0    0    0  501 -0.00000000000E+00  0.00000000000E+00  0.23899079709E+02  0.23932799898E+02  0.12700000000E+01 0. -1.
          4   -1    0    0  502    0  0.00000000000E+00 -0.00000000000E+00 -0.33287703411E+03  0.33287945677E+03  0.12700000000E+01 0. -1.
         25    2    1    2    0    0 -0.23597654208E+02 -0.38763805410E+02 -0.23538507531E+03  0.27035189727E+03  0.12499813112E+03 0.  0.
    9000005    1    3    3    0    0 -0.34640479650E+02  0.23769582730E+02 -0.18377046166E+03  0.18851402726E+03  0.10000000000E+01 0.  0.
    9000005    1    3    3    0    0  0.11042825442E+02 -0.62533388140E+02 -0.51614613648E+02  0.81837870012E+02  0.10000000000E+01 0.  0.
         21    1    1    2  502  501  0.23597654208E+02  0.38763805410E+02 -0.73592879087E+02  0.86460359392E+02  0.00000000000E+00 0. -1.
<mgrwt>
<rscale>  1 0.13298126E+03</rscale>
<asrwt>0</asrwt>
<pdfrwt beam="2">  1        4 0.51214628E-01 0.13298126E+03</pdfrwt>
<pdfrwt beam="1">  1       -4 0.36795620E-02 0.13298126E+03</pdfrwt>
<totfact> 0.23592059E+03</totfact>
</mgrwt>
</event>
<event>
 6    4  0.1195577E-003  0.1272948E+03  0.7818608E-02  0.1231526E+00
         -4   -1    0    0    0  501 -0.00000000000E+00  0.00000000000E+00  0.47077252844E+02  0.47094380083E+02  0.12700000000E+01 0.  1.
          4   -1    0    0  502    0  0.00000000000E+00 -0.00000000000E+00 -0.13391205296E+03  0.13391807506E+03  0.12700000000E+01 0.  1.
         25    2    1    2    0    0  0.12125173278E+02  0.20422027506E+02 -0.49121479498E+02  0.13644370391E+03  0.12505952804E+03 0.  0.
    9000005    1    3    3    0    0 -0.52902670640E+02  0.30944030299E+02 -0.26604061587E+02  0.66820667947E+02  0.10000000000E+01 0.  0.
    9000005    1    3    3    0    0  0.65027843918E+02 -0.10522002792E+02 -0.22517417911E+02  0.69623035963E+02  0.10000000000E+01 0.  0.
         21    1    1    2  502  501 -0.12125173278E+02 -0.20422027506E+02 -0.37713320617E+02  0.44568751232E+02  0.00000000000E+00 0. -1.
<mgrwt>
<rscale>  1 0.12729479E+03</rscale>
<asrwt>0</asrwt>
<pdfrwt beam="2">  1        4 0.20603635E-01 0.12729479E+03</pdfrwt>
<pdfrwt beam="1">  1       -4 0.72444350E-02 0.12729479E+03</pdfrwt>
<totfact> 0.44780631E+03</totfact>
</mgrwt>
</event>
<event>
 6    4  0.1195577E-003  0.1269312E+03  0.7818608E-02  0.1232082E+00
          4   -1    0    0  502    0  0.00000000000E+00  0.00000000000E+00  0.24716556319E+02  0.24749162739E+02  0.12700000000E+01 0.  1.
         -4   -1    0    0    0  501 -0.00000000000E+00 -0.00000000000E+00 -0.43235023095E+03  0.43235209621E+03  0.12700000000E+01 0.  1.
         25    2    1    2    0    0 -0.14382225084E+02 -0.16524402396E+02 -0.41500912352E+03  0.43398629585E+03  0.12502650963E+03 0.  0.
    9000005    1    3    3    0    0  0.34082200439E+02 -0.47792349578E+02 -0.12247558902E+03  0.13581964133E+03  0.10000000000E+01 0.  0.
    9000005    1    3    3    0    0 -0.48464425524E+02  0.31267947183E+02 -0.29253353450E+03  0.29816665452E+03  0.10000000000E+01 0.  0.
         21    1    1    2  502  501  0.14382225084E+02  0.16524402396E+02  0.73754488898E+01  0.23114963103E+02  0.00000000000E+00 0.  1.
<mgrwt>
<rscale>  1 0.12693121E+03</rscale>
<asrwt>0</asrwt>
<pdfrwt beam="1">  1        4 0.38051991E-02 0.12693121E+03</pdfrwt>
<pdfrwt beam="2">  1       -4 0.66518066E-01 0.12693121E+03</pdfrwt>
<totfact> 0.12821935E+03</totfact>
</mgrwt>
</event>
<event>
 6    4  0.1195577E-003  0.1445797E+03  0.7818608E-02  0.1207296E+00
         -4   -1    0    0    0  501 -0.00000000000E+00  0.00000000000E+00  0.25891281573E+03  0.25891593047E+03  0.12700000000E+01 0.  1.
          4   -1    0    0  502    0  0.00000000000E+00 -0.00000000000E+00 -0.63739604668E+02  0.63752255672E+02  0.12700000000E+01 0.  1.
         25    2    1    2    0    0  0.13609026227E-01 -0.72650431461E+02  0.20340444920E+03  0.24955294383E+03  0.12500086577E+03 0.  0.
    9000005    1    3    3    0    0 -0.31611424394E+01 -0.95015083993E+01  0.18275269951E+03  0.18302956226E+03  0.10000000000E+01 0.  0.
    9000005    1    3    3    0    0  0.31747514656E+01 -0.63148923061E+02  0.20651749694E+02  0.66523381574E+02  0.10000000000E+01 0.  0.
         21    1    1    2  502  501 -0.13609026227E-01  0.72650431461E+02 -0.82312381364E+01  0.73115242309E+02  0.00000000000E+00 0.  1.
<mgrwt>
<rscale>  1 0.14457974E+03</rscale>
<asrwt>0</asrwt>
<pdfrwt beam="2">  1        4 0.98073058E-02 0.14457974E+03</pdfrwt>
<pdfrwt beam="1">  1       -4 0.39833954E-01 0.14457974E+03</pdfrwt>
<totfact> 0.80562057E+02</totfact>
</mgrwt>
</event>
<event>
 6    4  0.1195577E-003  0.1271601E+03  0.7818608E-02  0.1231732E+00
         -4   -1    0    0    0  501 -0.00000000000E+00  0.00000000000E+00  0.95790635987E+02  0.95799054499E+02  0.12700000000E+01 0.  1.
          4   -1    0    0  502    0  0.00000000000E+00 -0.00000000000E+00 -0.61768874239E+02  0.61781928788E+02  0.12700000000E+01 0.  1.
         25    2    1    2    0    0  0.23026209720E+02 -0.37519131855E+01  0.16127264937E+02  0.12817866700E+03  0.12500159525E+03 0.  0.
    9000005    1    3    3    0    0 -0.31759629340E+01  0.56798523122E+02 -0.89386317449E+01  0.57593906856E+02  0.10000000000E+01 0.  0.
    9000005    1    3    3    0    0  0.26202172654E+02 -0.60550436308E+02  0.25065896682E+02  0.70584760149E+02  0.10000000000E+01 0.  0.
         21    1    1    2  502  501 -0.23026209720E+02  0.37519131855E+01  0.17894496812E+02  0.29402316282E+02  0.00000000000E+00 0.  1.
<mgrwt>
<rscale>  1 0.12716006E+03</rscale>
<asrwt>0</asrwt>
<pdfrwt beam="2">  1        4 0.95045555E-02 0.12716006E+03</pdfrwt>
<pdfrwt beam="1">  1       -4 0.14738673E-01 0.12716006E+03</pdfrwt>
<totfact> 0.51631301E+03</totfact>
</mgrwt>
</event>
<event>
 6    4  0.1195577E-003  0.1289705E+03  0.7818608E-02  0.1228991E+00
         -4   -1    0    0    0  501 -0.00000000000E+00  0.00000000000E+00  0.39183974428E+02  0.39204550144E+02  0.12700000000E+01 0.  1.
          4   -1    0    0  502    0  0.00000000000E+00 -0.00000000000E+00 -0.19924822345E+03  0.19925227087E+03  0.12700000000E+01 0.  1.
         25    2    1    2    0    0  0.28223839152E+02  0.14541320789E+02 -0.78624349349E+02  0.15104691102E+03  0.12500138364E+03 0.  0.
    9000005    1    3    3    0    0 -0.10808841400E+02  0.60557164119E+02 -0.64360191388E+02  0.89035023525E+02  0.10000000000E+01 0.  0.
    9000005    1    3    3    0    0  0.39032680551E+02 -0.46015843331E+02 -0.14264157961E+02  0.62011887496E+02  0.10000000000E+01 0.  0.
         21    1    1    2  502  501 -0.28223839152E+02 -0.14541320789E+02 -0.81439899670E+02  0.87409909993E+02  0.00000000000E+00 0.  1.
<mgrwt>
<rscale>  1 0.12897047E+03</rscale>
<asrwt>0</asrwt>
<pdfrwt beam="2">  1        4 0.30655466E-01 0.12897047E+03</pdfrwt>
<pdfrwt beam="1">  1       -4 0.60301980E-02 0.12897047E+03</pdfrwt>
<totfact> 0.29111013E+03</totfact>
</mgrwt>
</event>
<event>
 6    4  0.1195577E-003  0.1312705E+03  0.7818608E-02  0.1225583E+00
         -4   -1    0    0    0  501 -0.00000000000E+00  0.00000000000E+00  0.38683778701E+02  0.38704620326E+02  0.12700000000E+01 0. -1.
          4   -1    0    0  502    0  0.00000000000E+00 -0.00000000000E+00 -0.19598090880E+03  0.19598502369E+03  0.12700000000E+01 0. -1.
         25    2    1    2    0    0 -0.38942494892E+02 -0.95155677215E+01 -0.10125056756E+03  0.16578187153E+03  0.12499955024E+03 0.  0.
    9000005    1    3    3    0    0 -0.80018849440E+02  0.11601028073E+02 -0.83654101784E+02  0.11634693319E+03  0.10000000000E+01 0.  0.
    9000005    1    3    3    0    0  0.41076354548E+02 -0.21116595794E+02 -0.17596465779E+02  0.49434938341E+02  0.10000000000E+01 0.  0.
         21    1    1    2  502  501  0.38942494892E+02  0.95155677215E+01 -0.56046562532E+02  0.68907772487E+02  0.00000000000E+00 0. -1.
<mgrwt>
<rscale>  1 0.13127053E+03</rscale>
<asrwt>0</asrwt>
<pdfrwt beam="2">  1        4 0.30152828E-01 0.13127053E+03</pdfrwt>
<pdfrwt beam="1">  1       -4 0.59532704E-02 0.13127053E+03</pdfrwt>
<totfact> 0.30799075E+03</totfact>
</mgrwt>
</event>
<event>
 6    4  0.1195577E-003  0.1321014E+03  0.7818608E-02  0.1224371E+00
          4   -1    0    0  502    0  0.00000000000E+00  0.00000000000E+00  0.12430038085E+03  0.12430686859E+03  0.12700000000E+01 0. -1.
         -4   -1    0    0    0  501 -0.00000000000E+00 -0.00000000000E+00 -0.61920392641E+02  0.61933415252E+02  0.12700000000E+01 0. -1.
         25    2    1    2    0    0  0.40056589002E+02  0.14882860138E+02  0.40128142905E+02  0.13806171529E+03  0.12499895811E+03 0.  0.
    9000005    1    3    3    0    0 -0.18348264820E+01 -0.32424965746E+02  0.62973414117E+02  0.70861808313E+02  0.10000000000E+01 0.  0.
    9000005    1    3    3    0    0  0.41891415484E+02  0.47307825883E+02 -0.22845271212E+02  0.67199906978E+02  0.10000000000E+01 0.  0.
         21    1    1    2  502  501 -0.40056589002E+02 -0.14882860138E+02  0.22251845301E+02  0.48178568551E+02  0.00000000000E+00 0. -1.
<mgrwt>
<rscale>  1 0.13210136E+03</rscale>
<asrwt>0</asrwt>
<pdfrwt beam="1">  1        4 0.19124636E-01 0.13210136E+03</pdfrwt>
<pdfrwt beam="2">  1       -4 0.95277151E-02 0.13210136E+03</pdfrwt>
<totfact> 0.32783483E+03</totfact>
</mgrwt>
</event>
<event>
 6    4  0.1195577E-003  0.1391614E+03  0.7818608E-02  0.1214462E+00
         -4   -1    0    0    0  501 -0.00000000000E+00  0.00000000000E+00  0.99998064802E+02  0.10000612913E+03  0.12700000000E+01 0.  1.
          4   -1    0    0  502    0  0.00000000000E+00 -0.00000000000E+00 -0.10032960097E+03  0.10033763865E+03  0.12700000000E+01 0.  1.
         25    2    1    2    0    0  0.42098760765E+02  0.44386993914E+02  0.48278156946E+00  0.13916228366E+03  0.12499358875E+03 0.  0.
    9000005    1    3    3    0    0  0.46885638060E+02  0.56726678748E+02 -0.48677138007E+02  0.88241956589E+02  0.10000000000E+01 0.  0.
    9000005    1    3    3    0    0 -0.47868772957E+01 -0.12339684834E+02  0.49159919577E+02  0.50920327069E+02  0.10000000000E+01 0.  0.
         21    1    1    2  502  501 -0.42098760765E+02 -0.44386993914E+02 -0.81431773618E+00  0.61181484127E+02  0.00000000000E+00 0. -1.
<mgrwt>
<rscale>  1 0.13916145E+03</rscale>
<asrwt>0</asrwt>
<pdfrwt beam="2">  1        4 0.15436562E-01 0.13916145E+03</pdfrwt>
<pdfrwt beam="1">  1       -4 0.15385556E-01 0.13916145E+03</pdfrwt>
<totfact> 0.21330403E+03</totfact>
</mgrwt>
</event>
<event>
 6    4  0.1195577E-003  0.1279022E+03  0.7818608E-02  0.1230602E+00
         -4   -1    0    0    0  501 -0.00000000000E+00  0.00000000000E+00  0.26697143231E+02  0.26727333512E+02  0.12700000000E+01 0. -1.
          4   -1    0    0  502    0  0.00000000000E+00 -0.00000000000E+00 -0.23465953773E+03  0.23466297438E+03  0.12700000000E+01 0. -1.
         25    2    1    2    0    0 -0.19715110089E+02 -0.18583263913E+02 -0.14811607039E+03  0.19569703752E+03  0.12499974769E+03 0.  0.
    9000005    1    3    3    0    0 -0.76153245443E+01  0.53144030346E+02 -0.77722433169E+02  0.94467231075E+02  0.10000000000E+01 0.  0.
    9000005    1    3    3    0    0 -0.12099785544E+02 -0.71727294259E+02 -0.70393637223E+02  0.10122980645E+03  0.10000000000E+01 0.  0.
         21    1    1    2  502  501  0.19715110089E+02  0.18583263913E+02 -0.59846324105E+02  0.65693270374E+02  0.00000000000E+00 0. -1.
<mgrwt>
<rscale>  1 0.12790215E+03</rscale>
<asrwt>0</asrwt>
<pdfrwt beam="2">  1        4 0.36104053E-01 0.12790215E+03</pdfrwt>
<pdfrwt beam="1">  1       -4 0.41098396E-02 0.12790215E+03</pdfrwt>
<totfact> 0.39311924E+03</totfact>
</mgrwt>
</event>
<event>
 6    4  0.1195577E-003  0.1268869E+03  0.7818608E-02  0.1232149E+00
         -4   -1    0    0    0  501 -0.00000000000E+00  0.00000000000E+00  0.40421923529E+02  0.40441869415E+02  0.12700000000E+01 0.  1.
          4   -1    0    0  502    0  0.00000000000E+00 -0.00000000000E+00 -0.13915237221E+03  0.13915816753E+03  0.12700000000E+01 0.  1.
         25    2    1    2    0    0 -0.20495324583E+02  0.73352561074E+01 -0.74988800597E+02  0.14738932187E+03  0.12500571057E+03 0.  0.
    9000005    1    3    3    0    0  0.78839145627E-01 -0.50794538444E+02 -0.68633662333E+02  0.85391281502E+02  0.10000000000E+01 0.  0.
    9000005    1    3    3    0    0 -0.20574163728E+02  0.58129794551E+02 -0.63551382641E+01  0.61998040373E+02  0.10000000000E+01 0.  0.
         21    1    1    2  502  501  0.20495324583E+02 -0.73352561074E+01 -0.23741648084E+02  0.32210715075E+02  0.00000000000E+00 0. -1.
<mgrwt>
<rscale>  1 0.12688693E+03</rscale>
<asrwt>0</asrwt>
<pdfrwt beam="2">  1        4 0.21410037E-01 0.12688693E+03</pdfrwt>
<pdfrwt beam="1">  1       -4 0.62207376E-02 0.12688693E+03</pdfrwt>
<totfact> 0.53553304E+03</totfact>
</mgrwt>
</event>
<event>
 6    4  0.1195577E-003  0.1274644E+03  0.7818608E-02  0.1231267E+00
          4   -1    0    0  502    0  0.00000000000E+00  0.00000000000E+00  0.14817317709E+03  0.14817861961E+03  0.12700000000E+01 0.  1.
         -4   -1    0    0    0  501 -0.00000000000E+00 -0.00000000000E+00 -0.39187766007E+02  0.39208339733E+02  0.12700000000E+01 0.  1.
         25    2    1    2    0    0  0.35271267101E+01  0.24683393537E+02  0.89646866834E+02  0.15583240605E+03  0.12500187000E+03 0.  0.
    9000005    1    3    3    0    0  0.27570108471E+02 -0.45444402722E+02  0.33607791866E+02  0.62895057786E+02  0.10000000000E+01 0.  0.
    9000005    1    3    3    0    0 -0.24042981761E+02  0.70127796258E+02  0.56039074967E+02  0.92937348269E+02  0.10000000000E+01 0.  0.
         21    1    1    2  502  501 -0.35271267101E+01 -0.24683393537E+02  0.19338544247E+02  0.31554553283E+02  0.00000000000E+00 0.  1.
<mgrwt>
<rscale>  1 0.12746442E+03</rscale>
<asrwt>0</asrwt>
<pdfrwt beam="1">  1        4 0.22797875E-01 0.12746442E+03</pdfrwt>
<pdfrwt beam="2">  1       -4 0.60308883E-02 0.12746442E+03</pdfrwt>
<totfact> 0.50303951E+03</totfact>
</mgrwt>
</event>
<event>
 6    4  0.1195577E-003  0.1274422E+03  0.7818608E-02  0.1231301E+00
         -4   -1    0    0    0  501 -0.00000000000E+00  0.00000000000E+00  0.99901222799E+03  0.99901303524E+03  0.12700000000E+01 0.  1.
          4   -1    0    0  502    0  0.00000000000E+00 -0.00000000000E+00 -0.89622212854E+01  0.90517573083E+01  0.12700000000E+01 0.  1.
         25    2    1    2    0    0  0.42373485674E+00 -0.24727587719E+02  0.96306727382E+03  0.97146286610E+03  0.12501957112E+03 0.  0.
    9000005    1    3    3    0    0  0.19286601362E+02  0.77201988549E+01  0.88065999192E+03  0.88090555443E+03  0.10000000000E+01 0.  0.
    9000005    1    3    3    0    0 -0.18862866505E+02 -0.32447786574E+02  0.82407281901E+02  0.90557311669E+02  0.10000000000E+01 0.  0.
         21    1    1    2  502  501 -0.42373485674E+00  0.24727587719E+02  0.26982732888E+02  0.36601926448E+02  0.00000000000E+00 0.  1.
<mgrwt>
<rscale>  1 0.12744225E+03</rscale>
<asrwt>0</asrwt>
<pdfrwt beam="2">  1        4 0.13857525E-02 0.12744225E+03</pdfrwt>
<pdfrwt beam="1">  1       -4 0.15370116E+00 0.12744225E+03</pdfrwt>
<totfact> 0.87617485E+02</totfact>
</mgrwt>
</event>
<event>
 6    4  0.1195577E-003  0.1289277E+03  0.7818608E-02  0.1229056E+00
          4   -1    0    0  502    0  0.00000000000E+00  0.00000000000E+00  0.30162308668E+03  0.30162576037E+03  0.12700000000E+01 0. -1.
         -4   -1    0    0    0  501 -0.00000000000E+00 -0.00000000000E+00 -0.46786147351E+02  0.46803381117E+02  0.12700000000E+01 0. -1.
         25    2    1    2    0    0  0.84524760658E+00  0.31572143426E+02  0.45496709489E+02  0.13671979707E+03  0.12499935061E+03 0.  0.
    9000005    1    3    3    0    0  0.46564754163E+02  0.53678230005E+02  0.48173043939E+02  0.85856105602E+02  0.10000000000E+01 0.  0.
    9000005    1    3    3    0    0 -0.45719506556E+02 -0.22106086579E+02 -0.26763344496E+01  0.50863691468E+02  0.10000000000E+01 0.  0.
         21    1    1    2  502  501 -0.84524760658E+00 -0.31572143426E+02  0.20934022984E+03  0.21170934442E+03  0.00000000000E+00 0. -1.
<mgrwt>
<rscale>  1 0.12892770E+03</rscale>
<asrwt>0</asrwt>
<pdfrwt beam="1">  1        4 0.46405083E-01 0.12892770E+03</pdfrwt>
<pdfrwt beam="2">  1       -4 0.71994002E-02 0.12892770E+03</pdfrwt>
<totfact> 0.97104133E+02</totfact>
</mgrwt>
</event>
<event>
 6    4  0.1195577E-003  0.1274738E+03  0.7818608E-02  0.1231253E+00
         -4   -1    0    0    0  501 -0.00000000000E+00  0.00000000000E+00  0.78808558129E+03  0.78808660459E+03  0.12700000000E+01 0.  1.
          4   -1    0    0  502    0  0.00000000000E+00 -0.00000000000E+00 -0.73657959634E+01  0.74744799267E+01  0.12700000000E+01 0.  1.
         25    2    1    2    0    0 -0.30274420128E+00 -0.24985935970E+02  0.62748015507E+03  0.64029752494E+03  0.12500074717E+03 0.  0.
    9000005    1    3    3    0    0  0.51149824030E+00 -0.54993664401E+02  0.12086432748E+03  0.13279213234E+03  0.10000000000E+01 0.  0.
    9000005    1    3    3    0    0 -0.81424244158E+00  0.30007728432E+02  0.50661582759E+03  0.50750539260E+03  0.10000000000E+01 0.  0.
         21    1    1    2  502  501  0.30274420128E+00  0.24985935970E+02  0.15323963026E+03  0.15526355957E+03  0.00000000000E+00 0.  1.
<mgrwt>
<rscale>  1 0.12747382E+03</rscale>
<asrwt>0</asrwt>
<pdfrwt beam="2">  1        4 0.11416379E-02 0.12747382E+03</pdfrwt>
<pdfrwt beam="1">  1       -4 0.12125242E+00 0.12747382E+03</pdfrwt>
<totfact> 0.21148133E+03</totfact>
</mgrwt>
</event>
<event>
 6    4  0.1195577E-003  0.1272772E+03  0.7818608E-02  0.1231553E+00
          4   -1    0    0  502    0  0.00000000000E+00  0.00000000000E+00  0.24755082880E+04  0.24755086138E+04  0.12700000000E+01 0.  1.
         -4   -1    0    0    0  501 -0.00000000000E+00 -0.00000000000E+00 -0.21468956476E+01  0.24944059256E+01  0.12700000000E+01 0.  1.
         25    2    1    2    0    0  0.75934207745E+01  0.22557091450E+02  0.21529236780E+04  0.21566826014E+04  0.12503198638E+03 0.  0.
    9000005    1    3    3    0    0  0.16192602829E+02 -0.18546017818E+02  0.19096638428E+04  0.19098228053E+04  0.10000000000E+01 0.  0.
    9000005    1    3    3    0    0 -0.85991820543E+01  0.41103109268E+02  0.24325983522E+03  0.24685979615E+03  0.10000000000E+01 0.  0.
         21    1    1    2  502  501 -0.75934207745E+01 -0.22557091450E+02  0.32043771436E+03  0.32132041827E+03  0.00000000000E+00 0. -1.
<mgrwt>
<rscale>  1 0.12727718E+03</rscale>
<asrwt>0</asrwt>
<pdfrwt beam="1">  1        4 0.38087233E+00 0.12727718E+03</pdfrwt>
<pdfrwt beam="2">  1       -4 0.35704999E-03 0.12727718E+03</pdfrwt>
<totfact> 0.27687076E+02</totfact>
</mgrwt>
</event>
<event>
 6    4  0.1195577E-003  0.1292519E+03  0.7818608E-02  0.1228570E+00
         -4   -1    0    0    0  501 -0.00000000000E+00  0.00000000000E+00  0.17289562412E+04  0.17289567076E+04  0.12700000000E+01 0.  1.
          4   -1    0    0  502    0  0.00000000000E+00 -0.00000000000E+00 -0.37131554313E+01  0.39243373017E+01  0.12700000000E+01 0.  1.
         25    2    1    2    0    0  0.19055284626E+02 -0.26792902300E+02  0.13245626202E+04  0.13308539327E+04  0.12500036748E+03 0.  0.
    9000005    1    3    3    0    0  0.85034802773E+01 -0.51342980674E+02  0.22406927889E+03  0.23003576370E+03  0.10000000000E+01 0.  0.
    9000005    1    3    3    0    0  0.10551804349E+02  0.24550078374E+02  0.11004933413E+04  0.11008181690E+04  0.10000000000E+01 0.  0.
         21    1    1    2  502  501 -0.19055284626E+02  0.26792902300E+02  0.40068046553E+03  0.40202711219E+03  0.00000000000E+00 0. -1.
<mgrwt>
<rscale>  1 0.12925191E+03</rscale>
<asrwt>0</asrwt>
<pdfrwt beam="2">  1        4 0.58753494E-03 0.12925191E+03</pdfrwt>
<pdfrwt beam="1">  1       -4 0.26600972E+00 0.12925191E+03</pdfrwt>
<totfact> 0.64009703E+02</totfact>
</mgrwt>
</event>
<event>
 6    4  0.1195577E-003  0.1305404E+03  0.7818608E-02  0.1226656E+00
          4   -1    0    0  502    0  0.00000000000E+00  0.00000000000E+00  0.67979878316E+02  0.67991740350E+02  0.12700000000E+01 0.  1.
         -4   -1    0    0    0  501 -0.00000000000E+00 -0.00000000000E+00 -0.25007367110E+03  0.25007689593E+03  0.12700000000E+01 0.  1.
         25    2    1    2    0    0  0.37603382377E+02  0.13584409020E+01 -0.22553962782E+03  0.26059342154E+03  0.12499979162E+03 0.  0.
    9000005    1    3    3    0    0  0.68728778307E+02  0.51354169162E+01 -0.57826544974E+02  0.89971811020E+02  0.10000000000E+01 0.  0.
    9000005    1    3    3    0    0 -0.31125395930E+02 -0.37769760142E+01 -0.16771308284E+03  0.17062161052E+03  0.10000000000E+01 0.  0.
         21    1    1    2  502  501 -0.37603382377E+02 -0.13584409020E+01  0.43445835031E+02  0.57475214741E+02  0.00000000000E+00 0.  1.
<mgrwt>
<rscale>  1 0.13054044E+03</rscale>
<asrwt>0</asrwt>
<pdfrwt beam="1">  1        4 0.10459603E-01 0.13054044E+03</pdfrwt>
<pdfrwt beam="2">  1       -4 0.38474033E-01 0.13054044E+03</pdfrwt>
<totfact> 0.75787885E+02</totfact>
</mgrwt>
</event>
<event>
 6    4  0.1195577E-003  0.1271041E+03  0.7818608E-02  0.1231817E+00
          4   -1    0    0  502    0  0.00000000000E+00  0.00000000000E+00  0.11895645237E+03  0.11896323155E+03  0.12700000000E+01 0. -1.
         -4   -1    0    0    0  501 -0.00000000000E+00 -0.00000000000E+00 -0.11854681565E+03  0.11855361825E+03  0.12700000000E+01 0. -1.
         25    2    1    2    0    0 -0.80153496163E+01  0.21587728267E+02 -0.82458545231E+02  0.15150864425E+03  0.12500072703E+03 0.  0.
    9000005    1    3    3    0    0 -0.22001219777E+02  0.71586375533E+02 -0.43730762142E+02  0.86729708815E+02  0.10000000000E+01 0.  0.
    9000005    1    3    3    0    0  0.13985870161E+02 -0.49998647267E+02 -0.38727783090E+02  0.64778935432E+02  0.10000000000E+01 0.  0.
         21    1    1    2  502  501  0.80153496163E+01 -0.21587728267E+02  0.82868181954E+02  0.86008205547E+02  0.00000000000E+00 0. -1.
<mgrwt>
<rscale>  1 0.12710412E+03</rscale>
<asrwt>0</asrwt>
<pdfrwt beam="1">  1        4 0.18302037E-01 0.12710412E+03</pdfrwt>
<pdfrwt beam="2">  1       -4 0.18239016E-01 0.12710412E+03</pdfrwt>
<totfact> 0.11466313E+03</totfact>
</mgrwt>
</event>
<event>
 6    4  0.1195577E-003  0.1268061E+03  0.7818608E-02  0.1232273E+00
         -4   -1    0    0    0  501 -0.00000000000E+00  0.00000000000E+00  0.64942202110E+03  0.64942326289E+03  0.12700000000E+01 0. -1.
          4   -1    0    0  502    0  0.00000000000E+00 -0.00000000000E+00 -0.12846496341E+02  0.12909119577E+02  0.12700000000E+01 0. -1.
         25    2    1    2    0    0 -0.19860774592E+02 -0.77664424223E+01  0.62565023471E+03  0.63837137335E+03  0.12500010450E+03 0.  0.
    9000005    1    3    3    0    0  0.18131816886E+02  0.30189480199E+02  0.50591556064E+03  0.50714073194E+03  0.10000000000E+01 0.  0.
    9000005    1    3    3    0    0 -0.37992591478E+02 -0.37955922621E+02  0.11973467407E+03  0.13123064141E+03  0.10000000000E+01 0.  0.
         21    1    1    2  502  501  0.19860774592E+02  0.77664424223E+01  0.10925290040E+02  0.23961009114E+02  0.00000000000E+00 0. -1.
<mgrwt>
<rscale>  1 0.12680613E+03</rscale>
<asrwt>0</asrwt>
<pdfrwt beam="2">  1        4 0.19812968E-02 0.12680613E+03</pdfrwt>
<pdfrwt beam="1">  1       -4 0.99915992E-01 0.12680613E+03</pdfrwt>
<totfact> 0.14389039E+03</totfact>
</mgrwt>
</event>
<event>
 6    4  0.1195577E-003  0.1304787E+03  0.7818608E-02  0.1226747E+00
          4   -1    0    0  502    0  0.00000000000E+00  0.00000000000E+00  0.25028675245E+02  0.25060875574E+02  0.12700000000E+01 0.  1.
         -4   -1    0    0    0  501 -0.00000000000E+00 -0.00000000000E+00 -0.51065249930E+03  0.51065407855E+03  0.12700000000E+01 0.  1.
         25    2    1    2    0    0 -0.16579329724E+02  0.33539926752E+02 -0.48056177395E+03  0.49796015030E+03  0.12499956736E+03 0.  0.
    9000005    1    3    3    0    0 -0.37033443806E+02 -0.35428668436E+02 -0.12338405703E+03  0.13360872740E+03  0.10000000000E+01 0.  0.
    9000005    1    3    3    0    0  0.20454114082E+02  0.68968595187E+02 -0.35717771692E+03  0.36435142290E+03  0.10000000000E+01 0.  0.
         21    1    1    2  502  501  0.16579329724E+02 -0.33539926752E+02 -0.50620500996E+01  0.37754803824E+02  0.00000000000E+00 0.  1.
<mgrwt>
<rscale>  1 0.13047871E+03</rscale>
<asrwt>0</asrwt>
<pdfrwt beam="1">  1        4 0.38531642E-02 0.13047871E+03</pdfrwt>
<pdfrwt beam="2">  1       -4 0.78564514E-01 0.13047871E+03</pdfrwt>
<totfact> 0.88155443E+02</totfact>
</mgrwt>
</event>
<event>
 6    4  0.1195577E-003  0.1318527E+03  0.7818608E-02  0.1224732E+00
          4   -1    0    0  502    0  0.00000000000E+00  0.00000000000E+00  0.58988380203E+02  0.59002049955E+02  0.12700000000E+01 0. -1.
         -4   -1    0    0    0  501 -0.00000000000E+00 -0.00000000000E+00 -0.14828233010E+03  0.14828776861E+03  0.12700000000E+01 0. -1.
         25    2    1    2    0    0  0.24972051392E+02  0.33711756487E+02 -0.98198119470E+02  0.16440194019E+03  0.12500016558E+03 0.  0.
    9000005    1    3    3    0    0 -0.39227696820E+02  0.44006590160E+02 -0.74909014693E+02  0.95329705012E+02  0.10000000000E+01 0.  0.
    9000005    1    3    3    0    0  0.64199748213E+02 -0.10294833673E+02 -0.23289104777E+02  0.69072235176E+02  0.10000000000E+01 0.  0.
         21    1    1    2  502  501 -0.24972051392E+02 -0.33711756487E+02  0.89041695714E+01  0.42887878380E+02  0.00000000000E+00 0. -1.
<mgrwt>
<rscale>  1 0.13185267E+03</rscale>
<asrwt>0</asrwt>
<pdfrwt beam="1">  1        4 0.90766053E-02 0.13185267E+03</pdfrwt>
<pdfrwt beam="2">  1       -4 0.22814136E-01 0.13185267E+03</pdfrwt>
<totfact> 0.25841002E+03</totfact>
</mgrwt>
</event>
<event>
 6    4  0.1195577E-003  0.1288066E+03  0.7818608E-02  0.1229237E+00
         -4   -1    0    0    0  501 -0.00000000000E+00  0.00000000000E+00  0.15666347703E+03  0.15666862461E+03  0.12700000000E+01 0.  1.
          4   -1    0    0  502    0  0.00000000000E+00 -0.00000000000E+00 -0.40800383297E+02  0.40820144258E+02  0.12700000000E+01 0.  1.
         25    2    1    2    0    0 -0.30458723269E+02 -0.62866027751E+01  0.94630787323E+02  0.15983155132E+03  0.12499553468E+03 0.  0.
    9000005    1    3    3    0    0  0.46889294939E+02 -0.17529504673E+02  0.29707288929E+02  0.58218661351E+02  0.10000000000E+01 0.  0.
    9000005    1    3    3    0    0 -0.77348018208E+02  0.11242901898E+02  0.64923498394E+02  0.10161288997E+03  0.10000000000E+01 0.  0.
         21    1    1    2  502  501  0.30458723269E+02  0.62866027751E+01  0.21232306412E+02  0.37657217544E+02  0.00000000000E+00 0. -1.
<mgrwt>
<rscale>  1 0.12880659E+03</rscale>
<asrwt>0</asrwt>
<pdfrwt beam="2">  1        4 0.62788982E-02 0.12880659E+03</pdfrwt>
<pdfrwt beam="1">  1       -4 0.24103989E-01 0.12880659E+03</pdfrwt>
<totfact> 0.42659525E+03</totfact>
</mgrwt>
</event>
<event>
 6    4  0.1195577E-003  0.1318432E+03  0.7818608E-02  0.1224746E+00
         -4   -1    0    0    0  501 -0.00000000000E+00  0.00000000000E+00  0.20387431437E+02  0.20426949371E+02  0.12700000000E+01 0. -1.
          4   -1    0    0  502    0  0.00000000000E+00 -0.00000000000E+00 -0.37879546320E+03  0.37879759217E+03  0.12700000000E+01 0. -1.
         25    2    1    2    0    0 -0.22951710659E+02 -0.35087909475E+02 -0.24343681386E+03  0.27684675207E+03  0.12499879748E+03 0.  0.
    9000005    1    3    3    0    0 -0.40990671520E+02 -0.65155408380E+02 -0.85454960280E+02  0.11501744489E+03  0.10000000000E+01 0.  0.
    9000005    1    3    3    0    0  0.18038960861E+02  0.30067498905E+02 -0.15798185358E+03  0.16182930717E+03  0.10000000000E+01 0.  0.
         21    1    1    2  502  501  0.22951710659E+02  0.35087909475E+02 -0.11497121790E+03  0.12237778948E+03  0.00000000000E+00 0. -1.
<mgrwt>
<rscale>  1 0.13184325E+03</rscale>
<asrwt>0</asrwt>
<pdfrwt beam="2">  1        4 0.58279424E-01 0.13184325E+03</pdfrwt>
<pdfrwt beam="1">  1       -4 0.31397318E-02 0.13184325E+03</pdfrwt>
<totfact> 0.23146072E+03</totfact>
</mgrwt>
</event>
<event>
 6    4  0.1195577E-003  0.1300506E+03  0.7818608E-02  0.1227381E+00
          4   -1    0    0  502    0  0.00000000000E+00  0.00000000000E+00  0.30528012842E+03  0.30528277008E+03  0.12700000000E+01 0.  1.
         -4   -1    0    0    0  501 -0.00000000000E+00 -0.00000000000E+00 -0.31882227145E+02  0.31907511775E+02  0.12700000000E+01 0.  1.
         25    2    1    2    0    0 -0.25774495934E+02 -0.24967329126E+02  0.11132134952E+03  0.17118877345E+03  0.12500184451E+03 0.  0.
    9000005    1    3    3    0    0  0.24409756138E+02 -0.62416031622E+02  0.50843475215E+02  0.84128807017E+02  0.10000000000E+01 0.  0.
    9000005    1    3    3    0    0 -0.50184252072E+02  0.37448702496E+02  0.60477874300E+02  0.87059966429E+02  0.10000000000E+01 0.  0.
         21    1    1    2  502  501  0.25774495934E+02  0.24967329126E+02  0.16207655176E+03  0.16600150841E+03  0.00000000000E+00 0.  1.
<mgrwt>
<rscale>  1 0.13005058E+03</rscale>
<asrwt>0</asrwt>
<pdfrwt beam="1">  1        4 0.46968320E-01 0.13005058E+03</pdfrwt>
<pdfrwt beam="2">  1       -4 0.49071064E-02 0.13005058E+03</pdfrwt>
<totfact> 0.17689506E+03</totfact>
</mgrwt>
</event>
<event>
 6    4  0.1195577E-003  0.1279285E+03  0.7818608E-02  0.1230562E+00
         -4   -1    0    0    0  501 -0.00000000000E+00  0.00000000000E+00  0.15453840153E+03  0.15454361988E+03  0.12700000000E+01 0.  1.
          4   -1    0    0  502    0  0.00000000000E+00 -0.00000000000E+00 -0.10011132345E+03  0.10011937866E+03  0.12700000000E+01 0.  1.
         25    2    1    2    0    0  0.21175095988E+02 -0.17070952956E+02  0.12510454413E+03  0.17893251371E+03  0.12500358145E+03 0.  0.
    9000005    1    3    3    0    0 -0.39312315744E+02 -0.13064346855E+02  0.10839213167E+03  0.11604305036E+03  0.10000000000E+01 0.  0.
    9000005    1    3    3    0    0  0.60487411732E+02 -0.40066061007E+01  0.16712412463E+02  0.62889463353E+02  0.10000000000E+01 0.  0.
         21    1    1    2  502  501 -0.21175095988E+02  0.17070952956E+02 -0.70677466061E+02  0.75730484837E+02  0.00000000000E+00 0.  1.
<mgrwt>
<rscale>  1 0.12792849E+03</rscale>
<asrwt>0</asrwt>
<pdfrwt beam="2">  1        4 0.15402763E-01 0.12792849E+03</pdfrwt>
<pdfrwt beam="1">  1       -4 0.23776160E-01 0.12792849E+03</pdfrwt>
<totfact> 0.96445338E+02</totfact>
</mgrwt>
</event>
<event>
 6    4  0.1195577E-003  0.1280261E+03  0.7818608E-02  0.1230414E+00
         -4   -1    0    0    0  501 -0.00000000000E+00  0.00000000000E+00  0.63408631200E+02  0.63421348225E+02  0.12700000000E+01 0.  1.
          4   -1    0    0  502    0  0.00000000000E+00 -0.00000000000E+00 -0.95568490505E+02  0.95576928583E+02  0.12700000000E+01 0.  1.
         25    2    1    2    0    0 -0.24165558187E+01 -0.27561979274E+02 -0.27368575088E+02  0.13091876741E+03  0.12500072926E+03 0.  0.
    9000005    1    3    3    0    0 -0.50779276397E+02  0.24602694416E+02 -0.66682488982E+01  0.56826868885E+02  0.10000000000E+01 0.  0.
    9000005    1    3    3    0    0  0.48362720578E+02 -0.52164673689E+02 -0.20700326190E+02  0.74091898526E+02  0.10000000000E+01 0.  0.
         21    1    1    2  502  501  0.24165558187E+01  0.27561979274E+02 -0.47912842169E+01  0.28079509397E+02  0.00000000000E+00 0.  1.
<mgrwt>
<rscale>  1 0.12802611E+03</rscale>
<asrwt>0</asrwt>
<pdfrwt beam="2">  1        4 0.14704472E-01 0.12802611E+03</pdfrwt>
<pdfrwt beam="1">  1       -4 0.97568014E-02 0.12802611E+03</pdfrwt>
<totfact> 0.49696718E+03</totfact>
</mgrwt>
</event>
<event>
 6    4  0.1195577E-003  0.1270989E+03  0.7818608E-02  0.1231825E+00
          4   -1    0    0  502    0  0.00000000000E+00  0.00000000000E+00  0.31250699508E+02  0.31276494684E+02  0.12700000000E+01 0. -1.
         -4   -1    0    0    0  501 -0.00000000000E+00 -0.00000000000E+00 -0.22643557682E+03  0.22643913829E+03  0.12700000000E+01 0. -1.
         25    2    1    2    0    0  0.20485231487E+02  0.10446251353E+02 -0.19722400750E+03  0.23463042281E+03  0.12500142917E+03 0.  0.
    9000005    1    3    3    0    0 -0.29586692837E+02  0.33602138860E+02 -0.20054393128E+02  0.49067859264E+02  0.10000000000E+01 0.  0.
    9000005    1    3    3    0    0  0.50071924324E+02 -0.23155887507E+02 -0.17716961437E+03  0.18556256354E+03  0.10000000000E+01 0.  0.
         21    1    1    2  502  501 -0.20485231487E+02 -0.10446251353E+02  0.20391301910E+01  0.23085210165E+02  0.00000000000E+00 0. -1.
<mgrwt>
<rscale>  1 0.12709888E+03</rscale>
<asrwt>0</asrwt>
<pdfrwt beam="1">  1        4 0.48100583E-02 0.12709888E+03</pdfrwt>
<pdfrwt beam="2">  1       -4 0.34838500E-01 0.12709888E+03</pdfrwt>
<totfact> 0.32717691E+03</totfact>
</mgrwt>
</event>
<event>
 6    4  0.1195577E-003  0.1269054E+03  0.7818608E-02  0.1232121E+00
         -4   -1    0    0    0  501 -0.00000000000E+00  0.00000000000E+00  0.76799286400E+02  0.76809786431E+02  0.12700000000E+01 0. -1.
          4   -1    0    0  502    0  0.00000000000E+00 -0.00000000000E+00 -0.10137390252E+03  0.10138185741E+03  0.12700000000E+01 0. -1.
         25    2    1    2    0    0 -0.21737265299E+01 -0.21595074710E+02 -0.57043569840E+02  0.13913648676E+03  0.12503567790E+03 0.  0.
    9000005    1    3    3    0    0 -0.26027684901E+01 -0.10687856220E+02  0.39989157762E+02  0.41486593170E+02  0.10000000000E+01 0.  0.
    9000005    1    3    3    0    0  0.42904196023E+00 -0.10907218490E+02 -0.97032727602E+02  0.97649893589E+02  0.10000000000E+01 0.  0.
         21    1    1    2  502  501  0.21737265299E+01  0.21595074710E+02  0.32468953722E+02  0.39055157081E+02  0.00000000000E+00 0. -1.
<mgrwt>
<rscale>  1 0.12690545E+03</rscale>
<asrwt>0</asrwt>
<pdfrwt beam="2">  1        4 0.15597405E-01 0.12690545E+03</pdfrwt>
<pdfrwt beam="1">  1       -4 0.11816694E-01 0.12690545E+03</pdfrwt>
<totfact> 0.32352323E+03</totfact>
</mgrwt>
</event>
<event>
 6    4  0.1195577E-003  0.1327405E+03  0.7818608E-02  0.1223445E+00
          4   -1    0    0  502    0  0.00000000000E+00  0.00000000000E+00  0.80101966242E+02  0.80112033402E+02  0.12700000000E+01 0.  1.
         -4   -1    0    0    0  501 -0.00000000000E+00 -0.00000000000E+00 -0.10383587815E+03  0.10384364444E+03  0.12700000000E+01 0.  1.
         25    2    1    2    0    0  0.30370140667E+02 -0.32763590154E+02 -0.36174697359E+02  0.13758142393E+03  0.12499696475E+03 0.  0.
    9000005    1    3    3    0    0  0.44461758441E+01 -0.58661844465E+01  0.46375433459E+02  0.46966599069E+02  0.10000000000E+01 0.  0.
    9000005    1    3    3    0    0  0.25923964823E+02 -0.26897405707E+02 -0.82550130818E+02  0.90614824858E+02  0.10000000000E+01 0.  0.
         21    1    1    2  502  501 -0.30370140667E+02  0.32763590154E+02  0.12440785450E+02  0.46374253919E+02  0.00000000000E+00 0. -1.
<mgrwt>
<rscale>  1 0.13274050E+03</rscale>
<asrwt>0</asrwt>
<pdfrwt beam="1">  1        4 0.12324751E-01 0.13274050E+03</pdfrwt>
<pdfrwt beam="2">  1       -4 0.15976122E-01 0.13274050E+03</pdfrwt>
<totfact> 0.29180252E+03</totfact>
</mgrwt>
</event>
<event>
 6    4  0.1195577E-003  0.1276318E+03  0.7818608E-02  0.1231013E+00
         -4   -1    0    0    0  501 -0.00000000000E+00  0.00000000000E+00  0.46362410863E+02  0.46379802080E+02  0.12700000000E+01 0.  1.
          4   -1    0    0  502    0  0.00000000000E+00 -0.00000000000E+00 -0.12858185578E+03  0.12858812751E+03  0.12700000000E+01 0.  1.
         25    2    1    2    0    0 -0.25680939706E+02 -0.22712806482E+01 -0.75634170445E+02  0.14835899839E+03  0.12500078113E+03 0.  0.
    9000005    1    3    3    0    0 -0.52998507423E+02  0.46749638731E+02 -0.33728230945E+02  0.78313243281E+02  0.10000000000E+01 0.  0.
    9000005    1    3    3    0    0  0.27317567716E+02 -0.49020919379E+02 -0.41905939501E+02  0.70045755105E+02  0.10000000000E+01 0.  0.
         21    1    1    2  502  501  0.25680939706E+02  0.22712806482E+01 -0.65852744753E+01  0.26608931206E+02  0.00000000000E+00 0.  1.
<mgrwt>
<rscale>  1 0.12763175E+03</rscale>
<asrwt>0</asrwt>
<pdfrwt beam="2">  1        4 0.19783644E-01 0.12763175E+03</pdfrwt>
<pdfrwt beam="1">  1       -4 0.71344989E-02 0.12763175E+03</pdfrwt>
<totfact> 0.49431835E+03</totfact>
</mgrwt>
</event>
<event>
 6    4  0.1195577E-003  0.1268790E+03  0.7818608E-02  0.1232162E+00
          4   -1    0    0  502    0  0.00000000000E+00  0.00000000000E+00  0.67079175650E+02  0.67091196933E+02  0.12700000000E+01 0.  1.
         -4   -1    0    0    0  501 -0.00000000000E+00 -0.00000000000E+00 -0.83218345438E+02  0.83228035646E+02  0.12700000000E+01 0.  1.
         25    2    1    2    0    0 -0.19972377708E+02  0.86267953182E+01 -0.81417141236E+01  0.12714000123E+03  0.12499989974E+03 0.  0.
    9000005    1    3    3    0    0 -0.45990913727E+02 -0.20539053815E+02  0.40566503389E+02  0.64681203408E+02  0.10000000000E+01 0.  0.
    9000005    1    3    3    0    0  0.26018536020E+02  0.29165849133E+02 -0.48708217513E+02  0.62458797823E+02  0.10000000000E+01 0.  0.
         21    1    1    2  502  501  0.19972377708E+02 -0.86267953182E+01 -0.79974556640E+01  0.23179231347E+02  0.00000000000E+00 0.  1.
<mgrwt>
<rscale>  1 0.12687905E+03</rscale>
<asrwt>0</asrwt>
<pdfrwt beam="1">  1        4 0.10321543E-01 0.12687905E+03</pdfrwt>
<pdfrwt beam="2">  1       -4 0.12804492E-01 0.12687905E+03</pdfrwt>
<totfact> 0.57293758E+03</totfact>
</mgrwt>
</event>
<event>
 6    4  0.1195577E-003  0.1272663E+03  0.7818608E-02  0.1231569E+00
         -4   -1    0    0    0  501 -0.00000000000E+00  0.00000000000E+00  0.33595696693E+03  0.33595936738E+03  0.12700000000E+01 0. -1.
          4   -1    0    0  502    0  0.00000000000E+00 -0.00000000000E+00 -0.18088456232E+02  0.18132985106E+02  0.12700000000E+01 0. -1.
         25    2    1    2    0    0  0.21788608835E+02 -0.98693167095E+01  0.29370182706E+03  0.32008977191E+03  0.12499820790E+03 0.  0.
    9000005    1    3    3    0    0 -0.47049051267E+02 -0.14783718704E+02  0.18386991831E+03  0.19037152734E+03  0.10000000000E+01 0.  0.
    9000005    1    3    3    0    0  0.68837660101E+02  0.49144019942E+01  0.10983190875E+03  0.12971824457E+03  0.10000000000E+01 0.  0.
         21    1    1    2  502  501 -0.21788608835E+02  0.98693167095E+01  0.24166683643E+02  0.34002580572E+02  0.00000000000E+00 0. -1.
<mgrwt>
<rscale>  1 0.12726625E+03</rscale>
<asrwt>0</asrwt>
<pdfrwt beam="2">  1        4 0.27864493E-02 0.12726625E+03</pdfrwt>
<pdfrwt beam="1">  1       -4 0.51689299E-01 0.12726625E+03</pdfrwt>
<totfact> 0.35446692E+03</totfact>
</mgrwt>
</event>
<event>
 6    4  0.1195577E-003  0.1407991E+03  0.7818608E-02  0.1212258E+00
          4   -1    0    0  502    0  0.00000000000E+00  0.00000000000E+00  0.21392808521E+02  0.21430472613E+02  0.12700000000E+01 0. -1.
         -4   -1    0    0    0  501 -0.00000000000E+00 -0.00000000000E+00 -0.51867260203E+03  0.51867415687E+03  0.12700000000E+01 0. -1.
         25    2    1    2    0    0 -0.60888428102E+02 -0.22348138949E+02 -0.39120889089E+03  0.41577492115E+03  0.12497019145E+03 0.  0.
    9000005    1    3    3    0    0  0.21922595498E+02 -0.59716531414E+01 -0.25160265763E+03  0.25262849832E+03  0.10000000000E+01 0.  0.
    9000005    1    3    3    0    0 -0.82811023600E+02 -0.16376485808E+02 -0.13960623326E+03  0.16314642283E+03  0.10000000000E+01 0.  0.
         21    1    1    2  502  501  0.60888428102E+02  0.22348138949E+02 -0.10607090262E+03  0.12432970833E+03  0.00000000000E+00 0.  1.
<mgrwt>
<rscale>  1 0.14079911E+03</rscale>
<asrwt>0</asrwt>
<pdfrwt beam="1">  1        4 0.32942185E-02 0.14079911E+03</pdfrwt>
<pdfrwt beam="2">  1       -4 0.79798793E-01 0.14079911E+03</pdfrwt>
<totfact> 0.11082541E+03</totfact>
</mgrwt>
</event>
<event>
 6    4  0.1195577E-003  0.1274029E+03  0.7818608E-02  0.1231361E+00
          4   -1    0    0  502    0  0.00000000000E+00  0.00000000000E+00  0.99998344866E+02  0.10000640917E+03  0.12700000000E+01 0. -1.
         -4   -1    0    0    0  501 -0.00000000000E+00 -0.00000000000E+00 -0.61634844781E+02  0.61647927712E+02  0.12700000000E+01 0. -1.
         25    2    1    2    0    0 -0.13281165534E+02 -0.20708306476E+02  0.15992956576E+02  0.12840280261E+03  0.12500512686E+03 0.  0.
    9000005    1    3    3    0    0  0.11882921721E+02 -0.18816095346E+02  0.67476445285E+02  0.71058566978E+02  0.10000000000E+01 0.  0.
    9000005    1    3    3    0    0 -0.25164087255E+02 -0.18922111300E+01 -0.51483488708E+02  0.57344235629E+02  0.10000000000E+01 0.  0.
         21    1    1    2  502  501  0.13281165534E+02  0.20708306476E+02  0.22370543508E+02  0.33251534278E+02  0.00000000000E+00 0.  1.
<mgrwt>
<rscale>  1 0.12740292E+03</rscale>
<asrwt>0</asrwt>
<pdfrwt beam="1">  1        4 0.15385987E-01 0.12740292E+03</pdfrwt>
<pdfrwt beam="2">  1       -4 0.94839107E-02 0.12740292E+03</pdfrwt>
<totfact> 0.48099820E+03</totfact>
</mgrwt>
</event>
<event>
 6    4  0.1195577E-003  0.1267715E+03  0.7818608E-02  0.1232326E+00
          4   -1    0    0  502    0  0.00000000000E+00  0.00000000000E+00  0.69291650055E+03  0.69291766440E+03  0.12700000000E+01 0. -1.
         -4   -1    0    0    0  501 -0.00000000000E+00 -0.00000000000E+00 -0.82685698123E+01  0.83655332610E+01  0.12700000000E+01 0. -1.
         25    2    1    2    0    0  0.20564457695E+02 -0.48258910977E+01  0.51728402543E+03  0.53259157681E+03  0.12499935431E+03 0.  0.
    9000005    1    3    3    0    0  0.52471160372E+02 -0.20361762668E+02  0.10817751941E+03  0.12194752869E+03  0.10000000000E+01 0.  0.
    9000005    1    3    3    0    0 -0.31906702677E+02  0.15535871570E+02  0.40910650602E+03  0.41064404811E+03  0.10000000000E+01 0.  0.
         21    1    1    2  502  501 -0.20564457695E+02  0.48258910977E+01  0.16736390531E+03  0.16869162085E+03  0.00000000000E+00 0. -1.
<mgrwt>
<rscale>  1 0.12677155E+03</rscale>
<asrwt>0</asrwt>
<pdfrwt beam="1">  1        4 0.10661009E+00 0.12677155E+03</pdfrwt>
<pdfrwt beam="2">  1       -4 0.12796359E-02 0.12677155E+03</pdfrwt>
<totfact> 0.24107511E+03</totfact>
</mgrwt>
</event>
<event>
 6    4  0.1195577E-003  0.1266205E+03  0.7818608E-02  0.1232558E+00
          4   -1    0    0  502    0  0.00000000000E+00  0.00000000000E+00  0.23210364366E+02  0.23245083652E+02  0.12700000000E+01 0.  1.
         -4   -1    0    0    0  501 -0.00000000000E+00 -0.00000000000E+00 -0.39802627463E+03  0.39802830075E+03  0.12700000000E+01 0.  1.
         25    2    1    2    0    0  0.75106062074E+01 -0.18739619920E+02 -0.37990729215E+03  0.40045260800E+03  0.12500063225E+03 0.  0.
    9000005    1    3    3    0    0 -0.46944374284E+02 -0.73196306693E+01 -0.29585990607E+03  0.29965219053E+03  0.10000000000E+01 0.  0.
    9000005    1    3    3    0    0  0.54454980491E+02 -0.11419989251E+02 -0.84047386081E+02  0.10080041747E+03  0.10000000000E+01 0.  0.
         21    1    1    2  502  501 -0.75106062074E+01  0.18739619920E+02  0.50913818877E+01  0.20820776400E+02  0.00000000000E+00 0.  1.
<mgrwt>
<rscale>  1 0.12662046E+03</rscale>
<asrwt>0</asrwt>
<pdfrwt beam="1">  1        4 0.35736521E-02 0.12662046E+03</pdfrwt>
<pdfrwt beam="2">  1       -4 0.61237633E-01 0.12662046E+03</pdfrwt>
<totfact> 0.16862043E+03</totfact>
</mgrwt>
</event>
<event>
 6    4  0.1195577E-003  0.1270038E+03  0.7818608E-02  0.1231970E+00
         -4   -1    0    0    0  501 -0.00000000000E+00  0.00000000000E+00  0.83470382378E+02  0.83480043330E+02  0.12700000000E+01 0. -1.
          4   -1    0    0  502    0  0.00000000000E+00 -0.00000000000E+00 -0.13020843125E+03  0.13021462464E+03  0.12700000000E+01 0. -1.
         25    2    1    2    0    0  0.93136012619E+01 -0.20453631526E+02  0.32693974845E+02  0.13114443718E+03  0.12499949280E+03 0.  0.
    9000005    1    3    3    0    0 -0.30693343105E+02 -0.35063166547E+02 -0.29937836734E+02  0.55396579566E+02  0.10000000000E+01 0.  0.
    9000005    1    3    3    0    0  0.40006944367E+02  0.14609535021E+02  0.62631811579E+02  0.75747857612E+02  0.10000000000E+01 0.  0.
         21    1    1    2  502  501 -0.93136012619E+01  0.20453631526E+02 -0.79432023720E+02  0.82550230789E+02  0.00000000000E+00 0. -1.
<mgrwt>
<rscale>  1 0.12700381E+03</rscale>
<asrwt>0</asrwt>
<pdfrwt beam="2">  1        4 0.20033286E-01 0.12700381E+03</pdfrwt>
<pdfrwt beam="1">  1       -4 0.12842817E-01 0.12700381E+03</pdfrwt>
<totfact> 0.18004266E+03</totfact>
</mgrwt>
</event>
<event>
 6    4  0.1195577E-003  0.1286102E+03  0.7818608E-02  0.1229533E+00
         -4   -1    0    0    0  501 -0.00000000000E+00  0.00000000000E+00  0.26075084390E+02  0.26105994062E+02  0.12700000000E+01 0. -1.
          4   -1    0    0  502    0  0.00000000000E+00 -0.00000000000E+00 -0.28865384635E+03  0.28865664017E+03  0.12700000000E+01 0. -1.
         25    2    1    2    0    0 -0.29412641935E+02 -0.70917282406E+01 -0.14713874341E+03  0.19542364648E+03  0.12500078270E+03 0.  0.
    9000005    1    3    3    0    0 -0.60064679967E+02 -0.26207478165E+02 -0.28618773262E+02  0.71516654524E+02  0.10000000000E+01 0.  0.
    9000005    1    3    3    0    0  0.30652038033E+02  0.19115749924E+02 -0.11851997015E+03  0.12390699196E+03  0.10000000000E+01 0.  0.
         21    1    1    2  502  501  0.29412641935E+02  0.70917282406E+01 -0.11544001855E+03  0.11933898775E+03  0.00000000000E+00 0. -1.
<mgrwt>
<rscale>  1 0.12861023E+03</rscale>
<asrwt>0</asrwt>
<pdfrwt beam="2">  1        4 0.44410874E-01 0.12861023E+03</pdfrwt>
<pdfrwt beam="1">  1       -4 0.40141442E-02 0.12861023E+03</pdfrwt>
<totfact> 0.27198477E+03</totfact>
</mgrwt>
</event>
<event>
 6    4  0.1195577E-003  0.1280208E+03  0.7818608E-02  0.1230422E+00
         -4   -1    0    0    0  501 -0.00000000000E+00  0.00000000000E+00  0.15867837740E+04  0.15867842823E+04  0.12700000000E+01 0.  1.
          4   -1    0    0  502    0  0.00000000000E+00 -0.00000000000E+00 -0.38846660103E+01  0.40869952302E+01  0.12700000000E+01 0.  1.
         25    2    1    2    0    0 -0.27374740273E+02 -0.37670341637E+01  0.14073393245E+04  0.14131501349E+04  0.12500304953E+03 0.  0.
    9000005    1    3    3    0    0  0.40732369493E+02  0.31294588378E+02  0.58150052639E+03  0.58376565450E+03  0.10000000000E+01 0.  0.
    9000005    1    3    3    0    0 -0.68107109766E+02 -0.35061622542E+02  0.82583879815E+03  0.82938448039E+03  0.10000000000E+01 0.  0.
         21    1    1    2  502  501  0.27374740273E+02  0.37670341637E+01  0.17555978349E+03  0.17772114261E+03  0.00000000000E+00 0.  1.
<mgrwt>
<rscale>  1 0.12802082E+03</rscale>
<asrwt>0</asrwt>
<pdfrwt beam="2">  1        4 0.61324383E-03 0.12802082E+03</pdfrwt>
<pdfrwt beam="1">  1       -4 0.24413617E+00 0.12802082E+03</pdfrwt>
<totfact> 0.80103709E+02</totfact>
</mgrwt>
</event>
<event>
 6    4  0.1195577E-003  0.1287550E+03  0.7818608E-02  0.1229315E+00
         -4   -1    0    0    0  501 -0.00000000000E+00  0.00000000000E+00  0.31341232205E+03  0.31341489517E+03  0.12700000000E+01 0. -1.
          4   -1    0    0  502    0  0.00000000000E+00 -0.00000000000E+00 -0.20573220720E+02  0.20612382463E+02  0.12700000000E+01 0. -1.
         25    2    1    2    0    0 -0.30309891214E+02  0.57641848580E+01  0.21973016873E+03  0.25467470137E+03  0.12500376449E+03 0.  0.
    9000005    1    3    3    0    0 -0.40525424276E+02  0.23321275515E+02  0.15257800944E+02  0.49193418198E+02  0.10000000000E+01 0.  0.
    9000005    1    3    3    0    0  0.10215533061E+02 -0.17557090657E+02  0.20447236778E+03  0.20548128318E+03  0.10000000000E+01 0.  0.
         21    1    1    2  502  501  0.30309891214E+02 -0.57641848580E+01  0.73108932604E+02  0.79352576259E+02  0.00000000000E+00 0. -1.
<mgrwt>
<rscale>  1 0.12875503E+03</rscale>
<asrwt>0</asrwt>
<pdfrwt beam="2">  1        4 0.31683212E-02 0.12875503E+03</pdfrwt>
<pdfrwt beam="1">  1       -4 0.48220492E-01 0.12875503E+03</pdfrwt>
<totfact> 0.33491822E+03</totfact>
</mgrwt>
</event>
<event>
 6    4  0.1195577E-003  0.1267772E+03  0.7818608E-02  0.1232318E+00
          4   -1    0    0  502    0  0.00000000000E+00  0.00000000000E+00  0.83846051211E+02  0.83855668882E+02  0.12700000000E+01 0.  1.
         -4   -1    0    0    0  501 -0.00000000000E+00 -0.00000000000E+00 -0.65738446659E+02  0.65750713069E+02  0.12700000000E+01 0.  1.
         25    2    1    2    0    0  0.17926893574E+02  0.11220474302E+02  0.10823696697E+02  0.12723837197E+03  0.12500071334E+03 0.  0.
    9000005    1    3    3    0    0 -0.32868661159E+02 -0.25014385108E+02  0.40749254204E+02  0.58030768278E+02  0.10000000000E+01 0.  0.
    9000005    1    3    3    0    0  0.50795554732E+02  0.36234859410E+02 -0.29925557508E+02  0.69207603695E+02  0.10000000000E+01 0.  0.
         21    1    1    2  502  501 -0.17926893574E+02 -0.11220474302E+02  0.72839078554E+01  0.22368009979E+02  0.00000000000E+00 0. -1.
<mgrwt>
<rscale>  1 0.12677717E+03</rscale>
<asrwt>0</asrwt>
<pdfrwt beam="1">  1        4 0.12901076E-01 0.12677717E+03</pdfrwt>
<pdfrwt beam="2">  1       -4 0.10115291E-01 0.12677717E+03</pdfrwt>
<totfact> 0.58503956E+03</totfact>
</mgrwt>
</event>
<event>
 6    4  0.1195577E-003  0.1627430E+03  0.7818608E-02  0.1185634E+00
         -4   -1    0    0    0  501 -0.00000000000E+00  0.00000000000E+00  0.39925747561E+03  0.39925949548E+03  0.12700000000E+01 0.  1.
          4   -1    0    0  502    0  0.00000000000E+00 -0.00000000000E+00 -0.44767427741E+02  0.44785438332E+02  0.12700000000E+01 0.  1.
         25    2    1    2    0    0  0.27844288771E+02  0.10042962014E+03  0.20330268492E+03  0.26041750739E+03  0.12499553368E+03 0.  0.
    9000005    1    3    3    0    0 -0.49991148608E+01 -0.26187735078E+02  0.63924585994E+02  0.69268617081E+02  0.10000000000E+01 0.  0.
    9000005    1    3    3    0    0  0.32843403632E+02  0.12661735522E+03  0.13937809892E+03  0.19114889031E+03  0.10000000000E+01 0.  0.
         21    1    1    2  502  501 -0.27844288771E+02 -0.10042962014E+03  0.15118736295E+03  0.18362742642E+03  0.00000000000E+00 0.  1.
<mgrwt>
<rscale>  1 0.16274304E+03</rscale>
<asrwt>0</asrwt>
<pdfrwt beam="2">  1        4 0.68888373E-02 0.16274304E+03</pdfrwt>
<pdfrwt beam="1">  1       -4 0.61425769E-01 0.16274304E+03</pdfrwt>
<totfact> 0.61333624E+02</totfact>
</mgrwt>
</event>
<event>
 6    4  0.1195577E-003  0.1272206E+03  0.7818608E-02  0.1231639E+00
          4   -1    0    0  502    0  0.00000000000E+00  0.00000000000E+00  0.21094718583E+02  0.21132913952E+02  0.12700000000E+01 0. -1.
         -4   -1    0    0    0  501 -0.00000000000E+00 -0.00000000000E+00 -0.28841359497E+03  0.28841639111E+03  0.12700000000E+01 0. -1.
         25    2    1    2    0    0 -0.21705213124E+02  0.94275713837E+01 -0.24901923547E+03  0.27963488987E+03  0.12500038647E+03 0.  0.
    9000005    1    3    3    0    0 -0.17485895105E+02 -0.53125606202E+02 -0.67932256628E+02  0.87999307114E+02  0.10000000000E+01 0.  0.
    9000005    1    3    3    0    0 -0.42193180197E+01  0.62553177586E+02 -0.18108697885E+03  0.19163558276E+03  0.10000000000E+01 0.  0.
         21    1    1    2  502  501  0.21705213124E+02 -0.94275713837E+01 -0.18299640909E+02  0.29914415194E+02  0.00000000000E+00 0.  1.
<mgrwt>
<rscale>  1 0.12722064E+03</rscale>
<asrwt>0</asrwt>
<pdfrwt beam="1">  1        4 0.32484947E-02 0.12722064E+03</pdfrwt>
<pdfrwt beam="2">  1       -4 0.44374472E-01 0.12722064E+03</pdfrwt>
<totfact> 0.37946522E+03</totfact>
</mgrwt>
</event>
<event>
 6    4  0.1195577E-003  0.1270573E+03  0.7818608E-02  0.1231889E+00
         -4   -1    0    0    0  501 -0.00000000000E+00  0.00000000000E+00  0.39833874454E+02  0.39854114644E+02  0.12700000000E+01 0. -1.
          4   -1    0    0  502    0  0.00000000000E+00 -0.00000000000E+00 -0.14803339823E+03  0.14803884589E+03  0.12700000000E+01 0. -1.
         25    2    1    2    0    0  0.15855602268E+02 -0.16332183807E+02 -0.74693265373E+02  0.14738605120E+03  0.12500169537E+03 0.  0.
    9000005    1    3    3    0    0 -0.27306711027E+02 -0.49753900044E+02 -0.24297700872E+01  0.56815586060E+02  0.10000000000E+01 0.  0.
    9000005    1    3    3    0    0  0.43162313295E+02  0.33421716237E+02 -0.72263495286E+02  0.90570465142E+02  0.10000000000E+01 0.  0.
         21    1    1    2  502  501 -0.15855602268E+02  0.16332183807E+02 -0.33506258402E+02  0.40506909328E+02  0.00000000000E+00 0. -1.
<mgrwt>
<rscale>  1 0.12705733E+03</rscale>
<asrwt>0</asrwt>
<pdfrwt beam="2">  1        4 0.22776345E-01 0.12705733E+03</pdfrwt>
<pdfrwt beam="1">  1       -4 0.61302644E-02 0.12705733E+03</pdfrwt>
<totfact> 0.49031108E+03</totfact>
</mgrwt>
</event>
<event>
 6    4  0.1195577E-003  0.1326281E+03  0.7818608E-02  0.1223607E+00
          4   -1    0    0  502    0  0.00000000000E+00  0.00000000000E+00  0.29274434206E+02  0.29301969184E+02  0.12700000000E+01 0.  1.
         -4   -1    0    0    0  501 -0.00000000000E+00 -0.00000000000E+00 -0.47310630987E+03  0.47310801446E+03  0.12700000000E+01 0.  1.
         25    2    1    2    0    0 -0.39248162750E+02  0.20636357458E+02 -0.43805509830E+03  0.45769255208E+03  0.12499570214E+03 0.  0.
    9000005    1    3    3    0    0 -0.73916708352E+02  0.53908419293E+01 -0.38745583695E+03  0.39448164284E+03  0.10000000000E+01 0.  0.
    9000005    1    3    3    0    0  0.34668545602E+02  0.15245515529E+02 -0.50599261352E+02  0.63210909243E+02  0.10000000000E+01 0.  0.
         21    1    1    2  502  501  0.39248162750E+02 -0.20636357458E+02 -0.57767773650E+01  0.44717431558E+02  0.00000000000E+00 0.  1.
<mgrwt>
<rscale>  1 0.13262806E+03</rscale>
<asrwt>0</asrwt>
<pdfrwt beam="1">  1        4 0.45060087E-02 0.13262806E+03</pdfrwt>
<pdfrwt beam="2">  1       -4 0.72787830E-01 0.13262806E+03</pdfrwt>
<totfact> 0.81499571E+02</totfact>
</mgrwt>
</event>
<event>
 6    4  0.1195577E-003  0.1353249E+03  0.7818608E-02  0.1219762E+00
         -4   -1    0    0    0  501 -0.00000000000E+00  0.00000000000E+00  0.20657793344E+02  0.20696795062E+02  0.12700000000E+01 0.  1.
          4   -1    0    0  502    0  0.00000000000E+00 -0.00000000000E+00 -0.50747951335E+03  0.50748110247E+03  0.12700000000E+01 0.  1.
         25    2    1    2    0    0 -0.30867505187E+02  0.41655033083E+02 -0.23592560179E+03  0.27198108492E+03  0.12499950527E+03 0.  0.
    9000005    1    3    3    0    0 -0.40354245378E+02  0.53260941316E+02 -0.45234580390E+02  0.80699196111E+02  0.10000000000E+01 0.  0.
    9000005    1    3    3    0    0  0.94867401909E+01 -0.11605908234E+02 -0.19069102140E+03  0.19128188881E+03  0.10000000000E+01 0.  0.
         21    1    1    2  502  501  0.30867505187E+02 -0.41655033083E+02 -0.25089611822E+03  0.25619681261E+03  0.00000000000E+00 0.  1.
<mgrwt>
<rscale>  1 0.13532487E+03</rscale>
<asrwt>0</asrwt>
<pdfrwt beam="2">  1        4 0.78076884E-01 0.13532487E+03</pdfrwt>
<pdfrwt beam="1">  1       -4 0.31812448E-02 0.13532487E+03</pdfrwt>
<totfact> 0.12184142E+03</totfact>
</mgrwt>
</event>
<event>
 6    4  0.1195577E-003  0.1281769E+03  0.7818608E-02  0.1230186E+00
          4   -1    0    0  502    0  0.00000000000E+00  0.00000000000E+00  0.22225684383E+03  0.22226047226E+03  0.12700000000E+01 0.  1.
         -4   -1    0    0    0  501 -0.00000000000E+00 -0.00000000000E+00 -0.32923100480E+02  0.32947586334E+02  0.12700000000E+01 0.  1.
         25    2    1    2    0    0 -0.27503682604E+02 -0.69372000936E+01  0.10330751268E+03  0.16462610860E+03  0.12499894461E+03 0.  0.
    9000005    1    3    3    0    0  0.73588030275E+01 -0.73024989595E+01 -0.27416950886E+02  0.29328615190E+02  0.10000000000E+01 0.  0.
    9000005    1    3    3    0    0 -0.34862485631E+02  0.36529886589E+00  0.13072446357E+03  0.13529749341E+03  0.10000000000E+01 0.  0.
         21    1    1    2  502  501  0.27503682604E+02  0.69372000936E+01  0.86026230667E+02  0.90581949994E+02  0.00000000000E+00 0.  1.
<mgrwt>
<rscale>  1 0.12817688E+03</rscale>
<asrwt>0</asrwt>
<pdfrwt beam="1">  1        4 0.34195523E-01 0.12817688E+03</pdfrwt>
<pdfrwt beam="2">  1       -4 0.50672550E-02 0.12817688E+03</pdfrwt>
<totfact> 0.31256379E+03</totfact>
</mgrwt>
</event>
<event>
 6    4  0.1195577E-003  0.1404058E+03  0.7818608E-02  0.1212784E+00
          4   -1    0    0  502    0  0.00000000000E+00  0.00000000000E+00  0.62740232916E+02  0.62753085393E+02  0.12700000000E+01 0.  1.
         -4   -1    0    0    0  501 -0.00000000000E+00 -0.00000000000E+00 -0.32976034640E+03  0.32976279196E+03  0.12700000000E+01 0.  1.
         25    2    1    2    0    0  0.63485737797E+02  0.76831572995E+01 -0.29188804111E+03  0.32390185813E+03  0.12499726135E+03 0.  0.
    9000005    1    3    3    0    0  0.40144249147E+02  0.51999856169E+02 -0.25033761852E+03  0.25881551157E+03  0.10000000000E+01 0.  0.
    9000005    1    3    3    0    0  0.23341488650E+02 -0.44316698870E+02 -0.41550422594E+02  0.65086346563E+02  0.10000000000E+01 0.  0.
         21    1    1    2  502  501 -0.63485737797E+02 -0.76831572995E+01  0.24867927625E+02  0.68614019224E+02  0.00000000000E+00 0.  1.
<mgrwt>
<rscale>  1 0.14040579E+03</rscale>
<asrwt>0</asrwt>
<pdfrwt beam="1">  1        4 0.96535205E-02 0.14040579E+03</pdfrwt>
<pdfrwt beam="2">  1       -4 0.50733537E-01 0.14040579E+03</pdfrwt>
<totfact> 0.50645969E+02</totfact>
</mgrwt>
</event>
<event>
 6    4  0.1195577E-003  0.1331469E+03  0.7818608E-02  0.1222860E+00
         -4   -1    0    0    0  501 -0.00000000000E+00  0.00000000000E+00  0.10041656224E+03  0.10042459296E+03  0.12700000000E+01 0. -1.
          4   -1    0    0  502    0  0.00000000000E+00 -0.00000000000E+00 -0.13856039609E+03  0.13856621617E+03  0.12700000000E+01 0. -1.
         25    2    1    2    0    0  0.25949015428E+02 -0.37822943250E+02  0.47886629295E+02  0.14149636300E+03  0.12499666011E+03 0.  0.
    9000005    1    3    3    0    0  0.54551540914E+02 -0.58542467911E+02 -0.23720602159E+01  0.80060713429E+02  0.10000000000E+01 0.  0.
    9000005    1    3    3    0    0 -0.28602525486E+02  0.20719524661E+02  0.50258689511E+02  0.61435649567E+02  0.10000000000E+01 0.  0.
         21    1    1    2  502  501 -0.25949015428E+02  0.37822943250E+02 -0.86030463146E+02  0.97494446133E+02  0.00000000000E+00 0. -1.
<mgrwt>
<rscale>  1 0.13314688E+03</rscale>
<asrwt>0</asrwt>
<pdfrwt beam="2">  1        4 0.21318050E-01 0.13314688E+03</pdfrwt>
<pdfrwt beam="1">  1       -4 0.15449767E-01 0.13314688E+03</pdfrwt>
<totfact> 0.11805552E+03</totfact>
</mgrwt>
</event>
<event>
 6    4  0.1195577E-003  0.1278867E+03  0.7818608E-02  0.1230626E+00
          4   -1    0    0  502    0  0.00000000000E+00  0.00000000000E+00  0.46733827004E+02  0.46751080056E+02  0.12700000000E+01 0. -1.
         -4   -1    0    0    0  501 -0.00000000000E+00 -0.00000000000E+00 -0.15099193808E+03  0.15099727899E+03  0.12700000000E+01 0. -1.
         25    2    1    2    0    0  0.18148204474E+02 -0.20022747372E+02 -0.11161247076E+03  0.16974203219E+03  0.12499898450E+03 0.  0.
    9000005    1    3    3    0    0  0.71264871934E+02 -0.16536272830E+02 -0.51677345544E+02  0.89574987208E+02  0.10000000000E+01 0.  0.
    9000005    1    3    3    0    0 -0.53116667460E+02 -0.34864745414E+01 -0.59935125212E+02  0.80167044981E+02  0.10000000000E+01 0.  0.
         21    1    1    2  502  501 -0.18148204474E+02  0.20022747372E+02  0.73543596843E+01  0.28006326862E+02  0.00000000000E+00 0. -1.
<mgrwt>
<rscale>  1 0.12788672E+03</rscale>
<asrwt>0</asrwt>
<pdfrwt beam="1">  1        4 0.71915576E-02 0.12788672E+03</pdfrwt>
<pdfrwt beam="2">  1       -4 0.23231267E-01 0.12788672E+03</pdfrwt>
<totfact> 0.36492444E+03</totfact>
</mgrwt>
</event>
<event>
 6    4  0.1195577E-003  0.1273118E+03  0.7818608E-02  0.1231500E+00
          4   -1    0    0  502    0  0.00000000000E+00  0.00000000000E+00  0.15500877471E+03  0.15501397724E+03  0.12700000000E+01 0. -1.
         -4   -1    0    0    0  501 -0.00000000000E+00 -0.00000000000E+00 -0.37001440113E+02  0.37023228795E+02  0.12700000000E+01 0. -1.
         25    2    1    2    0    0  0.14555529937E+02  0.19281672837E+02  0.97759837518E+02  0.16051566582E+03  0.12499858712E+03 0.  0.
    9000005    1    3    3    0    0 -0.14309220370E+02  0.61344049889E+01  0.12048077489E+03  0.12148663231E+03  0.10000000000E+01 0.  0.
    9000005    1    3    3    0    0  0.28864750307E+02  0.13147267848E+02 -0.22720937367E+02  0.39029033514E+02  0.10000000000E+01 0.  0.
         21    1    1    2  502  501 -0.14555529937E+02 -0.19281672837E+02  0.20247497084E+02  0.31521540211E+02  0.00000000000E+00 0. -1.
<mgrwt>
<rscale>  1 0.12731179E+03</rscale>
<asrwt>0</asrwt>
<pdfrwt beam="1">  1        4 0.23849580E-01 0.12731179E+03</pdfrwt>
<pdfrwt beam="2">  1       -4 0.56946055E-02 0.12731179E+03</pdfrwt>
<totfact> 0.50820638E+03</totfact>
</mgrwt>
</event>
<event>
 6    4  0.1195577E-003  0.1303691E+03  0.7818608E-02  0.1226909E+00
         -4   -1    0    0    0  501 -0.00000000000E+00  0.00000000000E+00  0.66655660353E+01  0.67854749701E+01  0.12700000000E+01 0.  1.
          4   -1    0    0  502    0  0.00000000000E+00 -0.00000000000E+00 -0.12181876762E+04  0.12181883382E+04  0.12700000000E+01 0.  1.
         25    2    1    2    0    0 -0.34366882591E+02 -0.13800282280E+02 -0.69472249717E+03  0.70684895332E+03  0.12499825730E+03 0.  0.
    9000005    1    3    3    0    0 -0.80628822209E+02 -0.20500022944E+02 -0.47117054401E+03  0.47845996640E+03  0.10000000000E+01 0.  0.
    9000005    1    3    3    0    0  0.46261939617E+02  0.66997406632E+01 -0.22355195316E+03  0.22838898692E+03  0.10000000000E+01 0.  0.
         21    1    1    2  502  501  0.34366882591E+02  0.13800282280E+02 -0.51679961302E+03  0.51812485988E+03  0.00000000000E+00 0.  1.
<mgrwt>
<rscale>  1 0.13036907E+03</rscale>
<asrwt>0</asrwt>
<pdfrwt beam="2">  1        4 0.18742259E+00 0.13036907E+03</pdfrwt>
<pdfrwt beam="1">  1       -4 0.10347474E-02 0.13036907E+03</pdfrwt>
<totfact> 0.80791903E+02</totfact>
</mgrwt>
</event>
<event>
 6    4  0.1195577E-003  0.1289662E+03  0.7818608E-02  0.1228998E+00
         -4   -1    0    0    0  501 -0.00000000000E+00  0.00000000000E+00  0.12920712885E+02  0.12982978142E+02  0.12700000000E+01 0. -1.
          4   -1    0    0  502    0  0.00000000000E+00 -0.00000000000E+00 -0.75622060442E+03  0.75622167084E+03  0.12700000000E+01 0. -1.
         25    2    1    2    0    0  0.10283585922E+02 -0.29991645103E+02 -0.32423588366E+03  0.34894295240E+03  0.12500809919E+03 0.  0.
    9000005    1    3    3    0    0  0.64818821192E+02  0.26007335628E+01 -0.17984929149E+03  0.19119364802E+03  0.10000000000E+01 0.  0.
    9000005    1    3    3    0    0 -0.54535235271E+02 -0.32592378666E+02 -0.14438659217E+03  0.15774930438E+03  0.10000000000E+01 0.  0.
         21    1    1    2  502  501 -0.10283585922E+02  0.29991645103E+02 -0.41906400788E+03  0.42026169658E+03  0.00000000000E+00 0. -1.
<mgrwt>
<rscale>  1 0.12896618E+03</rscale>
<asrwt>0</asrwt>
<pdfrwt beam="2">  1        4 0.11634647E+00 0.12896618E+03</pdfrwt>
<pdfrwt beam="1">  1       -4 0.19926742E-02 0.12896618E+03</pdfrwt>
<totfact> 0.10017645E+03</totfact>
</mgrwt>
</event>
<event>
 6    4  0.1195577E-003  0.3092843E+03  0.7818608E-02  0.1080689E+00
         -4   -1    0    0    0  501 -0.00000000000E+00  0.00000000000E+00  0.51568573565E+03  0.51568729949E+03  0.12700000000E+01 0.  1.
          4   -1    0    0  502    0  0.00000000000E+00 -0.00000000000E+00 -0.21660999626E+03  0.21661371928E+03  0.12700000000E+01 0.  1.
         25    2    1    2    0    0  0.20803010205E+03  0.19171491669E+03  0.32447640341E+03  0.44826523515E+03  0.12500260813E+03 0.  0.
    9000005    1    3    3    0    0  0.39177700853E+02  0.99378035116E+01  0.79844935592E+00  0.40438715411E+02  0.10000000000E+01 0.  0.
    9000005    1    3    3    0    0  0.16885240119E+03  0.18177711318E+03  0.32367795406E+03  0.40782651974E+03  0.10000000000E+01 0.  0.
         21    1    1    2  502  501 -0.20803010205E+03 -0.19171491669E+03 -0.25400664024E+02  0.28403578361E+03  0.00000000000E+00 0.  1.
<mgrwt>
<rscale>  1 0.30928431E+03</rscale>
<asrwt>0</asrwt>
<pdfrwt beam="2">  1        4 0.33325021E-01 0.30928431E+03</pdfrwt>
<pdfrwt beam="1">  1       -4 0.79336674E-01 0.30928431E+03</pdfrwt>
<totfact> 0.23270247E+01</totfact>
</mgrwt>
</event>
<event>
 6    4  0.1195577E-003  0.1352415E+03  0.7818608E-02  0.1219879E+00
          4   -1    0    0  502    0  0.00000000000E+00  0.00000000000E+00  0.22299263412E+03  0.22299625058E+03  0.12700000000E+01 0.  1.
         -4   -1    0    0    0  501 -0.00000000000E+00 -0.00000000000E+00 -0.87607762724E+02  0.87616967475E+02  0.12700000000E+01 0.  1.
         25    2    1    2    0    0 -0.65724463903E+01  0.51211330501E+02 -0.28995548446E+02  0.13831487259E+03  0.12499785889E+03 0.  0.
    9000005    1    3    3    0    0 -0.60010356421E+01  0.90833466505E+02 -0.33407432674E+01  0.91098252627E+02  0.10000000000E+01 0.  0.
    9000005    1    3    3    0    0 -0.57141074814E+00 -0.39622136004E+02 -0.25654805178E+02  0.47216619961E+02  0.10000000000E+01 0.  0.
         21    1    1    2  502  501  0.65724463903E+01 -0.51211330501E+02  0.16438041985E+03  0.17229834547E+03  0.00000000000E+00 0.  1.
<mgrwt>
<rscale>  1 0.13524150E+03</rscale>
<asrwt>0</asrwt>
<pdfrwt beam="1">  1        4 0.34307545E-01 0.13524150E+03</pdfrwt>
<pdfrwt beam="2">  1       -4 0.13479104E-01 0.13524150E+03</pdfrwt>
<totfact> 0.61813263E+02</totfact>
</mgrwt>
</event>
<event>
 6    4  0.1195577E-003  0.1338228E+03  0.7818608E-02  0.1221891E+00
          4   -1    0    0  502    0  0.00000000000E+00  0.00000000000E+00  0.10201823128E+03  0.10202613594E+03  0.12700000000E+01 0.  1.
         -4   -1    0    0    0  501 -0.00000000000E+00 -0.00000000000E+00 -0.83553302132E+02  0.83562953497E+02  0.12700000000E+01 0.  1.
         25    2    1    2    0    0  0.21866347314E+02  0.42491692864E+02 -0.14169368161E+01  0.13383032494E+03  0.12499946822E+03 0.  0.
    9000005    1    3    3    0    0  0.24122876073E+02 -0.42350796225E+02  0.29599306678E+01  0.48839167484E+02  0.10000000000E+01 0.  0.
    9000005    1    3    3    0    0 -0.22565287588E+01  0.84842489090E+02 -0.43768674839E+01  0.84991157457E+02  0.10000000000E+01 0.  0.
         21    1    1    2  502  501 -0.21866347314E+02 -0.42491692864E+02  0.19881865966E+02  0.51758764491E+02  0.00000000000E+00 0.  1.
<mgrwt>
<rscale>  1 0.13382282E+03</rscale>
<asrwt>0</asrwt>
<pdfrwt beam="1">  1        4 0.15696463E-01 0.13382282E+03</pdfrwt>
<pdfrwt beam="2">  1       -4 0.12855705E-01 0.13382282E+03</pdfrwt>
<totfact> 0.28047969E+03</totfact>
</mgrwt>
</event>
<event>
 6    4  0.1195577E-003  0.1291595E+03  0.7818608E-02  0.1228708E+00
         -4   -1    0    0    0  501 -0.00000000000E+00  0.00000000000E+00  0.33197868778E+03  0.33198111699E+03  0.12700000000E+01 0. -1.
          4   -1    0    0  502    0  0.00000000000E+00 -0.00000000000E+00 -0.21569073140E+02  0.21606429971E+02  0.12700000000E+01 0. -1.
         25    2    1    2    0    0 -0.72382040201E+01 -0.31718771506E+02  0.19669720208E+03  0.23531250804E+03  0.12499486017E+03 0.  0.
    9000005    1    3    3    0    0 -0.17799675595E+02  0.26451157341E+02  0.16532858077E+03  0.16837764637E+03  0.10000000000E+01 0.  0.
    9000005    1    3    3    0    0  0.10561471575E+02 -0.58169928847E+02  0.31368621308E+02  0.66934861669E+02  0.10000000000E+01 0.  0.
         21    1    1    2  502  501  0.72382040201E+01  0.31718771506E+02  0.11371241256E+03  0.11827503893E+03  0.00000000000E+00 0. -1.
<mgrwt>
<rscale>  1 0.12915954E+03</rscale>
<asrwt>0</asrwt>
<pdfrwt beam="2">  1        4 0.33213795E-02 0.12915954E+03</pdfrwt>
<pdfrwt beam="1">  1       -4 0.51076704E-01 0.12915954E+03</pdfrwt>
<totfact> 0.27688335E+03</totfact>
</mgrwt>
</event>
<event>
 6    4  0.1195577E-003  0.1297854E+03  0.7818608E-02  0.1227775E+00
         -4   -1    0    0    0  501 -0.00000000000E+00  0.00000000000E+00  0.48830782681E+02  0.48847295086E+02  0.12700000000E+01 0. -1.
          4   -1    0    0  502    0  0.00000000000E+00 -0.00000000000E+00 -0.14912879181E+03  0.14913419946E+03  0.12700000000E+01 0. -1.
         25    2    1    2    0    0 -0.30190133448E+02  0.17551352271E+02 -0.98649459214E+02  0.16302134808E+03  0.12499900000E+03 0.  0.
    9000005    1    3    3    0    0  0.39643860337E+02 -0.22746778346E+02 -0.54348214132E+02  0.71019574533E+02  0.10000000000E+01 0.  0.
    9000005    1    3    3    0    0 -0.69833993785E+02  0.40298130617E+02 -0.44301245081E+02  0.92001773542E+02  0.10000000000E+01 0.  0.
         21    1    1    2  502  501  0.30190133448E+02 -0.17551352271E+02 -0.16485499178E+01  0.34960146466E+02  0.00000000000E+00 0. -1.
<mgrwt>
<rscale>  1 0.12978538E+03</rscale>
<asrwt>0</asrwt>
<pdfrwt beam="2">  1        4 0.22944577E-01 0.12978538E+03</pdfrwt>
<pdfrwt beam="1">  1       -4 0.75141143E-02 0.12978538E+03</pdfrwt>
<totfact> 0.34855521E+03</totfact>
</mgrwt>
</event>
<event>
 6    4  0.1195577E-003  0.1304380E+03  0.7818608E-02  0.1226807E+00
          4   -1    0    0  502    0  0.00000000000E+00  0.00000000000E+00  0.10314680747E+03  0.10315462564E+03  0.12700000000E+01 0.  1.
         -4   -1    0    0    0  501 -0.00000000000E+00 -0.00000000000E+00 -0.79102142544E+02  0.79112336934E+02  0.12700000000E+01 0.  1.
         25    2    1    2    0    0 -0.26050169121E+02  0.26746300014E+02 -0.11207060853E+02  0.13091854443E+03  0.12498036321E+03 0.  0.
    9000005    1    3    3    0    0 -0.62710095190E+02  0.51982569388E+02  0.91403268432E+01  0.81971270172E+02  0.10000000000E+01 0.  0.
    9000005    1    3    3    0    0  0.36659926069E+02 -0.25236269373E+02 -0.20347387696E+02  0.48947274259E+02  0.10000000000E+01 0.  0.
         21    1    1    2  502  501  0.26050169121E+02 -0.26746300014E+02  0.35251725781E+02  0.51348418147E+02  0.00000000000E+00 0.  1.
<mgrwt>
<rscale>  1 0.13043798E+03</rscale>
<asrwt>0</asrwt>
<pdfrwt beam="1">  1        4 0.15870125E-01 0.13043798E+03</pdfrwt>
<pdfrwt beam="2">  1       -4 0.12170946E-01 0.13043798E+03</pdfrwt>
<totfact> 0.30038870E+03</totfact>
</mgrwt>
</event>
<event>
 6    4  0.1195577E-003  0.1268903E+03  0.7818608E-02  0.1232144E+00
         -4   -1    0    0    0  501 -0.00000000000E+00  0.00000000000E+00  0.16086125842E+03  0.16086627167E+03  0.12700000000E+01 0. -1.
          4   -1    0    0  502    0  0.00000000000E+00 -0.00000000000E+00 -0.34698735500E+02  0.34721969203E+02  0.12700000000E+01 0. -1.
         25    2    1    2    0    0  0.21875130713E+02 -0.21604302336E+00  0.10051169045E+03  0.16187573244E+03  0.12499033890E+03 0.  0.
    9000005    1    3    3    0    0 -0.59700448552E+01  0.22639742353E+02  0.11906001596E+03  0.12134449625E+03  0.10000000000E+01 0.  0.
    9000005    1    3    3    0    0  0.27845175568E+02 -0.22855785376E+02 -0.18548325514E+02  0.40531236188E+02  0.10000000000E+01 0.  0.
         21    1    1    2  502  501 -0.21875130713E+02  0.21604302336E+00  0.25650832470E+02  0.33712508431E+02  0.00000000000E+00 0.  1.
<mgrwt>
<rscale>  1 0.12689032E+03</rscale>
<asrwt>0</asrwt>
<pdfrwt beam="2">  1        4 0.53404399E-02 0.12689032E+03</pdfrwt>
<pdfrwt beam="1">  1       -4 0.24750058E-01 0.12689032E+03</pdfrwt>
<totfact> 0.52617464E+03</totfact>
</mgrwt>
</event>
<event>
 6    4  0.1195577E-003  0.1299368E+03  0.7818608E-02  0.1227550E+00
         -4   -1    0    0    0  501 -0.00000000000E+00  0.00000000000E+00  0.10817719072E+03  0.10818464536E+03  0.12700000000E+01 0.  1.
          4   -1    0    0  502    0  0.00000000000E+00 -0.00000000000E+00 -0.77552813320E+02  0.77563211343E+02  0.12700000000E+01 0.  1.
         25    2    1    2    0    0 -0.81095876233E+00  0.35502829727E+02 -0.11742350696E+02  0.13046632071E+03  0.12498987745E+03 0.  0.
    9000005    1    3    3    0    0 -0.34997928578E+02  0.41009005908E+02 -0.53669698101E+02  0.76079103994E+02  0.10000000000E+01 0.  0.
    9000005    1    3    3    0    0  0.34186969815E+02 -0.55061761814E+01  0.41927347405E+02  0.54387216712E+02  0.10000000000E+01 0.  0.
         21    1    1    2  502  501  0.81095876233E+00 -0.35502829727E+02  0.42366728097E+02  0.55281535998E+02  0.00000000000E+00 0.  1.
<mgrwt>
<rscale>  1 0.12993682E+03</rscale>
<asrwt>0</asrwt>
<pdfrwt beam="2">  1        4 0.11932575E-01 0.12993682E+03</pdfrwt>
<pdfrwt beam="1">  1       -4 0.16644018E-01 0.12993682E+03</pdfrwt>
<totfact> 0.28550320E+03</totfact>
</mgrwt>
</event>
<event>
 6    4  0.1195577E-003  0.1271011E+03  0.7818608E-02  0.1231822E+00
         -4   -1    0    0    0  501 -0.00000000000E+00  0.00000000000E+00  0.15559497309E+02  0.15611241351E+02  0.12700000000E+01 0.  1.
          4   -1    0    0  502    0  0.00000000000E+00 -0.00000000000E+00 -0.48396786448E+03  0.48396953080E+03  0.12700000000E+01 0.  1.
         25    2    1    2    0    0 -0.21181109824E+02 -0.91825471571E+01 -0.25493071736E+03  0.28485847347E+03  0.12498688198E+03 0.  0.
    9000005    1    3    3    0    0 -0.34581375868E+02  0.39121429694E+02 -0.21356841797E+03  0.21986092644E+03  0.10000000000E+01 0.  0.
    9000005    1    3    3    0    0  0.13400266043E+02 -0.48303976851E+02 -0.41362299390E+02  0.64997547034E+02  0.10000000000E+01 0.  0.
         21    1    1    2  502  501  0.21181109824E+02  0.91825471571E+01 -0.21347764981E+03  0.21472229869E+03  0.00000000000E+00 0. -1.
<mgrwt>
<rscale>  1 0.12710106E+03</rscale>
<asrwt>0</asrwt>
<pdfrwt beam="2">  1        4 0.74460691E-01 0.12710106E+03</pdfrwt>
<pdfrwt beam="1">  1       -4 0.23978777E-02 0.12710106E+03</pdfrwt>
<totfact> 0.20716506E+03</totfact>
</mgrwt>
</event>
<event>
 6    4  0.1195577E-003  0.1281108E+03  0.7818608E-02  0.1230286E+00
         -4   -1    0    0    0  501 -0.00000000000E+00  0.00000000000E+00  0.23059074896E+04  0.23059078393E+04  0.12700000000E+01 0.  1.
          4   -1    0    0  502    0  0.00000000000E+00 -0.00000000000E+00 -0.27393963676E+01  0.30194689034E+01  0.12700000000E+01 0.  1.
         25    2    1    2    0    0 -0.17681025294E+02 -0.21780352352E+02  0.20897675612E+04  0.20936907187E+04  0.12500145325E+03 0.  0.
    9000005    1    3    3    0    0  0.28365329821E+02 -0.38294979821E+02  0.17247399195E+04  0.17253984721E+04  0.10000000000E+01 0.  0.
    9000005    1    3    3    0    0 -0.46046355115E+02  0.16514627470E+02  0.36502764164E+03  0.36829224659E+03  0.10000000000E+01 0.  0.
         21    1    1    2  502  501  0.17681025294E+02  0.21780352352E+02  0.21340053203E+03  0.21523658953E+03  0.00000000000E+00 0.  1.
<mgrwt>
<rscale>  1 0.12811076E+03</rscale>
<asrwt>0</asrwt>
<pdfrwt beam="2">  1        4 0.44301706E-03 0.12811076E+03</pdfrwt>
<pdfrwt beam="1">  1       -4 0.35477615E+00 0.12811076E+03</pdfrwt>
<totfact> 0.29350822E+02</totfact>
</mgrwt>
</event>
<event>
 6    4  0.1195577E-003  0.1296741E+03  0.7818608E-02  0.1227940E+00
          4   -1    0    0  502    0  0.00000000000E+00  0.00000000000E+00  0.49487310238E+03  0.49487473199E+03  0.12700000000E+01 0. -1.
         -4   -1    0    0    0  501 -0.00000000000E+00 -0.00000000000E+00 -0.18134852519E+02  0.18179267749E+02  0.12700000000E+01 0. -1.
         25    2    1    2    0    0 -0.15230380079E+02  0.30912342556E+02  0.23097448075E+03  0.26488597680E+03  0.12501132968E+03 0.  0.
    9000005    1    3    3    0    0 -0.51302542855E+02  0.55173082791E+02  0.19288731200E+03  0.20708098681E+03  0.10000000000E+01 0.  0.
    9000005    1    3    3    0    0  0.36072162776E+02 -0.24260740235E+02  0.38087168741E+02  0.57804989981E+02  0.10000000000E+01 0.  0.
         21    1    1    2  502  501  0.15230380079E+02 -0.30912342556E+02  0.24576376912E+03  0.24816802294E+03  0.00000000000E+00 0. -1.
<mgrwt>
<rscale>  1 0.12967409E+03</rscale>
<asrwt>0</asrwt>
<pdfrwt beam="1">  1        4 0.76137868E-01 0.12967409E+03</pdfrwt>
<pdfrwt beam="2">  1       -4 0.27935191E-02 0.12967409E+03</pdfrwt>
<totfact> 0.15634442E+03</totfact>
</mgrwt>
</event>
<event>
 6    4  0.1195577E-003  0.1536622E+03  0.7818608E-02  0.1196044E+00
         -4   -1    0    0    0  501 -0.00000000000E+00  0.00000000000E+00  0.50640742839E+02  0.50656665260E+02  0.12700000000E+01 0. -1.
          4   -1    0    0  502    0  0.00000000000E+00 -0.00000000000E+00 -0.37668742194E+03  0.37668956283E+03  0.12700000000E+01 0. -1.
         25    2    1    2    0    0 -0.50921093556E+02  0.73434810665E+02 -0.97586511369E+02  0.18203076297E+03  0.12500576899E+03 0.  0.
    9000005    1    3    3    0    0 -0.19999861312E+02 -0.31693044808E+02 -0.36001631937E+01  0.37661714203E+02  0.10000000000E+01 0.  0.
    9000005    1    3    3    0    0 -0.30921232244E+02  0.10512785547E+03 -0.93986348176E+02  0.14436904877E+03  0.10000000000E+01 0.  0.
         21    1    1    2  502  501  0.50921093556E+02 -0.73434810665E+02 -0.22846016773E+03  0.24531546512E+03  0.00000000000E+00 0. -1.
<mgrwt>
<rscale>  1 0.15366220E+03</rscale>
<asrwt>0</asrwt>
<pdfrwt beam="2">  1        4 0.57953299E-01 0.15366220E+03</pdfrwt>
<pdfrwt beam="1">  1       -4 0.77922733E-02 0.15366220E+03</pdfrwt>
<totfact> 0.55950828E+02</totfact>
</mgrwt>
</event>
<event>
 6    4  0.1195577E-003  0.1274291E+03  0.7818608E-02  0.1231321E+00
          4   -1    0    0  502    0  0.00000000000E+00  0.00000000000E+00  0.47719249573E+02  0.47736146470E+02  0.12700000000E+01 0. -1.
         -4   -1    0    0    0  501 -0.00000000000E+00 -0.00000000000E+00 -0.12129204708E+03  0.12129869572E+03  0.12700000000E+01 0. -1.
         25    2    1    2    0    0  0.92417761058E+01 -0.22949322975E+02 -0.60756507035E+02  0.14117197888E+03  0.12500437042E+03 0.  0.
    9000005    1    3    3    0    0  0.46195645407E+02  0.40768085570E+00 -0.80791751981E+02  0.93072611688E+02  0.10000000000E+01 0.  0.
    9000005    1    3    3    0    0 -0.36953869301E+02 -0.23357003830E+02  0.20035244946E+02  0.48099367192E+02  0.10000000000E+01 0.  0.
         21    1    1    2  502  501 -0.92417761058E+01  0.22949322975E+02 -0.12816290466E+02  0.27862863311E+02  0.00000000000E+00 0.  1.
<mgrwt>
<rscale>  1 0.12742910E+03</rscale>
<asrwt>0</asrwt>
<pdfrwt beam="1">  1        4 0.73432343E-02 0.12742910E+03</pdfrwt>
<pdfrwt beam="2">  1       -4 0.18662126E-01 0.12742910E+03</pdfrwt>
<totfact> 0.52310872E+03</totfact>
</mgrwt>
</event>
<event>
 6    4  0.1195577E-003  0.1279537E+03  0.7818608E-02  0.1230524E+00
          4   -1    0    0  502    0  0.00000000000E+00  0.00000000000E+00  0.31159843102E+03  0.31160101911E+03  0.12700000000E+01 0. -1.
         -4   -1    0    0    0  501 -0.00000000000E+00 -0.00000000000E+00 -0.23524166306E+02  0.23558423130E+02  0.12700000000E+01 0. -1.
         25    2    1    2    0    0  0.15422194142E+02 -0.22566423847E+02  0.16346911656E+03  0.20759169356E+03  0.12500028644E+03 0.  0.
    9000005    1    3    3    0    0  0.49640790499E+02  0.17021355381E+02  0.14133639226E+03  0.15076773659E+03  0.10000000000E+01 0.  0.
    9000005    1    3    3    0    0 -0.34218596357E+02 -0.39587779228E+02  0.22132724301E+02  0.56823956971E+02  0.10000000000E+01 0.  0.
         21    1    1    2  502  501 -0.15422194142E+02  0.22566423847E+02  0.12460514815E+03  0.12756774868E+03  0.00000000000E+00 0.  1.
<mgrwt>
<rscale>  1 0.12795374E+03</rscale>
<asrwt>0</asrwt>
<pdfrwt beam="1">  1        4 0.47941053E-01 0.12795374E+03</pdfrwt>
<pdfrwt beam="2">  1       -4 0.36219368E-02 0.12795374E+03</pdfrwt>
<totfact> 0.27412415E+03</totfact>
</mgrwt>
</event>
<event>
 6    4  0.1195577E-003  0.1370484E+03  0.7818608E-02  0.1217357E+00
          4   -1    0    0  502    0  0.00000000000E+00  0.00000000000E+00  0.12180796485E+04  0.12180803106E+04  0.12700000000E+01 0. -1.
         -4   -1    0    0    0  501 -0.00000000000E+00 -0.00000000000E+00 -0.15797709195E+02  0.15848675522E+02  0.12700000000E+01 0. -1.
         25    2    1    2    0    0  0.10307578538E+00 -0.56194564676E+02  0.29912921471E+03  0.32902971895E+03  0.12499771652E+03 0.  0.
    9000005    1    3    3    0    0 -0.41297156054E+02  0.18202196073E+02  0.15687105257E+03  0.16323695101E+03  0.10000000000E+01 0.  0.
    9000005    1    3    3    0    0  0.41400231839E+02 -0.74396760749E+02  0.14225816214E+03  0.16579276794E+03  0.10000000000E+01 0.  0.
         21    1    1    2  502  501 -0.10307578538E+00  0.56194564676E+02  0.90315272459E+03  0.90489926714E+03  0.00000000000E+00 0. -1.
<mgrwt>
<rscale>  1 0.13704842E+03</rscale>
<asrwt>0</asrwt>
<pdfrwt beam="1">  1        4 0.18740093E+00 0.13704842E+03</pdfrwt>
<pdfrwt beam="2">  1       -4 0.24343870E-02 0.13704842E+03</pdfrwt>
<totfact> 0.22060032E+02</totfact>
</mgrwt>
</event>
<event>
 6    4  0.1195577E-003  0.1278255E+03  0.7818608E-02  0.1230718E+00
          4   -1    0    0  502    0  0.00000000000E+00  0.00000000000E+00  0.16606846887E+03  0.16607332492E+03  0.12700000000E+01 0.  1.
         -4   -1    0    0    0  501 -0.00000000000E+00 -0.00000000000E+00 -0.40327233877E+02  0.40347226574E+02  0.12700000000E+01 0.  1.
         25    2    1    2    0    0  0.50761660195E+01 -0.26253753076E+02  0.72782932339E+02  0.14709426026E+03  0.12499735658E+03 0.  0.
    9000005    1    3    3    0    0 -0.17550581805E+02  0.45256209967E+02  0.47539465165E+02  0.67949600517E+02  0.10000000000E+01 0.  0.
    9000005    1    3    3    0    0  0.22626747825E+02 -0.71509963043E+02  0.25243467174E+02  0.79144659747E+02  0.10000000000E+01 0.  0.
         21    1    1    2  502  501 -0.50761660195E+01  0.26253753076E+02  0.52958302649E+02  0.59326291233E+02  0.00000000000E+00 0.  1.
<mgrwt>
<rscale>  1 0.12782553E+03</rscale>
<asrwt>0</asrwt>
<pdfrwt beam="1">  1        4 0.25550907E-01 0.12782553E+03</pdfrwt>
<pdfrwt beam="2">  1       -4 0.62061012E-02 0.12782553E+03</pdfrwt>
<totfact> 0.38975722E+03</totfact>
</mgrwt>
</event>
<event>
 6    4  0.1195577E-003  0.1308345E+03  0.7818608E-02  0.1226223E+00
          4   -1    0    0  502    0  0.00000000000E+00  0.00000000000E+00  0.13147797411E+03  0.13148410770E+03  0.12700000000E+01 0. -1.
         -4   -1    0    0    0  501 -0.00000000000E+00 -0.00000000000E+00 -0.57836528635E+02  0.57850470564E+02  0.12700000000E+01 0. -1.
         25    2    1    2    0    0  0.16985483073E+02 -0.34696063050E+02  0.36701397082E+02  0.13588468956E+03  0.12500133153E+03 0.  0.
    9000005    1    3    3    0    0 -0.32822448824E+02  0.31405077949E+02  0.24133449975E+00  0.45438423279E+02  0.10000000000E+01 0.  0.
    9000005    1    3    3    0    0  0.49807931897E+02 -0.66101140998E+02  0.36460062582E+02  0.90446266283E+02  0.10000000000E+01 0.  0.
         21    1    1    2  502  501 -0.16985483073E+02  0.34696063050E+02  0.36940048397E+02  0.53449888699E+02  0.00000000000E+00 0. -1.
<mgrwt>
<rscale>  1 0.13083446E+03</rscale>
<asrwt>0</asrwt>
<pdfrwt beam="1">  1        4 0.20228925E-01 0.13083446E+03</pdfrwt>
<pdfrwt beam="2">  1       -4 0.88994719E-02 0.13083446E+03</pdfrwt>
<totfact> 0.33147861E+03</totfact>
</mgrwt>
</event>
<event>
 6    4  0.1195577E-003  0.1436895E+03  0.7818608E-02  0.1208449E+00
         -4   -1    0    0    0  501 -0.00000000000E+00  0.00000000000E+00  0.66065652295E+02  0.66077857964E+02  0.12700000000E+01 0.  1.
          4   -1    0    0  502    0  0.00000000000E+00 -0.00000000000E+00 -0.18724391057E+03  0.18724821746E+03  0.12700000000E+01 0.  1.
         25    2    1    2    0    0 -0.11799373503E+02  0.69876548821E+02 -0.48090554385E+02  0.15152347355E+03  0.12499881730E+03 0.  0.
    9000005    1    3    3    0    0  0.27931358538E+02 -0.17938989336E+02  0.14874775747E+02  0.36389931048E+02  0.10000000000E+01 0.  0.
    9000005    1    3    3    0    0 -0.39730732041E+02  0.87815538157E+02 -0.62965330132E+02  0.11513354250E+03  0.10000000000E+01 0.  0.
         21    1    1    2  502  501  0.11799373503E+02 -0.69876548821E+02 -0.73087703885E+02  0.10180260188E+03  0.00000000000E+00 0.  1.
<mgrwt>
<rscale>  1 0.14368946E+03</rscale>
<asrwt>0</asrwt>
<pdfrwt beam="2">  1        4 0.28808026E-01 0.14368946E+03</pdfrwt>
<pdfrwt beam="1">  1       -4 0.10165217E-01 0.14368946E+03</pdfrwt>
<totfact> 0.14130048E+03</totfact>
</mgrwt>
</event>
<event>
 6    4  0.1195577E-003  0.1296872E+03  0.7818608E-02  0.1227921E+00
          4   -1    0    0  502    0  0.00000000000E+00  0.00000000000E+00  0.31883878561E+02  0.31909161883E+02  0.12700000000E+01 0.  1.
         -4   -1    0    0    0  501 -0.00000000000E+00 -0.00000000000E+00 -0.27034685635E+03  0.27034983935E+03  0.12700000000E+01 0.  1.
         25    2    1    2    0    0 -0.18236253820E+02  0.29358860993E+02 -0.23383317288E+03  0.26738868770E+03  0.12499701558E+03 0.  0.
    9000005    1    3    3    0    0  0.15106504011E+02 -0.36506560908E+02 -0.15252240217E+03  0.15755957165E+03  0.10000000000E+01 0.  0.
    9000005    1    3    3    0    0 -0.33342757830E+02  0.65865421901E+02 -0.81310770702E+02  0.10982911606E+03  0.10000000000E+01 0.  0.
         21    1    1    2  502  501  0.18236253820E+02 -0.29358860993E+02 -0.46298049115E+01  0.34870313530E+02  0.00000000000E+00 0.  1.
<mgrwt>
<rscale>  1 0.12968715E+03</rscale>
<asrwt>0</asrwt>
<pdfrwt beam="1">  1        4 0.49073866E-02 0.12968715E+03</pdfrwt>
<pdfrwt beam="2">  1       -4 0.41593997E-01 0.12968715E+03</pdfrwt>
<totfact> 0.22528518E+03</totfact>
</mgrwt>
</event>
<event>
 6    4  0.1195577E-003  0.1433073E+03  0.7818608E-02  0.1208947E+00
          4   -1    0    0  502    0  0.00000000000E+00  0.00000000000E+00  0.59570222297E+02  0.59583758563E+02  0.12700000000E+01 0.  1.
         -4   -1    0    0    0  501 -0.00000000000E+00 -0.00000000000E+00 -0.33557408234E+03  0.33557648552E+03  0.12700000000E+01 0.  1.
         25    2    1    2    0    0  0.66145316240E+02  0.23180773250E+02 -0.29019242173E+03  0.32364894154E+03  0.12499777848E+03 0.  0.
    9000005    1    3    3    0    0  0.10195032065E+03  0.21591891780E+02 -0.18269199072E+03  0.21032698624E+03  0.10000000000E+01 0.  0.
    9000005    1    3    3    0    0 -0.35805004407E+02  0.15888814709E+01 -0.10750043101E+03  0.11332195530E+03  0.10000000000E+01 0.  0.
         21    1    1    2  502  501 -0.66145316240E+02 -0.23180773250E+02  0.14188561687E+02  0.71511302545E+02  0.00000000000E+00 0.  1.
<mgrwt>
<rscale>  1 0.14330735E+03</rscale>
<asrwt>0</asrwt>
<pdfrwt beam="1">  1        4 0.91658759E-02 0.14330735E+03</pdfrwt>
<pdfrwt beam="2">  1       -4 0.51628007E-01 0.14330735E+03</pdfrwt>
<totfact> 0.53517023E+02</totfact>
</mgrwt>
</event>
<event>
 6    4  0.1195577E-003  0.1360600E+03  0.7818608E-02  0.1218731E+00
          4   -1    0    0  502    0  0.00000000000E+00  0.00000000000E+00  0.14445969115E+03  0.14446527357E+03  0.12700000000E+01 0.  1.
         -4   -1    0    0    0  501 -0.00000000000E+00 -0.00000000000E+00 -0.13762158005E+03  0.13762743984E+03  0.12700000000E+01 0.  1.
         25    2    1    2    0    0 -0.44245063131E+02  0.30515434938E+02 -0.95683875543E+02  0.16633617957E+03  0.12499401272E+03 0.  0.
    9000005    1    3    3    0    0  0.26031544722E+02  0.48347153956E+02 -0.70953284599E+02  0.89724340129E+02  0.10000000000E+01 0.  0.
    9000005    1    3    3    0    0 -0.70276607853E+02 -0.17831719018E+02 -0.24730590944E+02  0.76611839444E+02  0.10000000000E+01 0.  0.
         21    1    1    2  502  501  0.44245063131E+02 -0.30515434938E+02  0.10252198664E+03  0.11575653384E+03  0.00000000000E+00 0.  1.
<mgrwt>
<rscale>  1 0.13605999E+03</rscale>
<asrwt>0</asrwt>
<pdfrwt beam="1">  1        4 0.22225448E-01 0.13605999E+03</pdfrwt>
<pdfrwt beam="2">  1       -4 0.21173431E-01 0.13605999E+03</pdfrwt>
<totfact> 0.62742197E+02</totfact>
</mgrwt>
</event>
<event>
 6    4  0.1195577E-003  0.1277794E+03  0.7818608E-02  0.1230788E+00
          4   -1    0    0  502    0  0.00000000000E+00  0.00000000000E+00  0.11986862253E+03  0.11987535012E+03  0.12700000000E+01 0. -1.
         -4   -1    0    0    0  501 -0.00000000000E+00 -0.00000000000E+00 -0.55704549448E+02  0.55719024841E+02  0.12700000000E+01 0. -1.
         25    2    1    2    0    0  0.48780241532E+01 -0.26059817830E+02  0.28098334043E+02  0.13083226200E+03  0.12499862070E+03 0.  0.
    9000005    1    3    3    0    0  0.17142484674E+02 -0.45732753108E+02 -0.37285020293E+02  0.61453415087E+02  0.10000000000E+01 0.  0.
    9000005    1    3    3    0    0 -0.12264460520E+02  0.19672935277E+02  0.65383354335E+02  0.69378846909E+02  0.10000000000E+01 0.  0.
         21    1    1    2  502  501 -0.48780241532E+01  0.26059817830E+02  0.36065739038E+02  0.44762112968E+02  0.00000000000E+00 0. -1.
<mgrwt>
<rscale>  1 0.12777936E+03</rscale>
<asrwt>0</asrwt>
<pdfrwt beam="1">  1        4 0.18442957E-01 0.12777936E+03</pdfrwt>
<pdfrwt beam="2">  1       -4 0.85715618E-02 0.12777936E+03</pdfrwt>
<totfact> 0.41395966E+03</totfact>
</mgrwt>
</event>
<event>
 6    4  0.1195577E-003  0.1272626E+03  0.7818608E-02  0.1231575E+00
          4   -1    0    0  502    0  0.00000000000E+00  0.00000000000E+00  0.17381821763E+02  0.17428156179E+02  0.12700000000E+01 0. -1.
         -4   -1    0    0    0  501 -0.00000000000E+00 -0.00000000000E+00 -0.37376169640E+03  0.37376385405E+03  0.12700000000E+01 0. -1.
         25    2    1    2    0    0 -0.53509647518E+00 -0.23903724773E+02 -0.33759557724E+03  0.36078602044E+03  0.12499641751E+03 0.  0.
    9000005    1    3    3    0    0  0.19947314602E+02  0.46701858241E+02 -0.17731668949E+03  0.18444827810E+03  0.10000000000E+01 0.  0.
    9000005    1    3    3    0    0 -0.20482411077E+02 -0.70605583014E+02 -0.16027888775E+03  0.17633774235E+03  0.10000000000E+01 0.  0.
         21    1    1    2  502  501  0.53509647518E+00  0.23903724773E+02 -0.18784297397E+02  0.30405989787E+02  0.00000000000E+00 0. -1.
<mgrwt>
<rscale>  1 0.12726264E+03</rscale>
<asrwt>0</asrwt>
<pdfrwt beam="1">  1        4 0.26778569E-02 0.12726264E+03</pdfrwt>
<pdfrwt beam="2">  1       -4 0.57505524E-01 0.12726264E+03</pdfrwt>
<totfact> 0.30263213E+03</totfact>
</mgrwt>
</event>
<event>
 6    4  0.1195577E-003  0.1392898E+03  0.7818608E-02  0.1214288E+00
         -4   -1    0    0    0  501 -0.00000000000E+00  0.00000000000E+00  0.16783442769E+03  0.16783923265E+03  0.12700000000E+01 0.  1.
          4   -1    0    0  502    0  0.00000000000E+00 -0.00000000000E+00 -0.61423726926E+02  0.61436854815E+02  0.12700000000E+01 0.  1.
         25    2    1    2    0    0 -0.84656666342E+01  0.60873448163E+02  0.89380766531E+02  0.16550099152E+03  0.12499765024E+03 0.  0.
    9000005    1    3    3    0    0 -0.12656027193E+02 -0.22062760224E+02  0.77542323941E+02  0.81613432811E+02  0.10000000000E+01 0.  0.
    9000005    1    3    3    0    0  0.41903605592E+01  0.82936208387E+02  0.11838442590E+02  0.83887558709E+02  0.10000000000E+01 0.  0.
         21    1    1    2  502  501  0.84656666342E+01 -0.60873448163E+02  0.17029934228E+02  0.63775095944E+02  0.00000000000E+00 0.  1.
<mgrwt>
<rscale>  1 0.13928983E+03</rscale>
<asrwt>0</asrwt>
<pdfrwt beam="2">  1        4 0.94511837E-02 0.13928983E+03</pdfrwt>
<pdfrwt beam="1">  1       -4 0.25822060E-01 0.13928983E+03</pdfrwt>
<totfact> 0.19466116E+03</totfact>
</mgrwt>
</event>
<event>
 6    4  0.1195577E-003  0.1277207E+03  0.7818608E-02  0.1230878E+00
          4   -1    0    0  502    0  0.00000000000E+00  0.00000000000E+00  0.20170382715E+02  0.20210325056E+02  0.12700000000E+01 0. -1.
         -4   -1    0    0    0  501 -0.00000000000E+00 -0.00000000000E+00 -0.44353381602E+03  0.44353563425E+03  0.12700000000E+01 0. -1.
         25    2    1    2    0    0 -0.23811828721E+02 -0.10885163600E+02 -0.41792453205E+03  0.43700513620E+03  0.12500833813E+03 0.  0.
    9000005    1    3    3    0    0  0.12494344212E+02  0.50772243007E+02 -0.23113302311E+03  0.23697553391E+03  0.10000000000E+01 0.  0.
    9000005    1    3    3    0    0 -0.36306172933E+02 -0.61657406606E+02 -0.18679150894E+03  0.20002960230E+03  0.10000000000E+01 0.  0.
         21    1    1    2  502  501  0.23811828721E+02  0.10885163600E+02 -0.54389012518E+01  0.26740823107E+02  0.00000000000E+00 0. -1.
<mgrwt>
<rscale>  1 0.12772069E+03</rscale>
<asrwt>0</asrwt>
<pdfrwt beam="1">  1        4 0.31063485E-02 0.12772069E+03</pdfrwt>
<pdfrwt beam="2">  1       -4 0.68239177E-01 0.12772069E+03</pdfrwt>
<totfact> 0.16732825E+03</totfact>
</mgrwt>
</event>
<event>
 6    4  0.1195577E-003  0.1282861E+03  0.7818608E-02  0.1230021E+00
          4   -1    0    0  502    0  0.00000000000E+00  0.00000000000E+00  0.12312216246E+03  0.12312871228E+03  0.12700000000E+01 0.  1.
         -4   -1    0    0    0  501 -0.00000000000E+00 -0.00000000000E+00 -0.74047862984E+02  0.74058753112E+02  0.12700000000E+01 0.  1.
         25    2    1    2    0    0 -0.69784094308E+00 -0.28828659394E+02 -0.12800102494E+02  0.12892312475E+03  0.12500300351E+03 0.  0.
    9000005    1    3    3    0    0  0.21899260751E+02 -0.73400744498E+02 -0.17938247722E+02  0.78676728743E+02  0.10000000000E+01 0.  0.
    9000005    1    3    3    0    0 -0.22597101694E+02  0.44572085104E+02  0.51381452284E+01  0.50246396009E+02  0.10000000000E+01 0.  0.
         21    1    1    2  502  501  0.69784094308E+00  0.28828659394E+02  0.61874401968E+02  0.68264340643E+02  0.00000000000E+00 0. -1.
<mgrwt>
<rscale>  1 0.12828612E+03</rscale>
<asrwt>0</asrwt>
<pdfrwt beam="1">  1        4 0.18943213E-01 0.12828612E+03</pdfrwt>
<pdfrwt beam="2">  1       -4 0.11393320E-01 0.12828612E+03</pdfrwt>
<totfact> 0.24481232E+03</totfact>
</mgrwt>
</event>
<event>
 6    4  0.1195577E-003  0.1272246E+03  0.7818608E-02  0.1231633E+00
         -4   -1    0    0    0  501 -0.00000000000E+00  0.00000000000E+00  0.28361097369E+02  0.28389518206E+02  0.12700000000E+01 0.  1.
          4   -1    0    0  502    0  0.00000000000E+00 -0.00000000000E+00 -0.20956471122E+03  0.20956855940E+03  0.12700000000E+01 0.  1.
         25    2    1    2    0    0 -0.20500099235E+02 -0.11833981832E+02 -0.13185537733E+03  0.18322649949E+03  0.12500324952E+03 0.  0.
    9000005    1    3    3    0    0  0.39754461315E+02  0.30880510516E+02 -0.34561129400E+02  0.61069589728E+02  0.10000000000E+01 0.  0.
    9000005    1    3    3    0    0 -0.60254560550E+02 -0.42714492348E+02 -0.97294247926E+02  0.12215690976E+03  0.10000000000E+01 0.  0.
         21    1    1    2  502  501  0.20500099235E+02  0.11833981832E+02 -0.49348236530E+02  0.54731578118E+02  0.00000000000E+00 0.  1.
<mgrwt>
<rscale>  1 0.12722464E+03</rscale>
<asrwt>0</asrwt>
<pdfrwt beam="2">  1        4 0.32243206E-01 0.12722464E+03</pdfrwt>
<pdfrwt beam="1">  1       -4 0.43657281E-02 0.12722464E+03</pdfrwt>
<totfact> 0.44315592E+03</totfact>
</mgrwt>
</event>
<event>
 6    4  0.1195577E-003  0.1295441E+03  0.7818608E-02  0.1228134E+00
          4   -1    0    0  502    0  0.00000000000E+00  0.00000000000E+00  0.31379174507E+03  0.31379431508E+03  0.12700000000E+01 0. -1.
         -4   -1    0    0    0  501 -0.00000000000E+00 -0.00000000000E+00 -0.21344260918E+02  0.21382010526E+02  0.12700000000E+01 0. -1.
         25    2    1    2    0    0 -0.33506635177E+02  0.59059271190E+01  0.23803239911E+03  0.27100019253E+03  0.12499642694E+03 0.  0.
    9000005    1    3    3    0    0  0.25963883203E+01 -0.81524292743E+00 -0.15018878318E+02  0.15296161586E+02  0.10000000000E+01 0.  0.
    9000005    1    3    3    0    0 -0.36103023498E+02  0.67211700464E+01  0.25305127743E+03  0.25570403094E+03  0.10000000000E+01 0.  0.
         21    1    1    2  502  501  0.33506635177E+02 -0.59059271190E+01  0.54415085040E+02  0.64176133071E+02  0.00000000000E+00 0. -1.
<mgrwt>
<rscale>  1 0.12954413E+03</rscale>
<asrwt>0</asrwt>
<pdfrwt beam="1">  1        4 0.48278749E-01 0.12954413E+03</pdfrwt>
<pdfrwt beam="2">  1       -4 0.32868343E-02 0.12954413E+03</pdfrwt>
<totfact> 0.31584838E+03</totfact>
</mgrwt>
</event>
<event>
 6    4  0.1195577E-003  0.1328534E+03  0.7818608E-02  0.1223282E+00
          4   -1    0    0  502    0  0.00000000000E+00  0.00000000000E+00  0.60238399117E+02  0.60251785269E+02  0.12700000000E+01 0.  1.
         -4   -1    0    0    0  501 -0.00000000000E+00 -0.00000000000E+00 -0.13525425169E+03  0.13526021404E+03  0.12700000000E+01 0.  1.
         25    2    1    2    0    0  0.30573329791E+02 -0.32956748358E+02 -0.70312119271E+02  0.15031243223E+03  0.12501662853E+03 0.  0.
    9000005    1    3    3    0    0  0.28950630814E+01 -0.88468936575E+00 -0.99056327539E+02  0.99107618734E+02  0.10000000000E+01 0.  0.
    9000005    1    3    3    0    0  0.27678266710E+02 -0.32072058992E+02  0.28744208269E+02  0.51204813495E+02  0.10000000000E+01 0.  0.
         21    1    1    2  502  501 -0.30573329791E+02  0.32956748358E+02 -0.47037333056E+01  0.45199567076E+02  0.00000000000E+00 0. -1.
<mgrwt>
<rscale>  1 0.13285343E+03</rscale>
<asrwt>0</asrwt>
<pdfrwt beam="1">  1        4 0.92689344E-02 0.13285343E+03</pdfrwt>
<pdfrwt beam="2">  1       -4 0.20809835E-01 0.13285343E+03</pdfrwt>
<totfact> 0.29536022E+03</totfact>
</mgrwt>
</event>
<event>
 6    4  0.1195577E-003  0.1304281E+03  0.7818608E-02  0.1226822E+00
         -4   -1    0    0    0  501 -0.00000000000E+00  0.00000000000E+00  0.31403906734E+02  0.31429576169E+02  0.12700000000E+01 0. -1.
          4   -1    0    0  502    0  0.00000000000E+00 -0.00000000000E+00 -0.22654215746E+03  0.22654571726E+03  0.12700000000E+01 0. -1.
         25    2    1    2    0    0  0.15786264751E+02  0.33728569747E+02 -0.13902507446E+03  0.19062908995E+03  0.12499862413E+03 0.  0.
    9000005    1    3    3    0    0  0.16709399099E+02 -0.25212829869E+02  0.87698588044E+01  0.31508748495E+02  0.10000000000E+01 0.  0.
    9000005    1    3    3    0    0 -0.92313434779E+00  0.58941399617E+02 -0.14779493326E+03  0.15912034145E+03  0.10000000000E+01 0.  0.
         21    1    1    2  502  501 -0.15786264751E+02 -0.33728569747E+02 -0.56113176272E+02  0.67346203481E+02  0.00000000000E+00 0. -1.
<mgrwt>
<rscale>  1 0.13042806E+03</rscale>
<asrwt>0</asrwt>
<pdfrwt beam="2">  1        4 0.34854887E-01 0.13042806E+03</pdfrwt>
<pdfrwt beam="1">  1       -4 0.48336188E-02 0.13042806E+03</pdfrwt>
<totfact> 0.32637292E+03</totfact>
</mgrwt>
</event>
<event>
 6    4  0.1195577E-003  0.1269878E+03  0.7818608E-02  0.1231995E+00
         -4   -1    0    0    0  501 -0.00000000000E+00  0.00000000000E+00  0.14845070019E+03  0.14845613254E+03  0.12700000000E+01 0.  1.
          4   -1    0    0  502    0  0.00000000000E+00 -0.00000000000E+00 -0.38334987630E+02  0.38356018779E+02  0.12700000000E+01 0.  1.
         25    2    1    2    0    0  0.19525045116E+02 -0.10832259856E+02  0.10258781282E+03  0.16324873656E+03  0.12500930129E+03 0.  0.
    9000005    1    3    3    0    0 -0.27634277597E+02 -0.55162892943E+02  0.57664855333E+02  0.84456104556E+02  0.10000000000E+01 0.  0.
    9000005    1    3    3    0    0  0.47159322713E+02  0.44330633088E+02  0.44922957490E+02  0.78792632005E+02  0.10000000000E+01 0.  0.
         21    1    1    2  502  501 -0.19525045116E+02  0.10832259856E+02  0.75278997386E+01  0.23563414753E+02  0.00000000000E+00 0.  1.
<mgrwt>
<rscale>  1 0.12698776E+03</rscale>
<asrwt>0</asrwt>
<pdfrwt beam="2">  1        4 0.58997261E-02 0.12698776E+03</pdfrwt>
<pdfrwt beam="1">  1       -4 0.22840605E-01 0.12698776E+03</pdfrwt>
<totfact> 0.51903809E+03</totfact>
</mgrwt>
</event>
<event>
 6    4  0.1195577E-003  0.1300229E+03  0.7818608E-02  0.1227422E+00
          4   -1    0    0  502    0  0.00000000000E+00  0.00000000000E+00  0.18088883670E+02  0.18133411495E+02  0.12700000000E+01 0. -1.
         -4   -1    0    0    0  501 -0.00000000000E+00 -0.00000000000E+00 -0.39620555230E+03  0.39620758772E+03  0.12700000000E+01 0. -1.
         25    2    1    2    0    0  0.32275326784E+02 -0.15470142161E+02 -0.32733923032E+03  0.35221716918E+03  0.12499976217E+03 0.  0.
    9000005    1    3    3    0    0  0.59846644769E+02 -0.46495964970E+02 -0.27585573586E+03  0.28607845542E+03  0.10000000000E+01 0.  0.
    9000005    1    3    3    0    0 -0.27571317985E+02  0.31025822809E+02 -0.51483494459E+02  0.66138713762E+02  0.10000000000E+01 0.  0.
         21    1    1    2  502  501 -0.32275326784E+02  0.15470142161E+02 -0.50777438309E+02  0.62123830040E+02  0.00000000000E+00 0. -1.
<mgrwt>
<rscale>  1 0.13002293E+03</rscale>
<asrwt>0</asrwt>
<pdfrwt beam="1">  1        4 0.27864873E-02 0.13002293E+03</pdfrwt>
<pdfrwt beam="2">  1       -4 0.60958276E-01 0.13002293E+03</pdfrwt>
<totfact> 0.25306860E+03</totfact>
</mgrwt>
</event>
<event>
 6    4  0.1195577E-003  0.1394313E+03  0.7818608E-02  0.1214096E+00
         -4   -1    0    0    0  501 -0.00000000000E+00  0.00000000000E+00  0.19955958908E+04  0.19955962949E+04  0.12700000000E+01 0.  1.
          4   -1    0    0  502    0  0.00000000000E+00 -0.00000000000E+00 -0.50779686637E+01  0.52343734820E+01  0.12700000000E+01 0.  1.
         25    2    1    2    0    0 -0.36941228423E+02  0.49494365746E+02  0.14922088796E+04  0.14987089218E+04  0.12500698033E+03 0.  0.
    9000005    1    3    3    0    0 -0.58340513262E+02 -0.23825020315E+02  0.68744836809E+03  0.69033144639E+03  0.10000000000E+01 0.  0.
    9000005    1    3    3    0    0  0.21399284839E+02  0.73319386061E+02  0.80476051154E+03  0.80837747537E+03  0.10000000000E+01 0.  0.
         21    1    1    2  502  501  0.36941228423E+02 -0.49494365746E+02  0.49830904254E+03  0.50212174667E+03  0.00000000000E+00 0.  1.
<mgrwt>
<rscale>  1 0.13943132E+03</rscale>
<asrwt>0</asrwt>
<pdfrwt beam="2">  1        4 0.79328716E-03 0.13943132E+03</pdfrwt>
<pdfrwt beam="1">  1       -4 0.30702721E+00 0.13943132E+03</pdfrwt>
<totfact> 0.24025587E+02</totfact>
</mgrwt>
</event>
<event>
 6    4  0.1195577E-003  0.1294372E+03  0.7818608E-02  0.1228293E+00
          4   -1    0    0  502    0  0.00000000000E+00  0.00000000000E+00  0.59268795643E+02  0.59282400735E+02  0.12700000000E+01 0. -1.
         -4   -1    0    0    0  501 -0.00000000000E+00 -0.00000000000E+00 -0.14669712488E+03  0.14670262216E+03  0.12700000000E+01 0. -1.
         25    2    1    2    0    0  0.31836250619E+01  0.33451945920E+02 -0.10625816182E+03  0.16746579718E+03  0.12499931247E+03 0.  0.
    9000005    1    3    3    0    0  0.30353946108E+02  0.78858965356E+01 -0.12272562613E+03  0.12667331494E+03  0.10000000000E+01 0.  0.
    9000005    1    3    3    0    0 -0.27170321046E+02  0.25566049385E+02  0.16467464308E+02  0.40792482244E+02  0.10000000000E+01 0.  0.
         21    1    1    2  502  501 -0.31836250619E+01 -0.33451945920E+02  0.18829832583E+02  0.38519225712E+02  0.00000000000E+00 0. -1.
<mgrwt>
<rscale>  1 0.12943723E+03</rscale>
<asrwt>0</asrwt>
<pdfrwt beam="1">  1        4 0.91197457E-02 0.12943723E+03</pdfrwt>
<pdfrwt beam="2">  1       -4 0.22570258E-01 0.12943723E+03</pdfrwt>
<totfact> 0.26029889E+03</totfact>
</mgrwt>
</event>
<event>
 6    4  0.1195577E-003  0.1287495E+03  0.7818608E-02  0.1229323E+00
          4   -1    0    0  502    0  0.00000000000E+00  0.00000000000E+00  0.21087169214E+02  0.21125378233E+02  0.12700000000E+01 0. -1.
         -4   -1    0    0    0  501 -0.00000000000E+00 -0.00000000000E+00 -0.31281687807E+03  0.31281945609E+03  0.12700000000E+01 0. -1.
         25    2    1    2    0    0 -0.25036754382E+02 -0.17942891646E+02 -0.25751884166E+03  0.28791039216E+03  0.12501061424E+03 0.  0.
    9000005    1    3    3    0    0  0.37854776487E+02 -0.19702635002E+02 -0.30845176804E+02  0.52665006038E+02  0.10000000000E+01 0.  0.
    9000005    1    3    3    0    0 -0.62891530869E+02  0.17597433566E+01 -0.22667366486E+03  0.23524538612E+03  0.10000000000E+01 0.  0.
         21    1    1    2  502  501  0.25036754382E+02  0.17942891646E+02 -0.34210867195E+02  0.46034442158E+02  0.00000000000E+00 0. -1.
<mgrwt>
<rscale>  1 0.12874952E+03</rscale>
<asrwt>0</asrwt>
<pdfrwt beam="1">  1        4 0.32473176E-02 0.12874952E+03</pdfrwt>
<pdfrwt beam="2">  1       -4 0.48128808E-01 0.12874952E+03</pdfrwt>
<totfact> 0.32345802E+03</totfact>
</mgrwt>
</event>
<event>
 6    4  0.1195577E-003  0.1288748E+03  0.7818608E-02  0.1229135E+00
          4   -1    0    0  502    0  0.00000000000E+00  0.00000000000E+00  0.36647098512E+02  0.36669097744E+02  0.12700000000E+01 0. -1.
         -4   -1    0    0    0  501 -0.00000000000E+00 -0.00000000000E+00 -0.17694132153E+03  0.17694587920E+03  0.12700000000E+01 0. -1.
         25    2    1    2    0    0 -0.18995189097E+01 -0.31331858215E+02 -0.12096259161E+03  0.17675028538E+03  0.12499368504E+03 0.  0.
    9000005    1    3    3    0    0 -0.26354893446E+02 -0.38382553543E+02  0.62723298510E+01  0.46990881528E+02  0.10000000000E+01 0.  0.
    9000005    1    3    3    0    0  0.24455374536E+02  0.70506953279E+01 -0.12723492146E+03  0.12975940385E+03  0.10000000000E+01 0.  0.
         21    1    1    2  502  501  0.18995189097E+01  0.31331858215E+02 -0.19331631410E+02  0.36864691566E+02  0.00000000000E+00 0. -1.
<mgrwt>
<rscale>  1 0.12887480E+03</rscale>
<asrwt>0</asrwt>
<pdfrwt beam="1">  1        4 0.56400581E-02 0.12887480E+03</pdfrwt>
<pdfrwt beam="2">  1       -4 0.27223784E-01 0.12887480E+03</pdfrwt>
<totfact> 0.40542499E+03</totfact>
</mgrwt>
</event>
<event>
 6    4  0.1195577E-003  0.1308231E+03  0.7818608E-02  0.1226239E+00
          4   -1    0    0  502    0  0.00000000000E+00  0.00000000000E+00  0.17100751444E+03  0.17101223025E+03  0.12700000000E+01 0. -1.
         -4   -1    0    0    0  501 -0.00000000000E+00 -0.00000000000E+00 -0.42885820496E+02  0.42904620959E+02  0.12700000000E+01 0. -1.
         25    2    1    2    0    0 -0.84749132429E+01  0.37657296784E+02  0.84844705564E+02  0.15592724974E+03  0.12499914797E+03 0.  0.
    9000005    1    3    3    0    0  0.41090875012E+02  0.12634368936E+02 -0.11687718825E+02  0.44561082336E+02  0.10000000000E+01 0.  0.
    9000005    1    3    3    0    0 -0.49565788255E+02  0.25022927848E+02  0.96532424389E+02  0.11136616740E+03  0.10000000000E+01 0.  0.
         21    1    1    2  502  501  0.84749132429E+01 -0.37657296784E+02  0.43276988383E+02  0.57989601473E+02  0.00000000000E+00 0. -1.
<mgrwt>
<rscale>  1 0.13082310E+03</rscale>
<asrwt>0</asrwt>
<pdfrwt beam="1">  1        4 0.26310658E-01 0.13082310E+03</pdfrwt>
<pdfrwt beam="2">  1       -4 0.65996274E-02 0.13082310E+03</pdfrwt>
<totfact> 0.33585576E+03</totfact>
</mgrwt>
</event>
<event>
 6    4  0.1195577E-003  0.1322340E+03  0.7818608E-02  0.1224178E+00
         -4   -1    0    0    0  501 -0.00000000000E+00  0.00000000000E+00  0.72325272043E+01  0.73431838981E+01  0.12700000000E+01 0.  1.
          4   -1    0    0  502    0  0.00000000000E+00 -0.00000000000E+00 -0.11936102904E+04  0.11936109660E+04  0.12700000000E+01 0.  1.
         25    2    1    2    0    0  0.26553470599E+02  0.33980311276E+02 -0.67963079823E+03  0.69237550817E+03  0.12500429617E+03 0.  0.
    9000005    1    3    3    0    0 -0.33517837561E+02  0.57048436204E+01 -0.49500291185E+03  0.49617020610E+03  0.10000000000E+01 0.  0.
    9000005    1    3    3    0    0  0.60071308160E+02  0.28275467655E+02 -0.18462788637E+03  0.19620530207E+03  0.10000000000E+01 0.  0.
         21    1    1    2  502  501 -0.26553470599E+02 -0.33980311276E+02 -0.50674696497E+03  0.50857864177E+03  0.00000000000E+00 0.  1.
<mgrwt>
<rscale>  1 0.13223397E+03</rscale>
<asrwt>0</asrwt>
<pdfrwt beam="2">  1        4 0.18364076E+00 0.13223397E+03</pdfrwt>
<pdfrwt beam="1">  1       -4 0.11212615E-02 0.13223397E+03</pdfrwt>
<totfact> 0.75920256E+02</totfact>
</mgrwt>
</event>
<event>
 6    4  0.1195577E-003  0.1303071E+03  0.7818608E-02  0.1227001E+00
         -4   -1    0    0    0  501 -0.00000000000E+00  0.00000000000E+00  0.20556061193E+03  0.20556453506E+03  0.12700000000E+01 0.  1.
          4   -1    0    0  502    0  0.00000000000E+00 -0.00000000000E+00 -0.34433166354E+02  0.34456579127E+02  0.12700000000E+01 0.  1.
         25    2    1    2    0    0 -0.24138428631E+02 -0.27802560893E+02  0.14453541482E+03  0.19460325175E+03  0.12499717327E+03 0.  0.
    9000005    1    3    3    0    0 -0.45227967496E+02  0.12932133784E+02  0.45265451832E+01  0.47268369333E+02  0.10000000000E+01 0.  0.
    9000005    1    3    3    0    0  0.21089538865E+02 -0.40734694677E+02  0.14000886964E+03  0.14733488242E+03  0.10000000000E+01 0.  0.
         21    1    1    2  502  501  0.24138428631E+02  0.27802560893E+02  0.26592030750E+02  0.45417862438E+02  0.00000000000E+00 0.  1.
<mgrwt>
<rscale>  1 0.13030710E+03</rscale>
<asrwt>0</asrwt>
<pdfrwt beam="2">  1        4 0.52995129E-02 0.13030710E+03</pdfrwt>
<pdfrwt beam="1">  1       -4 0.31626813E-01 0.13030710E+03</pdfrwt>
<totfact> 0.33898252E+03</totfact>
</mgrwt>
</event>
<event>
 6    4  0.1195577E-003  0.1266222E+03  0.7818608E-02  0.1232556E+00
         -4   -1    0    0    0  501 -0.00000000000E+00  0.00000000000E+00  0.77657761058E+02  0.77668145031E+02  0.12700000000E+01 0.  1.
          4   -1    0    0  502    0  0.00000000000E+00 -0.00000000000E+00 -0.72618042110E+02  0.72629146628E+02  0.12700000000E+01 0.  1.
         25    2    1    2    0    0 -0.18388687267E+02 -0.84022496824E+01  0.15442839453E+02  0.12756039356E+03  0.12499772436E+03 0.  0.
    9000005    1    3    3    0    0 -0.11712010271E+02 -0.51948181246E+02  0.48843253398E+02  0.72266507608E+02  0.10000000000E+01 0.  0.
    9000005    1    3    3    0    0 -0.66766769954E+01  0.43545931564E+02 -0.33400413944E+02  0.55293885947E+02  0.10000000000E+01 0.  0.
         21    1    1    2  502  501  0.18388687267E+02  0.84022496824E+01 -0.10403120505E+02  0.22736898104E+02  0.00000000000E+00 0.  1.
<mgrwt>
<rscale>  1 0.12662217E+03</rscale>
<asrwt>0</asrwt>
<pdfrwt beam="2">  1        4 0.11173659E-01 0.12662217E+03</pdfrwt>
<pdfrwt beam="1">  1       -4 0.11949001E-01 0.12662217E+03</pdfrwt>
<totfact> 0.56365345E+03</totfact>
</mgrwt>
</event>
<event>
 6    4  0.1195577E-003  0.1348111E+03  0.7818608E-02  0.1220487E+00
          4   -1    0    0  502    0  0.00000000000E+00  0.00000000000E+00  0.29330845670E+03  0.29331120618E+03  0.12700000000E+01 0. -1.
         -4   -1    0    0    0  501 -0.00000000000E+00 -0.00000000000E+00 -0.29249345852E+02  0.29276904426E+02  0.12700000000E+01 0. -1.
         25    2    1    2    0    0 -0.48224618821E+02 -0.14942229904E+02  0.19275954794E+03  0.23522386297E+03  0.12500055317E+03 0.  0.
    9000005    1    3    3    0    0 -0.60753865760E+02  0.26420701368E+02  0.17736056198E+03  0.18933265596E+03  0.10000000000E+01 0.  0.
    9000005    1    3    3    0    0  0.12529246939E+02 -0.41362931273E+02  0.15398985960E+02  0.45891207011E+02  0.10000000000E+01 0.  0.
         21    1    1    2  502  501  0.48224618821E+02  0.14942229904E+02  0.71299562906E+02  0.87364247639E+02  0.00000000000E+00 0.  1.
<mgrwt>
<rscale>  1 0.13481106E+03</rscale>
<asrwt>0</asrwt>
<pdfrwt beam="1">  1        4 0.45126712E-01 0.13481106E+03</pdfrwt>
<pdfrwt beam="2">  1       -4 0.45022305E-02 0.13481106E+03</pdfrwt>
<totfact> 0.22184232E+03</totfact>
</mgrwt>
</event>
<event>
 6    4  0.1195577E-003  0.1319655E+03  0.7818608E-02  0.1224568E+00
          4   -1    0    0  502    0  0.00000000000E+00  0.00000000000E+00  0.75772484913E+01  0.76829417998E+01  0.12700000000E+01 0. -1.
         -4   -1    0    0    0  501 -0.00000000000E+00 -0.00000000000E+00 -0.11951982644E+04  0.11951989391E+04  0.12700000000E+01 0. -1.
         25    2    1    2    0    0  0.40645553331E+02 -0.11726291228E+02 -0.10655062797E+04  0.10736473047E+04  0.12500134306E+03 0.  0.
    9000005    1    3    3    0    0 -0.33551784758E+02  0.13352446571E+02 -0.13179026474E+03  0.13665168850E+03  0.10000000000E+01 0.  0.
    9000005    1    3    3    0    0  0.74197338089E+02 -0.25078737799E+02 -0.93371601501E+03  0.93699561618E+03  0.10000000000E+01 0.  0.
         21    1    1    2  502  501 -0.40645553331E+02  0.11726291228E+02 -0.12211473612E+03  0.12923457621E+03  0.00000000000E+00 0. -1.
<mgrwt>
<rscale>  1 0.13196554E+03</rscale>
<asrwt>0</asrwt>
<pdfrwt beam="1">  1        4 0.11739136E-02 0.13196554E+03</pdfrwt>
<pdfrwt beam="2">  1       -4 0.18388469E+00 0.13196554E+03</pdfrwt>
<totfact> 0.70549543E+02</totfact>
</mgrwt>
</event>
<event>
 6    4  0.1195577E-003  0.1271289E+03  0.7818608E-02  0.1231779E+00
         -4   -1    0    0    0  501 -0.00000000000E+00  0.00000000000E+00  0.27566837246E+02  0.27596076093E+02  0.12700000000E+01 0.  1.
          4   -1    0    0  502    0  0.00000000000E+00 -0.00000000000E+00 -0.29487553004E+03  0.29487826491E+03  0.12700000000E+01 0.  1.
         25    2    1    2    0    0  0.15537341074E+02  0.17181293215E+02 -0.12498540571E+03  0.17827821120E+03  0.12500065257E+03 0.  0.
    9000005    1    3    3    0    0 -0.28910473269E+02 -0.10854026294E+02  0.10756350550E+02  0.32715813127E+02  0.10000000000E+01 0.  0.
    9000005    1    3    3    0    0  0.44447814343E+02  0.28035319508E+02 -0.13574175626E+03  0.14556239807E+03  0.10000000000E+01 0.  0.
         21    1    1    2  502  501 -0.15537341074E+02 -0.17181293215E+02 -0.14232328709E+03  0.14419612981E+03  0.00000000000E+00 0.  1.
<mgrwt>
<rscale>  1 0.12712895E+03</rscale>
<asrwt>0</asrwt>
<pdfrwt beam="2">  1        4 0.45367924E-01 0.12712895E+03</pdfrwt>
<pdfrwt beam="1">  1       -4 0.42435116E-02 0.12712895E+03</pdfrwt>
<totfact> 0.23795169E+03</totfact>
</mgrwt>
</event>
<event>
 6    4  0.1195577E-003  0.1272384E+03  0.7818608E-02  0.1231612E+00
         -4   -1    0    0    0  501 -0.00000000000E+00  0.00000000000E+00  0.80769882803E+03  0.80769982648E+03  0.12700000000E+01 0. -1.
          4   -1    0    0  502    0  0.00000000000E+00 -0.00000000000E+00 -0.10574836724E+02  0.10650824932E+02  0.12700000000E+01 0. -1.
         25    2    1    2    0    0  0.22050882439E+02 -0.88524903987E+01  0.77659447607E+03  0.78694891582E+03  0.12500003137E+03 0.  0.
    9000005    1    3    3    0    0  0.27010500359E+00 -0.11767388367E+02  0.19268278618E+01  0.11969003772E+02  0.10000000000E+01 0.  0.
    9000005    1    3    3    0    0  0.21780777435E+02  0.29148979679E+01  0.77466764821E+03  0.77497991205E+03  0.10000000000E+01 0.  0.
         21    1    1    2  502  501 -0.22050882439E+02  0.88524903987E+01  0.20529515235E+02  0.31401735595E+02  0.00000000000E+00 0. -1.
<mgrwt>
<rscale>  1 0.12723842E+03</rscale>
<asrwt>0</asrwt>
<pdfrwt beam="2">  1        4 0.16328193E-02 0.12723842E+03</pdfrwt>
<pdfrwt beam="1">  1       -4 0.12426733E+00 0.12723842E+03</pdfrwt>
<totfact> 0.11571256E+03</totfact>
</mgrwt>
</event>
<event>
 6    4  0.1195577E-003  0.1309177E+03  0.7818608E-02  0.1226100E+00
          4   -1    0    0  502    0  0.00000000000E+00  0.00000000000E+00  0.75532174138E+03  0.75532280907E+03  0.12700000000E+01 0. -1.
         -4   -1    0    0    0  501 -0.00000000000E+00 -0.00000000000E+00 -0.10567675986E+02  0.10643715317E+02  0.12700000000E+01 0. -1.
         25    2    1    2    0    0 -0.31838758527E+02 -0.22371581080E+02  0.45006670721E+03  0.46872111524E+03  0.12500099499E+03 0.  0.
    9000005    1    3    3    0    0 -0.39762102600E+02  0.15669880668E+01  0.35346914032E+02  0.53234242611E+02  0.10000000000E+01 0.  0.
    9000005    1    3    3    0    0  0.79233440724E+01 -0.23938569147E+02  0.41471979318E+03  0.41548687263E+03  0.10000000000E+01 0.  0.
         21    1    1    2  502  501  0.31838758527E+02  0.22371581080E+02  0.29468735818E+03  0.29724540914E+03  0.00000000000E+00 0.  1.
<mgrwt>
<rscale>  1 0.13091770E+03</rscale>
<asrwt>0</asrwt>
<pdfrwt beam="1">  1        4 0.11620928E+00 0.13091770E+03</pdfrwt>
<pdfrwt beam="2">  1       -4 0.16317275E-02 0.13091770E+03</pdfrwt>
<totfact> 0.13691543E+03</totfact>
</mgrwt>
</event>
<event>
 6    4  0.1195577E-003  0.1285029E+03  0.7818608E-02  0.1229694E+00
         -4   -1    0    0    0  501 -0.00000000000E+00  0.00000000000E+00  0.29555520873E+03  0.29555793731E+03  0.12700000000E+01 0.  1.
          4   -1    0    0  502    0  0.00000000000E+00 -0.00000000000E+00 -0.21361005652E+02  0.21398725720E+02  0.12700000000E+01 0.  1.
         25    2    1    2    0    0  0.11480706440E+02 -0.27500520330E+02  0.23340077600E+03  0.26643746933E+03  0.12499967036E+03 0.  0.
    9000005    1    3    3    0    0 -0.34920773899E+02 -0.30061249832E+02  0.24045275031E+02  0.51983790190E+02  0.10000000000E+01 0.  0.
    9000005    1    3    3    0    0  0.46401480340E+02  0.25607295022E+01  0.20935550097E+03  0.21445367914E+03  0.10000000000E+01 0.  0.
         21    1    1    2  502  501 -0.11480706440E+02  0.27500520330E+02  0.40793427077E+02  0.50519193694E+02  0.00000000000E+00 0.  1.
<mgrwt>
<rscale>  1 0.12850293E+03</rscale>
<asrwt>0</asrwt>
<pdfrwt beam="2">  1        4 0.32894201E-02 0.12850293E+03</pdfrwt>
<pdfrwt beam="1">  1       -4 0.45473142E-01 0.12850293E+03</pdfrwt>
<totfact> 0.35518415E+03</totfact>
</mgrwt>
</event>
<event>
 6    4  0.1195577E-003  0.1284935E+03  0.7818608E-02  0.1229708E+00
          4   -1    0    0  502    0  0.00000000000E+00  0.00000000000E+00  0.14973931473E+03  0.14974470032E+03  0.12700000000E+01 0. -1.
         -4   -1    0    0    0  501 -0.00000000000E+00 -0.00000000000E+00 -0.41798921756E+02  0.41818210865E+02  0.12700000000E+01 0. -1.
         25    2    1    2    0    0  0.11402534658E+01  0.29739349240E+02  0.87253420869E+02  0.15531818901E+03  0.12499940525E+03 0.  0.
    9000005    1    3    3    0    0 -0.22158028857E+02 -0.42264407142E+02  0.13414921431E+02  0.49580424271E+02  0.10000000000E+01 0.  0.
    9000005    1    3    3    0    0  0.23298282323E+02  0.72003756382E+02  0.73838499438E+02  0.10573776474E+03  0.10000000000E+01 0.  0.
         21    1    1    2  502  501 -0.11402534658E+01 -0.29739349240E+02  0.20686972103E+02  0.36244722181E+02  0.00000000000E+00 0. -1.
<mgrwt>
<rscale>  1 0.12849350E+03</rscale>
<asrwt>0</asrwt>
<pdfrwt beam="1">  1        4 0.23038716E-01 0.12849350E+03</pdfrwt>
<pdfrwt beam="2">  1       -4 0.64325014E-02 0.12849350E+03</pdfrwt>
<totfact> 0.44523892E+03</totfact>
</mgrwt>
</event>
<event>
 6    4  0.1195577E-003  0.1274391E+03  0.7818608E-02  0.1231306E+00
          4   -1    0    0  502    0  0.00000000000E+00  0.00000000000E+00  0.60684850784E+03  0.60684983676E+03  0.12700000000E+01 0. -1.
         -4   -1    0    0    0  501 -0.00000000000E+00 -0.00000000000E+00 -0.95318998836E+01  0.96161330789E+01  0.12700000000E+01 0. -1.
         25    2    1    2    0    0 -0.64027758132E+00 -0.24802613997E+02  0.48755465083E+03  0.50393478816E+03  0.12500061422E+03 0.  0.
    9000005    1    3    3    0    0  0.43393338144E+02  0.30593931681E+02  0.15232811037E+03  0.16131901209E+03  0.10000000000E+01 0.  0.
    9000005    1    3    3    0    0 -0.44033615725E+02 -0.55396545678E+02  0.33522654046E+03  0.34261577607E+03  0.10000000000E+01 0.  0.
         21    1    1    2  502  501  0.64027758132E+00  0.24802613997E+02  0.10976195713E+03  0.11253118168E+03  0.00000000000E+00 0.  1.
<mgrwt>
<rscale>  1 0.12743914E+03</rscale>
<asrwt>0</asrwt>
<pdfrwt beam="1">  1        4 0.93367928E-01 0.12743914E+03</pdfrwt>
<pdfrwt beam="2">  1       -4 0.14730273E-02 0.12743914E+03</pdfrwt>
<totfact> 0.26474063E+03</totfact>
</mgrwt>
</event>
<event>
 6    4  0.1195577E-003  0.1282360E+03  0.7818608E-02  0.1230097E+00
         -4   -1    0    0    0  501 -0.00000000000E+00  0.00000000000E+00  0.77765189491E+03  0.77765293194E+03  0.12700000000E+01 0. -1.
          4   -1    0    0  502    0  0.00000000000E+00 -0.00000000000E+00 -0.11654822076E+02  0.11723812419E+02  0.12700000000E+01 0. -1.
         25    2    1    2    0    0 -0.26773178309E+02  0.10104026588E+02  0.73897259967E+03  0.75001665570E+03  0.12500234528E+03 0.  0.
    9000005    1    3    3    0    0 -0.70326421764E+02  0.54236674989E+01  0.27220364641E+03  0.28119574479E+03  0.10000000000E+01 0.  0.
    9000005    1    3    3    0    0  0.43553243456E+02  0.46803590896E+01  0.46676895326E+03  0.46882091090E+03  0.10000000000E+01 0.  0.
         21    1    1    2  502  501  0.26773178309E+02 -0.10104026588E+02  0.27024473165E+02  0.39360088667E+02  0.00000000000E+00 0. -1.
<mgrwt>
<rscale>  1 0.12823604E+03</rscale>
<asrwt>0</asrwt>
<pdfrwt beam="2">  1        4 0.17984360E-02 0.12823604E+03</pdfrwt>
<pdfrwt beam="1">  1       -4 0.11964416E+00 0.12823604E+03</pdfrwt>
<totfact> 0.10956213E+03</totfact>
</mgrwt>
</event>
<event>
 6    4  0.1195577E-003  0.1272638E+03  0.7818608E-02  0.1231573E+00
          4   -1    0    0  502    0  0.00000000000E+00  0.00000000000E+00  0.11100459498E+03  0.11101185975E+03  0.12700000000E+01 0.  1.
         -4   -1    0    0    0  501 -0.00000000000E+00 -0.00000000000E+00 -0.52423475859E+02  0.52438856978E+02  0.12700000000E+01 0.  1.
         25    2    1    2    0    0  0.84293445184E+01 -0.22357913597E+02  0.40723098269E+02  0.13362054647E+03  0.12500059822E+03 0.  0.
    9000005    1    3    3    0    0 -0.87046176440E+01  0.48322331225E+02  0.35696317848E+02  0.60712808955E+02  0.10000000000E+01 0.  0.
    9000005    1    3    3    0    0  0.17133962162E+02 -0.70680244822E+02  0.50267804212E+01  0.72907737511E+02  0.10000000000E+01 0.  0.
         21    1    1    2  502  501 -0.84293445184E+01  0.22357913597E+02  0.17858020850E+02  0.29830170266E+02  0.00000000000E+00 0.  1.
<mgrwt>
<rscale>  1 0.12726382E+03</rscale>
<asrwt>0</asrwt>
<pdfrwt beam="1">  1        4 0.17079372E-01 0.12726382E+03</pdfrwt>
<pdfrwt beam="2">  1       -4 0.80668922E-02 0.12726382E+03</pdfrwt>
<totfact> 0.52407366E+03</totfact>
</mgrwt>
</event>
<event>
 6    4  0.1195577E-003  0.1288868E+03  0.7818608E-02  0.1229117E+00
          4   -1    0    0  502    0  0.00000000000E+00  0.00000000000E+00  0.20881645635E+02  0.20920230028E+02  0.12700000000E+01 0. -1.
         -4   -1    0    0    0  501 -0.00000000000E+00 -0.00000000000E+00 -0.44142423078E+03  0.44142605770E+03  0.12700000000E+01 0. -1.
         25    2    1    2    0    0 -0.29339700666E+02  0.11251433050E+02 -0.40907053653E+03  0.42889452126E+03  0.12499757488E+03 0.  0.
    9000005    1    3    3    0    0  0.48320092376E+02  0.60036327915E+01 -0.19876759535E+03  0.20464709110E+03  0.10000000000E+01 0.  0.
    9000005    1    3    3    0    0 -0.77659793042E+02  0.52478002585E+01 -0.21030294118E+03  0.22424743015E+03  0.10000000000E+01 0.  0.
         21    1    1    2  502  501  0.29339700666E+02 -0.11251433050E+02 -0.11472048614E+02  0.33451766475E+02  0.00000000000E+00 0. -1.
<mgrwt>
<rscale>  1 0.12888680E+03</rscale>
<asrwt>0</asrwt>
<pdfrwt beam="1">  1        4 0.32156698E-02 0.12888680E+03</pdfrwt>
<pdfrwt beam="2">  1       -4 0.67914522E-01 0.12888680E+03</pdfrwt>
<totfact> 0.16045319E+03</totfact>
</mgrwt>
</event>
<event>
 6    4  0.1195577E-003  0.1297084E+03  0.7818608E-02  0.1227889E+00
          4   -1    0    0  502    0  0.00000000000E+00  0.00000000000E+00  0.24377461265E+02  0.24410520636E+02  0.12700000000E+01 0. -1.
         -4   -1    0    0    0  501 -0.00000000000E+00 -0.00000000000E+00 -0.37821367209E+03  0.37821580434E+03  0.12700000000E+01 0. -1.
         25    2    1    2    0    0 -0.10704999417E+01  0.34651194788E+02 -0.34236170785E+03  0.36610899363E+03  0.12498961934E+03 0.  0.
    9000005    1    3    3    0    0  0.48974616340E+02  0.22671843257E+02 -0.67291905111E+02  0.86265439289E+02  0.10000000000E+01 0.  0.
    9000005    1    3    3    0    0 -0.50045116282E+02  0.11979351532E+02 -0.27506980274E+03  0.27984355434E+03  0.10000000000E+01 0.  0.
         21    1    1    2  502  501  0.10704999417E+01 -0.34651194788E+02 -0.11474502973E+02  0.36517331349E+02  0.00000000000E+00 0.  1.
<mgrwt>
<rscale>  1 0.12970835E+03</rscale>
<asrwt>0</asrwt>
<pdfrwt beam="1">  1        4 0.37530860E-02 0.12970835E+03</pdfrwt>
<pdfrwt beam="2">  1       -4 0.58189421E-01 0.12970835E+03</pdfrwt>
<totfact> 0.17464991E+03</totfact>
</mgrwt>
</event>
<event>
 6    4  0.1195577E-003  0.1311154E+03  0.7818608E-02  0.1225810E+00
          4   -1    0    0  502    0  0.00000000000E+00  0.00000000000E+00  0.44513574070E+02  0.44531687331E+02  0.12700000000E+01 0.  1.
         -4   -1    0    0    0  501 -0.00000000000E+00 -0.00000000000E+00 -0.43174745042E+03  0.43174931829E+03  0.12700000000E+01 0.  1.
         25    2    1    2    0    0  0.39208994336E+02 -0.54458865215E+01 -0.41011104070E+03  0.43056046794E+03  0.12499699169E+03 0.  0.
    9000005    1    3    3    0    0 -0.16753819612E+02  0.76115855418E+00 -0.20298830221E+00  0.16802114099E+02  0.10000000000E+01 0.  0.
    9000005    1    3    3    0    0  0.55962813949E+02 -0.62070450757E+01 -0.40990805240E+03  0.41375835384E+03  0.10000000000E+01 0.  0.
         21    1    1    2  502  501 -0.39208994336E+02  0.54458865215E+01  0.22877164351E+02  0.45720537679E+02  0.00000000000E+00 0.  1.
<mgrwt>
<rscale>  1 0.13111541E+03</rscale>
<asrwt>0</asrwt>
<pdfrwt beam="1">  1        4 0.68497795E-02 0.13111541E+03</pdfrwt>
<pdfrwt beam="2">  1       -4 0.66424219E-01 0.13111541E+03</pdfrwt>
<totfact> 0.50302142E+02</totfact>
</mgrwt>
</event>
<event>
 6    4  0.1195577E-003  0.1266832E+03  0.7818608E-02  0.1232462E+00
          4   -1    0    0  502    0  0.00000000000E+00  0.00000000000E+00  0.11336130325E+03  0.11336841701E+03  0.12700000000E+01 0. -1.
         -4   -1    0    0    0  501 -0.00000000000E+00 -0.00000000000E+00 -0.55413191919E+02  0.55427743402E+02  0.12700000000E+01 0. -1.
         25    2    1    2    0    0 -0.64836543734E+01 -0.19538817782E+02  0.23765495303E+02  0.12889309771E+03  0.12499931478E+03 0.  0.
    9000005    1    3    3    0    0  0.40696630357E+02 -0.48644809776E+02  0.34815479317E+02  0.72357797373E+02  0.10000000000E+01 0.  0.
    9000005    1    3    3    0    0 -0.47180284731E+02  0.29105991994E+02 -0.11049984015E+02  0.56535300335E+02  0.10000000000E+01 0.  0.
         21    1    1    2  502  501  0.64836543734E+01  0.19538817782E+02  0.34182616029E+02  0.39903062701E+02  0.00000000000E+00 0. -1.
<mgrwt>
<rscale>  1 0.12668319E+03</rscale>
<asrwt>0</asrwt>
<pdfrwt beam="1">  1        4 0.17441867E-01 0.12668319E+03</pdfrwt>
<pdfrwt beam="2">  1       -4 0.85267732E-02 0.12668319E+03</pdfrwt>
<totfact> 0.46007747E+03</totfact>
</mgrwt>
</event>
<event>
 6    4  0.1195577E-003  0.1368263E+03  0.7818608E-02  0.1217664E+00
          4   -1    0    0  502    0  0.00000000000E+00  0.00000000000E+00  0.82703702649E+02  0.82713453149E+02  0.12700000000E+01 0. -1.
         -4   -1    0    0    0  501 -0.00000000000E+00 -0.00000000000E+00 -0.11876867533E+03  0.11877546522E+03  0.12700000000E+01 0. -1.
         25    2    1    2    0    0 -0.41314667985E+02 -0.37276768240E+02 -0.32023514679E+01  0.13686375985E+03  0.12499989786E+03 0.  0.
    9000005    1    3    3    0    0 -0.14920025836E+02  0.11409311394E+02 -0.56772292362E+02  0.59806962282E+02  0.10000000000E+01 0.  0.
    9000005    1    3    3    0    0 -0.26394642149E+02 -0.48686079634E+02  0.53569940894E+02  0.77056797569E+02  0.10000000000E+01 0.  0.
         21    1    1    2  502  501  0.41314667985E+02  0.37276768240E+02 -0.32862621212E+02  0.64625158522E+02  0.00000000000E+00 0. -1.
<mgrwt>
<rscale>  1 0.13682629E+03</rscale>
<asrwt>0</asrwt>
<pdfrwt beam="1">  1        4 0.12724919E-01 0.13682629E+03</pdfrwt>
<pdfrwt beam="2">  1       -4 0.18273376E-01 0.13682629E+03</pdfrwt>
<totfact> 0.21930556E+03</totfact>
</mgrwt>
</event>
<event>
 6    4  0.1195577E-003  0.1420756E+03  0.7818608E-02  0.1210563E+00
          4   -1    0    0  502    0  0.00000000000E+00  0.00000000000E+00  0.12956814473E+03  0.12957436872E+03  0.12700000000E+01 0. -1.
         -4   -1    0    0    0  501 -0.00000000000E+00 -0.00000000000E+00 -0.85094382478E+02  0.85103859074E+02  0.12700000000E+01 0. -1.
         25    2    1    2    0    0  0.31354187883E+02  0.59803829864E+02  0.23765523698E+02  0.14404952040E+03  0.12500352414E+03 0.  0.
    9000005    1    3    3    0    0  0.70145296285E+01  0.76293467828E+02 -0.30383552387E+02  0.82426070601E+02  0.10000000000E+01 0.  0.
    9000005    1    3    3    0    0  0.24339658255E+02 -0.16489637964E+02  0.54149076085E+02  0.61623449798E+02  0.10000000000E+01 0.  0.
         21    1    1    2  502  501 -0.31354187883E+02 -0.59803829864E+02  0.20708238557E+02  0.70628707395E+02  0.00000000000E+00 0. -1.
<mgrwt>
<rscale>  1 0.14207556E+03</rscale>
<asrwt>0</asrwt>
<pdfrwt beam="1">  1        4 0.19934768E-01 0.14207556E+03</pdfrwt>
<pdfrwt beam="2">  1       -4 0.13092651E-01 0.14207556E+03</pdfrwt>
<totfact> 0.18015352E+03</totfact>
</mgrwt>
</event>
<event>
 6    4  0.1195577E-003  0.1270870E+03  0.7818608E-02  0.1231843E+00
          4   -1    0    0  502    0  0.00000000000E+00  0.00000000000E+00  0.13616524988E+03  0.13617117233E+03  0.12700000000E+01 0. -1.
         -4   -1    0    0    0  501 -0.00000000000E+00 -0.00000000000E+00 -0.42980577356E+02  0.42999336388E+02  0.12700000000E+01 0. -1.
         25    2    1    2    0    0 -0.17924954605E+02 -0.14267474370E+02  0.64677594192E+02  0.14259841092E+03  0.12500500304E+03 0.  0.
    9000005    1    3    3    0    0 -0.26653951549E+02  0.52717856499E+02  0.24230274299E+02  0.63856962969E+02  0.10000000000E+01 0.  0.
    9000005    1    3    3    0    0  0.87289969447E+01 -0.66985330868E+02  0.40447319893E+02  0.78741447953E+02  0.10000000000E+01 0.  0.
         21    1    1    2  502  501  0.17924954605E+02  0.14267474370E+02  0.28507078332E+02  0.36572097800E+02  0.00000000000E+00 0.  1.
<mgrwt>
<rscale>  1 0.12708704E+03</rscale>
<asrwt>0</asrwt>
<pdfrwt beam="1">  1        4 0.20950398E-01 0.12708704E+03</pdfrwt>
<pdfrwt beam="2">  1       -4 0.66142953E-02 0.12708704E+03</pdfrwt>
<totfact> 0.50416740E+03</totfact>
</mgrwt>
</event>
<event>
 6    4  0.1195577E-003  0.1266791E+03  0.7818608E-02  0.1232468E+00
          4   -1    0    0  502    0  0.00000000000E+00  0.00000000000E+00  0.57773034785E+01  0.59152460205E+01  0.12700000000E+01 0.  1.
         -4   -1    0    0    0  501 -0.00000000000E+00 -0.00000000000E+00 -0.92682344450E+03  0.92682431462E+03  0.12700000000E+01 0.  1.
         25    2    1    2    0    0  0.20089529568E+02  0.43363410400E+01 -0.79211111889E+03  0.80217680568E+03  0.12500083939E+03 0.  0.
    9000005    1    3    3    0    0  0.67527640754E+02 -0.21424520890E+02 -0.38056355467E+03  0.38710284358E+03  0.10000000000E+01 0.  0.
    9000005    1    3    3    0    0 -0.47438111186E+02  0.25760861929E+02 -0.41154756422E+03  0.41507396210E+03  0.10000000000E+01 0.  0.
         21    1    1    2  502  501 -0.20089529568E+02 -0.43363410400E+01 -0.12893502213E+03  0.13056275496E+03  0.00000000000E+00 0. -1.
<mgrwt>
<rscale>  1 0.12667913E+03</rscale>
<asrwt>0</asrwt>
<pdfrwt beam="1">  1        4 0.89949455E-03 0.12667913E+03</pdfrwt>
<pdfrwt beam="2">  1       -4 0.14259878E+00 0.12667913E+03</pdfrwt>
<totfact> 0.20306057E+03</totfact>
</mgrwt>
</event>
<event>
 6    4  0.1195577E-003  0.1270871E+03  0.7818608E-02  0.1231843E+00
         -4   -1    0    0    0  501 -0.00000000000E+00  0.00000000000E+00  0.15800547403E+03  0.15801057788E+03  0.12700000000E+01 0.  1.
          4   -1    0    0  502    0  0.00000000000E+00 -0.00000000000E+00 -0.41245697036E+02  0.41265244746E+02  0.12700000000E+01 0.  1.
         25    2    1    2    0    0 -0.18868827730E+02  0.13078686614E+02  0.12151258756E+03  0.17583069709E+03  0.12499616153E+03 0.  0.
    9000005    1    3    3    0    0 -0.39651223338E+02 -0.47568066631E+02  0.70920280813E+02  0.94157456984E+02  0.10000000000E+01 0.  0.
    9000005    1    3    3    0    0  0.20782395608E+02  0.60646753244E+02  0.50592306749E+02  0.81673240101E+02  0.10000000000E+01 0.  0.
         21    1    1    2  502  501  0.18868827730E+02 -0.13078686614E+02 -0.47528105705E+01  0.23445125544E+02  0.00000000000E+00 0.  1.
<mgrwt>
<rscale>  1 0.12708708E+03</rscale>
<asrwt>0</asrwt>
<pdfrwt beam="2">  1        4 0.63473881E-02 0.12708708E+03</pdfrwt>
<pdfrwt beam="1">  1       -4 0.24310431E-01 0.12708708E+03</pdfrwt>
<totfact> 0.41123567E+03</totfact>
</mgrwt>
</event>
<event>
 6    4  0.1195577E-003  0.1285128E+03  0.7818608E-02  0.1229679E+00
          4   -1    0    0  502    0  0.00000000000E+00  0.00000000000E+00  0.25495092507E+03  0.25495408821E+03  0.12700000000E+01 0. -1.
         -4   -1    0    0    0  501 -0.00000000000E+00 -0.00000000000E+00 -0.28618096756E+02  0.28646262617E+02  0.12700000000E+01 0. -1.
         25    2    1    2    0    0  0.10989064309E+01 -0.29829058362E+02  0.13020584089E+03  0.18294560415E+03  0.12499821101E+03 0.  0.
    9000005    1    3    3    0    0  0.29849984193E+02  0.36538140958E+02  0.86212879511E+02  0.98283863857E+02  0.10000000000E+01 0.  0.
    9000005    1    3    3    0    0 -0.28751077762E+02 -0.66367199320E+02  0.43992961382E+02  0.84661740292E+02  0.10000000000E+01 0.  0.
         21    1    1    2  502  501 -0.10989064309E+01  0.29829058362E+02  0.96126987424E+02  0.10065474668E+03  0.00000000000E+00 0. -1.
<mgrwt>
<rscale>  1 0.12851277E+03</rscale>
<asrwt>0</asrwt>
<pdfrwt beam="1">  1        4 0.39225628E-01 0.12851277E+03</pdfrwt>
<pdfrwt beam="2">  1       -4 0.44051942E-02 0.12851277E+03</pdfrwt>
<totfact> 0.29985521E+03</totfact>
</mgrwt>
</event>
<event>
 6    4  0.1195577E-003  0.1306275E+03  0.7818608E-02  0.1226528E+00
          4   -1    0    0  502    0  0.00000000000E+00  0.00000000000E+00  0.18270607365E+04  0.18270611779E+04  0.12700000000E+01 0. -1.
         -4   -1    0    0    0  501 -0.00000000000E+00 -0.00000000000E+00 -0.49579887143E+01  0.51180613607E+01  0.12700000000E+01 0. -1.
         25    2    1    2    0    0 -0.31206651284E+02 -0.21545642229E+02  0.91425277862E+03  0.92353759576E+03  0.12500191109E+03 0.  0.
    9000005    1    3    3    0    0  0.10066052850E+02  0.30943876103E+02  0.76652019593E+02  0.83278934888E+02  0.10000000000E+01 0.  0.
    9000005    1    3    3    0    0 -0.41272704133E+02 -0.52489518332E+02  0.83760075903E+03  0.84025866087E+03  0.10000000000E+01 0.  0.
         21    1    1    2  502  501  0.31206651284E+02  0.21545642229E+02  0.90784996921E+03  0.90864164354E+03  0.00000000000E+00 0. -1.
<mgrwt>
<rscale>  1 0.13062751E+03</rscale>
<asrwt>0</asrwt>
<pdfrwt beam="1">  1        4 0.28109849E+00 0.13062751E+03</pdfrwt>
<pdfrwt beam="2">  1       -4 0.77511507E-03 0.13062751E+03</pdfrwt>
<totfact> 0.34790143E+02</totfact>
</mgrwt>
</event>
<event>
 6    4  0.1195577E-003  0.1781367E+03  0.7818608E-02  0.1169619E+00
         -4   -1    0    0    0  501 -0.00000000000E+00  0.00000000000E+00  0.96367088609E+02  0.96375456766E+02  0.12700000000E+01 0. -1.
          4   -1    0    0  502    0  0.00000000000E+00 -0.00000000000E+00 -0.31640046270E+03  0.31640301152E+03  0.12700000000E+01 0. -1.
         25    2    1    2    0    0 -0.49123333476E+02  0.11702339178E+03 -0.22351204255E+03  0.28581517733E+03  0.12500042525E+03 0.  0.
    9000005    1    3    3    0    0  0.33095152659E+02  0.79632372477E+02 -0.12813089731E+03  0.15445106254E+03  0.10000000000E+01 0.  0.
    9000005    1    3    3    0    0 -0.82218486135E+02  0.37391019305E+02 -0.95381145242E+02  0.13136411479E+03  0.10000000000E+01 0.  0.
         21    1    1    2  502  501  0.49123333476E+02 -0.11702339178E+03  0.34786684525E+01  0.12696329096E+03  0.00000000000E+00 0. -1.
<mgrwt>
<rscale>  1 0.17813670E+03</rscale>
<asrwt>0</asrwt>
<pdfrwt beam="2">  1        4 0.48677834E-01 0.17813670E+03</pdfrwt>
<pdfrwt beam="1">  1       -4 0.14826546E-01 0.17813670E+03</pdfrwt>
<totfact> 0.27523176E+02</totfact>
</mgrwt>
</event>
<event>
 6    4  0.1195577E-003  0.1305753E+03  0.7818608E-02  0.1226605E+00
         -4   -1    0    0    0  501 -0.00000000000E+00  0.00000000000E+00  0.10627007306E+02  0.10702625112E+02  0.12700000000E+01 0.  1.
          4   -1    0    0  502    0  0.00000000000E+00 -0.00000000000E+00 -0.67498017655E+03  0.67498137132E+03  0.12700000000E+01 0.  1.
         25    2    1    2    0    0 -0.33414468250E+02 -0.17567139874E+02 -0.47598915652E+03  0.49357430803E+03  0.12499915731E+03 0.  0.
    9000005    1    3    3    0    0 -0.52894636000E+02  0.18464122124E+01 -0.75883304565E+02  0.92523119636E+02  0.10000000000E+01 0.  0.
    9000005    1    3    3    0    0  0.19480167750E+02 -0.19413552087E+02 -0.40010585196E+03  0.40105118839E+03  0.10000000000E+01 0.  0.
         21    1    1    2  502  501  0.33414468250E+02  0.17567139874E+02 -0.18836401272E+03  0.19210968841E+03  0.00000000000E+00 0.  1.
<mgrwt>
<rscale>  1 0.13057534E+03</rscale>
<asrwt>0</asrwt>
<pdfrwt beam="2">  1        4 0.10384898E+00 0.13057534E+03</pdfrwt>
<pdfrwt beam="1">  1       -4 0.16408334E-02 0.13057534E+03</pdfrwt>
<totfact> 0.17678637E+03</totfact>
</mgrwt>
</event>
<event>
 6    4  0.1195577E-003  0.1269750E+03  0.7818608E-02  0.1232015E+00
          4   -1    0    0  502    0  0.00000000000E+00  0.00000000000E+00  0.18855647716E+03  0.18856075408E+03  0.12700000000E+01 0. -1.
         -4   -1    0    0    0  501 -0.00000000000E+00 -0.00000000000E+00 -0.29558389842E+02  0.29585660547E+02  0.12700000000E+01 0. -1.
         25    2    1    2    0    0 -0.18827603016E+02  0.11930530419E+02  0.13244908828E+03  0.18348136679E+03  0.12500333908E+03 0.  0.
    9000005    1    3    3    0    0  0.43166653376E+02  0.28839877078E+02  0.23510000456E+02  0.56998408706E+02  0.10000000000E+01 0.  0.
    9000005    1    3    3    0    0 -0.61994256392E+02 -0.16909346659E+02  0.10893908783E+03  0.12648295809E+03  0.10000000000E+01 0.  0.
         21    1    1    2  502  501  0.18827603016E+02 -0.11930530419E+02  0.26548999033E+02  0.34665047830E+02  0.00000000000E+00 0. -1.
<mgrwt>
<rscale>  1 0.12697500E+03</rscale>
<asrwt>0</asrwt>
<pdfrwt beam="1">  1        4 0.29011115E-01 0.12697500E+03</pdfrwt>
<pdfrwt beam="2">  1       -4 0.45498714E-02 0.12697500E+03</pdfrwt>
<totfact> 0.50642931E+03</totfact>
</mgrwt>
</event>
<event>
 6    4  0.1195577E-003  0.1281927E+03  0.7818608E-02  0.1230162E+00
          4   -1    0    0  502    0  0.00000000000E+00  0.00000000000E+00  0.62709556832E+02  0.62722415595E+02  0.12700000000E+01 0. -1.
         -4   -1    0    0    0  501 -0.00000000000E+00 -0.00000000000E+00 -0.10870940760E+03  0.10871682575E+03  0.12700000000E+01 0. -1.
         25    2    1    2    0    0 -0.53149198012E+00  0.28431385751E+02 -0.57838928326E+02  0.14063680740E+03  0.12499897515E+03 0.  0.
    9000005    1    3    3    0    0  0.92165790034E+01 -0.59923874991E+01 -0.91106120992E+02  0.91772432236E+02  0.10000000000E+01 0.  0.
    9000005    1    3    3    0    0 -0.97480709835E+01  0.34423773250E+02  0.33267192666E+02  0.48864375168E+02  0.10000000000E+01 0.  0.
         21    1    1    2  502  501  0.53149198012E+00 -0.28431385751E+02  0.11839077555E+02  0.30802433942E+02  0.00000000000E+00 0. -1.
<mgrwt>
<rscale>  1 0.12819271E+03</rscale>
<asrwt>0</asrwt>
<pdfrwt beam="1">  1        4 0.96491839E-02 0.12819271E+03</pdfrwt>
<pdfrwt beam="2">  1       -4 0.16726084E-01 0.12819271E+03</pdfrwt>
<totfact> 0.40417405E+03</totfact>
</mgrwt>
</event>
<event>
 6    4  0.1195577E-003  0.1746143E+03  0.7818608E-02  0.1173120E+00
          4   -1    0    0  502    0  0.00000000000E+00  0.00000000000E+00  0.64416423430E+02  0.64428941536E+02  0.12700000000E+01 0. -1.
         -4   -1    0    0    0  501 -0.00000000000E+00 -0.00000000000E+00 -0.40350341323E+03  0.40350541184E+03  0.12700000000E+01 0. -1.
         25    2    1    2    0    0 -0.43485478702E+01 -0.12184480480E+03 -0.10433923383E+03  0.20341294545E+03  0.12500033733E+03 0.  0.
    9000005    1    3    3    0    0  0.40907764424E+02 -0.68743601750E+02 -0.10698128955E+03  0.13358564401E+03  0.10000000000E+01 0.  0.
    9000005    1    3    3    0    0 -0.45256312294E+02 -0.53101203046E+02  0.26420557175E+01  0.69827301435E+02  0.10000000000E+01 0.  0.
         21    1    1    2  502  501  0.43485478702E+01  0.12184480480E+03 -0.23474775596E+03  0.26452140793E+03  0.00000000000E+00 0. -1.
<mgrwt>
<rscale>  1 0.17461429E+03</rscale>
<asrwt>0</asrwt>
<pdfrwt beam="1">  1        4 0.99113359E-02 0.17461429E+03</pdfrwt>
<pdfrwt beam="2">  1       -4 0.62078564E-01 0.17461429E+03</pdfrwt>
<totfact> 0.33090521E+02</totfact>
</mgrwt>
</event>
<event>
 6    4  0.1195577E-003  0.1331900E+03  0.7818608E-02  0.1222798E+00
          4   -1    0    0  502    0  0.00000000000E+00  0.00000000000E+00  0.21696724075E+02  0.21733861497E+02  0.12700000000E+01 0.  1.
         -4   -1    0    0    0  501 -0.00000000000E+00 -0.00000000000E+00 -0.44446733080E+03  0.44446914522E+03  0.12700000000E+01 0.  1.
         25    2    1    2    0    0  0.34522905909E+02  0.30382303208E+02 -0.38267202364E+03  0.40518815814E+03  0.12499860176E+03 0.  0.
    9000005    1    3    3    0    0  0.69703642480E+02  0.16022684128E+02 -0.11939688666E+03  0.13918311940E+03  0.10000000000E+01 0.  0.
    9000005    1    3    3    0    0 -0.35180736571E+02  0.14359619080E+02 -0.26327513698E+03  0.26600503874E+03  0.10000000000E+01 0.  0.
         21    1    1    2  502  501 -0.34522905909E+02 -0.30382303208E+02 -0.40098583091E+02  0.61014848575E+02  0.00000000000E+00 0.  1.
<mgrwt>
<rscale>  1 0.13318996E+03</rscale>
<asrwt>0</asrwt>
<pdfrwt beam="1">  1        4 0.33409542E-02 0.13318996E+03</pdfrwt>
<pdfrwt beam="2">  1       -4 0.68382579E-01 0.13318996E+03</pdfrwt>
<totfact> 0.14998848E+03</totfact>
</mgrwt>
</event>
<event>
 6    4  0.1195577E-003  0.1271398E+03  0.7818608E-02  0.1231763E+00
         -4   -1    0    0    0  501 -0.00000000000E+00  0.00000000000E+00  0.27607184618E+02  0.27636380778E+02  0.12700000000E+01 0. -1.
          4   -1    0    0  502    0  0.00000000000E+00 -0.00000000000E+00 -0.20482365653E+03  0.20482759378E+03  0.12700000000E+01 0. -1.
         25    2    1    2    0    0 -0.15964936768E+02 -0.16871003378E+02 -0.14706762631E+03  0.19440529812E+03  0.12500009307E+03 0.  0.
    9000005    1    3    3    0    0 -0.55630519740E+02 -0.18026343653E+02 -0.14300509635E+03  0.15450294941E+03  0.10000000000E+01 0.  0.
    9000005    1    3    3    0    0  0.39665582972E+02  0.11553402758E+01 -0.40625299604E+01  0.39902348719E+02  0.10000000000E+01 0.  0.
         21    1    1    2  502  501  0.15964936768E+02  0.16871003378E+02 -0.30148845595E+02  0.38058676431E+02  0.00000000000E+00 0.  1.
<mgrwt>
<rscale>  1 0.12713982E+03</rscale>
<asrwt>0</asrwt>
<pdfrwt beam="2">  1        4 0.31513879E-01 0.12713982E+03</pdfrwt>
<pdfrwt beam="1">  1       -4 0.42498080E-02 0.12713982E+03</pdfrwt>
<totfact> 0.48306066E+03</totfact>
</mgrwt>
</event>
<event>
 6    4  0.1195577E-003  0.1316968E+03  0.7818608E-02  0.1224960E+00
         -4   -1    0    0    0  501 -0.00000000000E+00  0.00000000000E+00  0.41759291251E+02  0.41778598658E+02  0.12700000000E+01 0.  1.
          4   -1    0    0  502    0  0.00000000000E+00 -0.00000000000E+00 -0.29932631244E+03  0.29932900664E+03  0.12700000000E+01 0.  1.
         25    2    1    2    0    0  0.41324183635E+02 -0.29850152156E+01 -0.70247259471E+02  0.14926055268E+03  0.12500974624E+03 0.  0.
    9000005    1    3    3    0    0 -0.84416653540E+01 -0.53568267133E+02 -0.53835967340E+02  0.76420758548E+02  0.10000000000E+01 0.  0.
    9000005    1    3    3    0    0  0.49765848989E+02  0.50583251918E+02 -0.16411292131E+02  0.72839794134E+02  0.10000000000E+01 0.  0.
         21    1    1    2  502  501 -0.41324183635E+02  0.29850152156E+01 -0.18731976172E+03  0.19184705262E+03  0.00000000000E+00 0.  1.
<mgrwt>
<rscale>  1 0.13169675E+03</rscale>
<asrwt>0</asrwt>
<pdfrwt beam="2">  1        4 0.46051893E-01 0.13169675E+03</pdfrwt>
<pdfrwt beam="1">  1       -4 0.64261990E-02 0.13169675E+03</pdfrwt>
<totfact> 0.11931740E+03</totfact>
</mgrwt>
</event>
<event>
 6    4  0.1195577E-003  0.1275656E+03  0.7818608E-02  0.1231113E+00
         -4   -1    0    0    0  501 -0.00000000000E+00  0.00000000000E+00  0.27169534065E+03  0.27169830885E+03  0.12700000000E+01 0.  1.
          4   -1    0    0  502    0  0.00000000000E+00 -0.00000000000E+00 -0.21734528848E+02  0.21771601784E+02  0.12700000000E+01 0.  1.
         25    2    1    2    0    0  0.18545553985E+02  0.17430670784E+02  0.19675295999E+03  0.23448820711E+03  0.12500090459E+03 0.  0.
    9000005    1    3    3    0    0  0.46518520649E+02 -0.16240200139E+02  0.21359158333E+02  0.53711549118E+02  0.10000000000E+01 0.  0.
    9000005    1    3    3    0    0 -0.27972966664E+02  0.33670870923E+02  0.17539380166E+03  0.18077665799E+03  0.10000000000E+01 0.  0.
         21    1    1    2  502  501 -0.18545553985E+02 -0.17430670784E+02  0.53207851810E+02  0.58981703526E+02  0.00000000000E+00 0.  1.
<mgrwt>
<rscale>  1 0.12756564E+03</rscale>
<asrwt>0</asrwt>
<pdfrwt beam="2">  1        4 0.33468534E-02 0.12756564E+03</pdfrwt>
<pdfrwt beam="1">  1       -4 0.41802368E-01 0.12756564E+03</pdfrwt>
<totfact> 0.40798105E+03</totfact>
</mgrwt>
</event>
<event>
 6    4  0.1195577E-003  0.1309502E+03  0.7818608E-02  0.1226053E+00
         -4   -1    0    0    0  501 -0.00000000000E+00  0.00000000000E+00  0.80981375739E+02  0.80991333589E+02  0.12700000000E+01 0. -1.
          4   -1    0    0  502    0  0.00000000000E+00 -0.00000000000E+00 -0.89192731175E+02  0.89201772372E+02  0.12700000000E+01 0. -1.
         25    2    1    2    0    0  0.32211196167E+02  0.22034230152E+02 -0.52770646533E+01  0.13105644132E+03  0.12499949977E+03 0.  0.
    9000005    1    3    3    0    0  0.59106979898E+02  0.42593472715E+02  0.32965783931E+02  0.79972382112E+02  0.10000000000E+01 0.  0.
    9000005    1    3    3    0    0 -0.26895783730E+02 -0.20559242563E+02 -0.38242848585E+02  0.51084059207E+02  0.10000000000E+01 0.  0.
         21    1    1    2  502  501 -0.32211196167E+02 -0.22034230152E+02 -0.29342907826E+01  0.39136664642E+02  0.00000000000E+00 0. -1.
<mgrwt>
<rscale>  1 0.13095016E+03</rscale>
<asrwt>0</asrwt>
<pdfrwt beam="2">  1        4 0.13723420E-01 0.13095016E+03</pdfrwt>
<pdfrwt beam="1">  1       -4 0.12460135E-01 0.13095016E+03</pdfrwt>
<totfact> 0.37203249E+03</totfact>
</mgrwt>
</event>
<event>
 6    4  0.1195577E-003  0.1283074E+03  0.7818608E-02  0.1229989E+00
         -4   -1    0    0    0  501 -0.00000000000E+00  0.00000000000E+00  0.29608523045E+02  0.29635747618E+02  0.12700000000E+01 0.  1.
          4   -1    0    0  502    0  0.00000000000E+00 -0.00000000000E+00 -0.23008929027E+03  0.23009279518E+03  0.12700000000E+01 0.  1.
         25    2    1    2    0    0  0.26524971680E+02 -0.11614608607E+02 -0.18930538081E+03  0.22869046108E+03  0.12499730608E+03 0.  0.
    9000005    1    3    3    0    0 -0.48613527058E+02  0.10441297005E+02 -0.66515714140E+02  0.83052007343E+02  0.10000000000E+01 0.  0.
    9000005    1    3    3    0    0  0.75138498738E+02 -0.22055905611E+02 -0.12278966667E+03  0.14563845374E+03  0.10000000000E+01 0.  0.
         21    1    1    2  502  501 -0.26524971680E+02  0.11614608607E+02 -0.11175386411E+02  0.31038081725E+02  0.00000000000E+00 0.  1.
<mgrwt>
<rscale>  1 0.12830744E+03</rscale>
<asrwt>0</asrwt>
<pdfrwt beam="2">  1        4 0.35400715E-01 0.12830744E+03</pdfrwt>
<pdfrwt beam="1">  1       -4 0.45575214E-02 0.12830744E+03</pdfrwt>
<totfact> 0.34661435E+03</totfact>
</mgrwt>
</event>
<event>
 6    4  0.1195577E-003  0.1328328E+03  0.7818608E-02  0.1223312E+00
          4   -1    0    0  502    0  0.00000000000E+00  0.00000000000E+00  0.41786120086E+03  0.41786313080E+03  0.12700000000E+01 0. -1.
         -4   -1    0    0    0  501 -0.00000000000E+00 -0.00000000000E+00 -0.19016648719E+02  0.19059009116E+02  0.12700000000E+01 0. -1.
         25    2    1    2    0    0  0.27974093057E+02 -0.35173228811E+02  0.28151304727E+03  0.31127824654E+03  0.12499938032E+03 0.  0.
    9000005    1    3    3    0    0  0.12724365303E+02 -0.22433912327E+02 -0.30771468828E+01  0.25993436241E+02  0.10000000000E+01 0.  0.
    9000005    1    3    3    0    0  0.15249727754E+02 -0.12739316484E+02  0.28459019415E+03  0.28528481030E+03  0.10000000000E+01 0.  0.
         21    1    1    2  502  501 -0.27974093057E+02  0.35173228811E+02  0.11733150487E+03  0.12564389338E+03  0.00000000000E+00 0. -1.
<mgrwt>
<rscale>  1 0.13283279E+03</rscale>
<asrwt>0</asrwt>
<pdfrwt beam="1">  1        4 0.64289742E-01 0.13283279E+03</pdfrwt>
<pdfrwt beam="2">  1       -4 0.29290454E-02 0.13283279E+03</pdfrwt>
<totfact> 0.21023680E+03</totfact>
</mgrwt>
</event>
<event>
 6    4  0.1195577E-003  0.1376334E+03  0.7818608E-02  0.1216549E+00
         -4   -1    0    0    0  501 -0.00000000000E+00  0.00000000000E+00  0.12712840875E+03  0.12713475218E+03  0.12700000000E+01 0. -1.
          4   -1    0    0  502    0  0.00000000000E+00 -0.00000000000E+00 -0.77511121288E+02  0.77521524903E+02  0.12700000000E+01 0. -1.
         25    2    1    2    0    0 -0.16177057489E+02  0.55286200436E+02  0.51676799775E+02  0.14701512218E+03  0.12499877346E+03 0.  0.
    9000005    1    3    3    0    0  0.51297324552E+02  0.43583477022E+02  0.37551365925E+02  0.77084629196E+02  0.10000000000E+01 0.  0.
    9000005    1    3    3    0    0 -0.67474382041E+02  0.11702723414E+02  0.14125433849E+02  0.69930492980E+02  0.10000000000E+01 0.  0.
         21    1    1    2  502  501  0.16177057489E+02 -0.55286200436E+02 -0.20595123125E+01  0.57641154904E+02  0.00000000000E+00 0. -1.
<mgrwt>
<rscale>  1 0.13763341E+03</rscale>
<asrwt>0</asrwt>
<pdfrwt beam="2">  1        4 0.11926076E-01 0.13763341E+03</pdfrwt>
<pdfrwt beam="1">  1       -4 0.19559505E-01 0.13763341E+03</pdfrwt>
<totfact> 0.21730695E+03</totfact>
</mgrwt>
</event>
<event>
 6    4  0.1195577E-003  0.1287138E+03  0.7818608E-02  0.1229377E+00
         -4   -1    0    0    0  501 -0.00000000000E+00  0.00000000000E+00  0.23192959122E+02  0.23227704425E+02  0.12700000000E+01 0.  1.
          4   -1    0    0  502    0  0.00000000000E+00 -0.00000000000E+00 -0.38189458650E+03  0.38189669820E+03  0.12700000000E+01 0.  1.
         25    2    1    2    0    0  0.37716036992E+01  0.30435180460E+02 -0.16629263118E+03  0.21028665725E+03  0.12500685513E+03 0.  0.
    9000005    1    3    3    0    0  0.38459984016E+02  0.44050461745E+02 -0.16263253950E+03  0.17282926967E+03  0.10000000000E+01 0.  0.
    9000005    1    3    3    0    0 -0.34688380317E+02 -0.13615281285E+02 -0.36600916784E+01  0.37457387583E+02  0.10000000000E+01 0.  0.
         21    1    1    2  502  501 -0.37716036992E+01 -0.30435180460E+02 -0.19240899620E+03  0.19483774537E+03  0.00000000000E+00 0.  1.
<mgrwt>
<rscale>  1 0.12871379E+03</rscale>
<asrwt>0</asrwt>
<pdfrwt beam="2">  1        4 0.58755844E-01 0.12871379E+03</pdfrwt>
<pdfrwt beam="1">  1       -4 0.35709830E-02 0.12871379E+03</pdfrwt>
<totfact> 0.18481408E+03</totfact>
</mgrwt>
</event>
<event>
 6    4  0.1195577E-003  0.1278832E+03  0.7818608E-02  0.1230631E+00
          4   -1    0    0  502    0  0.00000000000E+00  0.00000000000E+00  0.13305028925E+03  0.13305635036E+03  0.12700000000E+01 0.  1.
         -4   -1    0    0    0  501 -0.00000000000E+00 -0.00000000000E+00 -0.11830823608E+03  0.11831505240E+03  0.12700000000E+01 0.  1.
         25    2    1    2    0    0  0.17848368329E+02 -0.20265267311E+02 -0.81344678152E+02  0.15156205827E+03  0.12499942213E+03 0.  0.
    9000005    1    3    3    0    0  0.31155200792E+02  0.39251405666E+02 -0.75043318959E+02  0.90243111114E+02  0.10000000000E+01 0.  0.
    9000005    1    3    3    0    0 -0.13306832462E+02 -0.59516672977E+02 -0.63013591930E+01  0.61318947154E+02  0.10000000000E+01 0.  0.
         21    1    1    2  502  501 -0.17848368329E+02  0.20265267311E+02  0.96086731324E+02  0.99809344491E+02  0.00000000000E+00 0.  1.
<mgrwt>
<rscale>  1 0.12788315E+03</rscale>
<asrwt>0</asrwt>
<pdfrwt beam="1">  1        4 0.20470266E-01 0.12788315E+03</pdfrwt>
<pdfrwt beam="2">  1       -4 0.18202258E-01 0.12788315E+03</pdfrwt>
<totfact> 0.94301125E+02</totfact>
</mgrwt>
</event>
<event>
 6    4  0.1195577E-003  0.1303692E+03  0.7818608E-02  0.1226909E+00
         -4   -1    0    0    0  501 -0.00000000000E+00  0.00000000000E+00  0.28811267822E+03  0.28811547729E+03  0.12700000000E+01 0.  1.
          4   -1    0    0  502    0  0.00000000000E+00 -0.00000000000E+00 -0.25000332647E+02  0.25032569433E+02  0.12700000000E+01 0.  1.
         25    2    1    2    0    0  0.36968377305E+02 -0.22434898481E+01  0.22475340476E+03  0.25982729553E+03  0.12499774551E+03 0.  0.
    9000005    1    3    3    0    0 -0.38389986727E+02  0.29367497847E+02  0.75179432698E+02  0.89382258370E+02  0.10000000000E+01 0.  0.
    9000005    1    3    3    0    0  0.75358364032E+02 -0.31610987695E+02  0.14957397207E+03  0.17044503716E+03  0.10000000000E+01 0.  0.
         21    1    1    2  502  501 -0.36968377305E+02  0.22434898481E+01  0.38358940809E+02  0.53320751188E+02  0.00000000000E+00 0.  1.
<mgrwt>
<rscale>  1 0.13036921E+03</rscale>
<asrwt>0</asrwt>
<pdfrwt beam="2">  1        4 0.38489003E-02 0.13036921E+03</pdfrwt>
<pdfrwt beam="1">  1       -4 0.44327720E-01 0.13036921E+03</pdfrwt>
<totfact> 0.29276701E+03</totfact>
</mgrwt>
</event>
<event>
 6    4  0.1195577E-003  0.1267640E+03  0.7818608E-02  0.1232338E+00
         -4   -1    0    0    0  501 -0.00000000000E+00  0.00000000000E+00  0.76979717777E+02  0.76990193200E+02  0.12700000000E+01 0.  1.
          4   -1    0    0  502    0  0.00000000000E+00 -0.00000000000E+00 -0.76540812181E+02  0.76551347665E+02  0.12700000000E+01 0.  1.
         25    2    1    2    0    0  0.19484628336E+02 -0.80272986236E+01  0.15401859669E+02  0.12769626549E+03  0.12500012270E+03 0.  0.
    9000005    1    3    3    0    0  0.24785852226E+02  0.44929629588E+02 -0.28492906818E+02  0.58701412457E+02  0.10000000000E+01 0.  0.
    9000005    1    3    3    0    0 -0.53012238897E+01 -0.52956928212E+02  0.43894766487E+02  0.68994853035E+02  0.10000000000E+01 0.  0.
         21    1    1    2  502  501 -0.19484628336E+02  0.80272986236E+01 -0.14962954072E+02  0.25845275374E+02  0.00000000000E+00 0.  1.
<mgrwt>
<rscale>  1 0.12676403E+03</rscale>
<asrwt>0</asrwt>
<pdfrwt beam="2">  1        4 0.11777126E-01 0.12676403E+03</pdfrwt>
<pdfrwt beam="1">  1       -4 0.11844650E-01 0.12676403E+03</pdfrwt>
<totfact> 0.52332413E+03</totfact>
</mgrwt>
</event>
<event>
 6    4  0.1195577E-003  0.1396945E+03  0.7818608E-02  0.1213741E+00
         -4   -1    0    0    0  501 -0.00000000000E+00  0.00000000000E+00  0.52319824689E+03  0.52319978828E+03  0.12700000000E+01 0. -1.
          4   -1    0    0  502    0  0.00000000000E+00 -0.00000000000E+00 -0.19487305288E+02  0.19528644791E+02  0.12700000000E+01 0. -1.
         25    2    1    2    0    0  0.53101456582E+02 -0.32696513147E+02  0.35047909783E+03  0.37729317500E+03  0.12500286087E+03 0.  0.
    9000005    1    3    3    0    0  0.82755972816E+02  0.12427882841E+02  0.18087110065E+03  0.19929465211E+03  0.10000000000E+01 0.  0.
    9000005    1    3    3    0    0 -0.29654516233E+02 -0.45124395987E+02  0.16960799718E+03  0.17799852290E+03  0.10000000000E+01 0.  0.
         21    1    1    2  502  501 -0.53101456582E+02  0.32696513147E+02  0.15323184378E+03  0.16543525806E+03  0.00000000000E+00 0. -1.
<mgrwt>
<rscale>  1 0.13969446E+03</rscale>
<asrwt>0</asrwt>
<pdfrwt beam="2">  1        4 0.30013457E-02 0.13969446E+03</pdfrwt>
<pdfrwt beam="1">  1       -4 0.80495332E-01 0.13969446E+03</pdfrwt>
<totfact> 0.12563243E+03</totfact>
</mgrwt>
</event>
<event>
 6    4  0.1195577E-003  0.1270028E+03  0.7818608E-02  0.1231972E+00
         -4   -1    0    0    0  501 -0.00000000000E+00  0.00000000000E+00  0.13277190605E+03  0.13277797986E+03  0.12700000000E+01 0.  1.
          4   -1    0    0  502    0  0.00000000000E+00 -0.00000000000E+00 -0.51221719487E+02  0.51237461366E+02  0.12700000000E+01 0.  1.
         25    2    1    2    0    0  0.19950112678E+02  0.10364216360E+02  0.94287146337E+02  0.15817643735E+03  0.12499718154E+03 0.  0.
    9000005    1    3    3    0    0 -0.51105552280E+02  0.88875212905E+01  0.20676874541E+02  0.55850681726E+02  0.10000000000E+01 0.  0.
    9000005    1    3    3    0    0  0.71055664958E+02  0.14766950700E+01  0.73610271796E+02  0.10232575563E+03  0.10000000000E+01 0.  0.
         21    1    1    2  502  501 -0.19950112678E+02 -0.10364216360E+02 -0.12736959777E+02  0.25839003870E+02  0.00000000000E+00 0.  1.
<mgrwt>
<rscale>  1 0.12700283E+03</rscale>
<asrwt>0</asrwt>
<pdfrwt beam="2">  1        4 0.78819429E-02 0.12700283E+03</pdfrwt>
<pdfrwt beam="1">  1       -4 0.20428125E-01 0.12700283E+03</pdfrwt>
<totfact> 0.39552981E+03</totfact>
</mgrwt>
</event>
<event>
 6    4  0.1195577E-003  0.1306787E+03  0.7818608E-02  0.1226452E+00
         -4   -1    0    0    0  501 -0.00000000000E+00  0.00000000000E+00  0.69095553303E+03  0.69095670018E+03  0.12700000000E+01 0.  1.
          4   -1    0    0  502    0  0.00000000000E+00 -0.00000000000E+00 -0.10379586847E+02  0.10456993981E+02  0.12700000000E+01 0.  1.
         25    2    1    2    0    0 -0.11113940402E+02  0.36464354391E+02  0.49468504377E+03  0.51165438237E+03  0.12499498252E+03 0.  0.
    9000005    1    3    3    0    0  0.34020858143E+02 -0.31336546832E+02  0.13011655361E+03  0.13809676129E+03  0.10000000000E+01 0.  0.
    9000005    1    3    3    0    0 -0.45134798544E+02  0.67800901223E+02  0.36456849016E+03  0.37355762108E+03  0.10000000000E+01 0.  0.
         21    1    1    2  502  501  0.11113940402E+02 -0.36464354391E+02  0.18589090241E+03  0.18975931179E+03  0.00000000000E+00 0.  1.
<mgrwt>
<rscale>  1 0.13067867E+03</rscale>
<asrwt>0</asrwt>
<pdfrwt beam="2">  1        4 0.16029035E-02 0.13067867E+03</pdfrwt>
<pdfrwt beam="1">  1       -4 0.10630691E+00 0.13067867E+03</pdfrwt>
<totfact> 0.17349978E+03</totfact>
</mgrwt>
</event>
<event>
 6    4  0.1195577E-003  0.1280652E+03  0.7818608E-02  0.1230355E+00
          4   -1    0    0  502    0  0.00000000000E+00  0.00000000000E+00  0.10176007175E+03  0.10176799645E+03  0.12700000000E+01 0. -1.
         -4   -1    0    0    0  501 -0.00000000000E+00 -0.00000000000E+00 -0.61684914456E+02  0.61697986770E+02  0.12700000000E+01 0. -1.
         25    2    1    2    0    0 -0.21103242367E+02  0.18289641891E+02  0.21323128481E+02  0.12982826000E+03  0.12498337269E+03 0.  0.
    9000005    1    3    3    0    0 -0.71014739188E+02 -0.68286431071E+01  0.19271142595E+02  0.73906024691E+02  0.10000000000E+01 0.  0.
    9000005    1    3    3    0    0  0.49911496822E+02  0.25118284998E+02  0.20519858858E+01  0.55922235312E+02  0.10000000000E+01 0.  0.
         21    1    1    2  502  501  0.21103242367E+02 -0.18289641891E+02  0.18752028810E+02  0.33637723220E+02  0.00000000000E+00 0.  1.
<mgrwt>
<rscale>  1 0.12806522E+03</rscale>
<asrwt>0</asrwt>
<pdfrwt beam="1">  1        4 0.15657011E-01 0.12806522E+03</pdfrwt>
<pdfrwt beam="2">  1       -4 0.94916022E-02 0.12806522E+03</pdfrwt>
<totfact> 0.46649935E+03</totfact>
</mgrwt>
</event>
<event>
 6    4  0.1195577E-003  0.1274506E+03  0.7818608E-02  0.1231288E+00
         -4   -1    0    0    0  501 -0.00000000000E+00  0.00000000000E+00  0.61724703989E+02  0.61737767878E+02  0.12700000000E+01 0.  1.
          4   -1    0    0  502    0  0.00000000000E+00 -0.00000000000E+00 -0.14483901577E+03  0.14484458357E+03  0.12700000000E+01 0.  1.
         25    2    1    2    0    0  0.24847674559E+02  0.32730639206E+00 -0.82678066174E+01  0.12771845986E+03  0.12500453713E+03 0.  0.
    9000005    1    3    3    0    0  0.59859747965E+02  0.13540131942E+00 -0.46545532538E+02  0.75833332771E+02  0.10000000000E+01 0.  0.
    9000005    1    3    3    0    0 -0.35012073406E+02  0.19190507265E+00  0.38277725920E+02  0.51885127093E+02  0.10000000000E+01 0.  0.
         21    1    1    2  502  501 -0.24847674559E+02 -0.32730639206E+00 -0.74846505165E+02  0.78863891585E+02  0.00000000000E+00 0. -1.
<mgrwt>
<rscale>  1 0.12745057E+03</rscale>
<asrwt>0</asrwt>
<pdfrwt beam="2">  1        4 0.22284359E-01 0.12745057E+03</pdfrwt>
<pdfrwt beam="1">  1       -4 0.94975416E-02 0.12745057E+03</pdfrwt>
<totfact> 0.24799968E+03</totfact>
</mgrwt>
</event>
<event>
 6    4  0.1195577E-003  0.1427886E+03  0.7818608E-02  0.1209625E+00
         -4   -1    0    0    0  501 -0.00000000000E+00  0.00000000000E+00  0.50509380102E+03  0.50509539765E+03  0.12700000000E+01 0.  1.
          4   -1    0    0  502    0  0.00000000000E+00 -0.00000000000E+00 -0.39039748518E+02  0.39060400207E+02  0.12700000000E+01 0.  1.
         25    2    1    2    0    0  0.49260290936E+02  0.48342427721E+02  0.45160513124E+03  0.47364099156E+03  0.12500011098E+03 0.  0.
    9000005    1    3    3    0    0  0.15755611925E+02 -0.12507945053E+02  0.34986593023E+03  0.35044522701E+03  0.10000000000E+01 0.  0.
    9000005    1    3    3    0    0  0.33504679011E+02  0.60850372774E+02  0.10173920101E+03  0.12319576455E+03  0.10000000000E+01 0.  0.
         21    1    1    2  502  501 -0.49260290936E+02 -0.48342427721E+02  0.14448921261E+02  0.70514806294E+02  0.00000000000E+00 0.  1.
<mgrwt>
<rscale>  1 0.14278864E+03</rscale>
<asrwt>0</asrwt>
<pdfrwt beam="2">  1        4 0.60078272E-02 0.14278864E+03</pdfrwt>
<pdfrwt beam="1">  1       -4 0.77708442E-01 0.14278864E+03</pdfrwt>
<totfact> 0.45070288E+02</totfact>
</mgrwt>
</event>
<event>
 6    4  0.1195577E-003  0.1326407E+03  0.7818608E-02  0.1223589E+00
         -4   -1    0    0    0  501 -0.00000000000E+00  0.00000000000E+00  0.47954826641E+03  0.47954994809E+03  0.12700000000E+01 0.  1.
          4   -1    0    0  502    0  0.00000000000E+00 -0.00000000000E+00 -0.16722969888E+02  0.16771124645E+02  0.12700000000E+01 0.  1.
         25    2    1    2    0    0  0.39262621224E+02 -0.20629672791E+02  0.30987291807E+03  0.33706791924E+03  0.12500567988E+03 0.  0.
    9000005    1    3    3    0    0  0.56829871910E+02 -0.52378319252E+02  0.11318275605E+03  0.13705640786E+03  0.10000000000E+01 0.  0.
    9000005    1    3    3    0    0 -0.17567250685E+02  0.31748646462E+02  0.19669016202E+03  0.20001151138E+03  0.10000000000E+01 0.  0.
         21    1    1    2  502  501 -0.39262621224E+02  0.20629672791E+02  0.15295237845E+03  0.15925315350E+03  0.00000000000E+00 0.  1.
<mgrwt>
<rscale>  1 0.13264071E+03</rscale>
<asrwt>0</asrwt>
<pdfrwt beam="2">  1        4 0.25765989E-02 0.13264071E+03</pdfrwt>
<pdfrwt beam="1">  1       -4 0.73780468E-01 0.13264071E+03</pdfrwt>
<totfact> 0.19090177E+03</totfact>
</mgrwt>
</event>
<event>
 6    4  0.1195577E-003  0.1295364E+03  0.7818608E-02  0.1228145E+00
         -4   -1    0    0    0  501 -0.00000000000E+00  0.00000000000E+00  0.55543949498E+02  0.55558466734E+02  0.12700000000E+01 0.  1.
          4   -1    0    0  502    0  0.00000000000E+00 -0.00000000000E+00 -0.14457095866E+04  0.14457101444E+04  0.12700000000E+01 0.  1.
         25    2    1    2    0    0  0.27684802950E+02 -0.19757395606E+02 -0.20461794221E+02  0.13114255119E+03  0.12499152257E+03 0.  0.
    9000005    1    3    3    0    0  0.28102900238E+02  0.42550642636E+02  0.22195640429E+02  0.55623525999E+02  0.10000000000E+01 0.  0.
    9000005    1    3    3    0    0 -0.41809728779E+00 -0.62308038242E+02 -0.42657434651E+02  0.75519025192E+02  0.10000000000E+01 0.  0.
         21    1    1    2  502  501 -0.27684802950E+02  0.19757395606E+02 -0.13697038429E+04  0.13701260600E+04  0.00000000000E+00 0.  1.
<mgrwt>
<rscale>  1 0.12953642E+03</rscale>
<asrwt>0</asrwt>
<pdfrwt beam="2">  1        4 0.22241799E+00 0.12953642E+03</pdfrwt>
<pdfrwt beam="1">  1       -4 0.85463837E-02 0.12953642E+03</pdfrwt>
<totfact> 0.17843207E+01</totfact>
</mgrwt>
</event>
<event>
 6    4  0.1195577E-003  0.1277713E+03  0.7818608E-02  0.1230801E+00
         -4   -1    0    0    0  501 -0.00000000000E+00  0.00000000000E+00  0.66932538729E+02  0.66944586343E+02  0.12700000000E+01 0. -1.
          4   -1    0    0  502    0  0.00000000000E+00 -0.00000000000E+00 -0.16130496464E+03  0.16130996410E+03  0.12700000000E+01 0. -1.
         25    2    1    2    0    0  0.84993377034E+01 -0.25050213371E+02  0.25402288491E+01  0.12779652645E+03  0.12500298988E+03 0.  0.
    9000005    1    3    3    0    0 -0.37982567148E+02 -0.57784108084E+02  0.11893684638E+02  0.70172204530E+02  0.10000000000E+01 0.  0.
    9000005    1    3    3    0    0  0.46481904852E+02  0.32733894713E+02 -0.93534557887E+01  0.57624321922E+02  0.10000000000E+01 0.  0.
         21    1    1    2  502  501 -0.84993377034E+01  0.25050213371E+02 -0.96912654760E+02  0.10045802399E+03  0.00000000000E+00 0. -1.
<mgrwt>
<rscale>  1 0.12777128E+03</rscale>
<asrwt>0</asrwt>
<pdfrwt beam="2">  1        4 0.24817460E-01 0.12777128E+03</pdfrwt>
<pdfrwt beam="1">  1       -4 0.10298625E-01 0.12777128E+03</pdfrwt>
<totfact> 0.17782732E+03</totfact>
</mgrwt>
</event>
<event>
 6    4  0.1195577E-003  0.1386926E+03  0.7818608E-02  0.1215099E+00
          4   -1    0    0  502    0  0.00000000000E+00  0.00000000000E+00  0.19872450593E+02  0.19912990548E+02  0.12700000000E+01 0.  1.
         -4   -1    0    0    0  501 -0.00000000000E+00 -0.00000000000E+00 -0.58316161053E+03  0.58316299342E+03  0.12700000000E+01 0.  1.
         25    2    1    2    0    0  0.44724394027E+02 -0.40246773358E+02 -0.48438269527E+03  0.50384743791E+03  0.12496227841E+03 0.  0.
    9000005    1    3    3    0    0  0.61337273275E+02  0.12427740523E+02 -0.12041039419E+03  0.13570693739E+03  0.10000000000E+01 0.  0.
    9000005    1    3    3    0    0 -0.16612879248E+02 -0.52674513881E+02 -0.36397230107E+03  0.36814050051E+03  0.10000000000E+01 0.  0.
         21    1    1    2  502  501 -0.44724394027E+02  0.40246773358E+02 -0.78906464674E+02  0.99228546065E+02  0.00000000000E+00 0.  1.
<mgrwt>
<rscale>  1 0.13869263E+03</rscale>
<asrwt>0</asrwt>
<pdfrwt beam="1">  1        4 0.30605254E-02 0.13869263E+03</pdfrwt>
<pdfrwt beam="2">  1       -4 0.89720383E-01 0.13869263E+03</pdfrwt>
<totfact> 0.95448446E+02</totfact>
</mgrwt>
</event>
<event>
 6    4  0.1195577E-003  0.1272134E+03  0.7818608E-02  0.1231650E+00
         -4   -1    0    0    0  501 -0.00000000000E+00  0.00000000000E+00  0.16461427214E+03  0.16461917110E+03  0.12700000000E+01 0.  1.
          4   -1    0    0  502    0  0.00000000000E+00 -0.00000000000E+00 -0.39849460173E+02  0.39869692450E+02  0.12700000000E+01 0.  1.
         25    2    1    2    0    0  0.18608933870E+02  0.14565009188E+02  0.12820403203E+03  0.18060874321E+03  0.12499924953E+03 0.  0.
    9000005    1    3    3    0    0  0.66881429881E+02 -0.13884138563E+02  0.89092375613E+02  0.11226908016E+03  0.10000000000E+01 0.  0.
    9000005    1    3    3    0    0 -0.48272496012E+02  0.28449147752E+02  0.39111656419E+02  0.68339663057E+02  0.10000000000E+01 0.  0.
         21    1    1    2  502  501 -0.18608933870E+02 -0.14565009188E+02 -0.34392200652E+01  0.23880120332E+02  0.00000000000E+00 0.  1.
<mgrwt>
<rscale>  1 0.12721338E+03</rscale>
<asrwt>0</asrwt>
<pdfrwt beam="2">  1        4 0.61326193E-02 0.12721338E+03</pdfrwt>
<pdfrwt beam="1">  1       -4 0.25327206E-01 0.12721338E+03</pdfrwt>
<totfact> 0.40340961E+03</totfact>
</mgrwt>
</event>
<event>
 6    4  0.1195577E-003  0.1265913E+03  0.7818608E-02  0.1232603E+00
         -4   -1    0    0    0  501 -0.00000000000E+00  0.00000000000E+00  0.36293606456E+02  0.36315819825E+02  0.12700000000E+01 0.  1.
          4   -1    0    0  502    0  0.00000000000E+00 -0.00000000000E+00 -0.18819785981E+03  0.18820214487E+03  0.12700000000E+01 0.  1.
         25    2    1    2    0    0  0.10116208713E+02 -0.17281367465E+02 -0.79705873104E+02  0.14959407365E+03  0.12499750927E+03 0.  0.
    9000005    1    3    3    0    0  0.60894266060E+02  0.68115847278E+01 -0.13515559846E+02  0.62754917604E+02  0.10000000000E+01 0.  0.
    9000005    1    3    3    0    0 -0.50778057347E+02 -0.24092952193E+02 -0.66190313258E+02  0.86839156045E+02  0.10000000000E+01 0.  0.
         21    1    1    2  502  501 -0.10116208713E+02  0.17281367465E+02 -0.72198380246E+02  0.74923891052E+02  0.00000000000E+00 0.  1.
<mgrwt>
<rscale>  1 0.12659131E+03</rscale>
<asrwt>0</asrwt>
<pdfrwt beam="2">  1        4 0.28955555E-01 0.12659131E+03</pdfrwt>
<pdfrwt beam="1">  1       -4 0.55856702E-02 0.12659131E+03</pdfrwt>
<totfact> 0.36532513E+03</totfact>
</mgrwt>
</event>
<event>
 6    4  0.1195577E-003  0.1306301E+03  0.7818608E-02  0.1226524E+00
          4   -1    0    0  502    0  0.00000000000E+00  0.00000000000E+00  0.96848855678E+01  0.97677995711E+01  0.12700000000E+01 0.  1.
         -4   -1    0    0    0  501 -0.00000000000E+00 -0.00000000000E+00 -0.87622093647E+03  0.87622185684E+03  0.12700000000E+01 0.  1.
         25    2    1    2    0    0 -0.17911672467E+02 -0.33448154042E+02 -0.78816694464E+03  0.79891885858E+03  0.12499841179E+03 0.  0.
    9000005    1    3    3    0    0  0.32661928074E+02 -0.29833162510E+02 -0.65387959855E+03  0.65537496788E+03  0.10000000000E+01 0.  0.
    9000005    1    3    3    0    0 -0.50573600541E+02 -0.36149915321E+01 -0.13428734609E+03  0.14354389070E+03  0.10000000000E+01 0.  0.
         21    1    1    2  502  501  0.17911672467E+02  0.33448154042E+02 -0.78369106264E+02  0.87070797837E+02  0.00000000000E+00 0.  1.
<mgrwt>
<rscale>  1 0.13063005E+03</rscale>
<asrwt>0</asrwt>
<pdfrwt beam="1">  1        4 0.14964319E-02 0.13063005E+03</pdfrwt>
<pdfrwt beam="2">  1       -4 0.13480961E+00 0.13063005E+03</pdfrwt>
<totfact> 0.10895688E+03</totfact>
</mgrwt>
</event>
<event>
 6    4  0.1195577E-003  0.1329299E+03  0.7818608E-02  0.1223172E+00
         -4   -1    0    0    0  501 -0.00000000000E+00  0.00000000000E+00  0.56967177712E+03  0.56967319276E+03  0.12700000000E+01 0.  1.
          4   -1    0    0  502    0  0.00000000000E+00 -0.00000000000E+00 -0.15369988870E+02  0.15422368750E+02  0.12700000000E+01 0.  1.
         25    2    1    2    0    0 -0.15430283909E+02  0.42513271145E+02  0.48040735434E+03  0.49845919935E+03  0.12499950172E+03 0.  0.
    9000005    1    3    3    0    0  0.45084754978E+02  0.47579972788E+02  0.17074724128E+03  0.18289917809E+03  0.10000000000E+01 0.  0.
    9000005    1    3    3    0    0 -0.60515038887E+02 -0.50667016430E+01  0.30966011306E+03  0.31556002126E+03  0.10000000000E+01 0.  0.
         21    1    1    2  502  501  0.15430283909E+02 -0.42513271145E+02  0.73894433910E+02  0.86636362157E+02  0.00000000000E+00 0.  1.
<mgrwt>
<rscale>  1 0.13292986E+03</rscale>
<asrwt>0</asrwt>
<pdfrwt beam="2">  1        4 0.23687519E-02 0.13292986E+03</pdfrwt>
<pdfrwt beam="1">  1       -4 0.87645945E-01 0.13292986E+03</pdfrwt>
<totfact> 0.14869877E+03</totfact>
</mgrwt>
</event>
<event>
 6    4  0.1195577E-003  0.1351338E+03  0.7818608E-02  0.1220031E+00
          4   -1    0    0  502    0  0.00000000000E+00  0.00000000000E+00  0.25062332881E+02  0.25094490021E+02  0.12700000000E+01 0.  1.
         -4   -1    0    0    0  501 -0.00000000000E+00 -0.00000000000E+00 -0.37464464481E+03  0.37464679737E+03  0.12700000000E+01 0.  1.
         25    2    1    2    0    0 -0.10906680544E+02  0.50169323615E+02 -0.29675966756E+03  0.32607889217E+03  0.12500090766E+03 0.  0.
    9000005    1    3    3    0    0 -0.87339228070E+01  0.84677324607E+02 -0.12742325103E+03  0.15324560552E+03  0.10000000000E+01 0.  0.
    9000005    1    3    3    0    0 -0.21727577367E+01 -0.34508000993E+02 -0.16933641653E+03  0.17283328665E+03  0.10000000000E+01 0.  0.
         21    1    1    2  502  501  0.10906680544E+02 -0.50169323615E+02 -0.52822644368E+02  0.73662395226E+02  0.00000000000E+00 0.  1.
<mgrwt>
<rscale>  1 0.13513380E+03</rscale>
<asrwt>0</asrwt>
<pdfrwt beam="1">  1        4 0.38583830E-02 0.13513380E+03</pdfrwt>
<pdfrwt beam="2">  1       -4 0.57640273E-01 0.13513380E+03</pdfrwt>
<totfact> 0.17207095E+03</totfact>
</mgrwt>
</event>
<event>
 6    4  0.1195577E-003  0.1280783E+03  0.7818608E-02  0.1230335E+00
         -4   -1    0    0    0  501 -0.00000000000E+00  0.00000000000E+00  0.19203618664E+03  0.19204038606E+03  0.12700000000E+01 0. -1.
          4   -1    0    0  502    0  0.00000000000E+00 -0.00000000000E+00 -0.47485827546E+02  0.47502807472E+02  0.12700000000E+01 0. -1.
         25    2    1    2    0    0 -0.27868019800E+02  0.27165251243E+01  0.16202798037E+03  0.20653602337E+03  0.12498022440E+03 0.  0.
    9000005    1    3    3    0    0 -0.19994887753E+02 -0.59161642432E+02  0.57991160453E+02  0.85228341309E+02  0.10000000000E+01 0.  0.
    9000005    1    3    3    0    0 -0.78731320476E+01  0.61878167557E+02  0.10403681992E+03  0.12130768206E+03  0.10000000000E+01 0.  0.
         21    1    1    2  502  501  0.27868019800E+02 -0.27165251243E+01 -0.17477621282E+02  0.33007170161E+02  0.00000000000E+00 0. -1.
<mgrwt>
<rscale>  1 0.12807835E+03</rscale>
<asrwt>0</asrwt>
<pdfrwt beam="2">  1        4 0.73071412E-02 0.12807835E+03</pdfrwt>
<pdfrwt beam="1">  1       -4 0.29545658E-01 0.12807835E+03</pdfrwt>
<totfact> 0.22765599E+03</totfact>
</mgrwt>
</event>
<event>
 6    4  0.1195577E-003  0.1305740E+03  0.7818608E-02  0.1226607E+00
         -4   -1    0    0    0  501 -0.00000000000E+00  0.00000000000E+00  0.12035502139E+03  0.12036172179E+03  0.12700000000E+01 0. -1.
          4   -1    0    0  502    0  0.00000000000E+00 -0.00000000000E+00 -0.59570898283E+02  0.59584434396E+02  0.12700000000E+01 0. -1.
         25    2    1    2    0    0  0.21285041754E+01 -0.37698375326E+02  0.38630666400E+02  0.13616860856E+03  0.12499545407E+03 0.  0.
    9000005    1    3    3    0    0  0.55641310626E+02 -0.36845985143E+02 -0.52552637052E+01  0.66949233498E+02  0.10000000000E+01 0.  0.
    9000005    1    3    3    0    0 -0.53512806450E+02 -0.85239018264E+00  0.43885930105E+02  0.69219375065E+02  0.10000000000E+01 0.  0.
         21    1    1    2  502  501 -0.21285041754E+01  0.37698375326E+02  0.22153456704E+02  0.43777547626E+02  0.00000000000E+00 0. -1.
<mgrwt>
<rscale>  1 0.13057397E+03</rscale>
<asrwt>0</asrwt>
<pdfrwt beam="2">  1        4 0.91663103E-02 0.13057397E+03</pdfrwt>
<pdfrwt beam="1">  1       -4 0.18517714E-01 0.13057397E+03</pdfrwt>
<totfact> 0.36945818E+03</totfact>
</mgrwt>
</event>
<event>
 6    4  0.1195577E-003  0.1280624E+03  0.7818608E-02  0.1230359E+00
         -4   -1    0    0    0  501 -0.00000000000E+00  0.00000000000E+00  0.10881176704E+03  0.10881917821E+03  0.12700000000E+01 0.  1.
          4   -1    0    0  502    0  0.00000000000E+00 -0.00000000000E+00 -0.72804835068E+02  0.72815911100E+02  0.12700000000E+01 0.  1.
         25    2    1    2    0    0 -0.25939809075E+02 -0.10108607123E+02  0.63121003400E+02  0.14277340506E+03  0.12499970596E+03 0.  0.
    9000005    1    3    3    0    0 -0.50528532479E+02 -0.12132577344E+00  0.91110677180E+02  0.10418878448E+03  0.10000000000E+01 0.  0.
    9000005    1    3    3    0    0  0.24588723404E+02 -0.99872813494E+01 -0.27989673779E+02  0.38584620585E+02  0.10000000000E+01 0.  0.
         21    1    1    2  502  501  0.25939809075E+02  0.10108607123E+02 -0.27114071432E+02  0.38861684246E+02  0.00000000000E+00 0.  1.
<mgrwt>
<rscale>  1 0.12806242E+03</rscale>
<asrwt>0</asrwt>
<pdfrwt beam="2">  1        4 0.11202166E-01 0.12806242E+03</pdfrwt>
<pdfrwt beam="1">  1       -4 0.16741694E-01 0.12806242E+03</pdfrwt>
<totfact> 0.31356915E+03</totfact>
</mgrwt>
</event>
<event>
 6    4  0.1195577E-003  0.1268560E+03  0.7818608E-02  0.1232197E+00
          4   -1    0    0  502    0  0.00000000000E+00  0.00000000000E+00  0.29864476993E+03  0.29864747028E+03  0.12700000000E+01 0.  1.
         -4   -1    0    0    0  501 -0.00000000000E+00 -0.00000000000E+00 -0.81132792330E+02  0.81142731598E+02  0.12700000000E+01 0.  1.
         25    2    1    2    0    0 -0.75772687431E+01  0.20266934895E+02 -0.30796605871E+02  0.13054069581E+03  0.12499711468E+03 0.  0.
    9000005    1    3    3    0    0  0.41380191149E+02 -0.28691869300E+02  0.82660495124E+01  0.51037938418E+02  0.10000000000E+01 0.  0.
    9000005    1    3    3    0    0 -0.48957459892E+02  0.48958804195E+02 -0.39062655384E+02  0.79502757391E+02  0.10000000000E+01 0.  0.
         21    1    1    2  502  501  0.75772687431E+01 -0.20266934895E+02  0.24830858347E+03  0.24924950607E+03  0.00000000000E+00 0. -1.
<mgrwt>
<rscale>  1 0.12685599E+03</rscale>
<asrwt>0</asrwt>
<pdfrwt beam="1">  1        4 0.45946321E-01 0.12685599E+03</pdfrwt>
<pdfrwt beam="2">  1       -4 0.12482941E-01 0.12685599E+03</pdfrwt>
<totfact> 0.39238494E+02</totfact>
</mgrwt>
</event>
<event>
 6    4  0.1195577E-003  0.1275911E+03  0.7818608E-02  0.1231075E+00
          4   -1    0    0  502    0  0.00000000000E+00  0.00000000000E+00  0.65693865142E+01  0.66910192925E+01  0.12700000000E+01 0. -1.
         -4   -1    0    0    0  501 -0.00000000000E+00 -0.00000000000E+00 -0.10432827818E+04  0.10432835548E+04  0.12700000000E+01 0. -1.
         25    2    1    2    0    0  0.86555603166E+01 -0.24055615664E+02 -0.97289594547E+03  0.98122678670E+03  0.12500357938E+03 0.  0.
    9000005    1    3    3    0    0  0.41996366444E+02 -0.48996944714E+02 -0.82665410731E+03  0.82916971032E+03  0.10000000000E+01 0.  0.
    9000005    1    3    3    0    0 -0.33340806127E+02  0.24941329051E+02 -0.14624183816E+03  0.15205707638E+03  0.10000000000E+01 0.  0.
         21    1    1    2  502  501 -0.86555603166E+01  0.24055615664E+02 -0.63817449831E+02  0.68747787399E+02  0.00000000000E+00 0. -1.
<mgrwt>
<rscale>  1 0.12759109E+03</rscale>
<asrwt>0</asrwt>
<pdfrwt beam="1">  1        4 0.10200915E-02 0.12759109E+03</pdfrwt>
<pdfrwt beam="2">  1       -4 0.16051433E+00 0.12759109E+03</pdfrwt>
<totfact> 0.12449194E+03</totfact>
</mgrwt>
</event>
<event>
 6    4  0.1195577E-003  0.1274202E+03  0.7818608E-02  0.1231335E+00
          4   -1    0    0  502    0  0.00000000000E+00  0.00000000000E+00  0.22975232153E+03  0.22975583158E+03  0.12700000000E+01 0.  1.
         -4   -1    0    0    0  501 -0.00000000000E+00 -0.00000000000E+00 -0.25184267619E+02  0.25216269262E+02  0.12700000000E+01 0.  1.
         25    2    1    2    0    0 -0.21167921109E+02  0.12735383068E+02  0.16845150819E+03  0.21121509294E+03  0.12500253601E+03 0.  0.
    9000005    1    3    3    0    0 -0.73440514471E+02  0.57357900206E+01  0.11097665114E+03  0.13320369946E+03  0.10000000000E+01 0.  0.
    9000005    1    3    3    0    0  0.52272593362E+02  0.69995930471E+01  0.57474857052E+02  0.78011393480E+02  0.10000000000E+01 0.  0.
         21    1    1    2  502  501  0.21167921109E+02 -0.12735383068E+02  0.36116545717E+02  0.43757007902E+02  0.00000000000E+00 0.  1.
<mgrwt>
<rscale>  1 0.12742019E+03</rscale>
<asrwt>0</asrwt>
<pdfrwt beam="1">  1        4 0.35349242E-01 0.12742019E+03</pdfrwt>
<pdfrwt beam="2">  1       -4 0.38772344E-02 0.12742019E+03</pdfrwt>
<totfact> 0.44872976E+03</totfact>
</mgrwt>
</event>
<event>
 6    4  0.1195577E-003  0.1338356E+03  0.7818608E-02  0.1221873E+00
         -4   -1    0    0    0  501 -0.00000000000E+00  0.00000000000E+00  0.48097691141E+02  0.48114455137E+02  0.12700000000E+01 0. -1.
          4   -1    0    0  502    0  0.00000000000E+00 -0.00000000000E+00 -0.17263161259E+03  0.17263628403E+03  0.12700000000E+01 0. -1.
         25    2    1    2    0    0 -0.52949028792E+01 -0.47534651512E+02 -0.99475686655E+02  0.16675542250E+03  0.12499751841E+03 0.  0.
    9000005    1    3    3    0    0 -0.60774155457E+02 -0.19814783857E+02 -0.22222627081E+02  0.67682854440E+02  0.10000000000E+01 0.  0.
    9000005    1    3    3    0    0  0.55479252578E+02 -0.27719867655E+02 -0.77253059574E+02  0.99072568064E+02  0.10000000000E+01 0.  0.
         21    1    1    2  502  501  0.52949028792E+01  0.47534651512E+02 -0.25058234790E+02  0.53995316664E+02  0.00000000000E+00 0. -1.
<mgrwt>
<rscale>  1 0.13383557E+03</rscale>
<asrwt>0</asrwt>
<pdfrwt beam="2">  1        4 0.26560358E-01 0.13383557E+03</pdfrwt>
<pdfrwt beam="1">  1       -4 0.74012938E-02 0.13383557E+03</pdfrwt>
<totfact> 0.27490600E+03</totfact>
</mgrwt>
</event>
<event>
 6    4  0.1195577E-003  0.1381747E+03  0.7818608E-02  0.1215806E+00
          4   -1    0    0  502    0  0.00000000000E+00  0.00000000000E+00  0.29117391882E+02  0.29145075227E+02  0.12700000000E+01 0. -1.
         -4   -1    0    0    0  501 -0.00000000000E+00 -0.00000000000E+00 -0.33806626778E+03  0.33806865325E+03  0.12700000000E+01 0. -1.
         25    2    1    2    0    0 -0.56634577665E+02 -0.16343166717E+02 -0.23542344306E+03  0.27297698533E+03  0.12497064651E+03 0.  0.
    9000005    1    3    3    0    0 -0.51928994666E+02 -0.51722622725E+02 -0.62265239935E+02  0.96175934062E+02  0.10000000000E+01 0.  0.
    9000005    1    3    3    0    0 -0.47055829992E+01  0.35379456009E+02 -0.17315820312E+03  0.17680105126E+03  0.10000000000E+01 0.  0.
         21    1    1    2  502  501  0.56634577665E+02  0.16343166717E+02 -0.73525432841E+02  0.94236743153E+02  0.00000000000E+00 0. -1.
<mgrwt>
<rscale>  1 0.13817466E+03</rscale>
<asrwt>0</asrwt>
<pdfrwt beam="1">  1        4 0.44819120E-02 0.13817466E+03</pdfrwt>
<pdfrwt beam="2">  1       -4 0.52012505E-01 0.13817466E+03</pdfrwt>
<totfact> 0.16846612E+03</totfact>
</mgrwt>
</event>
<event>
 6    4  0.1195577E-003  0.1265919E+03  0.7818608E-02  0.1232602E+00
          4   -1    0    0  502    0  0.00000000000E+00  0.00000000000E+00  0.12628630399E+04  0.12628636785E+04  0.12700000000E+01 0. -1.
         -4   -1    0    0    0  501 -0.00000000000E+00 -0.00000000000E+00 -0.42273062867E+01  0.44139572315E+01  0.12700000000E+01 0. -1.
         25    2    1    2    0    0  0.11124537890E+02 -0.16710513496E+02  0.10267493192E+04  0.10345238908E+04  0.12499007747E+03 0.  0.
    9000005    1    3    3    0    0  0.28636408772E+02 -0.22140694240E+02  0.10066462012E+04  0.10072972891E+04  0.10000000000E+01 0.  0.
    9000005    1    3    3    0    0 -0.17511870882E+02  0.54301807440E+01  0.20103118035E+02  0.27226601687E+02  0.10000000000E+01 0.  0.
         21    1    1    2  502  501 -0.11124537890E+02  0.16710513496E+02  0.23188641439E+03  0.23275374494E+03  0.00000000000E+00 0. -1.
<mgrwt>
<rscale>  1 0.12659193E+03</rscale>
<asrwt>0</asrwt>
<pdfrwt beam="1">  1        4 0.19430106E+00 0.12659193E+03</pdfrwt>
<pdfrwt beam="2">  1       -4 0.66476158E-03 0.12659193E+03</pdfrwt>
<totfact> 0.14083646E+03</totfact>
</mgrwt>
</event>
<event>
 6    4  0.1195577E-003  0.2125634E+03  0.7818608E-02  0.1139552E+00
         -4   -1    0    0    0  501 -0.00000000000E+00  0.00000000000E+00  0.14293983995E+03  0.14294548172E+03  0.12700000000E+01 0.  1.
          4   -1    0    0  502    0  0.00000000000E+00 -0.00000000000E+00 -0.29606371996E+03  0.29606644385E+03  0.12700000000E+01 0.  1.
         25    2    1    2    0    0 -0.16719832312E+03 -0.39999340486E+02 -0.16140171068E+03  0.26689641502E+03  0.12501183003E+03 0.  0.
    9000005    1    3    3    0    0  0.94920327698E+01  0.20614049352E+02 -0.33609020611E+02  0.40566044707E+02  0.10000000000E+01 0.  0.
    9000005    1    3    3    0    0 -0.17669035589E+03 -0.60613389838E+02 -0.12779269007E+03  0.22633037031E+03  0.10000000000E+01 0.  0.
         21    1    1    2  502  501  0.16719832312E+03  0.39999340486E+02  0.82778306694E+01  0.17211551055E+03  0.00000000000E+00 0.  1.
<mgrwt>
<rscale>  1 0.21256337E+03</rscale>
<asrwt>0</asrwt>
<pdfrwt beam="2">  1        4 0.45548908E-01 0.21256337E+03</pdfrwt>
<pdfrwt beam="1">  1       -4 0.21991388E-01 0.21256337E+03</pdfrwt>
<totfact> 0.15959091E+02</totfact>
</mgrwt>
</event>
<event>
 6    4  0.1195577E-003  0.1294533E+03  0.7818608E-02  0.1228269E+00
         -4   -1    0    0    0  501 -0.00000000000E+00  0.00000000000E+00  0.13940936494E+02  0.13998664591E+02  0.12700000000E+01 0. -1.
          4   -1    0    0  502    0  0.00000000000E+00 -0.00000000000E+00 -0.51057291323E+03  0.51057449273E+03  0.12700000000E+01 0. -1.
         25    2    1    2    0    0  0.12142177156E+02 -0.31508870180E+02 -0.43990001687E+03  0.45855227701E+03  0.12497169498E+03 0.  0.
    9000005    1    3    3    0    0 -0.20243698341E+02 -0.70984552848E+02 -0.31663197551E+03  0.32512370258E+03  0.10000000000E+01 0.  0.
    9000005    1    3    3    0    0  0.32385875498E+02  0.39475682668E+02 -0.12326804136E+03  0.13342857443E+03  0.10000000000E+01 0.  0.
         21    1    1    2  502  501 -0.12142177156E+02  0.31508870180E+02 -0.56731959867E+02  0.66020880306E+02  0.00000000000E+00 0.  1.
<mgrwt>
<rscale>  1 0.12945333E+03</rscale>
<asrwt>0</asrwt>
<pdfrwt beam="2">  1        4 0.78554227E-01 0.12945333E+03</pdfrwt>
<pdfrwt beam="1">  1       -4 0.21493220E-02 0.12945333E+03</pdfrwt>
<totfact> 0.21915930E+03</totfact>
</mgrwt>
</event>
<event>
 6    4  0.1195577E-003  0.1266363E+03  0.7818608E-02  0.1232534E+00
          4   -1    0    0  502    0  0.00000000000E+00  0.00000000000E+00  0.56841916793E+01  0.58243398808E+01  0.12700000000E+01 0.  1.
         -4   -1    0    0    0  501 -0.00000000000E+00 -0.00000000000E+00 -0.10893840795E+04  0.10893848198E+04  0.12700000000E+01 0.  1.
         25    2    1    2    0    0 -0.20305443514E+02  0.29881764330E+00 -0.10307251235E+04  0.10384753427E+04  0.12499742765E+03 0.  0.
    9000005    1    3    3    0    0 -0.57946273464E+02 -0.40784900079E+02 -0.56397165151E+03  0.56840672268E+03  0.10000000000E+01 0.  0.
    9000005    1    3    3    0    0  0.37640829950E+02  0.41083717722E+02 -0.46675347201E+03  0.47006862007E+03  0.10000000000E+01 0.  0.
         21    1    1    2  502  501  0.20305443514E+02 -0.29881764330E+00 -0.52974764284E+02  0.56733816893E+02  0.00000000000E+00 0.  1.
<mgrwt>
<rscale>  1 0.12663632E+03</rscale>
<asrwt>0</asrwt>
<pdfrwt beam="1">  1        4 0.88532947E-03 0.12663632E+03</pdfrwt>
<pdfrwt beam="2">  1       -4 0.16760822E+00 0.12663632E+03</pdfrwt>
<totfact> 0.13728442E+03</totfact>
</mgrwt>
</event>
<event>
 6    4  0.1195577E-003  0.1555377E+03  0.7818608E-02  0.1193829E+00
          4   -1    0    0  502    0  0.00000000000E+00  0.00000000000E+00  0.15216276921E+03  0.15216806903E+03  0.12700000000E+01 0.  1.
         -4   -1    0    0    0  501 -0.00000000000E+00 -0.00000000000E+00 -0.11445587305E+03  0.11446291878E+03  0.12700000000E+01 0.  1.
         25    2    1    2    0    0 -0.91770879746E+02 -0.12051721833E+02 -0.21112383220E+02  0.15696401012E+03  0.12499931751E+03 0.  0.
    9000005    1    3    3    0    0 -0.33730879601E+02  0.55576378362E+02 -0.19291189197E+02  0.67820764159E+02  0.10000000000E+01 0.  0.
    9000005    1    3    3    0    0 -0.58040000144E+02 -0.67628100195E+02 -0.18211940230E+01  0.89143245960E+02  0.10000000000E+01 0.  0.
         21    1    1    2  502  501  0.91770879746E+02  0.12051721833E+02  0.58819279380E+02  0.10966697769E+03  0.00000000000E+00 0.  1.
<mgrwt>
<rscale>  1 0.15553767E+03</rscale>
<asrwt>0</asrwt>
<pdfrwt beam="1">  1        4 0.23410606E-01 0.15553767E+03</pdfrwt>
<pdfrwt beam="2">  1       -4 0.17609546E-01 0.15553767E+03</pdfrwt>
<totfact> 0.81542116E+02</totfact>
</mgrwt>
</event>
<event>
 6    4  0.1195577E-003  0.1298197E+03  0.7818608E-02  0.1227724E+00
          4   -1    0    0  502    0  0.00000000000E+00  0.00000000000E+00  0.19433018944E+03  0.19433433929E+03  0.12700000000E+01 0.  1.
         -4   -1    0    0    0  501 -0.00000000000E+00 -0.00000000000E+00 -0.94807133653E+02  0.94815639488E+02  0.12700000000E+01 0.  1.
         25    2    1    2    0    0 -0.40944041592E+01 -0.34798187744E+02 -0.47327262150E+02  0.13817748495E+03  0.12500187834E+03 0.  0.
    9000005    1    3    3    0    0 -0.27093010580E+02  0.37799844420E+02  0.34451653806E+01  0.46644706291E+02  0.10000000000E+01 0.  0.
    9000005    1    3    3    0    0  0.22998606421E+02 -0.72598032164E+02 -0.50772427530E+02  0.91532778657E+02  0.10000000000E+01 0.  0.
         21    1    1    2  502  501  0.40944041592E+01  0.34798187744E+02  0.14685031794E+03  0.15097249383E+03  0.00000000000E+00 0.  1.
<mgrwt>
<rscale>  1 0.12981967E+03</rscale>
<asrwt>0</asrwt>
<pdfrwt beam="1">  1        4 0.29897926E-01 0.12981967E+03</pdfrwt>
<pdfrwt beam="2">  1       -4 0.14586686E-01 0.12981967E+03</pdfrwt>
<totfact> 0.69481439E+02</totfact>
</mgrwt>
</event>
<event>
 6    4  0.1195577E-003  0.1307788E+03  0.7818608E-02  0.1226305E+00
          4   -1    0    0  502    0  0.00000000000E+00  0.00000000000E+00  0.64034906922E+02  0.64047499596E+02  0.12700000000E+01 0. -1.
         -4   -1    0    0    0  501 -0.00000000000E+00 -0.00000000000E+00 -0.11271861576E+03  0.11272577007E+03  0.12700000000E+01 0. -1.
         25    2    1    2    0    0  0.53847319078E+01  0.38059686512E+02 -0.44334651010E+02  0.13808930168E+03  0.12500223552E+03 0.  0.
    9000005    1    3    3    0    0 -0.24442976765E+02  0.77427830867E+02 -0.24072649088E+02  0.84693686541E+02  0.10000000000E+01 0.  0.
    9000005    1    3    3    0    0  0.29827708673E+02 -0.39368144355E+02 -0.20262001922E+02  0.53395615143E+02  0.10000000000E+01 0.  0.
         21    1    1    2  502  501 -0.53847319078E+01 -0.38059686512E+02 -0.43490578285E+01  0.38683967986E+02  0.00000000000E+00 0. -1.
<mgrwt>
<rscale>  1 0.13077880E+03</rscale>
<asrwt>0</asrwt>
<pdfrwt beam="1">  1        4 0.98530432E-02 0.13077880E+03</pdfrwt>
<pdfrwt beam="2">  1       -4 0.17342844E-01 0.13077880E+03</pdfrwt>
<totfact> 0.36785187E+03</totfact>
</mgrwt>
</event>
<event>
 6    4  0.1195577E-003  0.1266112E+03  0.7818608E-02  0.1232572E+00
         -4   -1    0    0    0  501 -0.00000000000E+00  0.00000000000E+00  0.97911124276E+01  0.98731343843E+01  0.12700000000E+01 0. -1.
          4   -1    0    0  502    0  0.00000000000E+00 -0.00000000000E+00 -0.55090528835E+03  0.55090675221E+03  0.12700000000E+01 0. -1.
         25    2    1    2    0    0 -0.14850904255E+02 -0.13578542074E+02 -0.48113654244E+03  0.49751660593E+03  0.12500189817E+03 0.  0.
    9000005    1    3    3    0    0  0.33184431739E+02 -0.28599090048E+02 -0.39743907232E+03  0.39984738422E+03  0.10000000000E+01 0.  0.
    9000005    1    3    3    0    0 -0.48035335994E+02  0.15020547974E+02 -0.83697470121E+02  0.97669221713E+02  0.10000000000E+01 0.  0.
         21    1    1    2  502  501  0.14850904255E+02  0.13578542074E+02 -0.59977633482E+02  0.63263280662E+02  0.00000000000E+00 0. -1.
<mgrwt>
<rscale>  1 0.12661122E+03</rscale>
<asrwt>0</asrwt>
<pdfrwt beam="2">  1        4 0.84761058E-01 0.12661122E+03</pdfrwt>
<pdfrwt beam="1">  1       -4 0.15127474E-02 0.12661122E+03</pdfrwt>
<totfact> 0.31557898E+03</totfact>
</mgrwt>
</event>
<event>
 6    4  0.1195577E-003  0.1284836E+03  0.7818608E-02  0.1229723E+00
         -4   -1    0    0    0  501 -0.00000000000E+00  0.00000000000E+00  0.25232172965E+02  0.25264113928E+02  0.12700000000E+01 0.  1.
          4   -1    0    0  502    0  0.00000000000E+00 -0.00000000000E+00 -0.28578505464E+03  0.28578787650E+03  0.12700000000E+01 0.  1.
         25    2    1    2    0    0  0.12170862909E+02  0.27110906532E+02 -0.15465125526E+03  0.20105978328E+03  0.12499957817E+03 0.  0.
    9000005    1    3    3    0    0 -0.35044883356E+02  0.58103416741E+02 -0.58752007873E+02  0.89760510892E+02  0.10000000000E+01 0.  0.
    9000005    1    3    3    0    0  0.47215746265E+02 -0.30992510209E+02 -0.95899247392E+02  0.11129927239E+03  0.10000000000E+01 0.  0.
         21    1    1    2  502  501 -0.12170862909E+02 -0.27110906532E+02 -0.10590162641E+03  0.10999220715E+03  0.00000000000E+00 0.  1.
<mgrwt>
<rscale>  1 0.12848356E+03</rscale>
<asrwt>0</asrwt>
<pdfrwt beam="2">  1        4 0.43969603E-01 0.12848356E+03</pdfrwt>
<pdfrwt beam="1">  1       -4 0.38845470E-02 0.12848356E+03</pdfrwt>
<totfact> 0.29220729E+03</totfact>
</mgrwt>
</event>
<event>
 6    4  0.1195577E-003  0.1295080E+03  0.7818608E-02  0.1228188E+00
          4   -1    0    0  502    0  0.00000000000E+00  0.00000000000E+00  0.54242938188E+01  0.55709840633E+01  0.12700000000E+01 0. -1.
         -4   -1    0    0    0  501 -0.00000000000E+00 -0.00000000000E+00 -0.14249317865E+04  0.14249323524E+04  0.12700000000E+01 0. -1.
         25    2    1    2    0    0 -0.18754269080E+02 -0.28215837760E+02 -0.12952939549E+04  0.13017521848E+04  0.12499785932E+03 0.  0.
    9000005    1    3    3    0    0 -0.14109206878E+02 -0.61892663932E+02 -0.11757904056E+04  0.11775032270E+04  0.10000000000E+01 0.  0.
    9000005    1    3    3    0    0 -0.46450622017E+01  0.33676826172E+02 -0.11950354928E+03  0.12424895780E+03  0.10000000000E+01 0.  0.
         21    1    1    2  502  501  0.18754269080E+02  0.28215837760E+02 -0.12421353770E+03  0.12875115168E+03  0.00000000000E+00 0. -1.
<mgrwt>
<rscale>  1 0.12950800E+03</rscale>
<asrwt>0</asrwt>
<pdfrwt beam="1">  1        4 0.84583528E-03 0.12950800E+03</pdfrwt>
<pdfrwt beam="2">  1       -4 0.21923131E+00 0.12950800E+03</pdfrwt>
<totfact> 0.69546909E+02</totfact>
</mgrwt>
</event>
<event>
 6    4  0.1195577E-003  0.1268379E+03  0.7818608E-02  0.1232225E+00
         -4   -1    0    0    0  501 -0.00000000000E+00  0.00000000000E+00  0.48431010699E+03  0.48431177214E+03  0.12700000000E+01 0.  1.
          4   -1    0    0  502    0  0.00000000000E+00 -0.00000000000E+00 -0.14076962177E+02  0.14134134714E+02  0.12700000000E+01 0.  1.
         25    2    1    2    0    0 -0.21934573514E+01 -0.21391157238E+02  0.45432426274E+03  0.47169734816E+03  0.12500183875E+03 0.  0.
    9000005    1    3    3    0    0 -0.56575640295E+02 -0.17689296668E+02  0.33889413301E+03  0.34404061923E+03  0.10000000000E+01 0.  0.
    9000005    1    3    3    0    0  0.54382182944E+02 -0.37018605703E+01  0.11543012972E+03  0.12765672893E+03  0.10000000000E+01 0.  0.
         21    1    1    2  502  501  0.21934573514E+01  0.21391157238E+02  0.15908882082E+02  0.26748558695E+02  0.00000000000E+00 0.  1.
<mgrwt>
<rscale>  1 0.12683790E+03</rscale>
<asrwt>0</asrwt>
<pdfrwt beam="2">  1        4 0.21702129E-02 0.12683790E+03</pdfrwt>
<pdfrwt beam="1">  1       -4 0.74513758E-01 0.12683790E+03</pdfrwt>
<totfact> 0.24122551E+03</totfact>
</mgrwt>
</event>
<event>
 6    4  0.1195577E-003  0.1267762E+03  0.7818608E-02  0.1232319E+00
          4   -1    0    0  502    0  0.00000000000E+00  0.00000000000E+00  0.28523813247E+03  0.28524095975E+03  0.12700000000E+01 0.  1.
         -4   -1    0    0    0  501 -0.00000000000E+00 -0.00000000000E+00 -0.19172955684E+02  0.19214971498E+02  0.12700000000E+01 0.  1.
         25    2    1    2    0    0 -0.57032141051E+01 -0.20348189527E+02  0.22428022538E+03  0.25763117676E+03  0.12500251307E+03 0.  0.
    9000005    1    3    3    0    0 -0.52066655589E+02 -0.45524625831E+02  0.91140987950E+02  0.11441637936E+03  0.10000000000E+01 0.  0.
    9000005    1    3    3    0    0  0.46363441484E+02  0.25176436304E+02  0.13313923743E+03  0.14321479740E+03  0.10000000000E+01 0.  0.
         21    1    1    2  502  501  0.57032141051E+01  0.20348189527E+02  0.41784951415E+02  0.46824754489E+02  0.00000000000E+00 0.  1.
<mgrwt>
<rscale>  1 0.12677620E+03</rscale>
<asrwt>0</asrwt>
<pdfrwt beam="1">  1        4 0.43886235E-01 0.12677620E+03</pdfrwt>
<pdfrwt beam="2">  1       -4 0.29531352E-02 0.12677620E+03</pdfrwt>
<totfact> 0.45002579E+03</totfact>
</mgrwt>
</event>
<event>
 6    4  0.1195577E-003  0.1270585E+03  0.7818608E-02  0.1231887E+00
          4   -1    0    0  502    0  0.00000000000E+00  0.00000000000E+00  0.12592993649E+03  0.12593634029E+03  0.12700000000E+01 0.  1.
         -4   -1    0    0    0  501 -0.00000000000E+00 -0.00000000000E+00 -0.56824195266E+02  0.56838385512E+02  0.12700000000E+01 0.  1.
         25    2    1    2    0    0 -0.19697789781E+02 -0.11445504887E+02  0.19975007139E+02  0.12861910249E+03  0.12499948044E+03 0.  0.
    9000005    1    3    3    0    0 -0.56994771964E+02 -0.41060256604E+02 -0.11969615523E+02  0.71264439936E+02  0.10000000000E+01 0.  0.
    9000005    1    3    3    0    0  0.37296982183E+02  0.29614751717E+02  0.31944622662E+02  0.57354662550E+02  0.10000000000E+01 0.  0.
         21    1    1    2  502  501  0.19697789781E+02  0.11445504887E+02  0.49130734090E+02  0.54155623315E+02  0.00000000000E+00 0.  1.
<mgrwt>
<rscale>  1 0.12705854E+03</rscale>
<asrwt>0</asrwt>
<pdfrwt beam="1">  1        4 0.19375420E-01 0.12705854E+03</pdfrwt>
<pdfrwt beam="2">  1       -4 0.87437681E-02 0.12705854E+03</pdfrwt>
<totfact> 0.36621186E+03</totfact>
</mgrwt>
</event>
<event>
 6    4  0.1195577E-003  0.1310511E+03  0.7818608E-02  0.1225904E+00
         -4   -1    0    0    0  501 -0.00000000000E+00  0.00000000000E+00  0.65704959003E+02  0.65717231664E+02  0.12700000000E+01 0.  1.
          4   -1    0    0  502    0  0.00000000000E+00 -0.00000000000E+00 -0.11075032219E+03  0.11075760364E+03  0.12700000000E+01 0.  1.
         25    2    1    2    0    0  0.24560581780E+02 -0.30753945691E+02 -0.30830052071E+02  0.13462865958E+03  0.12500142606E+03 0.  0.
    9000005    1    3    3    0    0 -0.32172465302E+02 -0.36088344940E+02 -0.54549476489E+02  0.72897747217E+02  0.10000000000E+01 0.  0.
    9000005    1    3    3    0    0  0.56733047082E+02  0.53343992486E+01  0.23719424418E+02  0.61730912364E+02  0.10000000000E+01 0.  0.
         21    1    1    2  502  501 -0.24560581780E+02  0.30753945691E+02 -0.14215311115E+02  0.41846175728E+02  0.00000000000E+00 0.  1.
<mgrwt>
<rscale>  1 0.13105107E+03</rscale>
<asrwt>0</asrwt>
<pdfrwt beam="2">  1        4 0.17040015E-01 0.13105107E+03</pdfrwt>
<pdfrwt beam="1">  1       -4 0.10109959E-01 0.13105107E+03</pdfrwt>
<totfact> 0.36358335E+03</totfact>
</mgrwt>
</event>
<event>
 6    4  0.1195577E-003  0.1287063E+03  0.7818608E-02  0.1229388E+00
         -4   -1    0    0    0  501 -0.00000000000E+00  0.00000000000E+00  0.11110337876E+03  0.11111063708E+03  0.12700000000E+01 0.  1.
          4   -1    0    0  502    0  0.00000000000E+00 -0.00000000000E+00 -0.57131142357E+02  0.57145256383E+02  0.12700000000E+01 0.  1.
         25    2    1    2    0    0 -0.30042819260E+02 -0.50463542758E+01  0.46873692632E+02  0.13697609160E+03  0.12504907008E+03 0.  0.
    9000005    1    3    3    0    0 -0.43580152056E+02 -0.49975726993E+02 -0.56270631380E+01  0.66554239394E+02  0.10000000000E+01 0.  0.
    9000005    1    3    3    0    0  0.13537332796E+02  0.44929372717E+02  0.52500755770E+02  0.70421852208E+02  0.10000000000E+01 0.  0.
         21    1    1    2  502  501  0.30042819260E+02  0.50463542758E+01  0.70985437679E+01  0.31279801856E+02  0.00000000000E+00 0. -1.
<mgrwt>
<rscale>  1 0.12870628E+03</rscale>
<asrwt>0</asrwt>
<pdfrwt beam="2">  1        4 0.87910505E-02 0.12870628E+03</pdfrwt>
<pdfrwt beam="1">  1       -4 0.17094472E-01 0.12870628E+03</pdfrwt>
<totfact> 0.45493177E+03</totfact>
</mgrwt>
</event>
<event>
 6    4  0.1195577E-003  0.1291169E+03  0.7818608E-02  0.1228772E+00
         -4   -1    0    0    0  501 -0.00000000000E+00  0.00000000000E+00  0.11171809929E+03  0.11172531767E+03  0.12700000000E+01 0. -1.
          4   -1    0    0  502    0  0.00000000000E+00 -0.00000000000E+00 -0.88791113538E+02  0.88800195626E+02  0.12700000000E+01 0. -1.
         25    2    1    2    0    0  0.31912859042E+02  0.52453412416E+01  0.67310681528E+02  0.14560869778E+03  0.12500088337E+03 0.  0.
    9000005    1    3    3    0    0  0.44125826200E+02 -0.31208296666E+02  0.86982864896E+02  0.10241125477E+03  0.10000000000E+01 0.  0.
    9000005    1    3    3    0    0 -0.12212967159E+02  0.36453637907E+02 -0.19672183368E+02  0.43197443003E+02  0.10000000000E+01 0.  0.
         21    1    1    2  502  501 -0.31912859042E+02 -0.52453412416E+01 -0.44383695773E+02  0.54916815525E+02  0.00000000000E+00 0. -1.
<mgrwt>
<rscale>  1 0.12911687E+03</rscale>
<asrwt>0</asrwt>
<pdfrwt beam="2">  1        4 0.13661425E-01 0.12911687E+03</pdfrwt>
<pdfrwt beam="1">  1       -4 0.17188654E-01 0.12911687E+03</pdfrwt>
<totfact> 0.21345585E+03</totfact>
</mgrwt>
</event>
<event>
 6    4  0.1195577E-003  0.1284572E+03  0.7818608E-02  0.1229763E+00
          4   -1    0    0  502    0  0.00000000000E+00  0.00000000000E+00  0.83225121353E+03  0.83225218253E+03  0.12700000000E+01 0. -1.
         -4   -1    0    0    0  501 -0.00000000000E+00 -0.00000000000E+00 -0.91257503759E+01  0.92136974078E+01  0.12700000000E+01 0. -1.
         25    2    1    2    0    0 -0.59975714522E+01  0.28985423282E+02  0.77008422492E+03  0.78072463711E+03  0.12500047959E+03 0.  0.
    9000005    1    3    3    0    0 -0.30093207220E+02 -0.31086846043E+02  0.53930623108E+03  0.54103992828E+03  0.10000000000E+01 0.  0.
    9000005    1    3    3    0    0  0.24095635768E+02  0.60072269326E+02  0.23077799384E+03  0.23968470883E+03  0.10000000000E+01 0.  0.
         21    1    1    2  502  501  0.59975714522E+01 -0.28985423282E+02  0.53041238235E+02  0.60741242823E+02  0.00000000000E+00 0. -1.
<mgrwt>
<rscale>  1 0.12845717E+03</rscale>
<asrwt>0</asrwt>
<pdfrwt beam="1">  1        4 0.12804551E+00 0.12845717E+03</pdfrwt>
<pdfrwt beam="2">  1       -4 0.14108010E-02 0.12845717E+03</pdfrwt>
<totfact> 0.13470559E+03</totfact>
</mgrwt>
</event>
<event>
 6    4  0.1195577E-003  0.1286367E+03  0.7818608E-02  0.1229493E+00
         -4   -1    0    0    0  501 -0.00000000000E+00  0.00000000000E+00  0.53599215571E+02  0.53614259389E+02  0.12700000000E+01 0.  1.
          4   -1    0    0  502    0  0.00000000000E+00 -0.00000000000E+00 -0.11850587929E+03  0.11851268424E+03  0.12700000000E+01 0.  1.
         25    2    1    2    0    0 -0.29279970543E+02  0.81525581724E+01 -0.57140698089E+02  0.14075671727E+03  0.12499445267E+03 0.  0.
    9000005    1    3    3    0    0 -0.59548334826E+01 -0.45454650978E+02  0.14678202998E+02  0.48145975747E+02  0.10000000000E+01 0.  0.
    9000005    1    3    3    0    0 -0.23325137060E+02  0.53607209150E+02 -0.71818901087E+02  0.92610741522E+02  0.10000000000E+01 0.  0.
         21    1    1    2  502  501  0.29279970543E+02 -0.81525581724E+01 -0.77659656273E+01  0.31370226360E+02  0.00000000000E+00 0.  1.
<mgrwt>
<rscale>  1 0.12863667E+03</rscale>
<asrwt>0</asrwt>
<pdfrwt beam="2">  1        4 0.18233354E-01 0.12863667E+03</pdfrwt>
<pdfrwt beam="1">  1       -4 0.82477138E-02 0.12863667E+03</pdfrwt>
<totfact> 0.45111671E+03</totfact>
</mgrwt>
</event>
<event>
 6    4  0.1195577E-003  0.1293900E+03  0.7818608E-02  0.1228364E+00
         -4   -1    0    0    0  501 -0.00000000000E+00  0.00000000000E+00  0.29084072195E+03  0.29084349476E+03  0.12700000000E+01 0.  1.
          4   -1    0    0  502    0  0.00000000000E+00 -0.00000000000E+00 -0.27491332374E+02  0.27520651441E+02  0.12700000000E+01 0.  1.
         25    2    1    2    0    0 -0.31113043938E+02 -0.12208793098E+02  0.25162747868E+03  0.28294551654E+03  0.12499880468E+03 0.  0.
    9000005    1    3    3    0    0  0.52385165887E+01 -0.27891470570E+02  0.23999571301E+03  0.24166985425E+03  0.10000000000E+01 0.  0.
    9000005    1    3    3    0    0 -0.36351560526E+02  0.15682677472E+02  0.11631765672E+02  0.41275662297E+02  0.10000000000E+01 0.  0.
         21    1    1    2  502  501  0.31113043938E+02  0.12208793098E+02  0.11721910891E+02  0.35418629659E+02  0.00000000000E+00 0.  1.
<mgrwt>
<rscale>  1 0.12939002E+03</rscale>
<asrwt>0</asrwt>
<pdfrwt beam="2">  1        4 0.42319042E-02 0.12939002E+03</pdfrwt>
<pdfrwt beam="1">  1       -4 0.44747197E-01 0.12939002E+03</pdfrwt>
<totfact> 0.24669838E+03</totfact>
</mgrwt>
</event>
<event>
 6    4  0.1195577E-003  0.1274160E+03  0.7818608E-02  0.1231341E+00
          4   -1    0    0  502    0  0.00000000000E+00  0.00000000000E+00  0.94395143847E+02  0.94403686802E+02  0.12700000000E+01 0.  1.
         -4   -1    0    0    0  501 -0.00000000000E+00 -0.00000000000E+00 -0.61771542894E+02  0.61784596879E+02  0.12700000000E+01 0.  1.
         25    2    1    2    0    0  0.19523862807E+02 -0.15132591655E+02  0.22010560479E+02  0.12930309859E+03  0.12499859993E+03 0.  0.
    9000005    1    3    3    0    0  0.57923340908E+02  0.90991580421E+01  0.49045711502E+02  0.76448609639E+02  0.10000000000E+01 0.  0.
    9000005    1    3    3    0    0 -0.38399478101E+02 -0.24231749697E+02 -0.27035151023E+02  0.52854488955E+02  0.10000000000E+01 0.  0.
         21    1    1    2  502  501 -0.19523862807E+02  0.15132591655E+02  0.10613040473E+02  0.26885185088E+02  0.00000000000E+00 0.  1.
<mgrwt>
<rscale>  1 0.12741596E+03</rscale>
<asrwt>0</asrwt>
<pdfrwt beam="1">  1        4 0.14523991E-01 0.12741596E+03</pdfrwt>
<pdfrwt beam="2">  1       -4 0.95049756E-02 0.12741596E+03</pdfrwt>
<totfact> 0.52989160E+03</totfact>
</mgrwt>
</event>
<event>
 6    4  0.1195577E-003  0.1269838E+03  0.7818608E-02  0.1232001E+00
          4   -1    0    0  502    0  0.00000000000E+00  0.00000000000E+00  0.27347116765E+04  0.27347119714E+04  0.12700000000E+01 0.  1.
         -4   -1    0    0    0  501 -0.00000000000E+00 -0.00000000000E+00 -0.18706093015E+01  0.22609907472E+01  0.12700000000E+01 0.  1.
         25    2    1    2    0    0  0.21131052251E+02  0.73461801428E+01  0.21990303166E+04  0.22026936296E+04  0.12499761917E+03 0.  0.
    9000005    1    3    3    0    0  0.53655411086E+02  0.48457814743E+02  0.10648021762E+04  0.10672542984E+04  0.10000000000E+01 0.  0.
    9000005    1    3    3    0    0 -0.32524358835E+02 -0.41111634600E+02  0.11342281403E+04  0.11354393312E+04  0.10000000000E+01 0.  0.
         21    1    1    2  502  501 -0.21131052251E+02 -0.73461801428E+01  0.53381075067E+03  0.53427933262E+03  0.00000000000E+00 0.  1.
<mgrwt>
<rscale>  1 0.12698383E+03</rscale>
<asrwt>0</asrwt>
<pdfrwt beam="1">  1        4 0.42075458E+00 0.12698383E+03</pdfrwt>
<pdfrwt beam="2">  1       -4 0.31783834E-03 0.12698383E+03</pdfrwt>
<totfact> 0.17954664E+02</totfact>
</mgrwt>
</event>
<event>
 6    4  0.1195577E-003  0.1287574E+03  0.7818608E-02  0.1229311E+00
         -4   -1    0    0    0  501 -0.00000000000E+00  0.00000000000E+00  0.75950070414E+02  0.75960687832E+02  0.12700000000E+01 0. -1.
          4   -1    0    0  502    0  0.00000000000E+00 -0.00000000000E+00 -0.84327005230E+02  0.84336568054E+02  0.12700000000E+01 0. -1.
         25    2    1    2    0    0 -0.15732335882E+02 -0.26576789738E+02 -0.20613202946E+01  0.12877394496E+03  0.12499859085E+03 0.  0.
    9000005    1    3    3    0    0  0.39684676137E+02 -0.46355254203E+02 -0.24538064919E+02  0.65778413953E+02  0.10000000000E+01 0.  0.
    9000005    1    3    3    0    0 -0.55417012018E+02  0.19778464464E+02  0.22476744624E+02  0.62995531004E+02  0.10000000000E+01 0.  0.
         21    1    1    2  502  501  0.15732335882E+02  0.26576789738E+02 -0.63156145219E+01  0.31523310928E+02  0.00000000000E+00 0. -1.
<mgrwt>
<rscale>  1 0.12875745E+03</rscale>
<asrwt>0</asrwt>
<pdfrwt beam="2">  1        4 0.12974938E-01 0.12875745E+03</pdfrwt>
<pdfrwt beam="1">  1       -4 0.11686179E-01 0.12875745E+03</pdfrwt>
<totfact> 0.45541455E+03</totfact>
</mgrwt>
</event>
<event>
 6    4  0.1195577E-003  0.1296529E+03  0.7818608E-02  0.1227972E+00
         -4   -1    0    0    0  501 -0.00000000000E+00  0.00000000000E+00  0.20021468164E+03  0.20021870952E+03  0.12700000000E+01 0. -1.
          4   -1    0    0  502    0  0.00000000000E+00 -0.00000000000E+00 -0.34727928776E+02  0.34751142960E+02  0.12700000000E+01 0. -1.
         25    2    1    2    0    0 -0.29907857653E+02 -0.17055351427E+02  0.11183798612E+03  0.17122383195E+03  0.12499800208E+03 0.  0.
    9000005    1    3    3    0    0 -0.62976616330E+02 -0.12822618725E+01  0.11827984121E+03  0.13401051912E+03  0.10000000000E+01 0.  0.
    9000005    1    3    3    0    0  0.33068758677E+02 -0.15773089555E+02 -0.64418550814E+01  0.37213312825E+02  0.10000000000E+01 0.  0.
         21    1    1    2  502  501  0.29907857653E+02  0.17055351427E+02  0.53648766736E+02  0.63746020534E+02  0.00000000000E+00 0. -1.
<mgrwt>
<rscale>  1 0.12965287E+03</rscale>
<asrwt>0</asrwt>
<pdfrwt beam="2">  1        4 0.53448538E-02 0.12965287E+03</pdfrwt>
<pdfrwt beam="1">  1       -4 0.30804354E-01 0.12965287E+03</pdfrwt>
<totfact> 0.35107678E+03</totfact>
</mgrwt>
</event>
<event>
 6    4  0.1195577E-003  0.1292310E+03  0.7818608E-02  0.1228601E+00
         -4   -1    0    0    0  501 -0.00000000000E+00  0.00000000000E+00  0.30813748303E+03  0.30814010019E+03  0.12700000000E+01 0.  1.
          4   -1    0    0  502    0  0.00000000000E+00 -0.00000000000E+00 -0.21940301033E+02  0.21977026856E+02  0.12700000000E+01 0.  1.
         25    2    1    2    0    0 -0.25719661366E+02 -0.20356867619E+02  0.24889270895E+03  0.28044292097E+03  0.12499899326E+03 0.  0.
    9000005    1    3    3    0    0 -0.74409697830E+01 -0.63983992771E+02  0.20852474065E+03  0.21824959754E+03  0.10000000000E+01 0.  0.
    9000005    1    3    3    0    0 -0.18278691583E+02  0.43627125152E+02  0.40367968291E+02  0.62193323428E+02  0.10000000000E+01 0.  0.
         21    1    1    2  502  501  0.25719661366E+02  0.20356867619E+02  0.37304473049E+02  0.49674206078E+02  0.00000000000E+00 0.  1.
<mgrwt>
<rscale>  1 0.12923100E+03</rscale>
<asrwt>0</asrwt>
<pdfrwt beam="2">  1        4 0.33784573E-02 0.12923100E+03</pdfrwt>
<pdfrwt beam="1">  1       -4 0.47408794E-01 0.12923100E+03</pdfrwt>
<totfact> 0.31362051E+03</totfact>
</mgrwt>
</event>
<event>
 6    4  0.1195577E-003  0.1270070E+03  0.7818608E-02  0.1231966E+00
         -4   -1    0    0    0  501 -0.00000000000E+00  0.00000000000E+00  0.10492811342E+03  0.10493579888E+03  0.12700000000E+01 0.  1.
          4   -1    0    0  502    0  0.00000000000E+00 -0.00000000000E+00 -0.54806134352E+02  0.54820846971E+02  0.12700000000E+01 0.  1.
         25    2    1    2    0    0 -0.32284809446E+01 -0.22291768600E+02  0.51812533344E+02  0.13716894985E+03  0.12499374447E+03 0.  0.
    9000005    1    3    3    0    0 -0.50976787683E+02  0.27020689313E+02  0.30613312742E+02  0.65321707345E+02  0.10000000000E+01 0.  0.
    9000005    1    3    3    0    0  0.47748306739E+02 -0.49312457913E+02  0.21199220602E+02  0.71847242508E+02  0.10000000000E+01 0.  0.
         21    1    1    2  502  501  0.32284809446E+01  0.22291768600E+02 -0.16905542767E+01  0.22587695993E+02  0.00000000000E+00 0.  1.
<mgrwt>
<rscale>  1 0.12700702E+03</rscale>
<asrwt>0</asrwt>
<pdfrwt beam="2">  1        4 0.84334359E-02 0.12700702E+03</pdfrwt>
<pdfrwt beam="1">  1       -4 0.16144510E-01 0.12700702E+03</pdfrwt>
<totfact> 0.53731482E+03</totfact>
</mgrwt>
</event>
<event>
 6    4  0.1195577E-003  0.1310023E+03  0.7818608E-02  0.1225976E+00
          4   -1    0    0  502    0  0.00000000000E+00  0.00000000000E+00  0.24345905395E+02  0.24379007558E+02  0.12700000000E+01 0.  1.
         -4   -1    0    0    0  501 -0.00000000000E+00 -0.00000000000E+00 -0.32346686040E+03  0.32346935354E+03  0.12700000000E+01 0.  1.
         25    2    1    2    0    0 -0.49582432505E+01  0.38883570581E+02 -0.18129144355E+03  0.22366982025E+03  0.12500033899E+03 0.  0.
    9000005    1    3    3    0    0 -0.22219906324E+02 -0.12318820715E+02 -0.16539418038E+03  0.16733712226E+03  0.10000000000E+01 0.  0.
    9000005    1    3    3    0    0  0.17261663073E+02  0.51202391296E+02 -0.15897263166E+02  0.56332697988E+02  0.10000000000E+01 0.  0.
         21    1    1    2  502  501  0.49582432505E+01 -0.38883570581E+02 -0.11782951146E+03  0.12417854085E+03  0.00000000000E+00 0.  1.
<mgrwt>
<rscale>  1 0.13100229E+03</rscale>
<asrwt>0</asrwt>
<pdfrwt beam="1">  1        4 0.37482622E-02 0.13100229E+03</pdfrwt>
<pdfrwt beam="2">  1       -4 0.49766868E-01 0.13100229E+03</pdfrwt>
<totfact> 0.24206802E+03</totfact>
</mgrwt>
</event>
<event>
 6    4  0.1195577E-003  0.1350382E+03  0.7818608E-02  0.1220166E+00
          4   -1    0    0  502    0  0.00000000000E+00  0.00000000000E+00  0.61755312564E+02  0.61768369980E+02  0.12700000000E+01 0. -1.
         -4   -1    0    0    0  501 -0.00000000000E+00 -0.00000000000E+00 -0.21425635941E+03  0.21426012333E+03  0.12700000000E+01 0. -1.
         25    2    1    2    0    0 -0.50481784848E+01  0.50842226393E+02 -0.17429182344E+03  0.22048343020E+03  0.12499954875E+03 0.  0.
    9000005    1    3    3    0    0 -0.60623645543E+02  0.14854076084E+02 -0.11832595146E+03  0.13378303616E+03  0.10000000000E+01 0.  0.
    9000005    1    3    3    0    0  0.55575467058E+02  0.35988150309E+02 -0.55965871979E+02  0.86700394047E+02  0.10000000000E+01 0.  0.
         21    1    1    2  502  501  0.50481784848E+01 -0.50842226393E+02  0.21790776590E+02  0.55545063102E+02  0.00000000000E+00 0.  1.
<mgrwt>
<rscale>  1 0.13503815E+03</rscale>
<asrwt>0</asrwt>
<pdfrwt beam="1">  1        4 0.95021114E-02 0.13503815E+03</pdfrwt>
<pdfrwt beam="2">  1       -4 0.32963810E-01 0.13503815E+03</pdfrwt>
<totfact> 0.12098309E+03</totfact>
</mgrwt>
</event>
<event>
 6    4  0.1195577E-003  0.1279020E+03  0.7818608E-02  0.1230602E+00
          4   -1    0    0  502    0  0.00000000000E+00  0.00000000000E+00  0.94851958722E+01  0.95698401624E+01  0.12700000000E+01 0. -1.
         -4   -1    0    0    0  501 -0.00000000000E+00 -0.00000000000E+00 -0.63173445334E+03  0.63173572990E+03  0.12700000000E+01 0. -1.
         25    2    1    2    0    0  0.14129266220E+01 -0.27110916420E+02 -0.50325201981E+03  0.51925090722E+03  0.12498764364E+03 0.  0.
    9000005    1    3    3    0    0  0.29576130225E+02 -0.28366654681E+01 -0.23068666130E+02  0.37629210822E+02  0.10000000000E+01 0.  0.
    9000005    1    3    3    0    0 -0.28163203603E+02 -0.24274250952E+02 -0.48018335368E+03  0.48162169640E+03  0.10000000000E+01 0.  0.
         21    1    1    2  502  501 -0.14129266220E+01  0.27110916420E+02 -0.11899723766E+03  0.12205466284E+03  0.00000000000E+00 0.  1.
<mgrwt>
<rscale>  1 0.12790195E+03</rscale>
<asrwt>0</asrwt>
<pdfrwt beam="1">  1        4 0.14658707E-02 0.12790195E+03</pdfrwt>
<pdfrwt beam="2">  1       -4 0.97196492E-01 0.12790195E+03</pdfrwt>
<totfact> 0.24354257E+03</totfact>
</mgrwt>
</event>
<event>
 6    4  0.1195577E-003  0.1405463E+03  0.7818608E-02  0.1212596E+00
         -4   -1    0    0    0  501 -0.00000000000E+00  0.00000000000E+00  0.72379191603E+03  0.72379303023E+03  0.12700000000E+01 0.  1.
          4   -1    0    0  502    0  0.00000000000E+00 -0.00000000000E+00 -0.18780927567E+02  0.18823818430E+02  0.12700000000E+01 0.  1.
         25    2    1    2    0    0 -0.41033078238E+02 -0.49425827669E+02  0.62184609393E+03  0.63753104737E+03  0.12500658332E+03 0.  0.
    9000005    1    3    3    0    0  0.27439368023E+02 -0.49425999906E+02  0.14231953574E+03  0.15313947446E+03  0.10000000000E+01 0.  0.
    9000005    1    3    3    0    0 -0.68472446260E+02  0.17223711631E-03  0.47952655819E+03  0.48439157291E+03  0.10000000000E+01 0.  0.
         21    1    1    2  502  501  0.41033078238E+02  0.49425827669E+02  0.83164894528E+02  0.10508580129E+03  0.00000000000E+00 0.  1.
<mgrwt>
<rscale>  1 0.14054633E+03</rscale>
<asrwt>0</asrwt>
<pdfrwt beam="2">  1        4 0.28927588E-02 0.14054633E+03</pdfrwt>
<pdfrwt beam="1">  1       -4 0.11135598E+00 0.14054633E+03</pdfrwt>
<totfact> 0.63419534E+02</totfact>
</mgrwt>
</event>
<event>
 6    4  0.1195577E-003  0.1268225E+03  0.7818608E-02  0.1232248E+00
         -4   -1    0    0    0  501 -0.00000000000E+00  0.00000000000E+00  0.20025002227E+02  0.20065233968E+02  0.12700000000E+01 0.  1.
          4   -1    0    0  502    0  0.00000000000E+00 -0.00000000000E+00 -0.27522858757E+03  0.27523151767E+03  0.12700000000E+01 0.  1.
         25    2    1    2    0    0  0.17824401133E+02  0.11900341088E+02 -0.21121685844E+03  0.24636660206E+03  0.12499845570E+03 0.  0.
    9000005    1    3    3    0    0 -0.50994801464E+02  0.19373041043E+02 -0.67090392859E+02  0.86474882536E+02  0.10000000000E+01 0.  0.
    9000005    1    3    3    0    0  0.68819202597E+02 -0.74726999554E+01 -0.14412646558E+03  0.15989171952E+03  0.10000000000E+01 0.  0.
         21    1    1    2  502  501 -0.17824401133E+02 -0.11900341088E+02 -0.43986726905E+02  0.48930149577E+02  0.00000000000E+00 0.  1.
<mgrwt>
<rscale>  1 0.12682248E+03</rscale>
<asrwt>0</asrwt>
<pdfrwt beam="2">  1        4 0.42346177E-01 0.12682248E+03</pdfrwt>
<pdfrwt beam="1">  1       -4 0.30840899E-02 0.12682248E+03</pdfrwt>
<totfact> 0.45146206E+03</totfact>
</mgrwt>
</event>
<event>
 6    4  0.1195577E-003  0.1321927E+03  0.7818608E-02  0.1224238E+00
          4   -1    0    0  502    0  0.00000000000E+00  0.00000000000E+00  0.64944189534E+02  0.64956605933E+02  0.12700000000E+01 0.  1.
         -4   -1    0    0    0  501 -0.00000000000E+00 -0.00000000000E+00 -0.34397776646E+03  0.34398011093E+03  0.12700000000E+01 0.  1.
         25    2    1    2    0    0 -0.40662007112E+02  0.14022887266E+02 -0.32203789330E+03  0.34811392987E+03  0.12499945304E+03 0.  0.
    9000005    1    3    3    0    0 -0.36127224167E+02  0.54755774698E+02 -0.28631894774E+03  0.29373952922E+03  0.10000000000E+01 0.  0.
    9000005    1    3    3    0    0 -0.45347829450E+01 -0.40732887431E+02 -0.35718945560E+02  0.54374400656E+02  0.10000000000E+01 0.  0.
         21    1    1    2  502  501  0.40662007112E+02 -0.14022887266E+02  0.43004316381E+02  0.60822786989E+02  0.00000000000E+00 0.  1.
<mgrwt>
<rscale>  1 0.13219268E+03</rscale>
<asrwt>0</asrwt>
<pdfrwt beam="1">  1        4 0.99925494E-02 0.13219268E+03</pdfrwt>
<pdfrwt beam="2">  1       -4 0.52920791E-01 0.13219268E+03</pdfrwt>
<totfact> 0.43329647E+02</totfact>
</mgrwt>
</event>
<event>
 6    4  0.1195577E-003  0.1414026E+03  0.7818608E-02  0.1211454E+00
         -4   -1    0    0    0  501 -0.00000000000E+00  0.00000000000E+00  0.26822197190E+03  0.26822497854E+03  0.12700000000E+01 0. -1.
          4   -1    0    0  502    0  0.00000000000E+00 -0.00000000000E+00 -0.41732754451E+02  0.41752074129E+02  0.12700000000E+01 0. -1.
         25    2    1    2    0    0 -0.40781519586E+02 -0.52028308568E+02  0.18120454188E+03  0.22984728870E+03  0.12499845156E+03 0.  0.
    9000005    1    3    3    0    0  0.18511228734E+02  0.27105407451E+01 -0.10762294705E+02  0.21606471431E+02  0.10000000000E+01 0.  0.
    9000005    1    3    3    0    0 -0.59292748320E+02 -0.54738849313E+02  0.19196683658E+03  0.20824081727E+03  0.10000000000E+01 0.  0.
         21    1    1    2  502  501  0.40781519586E+02  0.52028308568E+02  0.45284675573E+02  0.80129763971E+02  0.00000000000E+00 0. -1.
<mgrwt>
<rscale>  1 0.14140258E+03</rscale>
<asrwt>0</asrwt>
<pdfrwt beam="2">  1        4 0.64221413E-02 0.14140258E+03</pdfrwt>
<pdfrwt beam="1">  1       -4 0.41266635E-01 0.14140258E+03</pdfrwt>
<totfact> 0.15091238E+03</totfact>
</mgrwt>
</event>
<event>
 6    4  0.1195577E-003  0.1268360E+03  0.7818608E-02  0.1232227E+00
          4   -1    0    0  502    0  0.00000000000E+00  0.00000000000E+00  0.13091823886E+03  0.13092439867E+03  0.12700000000E+01 0.  1.
         -4   -1    0    0    0  501 -0.00000000000E+00 -0.00000000000E+00 -0.44250490725E+02  0.44268711630E+02  0.12700000000E+01 0.  1.
         25    2    1    2    0    0  0.14517012694E+02 -0.15864478718E+02  0.58292731820E+02  0.13959020461E+03  0.12499982919E+03 0.  0.
    9000005    1    3    3    0    0  0.87104977651E+01 -0.14236739061E+02 -0.38829227271E+02  0.42276073621E+02  0.10000000000E+01 0.  0.
    9000005    1    3    3    0    0  0.58065149293E+01 -0.16277396573E+01  0.97121959091E+02  0.97314130987E+02  0.10000000000E+01 0.  0.
         21    1    1    2  502  501 -0.14517012694E+02  0.15864478718E+02  0.28375016314E+02  0.35602905688E+02  0.00000000000E+00 0.  1.
<mgrwt>
<rscale>  1 0.12683605E+03</rscale>
<asrwt>0</asrwt>
<pdfrwt beam="1">  1        4 0.20143143E-01 0.12683605E+03</pdfrwt>
<pdfrwt beam="2">  1       -4 0.68096433E-02 0.12683605E+03</pdfrwt>
<totfact> 0.51575332E+03</totfact>
</mgrwt>
</event>
<event>
 6    4  0.1195577E-003  0.1411526E+03  0.7818608E-02  0.1211786E+00
          4   -1    0    0  502    0  0.00000000000E+00  0.00000000000E+00  0.10293701761E+03  0.10294485171E+03  0.12700000000E+01 0. -1.
         -4   -1    0    0    0  501 -0.00000000000E+00 -0.00000000000E+00 -0.11789821589E+03  0.11790505591E+03  0.12700000000E+01 0. -1.
         25    2    1    2    0    0  0.25377167267E+02 -0.60463499949E+02 -0.45786253829E+02  0.14839288937E+03  0.12499693249E+03 0.  0.
    9000005    1    3    3    0    0 -0.31673711369E+02  0.17123019325E+02  0.96214893111E+01  0.37282634554E+02  0.10000000000E+01 0.  0.
    9000005    1    3    3    0    0  0.57050878636E+02 -0.77586519274E+02 -0.55407743140E+02  0.11111025482E+03  0.10000000000E+01 0.  0.
         21    1    1    2  502  501 -0.25377167267E+02  0.60463499949E+02  0.30825055547E+02  0.72457018252E+02  0.00000000000E+00 0. -1.
<mgrwt>
<rscale>  1 0.14115264E+03</rscale>
<asrwt>0</asrwt>
<pdfrwt beam="1">  1        4 0.15837593E-01 0.14115264E+03</pdfrwt>
<pdfrwt beam="2">  1       -4 0.18139316E-01 0.14115264E+03</pdfrwt>
<totfact> 0.15293958E+03</totfact>
</mgrwt>
</event>
<event>
 6    4  0.1195577E-003  0.1267879E+03  0.7818608E-02  0.1232301E+00
         -4   -1    0    0    0  501 -0.00000000000E+00  0.00000000000E+00  0.34150694295E+01  0.36435695696E+01  0.12700000000E+01 0. -1.
          4   -1    0    0  502    0  0.00000000000E+00 -0.00000000000E+00 -0.19448907989E+04  0.19448912135E+04  0.12700000000E+01 0. -1.
         25    2    1    2    0    0  0.19699631537E+02  0.78960245328E+01 -0.11853923103E+04  0.11921535569E+04  0.12499900457E+03 0.  0.
    9000005    1    3    3    0    0  0.52756681713E+02 -0.19810018832E+02 -0.10085793164E+04  0.10101529299E+04  0.10000000000E+01 0.  0.
    9000005    1    3    3    0    0 -0.33057050175E+02  0.27706043365E+02 -0.17681299396E+03  0.18200062703E+03  0.10000000000E+01 0.  0.
         21    1    1    2  502  501 -0.19699631537E+02 -0.78960245328E+01 -0.75608341909E+03  0.75638122618E+03  0.00000000000E+00 0. -1.
<mgrwt>
<rscale>  1 0.12678791E+03</rscale>
<asrwt>0</asrwt>
<pdfrwt beam="2">  1        4 0.29923072E+00 0.12678791E+03</pdfrwt>
<pdfrwt beam="1">  1       -4 0.54300568E-03 0.12678791E+03</pdfrwt>
<totfact> 0.46250100E+02</totfact>
</mgrwt>
</event>
<event>
 6    4  0.1195577E-003  0.1314094E+03  0.7818608E-02  0.1225379E+00
          4   -1    0    0  502    0  0.00000000000E+00  0.00000000000E+00  0.16666390308E+02  0.16714708071E+02  0.12700000000E+01 0.  1.
         -4   -1    0    0    0  501 -0.00000000000E+00 -0.00000000000E+00 -0.47751394673E+03  0.47751563558E+03  0.12700000000E+01 0.  1.
         25    2    1    2    0    0  0.57348416205E+01 -0.40141201105E+02 -0.40064626027E+03  0.42164659552E+03  0.12499688480E+03 0.  0.
    9000005    1    3    3    0    0  0.34910392953E+02  0.32415201433E+02 -0.96740906668E+02  0.10783915728E+03  0.10000000000E+01 0.  0.
    9000005    1    3    3    0    0 -0.29175551332E+02 -0.72556402538E+02 -0.30390535360E+03  0.31380743824E+03  0.10000000000E+01 0.  0.
         21    1    1    2  502  501 -0.57348416205E+01  0.40141201105E+02 -0.60201296152E+02  0.72583748132E+02  0.00000000000E+00 0.  1.
<mgrwt>
<rscale>  1 0.13140938E+03</rscale>
<asrwt>0</asrwt>
<pdfrwt beam="1">  1        4 0.25679071E-02 0.13140938E+03</pdfrwt>
<pdfrwt beam="2">  1       -4 0.73467520E-01 0.13140938E+03</pdfrwt>
<totfact> 0.19327758E+03</totfact>
</mgrwt>
</event>
<event>
 6    4  0.1195577E-003  0.1394217E+03  0.7818608E-02  0.1214109E+00
          4   -1    0    0  502    0  0.00000000000E+00  0.00000000000E+00  0.38160390126E+02  0.38181517447E+02  0.12700000000E+01 0.  1.
         -4   -1    0    0    0  501 -0.00000000000E+00 -0.00000000000E+00 -0.17482671695E+04  0.17482676308E+04  0.12700000000E+01 0.  1.
         25    2    1    2    0    0  0.13170789579E+02  0.60331227305E+02 -0.17184848531E+04  0.17241312631E+04  0.12500038184E+03 0.  0.
    9000005    1    3    3    0    0  0.51264764150E+02 -0.16425864140E+01 -0.11303826575E+04  0.11315461663E+04  0.10000000000E+01 0.  0.
    9000005    1    3    3    0    0 -0.38093974571E+02  0.61973813719E+02 -0.58810219555E+03  0.59258509676E+03  0.10000000000E+01 0.  0.
         21    1    1    2  502  501 -0.13170789579E+02 -0.60331227305E+02  0.83780737170E+01  0.62317885117E+02  0.00000000000E+00 0.  1.
<mgrwt>
<rscale>  1 0.13942174E+03</rscale>
<asrwt>0</asrwt>
<pdfrwt beam="1">  1        4 0.58724913E-02 0.13942174E+03</pdfrwt>
<pdfrwt beam="2">  1       -4 0.26896578E+00 0.13942174E+03</pdfrwt>
<totfact> 0.17867287E+01</totfact>
</mgrwt>
</event>
<event>
 6    4  0.1195577E-003  0.1268686E+03  0.7818608E-02  0.1232177E+00
         -4   -1    0    0    0  501 -0.00000000000E+00  0.00000000000E+00  0.11698595155E+03  0.11699284491E+03  0.12700000000E+01 0. -1.
          4   -1    0    0  502    0  0.00000000000E+00 -0.00000000000E+00 -0.49782090875E+02  0.49798287841E+02  0.12700000000E+01 0. -1.
         25    2    1    2    0    0  0.37046415641E+01 -0.21382060490E+02  0.70020195538E+02  0.14490852271E+03  0.12499894116E+03 0.  0.
    9000005    1    3    3    0    0  0.53222132179E+02 -0.46441361496E+01  0.75333664891E+02  0.92359755414E+02  0.10000000000E+01 0.  0.
    9000005    1    3    3    0    0 -0.49517490615E+02 -0.16737924341E+02 -0.53134693531E+01  0.52548767298E+02  0.10000000000E+01 0.  0.
         21    1    1    2  502  501 -0.37046415641E+01  0.21382060490E+02 -0.28163348651E+01  0.21882610036E+02  0.00000000000E+00 0. -1.
<mgrwt>
<rscale>  1 0.12686864E+03</rscale>
<asrwt>0</asrwt>
<pdfrwt beam="2">  1        4 0.76605595E-02 0.12686864E+03</pdfrwt>
<pdfrwt beam="1">  1       -4 0.17999615E-01 0.12686864E+03</pdfrwt>
<totfact> 0.51972799E+03</totfact>
</mgrwt>
</event>
<event>
 6    4  0.1195577E-003  0.1338517E+03  0.7818608E-02  0.1221850E+00
          4   -1    0    0  502    0  0.00000000000E+00  0.00000000000E+00  0.98128797534E+01  0.98947212722E+01  0.12700000000E+01 0. -1.
         -4   -1    0    0    0  501 -0.00000000000E+00 -0.00000000000E+00 -0.93507446447E+03  0.93507532692E+03  0.12700000000E+01 0. -1.
         25    2    1    2    0    0 -0.44392125439E+01  0.47657320974E+02 -0.79508143235E+03  0.80626965554E+03  0.12500138609E+03 0.  0.
    9000005    1    3    3    0    0  0.33712641078E+02 -0.19328461696E+02 -0.10626095168E+03  0.11314822779E+03  0.10000000000E+01 0.  0.
    9000005    1    3    3    0    0 -0.38151853622E+02  0.66985782670E+02 -0.68882048067E+03  0.69312142775E+03  0.10000000000E+01 0.  0.
         21    1    1    2  502  501  0.44392125439E+01 -0.47657320974E+02 -0.13018015237E+03  0.13870039265E+03  0.00000000000E+00 0. -1.
<mgrwt>
<rscale>  1 0.13385168E+03</rscale>
<asrwt>0</asrwt>
<pdfrwt beam="1">  1        4 0.15160364E-02 0.13385168E+03</pdfrwt>
<pdfrwt beam="2">  1       -4 0.14386390E+00 0.13385168E+03</pdfrwt>
<totfact> 0.91286844E+02</totfact>
</mgrwt>
</event>
<event>
 6    4  0.1195577E-003  0.1683150E+03  0.7818608E-02  0.1179617E+00
         -4   -1    0    0    0  501 -0.00000000000E+00  0.00000000000E+00  0.52581881201E+02  0.52597215997E+02  0.12700000000E+01 0. -1.
          4   -1    0    0  502    0  0.00000000000E+00 -0.00000000000E+00 -0.39804946707E+03  0.39805149306E+03  0.12700000000E+01 0. -1.
         25    2    1    2    0    0 -0.52267481823E+02 -0.99864074433E+02 -0.15225337432E+03  0.22696041129E+03  0.12500086112E+03 0.  0.
    9000005    1    3    3    0    0 -0.48276959259E+02 -0.82637680929E+02 -0.25601455009E+02  0.99076160620E+02  0.10000000000E+01 0.  0.
    9000005    1    3    3    0    0 -0.39905225646E+01 -0.17226393504E+02 -0.12665191931E+03  0.12788425067E+03  0.10000000000E+01 0.  0.
         21    1    1    2  502  501  0.52267481823E+02  0.99864074433E+02 -0.19321421154E+03  0.22368829777E+03  0.00000000000E+00 0. -1.
<mgrwt>
<rscale>  1 0.16831500E+03</rscale>
<asrwt>0</asrwt>
<pdfrwt beam="2">  1        4 0.61239713E-01 0.16831500E+03</pdfrwt>
<pdfrwt beam="1">  1       -4 0.80908559E-02 0.16831500E+03</pdfrwt>
<totfact> 0.47583411E+02</totfact>
</mgrwt>
</event>
<event>
 6    4  0.1195577E-003  0.1275059E+03  0.7818608E-02  0.1231204E+00
          4   -1    0    0  502    0  0.00000000000E+00  0.00000000000E+00  0.14518658321E+04  0.14518663875E+04  0.12700000000E+01 0. -1.
         -4   -1    0    0    0  501 -0.00000000000E+00 -0.00000000000E+00 -0.39289738446E+01  0.41291325326E+01  0.12700000000E+01 0. -1.
         25    2    1    2    0    0 -0.10345322360E+01  0.25134078722E+02  0.12420641363E+04  0.12485916392E+04  0.12499988233E+03 0.  0.
    9000005    1    3    3    0    0 -0.40600379018E+02  0.35584868162E+02  0.25381852222E+03  0.25949858543E+03  0.10000000000E+01 0.  0.
    9000005    1    3    3    0    0  0.39565846782E+02 -0.10450789440E+02  0.98824561413E+03  0.98909305380E+03  0.10000000000E+01 0.  0.
         21    1    1    2  502  501  0.10345322360E+01 -0.25134078722E+02  0.20587272188E+03  0.20740388083E+03  0.00000000000E+00 0.  1.
<mgrwt>
<rscale>  1 0.12750593E+03</rscale>
<asrwt>0</asrwt>
<pdfrwt beam="1">  1        4 0.22337956E+00 0.12750593E+03</pdfrwt>
<pdfrwt beam="2">  1       -4 0.61989667E-03 0.12750593E+03</pdfrwt>
<totfact> 0.10413608E+03</totfact>
</mgrwt>
</event>
<event>
 6    4  0.1195577E-003  0.1270198E+03  0.7818608E-02  0.1231946E+00
         -4   -1    0    0    0  501 -0.00000000000E+00  0.00000000000E+00  0.77301947702E+01  0.78338248120E+01  0.12700000000E+01 0. -1.
          4   -1    0    0  502    0  0.00000000000E+00 -0.00000000000E+00 -0.79002564539E+03  0.79002666618E+03  0.12700000000E+01 0. -1.
         25    2    1    2    0    0 -0.15871943037E+02  0.16029563331E+02 -0.55021327187E+03  0.56468458493E+03  0.12500068173E+03 0.  0.
    9000005    1    3    3    0    0  0.22769278737E+02 -0.35030550347E+02 -0.38866804449E+03  0.39090846540E+03  0.10000000000E+01 0.  0.
    9000005    1    3    3    0    0 -0.38641221774E+02  0.51060113677E+02 -0.16154522738E+03  0.17377611953E+03  0.10000000000E+01 0.  0.
         21    1    1    2  502  501  0.15871943037E+02 -0.16029563331E+02 -0.23208217875E+03  0.23317590606E+03  0.00000000000E+00 0. -1.
<mgrwt>
<rscale>  1 0.12701982E+03</rscale>
<asrwt>0</asrwt>
<pdfrwt beam="2">  1        4 0.12155039E+00 0.12701982E+03</pdfrwt>
<pdfrwt beam="1">  1       -4 0.11973114E-02 0.12701982E+03</pdfrwt>
<totfact> 0.19548389E+03</totfact>
</mgrwt>
</event>
<event>
 6    4  0.1195577E-003  0.1275943E+03  0.7818608E-02  0.1231070E+00
         -4   -1    0    0    0  501 -0.00000000000E+00  0.00000000000E+00  0.18979741300E+02  0.19022183886E+02  0.12700000000E+01 0. -1.
          4   -1    0    0  502    0  0.00000000000E+00 -0.00000000000E+00 -0.31037712460E+03  0.31037972288E+03  0.12700000000E+01 0. -1.
         25    2    1    2    0    0 -0.88948526246E+01  0.24008503908E+02 -0.25110545832E+03  0.28166339106E+03  0.12499915201E+03 0.  0.
    9000005    1    3    3    0    0  0.23734040631E+02 -0.40277003748E+02 -0.15251759502E+03  0.15952478963E+03  0.10000000000E+01 0.  0.
    9000005    1    3    3    0    0 -0.32628893256E+02  0.64285507656E+02 -0.98587863303E+02  0.12213860143E+03  0.10000000000E+01 0.  0.
         21    1    1    2  502  501  0.88948526246E+01 -0.24008503908E+02 -0.40291924977E+02  0.47738515702E+02  0.00000000000E+00 0. -1.
<mgrwt>
<rscale>  1 0.12759434E+03</rscale>
<asrwt>0</asrwt>
<pdfrwt beam="2">  1        4 0.47753788E-01 0.12759434E+03</pdfrwt>
<pdfrwt beam="1">  1       -4 0.29234251E-02 0.12759434E+03</pdfrwt>
<totfact> 0.38655959E+03</totfact>
</mgrwt>
</event>
<event>
 6    4  0.1195577E-003  0.1275323E+03  0.7818608E-02  0.1231164E+00
         -4   -1    0    0    0  501 -0.00000000000E+00  0.00000000000E+00  0.37765414599E+02  0.37786762759E+02  0.12700000000E+01 0. -1.
          4   -1    0    0  502    0  0.00000000000E+00 -0.00000000000E+00 -0.24589719708E+03  0.24590047668E+03  0.12700000000E+01 0. -1.
         25    2    1    2    0    0  0.25299428406E+02 -0.28151554678E+00 -0.74534974342E+02  0.14771574436E+03  0.12499735359E+03 0.  0.
    9000005    1    3    3    0    0  0.10807934043E+02  0.36300104424E+02  0.21756493751E+02  0.43690434191E+02  0.10000000000E+01 0.  0.
    9000005    1    3    3    0    0  0.14491494363E+02 -0.36581619971E+02 -0.96291468094E+02  0.10402531017E+03  0.10000000000E+01 0.  0.
         21    1    1    2  502  501 -0.25299428406E+02  0.28151554678E+00 -0.13359680814E+03  0.13597149508E+03  0.00000000000E+00 0. -1.
<mgrwt>
<rscale>  1 0.12753227E+03</rscale>
<asrwt>0</asrwt>
<pdfrwt beam="2">  1        4 0.37832231E-01 0.12753227E+03</pdfrwt>
<pdfrwt beam="1">  1       -4 0.58119584E-02 0.12753227E+03</pdfrwt>
<totfact> 0.20578417E+03</totfact>
</mgrwt>
</event>
<event>
 6    4  0.1195577E-003  0.1275621E+03  0.7818608E-02  0.1231119E+00
         -4   -1    0    0    0  501 -0.00000000000E+00  0.00000000000E+00  0.15058824739E+03  0.15059360263E+03  0.12700000000E+01 0. -1.
          4   -1    0    0  502    0  0.00000000000E+00 -0.00000000000E+00 -0.49851140891E+02  0.49867315429E+02  0.12700000000E+01 0. -1.
         25    2    1    2    0    0 -0.11592261601E+02  0.22636302233E+02  0.11461436963E+03  0.17148918805E+03  0.12500122073E+03 0.  0.
    9000005    1    3    3    0    0 -0.32106857495E+02  0.14449639235E+02  0.13614503437E+03  0.14062756755E+03  0.10000000000E+01 0.  0.
    9000005    1    3    3    0    0  0.20514595894E+02  0.81866629975E+01 -0.21530664740E+02  0.30861620499E+02  0.10000000000E+01 0.  0.
         21    1    1    2  502  501  0.11592261601E+02 -0.22636302233E+02 -0.13877263125E+02  0.28971730008E+02  0.00000000000E+00 0.  1.
<mgrwt>
<rscale>  1 0.12756209E+03</rscale>
<asrwt>0</asrwt>
<pdfrwt beam="2">  1        4 0.76710624E-02 0.12756209E+03</pdfrwt>
<pdfrwt beam="1">  1       -4 0.23169079E-01 0.12756209E+03</pdfrwt>
<totfact> 0.32954796E+03</totfact>
</mgrwt>
</event>
<event>
 6    4  0.1195577E-003  0.1437911E+03  0.7818608E-02  0.1208317E+00
         -4   -1    0    0    0  501 -0.00000000000E+00  0.00000000000E+00  0.23096746241E+02  0.23131636062E+02  0.12700000000E+01 0.  1.
          4   -1    0    0  502    0  0.00000000000E+00 -0.00000000000E+00 -0.49936718400E+03  0.49936879895E+03  0.12700000000E+01 0.  1.
         25    2    1    2    0    0 -0.50454030034E+02  0.50051242697E+02 -0.32205999319E+03  0.35270173873E+03  0.12500056499E+03 0.  0.
    9000005    1    3    3    0    0 -0.90685374272E+02  0.49045527176E+02 -0.21892303829E+03  0.24198677141E+03  0.10000000000E+01 0.  0.
    9000005    1    3    3    0    0  0.40231344237E+02  0.10057155218E+01 -0.10313695489E+03  0.11071496732E+03  0.10000000000E+01 0.  0.
         21    1    1    2  502  501  0.50454030034E+02 -0.50051242697E+02 -0.15421044457E+03  0.16979869628E+03  0.00000000000E+00 0.  1.
<mgrwt>
<rscale>  1 0.14379109E+03</rscale>
<asrwt>0</asrwt>
<pdfrwt beam="2">  1        4 0.76828520E-01 0.14379109E+03</pdfrwt>
<pdfrwt beam="1">  1       -4 0.35561540E-02 0.14379109E+03</pdfrwt>
<totfact> 0.10725301E+03</totfact>
</mgrwt>
</event>
<event>
 6    4  0.1195577E-003  0.1270537E+03  0.7818608E-02  0.1231894E+00
          4   -1    0    0  502    0  0.00000000000E+00  0.00000000000E+00  0.21618968096E+03  0.21619341122E+03  0.12700000000E+01 0. -1.
         -4   -1    0    0    0  501 -0.00000000000E+00 -0.00000000000E+00 -0.27389367491E+02  0.27418795590E+02  0.12700000000E+01 0. -1.
         25    2    1    2    0    0 -0.17475061822E+02  0.14558295024E+02  0.13596384135E+03  0.18608817247E+03  0.12500128016E+03 0.  0.
    9000005    1    3    3    0    0 -0.60320605755E+01 -0.55501105171E+02  0.54426954456E+02  0.77974686927E+02  0.10000000000E+01 0.  0.
    9000005    1    3    3    0    0 -0.11443001247E+02  0.70059400194E+02  0.81536886889E+02  0.10811348555E+03  0.10000000000E+01 0.  0.
         21    1    1    2  502  501  0.17475061822E+02 -0.14558295024E+02  0.52836472122E+02  0.57524034333E+02  0.00000000000E+00 0. -1.
<mgrwt>
<rscale>  1 0.12705370E+03</rscale>
<asrwt>0</asrwt>
<pdfrwt beam="1">  1        4 0.33262500E-01 0.12705370E+03</pdfrwt>
<pdfrwt beam="2">  1       -4 0.42162996E-02 0.12705370E+03</pdfrwt>
<totfact> 0.44124474E+03</totfact>
</mgrwt>
</event>
<event>
 6    4  0.1195577E-003  0.1284327E+03  0.7818608E-02  0.1229800E+00
          4   -1    0    0  502    0  0.00000000000E+00  0.00000000000E+00  0.89984937215E+02  0.89993898824E+02  0.12700000000E+01 0.  1.
         -4   -1    0    0    0  501 -0.00000000000E+00 -0.00000000000E+00 -0.71519658224E+02  0.71530933256E+02  0.12700000000E+01 0.  1.
         25    2    1    2    0    0  0.29440165090E+02  0.18260710435E+01  0.35741612409E+01  0.12848238599E+03  0.12499956410E+03 0.  0.
    9000005    1    3    3    0    0 -0.18827156040E+02  0.50712634985E+02 -0.17083987365E+02  0.56737075850E+02  0.10000000000E+01 0.  0.
    9000005    1    3    3    0    0  0.48267321129E+02 -0.48886563942E+02  0.20658148605E+02  0.71745310138E+02  0.10000000000E+01 0.  0.
         21    1    1    2  502  501 -0.29440165090E+02 -0.18260710435E+01  0.14891117749E+02  0.33042446093E+02  0.00000000000E+00 0.  1.
<mgrwt>
<rscale>  1 0.12843266E+03</rscale>
<asrwt>0</asrwt>
<pdfrwt beam="1">  1        4 0.13845393E-01 0.12843266E+03</pdfrwt>
<pdfrwt beam="2">  1       -4 0.11004581E-01 0.12843266E+03</pdfrwt>
<totfact> 0.45065183E+03</totfact>
</mgrwt>
</event>
<event>
 6    4  0.1195577E-003  0.1272592E+03  0.7818608E-02  0.1231580E+00
         -4   -1    0    0    0  501 -0.00000000000E+00  0.00000000000E+00  0.70120183838E+03  0.70120298848E+03  0.12700000000E+01 0.  1.
          4   -1    0    0  502    0  0.00000000000E+00 -0.00000000000E+00 -0.83694884438E+01  0.84652960262E+01  0.12700000000E+01 0.  1.
         25    2    1    2    0    0 -0.20746984456E+02  0.11875875883E+02  0.62278582958E+03  0.63565484785E+03  0.12499368892E+03 0.  0.
    9000005    1    3    3    0    0  0.18353223427E+02 -0.46862367354E+02  0.16646333337E+03  0.17390791713E+03  0.10000000000E+01 0.  0.
    9000005    1    3    3    0    0 -0.39100207883E+02  0.58738243238E+02  0.45632249621E+03  0.46174693071E+03  0.10000000000E+01 0.  0.
         21    1    1    2  502  501  0.20746984456E+02 -0.11875875883E+02  0.70046520357E+02  0.74013436659E+02  0.00000000000E+00 0.  1.
<mgrwt>
<rscale>  1 0.12725917E+03</rscale>
<asrwt>0</asrwt>
<pdfrwt beam="2">  1        4 0.12950717E-02 0.12725917E+03</pdfrwt>
<pdfrwt beam="1">  1       -4 0.10788468E+00 0.12725917E+03</pdfrwt>
<totfact> 0.23043895E+03</totfact>
</mgrwt>
</event>
<event>
 6    4  0.1195577E-003  0.1286130E+03  0.7818608E-02  0.1229528E+00
         -4   -1    0    0    0  501 -0.00000000000E+00  0.00000000000E+00  0.81926023292E+02  0.81935866337E+02  0.12700000000E+01 0.  1.
          4   -1    0    0  502    0  0.00000000000E+00 -0.00000000000E+00 -0.77443925051E+02  0.77454337692E+02  0.12700000000E+01 0.  1.
         25    2    1    2    0    0 -0.29849881756E+02  0.50312321359E+01 -0.10533188283E+01  0.12861733319E+03  0.12499992071E+03 0.  0.
    9000005    1    3    3    0    0 -0.31806346671E+02 -0.14448920130E+02 -0.58374440749E+02  0.68036683592E+02  0.10000000000E+01 0.  0.
    9000005    1    3    3    0    0  0.19564649157E+01  0.19480152266E+02  0.57321121921E+02  0.60580649596E+02  0.10000000000E+01 0.  0.
         21    1    1    2  502  501  0.29849881756E+02 -0.50312321359E+01  0.55354170687E+01  0.30772870840E+02  0.00000000000E+00 0.  1.
<mgrwt>
<rscale>  1 0.12861302E+03</rscale>
<asrwt>0</asrwt>
<pdfrwt beam="2">  1        4 0.11916008E-01 0.12861302E+03</pdfrwt>
<pdfrwt beam="1">  1       -4 0.12605562E-01 0.12861302E+03</pdfrwt>
<totfact> 0.46281262E+03</totfact>
</mgrwt>
</event>
<event>
 6    4  0.1195577E-003  0.1269729E+03  0.7818608E-02  0.1232018E+00
          4   -1    0    0  502    0  0.00000000000E+00  0.00000000000E+00  0.39928039263E+02  0.39948231743E+02  0.12700000000E+01 0.  1.
         -4   -1    0    0    0  501 -0.00000000000E+00 -0.00000000000E+00 -0.13962930151E+03  0.13963507704E+03  0.12700000000E+01 0.  1.
         25    2    1    2    0    0 -0.12176865695E+02 -0.18683389861E+02 -0.82532715659E+02  0.15143896465E+03  0.12499906298E+03 0.  0.
    9000005    1    3    3    0    0 -0.35938612195E+02  0.42236354085E+02 -0.61327332252E+02  0.82689389489E+02  0.10000000000E+01 0.  0.
    9000005    1    3    3    0    0  0.23761746500E+02 -0.60919743946E+02 -0.21205383406E+02  0.68749575159E+02  0.10000000000E+01 0.  0.
         21    1    1    2  502  501  0.12176865695E+02  0.18683389861E+02 -0.17168546589E+02  0.28144344136E+02  0.00000000000E+00 0. -1.
<mgrwt>
<rscale>  1 0.12697287E+03</rscale>
<asrwt>0</asrwt>
<pdfrwt beam="1">  1        4 0.61447729E-02 0.12697287E+03</pdfrwt>
<pdfrwt beam="2">  1       -4 0.21483428E-01 0.12697287E+03</pdfrwt>
<totfact> 0.54305958E+03</totfact>
</mgrwt>
</event>
<event>
 6    4  0.1195577E-003  0.1297624E+03  0.7818608E-02  0.1227809E+00
         -4   -1    0    0    0  501 -0.00000000000E+00  0.00000000000E+00  0.30116899384E+03  0.30117167156E+03  0.12700000000E+01 0. -1.
          4   -1    0    0  502    0  0.00000000000E+00 -0.00000000000E+00 -0.22504064681E+02  0.22539871942E+02  0.12700000000E+01 0. -1.
         25    2    1    2    0    0 -0.73606655388E+01  0.34044946856E+02  0.21424578245E+03  0.25047859828E+03  0.12500014038E+03 0.  0.
    9000005    1    3    3    0    0  0.56267683495E+02  0.34715218241E+02  0.10908505375E+03  0.12756076017E+03  0.10000000000E+01 0.  0.
    9000005    1    3    3    0    0 -0.63628349034E+02 -0.67027138524E+00  0.10516072870E+03  0.12291783811E+03  0.10000000000E+01 0.  0.
         21    1    1    2  502  501  0.73606655388E+01 -0.34044946856E+02  0.64419146707E+02  0.73232945223E+02  0.00000000000E+00 0. -1.
<mgrwt>
<rscale>  1 0.12976237E+03</rscale>
<asrwt>0</asrwt>
<pdfrwt beam="2">  1        4 0.34651246E-02 0.12976237E+03</pdfrwt>
<pdfrwt beam="1">  1       -4 0.46336646E-01 0.12976237E+03</pdfrwt>
<totfact> 0.31588071E+03</totfact>
</mgrwt>
</event>
<event>
 6    4  0.1195577E-003  0.1271902E+03  0.7818608E-02  0.1231686E+00
          4   -1    0    0  502    0  0.00000000000E+00  0.00000000000E+00  0.71026581087E+02  0.71037934380E+02  0.12700000000E+01 0.  1.
         -4   -1    0    0    0  501 -0.00000000000E+00 -0.00000000000E+00 -0.11358063279E+03  0.11358773281E+03  0.12700000000E+01 0.  1.
         25    2    1    2    0    0  0.21042949176E+02  0.10454576521E+02 -0.72624400222E+02  0.14646377861E+03  0.12500092422E+03 0.  0.
    9000005    1    3    3    0    0  0.20769833900E+02 -0.53445115769E+02 -0.12448194164E+02  0.58683250913E+02  0.10000000000E+01 0.  0.
    9000005    1    3    3    0    0  0.27311527601E+00  0.63899692289E+02 -0.60176206058E+02  0.87780527694E+02  0.10000000000E+01 0.  0.
         21    1    1    2  502  501 -0.21042949176E+02 -0.10454576521E+02  0.30070348519E+02  0.38161888584E+02  0.00000000000E+00 0. -1.
<mgrwt>
<rscale>  1 0.12719015E+03</rscale>
<asrwt>0</asrwt>
<pdfrwt beam="1">  1        4 0.10928586E-01 0.12719015E+03</pdfrwt>
<pdfrwt beam="2">  1       -4 0.17475363E-01 0.12719015E+03</pdfrwt>
<totfact> 0.30264094E+03</totfact>
</mgrwt>
</event>
<event>
 6    4  0.1195577E-003  0.1266878E+03  0.7818608E-02  0.1232455E+00
          4   -1    0    0  502    0  0.00000000000E+00  0.00000000000E+00  0.23075351527E+02  0.23110273648E+02  0.12700000000E+01 0. -1.
         -4   -1    0    0    0  501 -0.00000000000E+00 -0.00000000000E+00 -0.24010240822E+03  0.24010576697E+03  0.12700000000E+01 0. -1.
         25    2    1    2    0    0 -0.16280236701E+02  0.12641811256E+02 -0.19860600181E+03  0.23557193163E+03  0.12499971807E+03 0.  0.
    9000005    1    3    3    0    0 -0.27540720030E+02  0.60804513052E+02 -0.15815678579E+03  0.17166900990E+03  0.10000000000E+01 0.  0.
    9000005    1    3    3    0    0  0.11260483328E+02 -0.48162701796E+02 -0.40449216016E+02  0.63902921728E+02  0.10000000000E+01 0.  0.
         21    1    1    2  502  501  0.16280236701E+02 -0.12641811256E+02 -0.18421054881E+02  0.27644108990E+02  0.00000000000E+00 0. -1.
<mgrwt>
<rscale>  1 0.12668777E+03</rscale>
<asrwt>0</asrwt>
<pdfrwt beam="1">  1        4 0.35529989E-02 0.12668777E+03</pdfrwt>
<pdfrwt beam="2">  1       -4 0.36941775E-01 0.12668777E+03</pdfrwt>
<totfact> 0.47231823E+03</totfact>
</mgrwt>
</event>
<event>
 6    4  0.1195577E-003  0.1284511E+03  0.7818608E-02  0.1229772E+00
         -4   -1    0    0    0  501 -0.00000000000E+00  0.00000000000E+00  0.13994451552E+03  0.13995027804E+03  0.12700000000E+01 0. -1.
          4   -1    0    0  502    0  0.00000000000E+00 -0.00000000000E+00 -0.44738643966E+02  0.44756666140E+02  0.12700000000E+01 0. -1.
         25    2    1    2    0    0 -0.29477302832E+02 -0.24536744103E+01  0.73244324729E+02  0.14786618633E+03  0.12499898421E+03 0.  0.
    9000005    1    3    3    0    0 -0.61787715101E+02 -0.43622778919E+02  0.37054860669E+02  0.84230227812E+02  0.10000000000E+01 0.  0.
    9000005    1    3    3    0    0  0.32310412269E+02  0.41169104508E+02  0.36189464060E+02  0.63635958514E+02  0.10000000000E+01 0.  0.
         21    1    1    2  502  501  0.29477302832E+02  0.24536744103E+01  0.21961546821E+02  0.36840757852E+02  0.00000000000E+00 0. -1.
<mgrwt>
<rscale>  1 0.12845107E+03</rscale>
<asrwt>0</asrwt>
<pdfrwt beam="2">  1        4 0.68846979E-02 0.12845107E+03</pdfrwt>
<pdfrwt beam="1">  1       -4 0.21531755E-01 0.12845107E+03</pdfrwt>
<totfact> 0.45058489E+03</totfact>
</mgrwt>
</event>
<event>
 6    4  0.1195577E-003  0.1569053E+03  0.7818608E-02  0.1192236E+00
          4   -1    0    0  502    0  0.00000000000E+00  0.00000000000E+00  0.21117908264E+03  0.21118290140E+03  0.12700000000E+01 0.  1.
         -4   -1    0    0    0  501 -0.00000000000E+00 -0.00000000000E+00 -0.22030782775E+03  0.22031148828E+03  0.12700000000E+01 0.  1.
         25    2    1    2    0    0  0.44619287552E+02  0.83689215634E+02 -0.17832691544E+03  0.23752844814E+03  0.12499803708E+03 0.  0.
    9000005    1    3    3    0    0  0.23794063299E+02 -0.30220031542E+02 -0.27124834520E+02  0.47076155349E+02  0.10000000000E+01 0.  0.
    9000005    1    3    3    0    0  0.20825224252E+02  0.11390924718E+03 -0.15120208092E+03  0.19045229280E+03  0.10000000000E+01 0.  0.
         21    1    1    2  502  501 -0.44619287552E+02 -0.83689215634E+02  0.16919817033E+03  0.19396594154E+03  0.00000000000E+00 0.  1.
<mgrwt>
<rscale>  1 0.15690531E+03</rscale>
<asrwt>0</asrwt>
<pdfrwt beam="1">  1        4 0.32489665E-01 0.15690531E+03</pdfrwt>
<pdfrwt beam="2">  1       -4 0.33894087E-01 0.15690531E+03</pdfrwt>
<totfact> 0.13164656E+02</totfact>
</mgrwt>
</event>
<event>
 6    4  0.1195577E-003  0.1279572E+03  0.7818608E-02  0.1230519E+00
         -4   -1    0    0    0  501 -0.00000000000E+00  0.00000000000E+00  0.29083402319E+02  0.29111117987E+02  0.12700000000E+01 0.  1.
          4   -1    0    0  502    0  0.00000000000E+00 -0.00000000000E+00 -0.28450558389E+03  0.28450841844E+03  0.12700000000E+01 0.  1.
         25    2    1    2    0    0  0.40772690275E+01  0.27055177282E+02 -0.11986985378E+03  0.17533345502E+03  0.12499772744E+03 0.  0.
    9000005    1    3    3    0    0  0.27825877556E+02  0.11147847218E+02 -0.13816392205E+03  0.14138183517E+03  0.10000000000E+01 0.  0.
    9000005    1    3    3    0    0 -0.23748608528E+02  0.15907330064E+02  0.18294068273E+02  0.33951619855E+02  0.10000000000E+01 0.  0.
         21    1    1    2  502  501 -0.40772690275E+01 -0.27055177282E+02 -0.13555232779E+03  0.13828608141E+03  0.00000000000E+00 0.  1.
<mgrwt>
<rscale>  1 0.12795717E+03</rscale>
<asrwt>0</asrwt>
<pdfrwt beam="2">  1        4 0.43772438E-01 0.12795717E+03</pdfrwt>
<pdfrwt beam="1">  1       -4 0.44767198E-02 0.12795717E+03</pdfrwt>
<totfact> 0.23506543E+03</totfact>
</mgrwt>
</event>
<event>
 6    4  0.1195577E-003  0.1276076E+03  0.7818608E-02  0.1231049E+00
          4   -1    0    0  502    0  0.00000000000E+00  0.00000000000E+00  0.85654873974E+02  0.85664288566E+02  0.12700000000E+01 0.  1.
         -4   -1    0    0    0  501 -0.00000000000E+00 -0.00000000000E+00 -0.68680332715E+02  0.68692073792E+02  0.12700000000E+01 0.  1.
         25    2    1    2    0    0 -0.24969253977E+02 -0.60835118943E+01  0.16333644539E+02  0.12864870767E+03  0.12499291692E+03 0.  0.
    9000005    1    3    3    0    0 -0.60132368545E+02 -0.42584999366E+02  0.23732362307E+02  0.77418401808E+02  0.10000000000E+01 0.  0.
    9000005    1    3    3    0    0  0.35163114567E+02  0.36501487472E+02 -0.73987177680E+01  0.51230305859E+02  0.10000000000E+01 0.  0.
         21    1    1    2  502  501  0.24969253977E+02  0.60835118943E+01  0.64089672033E+00  0.25707654692E+02  0.00000000000E+00 0.  1.
<mgrwt>
<rscale>  1 0.12760761E+03</rscale>
<asrwt>0</asrwt>
<pdfrwt beam="1">  1        4 0.13179300E-01 0.12760761E+03</pdfrwt>
<pdfrwt beam="2">  1       -4 0.10567832E-01 0.12760761E+03</pdfrwt>
<totfact> 0.52467637E+03</totfact>
</mgrwt>
</event>
<event>
 6    4  0.1195577E-003  0.1273256E+03  0.7818608E-02  0.1231479E+00
         -4   -1    0    0    0  501 -0.00000000000E+00  0.00000000000E+00  0.94071371895E+02  0.94079944250E+02  0.12700000000E+01 0. -1.
          4   -1    0    0  502    0  0.00000000000E+00 -0.00000000000E+00 -0.61689019140E+02  0.61702090584E+02  0.12700000000E+01 0. -1.
         25    2    1    2    0    0  0.22520951377E+02  0.89630952578E+01  0.33009260603E+02  0.13153490426E+03  0.12499715767E+03 0.  0.
    9000005    1    3    3    0    0  0.42800464626E+00 -0.53065491469E+02  0.38325680195E+02  0.65467452488E+02  0.10000000000E+01 0.  0.
    9000005    1    3    3    0    0  0.22092946731E+02  0.62028586727E+02 -0.53164195922E+01  0.66067451774E+02  0.10000000000E+01 0.  0.
         21    1    1    2  502  501 -0.22520951377E+02 -0.89630952578E+01 -0.62690784854E+00  0.24247130572E+02  0.00000000000E+00 0. -1.
<mgrwt>
<rscale>  1 0.12732564E+03</rscale>
<asrwt>0</asrwt>
<pdfrwt beam="2">  1        4 0.94922833E-02 0.12732564E+03</pdfrwt>
<pdfrwt beam="1">  1       -4 0.14474184E-01 0.12732564E+03</pdfrwt>
<totfact> 0.53416389E+03</totfact>
</mgrwt>
</event>
<event>
 6    4  0.1195577E-003  0.1320773E+03  0.7818608E-02  0.1224406E+00
          4   -1    0    0  502    0  0.00000000000E+00  0.00000000000E+00  0.23274175651E+03  0.23274522149E+03  0.12700000000E+01 0.  1.
         -4   -1    0    0    0  501 -0.00000000000E+00 -0.00000000000E+00 -0.37271219178E+02  0.37292850240E+02  0.12700000000E+01 0.  1.
         25    2    1    2    0    0 -0.42284836101E+02  0.55923116184E+01  0.10062007524E+03  0.16603859349E+03  0.12500053470E+03 0.  0.
    9000005    1    3    3    0    0 -0.36477755419E+02 -0.79074169175E+01  0.12887487768E+03  0.13417484108E+03  0.10000000000E+01 0.  0.
    9000005    1    3    3    0    0 -0.58070806821E+01  0.13499728536E+02 -0.28254802441E+02  0.31863752409E+02  0.10000000000E+01 0.  0.
         21    1    1    2  502  501  0.42284836101E+02 -0.55923116184E+01  0.94850462098E+02  0.10399947824E+03  0.00000000000E+00 0.  1.
<mgrwt>
<rscale>  1 0.13207731E+03</rscale>
<asrwt>0</asrwt>
<pdfrwt beam="1">  1        4 0.35808354E-01 0.13207731E+03</pdfrwt>
<pdfrwt beam="2">  1       -4 0.57359642E-02 0.13207731E+03</pdfrwt>
<totfact> 0.23583144E+03</totfact>
</mgrwt>
</event>
<event>
 6    4  0.1195577E-003  0.1282172E+03  0.7818608E-02  0.1230125E+00
         -4   -1    0    0    0  501 -0.00000000000E+00  0.00000000000E+00  0.10942321792E+02  0.11015775334E+02  0.12700000000E+01 0. -1.
          4   -1    0    0  502    0  0.00000000000E+00 -0.00000000000E+00 -0.71921763147E+03  0.71921875276E+03  0.12700000000E+01 0. -1.
         25    2    1    2    0    0  0.22627280577E+01 -0.28455416587E+02 -0.38685808916E+03  0.40755223803E+03  0.12499925962E+03 0.  0.
    9000005    1    3    3    0    0 -0.58906848859E+01  0.37480769948E+02 -0.27376970957E+03  0.27638806443E+03  0.10000000000E+01 0.  0.
    9000005    1    3    3    0    0  0.81534129436E+01 -0.65936186535E+02 -0.11308837960E+03  0.13116417360E+03  0.10000000000E+01 0.  0.
         21    1    1    2  502  501 -0.22627280577E+01  0.28455416587E+02 -0.32141722052E+03  0.32268229006E+03  0.00000000000E+00 0. -1.
<mgrwt>
<rscale>  1 0.12821718E+03</rscale>
<asrwt>0</asrwt>
<pdfrwt beam="2">  1        4 0.11065457E+00 0.12821718E+03</pdfrwt>
<pdfrwt beam="1">  1       -4 0.16891712E-02 0.12821718E+03</pdfrwt>
<totfact> 0.14513896E+03</totfact>
</mgrwt>
</event>
<event>
 6    4  0.1195577E-003  0.1340937E+03  0.7818608E-02  0.1221505E+00
          4   -1    0    0  502    0  0.00000000000E+00  0.00000000000E+00  0.86421089600E+02  0.86430420731E+02  0.12700000000E+01 0. -1.
         -4   -1    0    0    0  501 -0.00000000000E+00 -0.00000000000E+00 -0.97228509683E+02  0.97236803707E+02  0.12700000000E+01 0. -1.
         25    2    1    2    0    0  0.32672064653E+02 -0.35919352588E+02 -0.15003544372E+02  0.13493047077E+03  0.12499384745E+03 0.  0.
    9000005    1    3    3    0    0  0.38577647051E+01 -0.52702207321E+02  0.42921434308E+02  0.68085641130E+02  0.10000000000E+01 0.  0.
    9000005    1    3    3    0    0  0.28814299948E+02  0.16782854733E+02 -0.57924978680E+02  0.66844829640E+02  0.10000000000E+01 0.  0.
         21    1    1    2  502  501 -0.32672064653E+02  0.35919352588E+02  0.41961242895E+01  0.48736753668E+02  0.00000000000E+00 0. -1.
<mgrwt>
<rscale>  1 0.13409372E+03</rscale>
<asrwt>0</asrwt>
<pdfrwt beam="1">  1        4 0.13296908E-01 0.13409372E+03</pdfrwt>
<pdfrwt beam="2">  1       -4 0.14959588E-01 0.13409372E+03</pdfrwt>
<totfact> 0.28798693E+03</totfact>
</mgrwt>
</event>
<event>
 6    4  0.1195577E-003  0.1395863E+03  0.7818608E-02  0.1213887E+00
          4   -1    0    0  502    0  0.00000000000E+00  0.00000000000E+00  0.10954702248E+04  0.10954709610E+04  0.12700000000E+01 0.  1.
         -4   -1    0    0    0  501 -0.00000000000E+00 -0.00000000000E+00 -0.10943332917E+02  0.11016779717E+02  0.12700000000E+01 0.  1.
         25    2    1    2    0    0  0.57784622262E+02 -0.22795007765E+02  0.92177934910E+03  0.93228832153E+03  0.12500268436E+03 0.  0.
    9000005    1    3    3    0    0  0.89271242788E+02 -0.43695623571E+02  0.73776850855E+03  0.74443403638E+03  0.10000000000E+01 0.  0.
    9000005    1    3    3    0    0 -0.31486620525E+02  0.20900615806E+02  0.18401084055E+03  0.18785428516E+03  0.10000000000E+01 0.  0.
         21    1    1    2  502  501 -0.57784622262E+02  0.22795007765E+02  0.16274754278E+03  0.17419941914E+03  0.00000000000E+00 0.  1.
<mgrwt>
<rscale>  1 0.13958634E+03</rscale>
<asrwt>0</asrwt>
<pdfrwt beam="1">  1        4 0.16853967E+00 0.13958634E+03</pdfrwt>
<pdfrwt beam="2">  1       -4 0.16892952E-02 0.13958634E+03</pdfrwt>
<totfact> 0.51825302E+02</totfact>
</mgrwt>
</event>
<event>
 6    4  0.1195577E-003  0.1272752E+03  0.7818608E-02  0.1231556E+00
         -4   -1    0    0    0  501 -0.00000000000E+00  0.00000000000E+00  0.17851278296E+03  0.17851730050E+03  0.12700000000E+01 0. -1.
          4   -1    0    0  502    0  0.00000000000E+00 -0.00000000000E+00 -0.39676445601E+02  0.39696766059E+02  0.12700000000E+01 0. -1.
         25    2    1    2    0    0 -0.55174167229E+01 -0.23304650590E+02  0.14554328122E+03  0.19334376856E+03  0.12500167002E+03 0.  0.
    9000005    1    3    3    0    0  0.51133063931E+02 -0.11848131403E+02  0.11832998379E+03  0.12945251449E+03  0.10000000000E+01 0.  0.
    9000005    1    3    3    0    0 -0.56650480654E+02 -0.11456519186E+02  0.27213297434E+02  0.63891254077E+02  0.10000000000E+01 0.  0.
         21    1    1    2  502  501  0.55174167229E+01  0.23304650590E+02 -0.67069438648E+01  0.24870297996E+02  0.00000000000E+00 0. -1.
<mgrwt>
<rscale>  1 0.12727516E+03</rscale>
<asrwt>0</asrwt>
<pdfrwt beam="2">  1        4 0.61059793E-02 0.12727516E+03</pdfrwt>
<pdfrwt beam="1">  1       -4 0.27465415E-01 0.12727516E+03</pdfrwt>
<totfact> 0.34957833E+03</totfact>
</mgrwt>
</event>
<event>
 6    4  0.1195577E-003  0.1289671E+03  0.7818608E-02  0.1228996E+00
         -4   -1    0    0    0  501 -0.00000000000E+00  0.00000000000E+00  0.14073534947E+04  0.14073540677E+04  0.12700000000E+01 0.  1.
          4   -1    0    0  502    0  0.00000000000E+00 -0.00000000000E+00 -0.51901009745E+01  0.53432245064E+01  0.12700000000E+01 0.  1.
         25    2    1    2    0    0 -0.31648518744E+02 -0.23577844894E+01  0.12799345057E+04  0.12864155083E+04  0.12500133285E+03 0.  0.
    9000005    1    3    3    0    0 -0.67365677450E+02  0.11274948301E+02  0.11156121917E+04  0.11177015797E+04  0.10000000000E+01 0.  0.
    9000005    1    3    3    0    0  0.35717158706E+02 -0.13632732790E+02  0.16432231400E+03  0.16871392861E+03  0.10000000000E+01 0.  0.
         21    1    1    2  502  501  0.31648518744E+02  0.23577844894E+01  0.12222888804E+03  0.12628178395E+03  0.00000000000E+00 0. -1.
<mgrwt>
<rscale>  1 0.12896713E+03</rscale>
<asrwt>0</asrwt>
<pdfrwt beam="2">  1        4 0.81030005E-03 0.12896713E+03</pdfrwt>
<pdfrwt beam="1">  1       -4 0.21652770E+00 0.12896713E+03</pdfrwt>
<totfact> 0.76909772E+02</totfact>
</mgrwt>
</event>
<event>
 6    4  0.1195577E-003  0.1278678E+03  0.7818608E-02  0.1230654E+00
         -4   -1    0    0    0  501 -0.00000000000E+00  0.00000000000E+00  0.18398964857E+03  0.18399403165E+03  0.12700000000E+01 0.  1.
          4   -1    0    0  502    0  0.00000000000E+00 -0.00000000000E+00 -0.33647662562E+02  0.33671621522E+02  0.12700000000E+01 0.  1.
         25    2    1    2    0    0  0.18976249905E+02 -0.19079927909E+02  0.13776717629E+03  0.18796266428E+03  0.12500410629E+03 0.  0.
    9000005    1    3    3    0    0  0.64177077775E+02 -0.22840127197E+02  0.37168530740E+02  0.77607141421E+02  0.10000000000E+01 0.  0.
    9000005    1    3    3    0    0 -0.45200827869E+02  0.37601992879E+01  0.10059864555E+03  0.11035552286E+03  0.10000000000E+01 0.  0.
         21    1    1    2  502  501 -0.18976249905E+02  0.19079927909E+02  0.12574809717E+02  0.29702988888E+02  0.00000000000E+00 0.  1.
<mgrwt>
<rscale>  1 0.12786778E+03</rscale>
<asrwt>0</asrwt>
<pdfrwt beam="2">  1        4 0.51787437E-02 0.12786778E+03</pdfrwt>
<pdfrwt beam="1">  1       -4 0.28308279E-01 0.12786778E+03</pdfrwt>
<totfact> 0.43165687E+03</totfact>
</mgrwt>
</event>
<event>
 6    4  0.1195577E-003  0.1266371E+03  0.7818608E-02  0.1232533E+00
          4   -1    0    0  502    0  0.00000000000E+00  0.00000000000E+00  0.38344094230E+02  0.38365120387E+02  0.12700000000E+01 0. -1.
         -4   -1    0    0    0  501 -0.00000000000E+00 -0.00000000000E+00 -0.16456139889E+03  0.16456629942E+03  0.12700000000E+01 0. -1.
         25    2    1    2    0    0 -0.20143851544E+02 -0.25056230451E+01 -0.13086612957E+03  0.18210680757E+03  0.12499957037E+03 0.  0.
    9000005    1    3    3    0    0  0.14801793023E+02 -0.36837405136E+02  0.27322436693E+01  0.39806439797E+02  0.10000000000E+01 0.  0.
    9000005    1    3    3    0    0 -0.34945644567E+02  0.34331782091E+02 -0.13359837324E+03  0.14230036777E+03  0.10000000000E+01 0.  0.
         21    1    1    2  502  501  0.20143851544E+02  0.25056230451E+01  0.46488249083E+01  0.20824612239E+02  0.00000000000E+00 0. -1.
<mgrwt>
<rscale>  1 0.12663706E+03</rscale>
<asrwt>0</asrwt>
<pdfrwt beam="1">  1        4 0.59010859E-02 0.12663706E+03</pdfrwt>
<pdfrwt beam="2">  1       -4 0.25319132E-01 0.12663706E+03</pdfrwt>
<totfact> 0.42917954E+03</totfact>
</mgrwt>
</event>
<event>
 6    4  0.1195577E-003  0.1283827E+03  0.7818608E-02  0.1229875E+00
         -4   -1    0    0    0  501 -0.00000000000E+00  0.00000000000E+00  0.15778283849E+03  0.15778794954E+03  0.12700000000E+01 0.  1.
          4   -1    0    0  502    0  0.00000000000E+00 -0.00000000000E+00 -0.93861730540E+02  0.93870322041E+02  0.12700000000E+01 0.  1.
         25    2    1    2    0    0 -0.23467243392E+02 -0.17511340444E+02  0.12794816306E+03  0.18125356760E+03  0.12499905912E+03 0.  0.
    9000005    1    3    3    0    0 -0.25255633504E+02  0.43137463156E+02  0.10514601635E+03  0.11642754187E+03  0.10000000000E+01 0.  0.
    9000005    1    3    3    0    0  0.17883901123E+01 -0.60648803601E+02  0.22802146706E+02  0.64826025729E+02  0.10000000000E+01 0.  0.
         21    1    1    2  502  501  0.23467243392E+02  0.17511340444E+02 -0.64027055113E+02  0.70404703983E+02  0.00000000000E+00 0.  1.
<mgrwt>
<rscale>  1 0.12838272E+03</rscale>
<asrwt>0</asrwt>
<pdfrwt beam="2">  1        4 0.14441320E-01 0.12838272E+03</pdfrwt>
<pdfrwt beam="1">  1       -4 0.24275337E-01 0.12838272E+03</pdfrwt>
<totfact> 0.10395529E+03</totfact>
</mgrwt>
</event>
<event>
 6    4  0.1195577E-003  0.1267853E+03  0.7818608E-02  0.1232305E+00
         -4   -1    0    0    0  501 -0.00000000000E+00  0.00000000000E+00  0.11666634002E+03  0.11667325226E+03  0.12700000000E+01 0. -1.
          4   -1    0    0  502    0  0.00000000000E+00 -0.00000000000E+00 -0.54357749231E+02  0.54372583178E+02  0.12700000000E+01 0. -1.
         25    2    1    2    0    0 -0.61646397603E+01 -0.20284794636E+02  0.74034506270E+02  0.14681831450E+03  0.12500013471E+03 0.  0.
    9000005    1    3    3    0    0 -0.12898576635E+02 -0.44301935233E+02 -0.19431456662E+02  0.50076104607E+02  0.10000000000E+01 0.  0.
    9000005    1    3    3    0    0  0.67339368749E+01  0.24017140596E+02  0.93465962932E+02  0.96742209893E+02  0.10000000000E+01 0.  0.
         21    1    1    2  502  501  0.61646397603E+01  0.20284794636E+02 -0.11725915484E+02  0.24227520937E+02  0.00000000000E+00 0. -1.
<mgrwt>
<rscale>  1 0.12678529E+03</rscale>
<asrwt>0</asrwt>
<pdfrwt beam="2">  1        4 0.83644034E-02 0.12678529E+03</pdfrwt>
<pdfrwt beam="1">  1       -4 0.17950340E-01 0.12678529E+03</pdfrwt>
<totfact> 0.45150732E+03</totfact>
</mgrwt>
</event>
<event>
 6    4  0.1195577E-003  0.1308919E+03  0.7818608E-02  0.1226138E+00
         -4   -1    0    0    0  501 -0.00000000000E+00  0.00000000000E+00  0.27756044967E+04  0.27756047872E+04  0.12700000000E+01 0.  1.
          4   -1    0    0  502    0  0.00000000000E+00 -0.00000000000E+00 -0.54726681679E+01  0.56180954848E+01  0.12700000000E+01 0.  1.
         25    2    1    2    0    0 -0.45331404504E+01  0.38562486654E+02  0.26785988537E+04  0.26817950184E+04  0.12500034600E+03 0.  0.
    9000005    1    3    3    0    0  0.40667764632E+02  0.63354846556E+02  0.12495835318E+04  0.12518497141E+04  0.10000000000E+01 0.  0.
    9000005    1    3    3    0    0 -0.45200905082E+02 -0.24792359902E+02  0.14290153219E+04  0.14299453043E+04  0.10000000000E+01 0.  0.
         21    1    1    2  502  501  0.45331404504E+01 -0.38562486654E+02  0.91532974757E+02  0.99427864339E+02  0.00000000000E+00 0.  1.
<mgrwt>
<rscale>  1 0.13089194E+03</rscale>
<asrwt>0</asrwt>
<pdfrwt beam="2">  1        4 0.85315580E-03 0.13089194E+03</pdfrwt>
<pdfrwt beam="1">  1       -4 0.42702839E+00 0.13089194E+03</pdfrwt>
<totfact> 0.37865193E+01</totfact>
</mgrwt>
</event>
<event>
 6    4  0.1195577E-003  0.1277954E+03  0.7818608E-02  0.1230764E+00
          4   -1    0    0  502    0  0.00000000000E+00  0.00000000000E+00  0.41887583487E+01  0.43770534043E+01  0.12700000000E+01 0. -1.
         -4   -1    0    0    0  501 -0.00000000000E+00 -0.00000000000E+00 -0.15293009838E+04  0.15293015111E+04  0.12700000000E+01 0. -1.
         25    2    1    2    0    0  0.22489311514E+02 -0.14159676431E+02 -0.13973493869E+04  0.14031810225E+04  0.12500162878E+03 0.  0.
    9000005    1    3    3    0    0 -0.27986190994E+01 -0.64186030810E+02 -0.50486156770E+03  0.50893406386E+03  0.10000000000E+01 0.  0.
    9000005    1    3    3    0    0  0.25287930613E+02  0.50026354379E+02 -0.89248781920E+03  0.89424695861E+03  0.10000000000E+01 0.  0.
         21    1    1    2  502  501 -0.22489311514E+02  0.14159676431E+02 -0.12776283852E+03  0.13049754202E+03  0.00000000000E+00 0.  1.
<mgrwt>
<rscale>  1 0.12779543E+03</rscale>
<asrwt>0</asrwt>
<pdfrwt beam="1">  1        4 0.65895038E-03 0.12779543E+03</pdfrwt>
<pdfrwt beam="2">  1       -4 0.23529116E+00 0.12779543E+03</pdfrwt>
<totfact> 0.80994591E+02</totfact>
</mgrwt>
</event>
<event>
 6    4  0.1195577E-003  0.1386975E+03  0.7818608E-02  0.1215092E+00
         -4   -1    0    0    0  501 -0.00000000000E+00  0.00000000000E+00  0.16946379494E+03  0.16946855370E+03  0.12700000000E+01 0.  1.
          4   -1    0    0  502    0  0.00000000000E+00 -0.00000000000E+00 -0.79931549492E+02  0.79941638113E+02  0.12700000000E+01 0.  1.
         25    2    1    2    0    0  0.28036886898E+02 -0.53157783544E+02  0.11874754714E+03  0.18258691120E+03  0.12500073285E+03 0.  0.
    9000005    1    3    3    0    0 -0.25483900974E+02 -0.33553050822E+02 -0.86431460539E+01  0.43022556897E+02  0.10000000000E+01 0.  0.
    9000005    1    3    3    0    0  0.53520787872E+02 -0.19604732722E+02  0.12739069320E+03  0.13956435431E+03  0.10000000000E+01 0.  0.
         21    1    1    2  502  501 -0.28036886898E+02  0.53157783544E+02 -0.29215301701E+02  0.66823280611E+02  0.00000000000E+00 0.  1.
<mgrwt>
<rscale>  1 0.13869751E+03</rscale>
<asrwt>0</asrwt>
<pdfrwt beam="2">  1        4 0.12298304E-01 0.13869751E+03</pdfrwt>
<pdfrwt beam="1">  1       -4 0.26072495E-01 0.13869751E+03</pdfrwt>
<totfact> 0.12221583E+03</totfact>
</mgrwt>
</event>
<event>
 6    4  0.1195577E-003  0.1382137E+03  0.7818608E-02  0.1215753E+00
         -4   -1    0    0    0  501 -0.00000000000E+00  0.00000000000E+00  0.16153763864E+04  0.16153768857E+04  0.12700000000E+01 0.  1.
          4   -1    0    0  502    0  0.00000000000E+00 -0.00000000000E+00 -0.59712822086E+01  0.61048432588E+01  0.12700000000E+01 0.  1.
         25    2    1    2    0    0 -0.56912125011E+02  0.15343484960E+02  0.10814476605E+04  0.10902440468E+04  0.12501450605E+03 0.  0.
    9000005    1    3    3    0    0 -0.45226068135E+02  0.61844621172E+02  0.87274812848E+03  0.87610527345E+03  0.10000000000E+01 0.  0.
    9000005    1    3    3    0    0 -0.11686056876E+02 -0.46501136212E+02  0.20869953205E+03  0.21413877340E+03  0.10000000000E+01 0.  0.
         21    1    1    2  502  501  0.56912125011E+02 -0.15343484960E+02  0.52795744370E+03  0.53123768208E+03  0.00000000000E+00 0.  1.
<mgrwt>
<rscale>  1 0.13821374E+03</rscale>
<asrwt>0</asrwt>
<pdfrwt beam="2">  1        4 0.92897093E-03 0.13821374E+03</pdfrwt>
<pdfrwt beam="1">  1       -4 0.24852981E+00 0.13821374E+03</pdfrwt>
<totfact> 0.41152995E+02</totfact>
</mgrwt>
</event>
<event>
 6    4  0.1195577E-003  0.1299319E+03  0.7818608E-02  0.1227557E+00
          4   -1    0    0  502    0  0.00000000000E+00  0.00000000000E+00  0.15188412533E+03  0.15188943487E+03  0.12700000000E+01 0.  1.
         -4   -1    0    0    0  501 -0.00000000000E+00 -0.00000000000E+00 -0.45280480503E+02  0.45298287104E+02  0.12700000000E+01 0.  1.
         25    2    1    2    0    0  0.20956304452E+02  0.28593561852E+02  0.77250156927E+02  0.15116179746E+03  0.12500217515E+03 0.  0.
    9000005    1    3    3    0    0 -0.10403377971E+02  0.65553817549E+02  0.83370254572E+01  0.66903208159E+02  0.10000000000E+01 0.  0.
    9000005    1    3    3    0    0  0.31359682423E+02 -0.36960255697E+02  0.68913131470E+02  0.84258589306E+02  0.10000000000E+01 0.  0.
         21    1    1    2  502  501 -0.20956304452E+02 -0.28593561852E+02  0.29353487897E+02  0.46025924514E+02  0.00000000000E+00 0.  1.
<mgrwt>
<rscale>  1 0.12993191E+03</rscale>
<asrwt>0</asrwt>
<pdfrwt beam="1">  1        4 0.23368567E-01 0.12993191E+03</pdfrwt>
<pdfrwt beam="2">  1       -4 0.69680059E-02 0.12993191E+03</pdfrwt>
<totfact> 0.38169900E+03</totfact>
</mgrwt>
</event>
<event>
 6    4  0.1195577E-003  0.1368550E+03  0.7818608E-02  0.1217625E+00
          4   -1    0    0  502    0  0.00000000000E+00  0.00000000000E+00  0.35130283760E+02  0.35153232242E+02  0.12700000000E+01 0.  1.
         -4   -1    0    0    0  501 -0.00000000000E+00 -0.00000000000E+00 -0.46160467028E+03  0.46160641733E+03  0.12700000000E+01 0.  1.
         25    2    1    2    0    0 -0.52320457720E+02  0.19182594643E+02 -0.41869417092E+03  0.44049301659E+03  0.12499554660E+03 0.  0.
    9000005    1    3    3    0    0 -0.62738999553E+01 -0.42061003276E+02 -0.26882168557E+03  0.27216647194E+03  0.10000000000E+01 0.  0.
    9000005    1    3    3    0    0 -0.46046557764E+02  0.61243597919E+02 -0.14987248535E+03  0.16832654465E+03  0.10000000000E+01 0.  0.
         21    1    1    2  502  501  0.52320457720E+02 -0.19182594643E+02 -0.77802156048E+01  0.56266632990E+02  0.00000000000E+00 0.  1.
<mgrwt>
<rscale>  1 0.13685499E+03</rscale>
<asrwt>0</asrwt>
<pdfrwt beam="1">  1        4 0.54065590E-02 0.13685499E+03</pdfrwt>
<pdfrwt beam="2">  1       -4 0.71017999E-01 0.13685499E+03</pdfrwt>
<totfact> 0.64555043E+02</totfact>
</mgrwt>
</event>
<event>
 6    4  0.1195577E-003  0.1287274E+03  0.7818608E-02  0.1229356E+00
          4   -1    0    0  502    0  0.00000000000E+00  0.00000000000E+00  0.20189932306E+02  0.20229836048E+02  0.12700000000E+01 0.  1.
         -4   -1    0    0    0  501 -0.00000000000E+00 -0.00000000000E+00 -0.31953036523E+03  0.31953288908E+03  0.12700000000E+01 0.  1.
         25    2    1    2    0    0  0.29317607256E+02 -0.95665278475E+01 -0.25634501423E+03  0.28685103853E+03  0.12497884394E+03 0.  0.
    9000005    1    3    3    0    0  0.75062814664E+02 -0.20671776657E+01 -0.20146261275E+03  0.21500438066E+03  0.10000000000E+01 0.  0.
    9000005    1    3    3    0    0 -0.45745207408E+02 -0.74993501818E+01 -0.54882401483E+02  0.71846657865E+02  0.10000000000E+01 0.  0.
         21    1    1    2  502  501 -0.29317607256E+02  0.95665278475E+01 -0.42995418694E+02  0.52911686600E+02  0.00000000000E+00 0. -1.
<mgrwt>
<rscale>  1 0.12872743E+03</rscale>
<asrwt>0</asrwt>
<pdfrwt beam="1">  1        4 0.31094073E-02 0.12872743E+03</pdfrwt>
<pdfrwt beam="2">  1       -4 0.49161778E-01 0.12872743E+03</pdfrwt>
<totfact> 0.33165586E+03</totfact>
</mgrwt>
</event>
<event>
 6    4  0.1195577E-003  0.1343699E+03  0.7818608E-02  0.1221112E+00
         -4   -1    0    0    0  501 -0.00000000000E+00  0.00000000000E+00  0.28475221058E+03  0.28475504267E+03  0.12700000000E+01 0.  1.
          4   -1    0    0  502    0  0.00000000000E+00 -0.00000000000E+00 -0.34965925847E+02  0.34988982128E+02  0.12700000000E+01 0.  1.
         25    2    1    2    0    0 -0.26689164888E+02  0.41378870151E+02  0.23061218542E+03  0.26690305110E+03  0.12502294271E+03 0.  0.
    9000005    1    3    3    0    0 -0.37684166936E+01  0.77726968275E+02  0.19861457914E+03  0.21331768236E+03  0.10000000000E+01 0.  0.
    9000005    1    3    3    0    0 -0.22920748194E+02 -0.36348098125E+02  0.31997606280E+02  0.53585368737E+02  0.10000000000E+01 0.  0.
         21    1    1    2  502  501  0.26689164888E+02 -0.41378870151E+02  0.19174099307E+02  0.52840973700E+02  0.00000000000E+00 0. -1.
<mgrwt>
<rscale>  1 0.13436986E+03</rscale>
<asrwt>0</asrwt>
<pdfrwt beam="2">  1        4 0.53813646E-02 0.13436986E+03</pdfrwt>
<pdfrwt beam="1">  1       -4 0.43810024E-01 0.13436986E+03</pdfrwt>
<totfact> 0.17661527E+03</totfact>
</mgrwt>
</event>
<event>
 6    4  0.1195577E-003  0.1281641E+03  0.7818608E-02  0.1230206E+00
         -4   -1    0    0    0  501 -0.00000000000E+00  0.00000000000E+00  0.53705125414E+02  0.53720139573E+02  0.12700000000E+01 0. -1.
          4   -1    0    0  502    0  0.00000000000E+00 -0.00000000000E+00 -0.12598029091E+03  0.12598669214E+03  0.12700000000E+01 0. -1.
         25    2    1    2    0    0  0.27893936688E+02 -0.39657691437E+01 -0.34767741824E+02  0.13279621608E+03  0.12502895707E+03 0.  0.
    9000005    1    3    3    0    0  0.39097162812E+01  0.12602758547E+02 -0.78841841429E+02  0.79944676898E+02  0.10000000000E+01 0.  0.
    9000005    1    3    3    0    0  0.23984220406E+02 -0.16568527690E+02  0.44074099604E+02  0.52851539185E+02  0.10000000000E+01 0.  0.
         21    1    1    2  502  501 -0.27893936688E+02  0.39657691437E+01 -0.37507423668E+02  0.46910615633E+02  0.00000000000E+00 0. -1.
<mgrwt>
<rscale>  1 0.12816411E+03</rscale>
<asrwt>0</asrwt>
<pdfrwt beam="2">  1        4 0.19383230E-01 0.12816411E+03</pdfrwt>
<pdfrwt beam="1">  1       -4 0.82639744E-02 0.12816411E+03</pdfrwt>
<totfact> 0.40278556E+03</totfact>
</mgrwt>
</event>
<event>
 6    4  0.1195577E-003  0.1269875E+03  0.7818608E-02  0.1231995E+00
          4   -1    0    0  502    0  0.00000000000E+00  0.00000000000E+00  0.17528701932E+03  0.17529162000E+03  0.12700000000E+01 0.  1.
         -4   -1    0    0    0  501 -0.00000000000E+00 -0.00000000000E+00 -0.33153388323E+02  0.33177704220E+02  0.12700000000E+01 0.  1.
         25    2    1    2    0    0 -0.22250140333E+02  0.19221274047E+01  0.10340706408E+03  0.16376462308E+03  0.12500826994E+03 0.  0.
    9000005    1    3    3    0    0 -0.46751752233E+02 -0.21779404403E+01  0.12332285040E+03  0.13190904136E+03  0.10000000000E+01 0.  0.
    9000005    1    3    3    0    0  0.24501611900E+02  0.41000678450E+01 -0.19915786321E+02  0.31855581722E+02  0.10000000000E+01 0.  0.
         21    1    1    2  502  501  0.22250140333E+02 -0.19221274047E+01  0.38726566919E+02  0.44704701139E+02  0.00000000000E+00 0.  1.
<mgrwt>
<rscale>  1 0.12698752E+03</rscale>
<asrwt>0</asrwt>
<pdfrwt beam="1">  1        4 0.26969459E-01 0.12698752E+03</pdfrwt>
<pdfrwt beam="2">  1       -4 0.51027454E-02 0.12698752E+03</pdfrwt>
<totfact> 0.48306065E+03</totfact>
</mgrwt>
</event>
<event>
 6    4  0.1195577E-003  0.1420504E+03  0.7818608E-02  0.1210596E+00
         -4   -1    0    0    0  501 -0.00000000000E+00  0.00000000000E+00  0.32812849985E+02  0.32837418049E+02  0.12700000000E+01 0.  1.
          4   -1    0    0  502    0  0.00000000000E+00 -0.00000000000E+00 -0.35376677654E+03  0.35376905614E+03  0.12700000000E+01 0.  1.
         25    2    1    2    0    0 -0.40255455570E+02  0.54149698398E+02 -0.25697302918E+03  0.29362127769E+03  0.12500250176E+03 0.  0.
    9000005    1    3    3    0    0 -0.83338485706E+02  0.30369042251E+02 -0.12942600609E+03  0.15690657405E+03  0.10000000000E+01 0.  0.
    9000005    1    3    3    0    0  0.43083030136E+02  0.23780656146E+02 -0.12754702308E+03  0.13671470363E+03  0.10000000000E+01 0.  0.
         21    1    1    2  502  501  0.40255455570E+02 -0.54149698398E+02 -0.63980897375E+02  0.92985196502E+02  0.00000000000E+00 0.  1.
<mgrwt>
<rscale>  1 0.14205040E+03</rscale>
<asrwt>0</asrwt>
<pdfrwt beam="2">  1        4 0.54427720E-01 0.14205040E+03</pdfrwt>
<pdfrwt beam="1">  1       -4 0.50501962E-02 0.14205040E+03</pdfrwt>
<totfact> 0.12743841E+03</totfact>
</mgrwt>
</event>
<event>
 6    4  0.1195577E-003  0.1279068E+03  0.7818608E-02  0.1230595E+00
          4   -1    0    0  502    0  0.00000000000E+00  0.00000000000E+00  0.45002277238E+03  0.45002456439E+03  0.12700000000E+01 0.  1.
         -4   -1    0    0    0  501 -0.00000000000E+00 -0.00000000000E+00 -0.18025316406E+02  0.18070000873E+02  0.12700000000E+01 0.  1.
         25    2    1    2    0    0  0.22713174655E+02  0.14830460138E+02  0.22087812253E+03  0.25523967619E+03  0.12499726573E+03 0.  0.
    9000005    1    3    3    0    0 -0.87332885373E+01 -0.72971079952E+01  0.21618884986E+03  0.21649050076E+03  0.10000000000E+01 0.  0.
    9000005    1    3    3    0    0  0.31446463192E+02  0.22127568133E+02  0.46892726709E+01  0.38749175436E+02  0.10000000000E+01 0.  0.
         21    1    1    2  502  501 -0.22713174655E+02 -0.14830460138E+02  0.21111933344E+03  0.21285488907E+03  0.00000000000E+00 0. -1.
<mgrwt>
<rscale>  1 0.12790679E+03</rscale>
<asrwt>0</asrwt>
<pdfrwt beam="1">  1        4 0.69237845E-01 0.12790679E+03</pdfrwt>
<pdfrwt beam="2">  1       -4 0.27767008E-02 0.12790679E+03</pdfrwt>
<totfact> 0.19333727E+03</totfact>
</mgrwt>
</event>
<event>
 6    4  0.1195577E-003  0.1268137E+03  0.7818608E-02  0.1232262E+00
         -4   -1    0    0    0  501 -0.00000000000E+00  0.00000000000E+00  0.86002444013E+01  0.86935092892E+01  0.12700000000E+01 0. -1.
          4   -1    0    0  502    0  0.00000000000E+00 -0.00000000000E+00 -0.76146334047E+03  0.76146439955E+03  0.12700000000E+01 0. -1.
         25    2    1    2    0    0 -0.47305781685E+01 -0.20820977980E+02 -0.48028360229E+03  0.49674343972E+03  0.12500325909E+03 0.  0.
    9000005    1    3    3    0    0 -0.37286069080E+02  0.39184433216E+02 -0.27897211284E+03  0.28416915825E+03  0.10000000000E+01 0.  0.
    9000005    1    3    3    0    0  0.32555490911E+02 -0.60005411196E+02 -0.20131148944E+03  0.21257428147E+03  0.10000000000E+01 0.  0.
         21    1    1    2  502  501  0.47305781685E+01  0.20820977980E+02 -0.27257949379E+03  0.27341446912E+03  0.00000000000E+00 0. -1.
<mgrwt>
<rscale>  1 0.12681367E+03</rscale>
<asrwt>0</asrwt>
<pdfrwt beam="2">  1        4 0.11715541E+00 0.12681367E+03</pdfrwt>
<pdfrwt beam="1">  1       -4 0.13303708E-02 0.12681367E+03</pdfrwt>
<totfact> 0.18197070E+03</totfact>
</mgrwt>
</event>
<event>
 6    4  0.1195577E-003  0.1309770E+03  0.7818608E-02  0.1226013E+00
          4   -1    0    0  502    0  0.00000000000E+00  0.00000000000E+00  0.56804231066E+02  0.56818426298E+02  0.12700000000E+01 0.  1.
         -4   -1    0    0    0  501 -0.00000000000E+00 -0.00000000000E+00 -0.12731185126E+03  0.12731818555E+03  0.12700000000E+01 0.  1.
         25    2    1    2    0    0  0.39036965445E+02 -0.25522789972E+01 -0.54913110534E+02  0.14202262924E+03  0.12499831483E+03 0.  0.
    9000005    1    3    3    0    0  0.54376608996E+02 -0.13605194707E+01 -0.89170213459E+02  0.10445570156E+03  0.10000000000E+01 0.  0.
    9000005    1    3    3    0    0 -0.15339643551E+02 -0.11917595265E+01  0.34257102925E+02  0.37566927687E+02  0.10000000000E+01 0.  0.
         21    1    1    2  502  501 -0.39036965445E+02  0.25522789972E+01 -0.15594509662E+02  0.42113982605E+02  0.00000000000E+00 0.  1.
<mgrwt>
<rscale>  1 0.13097701E+03</rscale>
<asrwt>0</asrwt>
<pdfrwt beam="1">  1        4 0.87406917E-02 0.13097701E+03</pdfrwt>
<pdfrwt beam="2">  1       -4 0.19588018E-01 0.13097701E+03</pdfrwt>
<totfact> 0.36201554E+03</totfact>
</mgrwt>
</event>
<event>
 6    4  0.1195577E-003  0.1318362E+03  0.7818608E-02  0.1224756E+00
          4   -1    0    0  502    0  0.00000000000E+00  0.00000000000E+00  0.20361455661E+03  0.20361851724E+03  0.12700000000E+01 0.  1.
         -4   -1    0    0    0  501 -0.00000000000E+00 -0.00000000000E+00 -0.81261379131E+02  0.81271302674E+02  0.12700000000E+01 0.  1.
         25    2    1    2    0    0  0.18856022259E+02 -0.37428305815E+02 -0.22812585889E+02  0.13379539081E+03  0.12499745948E+03 0.  0.
    9000005    1    3    3    0    0  0.18192878653E+02  0.25913883745E+02 -0.54440095319E+02  0.62985984018E+02  0.10000000000E+01 0.  0.
    9000005    1    3    3    0    0  0.66314360603E+00 -0.63342189560E+02  0.31627509430E+02  0.70809406794E+02  0.10000000000E+01 0.  0.
         21    1    1    2  502  501 -0.18856022259E+02  0.37428305815E+02  0.14516576336E+03  0.15109442910E+03  0.00000000000E+00 0.  1.
<mgrwt>
<rscale>  1 0.13183623E+03</rscale>
<asrwt>0</asrwt>
<pdfrwt beam="1">  1        4 0.31326384E-01 0.13183623E+03</pdfrwt>
<pdfrwt beam="2">  1       -4 0.12502819E-01 0.13183623E+03</pdfrwt>
<totfact> 0.83284567E+02</totfact>
</mgrwt>
</event>
<event>
 6    4  0.1195577E-003  0.1268784E+03  0.7818608E-02  0.1232163E+00
          4   -1    0    0  502    0  0.00000000000E+00  0.00000000000E+00  0.66052819140E+01  0.67262656179E+01  0.12700000000E+01 0. -1.
         -4   -1    0    0    0  501 -0.00000000000E+00 -0.00000000000E+00 -0.94442396486E+03  0.94442481877E+03  0.12700000000E+01 0. -1.
         25    2    1    2    0    0 -0.86680893671E+01 -0.19940232609E+02 -0.88474576719E+03  0.89379706939E+03  0.12500152011E+03 0.  0.
    9000005    1    3    3    0    0  0.33256641194E+02 -0.29490181074E+02 -0.12215386118E+03  0.12999323353E+03  0.10000000000E+01 0.  0.
    9000005    1    3    3    0    0 -0.41924730561E+02  0.95499484649E+01 -0.76259190601E+03  0.76380383586E+03  0.10000000000E+01 0.  0.
         21    1    1    2  502  501  0.86680893671E+01  0.19940232609E+02 -0.53072915757E+02  0.57354015001E+02  0.00000000000E+00 0. -1.
<mgrwt>
<rscale>  1 0.12687840E+03</rscale>
<asrwt>0</asrwt>
<pdfrwt beam="1">  1        4 0.10255701E-02 0.12687840E+03</pdfrwt>
<pdfrwt beam="2">  1       -4 0.14530526E+00 0.12687840E+03</pdfrwt>
<totfact> 0.15910849E+03</totfact>
</mgrwt>
</event>
<event>
 6    4  0.1195577E-003  0.1274015E+03  0.7818608E-02  0.1231363E+00
          4   -1    0    0  502    0  0.00000000000E+00  0.00000000000E+00  0.95924820580E+03  0.95924904651E+03  0.12700000000E+01 0. -1.
         -4   -1    0    0    0  501 -0.00000000000E+00 -0.00000000000E+00 -0.11919117104E+02  0.11986586359E+02  0.12700000000E+01 0. -1.
         25    2    1    2    0    0 -0.95248344211E+01 -0.22697456776E+02  0.33493452884E+03  0.35834657769E+03  0.12500093647E+03 0.  0.
    9000005    1    3    3    0    0 -0.65481621724E+02 -0.27614782738E+02  0.19555956007E+03  0.20807441108E+03  0.10000000000E+01 0.  0.
    9000005    1    3    3    0    0  0.55956787303E+02  0.49173259616E+01  0.13937496876E+03  0.15027216661E+03  0.10000000000E+01 0.  0.
         21    1    1    2  502  501  0.95248344211E+01  0.22697456776E+02  0.61239455985E+03  0.61288905517E+03  0.00000000000E+00 0. -1.
<mgrwt>
<rscale>  1 0.12740146E+03</rscale>
<asrwt>0</asrwt>
<pdfrwt beam="1">  1        4 0.14758192E+00 0.12740146E+03</pdfrwt>
<pdfrwt beam="2">  1       -4 0.18389647E-02 0.12740146E+03</pdfrwt>
<totfact> 0.63080159E+02</totfact>
</mgrwt>
</event>
<event>
 6    4  0.1195577E-003  0.1306278E+03  0.7818608E-02  0.1226527E+00
          4   -1    0    0  502    0  0.00000000000E+00  0.00000000000E+00  0.45893161703E+02  0.45910730675E+02  0.12700000000E+01 0.  1.
         -4   -1    0    0    0  501 -0.00000000000E+00 -0.00000000000E+00 -0.17781851192E+03  0.17782304710E+03  0.12700000000E+01 0.  1.
         25    2    1    2    0    0 -0.12233636612E+02 -0.35908495088E+02 -0.13212601073E+03  0.18579801432E+03  0.12499815011E+03 0.  0.
    9000005    1    3    3    0    0  0.21036388137E+02 -0.66655924162E+02 -0.12002351784E+03  0.13889631632E+03  0.10000000000E+01 0.  0.
    9000005    1    3    3    0    0 -0.33270024750E+02  0.30747429074E+02 -0.12102492890E+02  0.46901698004E+02  0.10000000000E+01 0.  0.
         21    1    1    2  502  501  0.12233636612E+02  0.35908495088E+02  0.20066051677E+00  0.37935763455E+02  0.00000000000E+00 0.  1.
<mgrwt>
<rscale>  1 0.13062779E+03</rscale>
<asrwt>0</asrwt>
<pdfrwt beam="1">  1        4 0.70621869E-02 0.13062779E+03</pdfrwt>
<pdfrwt beam="2">  1       -4 0.27358394E-01 0.13062779E+03</pdfrwt>
<totfact> 0.27942144E+03</totfact>
</mgrwt>
</event>
<event>
 6    4  0.1195577E-003  0.1272747E+03  0.7818608E-02  0.1231557E+00
          4   -1    0    0  502    0  0.00000000000E+00  0.00000000000E+00  0.15217322357E+02  0.15270225922E+02  0.12700000000E+01 0.  1.
         -4   -1    0    0    0  501 -0.00000000000E+00 -0.00000000000E+00 -0.39932621386E+03  0.39932823338E+03  0.12700000000E+01 0.  1.
         25    2    1    2    0    0 -0.17338117844E+02  0.16523493261E+02 -0.35362133159E+03  0.37582827141E+03  0.12500082909E+03 0.  0.
    9000005    1    3    3    0    0 -0.14458815120E+02 -0.17087455125E+01  0.59660043927E+01  0.15766114116E+02  0.10000000000E+01 0.  0.
    9000005    1    3    3    0    0 -0.28793027243E+01  0.18232238773E+02 -0.35958733598E+03  0.36006215729E+03  0.10000000000E+01 0.  0.
         21    1    1    2  502  501  0.17338117844E+02 -0.16523493261E+02 -0.30487559909E+02  0.38770187891E+02  0.00000000000E+00 0.  1.
<mgrwt>
<rscale>  1 0.12727468E+03</rscale>
<asrwt>0</asrwt>
<pdfrwt beam="1">  1        4 0.23453517E-02 0.12727468E+03</pdfrwt>
<pdfrwt beam="2">  1       -4 0.61439019E-01 0.12727468E+03</pdfrwt>
<totfact> 0.32369815E+03</totfact>
</mgrwt>
</event>
<event>
 6    4  0.1195577E-003  0.1268206E+03  0.7818608E-02  0.1232251E+00
         -4   -1    0    0    0  501 -0.00000000000E+00  0.00000000000E+00  0.15479408433E+03  0.15479929406E+03  0.12700000000E+01 0.  1.
          4   -1    0    0  502    0  0.00000000000E+00 -0.00000000000E+00 -0.40053481172E+02  0.40073610443E+02  0.12700000000E+01 0.  1.
         25    2    1    2    0    0  0.21143174601E+02 -0.30325695662E+01  0.11804735165E+03  0.17325890682E+03  0.12500896468E+03 0.  0.
    9000005    1    3    3    0    0  0.51262957422E+01  0.60719795297E+02  0.60792906591E+02  0.86081066099E+02  0.10000000000E+01 0.  0.
    9000005    1    3    3    0    0  0.16016878859E+02 -0.63752364863E+02  0.57254445059E+02  0.87177840722E+02  0.10000000000E+01 0.  0.
         21    1    1    2  502  501 -0.21143174601E+02  0.30325695662E+01 -0.33067484938E+01  0.21613997687E+02  0.00000000000E+00 0. -1.
<mgrwt>
<rscale>  1 0.12682063E+03</rscale>
<asrwt>0</asrwt>
<pdfrwt beam="2">  1        4 0.61640232E-02 0.12682063E+03</pdfrwt>
<pdfrwt beam="1">  1       -4 0.23816424E-01 0.12682063E+03</pdfrwt>
<totfact> 0.44765437E+03</totfact>
</mgrwt>
</event>
<event>
 6    4  0.1195577E-003  0.1266492E+03  0.7818608E-02  0.1232514E+00
          4   -1    0    0  502    0  0.00000000000E+00  0.00000000000E+00  0.31512798865E+01  0.33975675009E+01  0.12700000000E+01 0. -1.
         -4   -1    0    0    0  501 -0.00000000000E+00 -0.00000000000E+00 -0.16502113005E+04  0.16502117892E+04  0.12700000000E+01 0. -1.
         25    2    1    2    0    0  0.12440714370E+02  0.16136267037E+02 -0.14148753558E+04  0.14205323972E+04  0.12499947387E+03 0.  0.
    9000005    1    3    3    0    0  0.55322855548E+02  0.46766139797E+02 -0.70895941522E+03  0.71265148748E+03  0.10000000000E+01 0.  0.
    9000005    1    3    3    0    0 -0.42882141178E+02 -0.30629872760E+02 -0.70591594058E+03  0.70788090969E+03  0.10000000000E+01 0.  0.
         21    1    1    2  502  501 -0.12440714370E+02 -0.16136267037E+02 -0.23218466479E+03  0.23307695951E+03  0.00000000000E+00 0.  1.
<mgrwt>
<rscale>  1 0.12664920E+03</rscale>
<asrwt>0</asrwt>
<pdfrwt beam="1">  1        4 0.50379640E-03 0.12664920E+03</pdfrwt>
<pdfrwt beam="2">  1       -4 0.25389698E+00 0.12664920E+03</pdfrwt>
<totfact> 0.93969744E+02</totfact>
</mgrwt>
</event>
<event>
 6    4  0.1195577E-003  0.1267331E+03  0.7818608E-02  0.1232385E+00
         -4   -1    0    0    0  501 -0.00000000000E+00  0.00000000000E+00  0.25385257624E+02  0.25417006209E+02  0.12700000000E+01 0.  1.
          4   -1    0    0  502    0  0.00000000000E+00 -0.00000000000E+00 -0.23020235578E+03  0.23020585898E+03  0.12700000000E+01 0.  1.
         25    2    1    2    0    0 -0.14678431613E+02  0.15088938974E+02 -0.14697551949E+03  0.19406979331E+03  0.12497259265E+03 0.  0.
    9000005    1    3    3    0    0  0.18120573595E+02  0.63677727460E+02 -0.61160308548E+02  0.90137625349E+02  0.10000000000E+01 0.  0.
    9000005    1    3    3    0    0 -0.32799005208E+02 -0.48588788486E+02 -0.85815210938E+02  0.10393216796E+03  0.10000000000E+01 0.  0.
         21    1    1    2  502  501  0.14678431613E+02 -0.15088938974E+02 -0.57841578672E+02  0.61553071875E+02  0.00000000000E+00 0.  1.
<mgrwt>
<rscale>  1 0.12673311E+03</rscale>
<asrwt>0</asrwt>
<pdfrwt beam="2">  1        4 0.35418457E-01 0.12673311E+03</pdfrwt>
<pdfrwt beam="1">  1       -4 0.39081361E-02 0.12673311E+03</pdfrwt>
<totfact> 0.44085744E+03</totfact>
</mgrwt>
</event>
<event>
 6    4  0.1195577E-003  0.1593584E+03  0.7818608E-02  0.1189423E+00
         -4   -1    0    0    0  501 -0.00000000000E+00  0.00000000000E+00  0.14196408887E+04  0.14196414568E+04  0.12700000000E+01 0. -1.
          4   -1    0    0  502    0  0.00000000000E+00 -0.00000000000E+00 -0.31564619686E+02  0.31590158530E+02  0.12700000000E+01 0. -1.
         25    2    1    2    0    0 -0.21473690099E+02  0.96483989953E+02  0.13237303360E+04  0.13332880747E+04  0.12499923161E+03 0.  0.
    9000005    1    3    3    0    0 -0.20315843168E+02  0.56932007138E+02  0.20184015775E+03  0.21069987233E+03  0.10000000000E+01 0.  0.
    9000005    1    3    3    0    0 -0.11578469311E+01  0.39551982815E+02  0.11218901783E+04  0.11225882024E+04  0.10000000000E+01 0.  0.
         21    1    1    2  502  501  0.21473690099E+02 -0.96483989953E+02  0.64345933031E+02  0.11794354065E+03  0.00000000000E+00 0. -1.
<mgrwt>
<rscale>  1 0.15935836E+03</rscale>
<asrwt>0</asrwt>
<pdfrwt beam="2">  1        4 0.48581056E-02 0.15935836E+03</pdfrwt>
<pdfrwt beam="1">  1       -4 0.21840821E+00 0.15935836E+03</pdfrwt>
<totfact> 0.48556052E+01</totfact>
</mgrwt>
</event>
<event>
 6    4  0.1195577E-003  0.1270147E+03  0.7818608E-02  0.1231954E+00
         -4   -1    0    0    0  501 -0.00000000000E+00  0.00000000000E+00  0.20340836232E+02  0.20380444514E+02  0.12700000000E+01 0.  1.
          4   -1    0    0  502    0  0.00000000000E+00 -0.00000000000E+00 -0.29210165870E+03  0.29210441954E+03  0.12700000000E+01 0.  1.
         25    2    1    2    0    0  0.18644928107E+02 -0.12606167180E+02 -0.19688758653E+03  0.23430206381E+03  0.12500474622E+03 0.  0.
    9000005    1    3    3    0    0 -0.12035108269E+02 -0.64783111022E+02 -0.91419441187E+02  0.11269520634E+03  0.10000000000E+01 0.  0.
    9000005    1    3    3    0    0  0.30680036376E+02  0.52176943842E+02 -0.10546814535E+03  0.12160685747E+03  0.10000000000E+01 0.  0.
         21    1    1    2  502  501 -0.18644928107E+02  0.12606167180E+02 -0.74873235931E+02  0.78182800243E+02  0.00000000000E+00 0.  1.
<mgrwt>
<rscale>  1 0.12701471E+03</rscale>
<asrwt>0</asrwt>
<pdfrwt beam="2">  1        4 0.44941973E-01 0.12701471E+03</pdfrwt>
<pdfrwt beam="1">  1       -4 0.31326188E-02 0.12701471E+03</pdfrwt>
<totfact> 0.39148781E+03</totfact>
</mgrwt>
</event>
<event>
 6    4  0.1195577E-003  0.1275791E+03  0.7818608E-02  0.1231093E+00
          4   -1    0    0  502    0  0.00000000000E+00  0.00000000000E+00  0.49077248126E+02  0.49093677634E+02  0.12700000000E+01 0.  1.
         -4   -1    0    0    0  501 -0.00000000000E+00 -0.00000000000E+00 -0.12242019229E+03  0.12242677967E+03  0.12700000000E+01 0.  1.
         25    2    1    2    0    0  0.33392099282E+01  0.25294258206E+02 -0.70728810639E+02  0.14587316670E+03  0.12500186514E+03 0.  0.
    9000005    1    3    3    0    0  0.53235656401E+02  0.14505108986E+02  0.40403852672E+01  0.55333154729E+02  0.10000000000E+01 0.  0.
    9000005    1    3    3    0    0 -0.49896446473E+02  0.10789149219E+02 -0.74769195906E+02  0.90540011972E+02  0.10000000000E+01 0.  0.
         21    1    1    2  502  501 -0.33392099282E+01 -0.25294258206E+02 -0.26141335244E+01  0.25647290601E+02  0.00000000000E+00 0.  1.
<mgrwt>
<rscale>  1 0.12757906E+03</rscale>
<asrwt>0</asrwt>
<pdfrwt beam="1">  1        4 0.75521164E-02 0.12757906E+03</pdfrwt>
<pdfrwt beam="2">  1       -4 0.18835646E-01 0.12757906E+03</pdfrwt>
<totfact> 0.49147086E+03</totfact>
</mgrwt>
</event>
<event>
 6    4  0.1195577E-003  0.1277152E+03  0.7818608E-02  0.1230886E+00
          4   -1    0    0  502    0  0.00000000000E+00  0.00000000000E+00  0.11003930778E+03  0.11004663628E+03  0.12700000000E+01 0.  1.
         -4   -1    0    0    0  501 -0.00000000000E+00 -0.00000000000E+00 -0.80441510314E+02  0.80451534986E+02  0.12700000000E+01 0.  1.
         25    2    1    2    0    0  0.24848721659E+02  0.82504360794E+01 -0.24824277391E+02  0.13010536627E+03  0.12500253166E+03 0.  0.
    9000005    1    3    3    0    0 -0.20334760186E+02 -0.43065367365E+01 -0.65059468193E+02  0.68306537989E+02  0.10000000000E+01 0.  0.
    9000005    1    3    3    0    0  0.45183481845E+02  0.12556972816E+02  0.40235190803E+02  0.61798828281E+02  0.10000000000E+01 0.  0.
         21    1    1    2  502  501 -0.24848721659E+02 -0.82504360794E+01  0.54422074852E+02  0.60392804992E+02  0.00000000000E+00 0. -1.
<mgrwt>
<rscale>  1 0.12771516E+03</rscale>
<asrwt>0</asrwt>
<pdfrwt beam="1">  1        4 0.16930459E-01 0.12771516E+03</pdfrwt>
<pdfrwt beam="2">  1       -4 0.12376952E-01 0.12771516E+03</pdfrwt>
<totfact> 0.25917480E+03</totfact>
</mgrwt>
</event>
<event>
 6    4  0.1195577E-003  0.1285792E+03  0.7818608E-02  0.1229579E+00
          4   -1    0    0  502    0  0.00000000000E+00  0.00000000000E+00  0.25215255353E+04  0.25215258551E+04  0.12700000000E+01 0.  1.
         -4   -1    0    0    0  501 -0.00000000000E+00 -0.00000000000E+00 -0.58096253083E+01  0.59468181595E+01  0.12700000000E+01 0.  1.
         25    2    1    2    0    0 -0.29330324349E+02  0.68727426449E+01  0.71273767596E+03  0.72424278919E+03  0.12500048175E+03 0.  0.
    9000005    1    3    3    0    0 -0.54811120868E+02  0.48248232034E+02  0.53569993921E+03  0.54065476575E+03  0.10000000000E+01 0.  0.
    9000005    1    3    3    0    0  0.25480796519E+02 -0.41375489389E+02  0.17703773676E+03  0.18358802344E+03  0.10000000000E+01 0.  0.
         21    1    1    2  502  501  0.29330324349E+02 -0.68727426449E+01  0.18029782340E+04  0.18032298841E+04  0.00000000000E+00 0.  1.
<mgrwt>
<rscale>  1 0.12857925E+03</rscale>
<asrwt>0</asrwt>
<pdfrwt beam="1">  1        4 0.38793727E+00 0.12857925E+03</pdfrwt>
<pdfrwt beam="2">  1       -4 0.90436714E-03 0.12857925E+03</pdfrwt>
<totfact> 0.63018994E+01</totfact>
</mgrwt>
</event>
<event>
 6    4  0.1195577E-003  0.2722430E+03  0.7818608E-02  0.1100003E+00
          4   -1    0    0  502    0  0.00000000000E+00  0.00000000000E+00  0.61612094280E+03  0.61612225171E+03  0.12700000000E+01 0. -1.
         -4   -1    0    0    0  501 -0.00000000000E+00 -0.00000000000E+00 -0.11449420397E+03  0.11450124734E+03  0.12700000000E+01 0. -1.
         25    2    1    2    0    0  0.86122346914E+01  0.24169549517E+03  0.17286787851E+03  0.32248961023E+03  0.12500144924E+03 0.  0.
    9000005    1    3    3    0    0  0.43217655580E+02  0.10276296451E+03  0.13363176326E+03  0.17402999966E+03  0.10000000000E+01 0.  0.
    9000005    1    3    3    0    0 -0.34605420889E+02  0.13893253066E+03  0.39236115246E+02  0.14845961057E+03  0.10000000000E+01 0.  0.
         21    1    1    2  502  501 -0.86122346914E+01 -0.24169549517E+03  0.32875886032E+03  0.40813388883E+03  0.00000000000E+00 0. -1.
<mgrwt>
<rscale>  1 0.27224299E+03</rscale>
<asrwt>0</asrwt>
<pdfrwt beam="1">  1        4 0.94788480E-01 0.27224299E+03</pdfrwt>
<pdfrwt beam="2">  1       -4 0.17615135E-01 0.27224299E+03</pdfrwt>
<totfact> 0.50440637E+01</totfact>
</mgrwt>
</event>
<event>
 6    4  0.1195577E-003  0.1297452E+03  0.7818608E-02  0.1227834E+00
         -4   -1    0    0    0  501 -0.00000000000E+00  0.00000000000E+00  0.42914232261E+02  0.42933020282E+02  0.12700000000E+01 0.  1.
          4   -1    0    0  502    0  0.00000000000E+00 -0.00000000000E+00 -0.16041735190E+03  0.16042237902E+03  0.12700000000E+01 0.  1.
         25    2    1    2    0    0 -0.17844890017E+02 -0.29758071354E+02 -0.80804224989E+02  0.15285003544E+03  0.12501930910E+03 0.  0.
    9000005    1    3    3    0    0  0.19529076546E+02 -0.34838864517E+02  0.20387470186E+02  0.44852873400E+02  0.10000000000E+01 0.  0.
    9000005    1    3    3    0    0 -0.37373966564E+02  0.50807931630E+01 -0.10119169517E+03  0.10799716204E+03  0.10000000000E+01 0.  0.
         21    1    1    2  502  501  0.17844890017E+02  0.29758071354E+02 -0.36698894646E+02  0.50505363860E+02  0.00000000000E+00 0.  1.
<mgrwt>
<rscale>  1 0.12974518E+03</rscale>
<asrwt>0</asrwt>
<pdfrwt beam="2">  1        4 0.24681424E-01 0.12974518E+03</pdfrwt>
<pdfrwt beam="1">  1       -4 0.66040216E-02 0.12974518E+03</pdfrwt>
<totfact> 0.37681685E+03</totfact>
</mgrwt>
</event>
<event>
 6    4  0.1195577E-003  0.1289552E+03  0.7818608E-02  0.1229014E+00
          4   -1    0    0  502    0  0.00000000000E+00  0.00000000000E+00  0.37036769972E+03  0.37036987715E+03  0.12700000000E+01 0.  1.
         -4   -1    0    0    0  501 -0.00000000000E+00 -0.00000000000E+00 -0.18425052183E+02  0.18468769530E+02  0.12700000000E+01 0.  1.
         25    2    1    2    0    0  0.28826631766E+02 -0.13166003115E+02  0.23943995574E+03  0.27195762170E+03  0.12500054904E+03 0.  0.
    9000005    1    3    3    0    0  0.31906594553E+02  0.19532088845E+01  0.25076212816E+03  0.25279337555E+03  0.10000000000E+01 0.  0.
    9000005    1    3    3    0    0 -0.30799627866E+01 -0.15119212000E+02 -0.11322172423E+02  0.19164246153E+02  0.10000000000E+01 0.  0.
         21    1    1    2  502  501 -0.28826631766E+02  0.13166003115E+02  0.11250269180E+03  0.11688102498E+03  0.00000000000E+00 0.  1.
<mgrwt>
<rscale>  1 0.12895525E+03</rscale>
<asrwt>0</asrwt>
<pdfrwt beam="1">  1        4 0.56983175E-01 0.12895525E+03</pdfrwt>
<pdfrwt beam="2">  1       -4 0.28381539E-02 0.12895525E+03</pdfrwt>
<totfact> 0.28260860E+03</totfact>
</mgrwt>
</event>
<event>
 6    4  0.1195577E-003  0.1274471E+03  0.7818608E-02  0.1231294E+00
         -4   -1    0    0    0  501 -0.00000000000E+00  0.00000000000E+00  0.37163619979E+03  0.37163836979E+03  0.12700000000E+01 0.  1.
          4   -1    0    0  502    0  0.00000000000E+00 -0.00000000000E+00 -0.17831940862E+02  0.17877108685E+02  0.12700000000E+01 0.  1.
         25    2    1    2    0    0 -0.20283790346E+02  0.14582702983E+02  0.33446143121E+03  0.35792066305E+03  0.12497465621E+03 0.  0.
    9000005    1    3    3    0    0 -0.28862852610E+02 -0.19255153416E+02  0.31696540309E+03  0.31886030162E+03  0.10000000000E+01 0.  0.
    9000005    1    3    3    0    0  0.85790622636E+01  0.33837856399E+02  0.17496028117E+02  0.39060361428E+02  0.10000000000E+01 0.  0.
         21    1    1    2  502  501  0.20283790346E+02 -0.14582702983E+02  0.19342827722E+02  0.31594815419E+02  0.00000000000E+00 0.  1.
<mgrwt>
<rscale>  1 0.12744706E+03</rscale>
<asrwt>0</asrwt>
<pdfrwt beam="2">  1        4 0.27470170E-02 0.12744706E+03</pdfrwt>
<pdfrwt beam="1">  1       -4 0.57178439E-01 0.12744706E+03</pdfrwt>
<totfact> 0.29442557E+03</totfact>
</mgrwt>
</event>
<event>
 6    4  0.1195577E-003  0.1496839E+03  0.7818608E-02  0.1200862E+00
          4   -1    0    0  502    0  0.00000000000E+00  0.00000000000E+00  0.99435852407E+02  0.99443962330E+02  0.12700000000E+01 0.  1.
         -4   -1    0    0    0  501 -0.00000000000E+00 -0.00000000000E+00 -0.14885535070E+03  0.14886076827E+03  0.12700000000E+01 0.  1.
         25    2    1    2    0    0 -0.79983017684E+02 -0.19584346653E+02 -0.67175283956E+02  0.16406639208E+03  0.12499772992E+03 0.  0.
    9000005    1    3    3    0    0  0.14133177456E+02 -0.16119111592E+01 -0.66736851867E+02  0.68243331980E+02  0.10000000000E+01 0.  0.
    9000005    1    3    3    0    0 -0.94116195140E+02 -0.17972435494E+02 -0.43843208962E+00  0.95823060105E+02  0.10000000000E+01 0.  0.
         21    1    1    2  502  501  0.79983017684E+02  0.19584346653E+02  0.17755785668E+02  0.84238338518E+02  0.00000000000E+00 0.  1.
<mgrwt>
<rscale>  1 0.14968387E+03</rscale>
<asrwt>0</asrwt>
<pdfrwt beam="1">  1        4 0.15298864E-01 0.14968387E+03</pdfrwt>
<pdfrwt beam="2">  1       -4 0.22901864E-01 0.14968387E+03</pdfrwt>
<totfact> 0.10799521E+03</totfact>
</mgrwt>
</event>
<event>
 6    4  0.1195577E-003  0.1273662E+03  0.7818608E-02  0.1231417E+00
          4   -1    0    0  502    0  0.00000000000E+00  0.00000000000E+00  0.44933997045E+02  0.44951940898E+02  0.12700000000E+01 0. -1.
         -4   -1    0    0    0  501 -0.00000000000E+00 -0.00000000000E+00 -0.12890050761E+03  0.12890676383E+03  0.12700000000E+01 0. -1.
         25    2    1    2    0    0  0.12851143136E+02  0.20786310666E+02 -0.75119685626E+02  0.14786853539E+03  0.12499965599E+03 0.  0.
    9000005    1    3    3    0    0  0.48615608805E+02 -0.34167952369E+01  0.12374815253E+02  0.50292026821E+02  0.10000000000E+01 0.  0.
    9000005    1    3    3    0    0 -0.35764465669E+02  0.24203105903E+02 -0.87494500879E+02  0.97576508566E+02  0.10000000000E+01 0.  0.
         21    1    1    2  502  501 -0.12851143136E+02 -0.20786310666E+02 -0.88468249371E+01  0.25990169343E+02  0.00000000000E+00 0.  1.
<mgrwt>
<rscale>  1 0.12736615E+03</rscale>
<asrwt>0</asrwt>
<pdfrwt beam="1">  1        4 0.69147842E-02 0.12736615E+03</pdfrwt>
<pdfrwt beam="2">  1       -4 0.19832709E-01 0.12736615E+03</pdfrwt>
<totfact> 0.51775422E+03</totfact>
</mgrwt>
</event>
<event>
 6    4  0.1195577E-003  0.1269612E+03  0.7818608E-02  0.1232036E+00
         -4   -1    0    0    0  501 -0.00000000000E+00  0.00000000000E+00  0.34743399025E+02  0.34766602880E+02  0.12700000000E+01 0. -1.
          4   -1    0    0  502    0  0.00000000000E+00 -0.00000000000E+00 -0.18222313929E+03  0.18222756486E+03  0.12700000000E+01 0. -1.
         25    2    1    2    0    0  0.84901079300E+01  0.20553829857E+02 -0.90745857719E+02  0.15605751798E+03  0.12499838547E+03 0.  0.
    9000005    1    3    3    0    0 -0.20950853950E+02  0.53622594111E+02 -0.95501519312E+02  0.11151619197E+03  0.10000000000E+01 0.  0.
    9000005    1    3    3    0    0  0.29440961880E+02 -0.33068764255E+02  0.47556615930E+01  0.44541326012E+02  0.10000000000E+01 0.  0.
         21    1    1    2  502  501 -0.84901079300E+01 -0.20553829857E+02 -0.56733882547E+02  0.60936649755E+02  0.00000000000E+00 0. -1.
<mgrwt>
<rscale>  1 0.12696117E+03</rscale>
<asrwt>0</asrwt>
<pdfrwt beam="2">  1        4 0.28036454E-01 0.12696117E+03</pdfrwt>
<pdfrwt beam="1">  1       -4 0.53472638E-02 0.12696117E+03</pdfrwt>
<totfact> 0.41669693E+03</totfact>
</mgrwt>
</event>
<event>
 6    4  0.1195577E-003  0.1333565E+03  0.7818608E-02  0.1222559E+00
          4   -1    0    0  502    0  0.00000000000E+00  0.00000000000E+00  0.35183409372E+03  0.35183638584E+03  0.12700000000E+01 0.  1.
         -4   -1    0    0    0  501 -0.00000000000E+00 -0.00000000000E+00 -0.23253597412E+02  0.23288252244E+02  0.12700000000E+01 0.  1.
         25    2    1    2    0    0 -0.41535373526E+02  0.20814503465E+02  0.26129355482E+03  0.29335689809E+03  0.12500206823E+03 0.  0.
    9000005    1    3    3    0    0 -0.15155034799E+02  0.32944456023E+02  0.64294410503E+01  0.36842230859E+02  0.10000000000E+01 0.  0.
    9000005    1    3    3    0    0 -0.26380338727E+02 -0.12129952558E+02  0.25486411377E+03  0.25651466724E+03  0.10000000000E+01 0.  0.
         21    1    1    2  502  501  0.41535373526E+02 -0.20814503465E+02  0.67286941486E+02  0.81767739989E+02  0.00000000000E+00 0.  1.
<mgrwt>
<rscale>  1 0.13335647E+03</rscale>
<asrwt>0</asrwt>
<pdfrwt beam="1">  1        4 0.54131160E-01 0.13335647E+03</pdfrwt>
<pdfrwt beam="2">  1       -4 0.35803189E-02 0.13335647E+03</pdfrwt>
<totfact> 0.21999287E+03</totfact>
</mgrwt>
</event>
<event>
 6    4  0.1195577E-003  0.1321678E+03  0.7818608E-02  0.1224274E+00
          4   -1    0    0  502    0  0.00000000000E+00  0.00000000000E+00  0.79868498328E+01  0.80871917408E+01  0.12700000000E+01 0.  1.
         -4   -1    0    0    0  501 -0.00000000000E+00 -0.00000000000E+00 -0.14655305771E+04  0.14655311274E+04  0.12700000000E+01 0.  1.
         25    2    1    2    0    0 -0.35550505224E+02 -0.24070182760E+02 -0.13674037304E+04  0.13737762881E+04  0.12500046305E+03 0.  0.
    9000005    1    3    3    0    0  0.17818141434E+02  0.28689275254E+01 -0.10832222755E+04  0.10833730729E+04  0.10000000000E+01 0.  0.
    9000005    1    3    3    0    0 -0.53368646658E+02 -0.26939110285E+02 -0.28418145486E+03  0.29040321519E+03  0.10000000000E+01 0.  0.
         21    1    1    2  502  501  0.35550505224E+02  0.24070182760E+02 -0.90139996896E+02  0.99842031030E+02  0.00000000000E+00 0.  1.
<mgrwt>
<rscale>  1 0.13216780E+03</rscale>
<asrwt>0</asrwt>
<pdfrwt beam="1">  1        4 0.12365082E-02 0.13216780E+03</pdfrwt>
<pdfrwt beam="2">  1       -4 0.22547379E+00 0.13216780E+03</pdfrwt>
<totfact> 0.36183587E+02</totfact>
</mgrwt>
</event>
<event>
 6    4  0.1195577E-003  0.1270318E+03  0.7818608E-02  0.1231928E+00
         -4   -1    0    0    0  501 -0.00000000000E+00  0.00000000000E+00  0.17913250588E+03  0.17913700780E+03  0.12700000000E+01 0.  1.
          4   -1    0    0  502    0  0.00000000000E+00 -0.00000000000E+00 -0.43142532635E+02  0.43161221277E+02  0.12700000000E+01 0.  1.
         25    2    1    2    0    0  0.22639082574E+02  0.11822931746E+01  0.14928442283E+03  0.19601766084E+03  0.12499263413E+03 0.  0.
    9000005    1    3    3    0    0 -0.45929893844E+02  0.24728117782E+02  0.44382703205E+02  0.68497148126E+02  0.10000000000E+01 0.  0.
    9000005    1    3    3    0    0  0.68568976419E+02 -0.23545824607E+02  0.10490171962E+03  0.12752051272E+03  0.10000000000E+01 0.  0.
         21    1    1    2  502  501 -0.22639082574E+02 -0.11822931746E+01 -0.13294449583E+02  0.26280568233E+02  0.00000000000E+00 0.  1.
<mgrwt>
<rscale>  1 0.12703182E+03</rscale>
<asrwt>0</asrwt>
<pdfrwt beam="2">  1        4 0.66390968E-02 0.12703182E+03</pdfrwt>
<pdfrwt beam="1">  1       -4 0.27560630E-01 0.12703182E+03</pdfrwt>
<totfact> 0.30290631E+03</totfact>
</mgrwt>
</event>
<event>
 6    4  0.1195577E-003  0.1340329E+03  0.7818608E-02  0.1221591E+00
          4   -1    0    0  502    0  0.00000000000E+00  0.00000000000E+00  0.46301998767E+02  0.46319412667E+02  0.12700000000E+01 0.  1.
         -4   -1    0    0    0  501 -0.00000000000E+00 -0.00000000000E+00 -0.18396509313E+03  0.18396947679E+03  0.12700000000E+01 0.  1.
         25    2    1    2    0    0 -0.48158285112E+02 -0.45302539674E+01 -0.11611916162E+03  0.17733716933E+03  0.12500027322E+03 0.  0.
    9000005    1    3    3    0    0 -0.61525182956E+02 -0.54471679576E+02 -0.67241263035E+02  0.10618332952E+03  0.10000000000E+01 0.  0.
    9000005    1    3    3    0    0  0.13366897844E+02  0.49941425609E+02 -0.48877898588E+02  0.71153839814E+02  0.10000000000E+01 0.  0.
         21    1    1    2  502  501  0.48158285112E+02  0.45302539674E+01 -0.21543932738E+02  0.52951720121E+02  0.00000000000E+00 0.  1.
<mgrwt>
<rscale>  1 0.13403288E+03</rscale>
<asrwt>0</asrwt>
<pdfrwt beam="1">  1        4 0.71250613E-02 0.13403288E+03</pdfrwt>
<pdfrwt beam="2">  1       -4 0.28303998E-01 0.13403288E+03</pdfrwt>
<totfact> 0.25998163E+03</totfact>
</mgrwt>
</event>
<event>
 6    4  0.1195577E-003  0.1274900E+03  0.7818608E-02  0.1231228E+00
         -4   -1    0    0    0  501 -0.00000000000E+00  0.00000000000E+00  0.48431598849E+03  0.48431765362E+03  0.12700000000E+01 0. -1.
          4   -1    0    0  502    0  0.00000000000E+00 -0.00000000000E+00 -0.14375402917E+02  0.14431393177E+02  0.12700000000E+01 0. -1.
         25    2    1    2    0    0  0.25079248046E+02 -0.81683013212E-01  0.44677074311E+03  0.46460498502E+03  0.12499887941E+03 0.  0.
    9000005    1    3    3    0    0 -0.18547195649E+02  0.53629740947E+02  0.16611443462E+03  0.17554245346E+03  0.10000000000E+01 0.  0.
    9000005    1    3    3    0    0  0.43626443695E+02 -0.53711423960E+02  0.28065630849E+03  0.28906253155E+03  0.10000000000E+01 0.  0.
         21    1    1    2  502  501 -0.25079248046E+02  0.81683013212E-01  0.23169842463E+02  0.34144061774E+02  0.00000000000E+00 0. -1.
<mgrwt>
<rscale>  1 0.12748998E+03</rscale>
<asrwt>0</asrwt>
<pdfrwt beam="2">  1        4 0.22160357E-02 0.12748998E+03</pdfrwt>
<pdfrwt beam="1">  1       -4 0.74514578E-01 0.12748998E+03</pdfrwt>
<totfact> 0.23384428E+03</totfact>
</mgrwt>
</event>
<event>
 6    4  0.1195577E-003  0.1266415E+03  0.7818608E-02  0.1232526E+00
         -4   -1    0    0    0  501 -0.00000000000E+00  0.00000000000E+00  0.17322989803E+02  0.17369481159E+02  0.12700000000E+01 0.  1.
          4   -1    0    0  502    0  0.00000000000E+00 -0.00000000000E+00 -0.31284133085E+03  0.31284390867E+03  0.12700000000E+01 0.  1.
         25    2    1    2    0    0  0.17812125272E+02 -0.97945337589E+01 -0.24596950652E+03  0.27665695509E+03  0.12499947185E+03 0.  0.
    9000005    1    3    3    0    0 -0.51220633101E+02 -0.20876677776E+02 -0.88607201837E+02  0.10445872461E+03  0.10000000000E+01 0.  0.
    9000005    1    3    3    0    0  0.69032758373E+02  0.11082144018E+02 -0.15736230468E+03  0.17219823048E+03  0.10000000000E+01 0.  0.
         21    1    1    2  502  501 -0.17812125272E+02  0.97945337589E+01 -0.49548834530E+02  0.53556434735E+02  0.00000000000E+00 0.  1.
<mgrwt>
<rscale>  1 0.12664151E+03</rscale>
<asrwt>0</asrwt>
<pdfrwt beam="2">  1        4 0.48133206E-01 0.12664151E+03</pdfrwt>
<pdfrwt beam="1">  1       -4 0.26688501E-02 0.12664151E+03</pdfrwt>
<totfact> 0.43768449E+03</totfact>
</mgrwt>
</event>
<event>
 6    4  0.1195577E-003  0.1269468E+03  0.7818608E-02  0.1232058E+00
         -4   -1    0    0    0  501 -0.00000000000E+00  0.00000000000E+00  0.20025939751E+03  0.20026342450E+03  0.12700000000E+01 0.  1.
          4   -1    0    0  502    0  0.00000000000E+00 -0.00000000000E+00 -0.29334596434E+02  0.29362074994E+02  0.12700000000E+01 0.  1.
         25    2    1    2    0    0 -0.22125970874E+02  0.72052495240E+00  0.16185935267E+03  0.20570354100E+03  0.12500167595E+03 0.  0.
    9000005    1    3    3    0    0 -0.30882504698E+02  0.27860355771E+01 -0.10767536950E+02  0.32839472325E+02  0.10000000000E+01 0.  0.
    9000005    1    3    3    0    0  0.87565338237E+01 -0.20655106247E+01  0.17262688962E+03  0.17286406868E+03  0.10000000000E+01 0.  0.
         21    1    1    2  502  501  0.22125970874E+02 -0.72052495240E+00  0.90654484103E+01  0.23921958494E+02  0.00000000000E+00 0. -1.
<mgrwt>
<rscale>  1 0.12694683E+03</rscale>
<asrwt>0</asrwt>
<pdfrwt beam="2">  1        4 0.45154383E-02 0.12694683E+03</pdfrwt>
<pdfrwt beam="1">  1       -4 0.30811562E-01 0.12694683E+03</pdfrwt>
<totfact> 0.45754572E+03</totfact>
</mgrwt>
</event>
<event>
 6    4  0.1195577E-003  0.1272218E+03  0.7818608E-02  0.1231637E+00
         -4   -1    0    0    0  501 -0.00000000000E+00  0.00000000000E+00  0.98257566556E+02  0.98265773724E+02  0.12700000000E+01 0. -1.
          4   -1    0    0  502    0  0.00000000000E+00 -0.00000000000E+00 -0.61802275667E+02  0.61815323162E+02  0.12700000000E+01 0. -1.
         25    2    1    2    0    0 -0.10138831522E+02 -0.21381587777E+02  0.44964466598E+02  0.13493404394E+03  0.12500169902E+03 0.  0.
    9000005    1    3    3    0    0 -0.63116705697E+02 -0.33041609594E+02  0.36394166320E+02  0.80006261284E+02  0.10000000000E+01 0.  0.
    9000005    1    3    3    0    0  0.52977874175E+02  0.11660021817E+02  0.85703002779E+01  0.54927782658E+02  0.10000000000E+01 0.  0.
         21    1    1    2  502  501  0.10138831522E+02  0.21381587777E+02 -0.85091757088E+01  0.25147052944E+02  0.00000000000E+00 0. -1.
<mgrwt>
<rscale>  1 0.12722183E+03</rscale>
<asrwt>0</asrwt>
<pdfrwt beam="2">  1        4 0.95096775E-02 0.12722183E+03</pdfrwt>
<pdfrwt beam="1">  1       -4 0.15118184E-01 0.12722183E+03</pdfrwt>
<totfact> 0.49355008E+03</totfact>
</mgrwt>
</event>
<event>
 6    4  0.1195577E-003  0.1269934E+03  0.7818608E-02  0.1231986E+00
         -4   -1    0    0    0  501 -0.00000000000E+00  0.00000000000E+00  0.19326307059E+02  0.19367990203E+02  0.12700000000E+01 0. -1.
          4   -1    0    0  502    0  0.00000000000E+00 -0.00000000000E+00 -0.36150241469E+03  0.36150464551E+03  0.12700000000E+01 0. -1.
         25    2    1    2    0    0 -0.12356167673E+02  0.18643914663E+02 -0.19975062336E+03  0.23670159492E+03  0.12500825202E+03 0.  0.
    9000005    1    3    3    0    0 -0.16373434822E+01 -0.24416677898E+02  0.68139105391E+01  0.25422124815E+02  0.10000000000E+01 0.  0.
    9000005    1    3    3    0    0 -0.10718824191E+02  0.43060592561E+02 -0.20656453390E+03  0.21127947010E+03  0.10000000000E+01 0.  0.
         21    1    1    2  502  501  0.12356167673E+02 -0.18643914663E+02 -0.14242548427E+03  0.14417104080E+03  0.00000000000E+00 0.  1.
<mgrwt>
<rscale>  1 0.12699344E+03</rscale>
<asrwt>0</asrwt>
<pdfrwt beam="2">  1        4 0.55619129E-01 0.12699344E+03</pdfrwt>
<pdfrwt beam="1">  1       -4 0.29766563E-02 0.12699344E+03</pdfrwt>
<totfact> 0.27484908E+03</totfact>
</mgrwt>
</event>
<event>
 6    4  0.1195577E-003  0.1285241E+03  0.7818608E-02  0.1229662E+00
          4   -1    0    0  502    0  0.00000000000E+00  0.00000000000E+00  0.30501762654E+02  0.30528190661E+02  0.12700000000E+01 0.  1.
         -4   -1    0    0    0  501 -0.00000000000E+00 -0.00000000000E+00 -0.20699380347E+03  0.20699769945E+03  0.12700000000E+01 0.  1.
         25    2    1    2    0    0 -0.94055891566E+01  0.28371018721E+02 -0.13507826111E+03  0.18645260002E+03  0.12500022248E+03 0.  0.
    9000005    1    3    3    0    0  0.42357783005E+01 -0.44744265556E+02 -0.86870097923E+02  0.97813112777E+02  0.10000000000E+01 0.  0.
    9000005    1    3    3    0    0 -0.13641367457E+02  0.73115284277E+02 -0.48208163192E+02  0.88639487246E+02  0.10000000000E+01 0.  0.
         21    1    1    2  502  501  0.94055891566E+01 -0.28371018721E+02 -0.41413779706E+02  0.51073290085E+02  0.00000000000E+00 0.  1.
<mgrwt>
<rscale>  1 0.12852407E+03</rscale>
<asrwt>0</asrwt>
<pdfrwt beam="1">  1        4 0.46949116E-02 0.12852407E+03</pdfrwt>
<pdfrwt beam="2">  1       -4 0.31847532E-01 0.12852407E+03</pdfrwt>
<totfact> 0.40499398E+03</totfact>
</mgrwt>
</event>
<event>
 6    4  0.1195577E-003  0.1501062E+03  0.7818608E-02  0.1200343E+00
         -4   -1    0    0    0  501 -0.00000000000E+00  0.00000000000E+00  0.42240979122E+03  0.42241170039E+03  0.12700000000E+01 0. -1.
          4   -1    0    0  502    0  0.00000000000E+00 -0.00000000000E+00 -0.14075441243E+03  0.14076014179E+03  0.12700000000E+01 0. -1.
         25    2    1    2    0    0 -0.78150546466E+02 -0.28265138273E+02  0.39503735422E+03  0.42259482305E+03  0.12500178913E+03 0.  0.
    9000005    1    3    3    0    0 -0.10311970022E+03 -0.41251152888E+02  0.23288395059E+03  0.25801407836E+03  0.10000000000E+01 0.  0.
    9000005    1    3    3    0    0  0.24969153758E+02  0.12986014615E+02  0.16215340363E+03  0.16458074470E+03  0.10000000000E+01 0.  0.
         21    1    1    2  502  501  0.78150546466E+02  0.28265138273E+02 -0.11338197542E+03  0.14057701912E+03  0.00000000000E+00 0. -1.
<mgrwt>
<rscale>  1 0.15010621E+03</rscale>
<asrwt>0</asrwt>
<pdfrwt beam="2">  1        4 0.21655113E-01 0.15010621E+03</pdfrwt>
<pdfrwt beam="1">  1       -4 0.64986709E-01 0.15010621E+03</pdfrwt>
<totfact> 0.74601444E+01</totfact>
</mgrwt>
</event>
<event>
 6    4  0.1195577E-003  0.1283414E+03  0.7818608E-02  0.1229938E+00
         -4   -1    0    0    0  501 -0.00000000000E+00  0.00000000000E+00  0.11185262416E+03  0.11185983387E+03  0.12700000000E+01 0. -1.
          4   -1    0    0  502    0  0.00000000000E+00 -0.00000000000E+00 -0.55952406581E+02  0.55966817868E+02  0.12700000000E+01 0. -1.
         25    2    1    2    0    0 -0.26598285189E+02  0.11783618124E+02  0.51995982927E+02  0.13847421607E+03  0.12500081538E+03 0.  0.
    9000005    1    3    3    0    0  0.41234401772E+02 -0.18929230958E+01  0.55507221800E+02  0.69180276953E+02  0.10000000000E+01 0.  0.
    9000005    1    3    3    0    0 -0.67832686961E+02  0.13676541219E+02 -0.35112388731E+01  0.69293939118E+02  0.10000000000E+01 0.  0.
         21    1    1    2  502  501  0.26598285189E+02 -0.11783618124E+02  0.39042346558E+01  0.29352435662E+02  0.00000000000E+00 0.  1.
<mgrwt>
<rscale>  1 0.12834144E+03</rscale>
<asrwt>0</asrwt>
<pdfrwt beam="2">  1        4 0.86097259E-02 0.12834144E+03</pdfrwt>
<pdfrwt beam="1">  1       -4 0.17209759E-01 0.12834144E+03</pdfrwt>
<totfact> 0.46510091E+03</totfact>
</mgrwt>
</event>
<event>
 6    4  0.1195577E-003  0.1351289E+03  0.7818608E-02  0.1220038E+00
         -4   -1    0    0    0  501 -0.00000000000E+00  0.00000000000E+00  0.24532001692E+03  0.24532330424E+03  0.12700000000E+01 0. -1.
          4   -1    0    0  502    0  0.00000000000E+00 -0.00000000000E+00 -0.35802173581E+02  0.35824691668E+02  0.12700000000E+01 0. -1.
         25    2    1    2    0    0 -0.48209946226E+02  0.17625016918E+02  0.16439459443E+03  0.21280366381E+03  0.12499990608E+03 0.  0.
    9000005    1    3    3    0    0 -0.47204377345E+02  0.30185104671E+02  0.18239441359E+03  0.19080910851E+03  0.10000000000E+01 0.  0.
    9000005    1    3    3    0    0 -0.10055688809E+01 -0.12560087753E+02 -0.17999819159E+02  0.21994555301E+02  0.10000000000E+01 0.  0.
         21    1    1    2  502  501  0.48209946226E+02 -0.17625016918E+02  0.45123248916E+02  0.68344332092E+02  0.00000000000E+00 0. -1.
<mgrwt>
<rscale>  1 0.13512889E+03</rscale>
<asrwt>0</asrwt>
<pdfrwt beam="2">  1        4 0.55100116E-02 0.13512889E+03</pdfrwt>
<pdfrwt beam="1">  1       -4 0.37743527E-01 0.13512889E+03</pdfrwt>
<totfact> 0.22838737E+03</totfact>
</mgrwt>
</event>
<event>
 6    4  0.1195577E-003  0.1277622E+03  0.7818608E-02  0.1230814E+00
          4   -1    0    0  502    0  0.00000000000E+00  0.00000000000E+00  0.37722469342E+03  0.37722683127E+03  0.12700000000E+01 0. -1.
         -4   -1    0    0    0  501 -0.00000000000E+00 -0.00000000000E+00 -0.15966877165E+02  0.16017305217E+02  0.12700000000E+01 0. -1.
         25    2    1    2    0    0 -0.25132848725E+02  0.81769263646E+01  0.27940388849E+03  0.30722909302E+03  0.12499864195E+03 0.  0.
    9000005    1    3    3    0    0 -0.27423879737E+02 -0.24990502603E+02  0.13874303163E+02  0.39624369880E+02  0.10000000000E+01 0.  0.
    9000005    1    3    3    0    0  0.22910310123E+01  0.33167428967E+02  0.26552958532E+03  0.26760472314E+03  0.10000000000E+01 0.  0.
         21    1    1    2  502  501  0.25132848725E+02 -0.81769263646E+01  0.81853927772E+02  0.86015043460E+02  0.00000000000E+00 0. -1.
<mgrwt>
<rscale>  1 0.12776221E+03</rscale>
<asrwt>0</asrwt>
<pdfrwt beam="1">  1        4 0.58038617E-01 0.12776221E+03</pdfrwt>
<pdfrwt beam="2">  1       -4 0.24604860E-02 0.12776221E+03</pdfrwt>
<totfact> 0.33892563E+03</totfact>
</mgrwt>
</event>
<event>
 6    4  0.1195577E-003  0.1423587E+03  0.7818608E-02  0.1210190E+00
         -4   -1    0    0    0  501 -0.00000000000E+00  0.00000000000E+00  0.42653231570E+03  0.42653420641E+03  0.12700000000E+01 0.  1.
          4   -1    0    0  502    0  0.00000000000E+00 -0.00000000000E+00 -0.27651396638E+02  0.27680546166E+02  0.12700000000E+01 0.  1.
         25    2    1    2    0    0  0.57624060356E+02  0.36344085112E+02  0.31836087611E+03  0.34874010078E+03  0.12499834239E+03 0.  0.
    9000005    1    3    3    0    0  0.86407548923E+02 -0.10762241035E+02  0.18967779043E+03  0.20871213315E+03  0.10000000000E+01 0.  0.
    9000005    1    3    3    0    0 -0.28783488567E+02  0.47106326147E+02  0.12868308568E+03  0.14002796762E+03  0.10000000000E+01 0.  0.
         21    1    1    2  502  501 -0.57624060356E+02 -0.36344085112E+02  0.80520042958E+02  0.10547465180E+03  0.00000000000E+00 0. -1.
<mgrwt>
<rscale>  1 0.14235874E+03</rscale>
<asrwt>0</asrwt>
<pdfrwt beam="2">  1        4 0.42564490E-02 0.14235874E+03</pdfrwt>
<pdfrwt beam="1">  1       -4 0.65622740E-01 0.14235874E+03</pdfrwt>
<totfact> 0.11320118E+03</totfact>
</mgrwt>
</event>
<event>
 6    4  0.1195577E-003  0.1274076E+03  0.7818608E-02  0.1231354E+00
          4   -1    0    0  502    0  0.00000000000E+00  0.00000000000E+00  0.19996646814E+03  0.19997050103E+03  0.12700000000E+01 0.  1.
         -4   -1    0    0    0  501 -0.00000000000E+00 -0.00000000000E+00 -0.94228886302E+02  0.94237444329E+02  0.12700000000E+01 0.  1.
         25    2    1    2    0    0  0.15517920020E+02 -0.19139426000E+02 -0.49752873318E+02  0.13677730947E+03  0.12500224203E+03 0.  0.
    9000005    1    3    3    0    0  0.81325036846E+01 -0.52883538016E+02 -0.76302975278E+02  0.93198445510E+02  0.10000000000E+01 0.  0.
    9000005    1    3    3    0    0  0.73854163357E+01  0.33744112016E+02  0.26550101959E+02  0.43578863962E+02  0.10000000000E+01 0.  0.
         21    1    1    2  502  501 -0.15517920020E+02  0.19139426000E+02  0.15549045516E+03  0.15743063588E+03  0.00000000000E+00 0.  1.
<mgrwt>
<rscale>  1 0.12740755E+03</rscale>
<asrwt>0</asrwt>
<pdfrwt beam="1">  1        4 0.30765040E-01 0.12740755E+03</pdfrwt>
<pdfrwt beam="2">  1       -4 0.14497720E-01 0.12740755E+03</pdfrwt>
<totfact> 0.66269035E+02</totfact>
</mgrwt>
</event>
<event>
 6    4  0.1195577E-003  0.1358958E+03  0.7818608E-02  0.1218961E+00
          4   -1    0    0  502    0  0.00000000000E+00  0.00000000000E+00  0.42115262749E+03  0.42115454235E+03  0.12700000000E+01 0. -1.
         -4   -1    0    0    0  501 -0.00000000000E+00 -0.00000000000E+00 -0.21639848276E+02  0.21677083139E+02  0.12700000000E+01 0. -1.
         25    2    1    2    0    0 -0.12842785458E+02  0.51731313213E+02  0.31283013766E+03  0.34107236914E+03  0.12500640008E+03 0.  0.
    9000005    1    3    3    0    0  0.38179391948E+02 -0.11063295078E+02  0.18908169478E+03  0.19321736404E+03  0.10000000000E+01 0.  0.
    9000005    1    3    3    0    0 -0.51022177406E+02  0.62794608291E+02  0.12374844288E+03  0.14785500510E+03  0.10000000000E+01 0.  0.
         21    1    1    2  502  501  0.12842785458E+02 -0.51731313213E+02  0.86682641553E+02  0.10175925634E+03  0.00000000000E+00 0. -1.
<mgrwt>
<rscale>  1 0.13589579E+03</rscale>
<asrwt>0</asrwt>
<pdfrwt beam="1">  1        4 0.64795721E-01 0.13589579E+03</pdfrwt>
<pdfrwt beam="2">  1       -4 0.33322190E-02 0.13589579E+03</pdfrwt>
<totfact> 0.16972943E+03</totfact>
</mgrwt>
</event>
<event>
 6    4  0.1195577E-003  0.1382865E+03  0.7818608E-02  0.1215653E+00
          4   -1    0    0  502    0  0.00000000000E+00  0.00000000000E+00  0.50590798494E+03  0.50590957900E+03  0.12700000000E+01 0.  1.
         -4   -1    0    0    0  501 -0.00000000000E+00 -0.00000000000E+00 -0.19771813850E+02  0.19812559727E+02  0.12700000000E+01 0.  1.
         25    2    1    2    0    0  0.46827865717E+02 -0.36119049922E+02  0.37750637018E+03  0.40203758666E+03  0.12500290711E+03 0.  0.
    9000005    1    3    3    0    0 -0.18641591194E+02 -0.58775761326E+02  0.24339164733E+03  0.25108284098E+03  0.10000000000E+01 0.  0.
    9000005    1    3    3    0    0  0.65469456911E+02  0.22656711404E+02  0.13411472284E+03  0.15095474568E+03  0.10000000000E+01 0.  0.
         21    1    1    2  502  501 -0.46827865717E+02  0.36119049922E+02  0.10862980091E+03  0.12368455207E+03  0.00000000000E+00 0.  1.
<mgrwt>
<rscale>  1 0.13828652E+03</rscale>
<asrwt>0</asrwt>
<pdfrwt beam="1">  1        4 0.77835244E-01 0.13828652E+03</pdfrwt>
<pdfrwt beam="2">  1       -4 0.30450749E-02 0.13828652E+03</pdfrwt>
<totfact> 0.13199295E+03</totfact>
</mgrwt>
</event>
<event>
 6    4  0.1195577E-003  0.1286198E+03  0.7818608E-02  0.1229518E+00
         -4   -1    0    0    0  501 -0.00000000000E+00  0.00000000000E+00  0.23034666531E+03  0.23035016631E+03  0.12700000000E+01 0. -1.
          4   -1    0    0  502    0  0.00000000000E+00 -0.00000000000E+00 -0.32243648365E+02  0.32268649799E+02  0.12700000000E+01 0. -1.
         25    2    1    2    0    0  0.17485104526E+02 -0.24746402888E+02  0.19294076899E+03  0.23188183284E+03  0.12499972292E+03 0.  0.
    9000005    1    3    3    0    0 -0.94904409893E+01 -0.71162096890E+02  0.84565774428E+02  0.11093458752E+03  0.10000000000E+01 0.  0.
    9000005    1    3    3    0    0  0.26975545515E+02  0.46415694002E+02  0.10837499456E+03  0.12094724532E+03  0.10000000000E+01 0.  0.
         21    1    1    2  502  501 -0.17485104526E+02  0.24746402888E+02  0.51622479560E+01  0.30736983264E+02  0.00000000000E+00 0. -1.
<mgrwt>
<rscale>  1 0.12861977E+03</rscale>
<asrwt>0</asrwt>
<pdfrwt beam="2">  1        4 0.49627540E-02 0.12861977E+03</pdfrwt>
<pdfrwt beam="1">  1       -4 0.35440140E-01 0.12861977E+03</pdfrwt>
<totfact> 0.30194488E+03</totfact>
</mgrwt>
</event>
<event>
 6    4  0.1195577E-003  0.1306584E+03  0.7818608E-02  0.1226482E+00
         -4   -1    0    0    0  501 -0.00000000000E+00  0.00000000000E+00  0.95024767008E+02  0.95033253364E+02  0.12700000000E+01 0. -1.
          4   -1    0    0  502    0  0.00000000000E+00 -0.00000000000E+00 -0.82796263881E+02  0.82806003482E+02  0.12700000000E+01 0. -1.
         25    2    1    2    0    0 -0.31477288966E+02 -0.21284076204E+02  0.32685444357E+02  0.13468467349E+03  0.12501116502E+03 0.  0.
    9000005    1    3    3    0    0  0.87333899212E+01  0.28043598377E+02 -0.32336185036E+02  0.43696045269E+02  0.10000000000E+01 0.  0.
    9000005    1    3    3    0    0 -0.40210678887E+02 -0.49327674581E+02  0.65021629393E+02  0.90988628218E+02  0.10000000000E+01 0.  0.
         21    1    1    2  502  501  0.31477288966E+02  0.21284076204E+02 -0.20456941230E+02  0.43154583360E+02  0.00000000000E+00 0. -1.
<mgrwt>
<rscale>  1 0.13065842E+03</rscale>
<asrwt>0</asrwt>
<pdfrwt beam="2">  1        4 0.12739289E-01 0.13065842E+03</pdfrwt>
<pdfrwt beam="1">  1       -4 0.14620597E-01 0.13065842E+03</pdfrwt>
<totfact> 0.32070460E+03</totfact>
</mgrwt>
</event>
<event>
 6    4  0.1195577E-003  0.1266021E+03  0.7818608E-02  0.1232586E+00
          4   -1    0    0  502    0  0.00000000000E+00  0.00000000000E+00  0.79903784982E+01  0.80906766432E+01  0.12700000000E+01 0.  1.
         -4   -1    0    0    0  501 -0.00000000000E+00 -0.00000000000E+00 -0.80734456327E+03  0.80734556216E+03  0.12700000000E+01 0.  1.
         25    2    1    2    0    0 -0.19973008352E+02 -0.23410275909E+01 -0.76673111553E+03  0.77711305888E+03  0.12499480504E+03 0.  0.
    9000005    1    3    3    0    0 -0.71832109845E+02 -0.10523201128E+02 -0.38489154317E+03  0.39167983070E+03  0.10000000000E+01 0.  0.
    9000005    1    3    3    0    0  0.51859101494E+02  0.81821735374E+01 -0.38183957236E+03  0.38543322819E+03  0.10000000000E+01 0.  0.
         21    1    1    2  502  501  0.19973008352E+02  0.23410275909E+01 -0.32623069242E+02  0.38323179925E+02  0.00000000000E+00 0.  1.
<mgrwt>
<rscale>  1 0.12660214E+03</rscale>
<asrwt>0</asrwt>
<pdfrwt beam="1">  1        4 0.12370817E-02 0.12660214E+03</pdfrwt>
<pdfrwt beam="2">  1       -4 0.12421458E+00 0.12660214E+03</pdfrwt>
<totfact> 0.17642931E+03</totfact>
</mgrwt>
</event>
<event>
 6    4  0.1195577E-003  0.1289755E+03  0.7818608E-02  0.1228984E+00
          4   -1    0    0  502    0  0.00000000000E+00  0.00000000000E+00  0.24082715059E+03  0.24083049924E+03  0.12700000000E+01 0. -1.
         -4   -1    0    0    0  501 -0.00000000000E+00 -0.00000000000E+00 -0.30891682557E+02  0.30917777268E+02  0.12700000000E+01 0. -1.
         25    2    1    2    0    0 -0.15778760779E+01 -0.31727554525E+02  0.11923755884E+03  0.17564813009E+03  0.12500217100E+03 0.  0.
    9000005    1    3    3    0    0  0.15184300061E+02 -0.76713615395E+02  0.55741227978E+02  0.96039711847E+02  0.10000000000E+01 0.  0.
    9000005    1    3    3    0    0 -0.16762176139E+02  0.44986060870E+02  0.63496330862E+02  0.79608418239E+02  0.10000000000E+01 0.  0.
         21    1    1    2  502  501  0.15778760779E+01  0.31727554525E+02  0.90697909196E+02  0.96100146418E+02  0.00000000000E+00 0. -1.
<mgrwt>
<rscale>  1 0.12897546E+03</rscale>
<asrwt>0</asrwt>
<pdfrwt beam="1">  1        4 0.37052596E-01 0.12897546E+03</pdfrwt>
<pdfrwt beam="2">  1       -4 0.47548313E-02 0.12897546E+03</pdfrwt>
<totfact> 0.29688103E+03</totfact>
</mgrwt>
</event>
<event>
 6    4  0.1195577E-003  0.1310466E+03  0.7818608E-02  0.1225911E+00
          4   -1    0    0  502    0  0.00000000000E+00  0.00000000000E+00  0.35277480168E+02  0.35300332959E+02  0.12700000000E+01 0. -1.
         -4   -1    0    0    0  501 -0.00000000000E+00 -0.00000000000E+00 -0.21055744469E+03  0.21056127472E+03  0.12700000000E+01 0. -1.
         25    2    1    2    0    0 -0.38941896639E+02 -0.55326651021E+01 -0.14963625489E+03  0.19890757122E+03  0.12500452556E+03 0.  0.
    9000005    1    3    3    0    0 -0.85516580289E+01 -0.16411321480E+02  0.19390958692E+02  0.26822967896E+02  0.10000000000E+01 0.  0.
    9000005    1    3    3    0    0 -0.30390238610E+02  0.10878656378E+02 -0.16902721359E+03  0.17208460332E+03  0.10000000000E+01 0.  0.
         21    1    1    2  502  501  0.38941896639E+02  0.55326651021E+01 -0.25643709624E+02  0.46954036464E+02  0.00000000000E+00 0.  1.
<mgrwt>
<rscale>  1 0.13104661E+03</rscale>
<asrwt>0</asrwt>
<pdfrwt beam="1">  1        4 0.54293573E-02 0.13104661E+03</pdfrwt>
<pdfrwt beam="2">  1       -4 0.32395505E-01 0.13104661E+03</pdfrwt>
<totfact> 0.31185351E+03</totfact>
</mgrwt>
</event>
<event>
 6    4  0.1195577E-003  0.1586266E+03  0.7818608E-02  0.1190256E+00
          4   -1    0    0  502    0  0.00000000000E+00  0.00000000000E+00  0.24015129151E+03  0.24015464958E+03  0.12700000000E+01 0.  1.
         -4   -1    0    0    0  501 -0.00000000000E+00 -0.00000000000E+00 -0.17736240873E+03  0.17736695558E+03  0.12700000000E+01 0.  1.
         25    2    1    2    0    0  0.81532622673E+02  0.53786296315E+02 -0.12757416658E+03  0.20356220529E+03  0.12498747623E+03 0.  0.
    9000005    1    3    3    0    0  0.86852175819E+02  0.18009807406E+02 -0.21201608518E+02  0.91203957211E+02  0.10000000000E+01 0.  0.
    9000005    1    3    3    0    0 -0.53195531452E+01  0.35776488909E+02 -0.10637255806E+03  0.11235824808E+03  0.10000000000E+01 0.  0.
         21    1    1    2  502  501 -0.81532622673E+02 -0.53786296315E+02  0.19036304935E+03  0.21395939987E+03  0.00000000000E+00 0.  1.
<mgrwt>
<rscale>  1 0.15862662E+03</rscale>
<asrwt>0</asrwt>
<pdfrwt beam="1">  1        4 0.36946961E-01 0.15862662E+03</pdfrwt>
<pdfrwt beam="2">  1       -4 0.27287133E-01 0.15862662E+03</pdfrwt>
<totfact> 0.15527380E+02</totfact>
</mgrwt>
</event>
<event>
 6    4  0.1195577E-003  0.1358492E+03  0.7818608E-02  0.1219026E+00
          4   -1    0    0  502    0  0.00000000000E+00  0.00000000000E+00  0.72645741197E+02  0.72656841482E+02  0.12700000000E+01 0. -1.
         -4   -1    0    0    0  501 -0.00000000000E+00 -0.00000000000E+00 -0.37611277494E+03  0.37611491910E+03  0.12700000000E+01 0. -1.
         25    2    1    2    0    0  0.31860312482E+01  0.53104424056E+02 -0.35166066818E+03  0.37698835686E+03  0.12499906007E+03 0.  0.
    9000005    1    3    3    0    0  0.39374614219E+02  0.79173678674E+02 -0.19528664312E+03  0.21437514926E+03  0.10000000000E+01 0.  0.
    9000005    1    3    3    0    0 -0.36188582971E+02 -0.26069254618E+02 -0.15637402506E+03  0.16261320760E+03  0.10000000000E+01 0.  0.
         21    1    1    2  502  501 -0.31860312482E+01 -0.53104424056E+02  0.48193634437E+02  0.71783403721E+02  0.00000000000E+00 0. -1.
<mgrwt>
<rscale>  1 0.13584917E+03</rscale>
<asrwt>0</asrwt>
<pdfrwt beam="1">  1        4 0.11177287E-01 0.13584917E+03</pdfrwt>
<pdfrwt beam="2">  1       -4 0.57864521E-01 0.13584917E+03</pdfrwt>
<totfact> 0.29945694E+02</totfact>
</mgrwt>
</event>
<event>
 6    4  0.1195577E-003  0.1274926E+03  0.7818608E-02  0.1231224E+00
         -4   -1    0    0    0  501 -0.00000000000E+00  0.00000000000E+00  0.14956957304E+02  0.15010778520E+02  0.12700000000E+01 0.  1.
          4   -1    0    0  502    0  0.00000000000E+00 -0.00000000000E+00 -0.40588467222E+03  0.40588665911E+03  0.12700000000E+01 0.  1.
         25    2    1    2    0    0 -0.16415862187E+02  0.18965256082E+02 -0.28800428116E+03  0.31496163308E+03  0.12500081150E+03 0.  0.
    9000005    1    3    3    0    0  0.26169858538E+02  0.51366209985E+02 -0.71037527813E+02  0.91491416985E+02  0.10000000000E+01 0.  0.
    9000005    1    3    3    0    0 -0.42585720725E+02 -0.32400953903E+02 -0.21696675335E+03  0.22347021609E+03  0.10000000000E+01 0.  0.
         21    1    1    2  502  501  0.16415862187E+02 -0.18965256082E+02 -0.10292343376E+03  0.10593580455E+03  0.00000000000E+00 0.  1.
<mgrwt>
<rscale>  1 0.12749261E+03</rscale>
<asrwt>0</asrwt>
<pdfrwt beam="2">  1        4 0.62448080E-01 0.12749261E+03</pdfrwt>
<pdfrwt beam="1">  1       -4 0.23053636E-02 0.12749261E+03</pdfrwt>
<totfact> 0.32133674E+03</totfact>
</mgrwt>
</event>
<event>
 6    4  0.1195577E-003  0.1669944E+03  0.7818608E-02  0.1181019E+00
         -4   -1    0    0    0  501 -0.00000000000E+00  0.00000000000E+00  0.25645117833E+04  0.25645120977E+04  0.12700000000E+01 0. -1.
          4   -1    0    0  502    0  0.00000000000E+00 -0.00000000000E+00 -0.79596096420E+01  0.80602906680E+01  0.12700000000E+01 0. -1.
         25    2    1    2    0    0  0.56052880868E+02 -0.95499656795E+02  0.12090908705E+04  0.12205686631E+04  0.12500007291E+03 0.  0.
    9000005    1    3    3    0    0  0.37945468538E+02 -0.10293749349E+03  0.11822651891E+04  0.11873449219E+04  0.10000000000E+01 0.  0.
    9000005    1    3    3    0    0  0.18107412331E+02  0.74378366923E+01  0.26825681399E+02  0.33223741187E+02  0.10000000000E+01 0.  0.
         21    1    1    2  502  501 -0.56052880868E+02  0.95499656795E+02  0.13474613031E+04  0.13520037253E+04  0.00000000000E+00 0. -1.
<mgrwt>
<rscale>  1 0.16699440E+03</rscale>
<asrwt>0</asrwt>
<pdfrwt beam="2">  1        4 0.12323211E-02 0.16699440E+03</pdfrwt>
<pdfrwt beam="1">  1       -4 0.39454903E+00 0.16699440E+03</pdfrwt>
<totfact> 0.36451341E+01</totfact>
</mgrwt>
</event>
<event>
 6    4  0.1195577E-003  0.1275703E+03  0.7818608E-02  0.1231106E+00
         -4   -1    0    0    0  501 -0.00000000000E+00  0.00000000000E+00  0.38689134840E+02  0.38709973581E+02  0.12700000000E+01 0.  1.
          4   -1    0    0  502    0  0.00000000000E+00 -0.00000000000E+00 -0.17073463035E+03  0.17073935370E+03  0.12700000000E+01 0.  1.
         25    2    1    2    0    0 -0.20859045472E+02  0.14885033662E+02 -0.77713099664E+02  0.14937709373E+03  0.12497010149E+03 0.  0.
    9000005    1    3    3    0    0 -0.19262283995E+02  0.49428563960E+02 -0.96415279410E+02  0.11005055485E+03  0.10000000000E+01 0.  0.
    9000005    1    3    3    0    0 -0.15967614768E+01 -0.34543530299E+02  0.18702179746E+02  0.39326538876E+02  0.10000000000E+01 0.  0.
         21    1    1    2  502  501  0.20859045472E+02 -0.14885033662E+02 -0.54332395848E+02  0.60072233550E+02  0.00000000000E+00 0.  1.
<mgrwt>
<rscale>  1 0.12757033E+03</rscale>
<asrwt>0</asrwt>
<pdfrwt beam="2">  1        4 0.26268832E-01 0.12757033E+03</pdfrwt>
<pdfrwt beam="1">  1       -4 0.59541410E-02 0.12757033E+03</pdfrwt>
<totfact> 0.39585167E+03</totfact>
</mgrwt>
</event>
<event>
 6    4  0.1195577E-003  0.1391788E+03  0.7818608E-02  0.1214438E+00
          4   -1    0    0  502    0  0.00000000000E+00  0.00000000000E+00  0.24314042222E+03  0.24314373900E+03  0.12700000000E+01 0. -1.
         -4   -1    0    0    0  501 -0.00000000000E+00 -0.00000000000E+00 -0.45505070489E+02  0.45522789240E+02  0.12700000000E+01 0. -1.
         25    2    1    2    0    0 -0.42435247484E+02  0.44102983341E+02  0.92820845307E+02  0.16729147263E+03  0.12499961649E+03 0.  0.
    9000005    1    3    3    0    0 -0.58957545888E+02  0.79305880632E+02  0.77065900267E+02  0.12532185725E+03  0.10000000000E+01 0.  0.
    9000005    1    3    3    0    0  0.16522298404E+02 -0.35202897291E+02  0.15754945040E+02  0.41969615384E+02  0.10000000000E+01 0.  0.
         21    1    1    2  502  501  0.42435247484E+02 -0.44102983341E+02  0.10481450642E+03  0.12137505561E+03  0.00000000000E+00 0. -1.
<mgrwt>
<rscale>  1 0.13917876E+03</rscale>
<asrwt>0</asrwt>
<pdfrwt beam="1">  1        4 0.37407837E-01 0.13917876E+03</pdfrwt>
<pdfrwt beam="2">  1       -4 0.70023982E-02 0.13917876E+03</pdfrwt>
<totfact> 0.15828772E+03</totfact>
</mgrwt>
</event>
<event>
 6    4  0.1195577E-003  0.1609012E+03  0.7818608E-02  0.1187683E+00
         -4   -1    0    0    0  501 -0.00000000000E+00  0.00000000000E+00  0.48920667354E+02  0.48937149430E+02  0.12700000000E+01 0.  1.
          4   -1    0    0  502    0  0.00000000000E+00 -0.00000000000E+00 -0.35652283728E+03  0.35652509926E+03  0.12700000000E+01 0.  1.
         25    2    1    2    0    0 -0.23484017102E+01  0.10128487394E+03 -0.16430564099E+03  0.22996855682E+03  0.12500021115E+03 0.  0.
    9000005    1    3    3    0    0 -0.56004555536E+02  0.17360086348E+02 -0.81647821138E+02  0.10052487023E+03  0.10000000000E+01 0.  0.
    9000005    1    3    3    0    0  0.53656153826E+02  0.83924787591E+02 -0.82657819848E+02  0.12944368659E+03  0.10000000000E+01 0.  0.
         21    1    1    2  502  501  0.23484017102E+01 -0.10128487394E+03 -0.14329652894E+03  0.17549369187E+03  0.00000000000E+00 0.  1.
<mgrwt>
<rscale>  1 0.16090119E+03</rscale>
<asrwt>0</asrwt>
<pdfrwt beam="2">  1        4 0.54851107E-01 0.16090119E+03</pdfrwt>
<pdfrwt beam="1">  1       -4 0.75276986E-02 0.16090119E+03</pdfrwt>
<totfact> 0.67028981E+02</totfact>
</mgrwt>
</event>
<event>
 6    4  0.1195577E-003  0.1271482E+03  0.7818608E-02  0.1231750E+00
          4   -1    0    0  502    0  0.00000000000E+00  0.00000000000E+00  0.42814334995E+02  0.42833166834E+02  0.12700000000E+01 0. -1.
         -4   -1    0    0    0  501 -0.00000000000E+00 -0.00000000000E+00 -0.35111331980E+03  0.35111561663E+03  0.12700000000E+01 0. -1.
         25    2    1    2    0    0 -0.10021248638E+02  0.21027106723E+02 -0.33511708430E+03  0.35842730964E+03  0.12499644582E+03 0.  0.
    9000005    1    3    3    0    0  0.19166073846E+02 -0.14016714353E+02 -0.38999397557E+01  0.24083525448E+02  0.10000000000E+01 0.  0.
    9000005    1    3    3    0    0 -0.29187322483E+02  0.35043821076E+02 -0.33121714455E+03  0.33434378420E+03  0.10000000000E+01 0.  0.
         21    1    1    2  502  501  0.10021248638E+02 -0.21027106723E+02  0.26818099499E+02  0.35521473817E+02  0.00000000000E+00 0. -1.
<mgrwt>
<rscale>  1 0.12714824E+03</rscale>
<asrwt>0</asrwt>
<pdfrwt beam="1">  1        4 0.65884463E-02 0.12714824E+03</pdfrwt>
<pdfrwt beam="2">  1       -4 0.54019057E-01 0.12714824E+03</pdfrwt>
<totfact> 0.82174544E+02</totfact>
</mgrwt>
</event>
<event>
 6    4  0.1195577E-003  0.1292172E+03  0.7818608E-02  0.1228622E+00
         -4   -1    0    0    0  501 -0.00000000000E+00  0.00000000000E+00  0.77776263064E+03  0.77776366752E+03  0.12700000000E+01 0.  1.
          4   -1    0    0  502    0  0.00000000000E+00 -0.00000000000E+00 -0.92829293667E+01  0.93694011349E+01  0.12700000000E+01 0.  1.
         25    2    1    2    0    0 -0.20949527771E+02 -0.25155078475E+02  0.69169556263E+03  0.70366172846E+03  0.12500166421E+03 0.  0.
    9000005    1    3    3    0    0  0.41046835820E+02  0.24798813429E+02  0.31613721582E+03  0.31975547393E+03  0.10000000000E+01 0.  0.
    9000005    1    3    3    0    0 -0.61996363591E+02 -0.49953891903E+02  0.37555834681E+03  0.38390625453E+03  0.10000000000E+01 0.  0.
         21    1    1    2  502  501  0.20949527771E+02  0.25155078475E+02  0.76784138642E+02  0.83471340195E+02  0.00000000000E+00 0.  1.
<mgrwt>
<rscale>  1 0.12921717E+03</rscale>
<asrwt>0</asrwt>
<pdfrwt beam="2">  1        4 0.14348737E-02 0.12921717E+03</pdfrwt>
<pdfrwt beam="1">  1       -4 0.11966258E+00 0.12921717E+03</pdfrwt>
<totfact> 0.15486943E+03</totfact>
</mgrwt>
</event>
<event>
 6    4  0.1195577E-003  0.1306542E+03  0.7818608E-02  0.1226488E+00
          4   -1    0    0  502    0  0.00000000000E+00  0.00000000000E+00  0.96217654281E+01  0.97052186968E+01  0.12700000000E+01 0. -1.
         -4   -1    0    0    0  501 -0.00000000000E+00 -0.00000000000E+00 -0.73920411610E+03  0.73920520707E+03  0.12700000000E+01 0. -1.
         25    2    1    2    0    0 -0.34229831991E+02 -0.16546084700E+02 -0.54347587709E+03  0.55896023802E+03  0.12500025755E+03 0.  0.
    9000005    1    3    3    0    0 -0.30675935275E+02 -0.10464596769E+02 -0.54899761049E+03  0.54995445004E+03  0.10000000000E+01 0.  0.
    9000005    1    3    3    0    0 -0.35538967159E+01 -0.60814879305E+01  0.55217334036E+01  0.90057879776E+01  0.10000000000E+01 0.  0.
         21    1    1    2  502  501  0.34229831991E+02  0.16546084700E+02 -0.18610647359E+03  0.18995018775E+03  0.00000000000E+00 0.  1.
<mgrwt>
<rscale>  1 0.13065420E+03</rscale>
<asrwt>0</asrwt>
<pdfrwt beam="1">  1        4 0.14867756E-02 0.13065420E+03</pdfrwt>
<pdfrwt beam="2">  1       -4 0.11373017E+00 0.13065420E+03</pdfrwt>
<totfact> 0.16599383E+03</totfact>
</mgrwt>
</event>
<event>
 6    4  0.1195577E-003  0.1267377E+03  0.7818608E-02  0.1232378E+00
         -4   -1    0    0    0  501 -0.00000000000E+00  0.00000000000E+00  0.43627473496E+02  0.43645954493E+02  0.12700000000E+01 0. -1.
          4   -1    0    0  502    0  0.00000000000E+00 -0.00000000000E+00 -0.13434349826E+03  0.13434950102E+03  0.12700000000E+01 0. -1.
         25    2    1    2    0    0 -0.19262666553E+02 -0.81024346082E+01 -0.58481675325E+02  0.13957992411E+03  0.12500299635E+03 0.  0.
    9000005    1    3    3    0    0 -0.34441229471E+02 -0.59057390278E+02 -0.52222443240E+02  0.86035790296E+02  0.10000000000E+01 0.  0.
    9000005    1    3    3    0    0  0.15178562918E+02  0.50954955670E+02 -0.62592320854E+01  0.53544133814E+02  0.10000000000E+01 0.  0.
         21    1    1    2  502  501  0.19262666553E+02  0.81024346082E+01 -0.32234349439E+02  0.38415531404E+02  0.00000000000E+00 0. -1.
<mgrwt>
<rscale>  1 0.12673772E+03</rscale>
<asrwt>0</asrwt>
<pdfrwt beam="2">  1        4 0.20670114E-01 0.12673772E+03</pdfrwt>
<pdfrwt beam="1">  1       -4 0.67138024E-02 0.12673772E+03</pdfrwt>
<totfact> 0.50376901E+03</totfact>
</mgrwt>
</event>
<event>
 6    4  0.1195577E-003  0.1266980E+03  0.7818608E-02  0.1232439E+00
         -4   -1    0    0    0  501 -0.00000000000E+00  0.00000000000E+00  0.39887377817E+02  0.39907590871E+02  0.12700000000E+01 0. -1.
          4   -1    0    0  502    0  0.00000000000E+00 -0.00000000000E+00 -0.18039827992E+03  0.18040275025E+03  0.12700000000E+01 0. -1.
         25    2    1    2    0    0  0.86742656732E+01  0.18692301571E+02 -0.65712594392E+02  0.14272534348E+03  0.12501093387E+03 0.  0.
    9000005    1    3    3    0    0  0.64653938587E+02 -0.27892684135E+01 -0.46715425752E+02  0.79820065124E+02  0.10000000000E+01 0.  0.
    9000005    1    3    3    0    0 -0.55979672914E+02  0.21481569984E+02 -0.18997168640E+02  0.62905278355E+02  0.10000000000E+01 0.  0.
         21    1    1    2  502  501 -0.86742656732E+01 -0.18692301571E+02 -0.74798307706E+02  0.77584997639E+02  0.00000000000E+00 0.  1.
<mgrwt>
<rscale>  1 0.12669798E+03</rscale>
<asrwt>0</asrwt>
<pdfrwt beam="2">  1        4 0.27755480E-01 0.12669798E+03</pdfrwt>
<pdfrwt beam="1">  1       -4 0.61384185E-02 0.12669798E+03</pdfrwt>
<totfact> 0.33947256E+03</totfact>
</mgrwt>
</event>
<event>
 6    4  0.1195577E-003  0.1268529E+03  0.7818608E-02  0.1232202E+00
          4   -1    0    0  502    0  0.00000000000E+00  0.00000000000E+00  0.76470374763E+01  0.77517792902E+01  0.12700000000E+01 0.  1.
         -4   -1    0    0    0  501 -0.00000000000E+00 -0.00000000000E+00 -0.79826212450E+03  0.79826313476E+03  0.12700000000E+01 0.  1.
         25    2    1    2    0    0  0.90441883868E+01  0.19606763583E+02 -0.74275529148E+03  0.75350984238E+03  0.12500174804E+03 0.  0.
    9000005    1    3    3    0    0 -0.32871362832E+02 -0.40044539320E+02 -0.37833572285E+03  0.38186779232E+03  0.10000000000E+01 0.  0.
    9000005    1    3    3    0    0  0.41915551218E+02  0.59651302903E+02 -0.36441956863E+03  0.37164205006E+03  0.10000000000E+01 0.  0.
         21    1    1    2  502  501 -0.90441883868E+01 -0.19606763583E+02 -0.47859795546E+02  0.52505071673E+02  0.00000000000E+00 0.  1.
<mgrwt>
<rscale>  1 0.12685291E+03</rscale>
<asrwt>0</asrwt>
<pdfrwt beam="1">  1        4 0.11846027E-02 0.12685291E+03</pdfrwt>
<pdfrwt beam="2">  1       -4 0.12281763E+00 0.12685291E+03</pdfrwt>
<totfact> 0.19369247E+03</totfact>
</mgrwt>
</event>
<event>
 6    4  0.1195577E-003  0.1270043E+03  0.7818608E-02  0.1231970E+00
         -4   -1    0    0    0  501 -0.00000000000E+00  0.00000000000E+00  0.11039685731E+03  0.11040416207E+03  0.12700000000E+01 0.  1.
          4   -1    0    0  502    0  0.00000000000E+00 -0.00000000000E+00 -0.50673910033E+02  0.50689822036E+02  0.12700000000E+01 0.  1.
         25    2    1    2    0    0 -0.36700494715E+01 -0.22161049204E+02  0.48151506987E+02  0.13582583033E+03  0.12500202877E+03 0.  0.
    9000005    1    3    3    0    0 -0.52974832426E+02 -0.47422813076E+02  0.32944064691E+02  0.78368153411E+02  0.10000000000E+01 0.  0.
    9000005    1    3    3    0    0  0.49304782954E+02  0.25261763872E+02  0.15207442295E+02  0.57457676922E+02  0.10000000000E+01 0.  0.
         21    1    1    2  502  501  0.36700494715E+01  0.22161049204E+02  0.11571440286E+02  0.25268153776E+02  0.00000000000E+00 0.  1.
<mgrwt>
<rscale>  1 0.12700429E+03</rscale>
<asrwt>0</asrwt>
<pdfrwt beam="2">  1        4 0.77977721E-02 0.12700429E+03</pdfrwt>
<pdfrwt beam="1">  1       -4 0.16985918E-01 0.12700429E+03</pdfrwt>
<totfact> 0.55941898E+03</totfact>
</mgrwt>
</event>
<event>
 6    4  0.1195577E-003  0.1346699E+03  0.7818608E-02  0.1220686E+00
          4   -1    0    0  502    0  0.00000000000E+00  0.00000000000E+00  0.15228820478E+04  0.15228825774E+04  0.12700000000E+01 0. -1.
         -4   -1    0    0    0  501 -0.00000000000E+00 -0.00000000000E+00 -0.71559529315E+01  0.72677756128E+01  0.12700000000E+01 0. -1.
         25    2    1    2    0    0  0.49303869582E+02  0.89102758873E+01  0.69688743915E+03  0.70978030923E+03  0.12500287975E+03 0.  0.
    9000005    1    3    3    0    0  0.18525573510E+02 -0.55251041501E+02  0.21900743969E+03  0.22662994749E+03  0.10000000000E+01 0.  0.
    9000005    1    3    3    0    0  0.30778296072E+02  0.64161317389E+02  0.47787999946E+03  0.48315036174E+03  0.10000000000E+01 0.  0.
         21    1    1    2  502  501 -0.49303869582E+02 -0.89102758873E+01  0.81883865574E+03  0.82037004376E+03  0.00000000000E+00 0. -1.
<mgrwt>
<rscale>  1 0.13466991E+03</rscale>
<asrwt>0</asrwt>
<pdfrwt beam="1">  1        4 0.23429850E+00 0.13466991E+03</pdfrwt>
<pdfrwt beam="2">  1       -4 0.11095568E-02 0.13466991E+03</pdfrwt>
<totfact> 0.37940827E+02</totfact>
</mgrwt>
</event>
<event>
 6    4  0.1195577E-003  0.1294968E+03  0.7818608E-02  0.1228204E+00
         -4   -1    0    0    0  501 -0.00000000000E+00  0.00000000000E+00  0.58518597035E+03  0.58518734846E+03  0.12700000000E+01 0.  1.
          4   -1    0    0  502    0  0.00000000000E+00 -0.00000000000E+00 -0.17639433384E+02  0.17685092878E+02  0.12700000000E+01 0.  1.
         25    2    1    2    0    0 -0.17342071832E+02 -0.29049692280E+02  0.54945063115E+03  0.56450456566E+03  0.12499910598E+03 0.  0.
    9000005    1    3    3    0    0  0.22270585257E+02  0.15792912048E+02  0.26232062837E+02  0.37875007054E+02  0.10000000000E+01 0.  0.
    9000005    1    3    3    0    0 -0.39612657089E+02 -0.44842604327E+02  0.52321856831E+03  0.52662955860E+03  0.10000000000E+01 0.  0.
         21    1    1    2  502  501  0.17342071832E+02  0.29049692280E+02  0.18095905816E+02  0.38367875681E+02  0.00000000000E+00 0.  1.
<mgrwt>
<rscale>  1 0.12949675E+03</rscale>
<asrwt>0</asrwt>
<pdfrwt beam="2">  1        4 0.27173774E-02 0.12949675E+03</pdfrwt>
<pdfrwt beam="1">  1       -4 0.90032224E-01 0.12949675E+03</pdfrwt>
<totfact> 0.11242755E+03</totfact>
</mgrwt>
</event>
<event>
 6    4  0.1195577E-003  0.1284577E+03  0.7818608E-02  0.1229762E+00
         -4   -1    0    0    0  501 -0.00000000000E+00  0.00000000000E+00  0.29861394086E+02  0.29888388327E+02  0.12700000000E+01 0. -1.
          4   -1    0    0  502    0  0.00000000000E+00 -0.00000000000E+00 -0.63933553261E+03  0.63933679400E+03  0.12700000000E+01 0. -1.
         25    2    1    2    0    0  0.81901958211E+01 -0.28452130483E+02 -0.11070729431E+03  0.16958034053E+03  0.12499913538E+03 0.  0.
    9000005    1    3    3    0    0  0.32789161250E+02  0.49630765522E+00  0.16567069443E+02  0.36753818940E+02  0.10000000000E+01 0.  0.
    9000005    1    3    3    0    0 -0.24598965429E+02 -0.28948438138E+02 -0.12727436375E+03  0.13282652159E+03  0.10000000000E+01 0.  0.
         21    1    1    2  502  501 -0.81901958211E+01  0.28452130483E+02 -0.49876684422E+03  0.49964484180E+03  0.00000000000E+00 0. -1.
<mgrwt>
<rscale>  1 0.12845772E+03</rscale>
<asrwt>0</asrwt>
<pdfrwt beam="2">  1        4 0.98361476E-01 0.12845772E+03</pdfrwt>
<pdfrwt beam="1">  1       -4 0.45962346E-02 0.12845772E+03</pdfrwt>
<totfact> 0.40051032E+02</totfact>
</mgrwt>
</event>
<event>
 6    4  0.1195577E-003  0.1293213E+03  0.7818608E-02  0.1228466E+00
         -4   -1    0    0    0  501 -0.00000000000E+00  0.00000000000E+00  0.22736892468E+03  0.22737247153E+03  0.12700000000E+01 0. -1.
          4   -1    0    0  502    0  0.00000000000E+00 -0.00000000000E+00 -0.29181607006E+02  0.29209229491E+02  0.12700000000E+01 0. -1.
         25    2    1    2    0    0  0.22942143589E+02  0.23924472559E+02  0.14935990267E+03  0.19756612006E+03  0.12500107572E+03 0.  0.
    9000005    1    3    3    0    0 -0.56802829126E+01  0.68676447413E+02  0.50870881964E+02  0.85659597682E+02  0.10000000000E+01 0.  0.
    9000005    1    3    3    0    0  0.28622426502E+02 -0.44751974854E+02  0.98489020703E+02  0.11190652238E+03  0.10000000000E+01 0.  0.
         21    1    1    2  502  501 -0.22942143589E+02 -0.23924472559E+02  0.48827415009E+02  0.59015580960E+02  0.00000000000E+00 0. -1.
<mgrwt>
<rscale>  1 0.12932127E+03</rscale>
<asrwt>0</asrwt>
<pdfrwt beam="2">  1        4 0.44918755E-02 0.12932127E+03</pdfrwt>
<pdfrwt beam="1">  1       -4 0.34982233E-01 0.12932127E+03</pdfrwt>
<totfact> 0.36367190E+03</totfact>
</mgrwt>
</event>
<event>
 6    4  0.1195577E-003  0.1298822E+03  0.7818608E-02  0.1227631E+00
          4   -1    0    0  502    0  0.00000000000E+00  0.00000000000E+00  0.20767563747E+03  0.20767952065E+03  0.12700000000E+01 0. -1.
         -4   -1    0    0    0  501 -0.00000000000E+00 -0.00000000000E+00 -0.33800684826E+02  0.33824535395E+02  0.12700000000E+01 0. -1.
         25    2    1    2    0    0 -0.18899042619E+02  0.29774418568E+02  0.15230145014E+03  0.20016272294E+03  0.12500277647E+03 0.  0.
    9000005    1    3    3    0    0  0.36078316930E+02  0.13494235103E+01  0.38466820781E+00  0.36119438893E+02  0.10000000000E+01 0.  0.
    9000005    1    3    3    0    0 -0.54977359549E+02  0.28424995057E+02  0.15191678194E+03  0.16404328405E+03  0.10000000000E+01 0.  0.
         21    1    1    2  502  501  0.18899042619E+02 -0.29774418568E+02  0.21573502499E+02  0.41341333106E+02  0.00000000000E+00 0.  1.
<mgrwt>
<rscale>  1 0.12988219E+03</rscale>
<asrwt>0</asrwt>
<pdfrwt beam="1">  1        4 0.31952231E-01 0.12988219E+03</pdfrwt>
<pdfrwt beam="2">  1       -4 0.52022388E-02 0.12988219E+03</pdfrwt>
<totfact> 0.34224098E+03</totfact>
</mgrwt>
</event>
<event>
 6    4  0.1195577E-003  0.1270449E+03  0.7818608E-02  0.1231908E+00
          4   -1    0    0  502    0  0.00000000000E+00  0.00000000000E+00  0.90180850382E+01  0.91070718541E+01  0.12700000000E+01 0. -1.
         -4   -1    0    0    0  501 -0.00000000000E+00 -0.00000000000E+00 -0.62932606445E+03  0.62932734590E+03  0.12700000000E+01 0. -1.
         25    2    1    2    0    0  0.44762410194E+01 -0.22285993644E+02 -0.55247148391E+03  0.56689077814E+03  0.12499484616E+03 0.  0.
    9000005    1    3    3    0    0 -0.40070941122E+02  0.31218211831E+02 -0.14819692652E+03  0.15666392726E+03  0.10000000000E+01 0.  0.
    9000005    1    3    3    0    0  0.44547182142E+02 -0.53504205475E+02 -0.40427455739E+03  0.41022685089E+03  0.10000000000E+01 0.  0.
         21    1    1    2  502  501 -0.44762410194E+01  0.22285993644E+02 -0.67836495507E+02  0.71543639613E+02  0.00000000000E+00 0. -1.
<mgrwt>
<rscale>  1 0.12704493E+03</rscale>
<asrwt>0</asrwt>
<pdfrwt beam="1">  1        4 0.13943419E-02 0.12704493E+03</pdfrwt>
<pdfrwt beam="2">  1       -4 0.96826303E-01 0.12704493E+03</pdfrwt>
<totfact> 0.26467931E+03</totfact>
</mgrwt>
</event>
<event>
 6    4  0.1195577E-003  0.1267326E+03  0.7818608E-02  0.1232386E+00
          4   -1    0    0  502    0  0.00000000000E+00  0.00000000000E+00  0.11092639206E+02  0.11165103876E+02  0.12700000000E+01 0.  1.
         -4   -1    0    0    0  501 -0.00000000000E+00 -0.00000000000E+00 -0.49558522403E+03  0.49558685130E+03  0.12700000000E+01 0.  1.
         25    2    1    2    0    0  0.88448055062E+01  0.18924995133E+02 -0.43353247893E+03  0.45167638511E+03  0.12499904220E+03 0.  0.
    9000005    1    3    3    0    0 -0.30512715092E+02 -0.37872190167E+02 -0.26664517188E+03  0.27104607774E+03  0.10000000000E+01 0.  0.
    9000005    1    3    3    0    0  0.39357520598E+02  0.56797185301E+02 -0.16688730705E+03  0.18063030737E+03  0.10000000000E+01 0.  0.
         21    1    1    2  502  501 -0.88448055062E+01 -0.18924995133E+02 -0.50960105896E+02  0.55075570067E+02  0.00000000000E+00 0. -1.
<mgrwt>
<rscale>  1 0.12673258E+03</rscale>
<asrwt>0</asrwt>
<pdfrwt beam="1">  1        4 0.17122596E-02 0.12673258E+03</pdfrwt>
<pdfrwt beam="2">  1       -4 0.76249563E-01 0.12673258E+03</pdfrwt>
<totfact> 0.33008512E+03</totfact>
</mgrwt>
</event>
<event>
 6    4  0.1195577E-003  0.1268611E+03  0.7818608E-02  0.1232189E+00
         -4   -1    0    0    0  501 -0.00000000000E+00  0.00000000000E+00  0.45921797409E+02  0.45939355429E+02  0.12700000000E+01 0.  1.
          4   -1    0    0  502    0  0.00000000000E+00 -0.00000000000E+00 -0.12015319874E+03  0.12015991041E+03  0.12700000000E+01 0.  1.
         25    2    1    2    0    0 -0.99305822952E+01 -0.19321055502E+02 -0.63815366062E+02  0.14200749460E+03  0.12498723105E+03 0.  0.
    9000005    1    3    3    0    0  0.91325010419E+01  0.39075873404E+02  0.14312433392E+02  0.42616571978E+02  0.10000000000E+01 0.  0.
    9000005    1    3    3    0    0 -0.19063083337E+02 -0.58396928905E+02 -0.78127799455E+02  0.99390922621E+02  0.10000000000E+01 0.  0.
         21    1    1    2  502  501  0.99305822952E+01  0.19321055502E+02 -0.10416035274E+02  0.24091771235E+02  0.00000000000E+00 0.  1.
<mgrwt>
<rscale>  1 0.12686106E+03</rscale>
<asrwt>0</asrwt>
<pdfrwt beam="2">  1        4 0.18486974E-01 0.12686106E+03</pdfrwt>
<pdfrwt beam="1">  1       -4 0.70667589E-02 0.12686106E+03</pdfrwt>
<totfact> 0.56593932E+03</totfact>
</mgrwt>
</event>
<event>
 6    4  0.1195577E-003  0.1271785E+03  0.7818608E-02  0.1231703E+00
          4   -1    0    0  502    0  0.00000000000E+00  0.00000000000E+00  0.24832652760E+03  0.24832977512E+03  0.12700000000E+01 0.  1.
         -4   -1    0    0    0  501 -0.00000000000E+00 -0.00000000000E+00 -0.22862714365E+02  0.22897960786E+02  0.12700000000E+01 0.  1.
         25    2    1    2    0    0 -0.94241781208E+01  0.21474688218E+02  0.19440688741E+03  0.23231102986E+03  0.12499759740E+03 0.  0.
    9000005    1    3    3    0    0 -0.42492356371E+02 -0.54817752765E+01  0.18325985325E+03  0.18820420831E+03  0.10000000000E+01 0.  0.
    9000005    1    3    3    0    0  0.33068178251E+02  0.26956463495E+02  0.11147034151E+02  0.44106821551E+02  0.10000000000E+01 0.  0.
         21    1    1    2  502  501  0.94241781208E+01 -0.21474688218E+02  0.31056925828E+02  0.38916706043E+02  0.00000000000E+00 0.  1.
<mgrwt>
<rscale>  1 0.12717852E+03</rscale>
<asrwt>0</asrwt>
<pdfrwt beam="1">  1        4 0.38207044E-01 0.12717852E+03</pdfrwt>
<pdfrwt beam="2">  1       -4 0.35203016E-02 0.12717852E+03</pdfrwt>
<totfact> 0.44927375E+03</totfact>
</mgrwt>
</event>
<event>
 6    4  0.1195577E-003  0.1278246E+03  0.7818608E-02  0.1230720E+00
         -4   -1    0    0    0  501 -0.00000000000E+00  0.00000000000E+00  0.14442914078E+02  0.14498643629E+02  0.12700000000E+01 0. -1.
          4   -1    0    0  502    0  0.00000000000E+00 -0.00000000000E+00 -0.41253582875E+03  0.41253778361E+03  0.12700000000E+01 0. -1.
         25    2    1    2    0    0  0.48532748060E+01 -0.26267975399E+02 -0.32995148264E+03  0.35384615762E+03  0.12500224620E+03 0.  0.
    9000005    1    3    3    0    0  0.18663811769E+02  0.48332278376E+02 -0.12613289148E+03  0.13636294700E+03  0.10000000000E+01 0.  0.
    9000005    1    3    3    0    0 -0.13810536963E+02 -0.74600253774E+02 -0.20381859117E+03  0.21748321061E+03  0.10000000000E+01 0.  0.
         21    1    1    2  502  501 -0.48532748060E+01  0.26267975399E+02 -0.68141432031E+02  0.73190269621E+02  0.00000000000E+00 0. -1.
<mgrwt>
<rscale>  1 0.12782458E+03</rscale>
<asrwt>0</asrwt>
<pdfrwt beam="2">  1        4 0.63471479E-01 0.12782458E+03</pdfrwt>
<pdfrwt beam="1">  1       -4 0.22264244E-02 0.12782458E+03</pdfrwt>
<totfact> 0.32786813E+03</totfact>
</mgrwt>
</event>
<event>
 6    4  0.1195577E-003  0.1332849E+03  0.7818608E-02  0.1222661E+00
         -4   -1    0    0    0  501 -0.00000000000E+00  0.00000000000E+00  0.56963842855E+02  0.56977998322E+02  0.12700000000E+01 0. -1.
          4   -1    0    0  502    0  0.00000000000E+00 -0.00000000000E+00 -0.14809916981E+03  0.14810461505E+03  0.12700000000E+01 0. -1.
         25    2    1    2    0    0  0.34648735803E+02  0.30670480226E+02 -0.47544943271E+02  0.14151111976E+03  0.12499464843E+03 0.  0.
    9000005    1    3    3    0    0  0.28080952168E+02 -0.44980778581E+02 -0.22435197264E+01  0.53083365541E+02  0.10000000000E+01 0.  0.
    9000005    1    3    3    0    0  0.65677836356E+01  0.75651258807E+02 -0.45301423545E+02  0.88427754219E+02  0.10000000000E+01 0.  0.
         21    1    1    2  502  501 -0.34648735803E+02 -0.30670480226E+02 -0.43590383685E+02  0.63571493610E+02  0.00000000000E+00 0. -1.
<mgrwt>
<rscale>  1 0.13328494E+03</rscale>
<asrwt>0</asrwt>
<pdfrwt beam="2">  1        4 0.22785995E-01 0.13328494E+03</pdfrwt>
<pdfrwt beam="1">  1       -4 0.87651759E-02 0.13328494E+03</pdfrwt>
<totfact> 0.27522442E+03</totfact>
</mgrwt>
</event>
<event>
 6    4  0.1195577E-003  0.1266874E+03  0.7818608E-02  0.1232456E+00
          4   -1    0    0  502    0  0.00000000000E+00  0.00000000000E+00  0.56739541818E+03  0.56739683949E+03  0.12700000000E+01 0.  1.
         -4   -1    0    0    0  501 -0.00000000000E+00 -0.00000000000E+00 -0.95655467659E+01  0.96494862522E+01  0.12700000000E+01 0.  1.
         25    2    1    2    0    0  0.12136847466E+02  0.16624374378E+02  0.46389816956E+03  0.48088584788E+03  0.12500405628E+03 0.  0.
    9000005    1    3    3    0    0  0.45167853192E+02 -0.26001669317E+02  0.36066203128E+03  0.36440955336E+03  0.10000000000E+01 0.  0.
    9000005    1    3    3    0    0 -0.33031005727E+02  0.42626043695E+02  0.10323613827E+03  0.11647629452E+03  0.10000000000E+01 0.  0.
         21    1    1    2  502  501 -0.12136847466E+02 -0.16624374378E+02  0.93931701856E+02  0.96160477866E+02  0.00000000000E+00 0. -1.
<mgrwt>
<rscale>  1 0.12668736E+03</rscale>
<asrwt>0</asrwt>
<pdfrwt beam="1">  1        4 0.87298183E-01 0.12668736E+03</pdfrwt>
<pdfrwt beam="2">  1       -4 0.14781886E-02 0.12668736E+03</pdfrwt>
<totfact> 0.30605999E+03</totfact>
</mgrwt>
</event>
<event>
 6    4  0.1195577E-003  0.1273241E+03  0.7818608E-02  0.1231481E+00
          4   -1    0    0  502    0  0.00000000000E+00  0.00000000000E+00  0.10608066974E+03  0.10608827170E+03  0.12700000000E+01 0.  1.
         -4   -1    0    0    0  501 -0.00000000000E+00 -0.00000000000E+00 -0.80110433383E+02  0.80120499479E+02  0.12700000000E+01 0.  1.
         25    2    1    2    0    0 -0.59045104739E+00  0.24163594961E+02 -0.25038844295E+02  0.12976274153E+03  0.12500878934E+03 0.  0.
    9000005    1    3    3    0    0  0.25737088736E+02  0.61704574103E+02 -0.44097968073E+02  0.80096710232E+02  0.10000000000E+01 0.  0.
    9000005    1    3    3    0    0 -0.26327539783E+02 -0.37540979142E+02  0.19059123777E+02  0.49666031300E+02  0.10000000000E+01 0.  0.
         21    1    1    2  502  501  0.59045104739E+00 -0.24163594961E+02  0.51009080651E+02  0.56446029646E+02  0.00000000000E+00 0.  1.
<mgrwt>
<rscale>  1 0.12732410E+03</rscale>
<asrwt>0</asrwt>
<pdfrwt beam="1">  1        4 0.16321462E-01 0.12732410E+03</pdfrwt>
<pdfrwt beam="2">  1       -4 0.12326041E-01 0.12732410E+03</pdfrwt>
<totfact> 0.27820400E+03</totfact>
</mgrwt>
</event>
<event>
 6    4  0.1195577E-003  0.1275146E+03  0.7818608E-02  0.1231191E+00
          4   -1    0    0  502    0  0.00000000000E+00  0.00000000000E+00  0.30925815595E+02  0.30951881529E+02  0.12700000000E+01 0.  1.
         -4   -1    0    0    0  501 -0.00000000000E+00 -0.00000000000E+00 -0.54780435141E+03  0.54780582356E+03  0.12700000000E+01 0.  1.
         25    2    1    2    0    0  0.83678029883E+01  0.23763854778E+02 -0.53353109993E+03  0.54855755919E+03  0.12500088094E+03 0.  0.
    9000005    1    3    3    0    0 -0.73835316803E+01 -0.43024984806E+02 -0.93338060072E+02  0.10304687921E+03  0.10000000000E+01 0.  0.
    9000005    1    3    3    0    0  0.15751334669E+02  0.66788839584E+02 -0.44019303986E+03  0.44551067998E+03  0.10000000000E+01 0.  0.
         21    1    1    2  502  501 -0.83678029883E+01 -0.23763854778E+02  0.16652564110E+02  0.30200145898E+02  0.00000000000E+00 0.  1.
<mgrwt>
<rscale>  1 0.12751455E+03</rscale>
<asrwt>0</asrwt>
<pdfrwt beam="1">  1        4 0.47599365E-02 0.12751455E+03</pdfrwt>
<pdfrwt beam="2">  1       -4 0.84279704E-01 0.12751455E+03</pdfrwt>
<totfact> 0.53636117E+02</totfact>
</mgrwt>
</event>
<event>
 6    4  0.1195577E-003  0.1272020E+03  0.7818608E-02  0.1231668E+00
          4   -1    0    0  502    0  0.00000000000E+00  0.00000000000E+00  0.60516301209E+02  0.60529625903E+02  0.12700000000E+01 0. -1.
         -4   -1    0    0    0  501 -0.00000000000E+00 -0.00000000000E+00 -0.14773300203E+03  0.14773846076E+03  0.12700000000E+01 0. -1.
         25    2    1    2    0    0 -0.23436859346E+02  0.23905091159E+01 -0.11525183623E+03  0.17164883316E+03  0.12500134104E+03 0.  0.
    9000005    1    3    3    0    0  0.33877608814E+02  0.44577492282E+02 -0.52593258781E+02  0.76823798828E+02  0.10000000000E+01 0.  0.
    9000005    1    3    3    0    0 -0.57314468159E+02 -0.42186983167E+02 -0.62658577447E+02  0.94825034336E+02  0.10000000000E+01 0.  0.
         21    1    1    2  502  501  0.23436859346E+02 -0.23905091159E+01  0.28035135407E+02  0.36619253503E+02  0.00000000000E+00 0. -1.
<mgrwt>
<rscale>  1 0.12720195E+03</rscale>
<asrwt>0</asrwt>
<pdfrwt beam="1">  1        4 0.93116451E-02 0.12720195E+03</pdfrwt>
<pdfrwt beam="2">  1       -4 0.22729599E-01 0.12720195E+03</pdfrwt>
<totfact> 0.24716282E+03</totfact>
</mgrwt>
</event>
<event>
 6    4  0.1195577E-003  0.1352787E+03  0.7818608E-02  0.1219827E+00
         -4   -1    0    0    0  501 -0.00000000000E+00  0.00000000000E+00  0.37842061909E+02  0.37863366855E+02  0.12700000000E+01 0. -1.
          4   -1    0    0  502    0  0.00000000000E+00 -0.00000000000E+00 -0.31346177100E+03  0.31346434371E+03  0.12700000000E+01 0. -1.
         25    2    1    2    0    0  0.17399022884E+02  0.48731405000E+02 -0.99954386055E+02  0.16819993674E+03  0.12499145409E+03 0.  0.
    9000005    1    3    3    0    0  0.45592665369E+02  0.62756257822E+02 -0.16934195829E+02  0.79402808638E+02  0.10000000000E+01 0.  0.
    9000005    1    3    3    0    0 -0.28193642484E+02 -0.14024852822E+02 -0.83020190226E+02  0.88797128098E+02  0.10000000000E+01 0.  0.
         21    1    1    2  502  501 -0.17399022884E+02 -0.48731405000E+02 -0.17566532303E+03  0.18312777383E+03  0.00000000000E+00 0. -1.
<mgrwt>
<rscale>  1 0.13527875E+03</rscale>
<asrwt>0</asrwt>
<pdfrwt beam="2">  1        4 0.48226723E-01 0.13527875E+03</pdfrwt>
<pdfrwt beam="1">  1       -4 0.58236926E-02 0.13527875E+03</pdfrwt>
<totfact> 0.12832538E+03</totfact>
</mgrwt>
</event>
<event>
 6    4  0.1195577E-003  0.1269053E+03  0.7818608E-02  0.1232121E+00
         -4   -1    0    0    0  501 -0.00000000000E+00  0.00000000000E+00  0.50120903649E+03  0.50121064550E+03  0.12700000000E+01 0. -1.
          4   -1    0    0  502    0  0.00000000000E+00 -0.00000000000E+00 -0.23676394377E+02  0.23710431264E+02  0.12700000000E+01 0. -1.
         25    2    1    2    0    0 -0.65547806943E+01  0.20908392612E+02  0.48534214485E+03  0.50165921173E+03  0.12499936445E+03 0.  0.
    9000005    1    3    3    0    0  0.44668907890E+02  0.46961873696E+02  0.32306347523E+03  0.32950225786E+03  0.10000000000E+01 0.  0.
    9000005    1    3    3    0    0 -0.51223688584E+02 -0.26053481084E+02  0.16227866963E+03  0.17215695387E+03  0.10000000000E+01 0.  0.
         21    1    1    2  502  501  0.65547806943E+01 -0.20908392612E+02 -0.78095027403E+01  0.23261865029E+02  0.00000000000E+00 0. -1.
<mgrwt>
<rscale>  1 0.12690535E+03</rscale>
<asrwt>0</asrwt>
<pdfrwt beam="2">  1        4 0.36452642E-02 0.12690535E+03</pdfrwt>
<pdfrwt beam="1">  1       -4 0.77111825E-01 0.12690535E+03</pdfrwt>
<totfact> 0.99666846E+02</totfact>
</mgrwt>
</event>
<event>
 6    4  0.1195577E-003  0.1277440E+03  0.7818608E-02  0.1230842E+00
         -4   -1    0    0    0  501 -0.00000000000E+00  0.00000000000E+00  0.40520728969E+02  0.40540626243E+02  0.12700000000E+01 0. -1.
          4   -1    0    0  502    0  0.00000000000E+00 -0.00000000000E+00 -0.14646165545E+03  0.14646716157E+03  0.12700000000E+01 0. -1.
         25    2    1    2    0    0  0.70512925066E+01  0.25384411726E+02 -0.88824902027E+02  0.15559047765E+03  0.12499777770E+03 0.  0.
    9000005    1    3    3    0    0 -0.31389841524E+02  0.65104130624E+02 -0.46265406057E+02  0.85821662608E+02  0.10000000000E+01 0.  0.
    9000005    1    3    3    0    0  0.38441134030E+02 -0.39719718898E+02 -0.42559495970E+02  0.69768815040E+02  0.10000000000E+01 0.  0.
         21    1    1    2  502  501 -0.70512925066E+01 -0.25384411726E+02 -0.17116024455E+02  0.31417310163E+02  0.00000000000E+00 0. -1.
<mgrwt>
<rscale>  1 0.12774402E+03</rscale>
<asrwt>0</asrwt>
<pdfrwt beam="2">  1        4 0.22534516E-01 0.12774402E+03</pdfrwt>
<pdfrwt beam="1">  1       -4 0.62359125E-02 0.12774402E+03</pdfrwt>
<totfact> 0.48690023E+03</totfact>
</mgrwt>
</event>
<event>
 6    4  0.1195577E-003  0.1276342E+03  0.7818608E-02  0.1231009E+00
         -4   -1    0    0    0  501 -0.00000000000E+00  0.00000000000E+00  0.11551700149E+03  0.11552398250E+03  0.12700000000E+01 0. -1.
          4   -1    0    0  502    0  0.00000000000E+00 -0.00000000000E+00 -0.51018217158E+02  0.51034021809E+02  0.12700000000E+01 0. -1.
         25    2    1    2    0    0 -0.25680712391E+02 -0.24996019068E+01  0.56145044729E+02  0.13943731177E+03  0.12499900347E+03 0.  0.
    9000005    1    3    3    0    0  0.97024638836E+01 -0.27790069697E+00 -0.37790099280E+02  0.39029561076E+02  0.10000000000E+01 0.  0.
    9000005    1    3    3    0    0 -0.35383176275E+02 -0.22217012099E+01  0.93935144009E+02  0.10040775069E+03  0.10000000000E+01 0.  0.
         21    1    1    2  502  501  0.25680712391E+02  0.24996019068E+01  0.83537396051E+01  0.27120692543E+02  0.00000000000E+00 0. -1.
<mgrwt>
<rscale>  1 0.12763423E+03</rscale>
<asrwt>0</asrwt>
<pdfrwt beam="2">  1        4 0.78507093E-02 0.12763423E+03</pdfrwt>
<pdfrwt beam="1">  1       -4 0.17773599E-01 0.12763423E+03</pdfrwt>
<totfact> 0.51120824E+03</totfact>
</mgrwt>
</event>
<event>
 6    4  0.1195577E-003  0.1408026E+03  0.7818608E-02  0.1212253E+00
         -4   -1    0    0    0  501 -0.00000000000E+00  0.00000000000E+00  0.10980552835E+03  0.10981287245E+03  0.12700000000E+01 0.  1.
          4   -1    0    0  502    0  0.00000000000E+00 -0.00000000000E+00 -0.17566031372E+03  0.17566490463E+03  0.12700000000E+01 0.  1.
         25    2    1    2    0    0 -0.48076523982E+02 -0.43470718971E+02  0.52716395751E+02  0.15034754153E+03  0.12499723716E+03 0.  0.
    9000005    1    3    3    0    0 -0.24664194599E+02 -0.38641202348E+02  0.92888962135E+02  0.10358969206E+03  0.10000000000E+01 0.  0.
    9000005    1    3    3    0    0 -0.23412329383E+02 -0.48295166230E+01 -0.40172566383E+02  0.46757849478E+02  0.10000000000E+01 0.  0.
         21    1    1    2  502  501  0.48076523982E+02  0.43470718971E+02 -0.11857118112E+03  0.13513023555E+03  0.00000000000E+00 0.  1.
<mgrwt>
<rscale>  1 0.14080257E+03</rscale>
<asrwt>0</asrwt>
<pdfrwt beam="2">  1        4 0.27025582E-01 0.14080257E+03</pdfrwt>
<pdfrwt beam="1">  1       -4 0.16894076E-01 0.14080257E+03</pdfrwt>
<totfact> 0.65977245E+02</totfact>
</mgrwt>
</event>
<event>
 6    4  0.1195577E-003  0.1272451E+03  0.7818608E-02  0.1231602E+00
         -4   -1    0    0    0  501 -0.00000000000E+00  0.00000000000E+00  0.15400040121E+03  0.15400563779E+03  0.12700000000E+01 0. -1.
          4   -1    0    0  502    0  0.00000000000E+00 -0.00000000000E+00 -0.46449762193E+02  0.46467120718E+02  0.12700000000E+01 0. -1.
         25    2    1    2    0    0 -0.53510132537E+01  0.23193649504E+02  0.11885660978E+03  0.17412121785E+03  0.12499890439E+03 0.  0.
    9000005    1    3    3    0    0  0.26851967738E+02  0.37565774379E+02  0.12932256567E+03  0.13732276420E+03  0.10000000000E+01 0.  0.
    9000005    1    3    3    0    0 -0.32202980992E+02 -0.14372124874E+02 -0.10465955894E+02  0.36798453649E+02  0.10000000000E+01 0.  0.
         21    1    1    2  502  501  0.53510132537E+01 -0.23193649504E+02 -0.11305970765E+02  0.26351540659E+02  0.00000000000E+00 0. -1.
<mgrwt>
<rscale>  1 0.12724506E+03</rscale>
<asrwt>0</asrwt>
<pdfrwt beam="2">  1        4 0.71478554E-02 0.12724506E+03</pdfrwt>
<pdfrwt beam="1">  1       -4 0.23694107E-01 0.12724506E+03</pdfrwt>
<totfact> 0.35508967E+03</totfact>
</mgrwt>
</event>
<event>
 6    4  0.1195577E-003  0.1313102E+03  0.7818608E-02  0.1225525E+00
          4   -1    0    0  502    0  0.00000000000E+00  0.00000000000E+00  0.40528885873E+02  0.40548779144E+02  0.12700000000E+01 0. -1.
         -4   -1    0    0    0  501 -0.00000000000E+00 -0.00000000000E+00 -0.28166840552E+03  0.28167126862E+03  0.12700000000E+01 0. -1.
         25    2    1    2    0    0  0.37397600069E+02  0.14768387804E+02 -0.24876610213E+03  0.28129511002E+03  0.12500271831E+03 0.  0.
    9000005    1    3    3    0    0  0.43765799662E+02 -0.23367152813E+02 -0.23509250636E+03  0.24027266926E+03  0.10000000000E+01 0.  0.
    9000005    1    3    3    0    0 -0.63681995935E+01  0.38135540617E+02 -0.13673595772E+02  0.41022440755E+02  0.10000000000E+01 0.  0.
         21    1    1    2  502  501 -0.37397600069E+02 -0.14768387804E+02  0.76265824822E+01  0.40924937747E+02  0.00000000000E+00 0. -1.
<mgrwt>
<rscale>  1 0.13131019E+03</rscale>
<asrwt>0</asrwt>
<pdfrwt beam="1">  1        4 0.62369639E-02 0.13131019E+03</pdfrwt>
<pdfrwt beam="2">  1       -4 0.43335350E-01 0.13131019E+03</pdfrwt>
<totfact> 0.14137764E+03</totfact>
</mgrwt>
</event>
<event>
 6    4  0.1195577E-003  0.1268355E+03  0.7818608E-02  0.1232228E+00
         -4   -1    0    0    0  501 -0.00000000000E+00  0.00000000000E+00  0.18312285951E+04  0.18312290355E+04  0.12700000000E+01 0.  1.
          4   -1    0    0  502    0  0.00000000000E+00 -0.00000000000E+00 -0.28865179151E+01  0.31535512798E+01  0.12700000000E+01 0.  1.
         25    2    1    2    0    0 -0.12251707464E+02  0.17666296832E+02  0.15117700316E+04  0.15170813696E+04  0.12500020447E+03 0.  0.
    9000005    1    3    3    0    0 -0.51504647950E+02 -0.18304703316E+01  0.12894634882E+04  0.12904933811E+04  0.10000000000E+01 0.  0.
    9000005    1    3    3    0    0  0.39252940486E+02  0.19496767163E+02  0.22230654347E+03  0.22658798851E+03  0.10000000000E+01 0.  0.
         21    1    1    2  502  501  0.12251707464E+02 -0.17666296832E+02  0.31657204556E+03  0.31730121715E+03  0.00000000000E+00 0. -1.
<mgrwt>
<rscale>  1 0.12683554E+03</rscale>
<asrwt>0</asrwt>
<pdfrwt beam="2">  1        4 0.46465461E-03 0.12683554E+03</pdfrwt>
<pdfrwt beam="1">  1       -4 0.28174804E+00 0.12683554E+03</pdfrwt>
<totfact> 0.73364156E+02</totfact>
</mgrwt>
</event>
<event>
 6    4  0.1195577E-003  0.1271883E+03  0.7818608E-02  0.1231688E+00
         -4   -1    0    0    0  501 -0.00000000000E+00  0.00000000000E+00  0.11000870990E+03  0.11001604044E+03  0.12700000000E+01 0.  1.
          4   -1    0    0  502    0  0.00000000000E+00 -0.00000000000E+00 -0.51708637506E+02  0.51724231196E+02  0.12700000000E+01 0.  1.
         25    2    1    2    0    0 -0.72115723412E+01 -0.22263354392E+02  0.52721785211E+02  0.13768240365E+03  0.12501677453E+03 0.  0.
    9000005    1    3    3    0    0 -0.43171351260E+02 -0.24801139741E+02 -0.22208047570E+02  0.54525768944E+02  0.10000000000E+01 0.  0.
    9000005    1    3    3    0    0  0.35959778918E+02  0.25377853492E+01  0.74929832781E+02  0.83156634701E+02  0.10000000000E+01 0.  0.
         21    1    1    2  502  501  0.72115723412E+01  0.22263354392E+02  0.55782871858E+01  0.24057867993E+02  0.00000000000E+00 0. -1.
<mgrwt>
<rscale>  1 0.12718828E+03</rscale>
<asrwt>0</asrwt>
<pdfrwt beam="2">  1        4 0.79569384E-02 0.12718828E+03</pdfrwt>
<pdfrwt beam="1">  1       -4 0.16926180E-01 0.12718828E+03</pdfrwt>
<totfact> 0.54462293E+03</totfact>
</mgrwt>
</event>
<event>
 6    4  0.1195577E-003  0.1299225E+03  0.7818608E-02  0.1227571E+00
          4   -1    0    0  502    0  0.00000000000E+00  0.00000000000E+00  0.27831617043E+02  0.27860578013E+02  0.12700000000E+01 0.  1.
         -4   -1    0    0    0  501 -0.00000000000E+00 -0.00000000000E+00 -0.26071649051E+03  0.26071958370E+03  0.12700000000E+01 0.  1.
         25    2    1    2    0    0 -0.21115282714E+02  0.28453856927E+02 -0.20814400700E+03  0.24536456717E+03  0.12499746411E+03 0.  0.
    9000005    1    3    3    0    0  0.95606017232E+01 -0.70451715710E+01  0.13960982531E+02  0.18356159211E+02  0.10000000000E+01 0.  0.
    9000005    1    3    3    0    0 -0.30675884437E+02  0.35499028498E+02 -0.22210498953E+03  0.22700840796E+03  0.10000000000E+01 0.  0.
         21    1    1    2  502  501  0.21115282714E+02 -0.28453856927E+02 -0.24740866472E+02  0.43215594546E+02  0.00000000000E+00 0.  1.
<mgrwt>
<rscale>  1 0.12992245E+03</rscale>
<asrwt>0</asrwt>
<pdfrwt beam="1">  1        4 0.42842531E-02 0.12992245E+03</pdfrwt>
<pdfrwt beam="2">  1       -4 0.40112693E-01 0.12992245E+03</pdfrwt>
<totfact> 0.30078310E+03</totfact>
</mgrwt>
</event>
<event>
 6    4  0.1195577E-003  0.1289299E+03  0.7818608E-02  0.1229052E+00
         -4   -1    0    0    0  501 -0.00000000000E+00  0.00000000000E+00  0.11404288257E+03  0.11404995381E+03  0.12700000000E+01 0.  1.
          4   -1    0    0  502    0  0.00000000000E+00 -0.00000000000E+00 -0.89857874666E+02  0.89866848946E+02  0.12700000000E+01 0.  1.
         25    2    1    2    0    0 -0.27127401473E+02  0.16076299704E+02  0.71217492870E+02  0.14729173794E+03  0.12501432499E+03 0.  0.
    9000005    1    3    3    0    0 -0.49688353048E+01  0.69935576385E+02  0.32027539193E+02  0.77087206690E+02  0.10000000000E+01 0.  0.
    9000005    1    3    3    0    0 -0.22158566169E+02 -0.53859276681E+02  0.39189953677E+02  0.70204531253E+02  0.10000000000E+01 0.  0.
         21    1    1    2  502  501  0.27127401473E+02 -0.16076299704E+02 -0.47032484968E+02  0.56625064814E+02  0.00000000000E+00 0.  1.
<mgrwt>
<rscale>  1 0.12892992E+03</rscale>
<asrwt>0</asrwt>
<pdfrwt beam="2">  1        4 0.13825523E-01 0.12892992E+03</pdfrwt>
<pdfrwt beam="1">  1       -4 0.17546293E-01 0.12892992E+03</pdfrwt>
<totfact> 0.20154111E+03</totfact>
</mgrwt>
</event>
<event>
 6    4  0.1195577E-003  0.1267625E+03  0.7818608E-02  0.1232340E+00
          4   -1    0    0  502    0  0.00000000000E+00  0.00000000000E+00  0.22124384027E+03  0.22124748531E+03  0.12700000000E+01 0. -1.
         -4   -1    0    0    0  501 -0.00000000000E+00 -0.00000000000E+00 -0.28826464113E+02  0.28854426580E+02  0.12700000000E+01 0. -1.
         25    2    1    2    0    0  0.65165259448E+01 -0.20050274362E+02  0.11954257857E+03  0.17423878029E+03  0.12499698339E+03 0.  0.
    9000005    1    3    3    0    0  0.50467912510E+02  0.12168636951E+02  0.11434498233E+02  0.53167975965E+02  0.10000000000E+01 0.  0.
    9000005    1    3    3    0    0 -0.43951386566E+02 -0.32218911312E+02  0.10810808033E+03  0.12107080433E+03  0.10000000000E+01 0.  0.
         21    1    1    2  502  501 -0.65165259448E+01  0.20050274362E+02  0.72874797589E+02  0.75863131599E+02  0.00000000000E+00 0. -1.
<mgrwt>
<rscale>  1 0.12676247E+03</rscale>
<asrwt>0</asrwt>
<pdfrwt beam="1">  1        4 0.34039947E-01 0.12676247E+03</pdfrwt>
<pdfrwt beam="2">  1       -4 0.44372718E-02 0.12676247E+03</pdfrwt>
<totfact> 0.38892442E+03</totfact>
</mgrwt>
</event>
<event>
 6    4  0.1195577E-003  0.1270689E+03  0.7818608E-02  0.1231871E+00
         -4   -1    0    0    0  501 -0.00000000000E+00  0.00000000000E+00  0.82561474908E+02  0.82571242203E+02  0.12700000000E+01 0. -1.
          4   -1    0    0  502    0  0.00000000000E+00 -0.00000000000E+00 -0.82313652801E+02  0.82323449499E+02  0.12700000000E+01 0. -1.
         25    2    1    2    0    0  0.13713898254E+02  0.18264209072E+02  0.26806736322E+02  0.12986572850E+03  0.12499941596E+03 0.  0.
    9000005    1    3    3    0    0  0.57396382234E+02  0.12737257141E+02  0.52541982316E+02  0.78855832497E+02  0.10000000000E+01 0.  0.
    9000005    1    3    3    0    0 -0.43682483980E+02  0.55269519315E+01 -0.25735245994E+02  0.51009896008E+02  0.10000000000E+01 0.  0.
         21    1    1    2  502  501 -0.13713898254E+02 -0.18264209072E+02 -0.26558914215E+02  0.35028963197E+02  0.00000000000E+00 0.  1.
<mgrwt>
<rscale>  1 0.12706890E+03</rscale>
<asrwt>0</asrwt>
<pdfrwt beam="2">  1        4 0.12665144E-01 0.12706890E+03</pdfrwt>
<pdfrwt beam="1">  1       -4 0.12703270E-01 0.12706890E+03</pdfrwt>
<totfact> 0.41022078E+03</totfact>
</mgrwt>
</event>
<event>
 6    4  0.1195577E-003  0.1267320E+03  0.7818608E-02  0.1232387E+00
          4   -1    0    0  502    0  0.00000000000E+00  0.00000000000E+00  0.44047335438E+03  0.44047518525E+03  0.12700000000E+01 0. -1.
         -4   -1    0    0    0  501 -0.00000000000E+00 -0.00000000000E+00 -0.13142707685E+02  0.13203926132E+02  0.12700000000E+01 0. -1.
         25    2    1    2    0    0 -0.52209613693E+01 -0.20216086068E+02  0.31707405917E+03  0.34146296429E+03  0.12500019365E+03 0.  0.
    9000005    1    3    3    0    0 -0.30026852328E+02 -0.56904615683E+01  0.31044294565E+03  0.31194521269E+03  0.10000000000E+01 0.  0.
    9000005    1    3    3    0    0  0.24805890959E+02 -0.14525624500E+02  0.66311135138E+01  0.29517751605E+02  0.10000000000E+01 0.  0.
         21    1    1    2  502  501  0.52209613693E+01  0.20216086068E+02  0.11025658753E+03  0.11221614709E+03  0.00000000000E+00 0. -1.
<mgrwt>
<rscale>  1 0.12673199E+03</rscale>
<asrwt>0</asrwt>
<pdfrwt beam="1">  1        4 0.67769982E-01 0.12673199E+03</pdfrwt>
<pdfrwt beam="2">  1       -4 0.20268050E-02 0.12673199E+03</pdfrwt>
<totfact> 0.32892434E+03</totfact>
</mgrwt>
</event>
<event>
 6    4  0.1195577E-003  0.1296933E+03  0.7818608E-02  0.1227911E+00
          4   -1    0    0  502    0  0.00000000000E+00  0.00000000000E+00  0.31232556625E+03  0.31232814832E+03  0.12700000000E+01 0. -1.
         -4   -1    0    0    0  501 -0.00000000000E+00 -0.00000000000E+00 -0.28471453342E+02  0.28499764129E+02  0.12700000000E+01 0. -1.
         25    2    1    2    0    0  0.34011043982E+02  0.61687655528E+01  0.13185835363E+03  0.18495130862E+03  0.12500222541E+03 0.  0.
    9000005    1    3    3    0    0 -0.42901281264E+02  0.24949320048E+02  0.61464460728E+02  0.79005496249E+02  0.10000000000E+01 0.  0.
    9000005    1    3    3    0    0  0.76912325246E+02 -0.18780554495E+02  0.70393892898E+02  0.10594581237E+03  0.10000000000E+01 0.  0.
         21    1    1    2  502  501 -0.34011043982E+02 -0.61687655528E+01  0.15199575929E+03  0.15587660383E+03  0.00000000000E+00 0. -1.
<mgrwt>
<rscale>  1 0.12969333E+03</rscale>
<asrwt>0</asrwt>
<pdfrwt beam="1">  1        4 0.48052460E-01 0.12969333E+03</pdfrwt>
<pdfrwt beam="2">  1       -4 0.43826003E-02 0.12969333E+03</pdfrwt>
<totfact> 0.20228448E+03</totfact>
</mgrwt>
</event>
<event>
 6    4  0.1195577E-003  0.1443580E+03  0.7818608E-02  0.1207582E+00
         -4   -1    0    0    0  501 -0.00000000000E+00  0.00000000000E+00  0.17196312586E+03  0.17196781547E+03  0.12700000000E+01 0.  1.
          4   -1    0    0  502    0  0.00000000000E+00 -0.00000000000E+00 -0.77116552644E+02  0.77127009482E+02  0.12700000000E+01 0.  1.
         25    2    1    2    0    0 -0.71053938899E+02 -0.12848496560E+02  0.10166925284E+03  0.17656693339E+03  0.12500199557E+03 0.  0.
    9000005    1    3    3    0    0 -0.18535794525E+02  0.15547403355E+02 -0.26058080591E+02  0.35571350746E+02  0.10000000000E+01 0.  0.
    9000005    1    3    3    0    0 -0.52518144373E+02 -0.28395899915E+02  0.12772733343E+03  0.14099558265E+03  0.10000000000E+01 0.  0.
         21    1    1    2  502  501  0.71053938899E+02  0.12848496560E+02 -0.68226796185E+01  0.72527891559E+02  0.00000000000E+00 0.  1.
<mgrwt>
<rscale>  1 0.14435804E+03</rscale>
<asrwt>0</asrwt>
<pdfrwt beam="2">  1        4 0.11865250E-01 0.14435804E+03</pdfrwt>
<pdfrwt beam="1">  1       -4 0.26457031E-01 0.14435804E+03</pdfrwt>
<totfact> 0.12752806E+03</totfact>
</mgrwt>
</event>
<event>
 6    4  0.1195577E-003  0.1284548E+03  0.7818608E-02  0.1229767E+00
         -4   -1    0    0    0  501 -0.00000000000E+00  0.00000000000E+00  0.43685682220E+03  0.43685866823E+03  0.12700000000E+01 0. -1.
          4   -1    0    0  502    0  0.00000000000E+00 -0.00000000000E+00 -0.19283387503E+02  0.19325163223E+02  0.12700000000E+01 0. -1.
         25    2    1    2    0    0  0.22260838541E+02 -0.19535429437E+02  0.40338406797E+03  0.42334306313E+03  0.12499385932E+03 0.  0.
    9000005    1    3    3    0    0  0.31266898829E+02 -0.64803220107E+02  0.32040574147E+03  0.32838683814E+03  0.10000000000E+01 0.  0.
    9000005    1    3    3    0    0 -0.90060602874E+01  0.45267790670E+02  0.82978326504E+02  0.94956224985E+02  0.10000000000E+01 0.  0.
         21    1    1    2  502  501 -0.22260838541E+02  0.19535429437E+02  0.14189366726E+02  0.32840768321E+02  0.00000000000E+00 0. -1.
<mgrwt>
<rscale>  1 0.12845483E+03</rscale>
<asrwt>0</asrwt>
<pdfrwt beam="2">  1        4 0.29700303E-02 0.12845483E+03</pdfrwt>
<pdfrwt beam="1">  1       -4 0.67212102E-01 0.12845483E+03</pdfrwt>
<totfact> 0.18567811E+03</totfact>
</mgrwt>
</event>
<event>
 6    4  0.1195577E-003  0.1268928E+03  0.7818608E-02  0.1232140E+00
          4   -1    0    0  502    0  0.00000000000E+00  0.00000000000E+00  0.11314744211E+03  0.11315456931E+03  0.12700000000E+01 0.  1.
         -4   -1    0    0    0  501 -0.00000000000E+00 -0.00000000000E+00 -0.50601665498E+02  0.50617600212E+02  0.12700000000E+01 0.  1.
         25    2    1    2    0    0  0.21813216358E+02 -0.13515270167E+01  0.41698137899E+02  0.13356841027E+03  0.12499656989E+03 0.  0.
    9000005    1    3    3    0    0  0.33733678586E+01  0.35382385371E+02 -0.32866320714E+02  0.48419911633E+02  0.10000000000E+01 0.  0.
    9000005    1    3    3    0    0  0.18439848499E+02 -0.36733912388E+02  0.74564458613E+02  0.85148498637E+02  0.10000000000E+01 0.  0.
         21    1    1    2  502  501 -0.21813216358E+02  0.13515270167E+01  0.20847638714E+02  0.30203759254E+02  0.00000000000E+00 0. -1.
<mgrwt>
<rscale>  1 0.12689281E+03</rscale>
<asrwt>0</asrwt>
<pdfrwt beam="1">  1        4 0.17409073E-01 0.12689281E+03</pdfrwt>
<pdfrwt beam="2">  1       -4 0.77866456E-02 0.12689281E+03</pdfrwt>
<totfact> 0.53675690E+03</totfact>
</mgrwt>
</event>
<event>
 6    4  0.1195577E-003  0.1531037E+03  0.7818608E-02  0.1196710E+00
          4   -1    0    0  502    0  0.00000000000E+00  0.00000000000E+00  0.31036132803E+03  0.31036392645E+03  0.12700000000E+01 0.  1.
         -4   -1    0    0    0  501 -0.00000000000E+00 -0.00000000000E+00 -0.16707253724E+03  0.16707736411E+03  0.12700000000E+01 0.  1.
         25    2    1    2    0    0 -0.88333071091E+02  0.35855938763E+01 -0.12329770958E+03  0.19657842346E+03  0.12500065379E+03 0.  0.
    9000005    1    3    3    0    0 -0.83134091178E+02 -0.46470111028E+02 -0.49751206163E+02  0.10745664637E+03  0.10000000000E+01 0.  0.
    9000005    1    3    3    0    0 -0.51989799135E+01  0.50055704904E+02 -0.73546503421E+02  0.89121777086E+02  0.10000000000E+01 0.  0.
         21    1    1    2  502  501  0.88333071091E+02 -0.35855938763E+01  0.26658650038E+03  0.28086286710E+03  0.00000000000E+00 0.  1.
<mgrwt>
<rscale>  1 0.15310373E+03</rscale>
<asrwt>0</asrwt>
<pdfrwt beam="1">  1        4 0.47748467E-01 0.15310373E+03</pdfrwt>
<pdfrwt beam="2">  1       -4 0.25704039E-01 0.15310373E+03</pdfrwt>
<totfact> 0.10365140E+02</totfact>
</mgrwt>
</event>
<event>
 6    4  0.1195577E-003  0.1277015E+03  0.7818608E-02  0.1230907E+00
         -4   -1    0    0    0  501 -0.00000000000E+00  0.00000000000E+00  0.33627473730E+02  0.33651447063E+02  0.12700000000E+01 0.  1.
          4   -1    0    0  502    0  0.00000000000E+00 -0.00000000000E+00 -0.17642711101E+03  0.17643168196E+03  0.12700000000E+01 0.  1.
         25    2    1    2    0    0 -0.25980726459E+02 -0.26405327490E+01 -0.11369696971E+03  0.17098152010E+03  0.12500283491E+03 0.  0.
    9000005    1    3    3    0    0 -0.43912942796E+02 -0.12189464593E+02  0.91232692313E+01  0.46488317173E+02  0.10000000000E+01 0.  0.
    9000005    1    3    3    0    0  0.17932216337E+02  0.95489318443E+01 -0.12282023894E+03  0.12449320293E+03  0.10000000000E+01 0.  0.
         21    1    1    2  502  501  0.25980726459E+02  0.26405327490E+01 -0.29102667571E+02  0.39101608922E+02  0.00000000000E+00 0. -1.
<mgrwt>
<rscale>  1 0.12770152E+03</rscale>
<asrwt>0</asrwt>
<pdfrwt beam="2">  1        4 0.27144828E-01 0.12770152E+03</pdfrwt>
<pdfrwt beam="1">  1       -4 0.51756533E-02 0.12770152E+03</pdfrwt>
<totfact> 0.46715932E+03</totfact>
</mgrwt>
</event>
<event>
 6    4  0.1195577E-003  0.1266328E+03  0.7818608E-02  0.1232539E+00
         -4   -1    0    0    0  501 -0.00000000000E+00  0.00000000000E+00  0.35777871541E+03  0.35778096945E+03  0.12700000000E+01 0. -1.
          4   -1    0    0  502    0  0.00000000000E+00 -0.00000000000E+00 -0.15055354837E+02  0.15108825542E+02  0.12700000000E+01 0. -1.
         25    2    1    2    0    0  0.14865949446E+02  0.13793757647E+02  0.29358847583E+03  0.31973435217E+03  0.12499839444E+03 0.  0.
    9000005    1    3    3    0    0  0.41698276335E+02  0.34675318234E+02  0.49962733378E+02  0.73745499324E+02  0.10000000000E+01 0.  0.
    9000005    1    3    3    0    0 -0.26832326889E+02 -0.20881560588E+02  0.24362574245E+03  0.24598885284E+03  0.10000000000E+01 0.  0.
         21    1    1    2  502  501 -0.14865949446E+02 -0.13793757647E+02  0.49134884743E+02  0.53155442822E+02  0.00000000000E+00 0. -1.
<mgrwt>
<rscale>  1 0.12663279E+03</rscale>
<asrwt>0</asrwt>
<pdfrwt beam="2">  1        4 0.23204950E-02 0.12663279E+03</pdfrwt>
<pdfrwt beam="1">  1       -4 0.55047164E-01 0.12663279E+03</pdfrwt>
<totfact> 0.41330786E+03</totfact>
</mgrwt>
</event>
<event>
 6    4  0.1195577E-003  0.1422401E+03  0.7818608E-02  0.1210346E+00
          4   -1    0    0  502    0  0.00000000000E+00  0.00000000000E+00  0.34584328624E+02  0.34607639134E+02  0.12700000000E+01 0.  1.
         -4   -1    0    0    0  501 -0.00000000000E+00 -0.00000000000E+00 -0.34243212114E+03  0.34243447619E+03  0.12700000000E+01 0.  1.
         25    2    1    2    0    0  0.20303102460E+02 -0.64770101001E+02 -0.15833821622E+03  0.21284560088E+03  0.12499950858E+03 0.  0.
    9000005    1    3    3    0    0  0.39528444832E+02 -0.87900944150E+02 -0.15505788464E+03  0.18257333190E+03  0.10000000000E+01 0.  0.
    9000005    1    3    3    0    0 -0.19225342372E+02  0.23130843149E+02 -0.32803315860E+01  0.30272268983E+02  0.10000000000E+01 0.  0.
         21    1    1    2  502  501 -0.20303102460E+02  0.64770101001E+02 -0.14950957629E+03  0.16419651444E+03  0.00000000000E+00 0.  1.
<mgrwt>
<rscale>  1 0.14224015E+03</rscale>
<asrwt>0</asrwt>
<pdfrwt beam="1">  1        4 0.53226404E-02 0.14224015E+03</pdfrwt>
<pdfrwt beam="2">  1       -4 0.52683837E-01 0.14224015E+03</pdfrwt>
<totfact> 0.12525240E+03</totfact>
</mgrwt>
</event>
<event>
 6    4  0.1195577E-003  0.1317866E+03  0.7818608E-02  0.1224829E+00
          4   -1    0    0  502    0  0.00000000000E+00  0.00000000000E+00  0.39719329003E+02  0.39739627532E+02  0.12700000000E+01 0. -1.
         -4   -1    0    0    0  501 -0.00000000000E+00 -0.00000000000E+00 -0.25417632002E+03  0.25417949280E+03  0.12700000000E+01 0. -1.
         25    2    1    2    0    0 -0.24305602830E+02 -0.33959300361E+02 -0.21497509714E+03  0.25215472348E+03  0.12499486299E+03 0.  0.
    9000005    1    3    3    0    0  0.33265588212E+02 -0.59569572512E+02 -0.12303687896E+03  0.14069188645E+03  0.10000000000E+01 0.  0.
    9000005    1    3    3    0    0 -0.57571191042E+02  0.25610272151E+02 -0.91938218182E+02  0.11146283704E+03  0.10000000000E+01 0.  0.
         21    1    1    2  502  501  0.24305602830E+02  0.33959300361E+02  0.51810612348E+00  0.41764396846E+02  0.00000000000E+00 0. -1.
<mgrwt>
<rscale>  1 0.13178662E+03</rscale>
<asrwt>0</asrwt>
<pdfrwt beam="1">  1        4 0.61124716E-02 0.13178662E+03</pdfrwt>
<pdfrwt beam="2">  1       -4 0.39105854E-01 0.13178662E+03</pdfrwt>
<totfact> 0.17909087E+03</totfact>
</mgrwt>
</event>
<event>
 6    4  0.1195577E-003  0.1307036E+03  0.7818608E-02  0.1226415E+00
          4   -1    0    0  502    0  0.00000000000E+00  0.00000000000E+00  0.21516050893E+03  0.21516425703E+03  0.12700000000E+01 0. -1.
         -4   -1    0    0    0  501 -0.00000000000E+00 -0.00000000000E+00 -0.36672788251E+02  0.36694772081E+02  0.12700000000E+01 0. -1.
         25    2    1    2    0    0  0.27252095477E+01 -0.38129382197E+02  0.10004515851E+03  0.16459785725E+03  0.12498857675E+03 0.  0.
    9000005    1    3    3    0    0  0.41881149100E+02  0.25136741801E+02  0.67638295027E+02  0.83437553850E+02  0.10000000000E+01 0.  0.
    9000005    1    3    3    0    0 -0.39155939552E+02 -0.63266123998E+02  0.32406863481E+02  0.81160303404E+02  0.10000000000E+01 0.  0.
         21    1    1    2  502  501 -0.27252095477E+01  0.38129382197E+02  0.78442562169E+02  0.87261171854E+02  0.00000000000E+00 0. -1.
<mgrwt>
<rscale>  1 0.13070356E+03</rscale>
<asrwt>0</asrwt>
<pdfrwt beam="1">  1        4 0.33103596E-01 0.13070356E+03</pdfrwt>
<pdfrwt beam="2">  1       -4 0.56439468E-02 0.13070356E+03</pdfrwt>
<totfact> 0.28088626E+03</totfact>
</mgrwt>
</event>
<event>
 6    4  0.1195577E-003  0.1286138E+03  0.7818608E-02  0.1229527E+00
          4   -1    0    0  502    0  0.00000000000E+00  0.00000000000E+00  0.39389778756E+01  0.41386527645E+01  0.12700000000E+01 0.  1.
         -4   -1    0    0    0  501 -0.00000000000E+00 -0.00000000000E+00 -0.16821924008E+04  0.16821928802E+04  0.12700000000E+01 0.  1.
         25    2    1    2    0    0  0.21313906425E+02 -0.21498045988E+02 -0.15020710123E+04  0.15075671898E+04  0.12500022826E+03 0.  0.
    9000005    1    3    3    0    0  0.49202351397E+02 -0.56337207670E+02 -0.11863770868E+04  0.11887330838E+04  0.10000000000E+01 0.  0.
    9000005    1    3    3    0    0 -0.27888444972E+02  0.34839161682E+02 -0.31569392548E+03  0.31883410598E+03  0.10000000000E+01 0.  0.
         21    1    1    2  502  501 -0.21313906425E+02  0.21498045988E+02 -0.17618241056E+03  0.17876434314E+03  0.00000000000E+00 0.  1.
<mgrwt>
<rscale>  1 0.12861378E+03</rscale>
<asrwt>0</asrwt>
<pdfrwt beam="1">  1        4 0.62139442E-03 0.12861378E+03</pdfrwt>
<pdfrwt beam="2">  1       -4 0.25881367E+00 0.12861378E+03</pdfrwt>
<totfact> 0.64714881E+02</totfact>
</mgrwt>
</event>
<event>
 6    4  0.1195577E-003  0.1280522E+03  0.7818608E-02  0.1230375E+00
         -4   -1    0    0    0  501 -0.00000000000E+00  0.00000000000E+00  0.40132871538E+01  0.42094386536E+01  0.12700000000E+01 0. -1.
          4   -1    0    0  502    0  0.00000000000E+00 -0.00000000000E+00 -0.15321942595E+04  0.15321947858E+04  0.12700000000E+01 0. -1.
         25    2    1    2    0    0 -0.42098789569E+01  0.27472900561E+02 -0.11244722584E+04  0.11317399080E+04  0.12499950417E+03 0.  0.
    9000005    1    3    3    0    0 -0.20609901801E+02  0.44292156841E+02 -0.10827220593E+04  0.10838240728E+04  0.10000000000E+01 0.  0.
    9000005    1    3    3    0    0  0.16400022844E+02 -0.16819256281E+02 -0.41750199193E+02  0.47915835209E+02  0.10000000000E+01 0.  0.
         21    1    1    2  502  501  0.42098789569E+01 -0.27472900561E+02 -0.40370871391E+03  0.40466431648E+03  0.00000000000E+00 0. -1.
<mgrwt>
<rscale>  1 0.12805217E+03</rscale>
<asrwt>0</asrwt>
<pdfrwt beam="2">  1        4 0.23573687E+00 0.12805217E+03</pdfrwt>
<pdfrwt beam="1">  1       -4 0.63255908E-03 0.12805217E+03</pdfrwt>
<totfact> 0.85584978E+02</totfact>
</mgrwt>
</event>
<event>
 6    4  0.1195577E-003  0.1390527E+03  0.7818608E-02  0.1214609E+00
          4   -1    0    0  502    0  0.00000000000E+00  0.00000000000E+00  0.30600289136E+02  0.30626632123E+02  0.12700000000E+01 0. -1.
         -4   -1    0    0    0  501 -0.00000000000E+00 -0.00000000000E+00 -0.39717588984E+03  0.39717792029E+03  0.12700000000E+01 0. -1.
         25    2    1    2    0    0  0.34259705454E+02 -0.50510170479E+02 -0.15796227253E+03  0.21044649429E+03  0.12494255751E+03 0.  0.
    9000005    1    3    3    0    0 -0.26931092938E+02 -0.42985052606E+02 -0.12202571266E+02  0.52181426388E+02  0.10000000000E+01 0.  0.
    9000005    1    3    3    0    0  0.61190798392E+02 -0.75251178724E+01 -0.14575970126E+03  0.15826506790E+03  0.10000000000E+01 0.  0.
         21    1    1    2  502  501 -0.34259705454E+02  0.50510170479E+02 -0.20861332818E+03  0.21735805813E+03  0.00000000000E+00 0. -1.
<mgrwt>
<rscale>  1 0.13905268E+03</rscale>
<asrwt>0</asrwt>
<pdfrwt beam="1">  1        4 0.47099196E-02 0.13905268E+03</pdfrwt>
<pdfrwt beam="2">  1       -4 0.61106162E-01 0.13905268E+03</pdfrwt>
<totfact> 0.11146093E+03</totfact>
</mgrwt>
</event>
<event>
 6    4  0.1195577E-003  0.1266006E+03  0.7818608E-02  0.1232589E+00
          4   -1    0    0  502    0  0.00000000000E+00  0.00000000000E+00  0.20661492249E+03  0.20661882561E+03  0.12700000000E+01 0.  1.
         -4   -1    0    0    0  501 -0.00000000000E+00 -0.00000000000E+00 -0.34820607350E+02  0.34843759789E+02  0.12700000000E+01 0.  1.
         25    2    1    2    0    0  0.10533944912E+01 -0.20072986579E+02  0.85281923301E+02  0.15264576057E+03  0.12499474929E+03 0.  0.
    9000005    1    3    3    0    0 -0.65119036857E+01  0.23430236451E+02 -0.24364127615E+02  0.34438228529E+02  0.10000000000E+01 0.  0.
    9000005    1    3    3    0    0  0.75652981769E+01 -0.43503223030E+02  0.10964605092E+03  0.11820753204E+03  0.10000000000E+01 0.  0.
         21    1    1    2  502  501 -0.10533944912E+01  0.20072986579E+02  0.86512391838E+02  0.88816824823E+02  0.00000000000E+00 0.  1.
<mgrwt>
<rscale>  1 0.12660064E+03</rscale>
<asrwt>0</asrwt>
<pdfrwt beam="1">  1        4 0.31788992E-01 0.12660064E+03</pdfrwt>
<pdfrwt beam="2">  1       -4 0.53590977E-02 0.12660064E+03</pdfrwt>
<totfact> 0.32739966E+03</totfact>
</mgrwt>
</event>
<event>
 6    4  0.1195577E-003  0.1324994E+03  0.7818608E-02  0.1223794E+00
         -4   -1    0    0    0  501 -0.00000000000E+00  0.00000000000E+00  0.16666603877E+03  0.16667087741E+03  0.12700000000E+01 0. -1.
          4   -1    0    0  502    0  0.00000000000E+00 -0.00000000000E+00 -0.63396680494E+02  0.63409399915E+02  0.12700000000E+01 0. -1.
         25    2    1    2    0    0 -0.42146792990E+02  0.12449236771E+02  0.12401548347E+03  0.18148256785E+03  0.12499898655E+03 0.  0.
    9000005    1    3    3    0    0 -0.76083343071E+02 -0.17333212499E+02  0.10866111908E+03  0.13378099323E+03  0.10000000000E+01 0.  0.
    9000005    1    3    3    0    0  0.33936550081E+02  0.29782449270E+02  0.15354364391E+02  0.47701574626E+02  0.10000000000E+01 0.  0.
         21    1    1    2  502  501  0.42146792990E+02 -0.12449236771E+02 -0.20746125201E+02  0.48597709477E+02  0.00000000000E+00 0.  1.
<mgrwt>
<rscale>  1 0.13249937E+03</rscale>
<asrwt>0</asrwt>
<pdfrwt beam="2">  1        4 0.97546862E-02 0.13249937E+03</pdfrwt>
<pdfrwt beam="1">  1       -4 0.25642279E-01 0.13249937E+03</pdfrwt>
<totfact> 0.18496411E+03</totfact>
</mgrwt>
</event>
<event>
 6    4  0.1195577E-003  0.1272690E+03  0.7818608E-02  0.1231565E+00
          4   -1    0    0  502    0  0.00000000000E+00  0.00000000000E+00  0.15742667330E+03  0.15743179592E+03  0.12700000000E+01 0.  1.
         -4   -1    0    0    0  501 -0.00000000000E+00 -0.00000000000E+00 -0.43778497472E+02  0.43796914742E+02  0.12700000000E+01 0.  1.
         25    2    1    2    0    0 -0.11453012212E+02 -0.21030656806E+02  0.56462674941E+02  0.13923160165E+03  0.12499578081E+03 0.  0.
    9000005    1    3    3    0    0 -0.52503695768E+02  0.43262261953E+01  0.71376757704E+02  0.88718633008E+02  0.10000000000E+01 0.  0.
    9000005    1    3    3    0    0  0.41050683556E+02 -0.25356883001E+02 -0.14914082764E+02  0.50512968638E+02  0.10000000000E+01 0.  0.
         21    1    1    2  502  501  0.11453012212E+02  0.21030656806E+02  0.57185500889E+02  0.61997109016E+02  0.00000000000E+00 0.  1.
<mgrwt>
<rscale>  1 0.12726903E+03</rscale>
<asrwt>0</asrwt>
<pdfrwt beam="1">  1        4 0.24221299E-01 0.12726903E+03</pdfrwt>
<pdfrwt beam="2">  1       -4 0.67369643E-02 0.12726903E+03</pdfrwt>
<totfact> 0.37579824E+03</totfact>
</mgrwt>
</event>
<event>
 6    4  0.1195577E-003  0.1315526E+03  0.7818608E-02  0.1225170E+00
          4   -1    0    0  502    0  0.00000000000E+00  0.00000000000E+00  0.10690081765E+03  0.10690836130E+03  0.12700000000E+01 0.  1.
         -4   -1    0    0    0  501 -0.00000000000E+00 -0.00000000000E+00 -0.69786524855E+02  0.69798079854E+02  0.12700000000E+01 0.  1.
         25    2    1    2    0    0  0.40293026726E+02 -0.75830287917E+01  0.31997164542E+02  0.13538797881E+03  0.12500022376E+03 0.  0.
    9000005    1    3    3    0    0  0.77805400281E+02 -0.14864270823E+02 -0.85310002604E+01  0.79676877608E+02  0.10000000000E+01 0.  0.
    9000005    1    3    3    0    0 -0.37512373555E+02  0.72812420309E+01  0.40528164803E+02  0.55711101205E+02  0.10000000000E+01 0.  0.
         21    1    1    2  502  501 -0.40293026726E+02  0.75830287917E+01  0.51171282572E+01  0.41318462338E+02  0.00000000000E+00 0.  1.
<mgrwt>
<rscale>  1 0.13155260E+03</rscale>
<asrwt>0</asrwt>
<pdfrwt beam="1">  1        4 0.16447749E-01 0.13155260E+03</pdfrwt>
<pdfrwt beam="2">  1       -4 0.10737858E-01 0.13155260E+03</pdfrwt>
<totfact> 0.34986521E+03</totfact>
</mgrwt>
</event>
<event>
 6    4  0.1195577E-003  0.1272271E+03  0.7818608E-02  0.1231629E+00
         -4   -1    0    0    0  501 -0.00000000000E+00  0.00000000000E+00  0.11281323939E+02  0.11352584279E+02  0.12700000000E+01 0.  1.
          4   -1    0    0  502    0  0.00000000000E+00 -0.00000000000E+00 -0.50339207449E+03  0.50339367651E+03  0.12700000000E+01 0.  1.
         25    2    1    2    0    0 -0.22544834538E+02 -0.73094504244E+01 -0.41050650435E+03  0.42977008397E+03  0.12500014934E+03 0.  0.
    9000005    1    3    3    0    0 -0.16106866272E+02 -0.36174661388E+02 -0.34288875392E+02  0.52390497643E+02  0.10000000000E+01 0.  0.
    9000005    1    3    3    0    0 -0.64379682660E+01  0.28865210964E+02 -0.37621762895E+03  0.37737958633E+03  0.10000000000E+01 0.  0.
         21    1    1    2  502  501  0.22544834538E+02  0.73094504244E+01 -0.81604246201E+02  0.84976176826E+02  0.00000000000E+00 0.  1.
<mgrwt>
<rscale>  1 0.12722710E+03</rscale>
<asrwt>0</asrwt>
<pdfrwt beam="2">  1        4 0.77450522E-01 0.12722710E+03</pdfrwt>
<pdfrwt beam="1">  1       -4 0.17411935E-02 0.12722710E+03</pdfrwt>
<totfact> 0.31119112E+03</totfact>
</mgrwt>
</event>
<event>
 6    4  0.1195577E-003  0.1280798E+03  0.7818608E-02  0.1230333E+00
          4   -1    0    0  502    0  0.00000000000E+00  0.00000000000E+00  0.46207748354E+03  0.46207922880E+03  0.12700000000E+01 0.  1.
         -4   -1    0    0    0  501 -0.00000000000E+00 -0.00000000000E+00 -0.20214951356E+02  0.20254805808E+02  0.12700000000E+01 0.  1.
         25    2    1    2    0    0 -0.18320357376E+02 -0.21045476156E+02  0.19126849788E+03  0.23019138136E+03  0.12500354479E+03 0.  0.
    9000005    1    3    3    0    0 -0.30569480234E+02  0.29815418379E+02  0.13369676863E+02  0.44757128531E+02  0.10000000000E+01 0.  0.
    9000005    1    3    3    0    0  0.12249122857E+02 -0.50860894535E+02  0.17789882102E+03  0.18543425283E+03  0.10000000000E+01 0.  0.
         21    1    1    2  502  501  0.18320357376E+02  0.21045476156E+02  0.25059403430E+03  0.25214265325E+03  0.00000000000E+00 0. -1.
<mgrwt>
<rscale>  1 0.12807979E+03</rscale>
<asrwt>0</asrwt>
<pdfrwt beam="1">  1        4 0.71092041E-01 0.12807979E+03</pdfrwt>
<pdfrwt beam="2">  1       -4 0.31131926E-02 0.12807979E+03</pdfrwt>
<totfact> 0.15277595E+03</totfact>
</mgrwt>
</event>
<event>
 6    4  0.1195577E-003  0.1279712E+03  0.7818608E-02  0.1230497E+00
          4   -1    0    0  502    0  0.00000000000E+00  0.00000000000E+00  0.32772077904E+02  0.32796676511E+02  0.12700000000E+01 0.  1.
         -4   -1    0    0    0  501 -0.00000000000E+00 -0.00000000000E+00 -0.18425804320E+03  0.18426241989E+03  0.12700000000E+01 0.  1.
         25    2    1    2    0    0  0.19415145402E+02  0.19319461776E+02 -0.12181982656E+03  0.17668250341E+03  0.12500578944E+03 0.  0.
    9000005    1    3    3    0    0  0.21926366876E+02 -0.19912722177E+01  0.22074729530E+02  0.31193339245E+02  0.10000000000E+01 0.  0.
    9000005    1    3    3    0    0 -0.25112214737E+01  0.21310733994E+02 -0.14389455609E+03  0.14548916416E+03  0.10000000000E+01 0.  0.
         21    1    1    2  502  501 -0.19415145402E+02 -0.19319461776E+02 -0.29666138737E+02  0.40376592995E+02  0.00000000000E+00 0.  1.
<mgrwt>
<rscale>  1 0.12797123E+03</rscale>
<asrwt>0</asrwt>
<pdfrwt beam="1">  1        4 0.50440871E-02 0.12797123E+03</pdfrwt>
<pdfrwt beam="2">  1       -4 0.28349620E-01 0.12797123E+03</pdfrwt>
<totfact> 0.44919396E+03</totfact>
</mgrwt>
</event>
<event>
 6    4  0.1195577E-003  0.1319525E+03  0.7818608E-02  0.1224587E+00
          4   -1    0    0  502    0  0.00000000000E+00  0.00000000000E+00  0.35453972445E+02  0.35476711547E+02  0.12700000000E+01 0.  1.
         -4   -1    0    0    0  501 -0.00000000000E+00 -0.00000000000E+00 -0.22917988344E+03  0.22918340226E+03  0.12700000000E+01 0.  1.
         25    2    1    2    0    0  0.39553151943E+02  0.14905748913E+02 -0.17301397327E+03  0.21758976706E+03  0.12499935440E+03 0.  0.
    9000005    1    3    3    0    0  0.69208161565E+02  0.48830590120E+02 -0.13083110722E+03  0.15585882963E+03  0.10000000000E+01 0.  0.
    9000005    1    3    3    0    0 -0.29655009623E+02 -0.33924841207E+02 -0.42182866053E+02  0.61730937423E+02  0.10000000000E+01 0.  0.
         21    1    1    2  502  501 -0.39553151943E+02 -0.14905748913E+02 -0.20711937721E+02  0.47070346753E+02  0.00000000000E+00 0.  1.
<mgrwt>
<rscale>  1 0.13195254E+03</rscale>
<asrwt>0</asrwt>
<pdfrwt beam="1">  1        4 0.54564773E-02 0.13195254E+03</pdfrwt>
<pdfrwt beam="2">  1       -4 0.35260463E-01 0.13195254E+03</pdfrwt>
<totfact> 0.26334999E+03</totfact>
</mgrwt>
</event>
<event>
 6    4  0.1195577E-003  0.1281903E+03  0.7818608E-02  0.1230166E+00
          4   -1    0    0  502    0  0.00000000000E+00  0.00000000000E+00  0.22886995351E+03  0.22887347710E+03  0.12700000000E+01 0.  1.
         -4   -1    0    0    0  501 -0.00000000000E+00 -0.00000000000E+00 -0.26774966148E+02  0.26805068778E+02  0.12700000000E+01 0.  1.
         25    2    1    2    0    0 -0.15768406805E+02 -0.23644940355E+02  0.16448412380E+03  0.20853723793E+03  0.12500010705E+03 0.  0.
    9000005    1    3    3    0    0  0.40158263411E+02  0.42272105925E+01  0.13212495910E+03  0.13816135583E+03  0.10000000000E+01 0.  0.
    9000005    1    3    3    0    0 -0.55926670217E+02 -0.27872150947E+02  0.32359164707E+02  0.70375882094E+02  0.10000000000E+01 0.  0.
         21    1    1    2  502  501  0.15768406805E+02  0.23644940355E+02  0.37610863554E+02  0.47141307946E+02  0.00000000000E+00 0.  1.
<mgrwt>
<rscale>  1 0.12819030E+03</rscale>
<asrwt>0</asrwt>
<pdfrwt beam="1">  1        4 0.35213349E-01 0.12819030E+03</pdfrwt>
<pdfrwt beam="2">  1       -4 0.41218122E-02 0.12819030E+03</pdfrwt>
<totfact> 0.41089051E+03</totfact>
</mgrwt>
</event>
<event>
 6    4  0.1195577E-003  0.1267551E+03  0.7818608E-02  0.1232352E+00
          4   -1    0    0  502    0  0.00000000000E+00  0.00000000000E+00  0.85092605855E+02  0.85102082649E+02  0.12700000000E+01 0. -1.
         -4   -1    0    0    0  501 -0.00000000000E+00 -0.00000000000E+00 -0.68089916905E+02  0.68101759773E+02  0.12700000000E+01 0. -1.
         25    2    1    2    0    0 -0.20560270873E+02  0.44635488973E+01  0.27480821750E+02  0.12969981566E+03  0.12499679440E+03 0.  0.
    9000005    1    3    3    0    0  0.19148469763E+02  0.55695445874E+02 -0.95340780573E+00  0.58911421404E+02  0.10000000000E+01 0.  0.
    9000005    1    3    3    0    0 -0.39708740636E+02 -0.51231896976E+02  0.28434229555E+02  0.70788394254E+02  0.10000000000E+01 0.  0.
         21    1    1    2  502  501  0.20560270873E+02 -0.44635488973E+01 -0.10478132800E+02  0.23504026764E+02  0.00000000000E+00 0.  1.
<mgrwt>
<rscale>  1 0.12675507E+03</rscale>
<asrwt>0</asrwt>
<pdfrwt beam="1">  1        4 0.13092810E-01 0.12675507E+03</pdfrwt>
<pdfrwt beam="2">  1       -4 0.10477012E-01 0.12675507E+03</pdfrwt>
<totfact> 0.53753979E+03</totfact>
</mgrwt>
</event>
<event>
 6    4  0.1195577E-003  0.1297545E+03  0.7818608E-02  0.1227820E+00
         -4   -1    0    0    0  501 -0.00000000000E+00  0.00000000000E+00  0.11513485954E+03  0.11514186372E+03  0.12700000000E+01 0.  1.
          4   -1    0    0  502    0  0.00000000000E+00 -0.00000000000E+00 -0.58933096694E+02  0.58946779267E+02  0.12700000000E+01 0.  1.
         25    2    1    2    0    0  0.17108378546E+02 -0.30334321169E+02  0.47655653407E+02  0.13822914433E+03  0.12499346937E+03 0.  0.
    9000005    1    3    3    0    0 -0.48148810720E+02 -0.25177807742E+02 -0.44941327451E+01  0.54529140884E+02  0.10000000000E+01 0.  0.
    9000005    1    3    3    0    0  0.65257189266E+02 -0.51565134264E+01  0.52149786152E+02  0.83700003449E+02  0.10000000000E+01 0.  0.
         21    1    1    2  502  501 -0.17108378546E+02  0.30334321169E+02  0.85461094382E+01  0.35859498655E+02  0.00000000000E+00 0.  1.
<mgrwt>
<rscale>  1 0.12975452E+03</rscale>
<asrwt>0</asrwt>
<pdfrwt beam="2">  1        4 0.90682215E-02 0.12975452E+03</pdfrwt>
<pdfrwt beam="1">  1       -4 0.17714647E-01 0.12975452E+03</pdfrwt>
<totfact> 0.40638094E+03</totfact>
</mgrwt>
</event>
<event>
 6    4  0.1195577E-003  0.1283609E+03  0.7818608E-02  0.1229908E+00
         -4   -1    0    0    0  501 -0.00000000000E+00  0.00000000000E+00  0.22066632119E+03  0.22066997577E+03  0.12700000000E+01 0. -1.
          4   -1    0    0  502    0  0.00000000000E+00 -0.00000000000E+00 -0.28132697860E+02  0.28161349202E+02  0.12700000000E+01 0. -1.
         25    2    1    2    0    0 -0.20799019555E+02  0.20468566155E+02  0.16006092771E+03  0.20517313702E+03  0.12499981664E+03 0.  0.
    9000005    1    3    3    0    0 -0.33375971074E+02  0.68651144710E+02  0.11484572361E+03  0.13790386270E+03  0.10000000000E+01 0.  0.
    9000005    1    3    3    0    0  0.12576951519E+02 -0.48182578555E+02  0.45215204100E+02  0.67269274320E+02  0.10000000000E+01 0.  0.
         21    1    1    2  502  501  0.20799019555E+02 -0.20468566155E+02  0.32472695617E+02  0.43658187955E+02  0.00000000000E+00 0. -1.
<mgrwt>
<rscale>  1 0.12836088E+03</rscale>
<asrwt>0</asrwt>
<pdfrwt beam="2">  1        4 0.43305923E-02 0.12836088E+03</pdfrwt>
<pdfrwt beam="1">  1       -4 0.33951151E-01 0.12836088E+03</pdfrwt>
<totfact> 0.40760161E+03</totfact>
</mgrwt>
</event>
<event>
 6    4  0.1195577E-003  0.1292317E+03  0.7818608E-02  0.1228600E+00
         -4   -1    0    0    0  501 -0.00000000000E+00  0.00000000000E+00  0.10562239067E+03  0.10563002562E+03  0.12700000000E+01 0.  1.
          4   -1    0    0  502    0  0.00000000000E+00 -0.00000000000E+00 -0.71460370152E+02  0.71471654537E+02  0.12700000000E+01 0.  1.
         25    2    1    2    0    0 -0.23167009877E+02  0.23191576490E+02  0.52559892579E+02  0.13951123904E+03  0.12500513567E+03 0.  0.
    9000005    1    3    3    0    0 -0.18878147624E+02 -0.50919733535E+02  0.15219484286E+02  0.56407769172E+02  0.10000000000E+01 0.  0.
    9000005    1    3    3    0    0 -0.42888622530E+01  0.74111310025E+02  0.37340408293E+02  0.83103469871E+02  0.10000000000E+01 0.  0.
         21    1    1    2  502  501  0.23167009877E+02 -0.23191576490E+02 -0.18397872057E+02  0.37590441111E+02  0.00000000000E+00 0.  1.
<mgrwt>
<rscale>  1 0.12923174E+03</rscale>
<asrwt>0</asrwt>
<pdfrwt beam="2">  1        4 0.10995358E-01 0.12923174E+03</pdfrwt>
<pdfrwt beam="1">  1       -4 0.16251054E-01 0.12923174E+03</pdfrwt>
<totfact> 0.34179649E+03</totfact>
</mgrwt>
</event>
<event>
 6    4  0.1195577E-003  0.1282526E+03  0.7818608E-02  0.1230072E+00
          4   -1    0    0  502    0  0.00000000000E+00  0.00000000000E+00  0.27306709370E+03  0.27307004698E+03  0.12700000000E+01 0.  1.
         -4   -1    0    0    0  501 -0.00000000000E+00 -0.00000000000E+00 -0.23568413516E+02  0.23602606120E+02  0.12700000000E+01 0.  1.
         25    2    1    2    0    0 -0.28357918514E+02  0.44625398323E+01  0.22475726523E+03  0.25877511469E+03  0.12499858361E+03 0.  0.
    9000005    1    3    3    0    0 -0.23286454958E+02 -0.17471601629E+02 -0.35621572921E+01  0.29346291292E+02  0.10000000000E+01 0.  0.
    9000005    1    3    3    0    0 -0.50714635558E+01  0.21934141461E+02  0.22831942252E+03  0.22942882340E+03  0.10000000000E+01 0.  0.
         21    1    1    2  502  501  0.28357918514E+02 -0.44625398323E+01  0.24741414950E+02  0.37897538415E+02  0.00000000000E+00 0.  1.
<mgrwt>
<rscale>  1 0.12825261E+03</rscale>
<asrwt>0</asrwt>
<pdfrwt beam="1">  1        4 0.42013181E-01 0.12825261E+03</pdfrwt>
<pdfrwt beam="2">  1       -4 0.36287670E-02 0.12825261E+03</pdfrwt>
<totfact> 0.35608543E+03</totfact>
</mgrwt>
</event>
<event>
 6    4  0.1195577E-003  0.1305933E+03  0.7818608E-02  0.1226578E+00
          4   -1    0    0  502    0  0.00000000000E+00  0.00000000000E+00  0.29521618104E+02  0.29548922746E+02  0.12700000000E+01 0. -1.
         -4   -1    0    0    0  501 -0.00000000000E+00 -0.00000000000E+00 -0.26878607262E+03  0.26878907294E+03  0.12700000000E+01 0. -1.
         25    2    1    2    0    0  0.25388191156E+02  0.28033079643E+02 -0.13684766768E+03  0.18916101996E+03  0.12499677403E+03 0.  0.
    9000005    1    3    3    0    0  0.48936788211E+02 -0.32837987229E+02 -0.94426281613E+02  0.11131246698E+03  0.10000000000E+01 0.  0.
    9000005    1    3    3    0    0 -0.23548597054E+02  0.60871066871E+02 -0.42421386069E+02  0.77848552982E+02  0.10000000000E+01 0.  0.
         21    1    1    2  502  501 -0.25388191156E+02 -0.28033079643E+02 -0.10241678683E+03  0.10917697573E+03  0.00000000000E+00 0.  1.
<mgrwt>
<rscale>  1 0.13059329E+03</rscale>
<asrwt>0</asrwt>
<pdfrwt beam="1">  1        4 0.45441187E-02 0.13059329E+03</pdfrwt>
<pdfrwt beam="2">  1       -4 0.41354033E-01 0.13059329E+03</pdfrwt>
<totfact> 0.25816292E+03</totfact>
</mgrwt>
</event>
<event>
 6    4  0.1195577E-003  0.1265998E+03  0.7818608E-02  0.1232590E+00
         -4   -1    0    0    0  501 -0.00000000000E+00  0.00000000000E+00  0.41050336453E+03  0.41050532906E+03  0.12700000000E+01 0. -1.
          4   -1    0    0  502    0  0.00000000000E+00 -0.00000000000E+00 -0.29629407190E+02  0.29656612592E+02  0.12700000000E+01 0. -1.
         25    2    1    2    0    0 -0.19450667904E+02 -0.49119115797E+01  0.39554326030E+03  0.41530950100E+03  0.12500022198E+03 0.  0.
    9000005    1    3    3    0    0 -0.73539951746E+01  0.57777741061E+02  0.13455249426E+03  0.14662101595E+03  0.10000000000E+01 0.  0.
    9000005    1    3    3    0    0 -0.12096672729E+02 -0.62689652641E+02  0.26099076604E+03  0.26868848505E+03  0.10000000000E+01 0.  0.
         21    1    1    2  502  501  0.19450667904E+02  0.49119115797E+01 -0.14669302960E+02  0.24852440657E+02  0.00000000000E+00 0. -1.
<mgrwt>
<rscale>  1 0.12659981E+03</rscale>
<asrwt>0</asrwt>
<pdfrwt beam="2">  1        4 0.45606144E-02 0.12659981E+03</pdfrwt>
<pdfrwt beam="1">  1       -4 0.63156605E-01 0.12659981E+03</pdfrwt>
<totfact> 0.10728975E+03</totfact>
</mgrwt>
</event>
<event>
 6    4  0.1195577E-003  0.1285617E+03  0.7818608E-02  0.1229606E+00
         -4   -1    0    0    0  501 -0.00000000000E+00  0.00000000000E+00  0.11831437539E+03  0.11832119135E+03  0.12700000000E+01 0.  1.
          4   -1    0    0  502    0  0.00000000000E+00 -0.00000000000E+00 -0.55622025679E+02  0.55636522543E+02  0.12700000000E+01 0.  1.
         25    2    1    2    0    0 -0.24176982823E+02  0.17838813330E+02  0.35349969688E+02  0.13333314615E+03  0.12500143097E+03 0.  0.
    9000005    1    3    3    0    0 -0.54653806751E+02  0.37543029398E+02 -0.18081109623E+02  0.68734592265E+02  0.10000000000E+01 0.  0.
    9000005    1    3    3    0    0  0.30476823928E+02 -0.19704216067E+02  0.53431079310E+02  0.64598553883E+02  0.10000000000E+01 0.  0.
         21    1    1    2  502  501  0.24176982823E+02 -0.17838813330E+02  0.27342380020E+02  0.40624567747E+02  0.00000000000E+00 0.  1.
<mgrwt>
<rscale>  1 0.12856169E+03</rscale>
<asrwt>0</asrwt>
<pdfrwt beam="2">  1        4 0.85588743E-02 0.12856169E+03</pdfrwt>
<pdfrwt beam="1">  1       -4 0.18203851E-01 0.12856169E+03</pdfrwt>
<totfact> 0.42537324E+03</totfact>
</mgrwt>
</event>
<event>
 6    4  0.1195577E-003  0.1279432E+03  0.7818608E-02  0.1230540E+00
          4   -1    0    0  502    0  0.00000000000E+00  0.00000000000E+00  0.17213475492E+02  0.17260261832E+02  0.12700000000E+01 0. -1.
         -4   -1    0    0    0  501 -0.00000000000E+00 -0.00000000000E+00 -0.40409418679E+03  0.40409618248E+03  0.12700000000E+01 0. -1.
         25    2    1    2    0    0 -0.24167364818E+02 -0.12665951107E+02 -0.36371986748E+03  0.38556660601E+03  0.12499991131E+03 0.  0.
    9000005    1    3    3    0    0 -0.57661083967E+01 -0.15046204158E+02 -0.36643266382E+03  0.36678813146E+03  0.10000000000E+01 0.  0.
    9000005    1    3    3    0    0 -0.18401256421E+02  0.23802530505E+01  0.27127963369E+01  0.18778474550E+02  0.10000000000E+01 0.  0.
         21    1    1    2  502  501  0.24167364818E+02  0.12665951107E+02 -0.23160843815E+02  0.35789838306E+02  0.00000000000E+00 0.  1.
<mgrwt>
<rscale>  1 0.12794321E+03</rscale>
<asrwt>0</asrwt>
<pdfrwt beam="1">  1        4 0.26519798E-02 0.12794321E+03</pdfrwt>
<pdfrwt beam="2">  1       -4 0.62172081E-01 0.12794321E+03</pdfrwt>
<totfact> 0.26122320E+03</totfact>
</mgrwt>
</event>
<event>
 6    4  0.1195577E-003  0.1303101E+03  0.7818608E-02  0.1226996E+00
          4   -1    0    0  502    0  0.00000000000E+00  0.00000000000E+00  0.91508263602E+03  0.91508351730E+03  0.12700000000E+01 0.  1.
         -4   -1    0    0    0  501 -0.00000000000E+00 -0.00000000000E+00 -0.76123906654E+01  0.77176027134E+01  0.12700000000E+01 0.  1.
         25    2    1    2    0    0  0.96917355033E+01 -0.35378123272E+02  0.67648400739E+03  0.68892041652E+03  0.12504074013E+03 0.  0.
    9000005    1    3    3    0    0  0.26197383210E+02 -0.65172845147E+02  0.21511308666E+03  0.22629282508E+03  0.10000000000E+01 0.  0.
    9000005    1    3    3    0    0 -0.16505647706E+02  0.29794721875E+02  0.46137092073E+03  0.46262759144E+03  0.10000000000E+01 0.  0.
         21    1    1    2  502  501 -0.96917355033E+01  0.35378123272E+02  0.23098623795E+03  0.23388070350E+03  0.00000000000E+00 0. -1.
<mgrwt>
<rscale>  1 0.13031012E+03</rscale>
<asrwt>0</asrwt>
<pdfrwt beam="1">  1        4 0.14079006E+00 0.13031012E+03</pdfrwt>
<pdfrwt beam="2">  1       -4 0.11792984E-02 0.13031012E+03</pdfrwt>
<totfact> 0.14032952E+03</totfact>
</mgrwt>
</event>
<event>
 6    4  0.1195577E-003  0.1318524E+03  0.7818608E-02  0.1224733E+00
          4   -1    0    0  502    0  0.00000000000E+00  0.00000000000E+00  0.52621963513E+03  0.52622116766E+03  0.12700000000E+01 0.  1.
         -4   -1    0    0    0  501 -0.00000000000E+00 -0.00000000000E+00 -0.65891783382E+02  0.65904021252E+02  0.12700000000E+01 0.  1.
         25    2    1    2    0    0 -0.59541107560E+01 -0.41526532322E+02  0.19858571064E+01  0.13186733904E+03  0.12500058862E+03 0.  0.
    9000005    1    3    3    0    0 -0.53572777167E+02 -0.40400184850E+02 -0.30999836889E+02  0.73920276491E+02  0.10000000000E+01 0.  0.
    9000005    1    3    3    0    0  0.47618666411E+02 -0.11263474719E+01  0.32985693996E+02  0.57947062547E+02  0.10000000000E+01 0.  0.
         21    1    1    2  502  501  0.59541107560E+01  0.41526532322E+02  0.45834199464E+03  0.46025784988E+03  0.00000000000E+00 0.  1.
<mgrwt>
<rscale>  1 0.13185239E+03</rscale>
<asrwt>0</asrwt>
<pdfrwt beam="1">  1        4 0.80957924E-01 0.13185239E+03</pdfrwt>
<pdfrwt beam="2">  1       -4 0.10138257E-01 0.13185239E+03</pdfrwt>
<totfact> 0.17074431E+02</totfact>
</mgrwt>
</event>
<event>
 6    4  0.1195577E-003  0.1296441E+03  0.7818608E-02  0.1227985E+00
          4   -1    0    0  502    0  0.00000000000E+00  0.00000000000E+00  0.23975703768E+03  0.23976040127E+03  0.12700000000E+01 0.  1.
         -4   -1    0    0    0  501 -0.00000000000E+00 -0.00000000000E+00 -0.67002649180E+02  0.67014684191E+02  0.12700000000E+01 0.  1.
         25    2    1    2    0    0 -0.19373200590E+02 -0.28410910166E+02 -0.10027092284E+01  0.12964792851E+03  0.12500031690E+03 0.  0.
    9000005    1    3    3    0    0 -0.24868956003E+02 -0.14600457835E+02 -0.61185686611E+02  0.67648552001E+02  0.10000000000E+01 0.  0.
    9000005    1    3    3    0    0  0.54957554138E+01 -0.13810452331E+02  0.60182977383E+02  0.61999376512E+02  0.10000000000E+01 0.  0.
         21    1    1    2  502  501  0.19373200590E+02  0.28410910166E+02  0.17375709773E+03  0.17712715695E+03  0.00000000000E+00 0.  1.
<mgrwt>
<rscale>  1 0.12964405E+03</rscale>
<asrwt>0</asrwt>
<pdfrwt beam="1">  1        4 0.36886883E-01 0.12964405E+03</pdfrwt>
<pdfrwt beam="2">  1       -4 0.10309284E-01 0.12964405E+03</pdfrwt>
<totfact> 0.84184158E+02</totfact>
</mgrwt>
</event>
<event>
 6    4  0.1195577E-003  0.1351981E+03  0.7818608E-02  0.1219940E+00
          4   -1    0    0  502    0  0.00000000000E+00  0.00000000000E+00  0.58531072681E+03  0.58531210462E+03  0.12700000000E+01 0. -1.
         -4   -1    0    0    0  501 -0.00000000000E+00 -0.00000000000E+00 -0.28262291843E+02  0.28290811940E+02  0.12700000000E+01 0. -1.
         25    2    1    2    0    0 -0.48932178307E+01 -0.51280837479E+02  0.14463368794E+03  0.19798338930E+03  0.12499940352E+03 0.  0.
    9000005    1    3    3    0    0 -0.15121953490E+02 -0.91708258890E+02  0.91492139290E+02  0.13042580181E+03  0.10000000000E+01 0.  0.
    9000005    1    3    3    0    0  0.10228735659E+02  0.40427421411E+02  0.53141548648E+02  0.67557587493E+02  0.10000000000E+01 0.  0.
         21    1    1    2  502  501  0.48932178307E+01  0.51280837479E+02  0.41241474703E+03  0.41561952726E+03  0.00000000000E+00 0. -1.
<mgrwt>
<rscale>  1 0.13519807E+03</rscale>
<asrwt>0</asrwt>
<pdfrwt beam="1">  1        4 0.90050104E-01 0.13519807E+03</pdfrwt>
<pdfrwt beam="2">  1       -4 0.43503447E-02 0.13519807E+03</pdfrwt>
<totfact> 0.54006146E+02</totfact>
</mgrwt>
</event>
<event>
 6    4  0.1195577E-003  0.1278843E+03  0.7818608E-02  0.1230629E+00
         -4   -1    0    0    0  501 -0.00000000000E+00  0.00000000000E+00  0.50220151028E+03  0.50220311610E+03  0.12700000000E+01 0.  1.
          4   -1    0    0  502    0  0.00000000000E+00 -0.00000000000E+00 -0.12207589808E+02  0.12273473385E+02  0.12700000000E+01 0.  1.
         25    2    1    2    0    0 -0.23745017206E+02  0.12957890380E+02  0.43108201233E+03  0.44965108767E+03  0.12499066575E+03 0.  0.
    9000005    1    3    3    0    0  0.31795785760E+01 -0.51985681784E+02  0.12169997692E+03  0.13238015415E+03  0.10000000000E+01 0.  0.
    9000005    1    3    3    0    0 -0.26924595782E+02  0.64943572164E+02  0.30938203541E+03  0.31727093352E+03  0.10000000000E+01 0.  0.
         21    1    1    2  502  501  0.23745017206E+02 -0.12957890380E+02  0.58911908137E+02  0.64825501815E+02  0.00000000000E+00 0.  1.
<mgrwt>
<rscale>  1 0.12788432E+03</rscale>
<asrwt>0</asrwt>
<pdfrwt beam="2">  1        4 0.18832824E-02 0.12788432E+03</pdfrwt>
<pdfrwt beam="1">  1       -4 0.77266955E-01 0.12788432E+03</pdfrwt>
<totfact> 0.27771868E+03</totfact>
</mgrwt>
</event>
<event>
 6    4  0.1195577E-003  0.1418506E+03  0.7818608E-02  0.1210860E+00
         -4   -1    0    0    0  501 -0.00000000000E+00  0.00000000000E+00  0.13898993372E+03  0.13899573582E+03  0.12700000000E+01 0. -1.
          4   -1    0    0  502    0  0.00000000000E+00 -0.00000000000E+00 -0.95343981331E+02  0.95352439277E+02  0.12700000000E+01 0. -1.
         25    2    1    2    0    0 -0.49538728886E+02  0.45190832570E+02 -0.18341547926E+02  0.14303143401E+03  0.12500112690E+03 0.  0.
    9000005    1    3    3    0    0 -0.58850388300E+02  0.28074691641E+02 -0.65235817477E+02  0.92240275345E+02  0.10000000000E+01 0.  0.
    9000005    1    3    3    0    0  0.93116594135E+01  0.17116140929E+02  0.46894269552E+02  0.50791158661E+02  0.10000000000E+01 0.  0.
         21    1    1    2  502  501  0.49538728886E+02 -0.45190832570E+02  0.61987500317E+02  0.91316741091E+02  0.00000000000E+00 0. -1.
<mgrwt>
<rscale>  1 0.14185055E+03</rscale>
<asrwt>0</asrwt>
<pdfrwt beam="2">  1        4 0.14669402E-01 0.14185055E+03</pdfrwt>
<pdfrwt beam="1">  1       -4 0.21384164E-01 0.14185055E+03</pdfrwt>
<totfact> 0.13023884E+03</totfact>
</mgrwt>
</event>
<event>
 6    4  0.1195577E-003  0.1272305E+03  0.7818608E-02  0.1231624E+00
         -4   -1    0    0    0  501 -0.00000000000E+00  0.00000000000E+00  0.28592540258E+03  0.28592822306E+03  0.12700000000E+01 0.  1.
          4   -1    0    0  502    0  0.00000000000E+00 -0.00000000000E+00 -0.25029047863E+02  0.25061247713E+02  0.12700000000E+01 0.  1.
         25    2    1    2    0    0  0.23565244113E+02 -0.31131013575E+01  0.25718017881E+03  0.28693074899E+03  0.12499039249E+03 0.  0.
    9000005    1    3    3    0    0  0.74138862680E+02  0.24984866643E+01  0.12592197400E+03  0.14615114413E+03  0.10000000000E+01 0.  0.
    9000005    1    3    3    0    0 -0.50573618567E+02 -0.56115880219E+01  0.13125820481E+03  0.14077960486E+03  0.10000000000E+01 0.  0.
         21    1    1    2  502  501 -0.23565244113E+02  0.31131013575E+01  0.37161759081E+01  0.24058721778E+02  0.00000000000E+00 0.  1.
<mgrwt>
<rscale>  1 0.12723054E+03</rscale>
<asrwt>0</asrwt>
<pdfrwt beam="2">  1        4 0.38533167E-02 0.12723054E+03</pdfrwt>
<pdfrwt beam="1">  1       -4 0.43991217E-01 0.12723054E+03</pdfrwt>
<totfact> 0.29498012E+03</totfact>
</mgrwt>
</event>
<event>
 6    4  0.1195577E-003  0.1525177E+03  0.7818608E-02  0.1197413E+00
          4   -1    0    0  502    0  0.00000000000E+00  0.00000000000E+00  0.42215797109E+03  0.42215988139E+03  0.12700000000E+01 0.  1.
         -4   -1    0    0    0  501 -0.00000000000E+00 -0.00000000000E+00 -0.37017725080E+02  0.37039504183E+02  0.12700000000E+01 0.  1.
         25    2    1    2    0    0  0.40731991824E+02 -0.77318399385E+02  0.17816141044E+03  0.23452747274E+03  0.12499766902E+03 0.  0.
    9000005    1    3    3    0    0 -0.44398585585E+02 -0.18547935096E+02  0.44860726597E+02  0.65793199414E+02  0.10000000000E+01 0.  0.
    9000005    1    3    3    0    0  0.85130577409E+02 -0.58770464288E+02  0.13330068385E+03  0.16873427333E+03  0.10000000000E+01 0.  0.
         21    1    1    2  502  501 -0.40731991824E+02  0.77318399385E+02  0.20697883557E+03  0.22467191283E+03  0.00000000000E+00 0.  1.
<mgrwt>
<rscale>  1 0.15251770E+03</rscale>
<asrwt>0</asrwt>
<pdfrwt beam="1">  1        4 0.64949200E-01 0.15251770E+03</pdfrwt>
<pdfrwt beam="2">  1       -4 0.56968571E-02 0.15251770E+03</pdfrwt>
<totfact> 0.73405568E+02</totfact>
</mgrwt>
</event>
<event>
 6    4  0.1195577E-003  0.1303672E+03  0.7818608E-02  0.1226912E+00
         -4   -1    0    0    0  501 -0.00000000000E+00  0.00000000000E+00  0.50004669029E+03  0.50004830304E+03  0.12700000000E+01 0. -1.
          4   -1    0    0  502    0  0.00000000000E+00 -0.00000000000E+00 -0.23411851146E+02  0.23446272072E+02  0.12700000000E+01 0. -1.
         25    2    1    2    0    0 -0.37000515441E+02  0.18943455893E+01  0.46749892558E+03  0.48533580673E+03  0.12499189247E+03 0.  0.
    9000005    1    3    3    0    0 -0.73766756399E+02  0.10619332698E+02  0.17234847953E+03  0.18777460683E+03  0.10000000000E+01 0.  0.
    9000005    1    3    3    0    0  0.36766240959E+02 -0.87249871092E+01  0.29515044606E+03  0.29756119989E+03  0.10000000000E+01 0.  0.
         21    1    1    2  502  501  0.37000515441E+02 -0.18943455893E+01  0.91359135652E+01  0.38158768386E+02  0.00000000000E+00 0. -1.
<mgrwt>
<rscale>  1 0.13036717E+03</rscale>
<asrwt>0</asrwt>
<pdfrwt beam="2">  1        4 0.36045953E-02 0.13036717E+03</pdfrwt>
<pdfrwt beam="1">  1       -4 0.76933027E-01 0.13036717E+03</pdfrwt>
<totfact> 0.10256285E+03</totfact>
</mgrwt>
</event>
<event>
 6    4  0.1195577E-003  0.1268186E+03  0.7818608E-02  0.1232254E+00
         -4   -1    0    0    0  501 -0.00000000000E+00  0.00000000000E+00  0.81074623577E+02  0.81084569976E+02  0.12700000000E+01 0. -1.
          4   -1    0    0  502    0  0.00000000000E+00 -0.00000000000E+00 -0.67961110532E+02  0.67972975842E+02  0.12700000000E+01 0. -1.
         25    2    1    2    0    0  0.34227583385E+01 -0.21086041135E+02  0.14532169293E+02  0.12764845917E+03  0.12500643495E+03 0.  0.
    9000005    1    3    3    0    0 -0.14804264765E+02  0.25015003053E+02 -0.42864578971E+02  0.51800470686E+02  0.10000000000E+01 0.  0.
    9000005    1    3    3    0    0  0.18227023103E+02 -0.46101044188E+02  0.57396748263E+02  0.75847988487E+02  0.10000000000E+01 0.  0.
         21    1    1    2  502  501 -0.34227583385E+01  0.21086041135E+02 -0.14186562479E+01  0.21409086644E+02  0.00000000000E+00 0. -1.
<mgrwt>
<rscale>  1 0.12681855E+03</rscale>
<asrwt>0</asrwt>
<pdfrwt beam="2">  1        4 0.10457233E-01 0.12681855E+03</pdfrwt>
<pdfrwt beam="1">  1       -4 0.12474697E-01 0.12681855E+03</pdfrwt>
<totfact> 0.58603640E+03</totfact>
</mgrwt>
</event>
<event>
 6    4  0.1195577E-003  0.1386376E+03  0.7818608E-02  0.1215174E+00
         -4   -1    0    0    0  501 -0.00000000000E+00  0.00000000000E+00  0.57320602788E+02  0.57334670174E+02  0.12700000000E+01 0.  1.
          4   -1    0    0  502    0  0.00000000000E+00 -0.00000000000E+00 -0.22516700184E+03  0.22517058338E+03  0.12700000000E+01 0.  1.
         25    2    1    2    0    0 -0.54184738191E+02  0.25750071238E+02 -0.44940957706E+02  0.14573976253E+03  0.12498534586E+03 0.  0.
    9000005    1    3    3    0    0  0.79167636464E+00  0.61672690601E+02 -0.50645038486E+02  0.79812702251E+02  0.10000000000E+01 0.  0.
    9000005    1    3    3    0    0 -0.54976414556E+02 -0.35922619363E+02  0.57040807802E+01  0.65927060278E+02  0.10000000000E+01 0.  0.
         21    1    1    2  502  501  0.54184738191E+02 -0.25750071238E+02 -0.12290544135E+03  0.13676549102E+03  0.00000000000E+00 0.  1.
<mgrwt>
<rscale>  1 0.13863762E+03</rscale>
<asrwt>0</asrwt>
<pdfrwt beam="2">  1        4 0.34642434E-01 0.13863762E+03</pdfrwt>
<pdfrwt beam="1">  1       -4 0.88199120E-02 0.13863762E+03</pdfrwt>
<totfact> 0.12526800E+03</totfact>
</mgrwt>
</event>
<event>
 6    4  0.1195577E-003  0.1315091E+03  0.7818608E-02  0.1225234E+00
         -4   -1    0    0    0  501 -0.00000000000E+00  0.00000000000E+00  0.26196194692E+04  0.26196197770E+04  0.12700000000E+01 0. -1.
          4   -1    0    0  502    0  0.00000000000E+00 -0.00000000000E+00 -0.27860063256E+01  0.30618182909E+01  0.12700000000E+01 0. -1.
         25    2    1    2    0    0  0.25589044516E+02 -0.31888139563E+02  0.17809849089E+04  0.17858336654E+04  0.12499192833E+03 0.  0.
    9000005    1    3    3    0    0  0.11858762902E+02 -0.41323606144E+02  0.17509114365E+04  0.17514394449E+04  0.10000000000E+01 0.  0.
    9000005    1    3    3    0    0  0.13730281614E+02  0.94354665805E+01  0.30073472429E+02  0.34394220542E+02  0.10000000000E+01 0.  0.
         21    1    1    2  502  501 -0.25589044516E+02  0.31888139563E+02  0.83584855394E+03  0.83684792989E+03  0.00000000000E+00 0.  1.
<mgrwt>
<rscale>  1 0.13150907E+03</rscale>
<asrwt>0</asrwt>
<pdfrwt beam="2">  1        4 0.44985715E-03 0.13150907E+03</pdfrwt>
<pdfrwt beam="1">  1       -4 0.40303889E+00 0.13150907E+03</pdfrwt>
<totfact> 0.14216340E+02</totfact>
</mgrwt>
</event>
<event>
 6    4  0.1195577E-003  0.1270446E+03  0.7818608E-02  0.1231908E+00
          4   -1    0    0  502    0  0.00000000000E+00  0.00000000000E+00  0.73410665794E+02  0.73421650433E+02  0.12700000000E+01 0. -1.
         -4   -1    0    0    0  501 -0.00000000000E+00 -0.00000000000E+00 -0.93444970698E+02  0.93453600512E+02  0.12700000000E+01 0. -1.
         25    2    1    2    0    0  0.73294605896E+01 -0.21463989250E+02 -0.43456339170E+02  0.13427133222E+03  0.12500365361E+03 0.  0.
    9000005    1    3    3    0    0  0.51280626124E+02 -0.52281251244E+02 -0.27915325010E+02  0.78379188678E+02  0.10000000000E+01 0.  0.
    9000005    1    3    3    0    0 -0.43951165535E+02  0.30817261994E+02 -0.15541014160E+02  0.55892143543E+02  0.10000000000E+01 0.  0.
         21    1    1    2  502  501 -0.73294605896E+01  0.21463989250E+02  0.23422034267E+02  0.32603918725E+02  0.00000000000E+00 0.  1.
<mgrwt>
<rscale>  1 0.12704463E+03</rscale>
<asrwt>0</asrwt>
<pdfrwt beam="1">  1        4 0.11295457E-01 0.12704463E+03</pdfrwt>
<pdfrwt beam="2">  1       -4 0.14377658E-01 0.12704463E+03</pdfrwt>
<totfact> 0.40274370E+03</totfact>
</mgrwt>
</event>
<event>
 6    4  0.1195577E-003  0.1269439E+03  0.7818608E-02  0.1232062E+00
         -4   -1    0    0    0  501 -0.00000000000E+00  0.00000000000E+00  0.77805380633E+02  0.77815744907E+02  0.12700000000E+01 0. -1.
          4   -1    0    0  502    0  0.00000000000E+00 -0.00000000000E+00 -0.81584828619E+02  0.81594712824E+02  0.12700000000E+01 0. -1.
         25    2    1    2    0    0  0.21128754321E+02 -0.65603038712E+01  0.18179521822E+02  0.12823902528E+03  0.12500116297E+03 0.  0.
    9000005    1    3    3    0    0  0.14181780840E+02 -0.18557695884E+02 -0.51832535449E+02  0.56860555004E+02  0.10000000000E+01 0.  0.
    9000005    1    3    3    0    0  0.69469734805E+01  0.11997392013E+02  0.70012057271E+02  0.71378470276E+02  0.10000000000E+01 0.  0.
         21    1    1    2  502  501 -0.21128754321E+02  0.65603038712E+01 -0.21958969808E+02  0.31171432451E+02  0.00000000000E+00 0.  1.
<mgrwt>
<rscale>  1 0.12694390E+03</rscale>
<asrwt>0</asrwt>
<pdfrwt beam="2">  1        4 0.12553070E-01 0.12694390E+03</pdfrwt>
<pdfrwt beam="1">  1       -4 0.11971616E-01 0.12694390E+03</pdfrwt>
<totfact> 0.46093518E+03</totfact>
</mgrwt>
</event>
<event>
 6    4  0.1195577E-003  0.1273485E+03  0.7818608E-02  0.1231444E+00
         -4   -1    0    0    0  501 -0.00000000000E+00  0.00000000000E+00  0.65449128846E+03  0.65449252063E+03  0.12700000000E+01 0. -1.
          4   -1    0    0  502    0  0.00000000000E+00 -0.00000000000E+00 -0.10579123090E+02  0.10655080729E+02  0.12700000000E+01 0. -1.
         25    2    1    2    0    0 -0.59268615102E+01 -0.23597504452E+02  0.61149894150E+03  0.62461875997E+03  0.12500267973E+03 0.  0.
    9000005    1    3    3    0    0  0.14012986045E+02  0.12951347387E+02  0.55007906240E+03  0.55041082481E+03  0.10000000000E+01 0.  0.
    9000005    1    3    3    0    0 -0.19939847555E+02 -0.36548851839E+02  0.61419879109E+02  0.74207935162E+02  0.10000000000E+01 0.  0.
         21    1    1    2  502  501  0.59268615102E+01  0.23597504452E+02  0.32413223863E+02  0.40528841396E+02  0.00000000000E+00 0. -1.
<mgrwt>
<rscale>  1 0.12734850E+03</rscale>
<asrwt>0</asrwt>
<pdfrwt beam="2">  1        4 0.16334954E-02 0.12734850E+03</pdfrwt>
<pdfrwt beam="1">  1       -4 0.10069688E+00 0.12734850E+03</pdfrwt>
<totfact> 0.19014340E+03</totfact>
</mgrwt>
</event>
<event>
 6    4  0.1195577E-003  0.1495270E+03  0.7818608E-02  0.1201055E+00
          4   -1    0    0  502    0  0.00000000000E+00  0.00000000000E+00  0.43462189456E+03  0.43462375008E+03  0.12700000000E+01 0. -1.
         -4   -1    0    0    0  501 -0.00000000000E+00 -0.00000000000E+00 -0.30873254877E+02  0.30899365151E+02  0.12700000000E+01 0. -1.
         25    2    1    2    0    0 -0.38393445493E+02 -0.72529705812E+02  0.26830254940E+03  0.30715563671E+03  0.12499484894E+03 0.  0.
    9000005    1    3    3    0    0  0.21958301600E+02 -0.14130843681E+01 -0.11076994914E+01  0.22054269762E+02  0.10000000000E+01 0.  0.
    9000005    1    3    3    0    0 -0.60351747092E+02 -0.71116621444E+02  0.26941024890E+03  0.28510136694E+03  0.10000000000E+01 0.  0.
         21    1    1    2  502  501  0.38393445493E+02  0.72529705812E+02  0.13544609028E+03  0.15836747852E+03  0.00000000000E+00 0. -1.
<mgrwt>
<rscale>  1 0.14952701E+03</rscale>
<asrwt>0</asrwt>
<pdfrwt beam="1">  1        4 0.66867062E-01 0.14952701E+03</pdfrwt>
<pdfrwt beam="2">  1       -4 0.47518825E-02 0.14952701E+03</pdfrwt>
<totfact> 0.92086650E+02</totfact>
</mgrwt>
</event>
<event>
 6    4  0.1195577E-003  0.1907785E+03  0.7818608E-02  0.1157761E+00
          4   -1    0    0  502    0  0.00000000000E+00  0.00000000000E+00  0.33810690853E+02  0.33834534369E+02  0.12700000000E+01 0. -1.
         -4   -1    0    0    0  501 -0.00000000000E+00 -0.00000000000E+00 -0.10224145234E+04  0.10224153121E+04  0.12700000000E+01 0. -1.
         25    2    1    2    0    0  0.84555187129E+02  0.11671482185E+03 -0.32225381736E+03  0.37449162542E+03  0.12499810159E+03 0.  0.
    9000005    1    3    3    0    0 -0.21438189969E+02  0.48881673299E+02 -0.16298341667E+03  0.17150395938E+03  0.10000000000E+01 0.  0.
    9000005    1    3    3    0    0  0.10599337710E+03  0.67833148555E+02 -0.15927040069E+03  0.20298766605E+03  0.10000000000E+01 0.  0.
         21    1    1    2  502  501 -0.84555187129E+02 -0.11671482185E+03 -0.66635001516E+03  0.68175822108E+03  0.00000000000E+00 0. -1.
<mgrwt>
<rscale>  1 0.19077855E+03</rscale>
<asrwt>0</asrwt>
<pdfrwt beam="1">  1        4 0.52035403E-02 0.19077855E+03</pdfrwt>
<pdfrwt beam="2">  1       -4 0.15729641E+00 0.19077855E+03</pdfrwt>
<totfact> 0.11117046E+02</totfact>
</mgrwt>
</event>
<event>
 6    4  0.1195577E-003  0.1267314E+03  0.7818608E-02  0.1232388E+00
          4   -1    0    0  502    0  0.00000000000E+00  0.00000000000E+00  0.12310797244E+02  0.12376131414E+02  0.12700000000E+01 0. -1.
         -4   -1    0    0    0  501 -0.00000000000E+00 -0.00000000000E+00 -0.45190810447E+03  0.45190988902E+03  0.12700000000E+01 0. -1.
         25    2    1    2    0    0  0.73999403095E+01  0.19489430041E+02 -0.39909604119E+03  0.41873440629E+03  0.12500502357E+03 0.  0.
    9000005    1    3    3    0    0 -0.57876207059E+02  0.20551143494E+02 -0.19659043281E+03  0.20596311105E+03  0.10000000000E+01 0.  0.
    9000005    1    3    3    0    0  0.65276147369E+02 -0.10617134525E+01 -0.20250560838E+03  0.21277129523E+03  0.10000000000E+01 0.  0.
         21    1    1    2  502  501 -0.73999403095E+01 -0.19489430041E+02 -0.40501266044E+02  0.45551614143E+02  0.00000000000E+00 0. -1.
<mgrwt>
<rscale>  1 0.12673142E+03</rscale>
<asrwt>0</asrwt>
<pdfrwt beam="1">  1        4 0.18991321E-02 0.12673142E+03</pdfrwt>
<pdfrwt beam="2">  1       -4 0.69529474E-01 0.12673142E+03</pdfrwt>
<totfact> 0.34405735E+03</totfact>
</mgrwt>
</event>
<event>
 6    4  0.1195577E-003  0.1280777E+03  0.7818608E-02  0.1230336E+00
         -4   -1    0    0    0  501 -0.00000000000E+00  0.00000000000E+00  0.62632581276E+01  0.63907200199E+01  0.12700000000E+01 0.  1.
          4   -1    0    0  502    0  0.00000000000E+00 -0.00000000000E+00 -0.10201488880E+04  0.10201496785E+04  0.12700000000E+01 0.  1.
         25    2    1    2    0    0  0.30381147687E+01 -0.27737025116E+02 -0.71726976601E+03  0.72861499949E+03  0.12500131019E+03 0.  0.
    9000005    1    3    3    0    0  0.19602960218E+01  0.43608412557E+02 -0.44542463964E+03  0.44755965636E+03  0.10000000000E+01 0.  0.
    9000005    1    3    3    0    0  0.10778187469E+01 -0.71345437673E+02 -0.27184512637E+03  0.28105534313E+03  0.10000000000E+01 0.  0.
         21    1    1    2  502  501 -0.30381147687E+01  0.27737025116E+02 -0.29661586387E+03  0.29792539905E+03  0.00000000000E+00 0.  1.
<mgrwt>
<rscale>  1 0.12807771E+03</rscale>
<asrwt>0</asrwt>
<pdfrwt beam="2">  1        4 0.15695572E+00 0.12807771E+03</pdfrwt>
<pdfrwt beam="1">  1       -4 0.97344455E-03 0.12807771E+03</pdfrwt>
<totfact> 0.14168394E+03</totfact>
</mgrwt>
</event>
<event>
 6    4  0.1195577E-003  0.1284466E+03  0.7818608E-02  0.1229779E+00
          4   -1    0    0  502    0  0.00000000000E+00  0.00000000000E+00  0.94704137021E+02  0.94712652106E+02  0.12700000000E+01 0. -1.
         -4   -1    0    0    0  501 -0.00000000000E+00 -0.00000000000E+00 -0.71684361880E+02  0.71695611011E+02  0.12700000000E+01 0. -1.
         25    2    1    2    0    0  0.27918751824E+02  0.96699028185E+01 -0.81143029050E+00  0.12844920522E+03  0.12500230470E+03 0.  0.
    9000005    1    3    3    0    0 -0.46422950544E+02 -0.16478100317E+02 -0.50102951944E+01  0.49524955176E+02  0.10000000000E+01 0.  0.
    9000005    1    3    3    0    0  0.74341702368E+02  0.26148003136E+02  0.41988649039E+01  0.78924250046E+02  0.10000000000E+01 0.  0.
         21    1    1    2  502  501 -0.27918751824E+02 -0.96699028185E+01  0.23831205432E+02  0.37959057894E+02  0.00000000000E+00 0.  1.
<mgrwt>
<rscale>  1 0.12844664E+03</rscale>
<asrwt>0</asrwt>
<pdfrwt beam="1">  1        4 0.14571387E-01 0.12844664E+03</pdfrwt>
<pdfrwt beam="2">  1       -4 0.11029884E-01 0.12844664E+03</pdfrwt>
<totfact> 0.41081957E+03</totfact>
</mgrwt>
</event>
<event>
 6    4  0.1195577E-003  0.1464740E+03  0.7818608E-02  0.1204874E+00
          4   -1    0    0  502    0  0.00000000000E+00  0.00000000000E+00  0.16117146432E+03  0.16117646792E+03  0.12700000000E+01 0. -1.
         -4   -1    0    0    0  501 -0.00000000000E+00 -0.00000000000E+00 -0.15524398492E+03  0.15524917956E+03  0.12700000000E+01 0. -1.
         25    2    1    2    0    0 -0.22200311021E+02 -0.73058734497E+02 -0.10609043659E+03  0.18085852020E+03  0.12499676434E+03 0.  0.
    9000005    1    3    3    0    0 -0.35940599199E+02 -0.94412142114E+02 -0.37584670577E+02  0.10779140370E+03  0.10000000000E+01 0.  0.
    9000005    1    3    3    0    0  0.13740288179E+02  0.21353407617E+02 -0.68505766013E+02  0.73067116496E+02  0.10000000000E+01 0.  0.
         21    1    1    2  502  501  0.22200311021E+02  0.73058734497E+02  0.11201791600E+03  0.13556712728E+03  0.00000000000E+00 0. -1.
<mgrwt>
<rscale>  1 0.14647397E+03</rscale>
<asrwt>0</asrwt>
<pdfrwt beam="1">  1        4 0.24796394E-01 0.14647397E+03</pdfrwt>
<pdfrwt beam="2">  1       -4 0.23884475E-01 0.14647397E+03</pdfrwt>
<totfact> 0.41783908E+02</totfact>
</mgrwt>
</event>
<event>
 6    4  0.1195577E-003  0.1269098E+03  0.7818608E-02  0.1232114E+00
          4   -1    0    0  502    0  0.00000000000E+00  0.00000000000E+00  0.13007700330E+03  0.13008320294E+03  0.12700000000E+01 0. -1.
         -4   -1    0    0    0  501 -0.00000000000E+00 -0.00000000000E+00 -0.42566935800E+02  0.42585877042E+02  0.12700000000E+01 0. -1.
         25    2    1    2    0    0 -0.91759375167E+01  0.19912693378E+02  0.73715580671E+02  0.14676539195E+03  0.12500152100E+03 0.  0.
    9000005    1    3    3    0    0  0.17021277425E+02 -0.56294346616E+01  0.10006652623E+03  0.10166476327E+03  0.10000000000E+01 0.  0.
    9000005    1    3    3    0    0 -0.26197214941E+02  0.25542128039E+02 -0.26350945556E+02  0.45100628678E+02  0.10000000000E+01 0.  0.
         21    1    1    2  502  501  0.91759375167E+01 -0.19912693378E+02  0.13794486825E+02  0.25903688032E+02  0.00000000000E+00 0. -1.
<mgrwt>
<rscale>  1 0.12690978E+03</rscale>
<asrwt>0</asrwt>
<pdfrwt beam="1">  1        4 0.20013781E-01 0.12690978E+03</pdfrwt>
<pdfrwt beam="2">  1       -4 0.65506933E-02 0.12690978E+03</pdfrwt>
<totfact> 0.55596846E+03</totfact>
</mgrwt>
</event>
<event>
 6    4  0.1195577E-003  0.1281093E+03  0.7818608E-02  0.1230289E+00
         -4   -1    0    0    0  501 -0.00000000000E+00  0.00000000000E+00  0.52065147676E+02  0.52080634620E+02  0.12700000000E+01 0.  1.
          4   -1    0    0  502    0  0.00000000000E+00 -0.00000000000E+00 -0.13495350398E+03  0.13495947961E+03  0.12700000000E+01 0.  1.
         25    2    1    2    0    0 -0.12352318558E+02 -0.25187690529E+02 -0.37155601704E+02  0.13338860566E+03  0.12499992742E+03 0.  0.
    9000005    1    3    3    0    0 -0.55073639821E+02  0.12621084529E+02 -0.49369155701E+02  0.75038064424E+02  0.10000000000E+01 0.  0.
    9000005    1    3    3    0    0  0.42721321263E+02 -0.37808775058E+02  0.12213553997E+02  0.58350541241E+02  0.10000000000E+01 0.  0.
         21    1    1    2  502  501  0.12352318558E+02  0.25187690529E+02 -0.45732754598E+02  0.53651508562E+02  0.00000000000E+00 0.  1.
<mgrwt>
<rscale>  1 0.12810926E+03</rscale>
<asrwt>0</asrwt>
<pdfrwt beam="2">  1        4 0.20763728E-01 0.12810926E+03</pdfrwt>
<pdfrwt beam="1">  1       -4 0.80116737E-02 0.12810926E+03</pdfrwt>
<totfact> 0.37465176E+03</totfact>
</mgrwt>
</event>
<event>
 6    4  0.1195577E-003  0.1276977E+03  0.7818608E-02  0.1230912E+00
          4   -1    0    0  502    0  0.00000000000E+00  0.00000000000E+00  0.29239481802E+03  0.29239757609E+03  0.12700000000E+01 0. -1.
         -4   -1    0    0    0  501 -0.00000000000E+00 -0.00000000000E+00 -0.22043439937E+02  0.22079994209E+02  0.12700000000E+01 0. -1.
         25    2    1    2    0    0 -0.41606404977E+01  0.25817841910E+02  0.18194949819E+03  0.22228882772E+03  0.12499132429E+03 0.  0.
    9000005    1    3    3    0    0 -0.46818092945E+02 -0.29274283233E+02  0.57950016610E+02  0.80050745849E+02  0.10000000000E+01 0.  0.
    9000005    1    3    3    0    0  0.42657452447E+02  0.55092125143E+02  0.12399948158E+03  0.14223808187E+03  0.10000000000E+01 0.  0.
         21    1    1    2  502  501  0.41606404977E+01 -0.25817841910E+02  0.88401879893E+02  0.92188742582E+02  0.00000000000E+00 0. -1.
<mgrwt>
<rscale>  1 0.12769770E+03</rscale>
<asrwt>0</asrwt>
<pdfrwt beam="1">  1        4 0.44986842E-01 0.12769770E+03</pdfrwt>
<pdfrwt beam="2">  1       -4 0.33943225E-02 0.12769770E+03</pdfrwt>
<totfact> 0.34490455E+03</totfact>
</mgrwt>
</event>
<event>
 6    4  0.1195577E-003  0.1279445E+03  0.7818608E-02  0.1230538E+00
          4   -1    0    0  502    0  0.00000000000E+00  0.00000000000E+00  0.28339383903E+02  0.28367826494E+02  0.12700000000E+01 0. -1.
         -4   -1    0    0    0  501 -0.00000000000E+00 -0.00000000000E+00 -0.23327384244E+03  0.23327729951E+03  0.12700000000E+01 0. -1.
         25    2    1    2    0    0 -0.26434903249E+02 -0.67891244299E+01 -0.19367676637E+03  0.23212171236E+03  0.12499961278E+03 0.  0.
    9000005    1    3    3    0    0 -0.62148147584E+02 -0.12581213801E+02 -0.41709091741E+02  0.75903409164E+02  0.10000000000E+01 0.  0.
    9000005    1    3    3    0    0  0.35713244335E+02  0.57920893716E+01 -0.15196767463E+03  0.15621830320E+03  0.10000000000E+01 0.  0.
         21    1    1    2  502  501  0.26434903249E+02  0.67891244299E+01 -0.11257692161E+02  0.29523413642E+02  0.00000000000E+00 0. -1.
<mgrwt>
<rscale>  1 0.12794452E+03</rscale>
<asrwt>0</asrwt>
<pdfrwt beam="1">  1        4 0.43623592E-02 0.12794452E+03</pdfrwt>
<pdfrwt beam="2">  1       -4 0.35890736E-01 0.12794452E+03</pdfrwt>
<totfact> 0.36169022E+03</totfact>
</mgrwt>
</event>
<event>
 6    4  0.1195577E-003  0.1428933E+03  0.7818608E-02  0.1209488E+00
         -4   -1    0    0    0  501 -0.00000000000E+00  0.00000000000E+00  0.36898105770E+02  0.36919955436E+02  0.12700000000E+01 0. -1.
          4   -1    0    0  502    0  0.00000000000E+00 -0.00000000000E+00 -0.42125755839E+03  0.42125947278E+03  0.12700000000E+01 0. -1.
         25    2    1    2    0    0 -0.19013499856E+02 -0.66559440125E+02 -0.12535765681E+03  0.19008690224E+03  0.12500726393E+03 0.  0.
    9000005    1    3    3    0    0 -0.35236754207E+02 -0.40829219204E+02 -0.14442744699E+03  0.15417179194E+03  0.10000000000E+01 0.  0.
    9000005    1    3    3    0    0  0.16223254351E+02 -0.25730220921E+02  0.19069790177E+02  0.35915110298E+02  0.10000000000E+01 0.  0.
         21    1    1    2  502  501  0.19013499856E+02  0.66559440125E+02 -0.25900179581E+03  0.26809252597E+03  0.00000000000E+00 0. -1.
<mgrwt>
<rscale>  1 0.14289328E+03</rscale>
<asrwt>0</asrwt>
<pdfrwt beam="2">  1        4 0.64810680E-01 0.14289328E+03</pdfrwt>
<pdfrwt beam="1">  1       -4 0.56784600E-02 0.14289328E+03</pdfrwt>
<totfact> 0.73184289E+02</totfact>
</mgrwt>
</event>
<event>
 6    4  0.1195577E-003  0.1283379E+03  0.7818608E-02  0.1229943E+00
         -4   -1    0    0    0  501 -0.00000000000E+00  0.00000000000E+00  0.48011327069E+01  0.49662637132E+01  0.12700000000E+01 0.  1.
          4   -1    0    0  502    0  0.00000000000E+00 -0.00000000000E+00 -0.12701198502E+04  0.12701204851E+04  0.12700000000E+01 0.  1.
         25    2    1    2    0    0  0.22440451934E+02 -0.18496551698E+02 -0.10493696106E+04  0.10571883481E+04  0.12499970911E+03 0.  0.
    9000005    1    3    3    0    0 -0.11889774391E+02 -0.33291888741E+02 -0.84603024474E+02  0.91697264633E+02  0.10000000000E+01 0.  0.
    9000005    1    3    3    0    0  0.34330226325E+02  0.14795337043E+02 -0.96476658617E+03  0.96549108346E+03  0.10000000000E+01 0.  0.
         21    1    1    2  502  501 -0.22440451934E+02  0.18496551698E+02 -0.21594910680E+03  0.21789840072E+03  0.00000000000E+00 0.  1.
<mgrwt>
<rscale>  1 0.12833793E+03</rscale>
<asrwt>0</asrwt>
<pdfrwt beam="2">  1        4 0.19541554E+00 0.12833793E+03</pdfrwt>
<pdfrwt beam="1">  1       -4 0.75138804E-03 0.12833793E+03</pdfrwt>
<totfact> 0.11579097E+03</totfact>
</mgrwt>
</event>
<event>
 6    4  0.1195577E-003  0.1309383E+03  0.7818608E-02  0.1226070E+00
          4   -1    0    0  502    0  0.00000000000E+00  0.00000000000E+00  0.61577118527E+01  0.62873138351E+01  0.12700000000E+01 0. -1.
         -4   -1    0    0    0  501 -0.00000000000E+00 -0.00000000000E+00 -0.29406721666E+04  0.29406724409E+04  0.12700000000E+01 0. -1.
         25    2    1    2    0    0  0.72321913792E+01  0.38299710928E+02 -0.28588447424E+04  0.28618417318E+04  0.12500265760E+03 0.  0.
    9000005    1    3    3    0    0 -0.12904189464E+02 -0.41628614446E+02 -0.13921348223E+04  0.13928172253E+04  0.10000000000E+01 0.  0.
    9000005    1    3    3    0    0  0.20136380843E+02  0.79928325374E+02 -0.14667099201E+04  0.14690245065E+04  0.10000000000E+01 0.  0.
         21    1    1    2  502  501 -0.72321913792E+01 -0.38299710928E+02 -0.75669712444E+02  0.85118022948E+02  0.00000000000E+00 0. -1.
<mgrwt>
<rscale>  1 0.13093829E+03</rscale>
<asrwt>0</asrwt>
<pdfrwt beam="1">  1        4 0.95733311E-03 0.13093829E+03</pdfrwt>
<pdfrwt beam="2">  1       -4 0.45241998E+00 0.13093829E+03</pdfrwt>
<totfact> 0.21133149E+01</totfact>
</mgrwt>
</event>
<event>
 6    4  0.1195577E-003  0.1276768E+03  0.7818608E-02  0.1230944E+00
         -4   -1    0    0    0  501 -0.00000000000E+00  0.00000000000E+00  0.64884796406E+03  0.64884920695E+03  0.12700000000E+01 0.  1.
          4   -1    0    0  502    0  0.00000000000E+00 -0.00000000000E+00 -0.14609265548E+02  0.14664362920E+02  0.12700000000E+01 0.  1.
         25    2    1    2    0    0 -0.23006432999E+02 -0.12179896866E+02  0.62159822227E+03  0.63457523048E+03  0.12499490936E+03 0.  0.
    9000005    1    3    3    0    0  0.36583958922E+02  0.25024037749E+02  0.11716250271E+03  0.12527027004E+03  0.10000000000E+01 0.  0.
    9000005    1    3    3    0    0 -0.59590391921E+02 -0.37203934615E+02  0.50443571956E+03  0.50930496044E+03  0.10000000000E+01 0.  0.
         21    1    1    2  502  501  0.23006432999E+02  0.12179896866E+02  0.12640476240E+02  0.28938339389E+02  0.00000000000E+00 0. -1.
<mgrwt>
<rscale>  1 0.12767683E+03</rscale>
<asrwt>0</asrwt>
<pdfrwt beam="2">  1        4 0.22519128E-02 0.12767683E+03</pdfrwt>
<pdfrwt beam="1">  1       -4 0.99827114E-01 0.12767683E+03</pdfrwt>
<totfact> 0.11853799E+03</totfact>
</mgrwt>
</event>
<event>
 6    4  0.1195577E-003  0.1270949E+03  0.7818608E-02  0.1231831E+00
          4   -1    0    0  502    0  0.00000000000E+00  0.00000000000E+00  0.23122056859E+02  0.23156908546E+02  0.12700000000E+01 0.  1.
         -4   -1    0    0    0  501 -0.00000000000E+00 -0.00000000000E+00 -0.24721041660E+03  0.24721367878E+03  0.12700000000E+01 0.  1.
         25    2    1    2    0    0  0.22112434708E+02 -0.61984581527E+01 -0.20096231772E+03  0.23777926223E+03  0.12500297496E+03 0.  0.
    9000005    1    3    3    0    0 -0.34817518325E+02  0.24668566037E+02 -0.23188314077E+02  0.48574639910E+02  0.10000000000E+01 0.  0.
    9000005    1    3    3    0    0  0.56929953033E+02 -0.30867024190E+02 -0.17777400365E+03  0.18920462232E+03  0.10000000000E+01 0.  0.
         21    1    1    2  502  501 -0.22112434708E+02  0.61984581527E+01 -0.23126042023E+02  0.32591325101E+02  0.00000000000E+00 0.  1.
<mgrwt>
<rscale>  1 0.12709494E+03</rscale>
<asrwt>0</asrwt>
<pdfrwt beam="1">  1        4 0.35601715E-02 0.12709494E+03</pdfrwt>
<pdfrwt beam="2">  1       -4 0.38035302E-01 0.12709494E+03</pdfrwt>
<totfact> 0.44519092E+03</totfact>
</mgrwt>
</event>
<event>
 6    4  0.1195577E-003  0.1289881E+03  0.7818608E-02  0.1228965E+00
         -4   -1    0    0    0  501 -0.00000000000E+00  0.00000000000E+00  0.12004115779E+03  0.12004787572E+03  0.12700000000E+01 0.  1.
          4   -1    0    0  502    0  0.00000000000E+00 -0.00000000000E+00 -0.58962444967E+02  0.58976120731E+02  0.12700000000E+01 0.  1.
         25    2    1    2    0    0  0.15136008373E+01 -0.31793457774E+02  0.68915584396E+02  0.14624394915E+03  0.12499927978E+03 0.  0.
    9000005    1    3    3    0    0  0.30107862329E+02 -0.46936085064E+02  0.91229597888E+02  0.10692669913E+03  0.10000000000E+01 0.  0.
    9000005    1    3    3    0    0 -0.28594261491E+02  0.15142627290E+02 -0.22314013492E+02  0.39317250026E+02  0.10000000000E+01 0.  0.
         21    1    1    2  502  501 -0.15136008373E+01  0.31793457774E+02 -0.78368715707E+01  0.32780047296E+02  0.00000000000E+00 0. -1.
<mgrwt>
<rscale>  1 0.12898812E+03</rscale>
<asrwt>0</asrwt>
<pdfrwt beam="2">  1        4 0.90727142E-02 0.12898812E+03</pdfrwt>
<pdfrwt beam="1">  1       -4 0.18469439E-01 0.12898812E+03</pdfrwt>
<totfact> 0.37647209E+03</totfact>
</mgrwt>
</event>
<event>
 6    4  0.1195577E-003  0.1270831E+03  0.7818608E-02  0.1231849E+00
          4   -1    0    0  502    0  0.00000000000E+00  0.00000000000E+00  0.71721148749E+02  0.71732392111E+02  0.12700000000E+01 0.  1.
         -4   -1    0    0    0  501 -0.00000000000E+00 -0.00000000000E+00 -0.95844712774E+02  0.95853126536E+02  0.12700000000E+01 0.  1.
         25    2    1    2    0    0 -0.38236427039E+01 -0.22596724226E+02 -0.46722155779E+02  0.13539967489E+03  0.12499951972E+03 0.  0.
    9000005    1    3    3    0    0 -0.21547907626E+02 -0.55820727583E+02 -0.69236522035E+02  0.91514818114E+02  0.10000000000E+01 0.  0.
    9000005    1    3    3    0    0  0.17724264922E+02  0.33224003356E+02  0.22514366256E+02  0.43884856773E+02  0.10000000000E+01 0.  0.
         21    1    1    2  502  501  0.38236427039E+01  0.22596724226E+02  0.22598591754E+02  0.32185843760E+02  0.00000000000E+00 0.  1.
<mgrwt>
<rscale>  1 0.12708309E+03</rscale>
<asrwt>0</asrwt>
<pdfrwt beam="1">  1        4 0.11035535E-01 0.12708309E+03</pdfrwt>
<pdfrwt beam="2">  1       -4 0.14746852E-01 0.12708309E+03</pdfrwt>
<totfact> 0.40094086E+03</totfact>
</mgrwt>
</event>
<event>
 6    4  0.1195577E-003  0.1620304E+03  0.7818608E-02  0.1186423E+00
         -4   -1    0    0    0  501 -0.00000000000E+00  0.00000000000E+00  0.13456132414E+03  0.13456731718E+03  0.12700000000E+01 0. -1.
          4   -1    0    0  502    0  0.00000000000E+00 -0.00000000000E+00 -0.13075875815E+03  0.13076492547E+03  0.12700000000E+01 0. -1.
         25    2    1    2    0    0  0.97343376163E+02  0.33940690307E+02  0.71383054309E+01  0.16218753606E+03  0.12500455234E+03 0.  0.
    9000005    1    3    3    0    0 -0.27786839797E+02 -0.97847379621E+01  0.11569302309E+01  0.29498949989E+02  0.10000000000E+01 0.  0.
    9000005    1    3    3    0    0  0.12513021596E+03  0.43725428270E+02  0.59813752001E+01  0.13268858607E+03  0.10000000000E+01 0.  0.
         21    1    1    2  502  501 -0.97343376163E+02 -0.33940690307E+02 -0.33357394486E+01  0.10314470660E+03  0.00000000000E+00 0. -1.
<mgrwt>
<rscale>  1 0.16203037E+03</rscale>
<asrwt>0</asrwt>
<pdfrwt beam="2">  1        4 0.20117668E-01 0.16203037E+03</pdfrwt>
<pdfrwt beam="1">  1       -4 0.20702677E-01 0.16203037E+03</pdfrwt>
<totfact> 0.81013803E+02</totfact>
</mgrwt>
</event>
<event>
 6    4  0.1195577E-003  0.1313411E+03  0.7818608E-02  0.1225479E+00
         -4   -1    0    0    0  501 -0.00000000000E+00  0.00000000000E+00  0.38257908845E+03  0.38258119638E+03  0.12700000000E+01 0.  1.
          4   -1    0    0  502    0  0.00000000000E+00 -0.00000000000E+00 -0.26261715317E+02  0.26292405584E+02  0.12700000000E+01 0.  1.
         25    2    1    2    0    0  0.39206766603E+02  0.93643023868E+01  0.15319418547E+03  0.20178934357E+03  0.12500248001E+03 0.  0.
    9000005    1    3    3    0    0  0.61137817557E+02  0.18879239490E+02  0.20858191833E+02  0.67307671077E+02  0.10000000000E+01 0.  0.
    9000005    1    3    3    0    0 -0.21931050954E+02 -0.95149371034E+01  0.13233599364E+03  0.13448167249E+03  0.10000000000E+01 0.  0.
         21    1    1    2  502  501 -0.39206766603E+02 -0.93643023868E+01  0.20312318766E+03  0.20708425839E+03  0.00000000000E+00 0.  1.
<mgrwt>
<rscale>  1 0.13134109E+03</rscale>
<asrwt>0</asrwt>
<pdfrwt beam="2">  1        4 0.40427868E-02 0.13134109E+03</pdfrwt>
<pdfrwt beam="1">  1       -4 0.58860845E-01 0.13134109E+03</pdfrwt>
<totfact> 0.15199081E+03</totfact>
</mgrwt>
</event>
<event>
 6    4  0.1195577E-003  0.1267086E+03  0.7818608E-02  0.1232423E+00
          4   -1    0    0  502    0  0.00000000000E+00  0.00000000000E+00  0.33469881631E+02  0.33493967762E+02  0.12700000000E+01 0.  1.
         -4   -1    0    0    0  501 -0.00000000000E+00 -0.00000000000E+00 -0.40812814419E+03  0.40813012016E+03  0.12700000000E+01 0.  1.
         25    2    1    2    0    0 -0.16729006369E+02 -0.12245848460E+02 -0.39363038060E+03  0.41352138838E+03  0.12500096664E+03 0.  0.
    9000005    1    3    3    0    0  0.32662778803E+02 -0.50062065921E+02 -0.24902341942E+03  0.25609906479E+03  0.10000000000E+01 0.  0.
    9000005    1    3    3    0    0 -0.49391785171E+02  0.37816217462E+02 -0.14460696117E+03  0.15742232359E+03  0.10000000000E+01 0.  0.
         21    1    1    2  502  501  0.16729006369E+02  0.12245848460E+02  0.18972118038E+02  0.28102699540E+02  0.00000000000E+00 0.  1.
<mgrwt>
<rscale>  1 0.12670857E+03</rscale>
<asrwt>0</asrwt>
<pdfrwt beam="1">  1        4 0.51512176E-02 0.12670857E+03</pdfrwt>
<pdfrwt beam="2">  1       -4 0.62790947E-01 0.12670857E+03</pdfrwt>
<totfact> 0.89374846E+02</totfact>
</mgrwt>
</event>
<event>
 6    4  0.1195577E-003  0.1286500E+03  0.7818608E-02  0.1229473E+00
          4   -1    0    0  502    0  0.00000000000E+00  0.00000000000E+00  0.54724730885E+03  0.54724878250E+03  0.12700000000E+01 0.  1.
         -4   -1    0    0    0  501 -0.00000000000E+00 -0.00000000000E+00 -0.16411697806E+02  0.16460763192E+02  0.12700000000E+01 0.  1.
         25    2    1    2    0    0 -0.66826282660E+01  0.29691291724E+02  0.24933584928E+03  0.28056939277E+03  0.12499835237E+03 0.  0.
    9000005    1    3    3    0    0 -0.14155529838E+02  0.37695177946E+02  0.26126159416E+03  0.26434811528E+03  0.10000000000E+01 0.  0.
    9000005    1    3    3    0    0  0.74729015715E+01 -0.80038862227E+01 -0.11925744879E+02  0.16221277492E+02  0.10000000000E+01 0.  0.
         21    1    1    2  502  501  0.66826282660E+01 -0.29691291724E+02  0.28149976176E+03  0.28314015292E+03  0.00000000000E+00 0.  1.
<mgrwt>
<rscale>  1 0.12864998E+03</rscale>
<asrwt>0</asrwt>
<pdfrwt beam="1">  1        4 0.84195782E-01 0.12864998E+03</pdfrwt>
<pdfrwt beam="2">  1       -4 0.25287642E-02 0.12864998E+03</pdfrwt>
<totfact> 0.14592089E+03</totfact>
</mgrwt>
</event>
<event>
 6    4  0.1195577E-003  0.1365251E+03  0.7818608E-02  0.1218083E+00
         -4   -1    0    0    0  501 -0.00000000000E+00  0.00000000000E+00  0.24680358814E+02  0.24713012993E+02  0.12700000000E+01 0.  1.
          4   -1    0    0  502    0  0.00000000000E+00 -0.00000000000E+00 -0.38742646969E+03  0.38742855124E+03  0.12700000000E+01 0.  1.
         25    2    1    2    0    0 -0.18123478313E+02 -0.51832587703E+02 -0.21677624125E+03  0.25618554334E+03  0.12499606487E+03 0.  0.
    9000005    1    3    3    0    0  0.43032870638E+02 -0.35272986893E+02 -0.16570424028E+03  0.17479961901E+03  0.10000000000E+01 0.  0.
    9000005    1    3    3    0    0 -0.61156348950E+02 -0.16559600810E+02 -0.51072000970E+02  0.81385924330E+02  0.10000000000E+01 0.  0.
         21    1    1    2  502  501  0.18123478313E+02  0.51832587703E+02 -0.14596986962E+03  0.15595602089E+03  0.00000000000E+00 0.  1.
<mgrwt>
<rscale>  1 0.13652507E+03</rscale>
<asrwt>0</asrwt>
<pdfrwt beam="2">  1        4 0.59606740E-01 0.13652507E+03</pdfrwt>
<pdfrwt beam="1">  1       -4 0.37996505E-02 0.13652507E+03</pdfrwt>
<totfact> 0.16472362E+03</totfact>
</mgrwt>
</event>
<event>
 6    4  0.1195577E-003  0.1269386E+03  0.7818608E-02  0.1232070E+00
          4   -1    0    0  502    0  0.00000000000E+00  0.00000000000E+00  0.31053850598E+03  0.31054110291E+03  0.12700000000E+01 0.  1.
         -4   -1    0    0    0  501 -0.00000000000E+00 -0.00000000000E+00 -0.18177145329E+02  0.18221457470E+02  0.12700000000E+01 0.  1.
         25    2    1    2    0    0 -0.89454975007E+00  0.22102671585E+02  0.23169845650E+03  0.26419231761E+03  0.12499631047E+03 0.  0.
    9000005    1    3    3    0    0  0.51443055124E+02 -0.23001653171E+02  0.12436887012E+03  0.13654332581E+03  0.10000000000E+01 0.  0.
    9000005    1    3    3    0    0 -0.52337604874E+02  0.45104324756E+02  0.10732958637E+03  0.12764899180E+03  0.10000000000E+01 0.  0.
         21    1    1    2  502  501  0.89454975007E+00 -0.22102671585E+02  0.60662904152E+02  0.64570242764E+02  0.00000000000E+00 0.  1.
<mgrwt>
<rscale>  1 0.12693859E+03</rscale>
<asrwt>0</asrwt>
<pdfrwt beam="1">  1        4 0.47778760E-01 0.12693859E+03</pdfrwt>
<pdfrwt beam="2">  1       -4 0.28000924E-02 0.12693859E+03</pdfrwt>
<totfact> 0.41250052E+03</totfact>
</mgrwt>
</event>
<event>
 6    4  0.1195577E-003  0.1426906E+03  0.7818608E-02  0.1209754E+00
          4   -1    0    0  502    0  0.00000000000E+00  0.00000000000E+00  0.19626662745E+03  0.19627073636E+03  0.12700000000E+01 0. -1.
         -4   -1    0    0    0  501 -0.00000000000E+00 -0.00000000000E+00 -0.79299915907E+02  0.79310084875E+02  0.12700000000E+01 0. -1.
         25    2    1    2    0    0  0.64514753626E+02  0.23966972492E+02  0.33317331633E+01  0.14272948508E+03  0.12499614498E+03 0.  0.
    9000005    1    3    3    0    0  0.52107016716E+02 -0.19650993071E+02 -0.48498428928E+02  0.73853912071E+02  0.10000000000E+01 0.  0.
    9000005    1    3    3    0    0  0.12407736910E+02  0.43617965563E+02  0.51830162092E+02  0.68875573010E+02  0.10000000000E+01 0.  0.
         21    1    1    2  502  501 -0.64514753626E+02 -0.23966972492E+02  0.11363497838E+03  0.13285133615E+03  0.00000000000E+00 0. -1.
<mgrwt>
<rscale>  1 0.14269059E+03</rscale>
<asrwt>0</asrwt>
<pdfrwt beam="1">  1        4 0.30195964E-01 0.14269059E+03</pdfrwt>
<pdfrwt beam="2">  1       -4 0.12201085E-01 0.14269059E+03</pdfrwt>
<totfact> 0.94628915E+02</totfact>
</mgrwt>
</event>
<event>
 6    4  0.1195577E-003  0.1309737E+03  0.7818608E-02  0.1226018E+00
         -4   -1    0    0    0  501 -0.00000000000E+00  0.00000000000E+00  0.13553644175E+02  0.13613014744E+02  0.12700000000E+01 0.  1.
          4   -1    0    0  502    0  0.00000000000E+00 -0.00000000000E+00 -0.63754875544E+03  0.63755002036E+03  0.12700000000E+01 0.  1.
         25    2    1    2    0    0  0.39026349724E+02 -0.24863063030E+01 -0.33769215314E+03  0.36220175478E+03  0.12499953275E+03 0.  0.
    9000005    1    3    3    0    0 -0.37230636625E+02 -0.13210975200E+02 -0.20504655716E+03  0.20881987638E+03  0.10000000000E+01 0.  0.
    9000005    1    3    3    0    0  0.76256986349E+02  0.10724668897E+02 -0.13264559598E+03  0.15338187840E+03  0.10000000000E+01 0.  0.
         21    1    1    2  502  501 -0.39026349724E+02  0.24863063030E+01 -0.28630295813E+03  0.28896128032E+03  0.00000000000E+00 0.  1.
<mgrwt>
<rscale>  1 0.13097374E+03</rscale>
<asrwt>0</asrwt>
<pdfrwt beam="2">  1        4 0.98089065E-01 0.13097374E+03</pdfrwt>
<pdfrwt beam="1">  1       -4 0.20898408E-02 0.13097374E+03</pdfrwt>
<totfact> 0.13929210E+03</totfact>
</mgrwt>
</event>
<event>
 6    4  0.1195577E-003  0.1311788E+03  0.7818608E-02  0.1225717E+00
         -4   -1    0    0    0  501 -0.00000000000E+00  0.00000000000E+00  0.25465958571E+03  0.25466275246E+03  0.12700000000E+01 0.  1.
          4   -1    0    0  502    0  0.00000000000E+00 -0.00000000000E+00 -0.31352628645E+02  0.31378340029E+02  0.12700000000E+01 0.  1.
         25    2    1    2    0    0 -0.34741424495E+02  0.19396773127E+02  0.20213412672E+03  0.24096903764E+03  0.12499868213E+03 0.  0.
    9000005    1    3    3    0    0 -0.14255376065E+02 -0.29201959262E+02  0.18140079236E+03  0.18429112198E+03  0.10000000000E+01 0.  0.
    9000005    1    3    3    0    0 -0.20486048430E+02  0.48598732389E+02  0.20733334358E+02  0.56677915661E+02  0.10000000000E+01 0.  0.
         21    1    1    2  502  501  0.34741424495E+02 -0.19396773127E+02  0.21172830340E+02  0.45072054849E+02  0.00000000000E+00 0.  1.
<mgrwt>
<rscale>  1 0.13117878E+03</rscale>
<asrwt>0</asrwt>
<pdfrwt beam="2">  1        4 0.48257028E-02 0.13117878E+03</pdfrwt>
<pdfrwt beam="1">  1       -4 0.39180619E-01 0.13117878E+03</pdfrwt>
<totfact> 0.26103989E+03</totfact>
</mgrwt>
</event>
<event>
 6    4  0.1195577E-003  0.1333932E+03  0.7818608E-02  0.1222506E+00
          4   -1    0    0  502    0  0.00000000000E+00  0.00000000000E+00  0.42813032993E+02  0.42831865405E+02  0.12700000000E+01 0.  1.
         -4   -1    0    0    0  501 -0.00000000000E+00 -0.00000000000E+00 -0.19074789103E+03  0.19075211882E+03  0.12700000000E+01 0.  1.
         25    2    1    2    0    0 -0.46557855262E+02  0.10131049942E+01 -0.11899345462E+03  0.17875456602E+03  0.12500036945E+03 0.  0.
    9000005    1    3    3    0    0 -0.37376562564E+02 -0.55160095561E+02 -0.97090169519E+02  0.11775884081E+03  0.10000000000E+01 0.  0.
    9000005    1    3    3    0    0 -0.91812926978E+01  0.56173200555E+02 -0.21903285102E+02  0.60995725215E+02  0.10000000000E+01 0.  0.
         21    1    1    2  502  501  0.46557855262E+02 -0.10131049942E+01 -0.28941403419E+02  0.54829418200E+02  0.00000000000E+00 0.  1.
<mgrwt>
<rscale>  1 0.13339323E+03</rscale>
<asrwt>0</asrwt>
<pdfrwt beam="1">  1        4 0.65883944E-02 0.13339323E+03</pdfrwt>
<pdfrwt beam="2">  1       -4 0.29347603E-01 0.13339323E+03</pdfrwt>
<totfact> 0.27583542E+03</totfact>
</mgrwt>
</event>
<event>
 6    4  0.1195577E-003  0.1286851E+03  0.7818608E-02  0.1229420E+00
         -4   -1    0    0    0  501 -0.00000000000E+00  0.00000000000E+00  0.21490671594E+02  0.21528164473E+02  0.12700000000E+01 0.  1.
          4   -1    0    0  502    0  0.00000000000E+00 -0.00000000000E+00 -0.47237921880E+03  0.47238092601E+03  0.12700000000E+01 0.  1.
         25    2    1    2    0    0  0.20395018628E+02 -0.22786953787E+02 -0.17982747492E+03  0.22112839659E+03  0.12499857998E+03 0.  0.
    9000005    1    3    3    0    0  0.69066027252E+02 -0.22469334562E+02 -0.69464667072E+02  0.10050535850E+03  0.10000000000E+01 0.  0.
    9000005    1    3    3    0    0 -0.48671008624E+02 -0.31761922558E+00 -0.11036280785E+03  0.12062303809E+03  0.10000000000E+01 0.  0.
         21    1    1    2  502  501 -0.20395018628E+02  0.22786953787E+02 -0.27106107229E+03  0.27278069389E+03  0.00000000000E+00 0.  1.
<mgrwt>
<rscale>  1 0.12868507E+03</rscale>
<asrwt>0</asrwt>
<pdfrwt beam="2">  1        4 0.72676734E-01 0.12868507E+03</pdfrwt>
<pdfrwt beam="1">  1       -4 0.33092729E-02 0.12868507E+03</pdfrwt>
<totfact> 0.13247907E+03</totfact>
</mgrwt>
</event>
<event>
 6    4  0.1195577E-003  0.1269437E+03  0.7818608E-02  0.1232062E+00
          4   -1    0    0  502    0  0.00000000000E+00  0.00000000000E+00  0.75182015951E+02  0.75192741820E+02  0.12700000000E+01 0. -1.
         -4   -1    0    0    0  501 -0.00000000000E+00 -0.00000000000E+00 -0.96805225937E+02  0.96813556224E+02  0.12700000000E+01 0. -1.
         25    2    1    2    0    0  0.14962498437E+02  0.16679446798E+02 -0.49488754667E+02  0.13624921643E+03  0.12495051755E+03 0.  0.
    9000005    1    3    3    0    0 -0.36882551471E+02  0.23646486604E+02  0.20894405886E+02  0.48549512140E+02  0.10000000000E+01 0.  0.
    9000005    1    3    3    0    0  0.51845049908E+02 -0.69670398064E+01 -0.70383160554E+02  0.87699704293E+02  0.10000000000E+01 0.  0.
         21    1    1    2  502  501 -0.14962498437E+02 -0.16679446798E+02  0.27865544681E+02  0.35757081610E+02  0.00000000000E+00 0.  1.
<mgrwt>
<rscale>  1 0.12694374E+03</rscale>
<asrwt>0</asrwt>
<pdfrwt beam="1">  1        4 0.11567930E-01 0.12694374E+03</pdfrwt>
<pdfrwt beam="2">  1       -4 0.14894578E-01 0.12694374E+03</pdfrwt>
<totfact> 0.36362347E+03</totfact>
</mgrwt>
</event>
<event>
 6    4  0.1195577E-003  0.1302356E+03  0.7818608E-02  0.1227107E+00
         -4   -1    0    0    0  501 -0.00000000000E+00  0.00000000000E+00  0.69823276163E+02  0.69834825081E+02  0.12700000000E+01 0.  1.
          4   -1    0    0  502    0  0.00000000000E+00 -0.00000000000E+00 -0.10644695745E+03  0.10645453326E+03  0.12700000000E+01 0.  1.
         25    2    1    2    0    0  0.27794742009E+02  0.23754257281E+02 -0.91527288751E+01  0.13055681359E+03  0.12499798681E+03 0.  0.
    9000005    1    3    3    0    0  0.36697761602E+02  0.51169948325E+02  0.39253925204E+02  0.74208894090E+02  0.10000000000E+01 0.  0.
    9000005    1    3    3    0    0 -0.89030195935E+01 -0.27415691043E+02 -0.48406654079E+02  0.56347919504E+02  0.10000000000E+01 0.  0.
         21    1    1    2  502  501 -0.27794742009E+02 -0.23754257281E+02 -0.27470952417E+02  0.45732544747E+02  0.00000000000E+00 0. -1.
<mgrwt>
<rscale>  1 0.13023559E+03</rscale>
<asrwt>0</asrwt>
<pdfrwt beam="2">  1        4 0.16377926E-01 0.13023559E+03</pdfrwt>
<pdfrwt beam="1">  1       -4 0.10743514E-01 0.13023559E+03</pdfrwt>
<totfact> 0.35131789E+03</totfact>
</mgrwt>
</event>
<event>
 6    4  0.1195577E-003  0.1284636E+03  0.7818608E-02  0.1229753E+00
          4   -1    0    0  502    0  0.00000000000E+00  0.00000000000E+00  0.10441909706E+04  0.10441917429E+04  0.12700000000E+01 0. -1.
         -4   -1    0    0    0  501 -0.00000000000E+00 -0.00000000000E+00 -0.59408633890E+01  0.60750932345E+01  0.12700000000E+01 0. -1.
         25    2    1    2    0    0  0.16783899680E+02  0.24401386751E+02  0.86924210632E+03  0.87868352890E+03  0.12500311033E+03 0.  0.
    9000005    1    3    3    0    0  0.47932655099E+02 -0.19521242107E+02  0.17875584089E+03  0.18610015843E+03  0.10000000000E+01 0.  0.
    9000005    1    3    3    0    0 -0.31148755419E+02  0.43922628857E+02  0.69048626544E+03  0.69258337047E+03  0.10000000000E+01 0.  0.
         21    1    1    2  502  501 -0.16783899680E+02 -0.24401386751E+02  0.16900800085E+03  0.17158330721E+03  0.00000000000E+00 0. -1.
<mgrwt>
<rscale>  1 0.12846363E+03</rscale>
<asrwt>0</asrwt>
<pdfrwt beam="1">  1        4 0.16065502E+00 0.12846363E+03</pdfrwt>
<pdfrwt beam="2">  1       -4 0.92436453E-03 0.12846363E+03</pdfrwt>
<totfact> 0.14423900E+03</totfact>
</mgrwt>
</event>
<event>
 6    4  0.1195577E-003  0.1268429E+03  0.7818608E-02  0.1232217E+00
          4   -1    0    0  502    0  0.00000000000E+00  0.00000000000E+00  0.13517449328E+03  0.13518045914E+03  0.12700000000E+01 0.  1.
         -4   -1    0    0    0  501 -0.00000000000E+00 -0.00000000000E+00 -0.68608249655E+02  0.68620003066E+02  0.12700000000E+01 0.  1.
         25    2    1    2    0    0 -0.51626827296E+01 -0.20916799931E+02 -0.71067745529E+01  0.12704188340E+03  0.12499987233E+03 0.  0.
    9000005    1    3    3    0    0  0.49600376089E+02 -0.34771536747E+01  0.30510650082E+02  0.58345416909E+02  0.10000000000E+01 0.  0.
    9000005    1    3    3    0    0 -0.54763058819E+02 -0.17439646256E+02 -0.37617424635E+02  0.68696466495E+02  0.10000000000E+01 0.  0.
         21    1    1    2  502  501  0.51626827296E+01  0.20916799931E+02  0.73673018175E+02  0.76758578799E+02  0.00000000000E+00 0.  1.
<mgrwt>
<rscale>  1 0.12684295E+03</rscale>
<asrwt>0</asrwt>
<pdfrwt beam="1">  1        4 0.20797439E-01 0.12684295E+03</pdfrwt>
<pdfrwt beam="2">  1       -4 0.10556479E-01 0.12684295E+03</pdfrwt>
<totfact> 0.23498005E+03</totfact>
</mgrwt>
</event>
<event>
 6    4  0.1195577E-003  0.1273321E+03  0.7818608E-02  0.1231469E+00
         -4   -1    0    0    0  501 -0.00000000000E+00  0.00000000000E+00  0.51577234796E+02  0.51592868201E+02  0.12700000000E+01 0. -1.
          4   -1    0    0  502    0  0.00000000000E+00 -0.00000000000E+00 -0.19141064104E+03  0.19141485418E+03  0.12700000000E+01 0. -1.
         25    2    1    2    0    0 -0.20177395157E+02 -0.13475921264E+02 -0.30391944520E+02  0.13090883179E+03  0.12499889687E+03 0.  0.
    9000005    1    3    3    0    0  0.13707861541E+01 -0.57153827563E+02  0.20232203835E+02  0.60652956496E+02  0.10000000000E+01 0.  0.
    9000005    1    3    3    0    0 -0.21548181311E+02  0.43677906298E+02 -0.50624148356E+02  0.70255875293E+02  0.10000000000E+01 0.  0.
         21    1    1    2  502  501  0.20177395157E+02  0.13475921264E+02 -0.10944146172E+03  0.11209889060E+03  0.00000000000E+00 0.  1.
<mgrwt>
<rscale>  1 0.12733205E+03</rscale>
<asrwt>0</asrwt>
<pdfrwt beam="2">  1        4 0.29449317E-01 0.12733205E+03</pdfrwt>
<pdfrwt beam="1">  1       -4 0.79364859E-02 0.12733205E+03</pdfrwt>
<totfact> 0.19961600E+03</totfact>
</mgrwt>
</event>
<event>
 6    4  0.1195577E-003  0.1318672E+03  0.7818608E-02  0.1224711E+00
          4   -1    0    0  502    0  0.00000000000E+00  0.00000000000E+00  0.39950312128E+02  0.39970493356E+02  0.12700000000E+01 0. -1.
         -4   -1    0    0    0  501 -0.00000000000E+00 -0.00000000000E+00 -0.19060521561E+03  0.19060944656E+03  0.12700000000E+01 0. -1.
         25    2    1    2    0    0 -0.47449369700E+01  0.41874223716E+02 -0.10609683622E+03  0.16924979727E+03  0.12495195149E+03 0.  0.
    9000005    1    3    3    0    0 -0.93230331410E+01  0.78856239128E+02 -0.30697230991E+02  0.85138389619E+02  0.10000000000E+01 0.  0.
    9000005    1    3    3    0    0  0.45780961710E+01 -0.36982015412E+02 -0.75399605233E+02  0.84111407655E+02  0.10000000000E+01 0.  0.
         21    1    1    2  502  501  0.47449369700E+01 -0.41874223716E+02 -0.44558067255E+02  0.61330142639E+02  0.00000000000E+00 0. -1.
<mgrwt>
<rscale>  1 0.13186719E+03</rscale>
<asrwt>0</asrwt>
<pdfrwt beam="1">  1        4 0.61480798E-02 0.13186719E+03</pdfrwt>
<pdfrwt beam="2">  1       -4 0.29325757E-01 0.13186719E+03</pdfrwt>
<totfact> 0.30837333E+03</totfact>
</mgrwt>
</event>
<event>
 6    4  0.1195577E-003  0.1328637E+03  0.7818608E-02  0.1223267E+00
         -4   -1    0    0    0  501 -0.00000000000E+00  0.00000000000E+00  0.43849574375E+02  0.43867961804E+02  0.12700000000E+01 0. -1.
          4   -1    0    0  502    0  0.00000000000E+00 -0.00000000000E+00 -0.18338770017E+03  0.18339209763E+03  0.12700000000E+01 0. -1.
         25    2    1    2    0    0 -0.23951108351E+02 -0.38140394421E+02 -0.90962010974E+02  0.16101819798E+03  0.12499770943E+03 0.  0.
    9000005    1    3    3    0    0 -0.33313118839E+02 -0.57475314591E+02 -0.11245409579E+03  0.13061431520E+03  0.10000000000E+01 0.  0.
    9000005    1    3    3    0    0  0.93620104875E+01  0.19334920170E+02  0.21492084819E+02  0.30403882782E+02  0.10000000000E+01 0.  0.
         21    1    1    2  502  501  0.23951108351E+02  0.38140394421E+02 -0.48576114821E+02  0.66241861454E+02  0.00000000000E+00 0. -1.
<mgrwt>
<rscale>  1 0.13286374E+03</rscale>
<asrwt>0</asrwt>
<pdfrwt beam="2">  1        4 0.28215245E-01 0.13286374E+03</pdfrwt>
<pdfrwt beam="1">  1       -4 0.67478411E-02 0.13286374E+03</pdfrwt>
<totfact> 0.28534930E+03</totfact>
</mgrwt>
</event>
<event>
 6    4  0.1195577E-003  0.1280076E+03  0.7818608E-02  0.1230442E+00
          4   -1    0    0  502    0  0.00000000000E+00  0.00000000000E+00  0.45668014392E+02  0.45685669947E+02  0.12700000000E+01 0. -1.
         -4   -1    0    0    0  501 -0.00000000000E+00 -0.00000000000E+00 -0.15697144770E+03  0.15697658517E+03  0.12700000000E+01 0. -1.
         25    2    1    2    0    0  0.12872844311E+02 -0.24391989006E+02 -0.11819951034E+03  0.17423277875E+03  0.12500103078E+03 0.  0.
    9000005    1    3    3    0    0  0.44442802998E+02 -0.62691186773E+02 -0.58472128876E+02  0.96567787034E+02  0.10000000000E+01 0.  0.
    9000005    1    3    3    0    0 -0.31569958688E+02  0.38299197767E+02 -0.59727381469E+02  0.77664991716E+02  0.10000000000E+01 0.  0.
         21    1    1    2  502  501 -0.12872844311E+02  0.24391989006E+02  0.68960770370E+01  0.28429476372E+02  0.00000000000E+00 0. -1.
<mgrwt>
<rscale>  1 0.12800757E+03</rscale>
<asrwt>0</asrwt>
<pdfrwt beam="1">  1        4 0.70276017E-02 0.12800757E+03</pdfrwt>
<pdfrwt beam="2">  1       -4 0.24151207E-01 0.12800757E+03</pdfrwt>
<totfact> 0.35305687E+03</totfact>
</mgrwt>
</event>
<event>
 6    4  0.1195577E-003  0.1333690E+03  0.7818608E-02  0.1222541E+00
          4   -1    0    0  502    0  0.00000000000E+00  0.00000000000E+00  0.42320816932E+03  0.42321007488E+03  0.12700000000E+01 0.  1.
         -4   -1    0    0    0  501 -0.00000000000E+00 -0.00000000000E+00 -0.25346384119E+02  0.25378181336E+02  0.12700000000E+01 0.  1.
         25    2    1    2    0    0  0.46056151175E+02  0.64133076492E+01  0.17021946471E+03  0.21624513569E+03  0.12499997187E+03 0.  0.
    9000005    1    3    3    0    0 -0.23889726396E+02 -0.36719254967E+02  0.28035615055E+02  0.52019404304E+02  0.10000000000E+01 0.  0.
    9000005    1    3    3    0    0  0.69945877571E+02  0.43132562616E+02  0.14218384966E+03  0.16422573139E+03  0.10000000000E+01 0.  0.
         21    1    1    2  502  501 -0.46056151175E+02 -0.64133076492E+01  0.22764232049E+03  0.23234312053E+03  0.00000000000E+00 0.  1.
<mgrwt>
<rscale>  1 0.13336901E+03</rscale>
<asrwt>0</asrwt>
<pdfrwt beam="1">  1        4 0.65111542E-01 0.13336901E+03</pdfrwt>
<pdfrwt beam="2">  1       -4 0.39020362E-02 0.13336901E+03</pdfrwt>
<totfact> 0.13037863E+03</totfact>
</mgrwt>
</event>
<event>
 6    4  0.1195577E-003  0.1283627E+03  0.7818608E-02  0.1229906E+00
          4   -1    0    0  502    0  0.00000000000E+00  0.00000000000E+00  0.22652554158E+03  0.22652910164E+03  0.12700000000E+01 0. -1.
         -4   -1    0    0    0  501 -0.00000000000E+00 -0.00000000000E+00 -0.27574635314E+02  0.27603865901E+02  0.12700000000E+01 0. -1.
         25    2    1    2    0    0 -0.11582012529E+02 -0.26788991729E+02  0.17005556988E+03  0.21306310564E+03  0.12500078817E+03 0.  0.
    9000005    1    3    3    0    0 -0.17260962591E+02 -0.24814189482E+02  0.18990539065E+03  0.19229857573E+03  0.10000000000E+01 0.  0.
    9000005    1    3    3    0    0  0.56789500623E+01 -0.19748022472E+01 -0.19849820767E+02  0.20764529906E+02  0.10000000000E+01 0.  0.
         21    1    1    2  502  501  0.11582012529E+02  0.26788991729E+02  0.28895336383E+02  0.41069861903E+02  0.00000000000E+00 0. -1.
<mgrwt>
<rscale>  1 0.12836273E+03</rscale>
<asrwt>0</asrwt>
<pdfrwt beam="1">  1        4 0.34852606E-01 0.12836273E+03</pdfrwt>
<pdfrwt beam="2">  1       -4 0.42447739E-02 0.12836273E+03</pdfrwt>
<totfact> 0.40012337E+03</totfact>
</mgrwt>
</event>
<event>
 6    4  0.1195577E-003  0.1269466E+03  0.7818608E-02  0.1232058E+00
         -4   -1    0    0    0  501 -0.00000000000E+00  0.00000000000E+00  0.45338838740E+02  0.45356622430E+02  0.12700000000E+01 0.  1.
          4   -1    0    0  502    0  0.00000000000E+00 -0.00000000000E+00 -0.23259245791E+03  0.23259592510E+03  0.12700000000E+01 0.  1.
         25    2    1    2    0    0  0.21931962938E+02 -0.31282885354E+01 -0.46079883475E+02  0.13505111004E+03  0.12499859790E+03 0.  0.
    9000005    1    3    3    0    0 -0.44543594025E+02 -0.15463711807E+01  0.12635967530E+02  0.46337789200E+02  0.10000000000E+01 0.  0.
    9000005    1    3    3    0    0  0.66475556964E+02 -0.15819173547E+01 -0.58715851004E+02  0.88713320845E+02  0.10000000000E+01 0.  0.
         21    1    1    2  502  501 -0.21931962938E+02  0.31282885354E+01 -0.14117373569E+03  0.14290143749E+03  0.00000000000E+00 0.  1.
<mgrwt>
<rscale>  1 0.12694663E+03</rscale>
<asrwt>0</asrwt>
<pdfrwt beam="2">  1        4 0.35785089E-01 0.12694663E+03</pdfrwt>
<pdfrwt beam="1">  1       -4 0.69768408E-02 0.12694663E+03</pdfrwt>
<totfact> 0.17005435E+03</totfact>
</mgrwt>
</event>
<event>
 6    4  0.1195577E-003  0.1298183E+03  0.7818608E-02  0.1227726E+00
          4   -1    0    0  502    0  0.00000000000E+00  0.00000000000E+00  0.26050888061E+04  0.26050891157E+04  0.12700000000E+01 0.  1.
         -4   -1    0    0    0  501 -0.00000000000E+00 -0.00000000000E+00 -0.79726866994E+01  0.80732046429E+01  0.12700000000E+01 0.  1.
         25    2    1    2    0    0  0.24738688958E+02 -0.24832512106E+02  0.52715386922E+03  0.54290330908E+03  0.12499657912E+03 0.  0.
    9000005    1    3    3    0    0  0.51354565278E+02  0.89614083741E+01  0.46130698344E+03  0.46424425811E+03  0.10000000000E+01 0.  0.
    9000005    1    3    3    0    0 -0.26615876319E+02 -0.33793920480E+02  0.65846885777E+02  0.78659050975E+02  0.10000000000E+01 0.  0.
         21    1    1    2  502  501 -0.24738688958E+02  0.24832512106E+02  0.20699622502E+04  0.20702590113E+04  0.00000000000E+00 0.  1.
<mgrwt>
<rscale>  1 0.12981834E+03</rscale>
<asrwt>0</asrwt>
<pdfrwt beam="1">  1        4 0.40079087E+00 0.12981834E+03</pdfrwt>
<pdfrwt beam="2">  1       -4 0.12343225E-02 0.12981834E+03</pdfrwt>
<totfact> 0.32563262E+01</totfact>
</mgrwt>
</event>
<event>
 6    4  0.1195577E-003  0.1286287E+03  0.7818608E-02  0.1229505E+00
         -4   -1    0    0    0  501 -0.00000000000E+00  0.00000000000E+00  0.96926405255E+02  0.96934725128E+02  0.12700000000E+01 0.  1.
          4   -1    0    0  502    0  0.00000000000E+00 -0.00000000000E+00 -0.69727392748E+02  0.69738957544E+02  0.12700000000E+01 0.  1.
         25    2    1    2    0    0 -0.28509828679E+02 -0.10322407117E+02  0.38575699046E+02  0.13428863340E+03  0.12500396027E+03 0.  0.
    9000005    1    3    3    0    0  0.39625087065E+02 -0.28423567706E+02 -0.85014563689E+01  0.49510821912E+02  0.10000000000E+01 0.  0.
    9000005    1    3    3    0    0 -0.68134915744E+02  0.18101160589E+02  0.47077155415E+02  0.84777811485E+02  0.10000000000E+01 0.  0.
         21    1    1    2  502  501  0.28509828679E+02  0.10322407117E+02 -0.11376686539E+02  0.32385049276E+02  0.00000000000E+00 0.  1.
<mgrwt>
<rscale>  1 0.12862874E+03</rscale>
<asrwt>0</asrwt>
<pdfrwt beam="2">  1        4 0.10728821E-01 0.12862874E+03</pdfrwt>
<pdfrwt beam="1">  1       -4 0.14913284E-01 0.12862874E+03</pdfrwt>
<totfact> 0.41364849E+03</totfact>
</mgrwt>
</event>
<event>
 6    4  0.1195577E-003  0.1267392E+03  0.7818608E-02  0.1232376E+00
         -4   -1    0    0    0  501 -0.00000000000E+00  0.00000000000E+00  0.51975089637E+03  0.51975244798E+03  0.12700000000E+01 0.  1.
          4   -1    0    0  502    0  0.00000000000E+00 -0.00000000000E+00 -0.15264720896E+02  0.15317460757E+02  0.12700000000E+01 0.  1.
         25    2    1    2    0    0 -0.71072577418E+01  0.19679477588E+02  0.49690825828E+03  0.51281637464E+03  0.12500008799E+03 0.  0.
    9000005    1    3    3    0    0  0.22001056079E+02  0.42393825561E+00  0.46498704270E+03  0.46550851342E+03  0.10000000000E+01 0.  0.
    9000005    1    3    3    0    0 -0.29108313820E+02  0.19255539333E+02  0.31921215584E+02  0.47307861216E+02  0.10000000000E+01 0.  0.
         21    1    1    2  502  501  0.71072577418E+01 -0.19679477588E+02  0.75779171927E+01  0.22253534095E+02  0.00000000000E+00 0.  1.
<mgrwt>
<rscale>  1 0.12673917E+03</rscale>
<asrwt>0</asrwt>
<pdfrwt beam="2">  1        4 0.23525947E-02 0.12673917E+03</pdfrwt>
<pdfrwt beam="1">  1       -4 0.79965858E-01 0.12673917E+03</pdfrwt>
<totfact> 0.18235639E+03</totfact>
</mgrwt>
</event>
<event>
 6    4  0.1195577E-003  0.1267049E+03  0.7818608E-02  0.1232429E+00
         -4   -1    0    0    0  501 -0.00000000000E+00  0.00000000000E+00  0.10621381857E+04  0.10621389449E+04  0.12700000000E+01 0.  1.
          4   -1    0    0  502    0  0.00000000000E+00 -0.00000000000E+00 -0.76195650402E+01  0.77246793721E+01  0.12700000000E+01 0.  1.
         25    2    1    2    0    0 -0.10984587932E+02 -0.17573942224E+02  0.10299808259E+04  0.10377449695E+04  0.12499846136E+03 0.  0.
    9000005    1    3    3    0    0 -0.59218958599E+02 -0.40421658018E+02  0.67028746214E+03  0.67411206591E+03  0.10000000000E+01 0.  0.
    9000005    1    3    3    0    0  0.48234370666E+02  0.22847715794E+02  0.35969336380E+03  0.36363290361E+03  0.10000000000E+01 0.  0.
         21    1    1    2  502  501  0.10984587932E+02  0.17573942224E+02  0.24537794683E+02  0.32118654786E+02  0.00000000000E+00 0.  1.
<mgrwt>
<rscale>  1 0.12670485E+03</rscale>
<asrwt>0</asrwt>
<pdfrwt beam="2">  1        4 0.11803847E-02 0.12670485E+03</pdfrwt>
<pdfrwt beam="1">  1       -4 0.16341405E+00 0.12670485E+03</pdfrwt>
<totfact> 0.95201772E+02</totfact>
</mgrwt>
</event>
<event>
 6    4  0.1195577E-003  0.1992790E+03  0.7818608E-02  0.1150349E+00
          4   -1    0    0  502    0  0.00000000000E+00  0.00000000000E+00  0.43873634533E+03  0.43873818345E+03  0.12700000000E+01 0. -1.
         -4   -1    0    0    0  501 -0.00000000000E+00 -0.00000000000E+00 -0.80308966368E+02  0.80319007583E+02  0.12700000000E+01 0. -1.
         25    2    1    2    0    0 -0.20368094975E+01  0.15519332362E+03  0.11419040972E+03  0.22967714087E+03  0.12499209204E+03 0.  0.
    9000005    1    3    3    0    0  0.13418417498E+02  0.16503512921E+03  0.12581114770E+03  0.20795694911E+03  0.10000000000E+01 0.  0.
    9000005    1    3    3    0    0 -0.15455226995E+02 -0.98418055838E+01 -0.11620737974E+02  0.21720191751E+02  0.10000000000E+01 0.  0.
         21    1    1    2  502  501  0.20368094975E+01 -0.15519332362E+03  0.24423696924E+03  0.28938005017E+03  0.00000000000E+00 0. -1.
<mgrwt>
<rscale>  1 0.19927905E+03</rscale>
<asrwt>0</asrwt>
<pdfrwt beam="1">  1        4 0.67498811E-01 0.19927905E+03</pdfrwt>
<pdfrwt beam="2">  1       -4 0.12356140E-01 0.19927905E+03</pdfrwt>
<totfact> 0.19372244E+02</totfact>
</mgrwt>
</event>
<event>
 6    4  0.1195577E-003  0.1475986E+03  0.7818608E-02  0.1203455E+00
          4   -1    0    0  502    0  0.00000000000E+00  0.00000000000E+00  0.86759821016E+02  0.86769115719E+02  0.12700000000E+01 0. -1.
         -4   -1    0    0    0  501 -0.00000000000E+00 -0.00000000000E+00 -0.15578029895E+03  0.15578547571E+03  0.12700000000E+01 0. -1.
         25    2    1    2    0    0  0.23597596794E+02  0.74857745798E+02 -0.71546088056E+02  0.16402493215E+03  0.12499922788E+03 0.  0.
    9000005    1    3    3    0    0  0.11922025999E+02 -0.52068141237E+01  0.30861779599E+02  0.33506641987E+02  0.10000000000E+01 0.  0.
    9000005    1    3    3    0    0  0.11675570795E+02  0.80064559922E+02 -0.10240786765E+03  0.13051829016E+03  0.10000000000E+01 0.  0.
         21    1    1    2  502  501 -0.23597596794E+02 -0.74857745798E+02  0.25256101173E+01  0.78529659282E+02  0.00000000000E+00 0. -1.
<mgrwt>
<rscale>  1 0.14759856E+03</rscale>
<asrwt>0</asrwt>
<pdfrwt beam="1">  1        4 0.13348778E-01 0.14759856E+03</pdfrwt>
<pdfrwt beam="2">  1       -4 0.23967313E-01 0.14759856E+03</pdfrwt>
<totfact> 0.12561071E+03</totfact>
</mgrwt>
</event>
<event>
 6    4  0.1195577E-003  0.1442845E+03  0.7818608E-02  0.1207677E+00
          4   -1    0    0  502    0  0.00000000000E+00  0.00000000000E+00  0.85964262019E+03  0.85964355831E+03  0.12700000000E+01 0. -1.
         -4   -1    0    0    0  501 -0.00000000000E+00 -0.00000000000E+00 -0.14810598207E+02  0.14864949352E+02  0.12700000000E+01 0. -1.
         25    2    1    2    0    0 -0.51839121595E+02  0.50064201296E+02  0.43267632021E+03  0.45609956741E+03  0.12499719414E+03 0.  0.
    9000005    1    3    3    0    0 -0.88949433428E+02  0.11850361073E+02  0.24136311765E+03  0.25750648017E+03  0.10000000000E+01 0.  0.
    9000005    1    3    3    0    0  0.37110311833E+02  0.38213840223E+02  0.19131320255E+03  0.19859308724E+03  0.10000000000E+01 0.  0.
         21    1    1    2  502  501  0.51839121595E+02 -0.50064201296E+02  0.41215570178E+03  0.41840894026E+03  0.00000000000E+00 0. -1.
<mgrwt>
<rscale>  1 0.14428450E+03</rscale>
<asrwt>0</asrwt>
<pdfrwt beam="1">  1        4 0.13225695E+00 0.14428450E+03</pdfrwt>
<pdfrwt beam="2">  1       -4 0.22828068E-02 0.14428450E+03</pdfrwt>
<totfact> 0.60865690E+02</totfact>
</mgrwt>
</event>
<event>
 6    4  0.1195577E-003  0.1266221E+03  0.7818608E-02  0.1232556E+00
         -4   -1    0    0    0  501 -0.00000000000E+00  0.00000000000E+00  0.49640068668E+03  0.49640231127E+03  0.12700000000E+01 0. -1.
          4   -1    0    0  502    0  0.00000000000E+00 -0.00000000000E+00 -0.16597431783E+02  0.16645949711E+02  0.12700000000E+01 0. -1.
         25    2    1    2    0    0  0.69326241692E+01 -0.18968343430E+02  0.47592821795E+03  0.49248433038E+03  0.12500115080E+03 0.  0.
    9000005    1    3    3    0    0  0.27714223313E+02 -0.48975537202E+02  0.43067301489E+03  0.43433504023E+03  0.10000000000E+01 0.  0.
    9000005    1    3    3    0    0 -0.20781599144E+02  0.30007193772E+02  0.45255203060E+02  0.58149290151E+02  0.10000000000E+01 0.  0.
         21    1    1    2  502  501 -0.69326241692E+01  0.18968343430E+02  0.38750369440E+01  0.20563930599E+02  0.00000000000E+00 0. -1.
<mgrwt>
<rscale>  1 0.12662206E+03</rscale>
<asrwt>0</asrwt>
<pdfrwt beam="2">  1        4 0.25573083E-02 0.12662206E+03</pdfrwt>
<pdfrwt beam="1">  1       -4 0.76373190E-01 0.12662206E+03</pdfrwt>
<totfact> 0.17722221E+03</totfact>
</mgrwt>
</event>
<event>
 6    4  0.1195577E-003  0.1272718E+03  0.7818608E-02  0.1231561E+00
         -4   -1    0    0    0  501 -0.00000000000E+00  0.00000000000E+00  0.68549508749E+02  0.68561272230E+02  0.12700000000E+01 0.  1.
          4   -1    0    0  502    0  0.00000000000E+00 -0.00000000000E+00 -0.18838425500E+03  0.18838853583E+03  0.12700000000E+01 0.  1.
         25    2    1    2    0    0  0.12777650640E+02 -0.20130409420E+02  0.74129827259E+01  0.12748751135E+03  0.12501844463E+03 0.  0.
    9000005    1    3    3    0    0  0.63312745172E+02 -0.33245119876E+02 -0.10495175406E+02  0.72283403375E+02  0.10000000000E+01 0.  0.
    9000005    1    3    3    0    0 -0.50535094532E+02  0.13114710456E+02  0.17908158132E+02  0.55204107975E+02  0.10000000000E+01 0.  0.
         21    1    1    2  502  501 -0.12777650640E+02  0.20130409420E+02 -0.12724772897E+03  0.12946229670E+03  0.00000000000E+00 0.  1.
<mgrwt>
<rscale>  1 0.12727181E+03</rscale>
<asrwt>0</asrwt>
<pdfrwt beam="2">  1        4 0.28983427E-01 0.12727181E+03</pdfrwt>
<pdfrwt beam="1">  1       -4 0.10547313E-01 0.12727181E+03</pdfrwt>
<totfact> 0.12786707E+03</totfact>
</mgrwt>
</event>
<event>
 6    4  0.1195577E-003  0.1282851E+03  0.7818608E-02  0.1230023E+00
          4   -1    0    0  502    0  0.00000000000E+00  0.00000000000E+00  0.69827479171E+02  0.69839027394E+02  0.12700000000E+01 0. -1.
         -4   -1    0    0    0  501 -0.00000000000E+00 -0.00000000000E+00 -0.92311510981E+02  0.92320246748E+02  0.12700000000E+01 0. -1.
         25    2    1    2    0    0  0.10399215866E+02 -0.26903671970E+02 -0.31205525680E+02  0.13202597510E+03  0.12500048804E+03 0.  0.
    9000005    1    3    3    0    0  0.11886674549E+02  0.39964680265E+02 -0.47465478460E+02  0.63185760626E+02  0.10000000000E+01 0.  0.
    9000005    1    3    3    0    0 -0.14874586837E+01 -0.66868352235E+02  0.16259952780E+02  0.68840214470E+02  0.10000000000E+01 0.  0.
         21    1    1    2  502  501 -0.10399215866E+02  0.26903671970E+02  0.87214938692E+01  0.30133299046E+02  0.00000000000E+00 0. -1.
<mgrwt>
<rscale>  1 0.12828512E+03</rscale>
<asrwt>0</asrwt>
<pdfrwt beam="1">  1        4 0.10744249E-01 0.12828512E+03</pdfrwt>
<pdfrwt beam="2">  1       -4 0.14203331E-01 0.12828512E+03</pdfrwt>
<totfact> 0.44887315E+03</totfact>
</mgrwt>
</event>
<event>
 6    4  0.1195577E-003  0.1335270E+03  0.7818608E-02  0.1222314E+00
         -4   -1    0    0    0  501 -0.00000000000E+00  0.00000000000E+00  0.34187497775E+03  0.34187733664E+03  0.12700000000E+01 0. -1.
          4   -1    0    0  502    0  0.00000000000E+00 -0.00000000000E+00 -0.24168387558E+02  0.24201732524E+02  0.12700000000E+01 0. -1.
         25    2    1    2    0    0  0.87129305176E+01 -0.46151691336E+02  0.21412794238E+03  0.25234943339E+03  0.12499426808E+03 0.  0.
    9000005    1    3    3    0    0 -0.56641765517E+02 -0.23108784485E+02  0.12741677446E+03  0.14134475560E+03  0.10000000000E+01 0.  0.
    9000005    1    3    3    0    0  0.65354696034E+02 -0.23042906851E+02  0.86711167910E+02  0.11100467779E+03  0.10000000000E+01 0.  0.
         21    1    1    2  502  501 -0.87129305176E+01  0.46151691336E+02  0.10357864782E+03  0.11372963578E+03  0.00000000000E+00 0. -1.
<mgrwt>
<rscale>  1 0.13352700E+03</rscale>
<asrwt>0</asrwt>
<pdfrwt beam="2">  1        4 0.37209601E-02 0.13352700E+03</pdfrwt>
<pdfrwt beam="1">  1       -4 0.52598894E-01 0.13352700E+03</pdfrwt>
<totfact> 0.21966031E+03</totfact>
</mgrwt>
</event>
<event>
 6    4  0.1195577E-003  0.1266627E+03  0.7818608E-02  0.1232493E+00
         -4   -1    0    0    0  501 -0.00000000000E+00  0.00000000000E+00  0.17032762754E+02  0.17080044117E+02  0.12700000000E+01 0. -1.
          4   -1    0    0  502    0  0.00000000000E+00 -0.00000000000E+00 -0.32200053715E+03  0.32200304164E+03  0.12700000000E+01 0. -1.
         25    2    1    2    0    0  0.27107708733E+01  0.20336339097E+02 -0.24683830896E+03  0.27743935356E+03  0.12499011629E+03 0.  0.
    9000005    1    3    3    0    0 -0.21207220665E+02 -0.30797155427E+00  0.64461236077E+01  0.22189942866E+02  0.10000000000E+01 0.  0.
    9000005    1    3    3    0    0  0.23917991538E+02  0.20644310651E+02 -0.25328443257E+03  0.25524941070E+03  0.10000000000E+01 0.  0.
         21    1    1    2  502  501 -0.27107708733E+01 -0.20336339097E+02 -0.58129465437E+02  0.61643732192E+02  0.00000000000E+00 0.  1.
<mgrwt>
<rscale>  1 0.12666272E+03</rscale>
<asrwt>0</asrwt>
<pdfrwt beam="2">  1        4 0.49542370E-01 0.12666272E+03</pdfrwt>
<pdfrwt beam="1">  1       -4 0.26242549E-02 0.12666272E+03</pdfrwt>
<totfact> 0.42380797E+03</totfact>
</mgrwt>
</event>
<event>
 6    4  0.1195577E-003  0.1321447E+03  0.7818608E-02  0.1224308E+00
          4   -1    0    0  502    0  0.00000000000E+00  0.00000000000E+00  0.21843265038E+03  0.21843634234E+03  0.12700000000E+01 0.  1.
         -4   -1    0    0    0  501 -0.00000000000E+00 -0.00000000000E+00 -0.39233660789E+02  0.39254210461E+02  0.12700000000E+01 0.  1.
         25    2    1    2    0    0  0.21082255937E+02 -0.37328562296E+02  0.93535341806E+02  0.16189836298E+03  0.12499734673E+03 0.  0.
    9000005    1    3    3    0    0 -0.43897970219E+01 -0.49978880437E+02  0.11551281368E+03  0.12594192682E+03  0.10000000000E+01 0.  0.
    9000005    1    3    3    0    0  0.25472052959E+02  0.12650318141E+02 -0.21977471873E+02  0.35956436154E+02  0.10000000000E+01 0.  0.
         21    1    1    2  502  501 -0.21082255937E+02  0.37328562296E+02  0.85663647790E+02  0.95792189823E+02  0.00000000000E+00 0.  1.
<mgrwt>
<rscale>  1 0.13214469E+03</rscale>
<asrwt>0</asrwt>
<pdfrwt beam="1">  1        4 0.33606889E-01 0.13214469E+03</pdfrwt>
<pdfrwt beam="2">  1       -4 0.60378124E-02 0.13214469E+03</pdfrwt>
<totfact> 0.24525049E+03</totfact>
</mgrwt>
</event>
<event>
 6    4  0.1195577E-003  0.1335758E+03  0.7818608E-02  0.1222244E+00
          4   -1    0    0  502    0  0.00000000000E+00  0.00000000000E+00  0.14069030652E+04  0.14069036384E+04  0.12700000000E+01 0. -1.
         -4   -1    0    0    0  501 -0.00000000000E+00 -0.00000000000E+00 -0.59884232488E+01  0.61216103279E+01  0.12700000000E+01 0. -1.
         25    2    1    2    0    0  0.46384033014E+02  0.80264218444E+01  0.11501451568E+04  0.11578758089E+04  0.12500642047E+03 0.  0.
    9000005    1    3    3    0    0  0.41500481462E+01 -0.56380999834E+02  0.49288743685E+03  0.49612001113E+03  0.10000000000E+01 0.  0.
    9000005    1    3    3    0    0  0.42233984867E+02  0.64407421678E+02  0.65725771994E+03  0.66175579776E+03  0.10000000000E+01 0.  0.
         21    1    1    2  502  501 -0.46384033014E+02 -0.80264218444E+01  0.25076948518E+03  0.25514943987E+03  0.00000000000E+00 0. -1.
<mgrwt>
<rscale>  1 0.13357585E+03</rscale>
<asrwt>0</asrwt>
<pdfrwt beam="1">  1        4 0.21645695E+00 0.13357585E+03</pdfrwt>
<pdfrwt beam="2">  1       -4 0.93158499E-03 0.13357585E+03</pdfrwt>
<totfact> 0.62861818E+02</totfact>
</mgrwt>
</event>
<event>
 6    4  0.1195577E-003  0.1503156E+03  0.7818608E-02  0.1200086E+00
          4   -1    0    0  502    0  0.00000000000E+00  0.00000000000E+00  0.67713871447E+02  0.67725780072E+02  0.12700000000E+01 0.  1.
         -4   -1    0    0    0  501 -0.00000000000E+00 -0.00000000000E+00 -0.20429667810E+03  0.20430062551E+03  0.12700000000E+01 0.  1.
         25    2    1    2    0    0  0.79414130461E+02  0.25748620717E+02 -0.10204015934E+03  0.18167824528E+03  0.12500078042E+03 0.  0.
    9000005    1    3    3    0    0  0.18441459705E+02  0.57670814633E+02 -0.24355126635E+01  0.60604801942E+02  0.10000000000E+01 0.  0.
    9000005    1    3    3    0    0  0.60972670756E+02 -0.31922193915E+02 -0.99604646672E+02  0.12107344334E+03  0.10000000000E+01 0.  0.
         21    1    1    2  502  501 -0.79414130461E+02 -0.25748620717E+02 -0.34542647318E+02  0.90348160299E+02  0.00000000000E+00 0.  1.
<mgrwt>
<rscale>  1 0.15031564E+03</rscale>
<asrwt>0</asrwt>
<pdfrwt beam="1">  1        4 0.10418738E-01 0.15031564E+03</pdfrwt>
<pdfrwt beam="2">  1       -4 0.31431478E-01 0.15031564E+03</pdfrwt>
<totfact> 0.11599655E+03</totfact>
</mgrwt>
</event>
<event>
 6    4  0.1195577E-003  0.1349197E+03  0.7818608E-02  0.1220333E+00
         -4   -1    0    0    0  501 -0.00000000000E+00  0.00000000000E+00  0.45968487398E+02  0.45986027592E+02  0.12700000000E+01 0. -1.
          4   -1    0    0  502    0  0.00000000000E+00 -0.00000000000E+00 -0.19787550582E+03  0.19787958132E+03  0.12700000000E+01 0. -1.
         25    2    1    2    0    0  0.48339455479E+02 -0.15526103165E+02 -0.83471775300E+02  0.15865325455E+03  0.12500222026E+03 0.  0.
    9000005    1    3    3    0    0  0.32574807399E+02  0.54223521924E+02 -0.35581045945E+02  0.72583188394E+02  0.10000000000E+01 0.  0.
    9000005    1    3    3    0    0  0.15764648080E+02 -0.69749625090E+02 -0.47890729355E+02  0.86070066152E+02  0.10000000000E+01 0.  0.
         21    1    1    2  502  501 -0.48339455479E+02  0.15526103165E+02 -0.68435243121E+02  0.85212354365E+02  0.00000000000E+00 0. -1.
<mgrwt>
<rscale>  1 0.13491967E+03</rscale>
<asrwt>0</asrwt>
<pdfrwt beam="2">  1        4 0.30444048E-01 0.13491967E+03</pdfrwt>
<pdfrwt beam="1">  1       -4 0.70737378E-02 0.13491967E+03</pdfrwt>
<totfact> 0.22966845E+03</totfact>
</mgrwt>
</event>
<event>
 6    4  0.1195577E-003  0.1370232E+03  0.7818608E-02  0.1217392E+00
         -4   -1    0    0    0  501 -0.00000000000E+00  0.00000000000E+00  0.63722783611E+02  0.63735437953E+02  0.12700000000E+01 0.  1.
          4   -1    0    0  502    0  0.00000000000E+00 -0.00000000000E+00 -0.15170798920E+03  0.15171330491E+03  0.12700000000E+01 0.  1.
         25    2    1    2    0    0  0.55659224461E+02 -0.72461124843E+01 -0.80238346696E+02  0.15878774008E+03  0.12499959483E+03 0.  0.
    9000005    1    3    3    0    0  0.68887511813E+02 -0.30736663187E+02 -0.13912027362E+01  0.75453079412E+02  0.10000000000E+01 0.  0.
    9000005    1    3    3    0    0 -0.13228287352E+02  0.23490550703E+02 -0.78847143959E+02  0.83334660671E+02  0.10000000000E+01 0.  0.
         21    1    1    2  502  501 -0.55659224461E+02  0.72461124843E+01 -0.77468588969E+01  0.56661002784E+02  0.00000000000E+00 0.  1.
<mgrwt>
<rscale>  1 0.13702319E+03</rscale>
<asrwt>0</asrwt>
<pdfrwt beam="2">  1        4 0.23341073E-01 0.13702319E+03</pdfrwt>
<pdfrwt beam="1">  1       -4 0.98048875E-02 0.13702319E+03</pdfrwt>
<totfact> 0.21965308E+03</totfact>
</mgrwt>
</event>
<event>
 6    4  0.1195577E-003  0.1331910E+03  0.7818608E-02  0.1222796E+00
         -4   -1    0    0    0  501 -0.00000000000E+00  0.00000000000E+00  0.42834391876E+03  0.42834580148E+03  0.12700000000E+01 0.  1.
          4   -1    0    0  502    0  0.00000000000E+00 -0.00000000000E+00 -0.19303444489E+02  0.19345176896E+02  0.12700000000E+01 0.  1.
         25    2    1    2    0    0  0.37875965033E+02  0.26098974564E+02  0.33524444970E+03  0.36073352646E+03  0.12499636337E+03 0.  0.
    9000005    1    3    3    0    0  0.45301497472E+02 -0.24625393560E+02  0.28251785159E+03  0.28718630216E+03  0.10000000000E+01 0.  0.
    9000005    1    3    3    0    0 -0.74255324395E+01  0.50724368124E+02  0.52726598109E+02  0.73547224297E+02  0.10000000000E+01 0.  0.
         21    1    1    2  502  501 -0.37875965033E+02 -0.26098974564E+02  0.73796024573E+02  0.86957451913E+02  0.00000000000E+00 0.  1.
<mgrwt>
<rscale>  1 0.13319098E+03</rscale>
<asrwt>0</asrwt>
<pdfrwt beam="2">  1        4 0.29731160E-02 0.13319098E+03</pdfrwt>
<pdfrwt beam="1">  1       -4 0.65902413E-01 0.13319098E+03</pdfrwt>
<totfact> 0.19494502E+03</totfact>
</mgrwt>
</event>
<event>
 6    4  0.1195577E-003  0.1275472E+03  0.7818608E-02  0.1231141E+00
         -4   -1    0    0    0  501 -0.00000000000E+00  0.00000000000E+00  0.26163543878E+02  0.26194349166E+02  0.12700000000E+01 0. -1.
          4   -1    0    0  502    0  0.00000000000E+00 -0.00000000000E+00 -0.25325560685E+03  0.25325879116E+03  0.12700000000E+01 0. -1.
         25    2    1    2    0    0 -0.25188324397E+02 -0.27818972789E+01 -0.14296167671E+03  0.19158896941E+03  0.12500440614E+03 0.  0.
    9000005    1    3    3    0    0 -0.11210977382E+02  0.48921757457E+02 -0.12562635761E+03  0.13528490712E+03  0.10000000000E+01 0.  0.
    9000005    1    3    3    0    0 -0.13977347016E+02 -0.51703654736E+02 -0.17335319098E+02  0.56304062294E+02  0.10000000000E+01 0.  0.
         21    1    1    2  502  501  0.25188324397E+02  0.27818972789E+01 -0.84130386263E+02  0.87864170919E+02  0.00000000000E+00 0. -1.
<mgrwt>
<rscale>  1 0.12754722E+03</rscale>
<asrwt>0</asrwt>
<pdfrwt beam="2">  1        4 0.38965014E-01 0.12754722E+03</pdfrwt>
<pdfrwt beam="1">  1       -4 0.40277754E-02 0.12754722E+03</pdfrwt>
<totfact> 0.34967376E+03</totfact>
</mgrwt>
</event>
<event>
 6    4  0.1195577E-003  0.1490059E+03  0.7818608E-02  0.1201700E+00
          4   -1    0    0  502    0  0.00000000000E+00  0.00000000000E+00  0.19200137178E+02  0.19242093640E+02  0.12700000000E+01 0. -1.
         -4   -1    0    0    0  501 -0.00000000000E+00 -0.00000000000E+00 -0.74794004272E+03  0.74794112094E+03  0.12700000000E+01 0. -1.
         25    2    1    2    0    0 -0.35639875954E+02 -0.72857281336E+02 -0.56691742173E+03  0.58617244013E+03  0.12499752921E+03 0.  0.
    9000005    1    3    3    0    0 -0.44488583613E+02 -0.12705225674E+02 -0.60767138545E+02  0.76382602458E+02  0.10000000000E+01 0.  0.
    9000005    1    3    3    0    0  0.88487076588E+01 -0.60152055662E+02 -0.50615028318E+03  0.50978983767E+03  0.10000000000E+01 0.  0.
         21    1    1    2  502  501  0.35639875954E+02  0.72857281336E+02 -0.16182248381E+03  0.18101077445E+03  0.00000000000E+00 0. -1.
<mgrwt>
<rscale>  1 0.14900593E+03</rscale>
<asrwt>0</asrwt>
<pdfrwt beam="1">  1        4 0.29571782E-02 0.14900593E+03</pdfrwt>
<pdfrwt beam="2">  1       -4 0.11507099E+00 0.14900593E+03</pdfrwt>
<totfact> 0.57316270E+02</totfact>
</mgrwt>
</event>
<event>
 6    4  0.1195577E-003  0.1557709E+03  0.7818608E-02  0.1193556E+00
         -4   -1    0    0    0  501 -0.00000000000E+00  0.00000000000E+00  0.25206817572E+02  0.25238790623E+02  0.12700000000E+01 0.  1.
          4   -1    0    0  502    0  0.00000000000E+00 -0.00000000000E+00 -0.98254373588E+03  0.98254455666E+03  0.12700000000E+01 0.  1.
         25    2    1    2    0    0  0.48140512822E+02  0.79513356360E+02 -0.25135870007E+03  0.29571233436E+03  0.12499882310E+03 0.  0.
    9000005    1    3    3    0    0 -0.12906433127E+02  0.52189422644E+01 -0.16761777670E+03  0.16819789666E+03  0.10000000000E+01 0.  0.
    9000005    1    3    3    0    0  0.61046945949E+02  0.74294414095E+02 -0.83740923368E+02  0.12751443770E+03  0.10000000000E+01 0.  0.
         21    1    1    2  502  501 -0.48140512822E+02 -0.79513356360E+02 -0.70597821824E+03  0.71207101292E+03  0.00000000000E+00 0.  1.
<mgrwt>
<rscale>  1 0.15577095E+03</rscale>
<asrwt>0</asrwt>
<pdfrwt beam="2">  1        4 0.15116307E+00 0.15577095E+03</pdfrwt>
<pdfrwt beam="1">  1       -4 0.38804953E-02 0.15577095E+03</pdfrwt>
<totfact> 0.19173912E+02</totfact>
</mgrwt>
</event>
<event>
 6    4  0.1195577E-003  0.1306407E+03  0.7818608E-02  0.1226508E+00
         -4   -1    0    0    0  501 -0.00000000000E+00  0.00000000000E+00  0.14584543323E+03  0.14585096261E+03  0.12700000000E+01 0.  1.
          4   -1    0    0  502    0  0.00000000000E+00 -0.00000000000E+00 -0.49173285635E+02  0.49189683066E+02  0.12700000000E+01 0.  1.
         25    2    1    2    0    0  0.36794237772E+02  0.93719517409E+01  0.82517337954E+02  0.15451894718E+03  0.12500137824E+03 0.  0.
    9000005    1    3    3    0    0  0.21414505589E+02 -0.47375333623E+02  0.80309481403E+02  0.95674532080E+02  0.10000000000E+01 0.  0.
    9000005    1    3    3    0    0  0.15379732183E+02  0.56747285364E+02  0.22078565508E+01  0.58844415102E+02  0.10000000000E+01 0.  0.
         21    1    1    2  502  501 -0.36794237772E+02 -0.93719517409E+01  0.14154809641E+02  0.40521698491E+02  0.00000000000E+00 0.  1.
<mgrwt>
<rscale>  1 0.13064071E+03</rscale>
<asrwt>0</asrwt>
<pdfrwt beam="2">  1        4 0.75668075E-02 0.13064071E+03</pdfrwt>
<pdfrwt beam="1">  1       -4 0.22439446E-01 0.13064071E+03</pdfrwt>
<totfact> 0.35941276E+03</totfact>
</mgrwt>
</event>
<event>
 6    4  0.1195577E-003  0.1272377E+03  0.7818608E-02  0.1231613E+00
          4   -1    0    0  502    0  0.00000000000E+00  0.00000000000E+00  0.37983291079E+03  0.37983503395E+03  0.12700000000E+01 0.  1.
         -4   -1    0    0    0  501 -0.00000000000E+00 -0.00000000000E+00 -0.15061453653E+02  0.15114902783E+02  0.12700000000E+01 0.  1.
         25    2    1    2    0    0  0.23397748437E+02 -0.41677123187E+01  0.29602939373E+03  0.32221551752E+03  0.12499845326E+03 0.  0.
    9000005    1    3    3    0    0 -0.51330158529E+02 -0.98133642156E+01  0.11877057374E+03  0.12976338651E+03  0.10000000000E+01 0.  0.
    9000005    1    3    3    0    0  0.74727906966E+02  0.56456518968E+01  0.17725882000E+03  0.19245213101E+03  0.10000000000E+01 0.  0.
         21    1    1    2  502  501 -0.23397748437E+02  0.41677123187E+01  0.68742063399E+02  0.72734419213E+02  0.00000000000E+00 0.  1.
<mgrwt>
<rscale>  1 0.12723772E+03</rscale>
<asrwt>0</asrwt>
<pdfrwt beam="1">  1        4 0.58440100E-01 0.12723772E+03</pdfrwt>
<pdfrwt beam="2">  1       -4 0.23214218E-02 0.12723772E+03</pdfrwt>
<totfact> 0.36523019E+03</totfact>
</mgrwt>
</event>
<event>
 6    4  0.1195577E-003  0.1277966E+03  0.7818608E-02  0.1230762E+00
          4   -1    0    0  502    0  0.00000000000E+00  0.00000000000E+00  0.74263196471E+03  0.74263305064E+03  0.12700000000E+01 0.  1.
         -4   -1    0    0    0  501 -0.00000000000E+00 -0.00000000000E+00 -0.11284664454E+02  0.11355903832E+02  0.12700000000E+01 0.  1.
         25    2    1    2    0    0  0.26191804271E+02 -0.44994781327E+01  0.36587888721E+03  0.38755558147E+03  0.12500285082E+03 0.  0.
    9000005    1    3    3    0    0  0.37739554549E+02 -0.11872783159E+02  0.37084302681E+03  0.37294877328E+03  0.10000000000E+01 0.  0.
    9000005    1    3    3    0    0 -0.11547750278E+02  0.73733050266E+01 -0.49641396049E+01  0.14606808191E+02  0.10000000000E+01 0.  0.
         21    1    1    2  502  501 -0.26191804271E+02  0.44994781327E+01  0.36546841304E+03  0.36643337300E+03  0.00000000000E+00 0.  1.
<mgrwt>
<rscale>  1 0.12779659E+03</rscale>
<asrwt>0</asrwt>
<pdfrwt beam="1">  1        4 0.11425664E+00 0.12779659E+03</pdfrwt>
<pdfrwt beam="2">  1       -4 0.17416656E-02 0.12779659E+03</pdfrwt>
<totfact> 0.12831993E+03</totfact>
</mgrwt>
</event>
<event>
 6    4  0.1195577E-003  0.1309300E+03  0.7818608E-02  0.1226082E+00
         -4   -1    0    0    0  501 -0.00000000000E+00  0.00000000000E+00  0.54289929402E+01  0.55755595544E+01  0.12700000000E+01 0.  1.
          4   -1    0    0  502    0  0.00000000000E+00 -0.00000000000E+00 -0.15299542219E+04  0.15299547490E+04  0.12700000000E+01 0.  1.
         25    2    1    2    0    0  0.37842813891E+02 -0.92353401158E+01 -0.86470667759E+03  0.87456291844E+03  0.12500115989E+03 0.  0.
    9000005    1    3    3    0    0  0.45730501118E+02  0.51162381038E+02 -0.52081595333E+03  0.52531811811E+03  0.10000000000E+01 0.  0.
    9000005    1    3    3    0    0 -0.78876872271E+01 -0.60397721154E+02 -0.34389072426E+03  0.34924480034E+03  0.10000000000E+01 0.  0.
         21    1    1    2  502  501 -0.37842813891E+02  0.92353401158E+01 -0.65981855133E+03  0.66096739008E+03  0.00000000000E+00 0.  1.
<mgrwt>
<rscale>  1 0.13092998E+03</rscale>
<asrwt>0</asrwt>
<pdfrwt beam="2">  1        4 0.23538855E+00 0.13092998E+03</pdfrwt>
<pdfrwt beam="1">  1       -4 0.84654581E-03 0.13092998E+03</pdfrwt>
<totfact> 0.55898591E+02</totfact>
</mgrwt>
</event>
<event>
 6    4  0.1195577E-003  0.1639233E+03  0.7818608E-02  0.1184337E+00
         -4   -1    0    0    0  501 -0.00000000000E+00  0.00000000000E+00  0.31363688907E+03  0.31363946035E+03  0.12700000000E+01 0.  1.
          4   -1    0    0  502    0  0.00000000000E+00 -0.00000000000E+00 -0.58255365770E+02  0.58269207485E+02  0.12700000000E+01 0.  1.
         25    2    1    2    0    0  0.83059987921E+02  0.65928330455E+02  0.14516818543E+03  0.21896264404E+03  0.12500132428E+03 0.  0.
    9000005    1    3    3    0    0  0.49445389753E+02  0.99695599398E+02  0.75227222264E+02  0.13432867928E+03  0.10000000000E+01 0.  0.
    9000005    1    3    3    0    0  0.33614598169E+02 -0.33767268944E+02  0.69940963168E+02  0.84633964759E+02  0.10000000000E+01 0.  0.
         21    1    1    2  502  501 -0.83059987921E+02 -0.65928330455E+02  0.11021333787E+03  0.15294602379E+03  0.00000000000E+00 0.  1.
<mgrwt>
<rscale>  1 0.16392327E+03</rscale>
<asrwt>0</asrwt>
<pdfrwt beam="2">  1        4 0.89636266E-02 0.16392327E+03</pdfrwt>
<pdfrwt beam="1">  1       -4 0.48253091E-01 0.16392327E+03</pdfrwt>
<totfact> 0.65427524E+02</totfact>
</mgrwt>
</event>
<event>
 6    4  0.1195577E-003  0.1270436E+03  0.7818608E-02  0.1231910E+00
         -4   -1    0    0    0  501 -0.00000000000E+00  0.00000000000E+00  0.23361135627E+02  0.23395631169E+02  0.12700000000E+01 0. -1.
          4   -1    0    0  502    0  0.00000000000E+00 -0.00000000000E+00 -0.24146648616E+03  0.24146982593E+03  0.12700000000E+01 0. -1.
         25    2    1    2    0    0 -0.89742894829E+00 -0.22759025438E+02 -0.19193050346E+03  0.23016817714E+03  0.12498517109E+03 0.  0.
    9000005    1    3    3    0    0 -0.21840031855E+02  0.45487479634E+02 -0.48719318039E+02  0.70147485665E+02  0.10000000000E+01 0.  0.
    9000005    1    3    3    0    0  0.20942602907E+02 -0.68246505072E+02 -0.14321118542E+03  0.16002069147E+03  0.10000000000E+01 0.  0.
         21    1    1    2  502  501  0.89742894829E+00  0.22759025438E+02 -0.26174847072E+02  0.34697279963E+02  0.00000000000E+00 0.  1.
<mgrwt>
<rscale>  1 0.12704358E+03</rscale>
<asrwt>0</asrwt>
<pdfrwt beam="2">  1        4 0.37151599E-01 0.12704358E+03</pdfrwt>
<pdfrwt beam="1">  1       -4 0.35969314E-02 0.12704358E+03</pdfrwt>
<totfact> 0.45850460E+03</totfact>
</mgrwt>
</event>
<event>
 6    4  0.1195577E-003  0.1367077E+03  0.7818608E-02  0.1217829E+00
         -4   -1    0    0    0  501 -0.00000000000E+00  0.00000000000E+00  0.20245429464E+02  0.20285224036E+02  0.12700000000E+01 0.  1.
          4   -1    0    0  502    0  0.00000000000E+00 -0.00000000000E+00 -0.53676962584E+03  0.53677112825E+03  0.12700000000E+01 0.  1.
         25    2    1    2    0    0 -0.45485251811E+02 -0.31540210381E+02 -0.25090352119E+03  0.28572991405E+03  0.12500125532E+03 0.  0.
    9000005    1    3    3    0    0 -0.39138097965E+02  0.27519866264E+02 -0.20538894790E+03  0.21089038307E+03  0.10000000000E+01 0.  0.
    9000005    1    3    3    0    0 -0.63471538465E+01 -0.59060076645E+02 -0.45514573296E+02  0.74839530982E+02  0.10000000000E+01 0.  0.
         21    1    1    2  502  501  0.45485251811E+02  0.31540210381E+02 -0.26562067519E+03  0.27132643824E+03  0.00000000000E+00 0.  1.
<mgrwt>
<rscale>  1 0.13670774E+03</rscale>
<asrwt>0</asrwt>
<pdfrwt beam="2">  1        4 0.82583108E-01 0.13670774E+03</pdfrwt>
<pdfrwt beam="1">  1       -4 0.31178586E-02 0.13670774E+03</pdfrwt>
<totfact> 0.11130634E+03</totfact>
</mgrwt>
</event>
<event>
 6    4  0.1195577E-003  0.1343800E+03  0.7818608E-02  0.1221098E+00
         -4   -1    0    0    0  501 -0.00000000000E+00  0.00000000000E+00  0.22241628662E+02  0.22277857742E+02  0.12700000000E+01 0. -1.
          4   -1    0    0  502    0  0.00000000000E+00 -0.00000000000E+00 -0.39385856892E+03  0.39386061648E+03  0.12700000000E+01 0. -1.
         25    2    1    2    0    0 -0.39470156993E+02 -0.29585898127E+02 -0.30459824073E+03  0.33292354318E+03  0.12499911475E+03 0.  0.
    9000005    1    3    3    0    0 -0.65186717344E+02 -0.62603054741E+02 -0.17887445281E+03  0.20041337393E+03  0.10000000000E+01 0.  0.
    9000005    1    3    3    0    0  0.25716560351E+02  0.33017156613E+02 -0.12572378791E+03  0.13251016925E+03  0.10000000000E+01 0.  0.
         21    1    1    2  502  501  0.39470156993E+02  0.29585898127E+02 -0.67018699530E+02  0.83214931038E+02  0.00000000000E+00 0. -1.
<mgrwt>
<rscale>  1 0.13438005E+03</rscale>
<asrwt>0</asrwt>
<pdfrwt beam="2">  1        4 0.60596565E-01 0.13438005E+03</pdfrwt>
<pdfrwt beam="1">  1       -4 0.34247337E-02 0.13438005E+03</pdfrwt>
<totfact> 0.18686243E+03</totfact>
</mgrwt>
</event>
<event>
 6    4  0.1195577E-003  0.1305488E+03  0.7818608E-02  0.1226644E+00
          4   -1    0    0  502    0  0.00000000000E+00  0.00000000000E+00  0.48903651345E+02  0.48920139154E+02  0.12700000000E+01 0.  1.
         -4   -1    0    0    0  501 -0.00000000000E+00 -0.00000000000E+00 -0.14738237757E+03  0.14738784929E+03  0.12700000000E+01 0.  1.
         25    2    1    2    0    0 -0.19698734000E+02  0.32074360746E+02 -0.87277756015E+02  0.15703628779E+03  0.12500473691E+03 0.  0.
    9000005    1    3    3    0    0 -0.61347996767E+01  0.36496707119E+02 -0.11771869475E+03  0.12340314620E+03  0.10000000000E+01 0.  0.
    9000005    1    3    3    0    0 -0.13563934324E+02 -0.44223463725E+01  0.30440938739E+02  0.33633141588E+02  0.10000000000E+01 0.  0.
         21    1    1    2  502  501  0.19698734000E+02 -0.32074360746E+02 -0.11200970206E+02  0.39271700652E+02  0.00000000000E+00 0.  1.
<mgrwt>
<rscale>  1 0.13054880E+03</rscale>
<asrwt>0</asrwt>
<pdfrwt beam="1">  1        4 0.75253279E-02 0.13054880E+03</pdfrwt>
<pdfrwt beam="2">  1       -4 0.22675901E-01 0.13054880E+03</pdfrwt>
<totfact> 0.35576141E+03</totfact>
</mgrwt>
</event>
<event>
 6    4  0.1195577E-003  0.1317273E+03  0.7818608E-02  0.1224915E+00
          4   -1    0    0  502    0  0.00000000000E+00  0.00000000000E+00  0.39634085651E+02  0.39654427815E+02  0.12700000000E+01 0. -1.
         -4   -1    0    0    0  501 -0.00000000000E+00 -0.00000000000E+00 -0.19902907193E+03  0.19903312381E+03  0.12700000000E+01 0. -1.
         25    2    1    2    0    0  0.37436617605E+02  0.18051491764E+02 -0.14183188666E+03  0.19356749887E+03  0.12499894340E+03 0.  0.
    9000005    1    3    3    0    0  0.32310772066E+01 -0.44768805642E+02 -0.13909576958E+02  0.47001724965E+02  0.10000000000E+01 0.  0.
    9000005    1    3    3    0    0  0.34205540398E+02  0.62820297406E+02 -0.12792230971E+03  0.14656577391E+03  0.10000000000E+01 0.  0.
         21    1    1    2  502  501 -0.37436617605E+02 -0.18051491764E+02 -0.17563099619E+02  0.45120052757E+02  0.00000000000E+00 0. -1.
<mgrwt>
<rscale>  1 0.13172734E+03</rscale>
<asrwt>0</asrwt>
<pdfrwt beam="1">  1        4 0.60994282E-02 0.13172734E+03</pdfrwt>
<pdfrwt beam="2">  1       -4 0.30621733E-01 0.13172734E+03</pdfrwt>
<totfact> 0.28781316E+03</totfact>
</mgrwt>
</event>
<event>
 6    4  0.1195577E-003  0.1359890E+03  0.7818608E-02  0.1218830E+00
          4   -1    0    0  502    0  0.00000000000E+00  0.00000000000E+00  0.41136484317E+02  0.41156083900E+02  0.12700000000E+01 0. -1.
         -4   -1    0    0    0  501 -0.00000000000E+00 -0.00000000000E+00 -0.24490458378E+03  0.24490787667E+03  0.12700000000E+01 0. -1.
         25    2    1    2    0    0 -0.31574110506E+01  0.53464534583E+02 -0.18438054737E+03  0.22910517829E+03  0.12499828306E+03 0.  0.
    9000005    1    3    3    0    0  0.37312957142E+01  0.13858100524E+01 -0.17582311057E+03  0.17587100173E+03  0.10000000000E+01 0.  0.
    9000005    1    3    3    0    0 -0.68887067648E+01  0.52078724531E+02 -0.85574367969E+01  0.53234176561E+02  0.10000000000E+01 0.  0.
         21    1    1    2  502  501  0.31574110506E+01 -0.53464534583E+02 -0.19387552089E+02  0.56958782279E+02  0.00000000000E+00 0. -1.
<mgrwt>
<rscale>  1 0.13598896E+03</rscale>
<asrwt>0</asrwt>
<pdfrwt beam="1">  1        4 0.63304510E-02 0.13598896E+03</pdfrwt>
<pdfrwt beam="2">  1       -4 0.37679388E-01 0.13598896E+03</pdfrwt>
<totfact> 0.18316774E+03</totfact>
</mgrwt>
</event>
<event>
 6    4  0.1195577E-003  0.1269882E+03  0.7818608E-02  0.1231994E+00
         -4   -1    0    0    0  501 -0.00000000000E+00  0.00000000000E+00  0.11189306460E+03  0.11190027169E+03  0.12700000000E+01 0.  1.
          4   -1    0    0  502    0  0.00000000000E+00 -0.00000000000E+00 -0.53853941020E+02  0.53868913701E+02  0.12700000000E+01 0.  1.
         25    2    1    2    0    0  0.22353157703E+02 -0.10679838060E+01  0.64563911020E+02  0.14245873495E+03  0.12500075324E+03 0.  0.
    9000005    1    3    3    0    0 -0.48489091173E+02 -0.11416781657E+02  0.64478373535E+01  0.50240516247E+02  0.10000000000E+01 0.  0.
    9000005    1    3    3    0    0  0.70842248876E+02  0.10348797851E+02  0.58116073666E+02  0.92218218706E+02  0.10000000000E+01 0.  0.
         21    1    1    2  502  501 -0.22353157703E+02  0.10679838060E+01 -0.65247874413E+01  0.23310450443E+02  0.00000000000E+00 0.  1.
<mgrwt>
<rscale>  1 0.12698816E+03</rscale>
<asrwt>0</asrwt>
<pdfrwt beam="2">  1        4 0.82869279E-02 0.12698816E+03</pdfrwt>
<pdfrwt beam="1">  1       -4 0.17216024E-01 0.12698816E+03</pdfrwt>
<totfact> 0.49394079E+03</totfact>
</mgrwt>
</event>
<event>
 6    4  0.1195577E-003  0.1300000E+03  0.7818608E-02  0.1227456E+00
          4   -1    0    0  502    0  0.00000000000E+00  0.00000000000E+00  0.40051684003E+02  0.40071814177E+02  0.12700000000E+01 0.  1.
         -4   -1    0    0    0  501 -0.00000000000E+00 -0.00000000000E+00 -0.29205282294E+03  0.29205558424E+03  0.12700000000E+01 0.  1.
         25    2    1    2    0    0 -0.16318812638E+02 -0.31761712417E+02 -0.26415170204E+03  0.29440809030E+03  0.12499956769E+03 0.  0.
    9000005    1    3    3    0    0 -0.66450593621E+02 -0.36258628344E+02 -0.19238491691E+03  0.20674459068E+03  0.10000000000E+01 0.  0.
    9000005    1    3    3    0    0  0.50131780983E+02  0.44969159277E+01 -0.71766785129E+02  0.87663499617E+02  0.10000000000E+01 0.  0.
         21    1    1    2  502  501  0.16318812638E+02  0.31761712417E+02  0.12150563100E+02  0.37719308122E+02  0.00000000000E+00 0.  1.
<mgrwt>
<rscale>  1 0.13000001E+03</rscale>
<asrwt>0</asrwt>
<pdfrwt beam="1">  1        4 0.61635586E-02 0.13000001E+03</pdfrwt>
<pdfrwt beam="2">  1       -4 0.44932963E-01 0.13000001E+03</pdfrwt>
<totfact> 0.13378150E+03</totfact>
</mgrwt>
</event>
<event>
 6    4  0.1195577E-003  0.1603917E+03  0.7818608E-02  0.1188255E+00
          4   -1    0    0  502    0  0.00000000000E+00  0.00000000000E+00  0.17285740213E+03  0.17286206747E+03  0.12700000000E+01 0. -1.
         -4   -1    0    0    0  501 -0.00000000000E+00 -0.00000000000E+00 -0.10500694115E+03  0.10501462084E+03  0.12700000000E+01 0. -1.
         25    2    1    2    0    0 -0.22598813198E+02  0.97926287405E+02  0.75124938684E+02  0.17711368842E+03  0.12500095235E+03 0.  0.
    9000005    1    3    3    0    0 -0.11585324563E+02 -0.28329085961E+02  0.17627559155E+01  0.30673509174E+02  0.10000000000E+01 0.  0.
    9000005    1    3    3    0    0 -0.11013488635E+02  0.12625537337E+03  0.73362182768E+02  0.14644017924E+03  0.10000000000E+01 0.  0.
         21    1    1    2  502  501  0.22598813198E+02 -0.97926287405E+02 -0.72744777057E+01  0.10076299990E+03  0.00000000000E+00 0. -1.
<mgrwt>
<rscale>  1 0.16039171E+03</rscale>
<asrwt>0</asrwt>
<pdfrwt beam="1">  1        4 0.26594396E-01 0.16039171E+03</pdfrwt>
<pdfrwt beam="2">  1       -4 0.16155864E-01 0.16039171E+03</pdfrwt>
<totfact> 0.75467919E+02</totfact>
</mgrwt>
</event>
<event>
 6    4  0.1195577E-003  0.1297578E+03  0.7818608E-02  0.1227815E+00
         -4   -1    0    0    0  501 -0.00000000000E+00  0.00000000000E+00  0.60748776697E+02  0.60762050411E+02  0.12700000000E+01 0.  1.
          4   -1    0    0  502    0  0.00000000000E+00 -0.00000000000E+00 -0.11244872181E+03  0.11245589330E+03  0.12700000000E+01 0.  1.
         25    2    1    2    0    0 -0.29783034570E+02  0.18027094438E+02 -0.33877908687E+02  0.13410745580E+03  0.12500036688E+03 0.  0.
    9000005    1    3    3    0    0  0.12121084043E+01 -0.52563263314E+02 -0.15891019954E+02  0.54935328998E+02  0.10000000000E+01 0.  0.
    9000005    1    3    3    0    0 -0.30995142975E+02  0.70590357752E+02 -0.17986888734E+02  0.79172126799E+02  0.10000000000E+01 0.  0.
         21    1    1    2  502  501  0.29783034570E+02 -0.18027094438E+02 -0.17822036427E+02  0.39110487909E+02  0.00000000000E+00 0. -1.
<mgrwt>
<rscale>  1 0.12975784E+03</rscale>
<asrwt>0</asrwt>
<pdfrwt beam="2">  1        4 0.17301376E-01 0.12975784E+03</pdfrwt>
<pdfrwt beam="1">  1       -4 0.93475384E-02 0.12975784E+03</pdfrwt>
<totfact> 0.40277180E+03</totfact>
</mgrwt>
</event>
<event>
 6    4  0.1195577E-003  0.1270848E+03  0.7818608E-02  0.1231847E+00
         -4   -1    0    0    0  501 -0.00000000000E+00  0.00000000000E+00  0.27008111486E+02  0.27037954546E+02  0.12700000000E+01 0. -1.
          4   -1    0    0  502    0  0.00000000000E+00 -0.00000000000E+00 -0.36379738238E+03  0.36379959913E+03  0.12700000000E+01 0. -1.
         25    2    1    2    0    0  0.88637607343E+01 -0.21132171754E+02 -0.12653004152E+03  0.17933323109E+03  0.12500168570E+03 0.  0.
    9000005    1    3    3    0    0  0.37970957961E+02  0.42260524793E+02 -0.64752089696E+02  0.86148585155E+02  0.10000000000E+01 0.  0.
    9000005    1    3    3    0    0 -0.29107197227E+02 -0.63392696547E+02 -0.61777951828E+02  0.93184645935E+02  0.10000000000E+01 0.  0.
         21    1    1    2  502  501 -0.88637607343E+01  0.21132171754E+02 -0.21025922937E+03  0.21150432259E+03  0.00000000000E+00 0. -1.
<mgrwt>
<rscale>  1 0.12708484E+03</rscale>
<asrwt>0</asrwt>
<pdfrwt beam="2">  1        4 0.55971291E-01 0.12708484E+03</pdfrwt>
<pdfrwt beam="1">  1       -4 0.41575605E-02 0.12708484E+03</pdfrwt>
<totfact> 0.16024060E+03</totfact>
</mgrwt>
</event>
<event>
 6    4  0.1195577E-003  0.1268478E+03  0.7818608E-02  0.1232209E+00
          4   -1    0    0  502    0  0.00000000000E+00  0.00000000000E+00  0.60758086959E+02  0.60771358640E+02  0.12700000000E+01 0. -1.
         -4   -1    0    0    0  501 -0.00000000000E+00 -0.00000000000E+00 -0.10008179045E+03  0.10008984804E+03  0.12700000000E+01 0. -1.
         25    2    1    2    0    0  0.99065398048E+01  0.19141699221E+02 -0.50562458326E+02  0.13655372244E+03  0.12500325092E+03 0.  0.
    9000005    1    3    3    0    0 -0.36104123660E+02 -0.33268525689E+02 -0.44963883502E+02  0.66581178769E+02  0.10000000000E+01 0.  0.
    9000005    1    3    3    0    0  0.46010663464E+02  0.52410224910E+02 -0.55985748247E+01  0.69972543670E+02  0.10000000000E+01 0.  0.
         21    1    1    2  502  501 -0.99065398048E+01 -0.19141699221E+02  0.11238754831E+02  0.24307484241E+02  0.00000000000E+00 0. -1.
<mgrwt>
<rscale>  1 0.12684777E+03</rscale>
<asrwt>0</asrwt>
<pdfrwt beam="1">  1        4 0.93490387E-02 0.12684777E+03</pdfrwt>
<pdfrwt beam="2">  1       -4 0.15398839E-01 0.12684777E+03</pdfrwt>
<totfact> 0.49141669E+03</totfact>
</mgrwt>
</event>
<event>
 6    4  0.1195577E-003  0.1266687E+03  0.7818608E-02  0.1232484E+00
         -4   -1    0    0    0  501 -0.00000000000E+00  0.00000000000E+00  0.13352132642E+03  0.13352736614E+03  0.12700000000E+01 0.  1.
          4   -1    0    0  502    0  0.00000000000E+00 -0.00000000000E+00 -0.42531049587E+02  0.42550006803E+02  0.12700000000E+01 0.  1.
         25    2    1    2    0    0  0.17682839212E+01 -0.20420576659E+02  0.90315260703E+02  0.15556926660E+03  0.12499929446E+03 0.  0.
    9000005    1    3    3    0    0 -0.17397299394E+02 -0.29833576964E+02  0.11664539797E+03  0.12165466374E+03  0.10000000000E+01 0.  0.
    9000005    1    3    3    0    0  0.19165583315E+02  0.94130003056E+01 -0.26330137270E+02  0.33914602861E+02  0.10000000000E+01 0.  0.
         21    1    1    2  502  501 -0.17682839212E+01  0.20420576659E+02  0.67501612743E+00  0.20508106345E+02  0.00000000000E+00 0. -1.
<mgrwt>
<rscale>  1 0.12666866E+03</rscale>
<asrwt>0</asrwt>
<pdfrwt beam="2">  1        4 0.65451612E-02 0.12666866E+03</pdfrwt>
<pdfrwt beam="1">  1       -4 0.20543665E-01 0.12666866E+03</pdfrwt>
<totfact> 0.53090939E+03</totfact>
</mgrwt>
</event>
<event>
 6    4  0.1195577E-003  0.1270105E+03  0.7818608E-02  0.1231960E+00
          4   -1    0    0  502    0  0.00000000000E+00  0.00000000000E+00  0.57287348726E+02  0.57301424276E+02  0.12700000000E+01 0. -1.
         -4   -1    0    0    0  501 -0.00000000000E+00 -0.00000000000E+00 -0.11363812167E+03  0.11364521810E+03  0.12700000000E+01 0. -1.
         25    2    1    2    0    0  0.11748238719E+02 -0.19189943196E+02 -0.69604698527E+02  0.14483263127E+03  0.12500160795E+03 0.  0.
    9000005    1    3    3    0    0 -0.56488605089E+02 -0.20731101556E+01 -0.34107803162E+02  0.66027286232E+02  0.10000000000E+01 0.  0.
    9000005    1    3    3    0    0  0.68236843808E+02 -0.17116833040E+02 -0.35496895365E+02  0.78805345039E+02  0.10000000000E+01 0.  0.
         21    1    1    2  502  501 -0.11748238719E+02  0.19189943196E+02  0.13253925580E+02  0.26114011107E+02  0.00000000000E+00 0. -1.
<mgrwt>
<rscale>  1 0.12701054E+03</rscale>
<asrwt>0</asrwt>
<pdfrwt beam="1">  1        4 0.88150669E-02 0.12701054E+03</pdfrwt>
<pdfrwt beam="2">  1       -4 0.17484417E-01 0.12701054E+03</pdfrwt>
<totfact> 0.43372123E+03</totfact>
</mgrwt>
</event>
<event>
 6    4  0.1195577E-003  0.1812663E+03  0.7818608E-02  0.1166583E+00
         -4   -1    0    0    0  501 -0.00000000000E+00  0.00000000000E+00  0.10311509477E+03  0.10312291535E+03  0.12700000000E+01 0. -1.
          4   -1    0    0  502    0  0.00000000000E+00 -0.00000000000E+00 -0.28096851389E+03  0.28097138412E+03  0.12700000000E+01 0. -1.
         25    2    1    2    0    0 -0.11446948370E+03 -0.64246637476E+02 -0.25597033155E+02  0.18306469919E+03  0.12500633128E+03 0.  0.
    9000005    1    3    3    0    0 -0.74265940724E+02 -0.10063966440E+03 -0.54243703405E+01  0.12519662853E+03  0.10000000000E+01 0.  0.
    9000005    1    3    3    0    0 -0.40203542972E+02  0.36393026928E+02 -0.20172662814E+02  0.57868070657E+02  0.10000000000E+01 0.  0.
         21    1    1    2  502  501  0.11446948370E+03  0.64246637476E+02 -0.15225638596E+03  0.20102960028E+03  0.00000000000E+00 0. -1.
<mgrwt>
<rscale>  1 0.18126631E+03</rscale>
<asrwt>0</asrwt>
<pdfrwt beam="2">  1        4 0.43226747E-01 0.18126631E+03</pdfrwt>
<pdfrwt beam="1">  1       -4 0.15864683E-01 0.18126631E+03</pdfrwt>
<totfact> 0.31150108E+02</totfact>
</mgrwt>
</event>
<event>
 6    4  0.1195577E-003  0.1304303E+03  0.7818608E-02  0.1226819E+00
          4   -1    0    0  502    0  0.00000000000E+00  0.00000000000E+00  0.59652706359E+01  0.60989633349E+01  0.12700000000E+01 0. -1.
         -4   -1    0    0    0  501 -0.00000000000E+00 -0.00000000000E+00 -0.12308239022E+04  0.12308245574E+04  0.12700000000E+01 0. -1.
         25    2    1    2    0    0 -0.34419045601E+01 -0.37081953071E+02 -0.81434480315E+03  0.82472390737E+03  0.12500058806E+03 0.  0.
    9000005    1    3    3    0    0 -0.19887722503E+02 -0.41880724456E+02 -0.80257753478E+03  0.80391617468E+03  0.10000000000E+01 0.  0.
    9000005    1    3    3    0    0  0.16445817943E+02  0.47987713848E+01 -0.11767268378E+02  0.20807732690E+02  0.10000000000E+01 0.  0.
         21    1    1    2  502  501  0.34419045601E+01  0.37081953071E+02 -0.41051382842E+03  0.41219961338E+03  0.00000000000E+00 0. -1.
<mgrwt>
<rscale>  1 0.13043031E+03</rscale>
<asrwt>0</asrwt>
<pdfrwt beam="1">  1        4 0.92806938E-03 0.13043031E+03</pdfrwt>
<pdfrwt beam="2">  1       -4 0.18936766E+00 0.13043031E+03</pdfrwt>
<totfact> 0.92476739E+02</totfact>
</mgrwt>
</event>
<event>
 6    4  0.1195577E-003  0.1266991E+03  0.7818608E-02  0.1232437E+00
          4   -1    0    0  502    0  0.00000000000E+00  0.00000000000E+00  0.12724320215E+02  0.12787541786E+02  0.12700000000E+01 0. -1.
         -4   -1    0    0    0  501 -0.00000000000E+00 -0.00000000000E+00 -0.43204009800E+03  0.43204196460E+03  0.12700000000E+01 0. -1.
         25    2    1    2    0    0  0.19960128718E+02  0.54269557843E+01 -0.37716306858E+03  0.39787517240E+03  0.12499925568E+03 0.  0.
    9000005    1    3    3    0    0 -0.18244481417E+02  0.17939719234E+02 -0.84340421532E+01  0.26959742124E+02  0.10000000000E+01 0.  0.
    9000005    1    3    3    0    0  0.38204610135E+02 -0.12512763450E+02 -0.36872902643E+03  0.37091543027E+03  0.10000000000E+01 0.  0.
         21    1    1    2  502  501 -0.19960128718E+02 -0.54269557843E+01 -0.42152709199E+02  0.46954333989E+02  0.00000000000E+00 0.  1.
<mgrwt>
<rscale>  1 0.12669914E+03</rscale>
<asrwt>0</asrwt>
<pdfrwt beam="1">  1        4 0.19625948E-02 0.12669914E+03</pdfrwt>
<pdfrwt beam="2">  1       -4 0.66472703E-01 0.12669914E+03</pdfrwt>
<totfact> 0.36018086E+03</totfact>
</mgrwt>
</event>
<event>
 6    4  0.1195577E-003  0.1266116E+03  0.7818608E-02  0.1232572E+00
         -4   -1    0    0    0  501 -0.00000000000E+00  0.00000000000E+00  0.36656864261E+02  0.36678857636E+02  0.12700000000E+01 0.  1.
          4   -1    0    0  502    0  0.00000000000E+00 -0.00000000000E+00 -0.24593768975E+03  0.24594096881E+03  0.12700000000E+01 0.  1.
         25    2    1    2    0    0 -0.87737507208E+01 -0.18133210947E+02 -0.75673582831E+02  0.14750251693E+03  0.12499883728E+03 0.  0.
    9000005    1    3    3    0    0  0.50716398928E+02 -0.10616469840E+02 -0.11407233020E+01  0.51837860698E+02  0.10000000000E+01 0.  0.
    9000005    1    3    3    0    0 -0.59490149649E+02 -0.75167411071E+01 -0.74532859529E+02  0.95664656230E+02  0.10000000000E+01 0.  0.
         21    1    1    2  502  501  0.87737507208E+01  0.18133210947E+02 -0.13360724265E+03  0.13511730952E+03  0.00000000000E+00 0.  1.
<mgrwt>
<rscale>  1 0.12661162E+03</rscale>
<asrwt>0</asrwt>
<pdfrwt beam="2">  1        4 0.37838511E-01 0.12661162E+03</pdfrwt>
<pdfrwt beam="1">  1       -4 0.56414618E-02 0.12661162E+03</pdfrwt>
<totfact> 0.21550629E+03</totfact>
</mgrwt>
</event>
<event>
 6    4  0.1195577E-003  0.1298422E+03  0.7818608E-02  0.1227690E+00
         -4   -1    0    0    0  501 -0.00000000000E+00  0.00000000000E+00  0.22021881060E+03  0.22022247261E+03  0.12700000000E+01 0.  1.
          4   -1    0    0  502    0  0.00000000000E+00 -0.00000000000E+00 -0.25741418605E+03  0.25741731892E+03  0.12700000000E+01 0.  1.
         25    2    1    2    0    0  0.31113740280E+02  0.16319318786E+02  0.19967458939E+03  0.23817838495E+03  0.12499846563E+03 0.  0.
    9000005    1    3    3    0    0 -0.13195086312E+02 -0.36842205807E+02  0.14437126774E+03  0.14958449579E+03  0.10000000000E+01 0.  0.
    9000005    1    3    3    0    0  0.44308826592E+02  0.53161524593E+02  0.55303321649E+02  0.88593889160E+02  0.10000000000E+01 0.  0.
         21    1    1    2  502  501 -0.31113740280E+02 -0.16319318786E+02 -0.23686996484E+03  0.23946140659E+03  0.00000000000E+00 0.  1.
<mgrwt>
<rscale>  1 0.12984222E+03</rscale>
<asrwt>0</asrwt>
<pdfrwt beam="2">  1        4 0.39602705E-01 0.12984222E+03</pdfrwt>
<pdfrwt beam="1">  1       -4 0.33880340E-01 0.12984222E+03</pdfrwt>
<totfact> 0.87093357E+01</totfact>
</mgrwt>
</event>
<event>
 6    4  0.1195577E-003  0.1306783E+03  0.7818608E-02  0.1226453E+00
         -4   -1    0    0    0  501 -0.00000000000E+00  0.00000000000E+00  0.34688064580E+02  0.34711305425E+02  0.12700000000E+01 0. -1.
          4   -1    0    0  502    0  0.00000000000E+00 -0.00000000000E+00 -0.20524907382E+03  0.20525300292E+03  0.12700000000E+01 0. -1.
         25    2    1    2    0    0 -0.18372619484E+02  0.33393724126E+02 -0.13148028974E+03  0.18537496327E+03  0.12499646580E+03 0.  0.
    9000005    1    3    3    0    0 -0.17929588245E+02 -0.38462610370E+02 -0.96553691543E+02  0.10547254563E+03  0.10000000000E+01 0.  0.
    9000005    1    3    3    0    0 -0.44303123841E+00  0.71856334496E+02 -0.34926598195E+02  0.79902417644E+02  0.10000000000E+01 0.  0.
         21    1    1    2  502  501  0.18372619484E+02 -0.33393724126E+02 -0.39080719506E+02  0.54589345066E+02  0.00000000000E+00 0. -1.
<mgrwt>
<rscale>  1 0.13067827E+03</rscale>
<asrwt>0</asrwt>
<pdfrwt beam="2">  1        4 0.31578870E-01 0.13067827E+03</pdfrwt>
<pdfrwt beam="1">  1       -4 0.53387154E-02 0.13067827E+03</pdfrwt>
<totfact> 0.33617881E+03</totfact>
</mgrwt>
</event>
<event>
 6    4  0.1195577E-003  0.1680671E+03  0.7818608E-02  0.1179879E+00
         -4   -1    0    0    0  501 -0.00000000000E+00  0.00000000000E+00  0.34189730589E+03  0.34189966463E+03  0.12700000000E+01 0.  1.
          4   -1    0    0  502    0  0.00000000000E+00 -0.00000000000E+00 -0.59420162204E+02  0.59433732647E+02  0.12700000000E+01 0.  1.
         25    2    1    2    0    0 -0.78544394916E+01  0.11208762180E+03  0.13295351187E+03  0.21429692048E+03  0.12498482560E+03 0.  0.
    9000005    1    3    3    0    0 -0.35998224188E+02  0.87516021395E+02  0.21918899786E+02  0.97140950754E+02  0.10000000000E+01 0.  0.
    9000005    1    3    3    0    0  0.28143784697E+02  0.24571600401E+02  0.11103461208E+03  0.11715596973E+03  0.10000000000E+01 0.  0.
         21    1    1    2  502  501  0.78544394916E+01 -0.11208762180E+03  0.14952363182E+03  0.18703647679E+03  0.00000000000E+00 0.  1.
<mgrwt>
<rscale>  1 0.16806705E+03</rscale>
<asrwt>0</asrwt>
<pdfrwt beam="2">  1        4 0.91427888E-02 0.16806705E+03</pdfrwt>
<pdfrwt beam="1">  1       -4 0.52600810E-01 0.16806705E+03</pdfrwt>
<totfact> 0.53277411E+02</totfact>
</mgrwt>
</event>
<event>
 6    4  0.1195577E-003  0.1287014E+03  0.7818608E-02  0.1229396E+00
         -4   -1    0    0    0  501 -0.00000000000E+00  0.00000000000E+00  0.47891896297E+03  0.47892064686E+03  0.12700000000E+01 0.  1.
          4   -1    0    0  502    0  0.00000000000E+00 -0.00000000000E+00 -0.14716250716E+02  0.14770949026E+02  0.12700000000E+01 0.  1.
         25    2    1    2    0    0 -0.72040491917E+01 -0.29682764177E+02  0.42460783114E+03  0.44368440216E+03  0.12502429221E+03 0.  0.
    9000005    1    3    3    0    0 -0.27781849670E+02  0.22386120824E+02  0.34217220423E+03  0.34402875886E+03  0.10000000000E+01 0.  0.
    9000005    1    3    3    0    0  0.20577800479E+02 -0.52068885001E+02  0.82435626915E+02  0.99655643305E+02  0.10000000000E+01 0.  0.
         21    1    1    2  502  501  0.72040491917E+01  0.29682764177E+02  0.39594881112E+02  0.50007193724E+02  0.00000000000E+00 0.  1.
<mgrwt>
<rscale>  1 0.12870135E+03</rscale>
<asrwt>0</asrwt>
<pdfrwt beam="2">  1        4 0.22683759E-02 0.12870135E+03</pdfrwt>
<pdfrwt beam="1">  1       -4 0.73684171E-01 0.12870135E+03</pdfrwt>
<totfact> 0.23164254E+03</totfact>
</mgrwt>
</event>
<event>
 6    4  0.1195577E-003  0.1276033E+03  0.7818608E-02  0.1231056E+00
          4   -1    0    0  502    0  0.00000000000E+00  0.00000000000E+00  0.28162839685E+03  0.28163126036E+03  0.12700000000E+01 0.  1.
         -4   -1    0    0    0  501 -0.00000000000E+00 -0.00000000000E+00 -0.25528995597E+02  0.25560565647E+02  0.12700000000E+01 0.  1.
         25    2    1    2    0    0 -0.18502642609E+01 -0.25489791303E+02  0.14482582681E+03  0.19302107096E+03  0.12501784187E+03 0.  0.
    9000005    1    3    3    0    0 -0.11797930259E+02  0.43916282210E+02  0.99830528673E+02  0.10970399016E+03  0.10000000000E+01 0.  0.
    9000005    1    3    3    0    0  0.99476659977E+01 -0.69406073513E+02  0.44995298141E+02  0.83317080806E+02  0.10000000000E+01 0.  0.
         21    1    1    2  502  501  0.18502642609E+01  0.25489791303E+02  0.11127357444E+03  0.11417075505E+03  0.00000000000E+00 0.  1.
<mgrwt>
<rscale>  1 0.12760335E+03</rscale>
<asrwt>0</asrwt>
<pdfrwt beam="1">  1        4 0.43330092E-01 0.12760335E+03</pdfrwt>
<pdfrwt beam="2">  1       -4 0.39301867E-02 0.12760335E+03</pdfrwt>
<totfact> 0.29485411E+03</totfact>
</mgrwt>
</event>
<event>
 6    4  0.1195577E-003  0.1294312E+03  0.7818608E-02  0.1228302E+00
         -4   -1    0    0    0  501 -0.00000000000E+00  0.00000000000E+00  0.45062821421E+02  0.45080713996E+02  0.12700000000E+01 0.  1.
          4   -1    0    0  502    0  0.00000000000E+00 -0.00000000000E+00 -0.15860214840E+03  0.15860723306E+03  0.12700000000E+01 0.  1.
         25    2    1    2    0    0 -0.26747472446E+02 -0.20489318785E+02 -0.65637021223E+02  0.14512285196E+03  0.12496873265E+03 0.  0.
    9000005    1    3    3    0    0  0.38087036593E+02  0.28884618108E+02 -0.21276766048E+02  0.52332057987E+02  0.10000000000E+01 0.  0.
    9000005    1    3    3    0    0 -0.64834509039E+02 -0.49373936892E+02 -0.44360255175E+02  0.92790793971E+02  0.10000000000E+01 0.  0.
         21    1    1    2  502  501  0.26747472446E+02  0.20489318785E+02 -0.47902305758E+02  0.58565095095E+02  0.00000000000E+00 0.  1.
<mgrwt>
<rscale>  1 0.12943115E+03</rscale>
<asrwt>0</asrwt>
<pdfrwt beam="2">  1        4 0.24402098E-01 0.12943115E+03</pdfrwt>
<pdfrwt beam="1">  1       -4 0.69345093E-02 0.12943115E+03</pdfrwt>
<totfact> 0.35503117E+03</totfact>
</mgrwt>
</event>
<event>
 6    4  0.1195577E-003  0.1501303E+03  0.7818608E-02  0.1200313E+00
          4   -1    0    0  502    0  0.00000000000E+00  0.00000000000E+00  0.33313454527E+02  0.33337653675E+02  0.12700000000E+01 0.  1.
         -4   -1    0    0    0  501 -0.00000000000E+00 -0.00000000000E+00 -0.44532119059E+03  0.44532300153E+03  0.12700000000E+01 0.  1.
         25    2    1    2    0    0  0.82161783928E+02 -0.12813786995E+02 -0.32662540589E+03  0.35947636857E+03  0.12499740761E+03 0.  0.
    9000005    1    3    3    0    0  0.10813030723E+02  0.23408142275E+02 -0.28531968993E+01  0.25961577201E+02  0.10000000000E+01 0.  0.
    9000005    1    3    3    0    0  0.71348753204E+02 -0.36221929271E+02 -0.32377220899E+03  0.33351479136E+03  0.10000000000E+01 0.  0.
         21    1    1    2  502  501 -0.82161783928E+02  0.12813786995E+02 -0.85382330174E+02  0.11918428664E+03  0.00000000000E+00 0.  1.
<mgrwt>
<rscale>  1 0.15013029E+03</rscale>
<asrwt>0</asrwt>
<pdfrwt beam="1">  1        4 0.51271480E-02 0.15013029E+03</pdfrwt>
<pdfrwt beam="2">  1       -4 0.68512949E-01 0.15013029E+03</pdfrwt>
<totfact> 0.77393754E+02</totfact>
</mgrwt>
</event>
<event>
 6    4  0.1195577E-003  0.1267699E+03  0.7818608E-02  0.1232329E+00
         -4   -1    0    0    0  501 -0.00000000000E+00  0.00000000000E+00  0.15954582457E+03  0.15955087915E+03  0.12700000000E+01 0.  1.
          4   -1    0    0  502    0  0.00000000000E+00 -0.00000000000E+00 -0.41425745491E+02  0.41445208282E+02  0.12700000000E+01 0.  1.
         25    2    1    2    0    0 -0.21085557959E+02  0.98770310780E+00  0.12574117781E+03  0.17855377343E+03  0.12500011959E+03 0.  0.
    9000005    1    3    3    0    0 -0.24256278969E+02 -0.38889053844E+02 -0.78446933073E+00  0.45851291917E+02  0.10000000000E+01 0.  0.
    9000005    1    3    3    0    0  0.31707210106E+01  0.39876756952E+02  0.12652564714E+03  0.13270248152E+03  0.10000000000E+01 0.  0.
         21    1    1    2  502  501  0.21085557959E+02 -0.98770310780E+00 -0.76210987281E+01  0.22442314000E+02  0.00000000000E+00 0. -1.
<mgrwt>
<rscale>  1 0.12676989E+03</rscale>
<asrwt>0</asrwt>
<pdfrwt beam="2">  1        4 0.63750776E-02 0.12676989E+03</pdfrwt>
<pdfrwt beam="1">  1       -4 0.24547397E-01 0.12676989E+03</pdfrwt>
<totfact> 0.40086429E+03</totfact>
</mgrwt>
</event>
<event>
 6    4  0.1195577E-003  0.1284209E+03  0.7818608E-02  0.1229818E+00
         -4   -1    0    0    0  501 -0.00000000000E+00  0.00000000000E+00  0.48745860567E+03  0.48746026007E+03  0.12700000000E+01 0.  1.
          4   -1    0    0  502    0  0.00000000000E+00 -0.00000000000E+00 -0.28104264140E+02  0.28132944440E+02  0.12700000000E+01 0.  1.
         25    2    1    2    0    0  0.15151680281E+02  0.25242562530E+02  0.46768533241E+03  0.48499637808E+03  0.12500062489E+03 0.  0.
    9000005    1    3    3    0    0  0.26949804808E+02  0.72440606711E+02  0.33106002089E+03  0.33996422005E+03  0.10000000000E+01 0.  0.
    9000005    1    3    3    0    0 -0.11798124528E+02 -0.47198044182E+02  0.13662531151E+03  0.14503215803E+03  0.10000000000E+01 0.  0.
         21    1    1    2  502  501 -0.15151680281E+02 -0.25242562530E+02 -0.83309908744E+01  0.30596826426E+02  0.00000000000E+00 0. -1.
<mgrwt>
<rscale>  1 0.12842086E+03</rscale>
<asrwt>0</asrwt>
<pdfrwt beam="2">  1        4 0.43260662E-02 0.12842086E+03</pdfrwt>
<pdfrwt beam="1">  1       -4 0.74995968E-01 0.12842086E+03</pdfrwt>
<totfact> 0.80941482E+02</totfact>
</mgrwt>
</event>
<event>
 6    4  0.1195577E-003  0.1281523E+03  0.7818608E-02  0.1230223E+00
          4   -1    0    0  502    0  0.00000000000E+00  0.00000000000E+00  0.55039860785E+02  0.55054510943E+02  0.12700000000E+01 0. -1.
         -4   -1    0    0    0  501 -0.00000000000E+00 -0.00000000000E+00 -0.11163001231E+03  0.11163723639E+03  0.12700000000E+01 0. -1.
         25    2    1    2    0    0  0.49958970185E+01  0.27784490587E+02 -0.41641202689E+02  0.13474792202E+03  0.12500430322E+03 0.  0.
    9000005    1    3    3    0    0 -0.54686783874E+02  0.17029024065E+02 -0.46666602425E+02  0.73887778239E+02  0.10000000000E+01 0.  0.
    9000005    1    3    3    0    0  0.59682680893E+02  0.10755466522E+02  0.50253997358E+01  0.60860143782E+02  0.10000000000E+01 0.  0.
         21    1    1    2  502  501 -0.49958970185E+01 -0.27784490587E+02 -0.14948948837E+02  0.31943825312E+02  0.00000000000E+00 0.  1.
<mgrwt>
<rscale>  1 0.12815230E+03</rscale>
<asrwt>0</asrwt>
<pdfrwt beam="1">  1        4 0.84693535E-02 0.12815230E+03</pdfrwt>
<pdfrwt beam="2">  1       -4 0.17175531E-01 0.12815230E+03</pdfrwt>
<totfact> 0.47949354E+03</totfact>
</mgrwt>
</event>
<event>
 6    4  0.1195577E-003  0.1325219E+03  0.7818608E-02  0.1223761E+00
          4   -1    0    0  502    0  0.00000000000E+00  0.00000000000E+00  0.35771912037E+02  0.35794449161E+02  0.12700000000E+01 0.  1.
         -4   -1    0    0    0  501 -0.00000000000E+00 -0.00000000000E+00 -0.22883810250E+03  0.22884162658E+03  0.12700000000E+01 0.  1.
         25    2    1    2    0    0 -0.11500752268E+02 -0.42483594764E+02 -0.16803160825E+03  0.21400156741E+03  0.12499970544E+03 0.  0.
    9000005    1    3    3    0    0 -0.50860103483E+01 -0.47652693667E+02 -0.18713342047E+03  0.19317495637E+03  0.10000000000E+01 0.  0.
    9000005    1    3    3    0    0 -0.64147419202E+01  0.51690989025E+01  0.19101812219E+02  0.20826611040E+02  0.10000000000E+01 0.  0.
         21    1    1    2  502  501  0.11500752268E+02  0.42483594764E+02 -0.25034582219E+02  0.50634508329E+02  0.00000000000E+00 0.  1.
<mgrwt>
<rscale>  1 0.13252188E+03</rscale>
<asrwt>0</asrwt>
<pdfrwt beam="1">  1        4 0.55053759E-02 0.13252188E+03</pdfrwt>
<pdfrwt beam="2">  1       -4 0.35207866E-01 0.13252188E+03</pdfrwt>
<totfact> 0.26059712E+03</totfact>
</mgrwt>
</event>
<event>
 6    4  0.1195577E-003  0.1316835E+03  0.7818608E-02  0.1224979E+00
          4   -1    0    0  502    0  0.00000000000E+00  0.00000000000E+00  0.14294305955E+03  0.14294870120E+03  0.12700000000E+01 0. -1.
         -4   -1    0    0    0  501 -0.00000000000E+00 -0.00000000000E+00 -0.55554058009E+02  0.55568572604E+02  0.12700000000E+01 0. -1.
         25    2    1    2    0    0 -0.23848658575E+01 -0.41404350618E+02  0.44861768395E+02  0.13911547758E+03  0.12498211873E+03 0.  0.
    9000005    1    3    3    0    0  0.16947440309E+02 -0.56785056974E+02 -0.25511000246E+02  0.64525727908E+02  0.10000000000E+01 0.  0.
    9000005    1    3    3    0    0 -0.19332306167E+02  0.15380706356E+02  0.70372768641E+02  0.74589749671E+02  0.10000000000E+01 0.  0.
         21    1    1    2  502  501  0.23848658575E+01  0.41404350618E+02  0.42527233149E+02  0.59401796223E+02  0.00000000000E+00 0. -1.
<mgrwt>
<rscale>  1 0.13168348E+03</rscale>
<asrwt>0</asrwt>
<pdfrwt beam="1">  1        4 0.21992790E-01 0.13168348E+03</pdfrwt>
<pdfrwt beam="2">  1       -4 0.85483287E-02 0.13168348E+03</pdfrwt>
<totfact> 0.30520745E+03</totfact>
</mgrwt>
</event>
<event>
 6    4  0.1195577E-003  0.1283323E+03  0.7818608E-02  0.1229951E+00
          4   -1    0    0  502    0  0.00000000000E+00  0.00000000000E+00  0.14665055089E+03  0.14665604991E+03  0.12700000000E+01 0. -1.
         -4   -1    0    0    0  501 -0.00000000000E+00 -0.00000000000E+00 -0.53856865232E+02  0.53871837101E+02  0.12700000000E+01 0. -1.
         25    2    1    2    0    0  0.28882128212E+02  0.30842037221E+01  0.30665778986E+02  0.13194533508E+03  0.12500196721E+03 0.  0.
    9000005    1    3    3    0    0  0.91883986743E+01 -0.49560893667E+02  0.51427238939E+02  0.72017149042E+02  0.10000000000E+01 0.  0.
    9000005    1    3    3    0    0  0.19693729538E+02  0.52645097389E+02 -0.20761459953E+02  0.59928186036E+02  0.10000000000E+01 0.  0.
         21    1    1    2  502  501 -0.28882128212E+02 -0.30842037221E+01  0.62127906668E+02  0.68582551933E+02  0.00000000000E+00 0. -1.
<mgrwt>
<rscale>  1 0.12833231E+03</rscale>
<asrwt>0</asrwt>
<pdfrwt beam="1">  1        4 0.22563198E-01 0.12833231E+03</pdfrwt>
<pdfrwt beam="2">  1       -4 0.82872462E-02 0.12833231E+03</pdfrwt>
<totfact> 0.30481850E+03</totfact>
</mgrwt>
</event>
<event>
 6    4  0.1195577E-003  0.1376144E+03  0.7818608E-02  0.1216576E+00
          4   -1    0    0  502    0  0.00000000000E+00  0.00000000000E+00  0.25642693916E+02  0.25674124158E+02  0.12700000000E+01 0.  1.
         -4   -1    0    0    0  501 -0.00000000000E+00 -0.00000000000E+00 -0.43461210400E+03  0.43461395956E+03  0.12700000000E+01 0.  1.
         25    2    1    2    0    0 -0.28924058793E+02  0.49756698491E+02 -0.35752265237E+03  0.38309288243E+03  0.12500151756E+03 0.  0.
    9000005    1    3    3    0    0 -0.36178066744E+02 -0.14518527753E+02 -0.27733844004E+03  0.28006651083E+03  0.10000000000E+01 0.  0.
    9000005    1    3    3    0    0  0.72540079507E+01  0.64275226245E+02 -0.80184212327E+02  0.10302637161E+03  0.10000000000E+01 0.  0.
         21    1    1    2  502  501  0.28924058793E+02 -0.49756698491E+02 -0.51446757719E+02  0.77195201286E+02  0.00000000000E+00 0.  1.
<mgrwt>
<rscale>  1 0.13761435E+03</rscale>
<asrwt>0</asrwt>
<pdfrwt beam="1">  1        4 0.39475906E-02 0.13761435E+03</pdfrwt>
<pdfrwt beam="2">  1       -4 0.66865956E-01 0.13761435E+03</pdfrwt>
<totfact> 0.12173684E+03</totfact>
</mgrwt>
</event>
<event>
 6    4  0.1195577E-003  0.1272221E+03  0.7818608E-02  0.1231637E+00
          4   -1    0    0  502    0  0.00000000000E+00  0.00000000000E+00  0.43982560604E+02  0.44000892460E+02  0.12700000000E+01 0.  1.
         -4   -1    0    0    0  501 -0.00000000000E+00 -0.00000000000E+00 -0.13850015391E+03  0.13850597652E+03  0.12700000000E+01 0.  1.
         25    2    1    2    0    0  0.18167890617E+02 -0.15195398509E+02 -0.95063053826E+02  0.15881573324E+03  0.12499792213E+03 0.  0.
    9000005    1    3    3    0    0  0.46464659888E+02 -0.52361699396E+02 -0.24478510312E+02  0.74168117471E+02  0.10000000000E+01 0.  0.
    9000005    1    3    3    0    0 -0.28296769271E+02  0.37166300887E+02 -0.70584543514E+02  0.84647615772E+02  0.10000000000E+01 0.  0.
         21    1    1    2  502  501 -0.18167890617E+02  0.15195398509E+02  0.54546052394E+00  0.23691135737E+02  0.00000000000E+00 0. -1.
<mgrwt>
<rscale>  1 0.12722206E+03</rscale>
<asrwt>0</asrwt>
<pdfrwt beam="1">  1        4 0.67684059E-02 0.12722206E+03</pdfrwt>
<pdfrwt beam="2">  1       -4 0.21309574E-01 0.12722206E+03</pdfrwt>
<totfact> 0.47097412E+03</totfact>
</mgrwt>
</event>
<event>
 6    4  0.1195577E-003  0.1297138E+03  0.7818608E-02  0.1227881E+00
         -4   -1    0    0    0  501 -0.00000000000E+00  0.00000000000E+00  0.33152843129E+02  0.33177159425E+02  0.12700000000E+01 0.  1.
          4   -1    0    0  502    0  0.00000000000E+00 -0.00000000000E+00 -0.20356819900E+03  0.20357216053E+03  0.12700000000E+01 0.  1.
         25    2    1    2    0    0 -0.19138713272E+02 -0.28799252312E+02 -0.13692490754E+03  0.18861100457E+03  0.12501997224E+03 0.  0.
    9000005    1    3    3    0    0 -0.38207281450E+02  0.10660452091E+02  0.50714116925E+01  0.40002010089E+02  0.10000000000E+01 0.  0.
    9000005    1    3    3    0    0  0.19068568179E+02 -0.39459704403E+02 -0.14199631923E+03  0.14860899448E+03  0.10000000000E+01 0.  0.
         21    1    1    2  502  501  0.19138713272E+02  0.28799252312E+02 -0.33490448332E+02  0.48138315394E+02  0.00000000000E+00 0.  1.
<mgrwt>
<rscale>  1 0.12971384E+03</rscale>
<asrwt>0</asrwt>
<pdfrwt beam="2">  1        4 0.31320359E-01 0.12971384E+03</pdfrwt>
<pdfrwt beam="1">  1       -4 0.51026127E-02 0.12971384E+03</pdfrwt>
<totfact> 0.36660684E+03</totfact>
</mgrwt>
</event>
<event>
 6    4  0.1195577E-003  0.1274422E+03  0.7818608E-02  0.1231301E+00
          4   -1    0    0  502    0  0.00000000000E+00  0.00000000000E+00  0.29350130159E+03  0.29350404927E+03  0.12700000000E+01 0. -1.
         -4   -1    0    0    0  501 -0.00000000000E+00 -0.00000000000E+00 -0.23694167776E+02  0.23728179168E+02  0.12700000000E+01 0. -1.
         25    2    1    2    0    0 -0.13229517839E+02 -0.21050233066E+02  0.15951640841E+03  0.20417394009E+03  0.12499352304E+03 0.  0.
    9000005    1    3    3    0    0 -0.68102830319E+02 -0.15543299654E+02  0.10846476899E+03  0.12901626167E+03  0.10000000000E+01 0.  0.
    9000005    1    3    3    0    0  0.54873312480E+02 -0.55069334120E+01  0.51051639420E+02  0.75157678421E+02  0.10000000000E+01 0.  0.
         21    1    1    2  502  501  0.13229517839E+02  0.21050233066E+02  0.11029072540E+03  0.11305828835E+03  0.00000000000E+00 0. -1.
<mgrwt>
<rscale>  1 0.12744220E+03</rscale>
<asrwt>0</asrwt>
<pdfrwt beam="1">  1        4 0.45156872E-01 0.12744220E+03</pdfrwt>
<pdfrwt beam="2">  1       -4 0.36480844E-02 0.12744220E+03</pdfrwt>
<totfact> 0.30539129E+03</totfact>
</mgrwt>
</event>
<event>
 6    4  0.1195577E-003  0.1318386E+03  0.7818608E-02  0.1224753E+00
         -4   -1    0    0    0  501 -0.00000000000E+00  0.00000000000E+00  0.50323750952E+03  0.50323911204E+03  0.12700000000E+01 0.  1.
          4   -1    0    0  502    0  0.00000000000E+00 -0.00000000000E+00 -0.19794172761E+02  0.19834872707E+02  0.12700000000E+01 0.  1.
         25    2    1    2    0    0  0.86343277507E+01 -0.41042322439E+02  0.45149751822E+03  0.47035246002E+03  0.12498961495E+03 0.  0.
    9000005    1    3    3    0    0 -0.33601782366E+02 -0.59140885411E+02  0.14192021992E+03  0.15738193329E+03  0.10000000000E+01 0.  0.
    9000005    1    3    3    0    0  0.42236110117E+02  0.18098562972E+02  0.30957729830E+03  0.31297052673E+03  0.10000000000E+01 0.  0.
         21    1    1    2  502  501 -0.86343277507E+01  0.41042322439E+02  0.31945818538E+02  0.52721524722E+02  0.00000000000E+00 0.  1.
<mgrwt>
<rscale>  1 0.13183864E+03</rscale>
<asrwt>0</asrwt>
<pdfrwt beam="2">  1        4 0.30485117E-02 0.13183864E+03</pdfrwt>
<pdfrwt beam="1">  1       -4 0.77424402E-01 0.13183864E+03</pdfrwt>
<totfact> 0.13195650E+03</totfact>
</mgrwt>
</event>
<event>
 6    4  0.1195577E-003  0.2020084E+03  0.7818608E-02  0.1148055E+00
         -4   -1    0    0    0  501 -0.00000000000E+00  0.00000000000E+00  0.10656074408E+03  0.10656831180E+03  0.12700000000E+01 0.  1.
          4   -1    0    0  502    0  0.00000000000E+00 -0.00000000000E+00 -0.30524699402E+03  0.30524963597E+03  0.12700000000E+01 0.  1.
         25    2    1    2    0    0  0.71577704626E+02  0.14162955255E+03 -0.10908222383E+03  0.22957860116E+03  0.12500041840E+03 0.  0.
    9000005    1    3    3    0    0  0.44418483679E+02 -0.54250491882E+01 -0.48495268135E+00  0.44762350587E+02  0.10000000000E+01 0.  0.
    9000005    1    3    3    0    0  0.27159220947E+02  0.14705460174E+03 -0.10859727115E+03  0.18481625058E+03  0.10000000000E+01 0.  0.
         21    1    1    2  502  501 -0.71577704626E+02 -0.14162955255E+03 -0.89604026110E+02  0.18223934661E+03  0.00000000000E+00 0.  1.
<mgrwt>
<rscale>  1 0.20200842E+03</rscale>
<asrwt>0</asrwt>
<pdfrwt beam="2">  1        4 0.46961861E-01 0.20200842E+03</pdfrwt>
<pdfrwt beam="1">  1       -4 0.16394746E-01 0.20200842E+03</pdfrwt>
<totfact> 0.25293963E+02</totfact>
</mgrwt>
</event>
<event>
 6    4  0.1195577E-003  0.1280916E+03  0.7818608E-02  0.1230315E+00
          4   -1    0    0  502    0  0.00000000000E+00  0.00000000000E+00  0.64297999168E+03  0.64298124592E+03  0.12700000000E+01 0.  1.
         -4   -1    0    0    0  501 -0.00000000000E+00 -0.00000000000E+00 -0.11327752502E+02  0.11398722593E+02  0.12700000000E+01 0.  1.
         25    2    1    2    0    0 -0.96371665488E+00  0.27950818553E+02  0.37636164662E+03  0.39756201030E+03  0.12500114393E+03 0.  0.
    9000005    1    3    3    0    0 -0.29004811701E+02  0.65256536250E+02  0.29721194469E+03  0.30567243037E+03  0.10000000000E+01 0.  0.
    9000005    1    3    3    0    0  0.28041095046E+02 -0.37305717697E+02  0.79149701928E+02  0.91889579929E+02  0.10000000000E+01 0.  0.
         21    1    1    2  502  501  0.96371665488E+00 -0.27950818553E+02  0.25529059256E+03  0.25681795821E+03  0.00000000000E+00 0. -1.
<mgrwt>
<rscale>  1 0.12809162E+03</rscale>
<asrwt>0</asrwt>
<pdfrwt beam="1">  1        4 0.98925581E-01 0.12809162E+03</pdfrwt>
<pdfrwt beam="2">  1       -4 0.17482864E-02 0.12809162E+03</pdfrwt>
<totfact> 0.17879166E+03</totfact>
</mgrwt>
</event>
<event>
 6    4  0.1195577E-003  0.1276017E+03  0.7818608E-02  0.1231058E+00
          4   -1    0    0  502    0  0.00000000000E+00  0.00000000000E+00  0.10537714203E+03  0.10538479474E+03  0.12700000000E+01 0.  1.
         -4   -1    0    0    0  501 -0.00000000000E+00 -0.00000000000E+00 -0.83201028868E+02  0.83210721093E+02  0.12700000000E+01 0.  1.
         25    2    1    2    0    0  0.25590580292E+02 -0.21005907620E+01 -0.29432620743E+02  0.13095220142E+03  0.12499163817E+03 0.  0.
    9000005    1    3    3    0    0 -0.33759951691E+02 -0.16429624041E+02  0.28214686044E+02  0.46975902257E+02  0.10000000000E+01 0.  0.
    9000005    1    3    3    0    0  0.59350531982E+02  0.14329033279E+02 -0.57647306787E+02  0.83976299163E+02  0.10000000000E+01 0.  0.
         21    1    1    2  502  501 -0.25590580292E+02  0.21005907620E+01  0.51608733900E+02  0.57643314408E+02  0.00000000000E+00 0. -1.
<mgrwt>
<rscale>  1 0.12760172E+03</rscale>
<asrwt>0</asrwt>
<pdfrwt beam="1">  1        4 0.16213202E-01 0.12760172E+03</pdfrwt>
<pdfrwt beam="2">  1       -4 0.12801493E-01 0.12760172E+03</pdfrwt>
<totfact> 0.26392527E+03</totfact>
</mgrwt>
</event>
<event>
 6    4  0.1195577E-003  0.1267759E+03  0.7818608E-02  0.1232320E+00
         -4   -1    0    0    0  501 -0.00000000000E+00  0.00000000000E+00  0.70902846139E+03  0.70902959879E+03  0.12700000000E+01 0.  1.
          4   -1    0    0  502    0  0.00000000000E+00 -0.00000000000E+00 -0.81254323037E+01  0.82240835430E+01  0.12700000000E+01 0.  1.
         25    2    1    2    0    0  0.13380822883E+02  0.16284510372E+02  0.64841151404E+03  0.66068875636E+03  0.12501163760E+03 0.  0.
    9000005    1    3    3    0    0 -0.23934273976E+02  0.31007250283E+02  0.58040679019E+03  0.58172789269E+03  0.10000000000E+01 0.  0.
    9000005    1    3    3    0    0  0.37315096859E+02 -0.14722739911E+02  0.68004723854E+02  0.78960863664E+02  0.10000000000E+01 0.  0.
         21    1    1    2  502  501 -0.13380822883E+02 -0.16284510372E+02  0.52491515044E+02  0.56564925976E+02  0.00000000000E+00 0.  1.
<mgrwt>
<rscale>  1 0.12677595E+03</rscale>
<asrwt>0</asrwt>
<pdfrwt beam="2">  1        4 0.12577421E-02 0.12677595E+03</pdfrwt>
<pdfrwt beam="1">  1       -4 0.10908902E+00 0.12677595E+03</pdfrwt>
<totfact> 0.23447401E+03</totfact>
</mgrwt>
</event>
<event>
 6    4  0.1195577E-003  0.1292823E+03  0.7818608E-02  0.1228525E+00
          4   -1    0    0  502    0  0.00000000000E+00  0.00000000000E+00  0.10186763962E+04  0.10186771879E+04  0.12700000000E+01 0. -1.
         -4   -1    0    0    0  501 -0.00000000000E+00 -0.00000000000E+00 -0.13448687975E+02  0.13508519839E+02  0.12700000000E+01 0. -1.
         25    2    1    2    0    0 -0.22220412192E+02 -0.24409711364E+02  0.30613218361E+03  0.33231133808E+03  0.12499732335E+03 0.  0.
    9000005    1    3    3    0    0  0.16484387355E+02 -0.16388889246E+02 -0.36984066766E+00  0.23269454211E+02  0.10000000000E+01 0.  0.
    9000005    1    3    3    0    0 -0.38704799547E+02 -0.80208221182E+01  0.30650202428E+03  0.30904188386E+03  0.10000000000E+01 0.  0.
         21    1    1    2  502  501  0.22220412192E+02  0.24409711364E+02  0.69909552465E+03  0.69987436967E+03  0.00000000000E+00 0. -1.
<mgrwt>
<rscale>  1 0.12928229E+03</rscale>
<asrwt>0</asrwt>
<pdfrwt beam="1">  1        4 0.15672418E+00 0.12928229E+03</pdfrwt>
<pdfrwt beam="2">  1       -4 0.20736914E-02 0.12928229E+03</pdfrwt>
<totfact> 0.45112821E+02</totfact>
</mgrwt>
</event>
<event>
 6    4  0.1195577E-003  0.1300923E+03  0.7818608E-02  0.1227319E+00
         -4   -1    0    0    0  501 -0.00000000000E+00  0.00000000000E+00  0.11197519835E+04  0.11197527037E+04  0.12700000000E+01 0. -1.
          4   -1    0    0  502    0  0.00000000000E+00 -0.00000000000E+00 -0.61044557941E+01  0.62351648368E+01  0.12700000000E+01 0. -1.
         25    2    1    2    0    0  0.27880195273E+01 -0.35937284199E+02  0.85482560786E+03  0.86466804985E+03  0.12499902051E+03 0.  0.
    9000005    1    3    3    0    0 -0.42865051985E+02 -0.48624005423E+02  0.26011007182E+03  0.26806707378E+03  0.10000000000E+01 0.  0.
    9000005    1    3    3    0    0  0.45653071513E+02  0.12686721224E+02  0.59471553604E+03  0.59660097606E+03  0.10000000000E+01 0.  0.
         21    1    1    2  502  501 -0.27880195273E+01  0.35937284199E+02  0.25882191988E+03  0.26131981873E+03  0.00000000000E+00 0. -1.
<mgrwt>
<rscale>  1 0.13009234E+03</rscale>
<asrwt>0</asrwt>
<pdfrwt beam="2">  1        4 0.94925723E-03 0.13009234E+03</pdfrwt>
<pdfrwt beam="1">  1       -4 0.17227960E+00 0.13009234E+03</pdfrwt>
<totfact> 0.11560170E+03</totfact>
</mgrwt>
</event>
<event>
 6    4  0.1195577E-003  0.1285470E+03  0.7818608E-02  0.1229628E+00
          4   -1    0    0  502    0  0.00000000000E+00  0.00000000000E+00  0.35427191117E+02  0.35449947397E+02  0.12700000000E+01 0. -1.
         -4   -1    0    0    0  501 -0.00000000000E+00 -0.00000000000E+00 -0.28995531084E+03  0.28995809212E+03  0.12700000000E+01 0. -1.
         25    2    1    2    0    0  0.29778239376E+02 -0.35454607172E+01 -0.26427087350E+03  0.29387654600E+03  0.12500006350E+03 0.  0.
    9000005    1    3    3    0    0  0.71916811813E+02  0.14569421307E+02 -0.21192600921E+03  0.22427199833E+03  0.10000000000E+01 0.  0.
    9000005    1    3    3    0    0 -0.42138572437E+02 -0.18114882024E+02 -0.52344864297E+02  0.69604547668E+02  0.10000000000E+01 0.  0.
         21    1    1    2  502  501 -0.29778239376E+02  0.35454607172E+01  0.97427537792E+01  0.31531493514E+02  0.00000000000E+00 0. -1.
<mgrwt>
<rscale>  1 0.12854699E+03</rscale>
<asrwt>0</asrwt>
<pdfrwt beam="1">  1        4 0.54523017E-02 0.12854699E+03</pdfrwt>
<pdfrwt beam="2">  1       -4 0.44610472E-01 0.12854699E+03</pdfrwt>
<totfact> 0.16512684E+03</totfact>
</mgrwt>
</event>
<event>
 6    4  0.1195577E-003  0.1309200E+03  0.7818608E-02  0.1226097E+00
         -4   -1    0    0    0  501 -0.00000000000E+00  0.00000000000E+00  0.28262212934E+02  0.28290733111E+02  0.12700000000E+01 0.  1.
          4   -1    0    0  502    0  0.00000000000E+00 -0.00000000000E+00 -0.37195585491E+03  0.37195802303E+03  0.12700000000E+01 0.  1.
         25    2    1    2    0    0  0.19814428137E+02  0.33496556479E+02 -0.13537274818E+03  0.18832370890E+03  0.12500163010E+03 0.  0.
    9000005    1    3    3    0    0 -0.49924835057E+02  0.30820479335E+02 -0.44010012829E+02  0.73350339679E+02  0.10000000000E+01 0.  0.
    9000005    1    3    3    0    0  0.69739263194E+02  0.26760771440E+01 -0.91362735353E+02  0.11497336922E+03  0.10000000000E+01 0.  0.
         21    1    1    2  502  501 -0.19814428137E+02 -0.33496556479E+02 -0.20832089379E+03  0.21192504724E+03  0.00000000000E+00 0.  1.
<mgrwt>
<rscale>  1 0.13091997E+03</rscale>
<asrwt>0</asrwt>
<pdfrwt beam="2">  1        4 0.57226335E-01 0.13091997E+03</pdfrwt>
<pdfrwt beam="1">  1       -4 0.43503937E-02 0.13091997E+03</pdfrwt>
<totfact> 0.14333434E+03</totfact>
</mgrwt>
</event>
<event>
 6    4  0.1195577E-003  0.1302499E+03  0.7818608E-02  0.1227085E+00
          4   -1    0    0  502    0  0.00000000000E+00  0.00000000000E+00  0.22148266940E+02  0.22184648486E+02  0.12700000000E+01 0.  1.
         -4   -1    0    0    0  501 -0.00000000000E+00 -0.00000000000E+00 -0.31420762126E+03  0.31421018786E+03  0.12700000000E+01 0.  1.
         25    2    1    2    0    0  0.22635338583E+02 -0.28753037516E+02 -0.22366859819E+03  0.25882943657E+03  0.12500375874E+03 0.  0.
    9000005    1    3    3    0    0  0.62625777560E+02  0.15058710625E+02 -0.75633751296E+02  0.99348966355E+02  0.10000000000E+01 0.  0.
    9000005    1    3    3    0    0 -0.39990438977E+02 -0.43811748142E+02 -0.14803484690E+03  0.15948047022E+03  0.10000000000E+01 0.  0.
         21    1    1    2  502  501 -0.22635338583E+02  0.28753037516E+02 -0.68390756128E+02  0.77565399779E+02  0.00000000000E+00 0. -1.
<mgrwt>
<rscale>  1 0.13024990E+03</rscale>
<asrwt>0</asrwt>
<pdfrwt beam="1">  1        4 0.34104219E-02 0.13024990E+03</pdfrwt>
<pdfrwt beam="2">  1       -4 0.48342627E-01 0.13024990E+03</pdfrwt>
<totfact> 0.29762423E+03</totfact>
</mgrwt>
</event>
<event>
 6    4  0.1195577E-003  0.1270850E+03  0.7818608E-02  0.1231846E+00
          4   -1    0    0  502    0  0.00000000000E+00  0.00000000000E+00  0.15154926581E+04  0.15154931902E+04  0.12700000000E+01 0. -1.
         -4   -1    0    0    0  501 -0.00000000000E+00 -0.00000000000E+00 -0.36414994718E+01  0.38566071103E+01  0.12700000000E+01 0. -1.
         25    2    1    2    0    0  0.22148788891E+02 -0.59821461152E+01  0.12212945472E+04  0.12278888234E+04  0.12499694618E+03 0.  0.
    9000005    1    3    3    0    0 -0.96473763162E+01  0.93108860420E+01  0.11289244563E+04  0.11290045139E+04  0.10000000000E+01 0.  0.
    9000005    1    3    3    0    0  0.31796165207E+02 -0.15293032157E+02  0.92370090985E+02  0.98884309489E+02  0.10000000000E+01 0.  0.
         21    1    1    2  502  501 -0.22148788891E+02  0.59821461152E+01  0.29055661139E+03  0.29146097397E+03  0.00000000000E+00 0. -1.
<mgrwt>
<rscale>  1 0.12708498E+03</rscale>
<asrwt>0</asrwt>
<pdfrwt beam="1">  1        4 0.23316942E+00 0.12708498E+03</pdfrwt>
<pdfrwt beam="2">  1       -4 0.57681807E-03 0.12708498E+03</pdfrwt>
<totfact> 0.10143945E+03</totfact>
</mgrwt>
</event>
<event>
 6    4  0.1195577E-003  0.1320311E+03  0.7818608E-02  0.1224473E+00
         -4   -1    0    0    0  501 -0.00000000000E+00  0.00000000000E+00  0.13077358509E+03  0.13077975171E+03  0.12700000000E+01 0. -1.
          4   -1    0    0  502    0  0.00000000000E+00 -0.00000000000E+00 -0.65931960935E+02  0.65944191349E+02  0.12700000000E+01 0. -1.
         25    2    1    2    0    0  0.19325698006E+02  0.37870592644E+02  0.76559179719E+02  0.15262218006E+03  0.12499822982E+03 0.  0.
    9000005    1    3    3    0    0 -0.50697326625E+02  0.77162529842E+00  0.16999754318E+02  0.53486502778E+02  0.10000000000E+01 0.  0.
    9000005    1    3    3    0    0  0.70023024630E+02  0.37098967346E+02  0.59559425401E+02  0.99135677284E+02  0.10000000000E+01 0.  0.
         21    1    1    2  502  501 -0.19325698006E+02 -0.37870592644E+02 -0.11717555568E+02  0.44101762993E+02  0.00000000000E+00 0. -1.
<mgrwt>
<rscale>  1 0.13203114E+03</rscale>
<asrwt>0</asrwt>
<pdfrwt beam="2">  1        4 0.10144794E-01 0.13203114E+03</pdfrwt>
<pdfrwt beam="1">  1       -4 0.20120428E-01 0.13203114E+03</pdfrwt>
<totfact> 0.26928568E+03</totfact>
</mgrwt>
</event>
<event>
 6    4  0.1195577E-003  0.1363089E+03  0.7818608E-02  0.1218384E+00
          4   -1    0    0  502    0  0.00000000000E+00  0.00000000000E+00  0.11890849197E+02  0.11958477939E+02  0.12700000000E+01 0. -1.
         -4   -1    0    0    0  501 -0.00000000000E+00 -0.00000000000E+00 -0.83207828494E+03  0.83207925414E+03  0.12700000000E+01 0. -1.
         25    2    1    2    0    0  0.27503241205E+02  0.46905084287E+02 -0.68297443298E+03  0.69644395397E+03  0.12499435871E+03 0.  0.
    9000005    1    3    3    0    0  0.27403436572E+01  0.65763432956E+02 -0.16663604426E+03  0.17916726778E+03  0.10000000000E+01 0.  0.
    9000005    1    3    3    0    0  0.24762897548E+02 -0.18858348669E+02 -0.51633838872E+03  0.51727668619E+03  0.10000000000E+01 0.  0.
         21    1    1    2  502  501 -0.27503241205E+02 -0.46905084287E+02 -0.13721300277E+03  0.14759377811E+03  0.00000000000E+00 0. -1.
<mgrwt>
<rscale>  1 0.13630886E+03</rscale>
<asrwt>0</asrwt>
<pdfrwt beam="1">  1        4 0.18346388E-02 0.13630886E+03</pdfrwt>
<pdfrwt beam="2">  1       -4 0.12801728E+00 0.13630886E+03</pdfrwt>
<totfact> 0.91350020E+02</totfact>
</mgrwt>
</event>
<event>
 6    4  0.1195577E-003  0.1291086E+03  0.7818608E-02  0.1228784E+00
          4   -1    0    0  502    0  0.00000000000E+00  0.00000000000E+00  0.63075359959E+02  0.63088144163E+02  0.12700000000E+01 0.  1.
         -4   -1    0    0    0  501 -0.00000000000E+00 -0.00000000000E+00 -0.15701570433E+03  0.15702084035E+03  0.12700000000E+01 0.  1.
         25    2    1    2    0    0 -0.27040676731E+02  0.17665328494E+02 -0.12177005037E+03  0.17747385153E+03  0.12500304308E+03 0.  0.
    9000005    1    3    3    0    0 -0.40108232498E+02  0.63215023062E+02 -0.45310140669E+02  0.87514674782E+02  0.10000000000E+01 0.  0.
    9000005    1    3    3    0    0  0.13067555767E+02 -0.45549694568E+02 -0.76459909703E+02  0.89959176746E+02  0.10000000000E+01 0.  0.
         21    1    1    2  502  501  0.27040676731E+02 -0.17665328494E+02  0.27829706003E+02  0.42635132990E+02  0.00000000000E+00 0. -1.
<mgrwt>
<rscale>  1 0.12910857E+03</rscale>
<asrwt>0</asrwt>
<pdfrwt beam="1">  1        4 0.97052800E-02 0.12910857E+03</pdfrwt>
<pdfrwt beam="2">  1       -4 0.24157641E-01 0.12910857E+03</pdfrwt>
<totfact> 0.20698685E+03</totfact>
</mgrwt>
</event>
<event>
 6    4  0.1195577E-003  0.1268294E+03  0.7818608E-02  0.1232238E+00
          4   -1    0    0  502    0  0.00000000000E+00  0.00000000000E+00  0.81645597904E+03  0.81645696678E+03  0.12700000000E+01 0. -1.
         -4   -1    0    0    0  501 -0.00000000000E+00 -0.00000000000E+00 -0.82395795487E+01  0.83368801802E+01  0.12700000000E+01 0. -1.
         25    2    1    2    0    0 -0.17436420930E+02 -0.12636156541E+02  0.50031229040E+03  0.51613766021E+03  0.12498797996E+03 0.  0.
    9000005    1    3    3    0    0 -0.18552288197E+02  0.73263290837E+01  0.49503151440E+03  0.49543421636E+03  0.10000000000E+01 0.  0.
    9000005    1    3    3    0    0  0.11158672670E+01 -0.19962485625E+02  0.52807760068E+01  0.20703443852E+02  0.10000000000E+01 0.  0.
         21    1    1    2  502  501  0.17436420930E+02  0.12636156541E+02  0.30790410908E+03  0.30865618675E+03  0.00000000000E+00 0. -1.
<mgrwt>
<rscale>  1 0.12682940E+03</rscale>
<asrwt>0</asrwt>
<pdfrwt beam="1">  1        4 0.12561613E+00 0.12682940E+03</pdfrwt>
<pdfrwt beam="2">  1       -4 0.12751887E-02 0.12682940E+03</pdfrwt>
<totfact> 0.16405380E+03</totfact>
</mgrwt>
</event>
<event>
 6    4  0.1195577E-003  0.1294899E+03  0.7818608E-02  0.1228215E+00
          4   -1    0    0  502    0  0.00000000000E+00  0.00000000000E+00  0.30165353018E+03  0.30165620359E+03  0.12700000000E+01 0.  1.
         -4   -1    0    0    0  501 -0.00000000000E+00 -0.00000000000E+00 -0.45739883390E+02  0.45757511214E+02  0.12700000000E+01 0.  1.
         25    2    1    2    0    0  0.21988239481E+02  0.25832329178E+02  0.50133406935E+02  0.13885605127E+03  0.12496740606E+03 0.  0.
    9000005    1    3    3    0    0  0.57221254170E+02 -0.25246560704E+02  0.44036381907E+02  0.76497475040E+02  0.10000000000E+01 0.  0.
    9000005    1    3    3    0    0 -0.35233014688E+02  0.51078889882E+02  0.60970250285E+01  0.62358576233E+02  0.10000000000E+01 0.  0.
         21    1    1    2  502  501 -0.21988239481E+02 -0.25832329178E+02  0.20578023985E+03  0.20855766353E+03  0.00000000000E+00 0.  1.
<mgrwt>
<rscale>  1 0.12948994E+03</rscale>
<asrwt>0</asrwt>
<pdfrwt beam="1">  1        4 0.46409798E-01 0.12948994E+03</pdfrwt>
<pdfrwt beam="2">  1       -4 0.70384666E-02 0.12948994E+03</pdfrwt>
<totfact> 0.10085052E+03</totfact>
</mgrwt>
</event>
<event>
 6    4  0.1195577E-003  0.1283104E+03  0.7818608E-02  0.1229985E+00
         -4   -1    0    0    0  501 -0.00000000000E+00  0.00000000000E+00  0.63869139296E+02  0.63881764647E+02  0.12700000000E+01 0.  1.
          4   -1    0    0  502    0  0.00000000000E+00 -0.00000000000E+00 -0.97977522489E+02  0.97985753113E+02  0.12700000000E+01 0.  1.
         25    2    1    2    0    0 -0.22653040111E+02 -0.18120600178E+02 -0.20932812508E+02  0.13000669480E+03  0.12498816614E+03 0.  0.
    9000005    1    3    3    0    0 -0.19771127153E+02  0.51052219843E+02  0.72829710044E+01  0.55238286419E+02  0.10000000000E+01 0.  0.
    9000005    1    3    3    0    0 -0.28819129581E+01 -0.69172820022E+02 -0.28215783512E+02  0.74768408377E+02  0.10000000000E+01 0.  0.
         21    1    1    2  502  501  0.22653040111E+02  0.18120600178E+02 -0.13175570685E+02  0.31860822964E+02  0.00000000000E+00 0.  1.
<mgrwt>
<rscale>  1 0.12831040E+03</rscale>
<asrwt>0</asrwt>
<pdfrwt beam="2">  1        4 0.15075069E-01 0.12831040E+03</pdfrwt>
<pdfrwt beam="1">  1       -4 0.98276257E-02 0.12831040E+03</pdfrwt>
<totfact> 0.47038573E+03</totfact>
</mgrwt>
</event>
<event>
 6    4  0.1195577E-003  0.1302251E+03  0.7818608E-02  0.1227122E+00
          4   -1    0    0  502    0  0.00000000000E+00  0.00000000000E+00  0.73546714122E+02  0.73557678445E+02  0.12700000000E+01 0.  1.
         -4   -1    0    0    0  501 -0.00000000000E+00 -0.00000000000E+00 -0.13428910803E+03  0.13429511322E+03  0.12700000000E+01 0.  1.
         25    2    1    2    0    0 -0.13277977164E+02 -0.34020485682E+02 -0.92274982572E+02  0.15960341580E+03  0.12499951922E+03 0.  0.
    9000005    1    3    3    0    0 -0.33505852373E+02 -0.65640185741E+02 -0.17234041302E+02  0.75692062377E+02  0.10000000000E+01 0.  0.
    9000005    1    3    3    0    0  0.20227875209E+02  0.31619700058E+02 -0.75040941270E+02  0.83911353427E+02  0.10000000000E+01 0.  0.
         21    1    1    2  502  501  0.13277977164E+02  0.34020485682E+02  0.31532588662E+02  0.48249375865E+02  0.00000000000E+00 0.  1.
<mgrwt>
<rscale>  1 0.13022510E+03</rscale>
<asrwt>0</asrwt>
<pdfrwt beam="1">  1        4 0.11316184E-01 0.13022510E+03</pdfrwt>
<pdfrwt beam="2">  1       -4 0.20661168E-01 0.13022510E+03</pdfrwt>
<totfact> 0.21266975E+03</totfact>
</mgrwt>
</event>
<event>
 6    4  0.1195577E-003  0.1269203E+03  0.7818608E-02  0.1232098E+00
          4   -1    0    0  502    0  0.00000000000E+00  0.00000000000E+00  0.48267216782E+03  0.48267383862E+03  0.12700000000E+01 0. -1.
         -4   -1    0    0    0  501 -0.00000000000E+00 -0.00000000000E+00 -0.13055956175E+02  0.13117579488E+02  0.12700000000E+01 0. -1.
         25    2    1    2    0    0 -0.20443181920E+02  0.81092519665E+01  0.31482949753E+03  0.33945009113E+03  0.12500027280E+03 0.  0.
    9000005    1    3    3    0    0 -0.71419544935E+01  0.19584713211E+02 -0.30430088463E+01  0.21090955607E+02  0.10000000000E+01 0.  0.
    9000005    1    3    3    0    0 -0.13301227426E+02 -0.11475461245E+02  0.31787250638E+03  0.31835913552E+03  0.10000000000E+01 0.  0.
         21    1    1    2  502  501  0.20443181920E+02 -0.81092519665E+01  0.15478671412E+03  0.15634132698E+03  0.00000000000E+00 0. -1.
<mgrwt>
<rscale>  1 0.12692026E+03</rscale>
<asrwt>0</asrwt>
<pdfrwt beam="1">  1        4 0.74262112E-01 0.12692026E+03</pdfrwt>
<pdfrwt beam="2">  1       -4 0.20134778E-02 0.12692026E+03</pdfrwt>
<totfact> 0.27280914E+03</totfact>
</mgrwt>
</event>
<event>
 6    4  0.1195577E-003  0.1267461E+03  0.7818608E-02  0.1232365E+00
          4   -1    0    0  502    0  0.00000000000E+00  0.00000000000E+00  0.32645359924E+02  0.32670053942E+02  0.12700000000E+01 0. -1.
         -4   -1    0    0    0  501 -0.00000000000E+00 -0.00000000000E+00 -0.22200364089E+03  0.22200727346E+03  0.12700000000E+01 0. -1.
         25    2    1    2    0    0  0.20849340738E+02  0.22004105612E+01 -0.19535681634E+03  0.23287092370E+03  0.12500017841E+03 0.  0.
    9000005    1    3    3    0    0  0.32023523568E+02  0.43166642536E+02 -0.17975542853E+03  0.18762163834E+03  0.10000000000E+01 0.  0.
    9000005    1    3    3    0    0 -0.11174182830E+02 -0.40966231975E+02 -0.15601387810E+02  0.45249285362E+02  0.10000000000E+01 0.  0.
         21    1    1    2  502  501 -0.20849340738E+02 -0.22004105612E+01  0.59985353660E+01  0.21806403702E+02  0.00000000000E+00 0. -1.
<mgrwt>
<rscale>  1 0.12674613E+03</rscale>
<asrwt>0</asrwt>
<pdfrwt beam="1">  1        4 0.50245422E-02 0.12674613E+03</pdfrwt>
<pdfrwt beam="2">  1       -4 0.34156584E-01 0.12674613E+03</pdfrwt>
<totfact> 0.31667475E+03</totfact>
</mgrwt>
</event>
<event>
 6    4  0.1195577E-003  0.1343022E+03  0.7818608E-02  0.1221208E+00
          4   -1    0    0  502    0  0.00000000000E+00  0.00000000000E+00  0.39551015097E+02  0.39571399965E+02  0.12700000000E+01 0. -1.
         -4   -1    0    0    0  501 -0.00000000000E+00 -0.00000000000E+00 -0.32526559225E+03  0.32526807160E+03  0.12700000000E+01 0. -1.
         25    2    1    2    0    0  0.46188482006E+01  0.48896860750E+02 -0.28573616831E+03  0.31572493995E+03  0.12499937229E+03 0.  0.
    9000005    1    3    3    0    0 -0.49790680163E+02  0.58668257039E+02 -0.13839253064E+03  0.15834951453E+03  0.10000000000E+01 0.  0.
    9000005    1    3    3    0    0  0.54409528364E+02 -0.97713962891E+01 -0.14734363767E+03  0.15737542541E+03  0.10000000000E+01 0.  0.
         21    1    1    2  502  501 -0.46188482006E+01 -0.48896860750E+02  0.21591159452E-01  0.49114531618E+02  0.00000000000E+00 0. -1.
<mgrwt>
<rscale>  1 0.13430220E+03</rscale>
<asrwt>0</asrwt>
<pdfrwt beam="1">  1        4 0.60865305E-02 0.13430220E+03</pdfrwt>
<pdfrwt beam="2">  1       -4 0.50042618E-01 0.13430220E+03</pdfrwt>
<totfact> 0.11064104E+03</totfact>
</mgrwt>
</event>
<event>
 6    4  0.1195577E-003  0.1271587E+03  0.7818608E-02  0.1231734E+00
         -4   -1    0    0    0  501 -0.00000000000E+00  0.00000000000E+00  0.23316344503E+03  0.23316690373E+03  0.12700000000E+01 0. -1.
          4   -1    0    0  502    0  0.00000000000E+00 -0.00000000000E+00 -0.72836877627E+02  0.72847948787E+02  0.12700000000E+01 0. -1.
         25    2    1    2    0    0  0.22920829466E+02 -0.43868522580E+01  0.21318835273E+03  0.24823096857E+03  0.12499892448E+03 0.  0.
    9000005    1    3    3    0    0  0.74408364540E+02  0.56480729811E+01  0.12129446123E+03  0.14241436644E+03  0.10000000000E+01 0.  0.
    9000005    1    3    3    0    0 -0.51487535074E+02 -0.10034925239E+02  0.91893891499E+02  0.10581660214E+03  0.10000000000E+01 0.  0.
         21    1    1    2  502  501 -0.22920829466E+02  0.43868522580E+01 -0.52861785330E+02  0.57783883951E+02  0.00000000000E+00 0. -1.
<mgrwt>
<rscale>  1 0.12715872E+03</rscale>
<asrwt>0</asrwt>
<pdfrwt beam="2">  1        4 0.11206791E-01 0.12715872E+03</pdfrwt>
<pdfrwt beam="1">  1       -4 0.35872417E-01 0.12715872E+03</pdfrwt>
<totfact> 0.76833021E+02</totfact>
</mgrwt>
</event>
<event>
 6    4  0.1195577E-003  0.1344791E+03  0.7818608E-02  0.1220957E+00
          4   -1    0    0  502    0  0.00000000000E+00  0.00000000000E+00  0.70514855207E+02  0.70526290877E+02  0.12700000000E+01 0. -1.
         -4   -1    0    0    0  501 -0.00000000000E+00 -0.00000000000E+00 -0.12179578466E+03  0.12180240581E+03  0.12700000000E+01 0. -1.
         25    2    1    2    0    0  0.43620369071E+02 -0.23594998180E+02 -0.47384231218E+02  0.14258289491E+03  0.12500062407E+03 0.  0.
    9000005    1    3    3    0    0  0.72350979716E+01 -0.70405511745E+02 -0.43668381601E+02  0.83169767815E+02  0.10000000000E+01 0.  0.
    9000005    1    3    3    0    0  0.36385271099E+02  0.46810513566E+02 -0.37158496171E+01  0.59413127098E+02  0.10000000000E+01 0.  0.
         21    1    1    2  502  501 -0.43620369071E+02  0.23594998180E+02 -0.38966982363E+01  0.49745801774E+02  0.00000000000E+00 0.  1.
<mgrwt>
<rscale>  1 0.13447906E+03</rscale>
<asrwt>0</asrwt>
<pdfrwt beam="1">  1        4 0.10849828E-01 0.13447906E+03</pdfrwt>
<pdfrwt beam="2">  1       -4 0.18739202E-01 0.13447906E+03</pdfrwt>
<totfact> 0.27420412E+03</totfact>
</mgrwt>
</event>
<event>
 6    4  0.1195577E-003  0.1456651E+03  0.7818608E-02  0.1205903E+00
          4   -1    0    0  502    0  0.00000000000E+00  0.00000000000E+00  0.36292000491E+03  0.36292222702E+03  0.12700000000E+01 0.  1.
         -4   -1    0    0    0  501 -0.00000000000E+00 -0.00000000000E+00 -0.34166127279E+02  0.34189722918E+02  0.12700000000E+01 0.  1.
         25    2    1    2    0    0 -0.45035331817E+02  0.59702176760E+02  0.24314773895E+03  0.28344162839E+03  0.12500321085E+03 0.  0.
    9000005    1    3    3    0    0 -0.86450671866E+02  0.56951267110E+02  0.16130913930E+03  0.19167369124E+03  0.10000000000E+01 0.  0.
    9000005    1    3    3    0    0  0.41415340049E+02  0.27509096502E+01  0.81838599655E+02  0.91767937150E+02  0.10000000000E+01 0.  0.
         21    1    1    2  502  501  0.45035331817E+02 -0.59702176760E+02  0.85606138676E+02  0.11367032155E+03  0.00000000000E+00 0.  1.
<mgrwt>
<rscale>  1 0.14566514E+03</rscale>
<asrwt>0</asrwt>
<pdfrwt beam="1">  1        4 0.55835833E-01 0.14566514E+03</pdfrwt>
<pdfrwt beam="2">  1       -4 0.52583132E-02 0.14566514E+03</pdfrwt>
<totfact> 0.11384147E+03</totfact>
</mgrwt>
</event>
<event>
 6    4  0.1195577E-003  0.1280630E+03  0.7818608E-02  0.1230359E+00
          4   -1    0    0  502    0  0.00000000000E+00  0.00000000000E+00  0.17312684066E+02  0.17359203023E+02  0.12700000000E+01 0.  1.
         -4   -1    0    0    0  501 -0.00000000000E+00 -0.00000000000E+00 -0.10447424990E+04  0.10447432709E+04  0.12700000000E+01 0.  1.
         25    2    1    2    0    0  0.25399849088E+02 -0.11406673427E+02 -0.10262757447E+04  0.10342349945E+04  0.12499942031E+03 0.  0.
    9000005    1    3    3    0    0 -0.29323194679E+02 -0.51799621598E+02 -0.52513733460E+03  0.52850096569E+03  0.10000000000E+01 0.  0.
    9000005    1    3    3    0    0  0.54723043767E+02  0.40392948171E+02 -0.50113841014E+03  0.50573402882E+03  0.10000000000E+01 0.  0.
         21    1    1    2  502  501 -0.25399849088E+02  0.11406673427E+02 -0.11540702016E+01  0.27867479441E+02  0.00000000000E+00 0.  1.
<mgrwt>
<rscale>  1 0.12806295E+03</rscale>
<asrwt>0</asrwt>
<pdfrwt beam="1">  1        4 0.26671284E-02 0.12806295E+03</pdfrwt>
<pdfrwt beam="2">  1       -4 0.16073320E+00 0.12806295E+03</pdfrwt>
<totfact> 0.28563326E+02</totfact>
</mgrwt>
</event>
<event>
 6    4  0.1195577E-003  0.1277998E+03  0.7818608E-02  0.1230757E+00
          4   -1    0    0  502    0  0.00000000000E+00  0.00000000000E+00  0.57058499128E+02  0.57072631118E+02  0.12700000000E+01 0. -1.
         -4   -1    0    0    0  501 -0.00000000000E+00 -0.00000000000E+00 -0.11252925625E+03  0.11253642261E+03  0.12700000000E+01 0. -1.
         25    2    1    2    0    0  0.11206036213E+02 -0.23871521870E+02 -0.62576429393E+02  0.14229760224E+03  0.12504948334E+03 0.  0.
    9000005    1    3    3    0    0  0.23295095964E+02 -0.55029992467E+02 -0.83625702737E+02  0.10278725468E+03  0.10000000000E+01 0.  0.
    9000005    1    3    3    0    0 -0.12089059751E+02  0.31158470597E+02  0.21049273343E+02  0.39510347555E+02  0.10000000000E+01 0.  0.
         21    1    1    2  502  501 -0.11206036213E+02  0.23871521870E+02  0.71056722669E+01  0.27311451488E+02  0.00000000000E+00 0. -1.
<mgrwt>
<rscale>  1 0.12779984E+03</rscale>
<asrwt>0</asrwt>
<pdfrwt beam="1">  1        4 0.87798690E-02 0.12779984E+03</pdfrwt>
<pdfrwt beam="2">  1       -4 0.17313832E-01 0.12779984E+03</pdfrwt>
<totfact> 0.44495005E+03</totfact>
</mgrwt>
</event>
<event>
 6    4  0.1195577E-003  0.1634944E+03  0.7818608E-02  0.1184807E+00
          4   -1    0    0  502    0  0.00000000000E+00  0.00000000000E+00  0.11827772470E+03  0.11828454278E+03  0.12700000000E+01 0. -1.
         -4   -1    0    0    0  501 -0.00000000000E+00 -0.00000000000E+00 -0.31346161086E+03  0.31346418357E+03  0.12700000000E+01 0. -1.
         25    2    1    2    0    0 -0.10537834964E+03  0.15244492047E+01 -0.26064872599E+03  0.30768194687E+03  0.12499400607E+03 0.  0.
    9000005    1    3    3    0    0 -0.12045721915E+03  0.16589581641E+01 -0.13423594156E+03  0.18036901561E+03  0.10000000000E+01 0.  0.
    9000005    1    3    3    0    0  0.15078869510E+02 -0.13450895941E+00 -0.12641278443E+03  0.12731293126E+03  0.10000000000E+01 0.  0.
         21    1    1    2  502  501  0.10537834964E+03 -0.15244492047E+01  0.65464839828E+02  0.12406677948E+03  0.00000000000E+00 0. -1.
<mgrwt>
<rscale>  1 0.16349441E+03</rscale>
<asrwt>0</asrwt>
<pdfrwt beam="1">  1        4 0.18197295E-01 0.16349441E+03</pdfrwt>
<pdfrwt beam="2">  1       -4 0.48225585E-01 0.16349441E+03</pdfrwt>
<totfact> 0.19252783E+02</totfact>
</mgrwt>
</event>
<event>
 6    4  0.1195577E-003  0.1323077E+03  0.7818608E-02  0.1224071E+00
          4   -1    0    0  502    0  0.00000000000E+00  0.00000000000E+00  0.30703452261E+03  0.30703714917E+03  0.12700000000E+01 0. -1.
         -4   -1    0    0    0  501 -0.00000000000E+00 -0.00000000000E+00 -0.26108343416E+02  0.26139213759E+02  0.12700000000E+01 0. -1.
         25    2    1    2    0    0  0.26972974768E+02  0.33966619440E+02  0.23709068400E+03  0.27150932763E+03  0.12499619973E+03 0.  0.
    9000005    1    3    3    0    0  0.47350504908E+02  0.65722663590E+02  0.96776851048E+02  0.12620736002E+03  0.10000000000E+01 0.  0.
    9000005    1    3    3    0    0 -0.20377530140E+02 -0.31756044150E+02  0.14031383295E+03  0.14530196761E+03  0.10000000000E+01 0.  0.
         21    1    1    2  502  501 -0.26972974768E+02 -0.33966619440E+02  0.43835495196E+02  0.61667035303E+02  0.00000000000E+00 0. -1.
<mgrwt>
<rscale>  1 0.13230768E+03</rscale>
<asrwt>0</asrwt>
<pdfrwt beam="1">  1        4 0.47238659E-01 0.13230768E+03</pdfrwt>
<pdfrwt beam="2">  1       -4 0.40192447E-02 0.13230768E+03</pdfrwt>
<totfact> 0.24142208E+03</totfact>
</mgrwt>
</event>
<event>
 6    4  0.1195577E-003  0.1283262E+03  0.7818608E-02  0.1229961E+00
         -4   -1    0    0    0  501 -0.00000000000E+00  0.00000000000E+00  0.13053637071E+03  0.13054254854E+03  0.12700000000E+01 0.  1.
          4   -1    0    0  502    0  0.00000000000E+00 -0.00000000000E+00 -0.90219456608E+02  0.90228394924E+02  0.12700000000E+01 0.  1.
         25    2    1    2    0    0 -0.51079948539E+01  0.28584833636E+02  0.94452792238E+02  0.15933904925E+03  0.12499767329E+03 0.  0.
    9000005    1    3    3    0    0  0.51138259695E+02 -0.14239335333E+02  0.61764151176E+02  0.81447471697E+02  0.10000000000E+01 0.  0.
    9000005    1    3    3    0    0 -0.56246254548E+02  0.42824168969E+02  0.32688641061E+02  0.77891577549E+02  0.10000000000E+01 0.  0.
         21    1    1    2  502  501  0.51079948539E+01 -0.28584833636E+02 -0.54135878134E+02  0.61431894215E+02  0.00000000000E+00 0.  1.
<mgrwt>
<rscale>  1 0.12832616E+03</rscale>
<asrwt>0</asrwt>
<pdfrwt beam="2">  1        4 0.13881079E-01 0.12832616E+03</pdfrwt>
<pdfrwt beam="1">  1       -4 0.20083681E-01 0.12832616E+03</pdfrwt>
<totfact> 0.15711097E+03</totfact>
</mgrwt>
</event>
<event>
 6    4  0.1195577E-003  0.1277437E+03  0.7818608E-02  0.1230843E+00
          4   -1    0    0  502    0  0.00000000000E+00  0.00000000000E+00  0.46254598367E+03  0.46254772717E+03  0.12700000000E+01 0. -1.
         -4   -1    0    0    0  501 -0.00000000000E+00 -0.00000000000E+00 -0.15189890058E+02  0.15242888833E+02  0.12700000000E+01 0. -1.
         25    2    1    2    0    0 -0.80981654737E+01  0.25057992768E+02  0.27242427929E+03  0.30088775298E+03  0.12499987463E+03 0.  0.
    9000005    1    3    3    0    0  0.41466520459E+02  0.25525628738E+02  0.39391342221E+02  0.62639507369E+02  0.10000000000E+01 0.  0.
    9000005    1    3    3    0    0 -0.49564685932E+02 -0.46763596914E+00  0.23303293707E+03  0.23824824561E+03  0.10000000000E+01 0.  0.
         21    1    1    2  502  501  0.80981654737E+01 -0.25057992768E+02  0.17493181432E+03  0.17690286302E+03  0.00000000000E+00 0. -1.
<mgrwt>
<rscale>  1 0.12774370E+03</rscale>
<asrwt>0</asrwt>
<pdfrwt beam="1">  1        4 0.71165132E-01 0.12774370E+03</pdfrwt>
<pdfrwt beam="2">  1       -4 0.23411171E-02 0.12774370E+03</pdfrwt>
<totfact> 0.23746587E+03</totfact>
</mgrwt>
</event>
<event>
 6    4  0.1195577E-003  0.1271451E+03  0.7818608E-02  0.1231754E+00
          4   -1    0    0  502    0  0.00000000000E+00  0.00000000000E+00  0.81011858469E+02  0.81021812573E+02  0.12700000000E+01 0.  1.
         -4   -1    0    0    0  501 -0.00000000000E+00 -0.00000000000E+00 -0.73381280525E+02  0.73392269562E+02  0.12700000000E+01 0.  1.
         25    2    1    2    0    0 -0.78353931660E+01 -0.22034555534E+02  0.18747872184E+02  0.12851988868E+03  0.12497585387E+03 0.  0.
    9000005    1    3    3    0    0 -0.22773675325E+02  0.45510581782E+02  0.28996670151E+02  0.58580374033E+02  0.10000000000E+01 0.  0.
    9000005    1    3    3    0    0  0.14938282159E+02 -0.67545137316E+02 -0.10248797967E+02  0.69939514644E+02  0.10000000000E+01 0.  0.
         21    1    1    2  502  501  0.78353931660E+01  0.22034555534E+02 -0.11117294240E+02  0.25894193459E+02  0.00000000000E+00 0.  1.
<mgrwt>
<rscale>  1 0.12714511E+03</rscale>
<asrwt>0</asrwt>
<pdfrwt beam="1">  1        4 0.12464974E-01 0.12714511E+03</pdfrwt>
<pdfrwt beam="2">  1       -4 0.11291039E-01 0.12714511E+03</pdfrwt>
<totfact> 0.51564999E+03</totfact>
</mgrwt>
</event>
<event>
 6    4  0.1195577E-003  0.1268129E+03  0.7818608E-02  0.1232263E+00
          4   -1    0    0  502    0  0.00000000000E+00  0.00000000000E+00  0.51453108338E+01  0.52997286323E+01  0.12700000000E+01 0. -1.
         -4   -1    0    0    0  501 -0.00000000000E+00 -0.00000000000E+00 -0.10736246493E+04  0.10736254005E+04  0.12700000000E+01 0. -1.
         25    2    1    2    0    0  0.20884111305E+02  0.45523904398E+01 -0.96193237893E+03  0.97025533130E+03  0.12499854364E+03 0.  0.
    9000005    1    3    3    0    0  0.85698511332E+01  0.64187890443E+02 -0.43044766602E+03  0.43529268407E+03  0.10000000000E+01 0.  0.
    9000005    1    3    3    0    0  0.12314260172E+02 -0.59635500003E+02 -0.53148471292E+03  0.53496264723E+03  0.10000000000E+01 0.  0.
         21    1    1    2  502  501 -0.20884111305E+02 -0.45523904398E+01 -0.10654695954E+03  0.10866979779E+03  0.00000000000E+00 0.  1.
<mgrwt>
<rscale>  1 0.12681288E+03</rscale>
<asrwt>0</asrwt>
<pdfrwt beam="1">  1        4 0.80352321E-03 0.12681288E+03</pdfrwt>
<pdfrwt beam="2">  1       -4 0.16518478E+00 0.12681288E+03</pdfrwt>
<totfact> 0.16497144E+03</totfact>
</mgrwt>
</event>
<event>
 6    4  0.1195577E-003  0.1311462E+03  0.7818608E-02  0.1225765E+00
         -4   -1    0    0    0  501 -0.00000000000E+00  0.00000000000E+00  0.19361292848E+02  0.19402900833E+02  0.12700000000E+01 0.  1.
          4   -1    0    0  502    0  0.00000000000E+00 -0.00000000000E+00 -0.39725675418E+03  0.39725878422E+03  0.12700000000E+01 0.  1.
         25    2    1    2    0    0 -0.39594614320E+02 -0.30158883916E+01 -0.24412063960E+03  0.27711767051E+03  0.12498994985E+03 0.  0.
    9000005    1    3    3    0    0 -0.67818469202E+02 -0.70074189478E+01 -0.60078037604E+02  0.90878046236E+02  0.10000000000E+01 0.  0.
    9000005    1    3    3    0    0  0.28223854882E+02  0.39915305562E+01 -0.18404260199E+03  0.18623962427E+03  0.10000000000E+01 0.  0.
         21    1    1    2  502  501  0.39594614320E+02  0.30158883916E+01 -0.13377482174E+03  0.13954401455E+03  0.00000000000E+00 0.  1.
<mgrwt>
<rscale>  1 0.13114617E+03</rscale>
<asrwt>0</asrwt>
<pdfrwt beam="2">  1        4 0.61119774E-01 0.13114617E+03</pdfrwt>
<pdfrwt beam="1">  1       -4 0.29820175E-02 0.13114617E+03</pdfrwt>
<totfact> 0.22682051E+03</totfact>
</mgrwt>
</event>
<event>
 6    4  0.1195577E-003  0.1284326E+03  0.7818608E-02  0.1229800E+00
         -4   -1    0    0    0  501 -0.00000000000E+00  0.00000000000E+00  0.21990289353E+03  0.21990656080E+03  0.12700000000E+01 0.  1.
          4   -1    0    0  502    0  0.00000000000E+00 -0.00000000000E+00 -0.28680840791E+02  0.28708945096E+02  0.12700000000E+01 0.  1.
         25    2    1    2    0    0 -0.39776229330E+01  0.29225508996E+02  0.16544155004E+03  0.20944171134E+03  0.12499988844E+03 0.  0.
    9000005    1    3    3    0    0 -0.31527659083E+02  0.62114252820E+02  0.48528062055E+02  0.84900803868E+02  0.10000000000E+01 0.  0.
    9000005    1    3    3    0    0  0.27550036150E+02 -0.32888743824E+02  0.11691348798E+03  0.12454090748E+03  0.10000000000E+01 0.  0.
         21    1    1    2  502  501  0.39776229330E+01 -0.29225508996E+02  0.25780502704E+02  0.39173794556E+02  0.00000000000E+00 0.  1.
<mgrwt>
<rscale>  1 0.12843257E+03</rscale>
<asrwt>0</asrwt>
<pdfrwt beam="2">  1        4 0.44148812E-02 0.12843257E+03</pdfrwt>
<pdfrwt beam="1">  1       -4 0.33833657E-01 0.12843257E+03</pdfrwt>
<totfact> 0.39796051E+03</totfact>
</mgrwt>
</event>
<event>
 6    4  0.1195577E-003  0.1374053E+03  0.7818608E-02  0.1216864E+00
         -4   -1    0    0    0  501 -0.00000000000E+00  0.00000000000E+00  0.33302003024E+02  0.33326210487E+02  0.12700000000E+01 0.  1.
          4   -1    0    0  502    0  0.00000000000E+00 -0.00000000000E+00 -0.86795196930E+03  0.86795289844E+03  0.12700000000E+01 0.  1.
         25    2    1    2    0    0 -0.45494331227E+02  0.34427918267E+02 -0.11446084422E+03  0.17883368729E+03  0.12500074847E+03 0.  0.
    9000005    1    3    3    0    0  0.86149523197E+01 -0.13473516159E+02  0.20332348995E+02  0.25887399576E+02  0.10000000000E+01 0.  0.
    9000005    1    3    3    0    0 -0.54109283546E+02  0.47901434426E+02 -0.13479319322E+03  0.15294628771E+03  0.10000000000E+01 0.  0.
         21    1    1    2  502  501  0.45494331227E+02 -0.34427918267E+02 -0.72018912205E+03  0.72244542164E+03  0.00000000000E+00 0.  1.
<mgrwt>
<rscale>  1 0.13740525E+03</rscale>
<asrwt>0</asrwt>
<pdfrwt beam="2">  1        4 0.13353299E+00 0.13740525E+03</pdfrwt>
<pdfrwt beam="1">  1       -4 0.51253193E-02 0.13740525E+03</pdfrwt>
<totfact> 0.16444401E+02</totfact>
</mgrwt>
</event>
<event>
 6    4  0.1195577E-003  0.1266521E+03  0.7818608E-02  0.1232510E+00
          4   -1    0    0  502    0  0.00000000000E+00  0.00000000000E+00  0.10514051610E+03  0.10514818603E+03  0.12700000000E+01 0.  1.
         -4   -1    0    0    0  501 -0.00000000000E+00 -0.00000000000E+00 -0.55872663302E+02  0.55887095151E+02  0.12700000000E+01 0.  1.
         25    2    1    2    0    0  0.19870517615E+02  0.46385949785E+01  0.24595157144E+02  0.12901816163E+03  0.12499764095E+03 0.  0.
    9000005    1    3    3    0    0  0.53784479105E+02 -0.42485485975E+02  0.11762474119E+02  0.69549568715E+02  0.10000000000E+01 0.  0.
    9000005    1    3    3    0    0 -0.33913961491E+02  0.47124080953E+02  0.12832683025E+02  0.59468592915E+02  0.10000000000E+01 0.  0.
         21    1    1    2  502  501 -0.19870517615E+02 -0.46385949785E+01  0.24672695656E+02  0.32017119555E+02  0.00000000000E+00 0.  1.
<mgrwt>
<rscale>  1 0.12665214E+03</rscale>
<asrwt>0</asrwt>
<pdfrwt beam="1">  1        4 0.16177164E-01 0.12665214E+03</pdfrwt>
<pdfrwt beam="2">  1       -4 0.85974947E-02 0.12665214E+03</pdfrwt>
<totfact> 0.51817424E+03</totfact>
</mgrwt>
</event>
<event>
 6    4  0.1195577E-003  0.1274557E+03  0.7818608E-02  0.1231281E+00
         -4   -1    0    0    0  501 -0.00000000000E+00  0.00000000000E+00  0.41989338116E+02  0.42008539791E+02  0.12700000000E+01 0. -1.
          4   -1    0    0  502    0  0.00000000000E+00 -0.00000000000E+00 -0.15011311298E+03  0.15011848517E+03  0.12700000000E+01 0. -1.
         25    2    1    2    0    0  0.99307465938E+01  0.22826299169E+02 -0.66838624777E+02  0.14391786318E+03  0.12500115967E+03 0.  0.
    9000005    1    3    3    0    0 -0.45011768684E+02 -0.12047451371E+02  0.51262771370E+01  0.46887942180E+02  0.10000000000E+01 0.  0.
    9000005    1    3    3    0    0  0.54942515278E+02  0.34873750539E+02 -0.71964901914E+02  0.97029921000E+02  0.10000000000E+01 0.  0.
         21    1    1    2  502  501 -0.99307465938E+01 -0.22826299169E+02 -0.41285150088E+02  0.48209161779E+02  0.00000000000E+00 0. -1.
<mgrwt>
<rscale>  1 0.12745568E+03</rscale>
<asrwt>0</asrwt>
<pdfrwt beam="2">  1        4 0.23096215E-01 0.12745568E+03</pdfrwt>
<pdfrwt beam="1">  1       -4 0.64617885E-02 0.12745568E+03</pdfrwt>
<totfact> 0.43905630E+03</totfact>
</mgrwt>
</event>
<event>
 6    4  0.1195577E-003  0.1299156E+03  0.7818608E-02  0.1227581E+00
          4   -1    0    0  502    0  0.00000000000E+00  0.00000000000E+00  0.64202587119E+02  0.64215146911E+02  0.12700000000E+01 0.  1.
         -4   -1    0    0    0  501 -0.00000000000E+00 -0.00000000000E+00 -0.11675583237E+03  0.11676273931E+03  0.12700000000E+01 0.  1.
         25    2    1    2    0    0  0.71168646963E+01  0.34653966709E+02 -0.62586847658E+02  0.14420533737E+03  0.12500607447E+03 0.  0.
    9000005    1    3    3    0    0 -0.34022806198E+02 -0.29776016386E+02  0.28237967519E+00  0.45224354408E+02  0.10000000000E+01 0.  0.
    9000005    1    3    3    0    0  0.41139670894E+02  0.64429983095E+02 -0.62869227333E+02  0.98980982963E+02  0.10000000000E+01 0.  0.
         21    1    1    2  502  501 -0.71168646963E+01 -0.34653966709E+02  0.10033602409E+02  0.36772548853E+02  0.00000000000E+00 0.  1.
<mgrwt>
<rscale>  1 0.12991561E+03</rscale>
<asrwt>0</asrwt>
<pdfrwt beam="1">  1        4 0.98788185E-02 0.12991561E+03</pdfrwt>
<pdfrwt beam="2">  1       -4 0.17963933E-01 0.12991561E+03</pdfrwt>
<totfact> 0.34353282E+03</totfact>
</mgrwt>
</event>
<event>
 6    4  0.1195577E-003  0.1350350E+03  0.7818608E-02  0.1220170E+00
         -4   -1    0    0    0  501 -0.00000000000E+00  0.00000000000E+00  0.64768683705E+02  0.64781133742E+02  0.12700000000E+01 0. -1.
          4   -1    0    0  502    0  0.00000000000E+00 -0.00000000000E+00 -0.17689228727E+03  0.17689684620E+03  0.12700000000E+01 0. -1.
         25    2    1    2    0    0 -0.42569281186E+02  0.28212064807E+02 -0.20222834755E+02  0.13654085230E+03  0.12500550788E+03 0.  0.
    9000005    1    3    3    0    0 -0.12189700497E+02 -0.32344643580E+02 -0.51404509371E+02  0.61953114129E+02  0.10000000000E+01 0.  0.
    9000005    1    3    3    0    0 -0.30379580689E+02  0.60556708387E+02  0.31181674616E+02  0.74587738170E+02  0.10000000000E+01 0.  0.
         21    1    1    2  502  501  0.42569281186E+02 -0.28212064807E+02 -0.91900768813E+02  0.10513712765E+03  0.00000000000E+00 0. -1.
<mgrwt>
<rscale>  1 0.13503496E+03</rscale>
<asrwt>0</asrwt>
<pdfrwt beam="2">  1        4 0.27215506E-01 0.13503496E+03</pdfrwt>
<pdfrwt beam="1">  1       -4 0.99657213E-02 0.13503496E+03</pdfrwt>
<totfact> 0.16039395E+03</totfact>
</mgrwt>
</event>
<event>
 6    4  0.1195577E-003  0.1267975E+03  0.7818608E-02  0.1232287E+00
          4   -1    0    0  502    0  0.00000000000E+00  0.00000000000E+00  0.30265241893E+01  0.32821865682E+01  0.12700000000E+01 0.  1.
         -4   -1    0    0    0  501 -0.00000000000E+00 -0.00000000000E+00 -0.17954245054E+04  0.17954249545E+04  0.12700000000E+01 0.  1.
         25    2    1    2    0    0 -0.19921385034E+02  0.73988158004E+01 -0.16300545165E+04  0.16349786934E+04  0.12500398844E+03 0.  0.
    9000005    1    3    3    0    0 -0.15756889323E+02  0.65062686836E+02 -0.72766853164E+03  0.73074203706E+03  0.10000000000E+01 0.  0.
    9000005    1    3    3    0    0 -0.41644957108E+01 -0.57663871035E+02 -0.90238598488E+03  0.90423665638E+03  0.10000000000E+01 0.  0.
         21    1    1    2  502  501  0.19921385034E+02 -0.73988158004E+01 -0.16234346466E+03  0.16372844766E+03  0.00000000000E+00 0. -1.
<mgrwt>
<rscale>  1 0.12679748E+03</rscale>
<asrwt>0</asrwt>
<pdfrwt beam="1">  1        4 0.48532143E-03 0.12679748E+03</pdfrwt>
<pdfrwt beam="2">  1       -4 0.27623804E+00 0.12679748E+03</pdfrwt>
<totfact> 0.73979330E+02</totfact>
</mgrwt>
</event>
<event>
 6    4  0.1195577E-003  0.1280863E+03  0.7818608E-02  0.1230323E+00
          4   -1    0    0  502    0  0.00000000000E+00  0.00000000000E+00  0.74357431220E+02  0.74368276016E+02  0.12700000000E+01 0. -1.
         -4   -1    0    0    0  501 -0.00000000000E+00 -0.00000000000E+00 -0.10532065467E+03  0.10532831149E+03  0.12700000000E+01 0. -1.
         25    2    1    2    0    0 -0.27403611489E+02  0.54572622247E+01 -0.58188802670E+02  0.14068413055E+03  0.12500139279E+03 0.  0.
    9000005    1    3    3    0    0  0.49028030965E+01 -0.54016312394E+02 -0.47602959752E+02  0.72172302582E+02  0.10000000000E+01 0.  0.
    9000005    1    3    3    0    0 -0.32306414586E+02  0.59473574619E+02 -0.10585842918E+02  0.68511827969E+02  0.10000000000E+01 0.  0.
         21    1    1    2  502  501  0.27403611489E+02 -0.54572622247E+01  0.27225579218E+02  0.39012456952E+02  0.00000000000E+00 0. -1.
<mgrwt>
<rscale>  1 0.12808625E+03</rscale>
<asrwt>0</asrwt>
<pdfrwt beam="1">  1        4 0.11441028E-01 0.12808625E+03</pdfrwt>
<pdfrwt beam="2">  1       -4 0.16204601E-01 0.12808625E+03</pdfrwt>
<totfact> 0.32040513E+03</totfact>
</mgrwt>
</event>
<event>
 6    4  0.1195577E-003  0.1266490E+03  0.7818608E-02  0.1232514E+00
          4   -1    0    0  502    0  0.00000000000E+00  0.00000000000E+00  0.37533767496E+03  0.37533982355E+03  0.12700000000E+01 0.  1.
         -4   -1    0    0    0  501 -0.00000000000E+00 -0.00000000000E+00 -0.14364936943E+02  0.14420967838E+02  0.12700000000E+01 0.  1.
         25    2    1    2    0    0 -0.17259980271E+02  0.10759401523E+02  0.31335385803E+03  0.33798020264E+03  0.12500522147E+03 0.  0.
    9000005    1    3    3    0    0 -0.14916967490E+02  0.59019421618E+02  0.84919915400E+02  0.10449019130E+03  0.10000000000E+01 0.  0.
    9000005    1    3    3    0    0 -0.23430127806E+01 -0.48260020095E+02  0.22843394263E+03  0.23349001134E+03  0.10000000000E+01 0.  0.
         21    1    1    2  502  501  0.17259980271E+02 -0.10759401523E+02  0.47618879987E+02  0.51780588750E+02  0.00000000000E+00 0.  1.
<mgrwt>
<rscale>  1 0.12664903E+03</rscale>
<asrwt>0</asrwt>
<pdfrwt beam="1">  1        4 0.57748724E-01 0.12664903E+03</pdfrwt>
<pdfrwt beam="2">  1       -4 0.22144660E-02 0.12664903E+03</pdfrwt>
<totfact> 0.40226895E+03</totfact>
</mgrwt>
</event>
<event>
 6    4  0.1195577E-003  0.1360674E+03  0.7818608E-02  0.1218721E+00
         -4   -1    0    0    0  501 -0.00000000000E+00  0.00000000000E+00  0.25836224596E+03  0.25836536733E+03  0.12700000000E+01 0.  1.
          4   -1    0    0  502    0  0.00000000000E+00 -0.00000000000E+00 -0.35318595624E+02  0.35341421828E+02  0.12700000000E+01 0.  1.
         25    2    1    2    0    0 -0.45794995307E+02  0.28145350437E+02  0.17449365734E+03  0.22127444717E+03  0.12500000869E+03 0.  0.
    9000005    1    3    3    0    0 -0.32502068328E+01 -0.34435842022E+02  0.12767960127E+03  0.13228556853E+03  0.10000000000E+01 0.  0.
    9000005    1    3    3    0    0 -0.42544788474E+02  0.62581192459E+02  0.46814056063E+02  0.88988878637E+02  0.10000000000E+01 0.  0.
         21    1    1    2  502  501  0.45794995307E+02 -0.28145350437E+02  0.48549992999E+02  0.72432341993E+02  0.00000000000E+00 0.  1.
<mgrwt>
<rscale>  1 0.13606743E+03</rscale>
<asrwt>0</asrwt>
<pdfrwt beam="2">  1        4 0.54356263E-02 0.13606743E+03</pdfrwt>
<pdfrwt beam="1">  1       -4 0.39750032E-01 0.13606743E+03</pdfrwt>
<totfact> 0.21126539E+03</totfact>
</mgrwt>
</event>
<event>
 6    4  0.1195577E-003  0.1514751E+03  0.7818608E-02  0.1198672E+00
         -4   -1    0    0    0  501 -0.00000000000E+00  0.00000000000E+00  0.21280186554E+03  0.21280565518E+03  0.12700000000E+01 0.  1.
          4   -1    0    0  502    0  0.00000000000E+00 -0.00000000000E+00 -0.72141109155E+02  0.72152287075E+02  0.12700000000E+01 0.  1.
         25    2    1    2    0    0 -0.42790621425E+02  0.74084748416E+02  0.48133953755E+02  0.15893891022E+03  0.12500044979E+03 0.  0.
    9000005    1    3    3    0    0  0.11579216820E+02 -0.26538290848E+02  0.32434264454E+02  0.43489546491E+02  0.10000000000E+01 0.  0.
    9000005    1    3    3    0    0 -0.54369838245E+02  0.10062303926E+03  0.15699689301E+02  0.11544936373E+03  0.10000000000E+01 0.  0.
         21    1    1    2  502  501  0.42790621425E+02 -0.74084748416E+02  0.92526802628E+02  0.12601903203E+03  0.00000000000E+00 0.  1.
<mgrwt>
<rscale>  1 0.15147508E+03</rscale>
<asrwt>0</asrwt>
<pdfrwt beam="2">  1        4 0.11099784E-01 0.15147508E+03</pdfrwt>
<pdfrwt beam="1">  1       -4 0.32739900E-01 0.15147508E+03</pdfrwt>
<totfact> 0.96508290E+02</totfact>
</mgrwt>
</event>
<event>
 6    4  0.1195577E-003  0.1367556E+03  0.7818608E-02  0.1217762E+00
         -4   -1    0    0    0  501 -0.00000000000E+00  0.00000000000E+00  0.33362922197E+02  0.33387085490E+02  0.12700000000E+01 0.  1.
          4   -1    0    0  502    0  0.00000000000E+00 -0.00000000000E+00 -0.35549526906E+03  0.35549753758E+03  0.12700000000E+01 0.  1.
         25    2    1    2    0    0  0.10926322488E+02 -0.54386212874E+02 -0.12919706690E+03  0.18813286858E+03  0.12499939789E+03 0.  0.
    9000005    1    3    3    0    0  0.42650479779E+01  0.13160378938E+01  0.24287413960E+02  0.24714389875E+02  0.10000000000E+01 0.  0.
    9000005    1    3    3    0    0  0.66612745100E+01 -0.55702250767E+02 -0.15348448086E+03  0.16341847871E+03  0.10000000000E+01 0.  0.
         21    1    1    2  502  501 -0.10926322488E+02  0.54386212874E+02 -0.19293527997E+03  0.20075175449E+03  0.00000000000E+00 0.  1.
<mgrwt>
<rscale>  1 0.13675560E+03</rscale>
<asrwt>0</asrwt>
<pdfrwt beam="2">  1        4 0.54693610E-01 0.13675560E+03</pdfrwt>
<pdfrwt beam="1">  1       -4 0.51347907E-02 0.13675560E+03</pdfrwt>
<totfact> 0.12185688E+03</totfact>
</mgrwt>
</event>
<event>
 6    4  0.1195577E-003  0.1278572E+03  0.7818608E-02  0.1230670E+00
          4   -1    0    0  502    0  0.00000000000E+00  0.00000000000E+00  0.29768760206E+03  0.29769031109E+03  0.12700000000E+01 0.  1.
         -4   -1    0    0    0  501 -0.00000000000E+00 -0.00000000000E+00 -0.22047927766E+02  0.22084474609E+02  0.12700000000E+01 0.  1.
         25    2    1    2    0    0 -0.33863269045E+01 -0.26663257775E+02  0.18247542315E+03  0.22281100785E+03  0.12500027456E+03 0.  0.
    9000005    1    3    3    0    0 -0.50300532359E+02  0.24754317077E+02  0.61391612775E+02  0.83143549892E+02  0.10000000000E+01 0.  0.
    9000005    1    3    3    0    0  0.46914205454E+02 -0.51417574852E+02  0.12108381038E+03  0.13966745796E+03  0.10000000000E+01 0.  0.
         21    1    1    2  502  501  0.33863269045E+01  0.26663257775E+02  0.93164251139E+02  0.96963777852E+02  0.00000000000E+00 0.  1.
<mgrwt>
<rscale>  1 0.12785721E+03</rscale>
<asrwt>0</asrwt>
<pdfrwt beam="1">  1        4 0.45801113E-01 0.12785721E+03</pdfrwt>
<pdfrwt beam="2">  1       -4 0.33950085E-02 0.12785721E+03</pdfrwt>
<totfact> 0.33272451E+03</totfact>
</mgrwt>
</event>
<event>
 6    4  0.1195577E-003  0.1283286E+03  0.7818608E-02  0.1229957E+00
         -4   -1    0    0    0  501 -0.00000000000E+00  0.00000000000E+00  0.12100291451E+02  0.12166756067E+02  0.12700000000E+01 0.  1.
          4   -1    0    0  502    0  0.00000000000E+00 -0.00000000000E+00 -0.51366780769E+03  0.51366937767E+03  0.12700000000E+01 0.  1.
         25    2    1    2    0    0  0.14121562637E+02  0.25384109833E+02 -0.39123481248E+03  0.41174372785E+03  0.12499778942E+03 0.  0.
    9000005    1    3    3    0    0 -0.13150302249E+01 -0.48984670927E+02 -0.20134088552E+03  0.20722060581E+03  0.10000000000E+01 0.  0.
    9000005    1    3    3    0    0  0.15436592862E+02  0.74368780760E+02 -0.18989392696E+03  0.20452312204E+03  0.10000000000E+01 0.  0.
         21    1    1    2  502  501 -0.14121562637E+02 -0.25384109833E+02 -0.11033270375E+03  0.11409240588E+03  0.00000000000E+00 0.  1.
<mgrwt>
<rscale>  1 0.12832856E+03</rscale>
<asrwt>0</asrwt>
<pdfrwt beam="2">  1        4 0.79031033E-01 0.12832856E+03</pdfrwt>
<pdfrwt beam="1">  1       -4 0.18668171E-02 0.12832856E+03</pdfrwt>
<totfact> 0.26807886E+03</totfact>
</mgrwt>
</event>
<event>
 6    4  0.1195577E-003  0.1739150E+03  0.7818608E-02  0.1173826E+00
         -4   -1    0    0    0  501 -0.00000000000E+00  0.00000000000E+00  0.13364487693E+03  0.13365091107E+03  0.12700000000E+01 0. -1.
          4   -1    0    0  502    0  0.00000000000E+00 -0.00000000000E+00 -0.16802741181E+03  0.16803221126E+03  0.12700000000E+01 0. -1.
         25    2    1    2    0    0 -0.32864073221E+02 -0.11638428754E+03  0.64664788561E+01  0.17403520179E+03  0.12498434469E+03 0.  0.
    9000005    1    3    3    0    0  0.32755899374E+02 -0.49366920833E+02  0.43168176437E+02  0.73311208374E+02  0.10000000000E+01 0.  0.
    9000005    1    3    3    0    0 -0.65619972595E+02 -0.67017366709E+02 -0.36701697581E+02  0.10072399341E+03  0.10000000000E+01 0.  0.
         21    1    1    2  502  501  0.32864073221E+02  0.11638428754E+03 -0.40849013736E+02  0.12764792054E+03  0.00000000000E+00 0. -1.
<mgrwt>
<rscale>  1 0.17391503E+03</rscale>
<asrwt>0</asrwt>
<pdfrwt beam="2">  1        4 0.25851204E-01 0.17391503E+03</pdfrwt>
<pdfrwt beam="1">  1       -4 0.20561584E-01 0.17391503E+03</pdfrwt>
<totfact> 0.52451936E+02</totfact>
</mgrwt>
</event>
<event>
 6    4  0.1195577E-003  0.1272955E+03  0.7818608E-02  0.1231525E+00
          4   -1    0    0  502    0  0.00000000000E+00  0.00000000000E+00  0.20691285891E+03  0.20691675641E+03  0.12700000000E+01 0. -1.
         -4   -1    0    0    0  501 -0.00000000000E+00 -0.00000000000E+00 -0.27652910228E+02  0.27682058162E+02  0.12700000000E+01 0. -1.
         25    2    1    2    0    0 -0.16608348761E+02 -0.17362474100E+02  0.14965533007E+03  0.19647105305E+03  0.12500745623E+03 0.  0.
    9000005    1    3    3    0    0  0.26834205277E+02 -0.21261002600E+02  0.14894954926E+03  0.15283675287E+03  0.10000000000E+01 0.  0.
    9000005    1    3    3    0    0 -0.43442554038E+02  0.38985284999E+01  0.70578081752E+00  0.43634300182E+02  0.10000000000E+01 0.  0.
         21    1    1    2  502  501  0.16608348761E+02  0.17362474100E+02  0.29604618611E+02  0.38127761520E+02  0.00000000000E+00 0. -1.
<mgrwt>
<rscale>  1 0.12729555E+03</rscale>
<asrwt>0</asrwt>
<pdfrwt beam="1">  1        4 0.31835289E-01 0.12729555E+03</pdfrwt>
<pdfrwt beam="2">  1       -4 0.42568360E-02 0.12729555E+03</pdfrwt>
<totfact> 0.47273250E+03</totfact>
</mgrwt>
</event>
<event>
 6    4  0.1195577E-003  0.1285127E+03  0.7818608E-02  0.1229679E+00
         -4   -1    0    0    0  501 -0.00000000000E+00  0.00000000000E+00  0.51219888699E+03  0.51220046148E+03  0.12700000000E+01 0.  1.
          4   -1    0    0  502    0  0.00000000000E+00 -0.00000000000E+00 -0.23473579307E+02  0.23507909849E+02  0.12700000000E+01 0.  1.
         25    2    1    2    0    0  0.37711588795E+01 -0.29586265602E+02  0.48928169366E+03  0.50587754303E+03  0.12500377609E+03 0.  0.
    9000005    1    3    3    0    0 -0.15877096838E+02 -0.30836460454E+02  0.48430405655E+03  0.48554545482E+03  0.10000000000E+01 0.  0.
    9000005    1    3    3    0    0  0.19648255718E+02  0.12501948516E+01  0.49776371075E+01  0.20332088213E+02  0.10000000000E+01 0.  0.
         21    1    1    2  502  501 -0.37711588795E+01  0.29586265602E+02 -0.55638597519E+00  0.29830828298E+02  0.00000000000E+00 0.  1.
<mgrwt>
<rscale>  1 0.12851270E+03</rscale>
<asrwt>0</asrwt>
<pdfrwt beam="2">  1        4 0.36140819E-02 0.12851270E+03</pdfrwt>
<pdfrwt beam="1">  1       -4 0.78802589E-01 0.12851270E+03</pdfrwt>
<totfact> 0.96588677E+02</totfact>
</mgrwt>
</event>
<event>
 6    4  0.1195577E-003  0.1293655E+03  0.7818608E-02  0.1228400E+00
         -4   -1    0    0    0  501 -0.00000000000E+00  0.00000000000E+00  0.16476729234E+03  0.16477218675E+03  0.12700000000E+01 0.  1.
          4   -1    0    0  502    0  0.00000000000E+00 -0.00000000000E+00 -0.57837482105E+02  0.57851423805E+02  0.12700000000E+01 0.  1.
         25    2    1    2    0    0  0.60103949008E+01 -0.32797631057E+02  0.12895638245E+03  0.18266138672E+03  0.12499449658E+03 0.  0.
    9000005    1    3    3    0    0  0.48511952145E+02 -0.52852301232E+01  0.12218294180E+03  0.13157132828E+03  0.10000000000E+01 0.  0.
    9000005    1    3    3    0    0 -0.42501557245E+02 -0.27512400934E+02  0.67734406480E+01  0.51090058442E+02  0.10000000000E+01 0.  0.
         21    1    1    2  502  501 -0.60103949008E+01  0.32797631057E+02 -0.22026572214E+02  0.39962223829E+02  0.00000000000E+00 0.  1.
<mgrwt>
<rscale>  1 0.12936550E+03</rscale>
<asrwt>0</asrwt>
<pdfrwt beam="2">  1        4 0.88995234E-02 0.12936550E+03</pdfrwt>
<pdfrwt beam="1">  1       -4 0.25350262E-01 0.12936550E+03</pdfrwt>
<totfact> 0.21907667E+03</totfact>
</mgrwt>
</event>
<event>
 6    4  0.1195577E-003  0.1267793E+03  0.7818608E-02  0.1232314E+00
         -4   -1    0    0    0  501 -0.00000000000E+00  0.00000000000E+00  0.55482574945E+02  0.55497108235E+02  0.12700000000E+01 0.  1.
          4   -1    0    0  502    0  0.00000000000E+00 -0.00000000000E+00 -0.11003507752E+03  0.11004240630E+03  0.12700000000E+01 0.  1.
         25    2    1    2    0    0  0.20955638313E+02 -0.77534484724E+00 -0.24868105950E+02  0.12919528061E+03  0.12503302724E+03 0.  0.
    9000005    1    3    3    0    0 -0.12604917311E+02 -0.71471070906E+01 -0.70614744790E+02  0.72093045864E+02  0.10000000000E+01 0.  0.
    9000005    1    3    3    0    0  0.33560555625E+02  0.63717622433E+01  0.45746638840E+02  0.57102234747E+02  0.10000000000E+01 0.  0.
         21    1    1    2  502  501 -0.20955638313E+02  0.77534484724E+00 -0.29684396624E+02  0.36344233926E+02  0.00000000000E+00 0.  1.
<mgrwt>
<rscale>  1 0.12677933E+03</rscale>
<asrwt>0</asrwt>
<pdfrwt beam="2">  1        4 0.16930155E-01 0.12677933E+03</pdfrwt>
<pdfrwt beam="1">  1       -4 0.85374625E-02 0.12677933E+03</pdfrwt>
<totfact> 0.48401841E+03</totfact>
</mgrwt>
</event>
<event>
 6    4  0.1195577E-003  0.1269021E+03  0.7818608E-02  0.1232126E+00
          4   -1    0    0  502    0  0.00000000000E+00  0.00000000000E+00  0.29889178010E+03  0.29889447822E+03  0.12700000000E+01 0.  1.
         -4   -1    0    0    0  501 -0.00000000000E+00 -0.00000000000E+00 -0.32093816957E+02  0.32118935021E+02  0.12700000000E+01 0.  1.
         25    2    1    2    0    0  0.21560283781E+02  0.38476247090E+01  0.96790738994E+02  0.15960131823E+03  0.12499793428E+03 0.  0.
    9000005    1    3    3    0    0 -0.42529090295E+02  0.32952516615E+02  0.25984308298E+02  0.59755971671E+02  0.10000000000E+01 0.  0.
    9000005    1    3    3    0    0  0.64089374076E+02 -0.29104891906E+02  0.70806430696E+02  0.99845346563E+02  0.10000000000E+01 0.  0.
         21    1    1    2  502  501 -0.21560283781E+02 -0.38476247090E+01  0.17000722415E+03  0.17141209501E+03  0.00000000000E+00 0.  1.
<mgrwt>
<rscale>  1 0.12690206E+03</rscale>
<asrwt>0</asrwt>
<pdfrwt beam="1">  1        4 0.45985491E-01 0.12690206E+03</pdfrwt>
<pdfrwt beam="2">  1       -4 0.49396499E-02 0.12690206E+03</pdfrwt>
<totfact> 0.18160674E+03</totfact>
</mgrwt>
</event>
<event>
 6    4  0.1195577E-003  0.1268035E+03  0.7818608E-02  0.1232277E+00
         -4   -1    0    0    0  501 -0.00000000000E+00  0.00000000000E+00  0.24522987116E+03  0.24523315968E+03  0.12700000000E+01 0. -1.
          4   -1    0    0  502    0  0.00000000000E+00 -0.00000000000E+00 -0.25179682835E+02  0.25211690298E+02  0.12700000000E+01 0. -1.
         25    2    1    2    0    0 -0.83303347702E+01  0.19642283736E+02  0.21315876449E+03  0.24802375477E+03  0.12499564098E+03 0.  0.
    9000005    1    3    3    0    0 -0.37613209538E+02  0.36729387302E+02  0.27589161646E+02  0.59379822024E+02  0.10000000000E+01 0.  0.
    9000005    1    3    3    0    0  0.29282874767E+02 -0.17087103565E+02  0.18556960285E+03  0.18864393275E+03  0.10000000000E+01 0.  0.
         21    1    1    2  502  501  0.83303347702E+01 -0.19642283736E+02  0.68914238268E+01  0.22421095203E+02  0.00000000000E+00 0. -1.
<mgrwt>
<rscale>  1 0.12680349E+03</rscale>
<asrwt>0</asrwt>
<pdfrwt beam="2">  1        4 0.38765124E-02 0.12680349E+03</pdfrwt>
<pdfrwt beam="1">  1       -4 0.37730388E-01 0.12680349E+03</pdfrwt>
<totfact> 0.39508796E+03</totfact>
</mgrwt>
</event>
<event>
 6    4  0.1195577E-003  0.1294951E+03  0.7818608E-02  0.1228207E+00
          4   -1    0    0  502    0  0.00000000000E+00  0.00000000000E+00  0.25722133372E+02  0.25753466664E+02  0.12700000000E+01 0. -1.
         -4   -1    0    0    0  501 -0.00000000000E+00 -0.00000000000E+00 -0.39785490724E+03  0.39785693423E+03  0.12700000000E+01 0. -1.
         25    2    1    2    0    0  0.27147505339E+02  0.20196481254E+02 -0.36726493761E+03  0.38942589079E+03  0.12499642042E+03 0.  0.
    9000005    1    3    3    0    0 -0.79414108342E+01 -0.21361278626E+02 -0.53305101252E+01  0.23426151386E+02  0.10000000000E+01 0.  0.
    9000005    1    3    3    0    0  0.35088916174E+02  0.41557759880E+02 -0.36193442748E+03  0.36599973940E+03  0.10000000000E+01 0.  0.
         21    1    1    2  502  501 -0.27147505339E+02 -0.20196481254E+02 -0.48678362578E+01  0.34184510104E+02  0.00000000000E+00 0. -1.
<mgrwt>
<rscale>  1 0.12949514E+03</rscale>
<asrwt>0</asrwt>
<pdfrwt beam="1">  1        4 0.39598178E-02 0.12949514E+03</pdfrwt>
<pdfrwt beam="2">  1       -4 0.61211009E-01 0.12949514E+03</pdfrwt>
<totfact> 0.14422736E+03</totfact>
</mgrwt>
</event>
<event>
 6    4  0.1195577E-003  0.1408515E+03  0.7818608E-02  0.1212188E+00
          4   -1    0    0  502    0  0.00000000000E+00  0.00000000000E+00  0.21922263914E+03  0.21922631779E+03  0.12700000000E+01 0. -1.
         -4   -1    0    0    0  501 -0.00000000000E+00 -0.00000000000E+00 -0.49114968226E+02  0.49131385121E+02  0.12700000000E+01 0. -1.
         25    2    1    2    0    0  0.30422946626E+02 -0.57347276454E+02  0.99553707700E+02  0.17248211935E+03  0.12499949992E+03 0.  0.
    9000005    1    3    3    0    0  0.27736448752E+02  0.32076815399E+02  0.62742190458E+02  0.75735164481E+02  0.10000000000E+01 0.  0.
    9000005    1    3    3    0    0  0.26864978737E+01 -0.89424091853E+02  0.36811517242E+02  0.96746954868E+02  0.10000000000E+01 0.  0.
         21    1    1    2  502  501 -0.30422946626E+02  0.57347276454E+02  0.70553963217E+02  0.95875583564E+02  0.00000000000E+00 0. -1.
<mgrwt>
<rscale>  1 0.14085148E+03</rscale>
<asrwt>0</asrwt>
<pdfrwt beam="1">  1        4 0.33728106E-01 0.14085148E+03</pdfrwt>
<pdfrwt beam="2">  1       -4 0.75576947E-02 0.14085148E+03</pdfrwt>
<totfact> 0.17100751E+03</totfact>
</mgrwt>
</event>
<event>
 6    4  0.1195577E-003  0.1300063E+03  0.7818608E-02  0.1227446E+00
         -4   -1    0    0    0  501 -0.00000000000E+00  0.00000000000E+00  0.66503325925E+03  0.66503447189E+03  0.12700000000E+01 0.  1.
          4   -1    0    0  502    0  0.00000000000E+00 -0.00000000000E+00 -0.10357909676E+02  0.10435477605E+02  0.12700000000E+01 0.  1.
         25    2    1    2    0    0  0.12241303219E+02  0.33558007751E+02  0.48893969079E+03  0.50592851509E+03  0.12500260703E+03 0.  0.
    9000005    1    3    3    0    0  0.43073349851E+02  0.29990579205E+01  0.55526284358E+02  0.70345405468E+02  0.10000000000E+01 0.  0.
    9000005    1    3    3    0    0 -0.30832046632E+02  0.30558949831E+02  0.43341340643E+03  0.43558310962E+03  0.10000000000E+01 0.  0.
         21    1    1    2  502  501 -0.12241303219E+02 -0.33558007751E+02  0.16573565878E+03  0.16954143441E+03  0.00000000000E+00 0.  1.
<mgrwt>
<rscale>  1 0.13000631E+03</rscale>
<asrwt>0</asrwt>
<pdfrwt beam="2">  1        4 0.15995841E-02 0.13000631E+03</pdfrwt>
<pdfrwt beam="1">  1       -4 0.10231890E+00 0.13000631E+03</pdfrwt>
<totfact> 0.19007496E+03</totfact>
</mgrwt>
</event>
<event>
 6    4  0.1195577E-003  0.1271203E+03  0.7818608E-02  0.1231792E+00
          4   -1    0    0  502    0  0.00000000000E+00  0.00000000000E+00  0.48542296853E+02  0.48558907358E+02  0.12700000000E+01 0. -1.
         -4   -1    0    0    0  501 -0.00000000000E+00 -0.00000000000E+00 -0.11643163862E+03  0.11643856479E+03  0.12700000000E+01 0. -1.
         25    2    1    2    0    0  0.13366246249E+02  0.18866194979E+02 -0.54808024977E+02  0.13843225616E+03  0.12499992037E+03 0.  0.
    9000005    1    3    3    0    0 -0.20213457362E+02  0.61956578782E+02 -0.52589247469E+02  0.83748614689E+02  0.10000000000E+01 0.  0.
    9000005    1    3    3    0    0  0.33579703611E+02 -0.43090383803E+02 -0.22187775075E+01  0.54683641471E+02  0.10000000000E+01 0.  0.
         21    1    1    2  502  501 -0.13366246249E+02 -0.18866194979E+02 -0.13081316788E+02  0.26565215992E+02  0.00000000000E+00 0.  1.
<mgrwt>
<rscale>  1 0.12712030E+03</rscale>
<asrwt>0</asrwt>
<pdfrwt beam="1">  1        4 0.74698562E-02 0.12712030E+03</pdfrwt>
<pdfrwt beam="2">  1       -4 0.17914370E-01 0.12712030E+03</pdfrwt>
<totfact> 0.54663271E+03</totfact>
</mgrwt>
</event>
<event>
 6    4  0.1195577E-003  0.1287037E+03  0.7818608E-02  0.1229392E+00
         -4   -1    0    0    0  501 -0.00000000000E+00  0.00000000000E+00  0.37446861172E+02  0.37468390833E+02  0.12700000000E+01 0. -1.
          4   -1    0    0  502    0  0.00000000000E+00 -0.00000000000E+00 -0.17061742113E+03  0.17062214772E+03  0.12700000000E+01 0. -1.
         25    2    1    2    0    0  0.18131960923E+02 -0.24720048362E+02 -0.10054677957E+03  0.16332269469E+03  0.12499919568E+03 0.  0.
    9000005    1    3    3    0    0 -0.48673211970E+02 -0.37461970318E+01 -0.11724140842E+02  0.50215247028E+02  0.10000000000E+01 0.  0.
    9000005    1    3    3    0    0  0.66805172893E+02 -0.20973851331E+02 -0.88822638728E+02  0.11310744766E+03  0.10000000000E+01 0.  0.
         21    1    1    2  502  501 -0.18131960923E+02  0.24720048362E+02 -0.32623780390E+02  0.44767843872E+02  0.00000000000E+00 0. -1.
<mgrwt>
<rscale>  1 0.12870372E+03</rscale>
<asrwt>0</asrwt>
<pdfrwt beam="2">  1        4 0.26250853E-01 0.12870372E+03</pdfrwt>
<pdfrwt beam="1">  1       -4 0.57630754E-02 0.12870372E+03</pdfrwt>
<totfact> 0.41878611E+03</totfact>
</mgrwt>
</event>
<event>
 6    4  0.1195577E-003  0.1331067E+03  0.7818608E-02  0.1222917E+00
          4   -1    0    0  502    0  0.00000000000E+00  0.00000000000E+00  0.32768110737E+02  0.32792712319E+02  0.12700000000E+01 0.  1.
         -4   -1    0    0    0  501 -0.00000000000E+00 -0.00000000000E+00 -0.42604445641E+03  0.42604634928E+03  0.12700000000E+01 0.  1.
         25    2    1    2    0    0 -0.41204171791E+02 -0.19872200538E+02 -0.39100108063E+03  0.41303660579E+03  0.12499881816E+03 0.  0.
    9000005    1    3    3    0    0 -0.34796915358E+02  0.32049806377E+02 -0.53165825275E+02  0.71173171802E+02  0.10000000000E+01 0.  0.
    9000005    1    3    3    0    0 -0.64072564339E+01 -0.51922006915E+02 -0.33783525535E+03  0.34186343399E+03  0.10000000000E+01 0.  0.
         21    1    1    2  502  501  0.41204171791E+02  0.19872200538E+02 -0.22752650411E+01  0.45802455810E+02  0.00000000000E+00 0.  1.
<mgrwt>
<rscale>  1 0.13310670E+03</rscale>
<asrwt>0</asrwt>
<pdfrwt beam="1">  1        4 0.50432861E-02 0.13310670E+03</pdfrwt>
<pdfrwt beam="2">  1       -4 0.65547335E-01 0.13310670E+03</pdfrwt>
<totfact> 0.85303319E+02</totfact>
</mgrwt>
</event>
<event>
 6    4  0.1195577E-003  0.1329321E+03  0.7818608E-02  0.1223169E+00
          4   -1    0    0  502    0  0.00000000000E+00  0.00000000000E+00  0.21740502352E+04  0.21740506061E+04  0.12700000000E+01 0.  1.
         -4   -1    0    0    0  501 -0.00000000000E+00 -0.00000000000E+00 -0.36820221452E+01  0.38948924347E+01  0.12700000000E+01 0.  1.
         25    2    1    2    0    0 -0.26548951104E+02 -0.36643142193E+02  0.17816857980E+04  0.17866379642E+04  0.12499346269E+03 0.  0.
    9000005    1    3    3    0    0  0.27002914136E+02  0.23304508066E+02  0.10392884142E+04  0.10399007959E+04  0.10000000000E+01 0.  0.
    9000005    1    3    3    0    0 -0.53551865240E+02 -0.59947650259E+02  0.74239738384E+03  0.74673716833E+03  0.10000000000E+01 0.  0.
         21    1    1    2  502  501  0.26548951104E+02  0.36643142193E+02  0.38868241507E+03  0.39130753437E+03  0.00000000000E+00 0.  1.
<mgrwt>
<rscale>  1 0.13293206E+03</rscale>
<asrwt>0</asrwt>
<pdfrwt beam="1">  1        4 0.33448546E+00 0.13293206E+03</pdfrwt>
<pdfrwt beam="2">  1       -4 0.58286848E-03 0.13293206E+03</pdfrwt>
<totfact> 0.26059364E+02</totfact>
</mgrwt>
</event>
<event>
 6    4  0.1195577E-003  0.1273845E+03  0.7818608E-02  0.1231389E+00
          4   -1    0    0  502    0  0.00000000000E+00  0.00000000000E+00  0.12928167050E+03  0.12928790828E+03  0.12700000000E+01 0.  1.
         -4   -1    0    0    0  501 -0.00000000000E+00 -0.00000000000E+00 -0.45973354744E+02  0.45990893082E+02  0.12700000000E+01 0.  1.
         25    2    1    2    0    0 -0.54835174157E+01  0.23900660383E+02  0.57764480965E+02  0.13986979084E+03  0.12500205038E+03 0.  0.
    9000005    1    3    3    0    0  0.59172739181E+02  0.10690239972E+02  0.37313726471E+02  0.70774348997E+02  0.10000000000E+01 0.  0.
    9000005    1    3    3    0    0 -0.64656256597E+02  0.13210420411E+02  0.20450754494E+02  0.69095441846E+02  0.10000000000E+01 0.  0.
         21    1    1    2  502  501  0.54835174157E+01 -0.23900660383E+02  0.25543834787E+02  0.35409010514E+02  0.00000000000E+00 0.  1.
<mgrwt>
<rscale>  1 0.12738455E+03</rscale>
<asrwt>0</asrwt>
<pdfrwt beam="1">  1        4 0.19891317E-01 0.12738455E+03</pdfrwt>
<pdfrwt beam="2">  1       -4 0.70746527E-02 0.12738455E+03</pdfrwt>
<totfact> 0.49609694E+03</totfact>
</mgrwt>
</event>
<event>
 6    4  0.1195577E-003  0.1490613E+03  0.7818608E-02  0.1201631E+00
         -4   -1    0    0    0  501 -0.00000000000E+00  0.00000000000E+00  0.53359113889E+03  0.53359265025E+03  0.12700000000E+01 0. -1.
          4   -1    0    0  502    0  0.00000000000E+00 -0.00000000000E+00 -0.46913900649E+02  0.46931087502E+02  0.12700000000E+01 0. -1.
         25    2    1    2    0    0 -0.73729424064E+02 -0.34021950004E+02  0.47579390980E+03  0.49859713711E+03  0.12500295787E+03 0.  0.
    9000005    1    3    3    0    0 -0.14957807673E+02 -0.14688004842E+01  0.38676443920E+03  0.38705765050E+03  0.10000000000E+01 0.  0.
    9000005    1    3    3    0    0 -0.58771616392E+02 -0.32553149520E+02  0.89029470603E+02  0.11153948661E+03  0.10000000000E+01 0.  0.
         21    1    1    2  502  501  0.73729424064E+02  0.34021950004E+02  0.10883328440E+02  0.81926600643E+02  0.00000000000E+00 0. -1.
<mgrwt>
<rscale>  1 0.14906126E+03</rscale>
<asrwt>0</asrwt>
<pdfrwt beam="2">  1        4 0.72189621E-02 0.14906126E+03</pdfrwt>
<pdfrwt beam="1">  1       -4 0.82092376E-01 0.14906126E+03</pdfrwt>
<totfact> 0.29779466E+02</totfact>
</mgrwt>
</event>
<event>
 6    4  0.1195577E-003  0.1280462E+03  0.7818608E-02  0.1230384E+00
          4   -1    0    0  502    0  0.00000000000E+00  0.00000000000E+00  0.31407074236E+03  0.31407331008E+03  0.12700000000E+01 0.  1.
         -4   -1    0    0    0  501 -0.00000000000E+00 -0.00000000000E+00 -0.29128442687E+02  0.29156115540E+02  0.12700000000E+01 0.  1.
         25    2    1    2    0    0 -0.23663844472E+02  0.14427134476E+02  0.11840145997E+03  0.17439823468E+03  0.12501087470E+03 0.  0.
    9000005    1    3    3    0    0 -0.36678663481E+02 -0.40832908735E+02  0.10109514481E+03  0.11503859828E+03  0.10000000000E+01 0.  0.
    9000005    1    3    3    0    0  0.13014819009E+02  0.55260043212E+02  0.17306315161E+02  0.59359636404E+02  0.10000000000E+01 0.  0.
         21    1    1    2  502  501  0.23663844472E+02 -0.14427134476E+02  0.16654083970E+03  0.16883119093E+03  0.00000000000E+00 0.  1.
<mgrwt>
<rscale>  1 0.12804624E+03</rscale>
<asrwt>0</asrwt>
<pdfrwt beam="1">  1        4 0.48320898E-01 0.12804624E+03</pdfrwt>
<pdfrwt beam="2">  1       -4 0.44836255E-02 0.12804624E+03</pdfrwt>
<totfact> 0.19230537E+03</totfact>
</mgrwt>
</event>
<event>
 6    4  0.1195577E-003  0.1289222E+03  0.7818608E-02  0.1229064E+00
         -4   -1    0    0    0  501 -0.00000000000E+00  0.00000000000E+00  0.71008404307E+02  0.71019760505E+02  0.12700000000E+01 0.  1.
          4   -1    0    0  502    0  0.00000000000E+00 -0.00000000000E+00 -0.90964148321E+02  0.90973013469E+02  0.12700000000E+01 0.  1.
         25    2    1    2    0    0 -0.22069143976E+02  0.22556070839E+02 -0.12207774374E+02  0.12949885945E+03  0.12500040559E+03 0.  0.
    9000005    1    3    3    0    0 -0.67782347337E+02  0.77518160347E+00  0.18495986754E+02  0.70271964844E+02  0.10000000000E+01 0.  0.
    9000005    1    3    3    0    0  0.45713203361E+02  0.21780889235E+02 -0.30703761128E+02  0.59226894607E+02  0.10000000000E+01 0.  0.
         21    1    1    2  502  501  0.22069143976E+02 -0.22556070839E+02 -0.77479696400E+01  0.32493914523E+02  0.00000000000E+00 0.  1.
<mgrwt>
<rscale>  1 0.12892217E+03</rscale>
<asrwt>0</asrwt>
<pdfrwt beam="2">  1        4 0.13996040E-01 0.12892217E+03</pdfrwt>
<pdfrwt beam="1">  1       -4 0.10925925E-01 0.12892217E+03</pdfrwt>
<totfact> 0.44812212E+03</totfact>
</mgrwt>
</event>
<event>
 6    4  0.1195577E-003  0.1394120E+03  0.7818608E-02  0.1214122E+00
         -4   -1    0    0    0  501 -0.00000000000E+00  0.00000000000E+00  0.22861708741E+03  0.22862061490E+03  0.12700000000E+01 0.  1.
          4   -1    0    0  502    0  0.00000000000E+00 -0.00000000000E+00 -0.57580845164E+02  0.57594848987E+02  0.12700000000E+01 0.  1.
         25    2    1    2    0    0  0.39053795347E+02 -0.47842364589E+02  0.17568937220E+03  0.22428209325E+03  0.12498644353E+03 0.  0.
    9000005    1    3    3    0    0  0.66468268580E+02 -0.68448604822E+02  0.86758722162E+02  0.12896246780E+03  0.10000000000E+01 0.  0.
    9000005    1    3    3    0    0 -0.27414473233E+02  0.20606240233E+02  0.88930650036E+02  0.95319625446E+02  0.10000000000E+01 0.  0.
         21    1    1    2  502  501 -0.39053795347E+02  0.47842364589E+02 -0.46531299501E+01  0.61933370640E+02  0.00000000000E+00 0.  1.
<mgrwt>
<rscale>  1 0.13941199E+03</rscale>
<asrwt>0</asrwt>
<pdfrwt beam="2">  1        4 0.88599403E-02 0.13941199E+03</pdfrwt>
<pdfrwt beam="1">  1       -4 0.35173208E-01 0.13941199E+03</pdfrwt>
<totfact> 0.12086952E+03</totfact>
</mgrwt>
</event>
<event>
 6    4  0.1195577E-003  0.1284082E+03  0.7818608E-02  0.1229837E+00
         -4   -1    0    0    0  501 -0.00000000000E+00  0.00000000000E+00  0.14243710345E+03  0.14244276513E+03  0.12700000000E+01 0.  1.
          4   -1    0    0  502    0  0.00000000000E+00 -0.00000000000E+00 -0.48986111758E+02  0.49002571822E+02  0.12700000000E+01 0.  1.
         25    2    1    2    0    0 -0.29366998648E+02 -0.10467779888E+01  0.98232278481E+02  0.16167325176E+03  0.12500057377E+03 0.  0.
    9000005    1    3    3    0    0 -0.65898471128E+02 -0.19898152229E+02  0.98953604404E+02  0.12054609402E+03  0.10000000000E+01 0.  0.
    9000005    1    3    3    0    0  0.36531472480E+02  0.18851374240E+02 -0.72132592246E+00  0.41127157735E+02  0.10000000000E+01 0.  0.
         21    1    1    2  502  501  0.29366998648E+02  0.10467779888E+01 -0.47812867901E+01  0.29772085199E+02  0.00000000000E+00 0. -1.
<mgrwt>
<rscale>  1 0.12840818E+03</rscale>
<asrwt>0</asrwt>
<pdfrwt beam="2">  1        4 0.75380268E-02 0.12840818E+03</pdfrwt>
<pdfrwt beam="1">  1       -4 0.21915102E-01 0.12840818E+03</pdfrwt>
<totfact> 0.37597433E+03</totfact>
</mgrwt>
</event>
<event>
 6    4  0.1195577E-003  0.1695374E+03  0.7818608E-02  0.1178331E+00
         -4   -1    0    0    0  501 -0.00000000000E+00  0.00000000000E+00  0.10099915357E+03  0.10100713797E+03  0.12700000000E+01 0.  1.
          4   -1    0    0  502    0  0.00000000000E+00 -0.00000000000E+00 -0.20313541208E+03  0.20313938205E+03  0.12700000000E+01 0.  1.
         25    2    1    2    0    0 -0.11381460197E+03 -0.12797032884E+02 -0.41452290026E+02  0.17453142946E+03  0.12500159938E+03 0.  0.
    9000005    1    3    3    0    0 -0.73658894784E+02 -0.65714448397E+02 -0.43927770067E+02  0.10804938913E+03  0.10000000000E+01 0.  0.
    9000005    1    3    3    0    0 -0.40155707186E+02  0.52917415513E+02  0.24754800414E+01  0.66482040324E+02  0.10000000000E+01 0.  0.
         21    1    1    2  502  501  0.11381460197E+03  0.12797032884E+02 -0.60683968485E+02  0.12961509057E+03  0.00000000000E+00 0.  1.
<mgrwt>
<rscale>  1 0.16953739E+03</rscale>
<asrwt>0</asrwt>
<pdfrwt beam="2">  1        4 0.31252521E-01 0.16953739E+03</pdfrwt>
<pdfrwt beam="1">  1       -4 0.15539251E-01 0.16953739E+03</pdfrwt>
<totfact> 0.60204549E+02</totfact>
</mgrwt>
</event>
<event>
 6    4  0.1195577E-003  0.1281175E+03  0.7818608E-02  0.1230276E+00
         -4   -1    0    0    0  501 -0.00000000000E+00  0.00000000000E+00  0.17447480864E+03  0.17447943074E+03  0.12700000000E+01 0.  1.
          4   -1    0    0  502    0  0.00000000000E+00 -0.00000000000E+00 -0.51645496211E+02  0.51661108959E+02  0.12700000000E+01 0.  1.
         25    2    1    2    0    0 -0.48070674637E+01 -0.27679777781E+02  0.14266607226E+03  0.19174904313E+03  0.12499923748E+03 0.  0.
    9000005    1    3    3    0    0  0.40931898946E+02 -0.43753968787E+02  0.12760120219E+03  0.14097126280E+03  0.10000000000E+01 0.  0.
    9000005    1    3    3    0    0 -0.45738966410E+02  0.16074191006E+02  0.15064870077E+02  0.50777780329E+02  0.10000000000E+01 0.  0.
         21    1    1    2  502  501  0.48070674637E+01  0.27679777781E+02 -0.19836759832E+02  0.34391496569E+02  0.00000000000E+00 0.  1.
<mgrwt>
<rscale>  1 0.12811747E+03</rscale>
<asrwt>0</asrwt>
<pdfrwt beam="2">  1        4 0.79470175E-02 0.12811747E+03</pdfrwt>
<pdfrwt beam="1">  1       -4 0.26843835E-01 0.12811747E+03</pdfrwt>
<totfact> 0.23722658E+03</totfact>
</mgrwt>
</event>
<event>
 6    4  0.1195577E-003  0.1270412E+03  0.7818608E-02  0.1231913E+00
         -4   -1    0    0    0  501 -0.00000000000E+00  0.00000000000E+00  0.97445405525E+02  0.97453681089E+02  0.12700000000E+01 0.  1.
          4   -1    0    0  502    0  0.00000000000E+00 -0.00000000000E+00 -0.60310993260E+02  0.60324363304E+02  0.12700000000E+01 0.  1.
         25    2    1    2    0    0  0.28867203489E+01 -0.22536416516E+02  0.43331152223E+02  0.13422761319E+03  0.12499296047E+03 0.  0.
    9000005    1    3    3    0    0 -0.56346369751E+02 -0.33178414523E+02  0.12424381914E+02  0.66566401738E+02  0.10000000000E+01 0.  0.
    9000005    1    3    3    0    0  0.59233090099E+02  0.10641998007E+02  0.30906770309E+02  0.67661211453E+02  0.10000000000E+01 0.  0.
         21    1    1    2  502  501 -0.28867203489E+01  0.22536416516E+02 -0.61967399586E+01  0.23550431203E+02  0.00000000000E+00 0.  1.
<mgrwt>
<rscale>  1 0.12704119E+03</rscale>
<asrwt>0</asrwt>
<pdfrwt beam="2">  1        4 0.92802795E-02 0.12704119E+03</pdfrwt>
<pdfrwt beam="1">  1       -4 0.14993266E-01 0.12704119E+03</pdfrwt>
<totfact> 0.52145598E+03</totfact>
</mgrwt>
</event>
<event>
 6    4  0.1195577E-003  0.1268253E+03  0.7818608E-02  0.1232244E+00
         -4   -1    0    0    0  501 -0.00000000000E+00  0.00000000000E+00  0.18247292035E+03  0.18247733986E+03  0.12700000000E+01 0.  1.
          4   -1    0    0  502    0  0.00000000000E+00 -0.00000000000E+00 -0.33365771531E+02  0.33389932762E+02  0.12700000000E+01 0.  1.
         25    2    1    2    0    0 -0.21443196366E+02  0.34265585000E+00  0.14725474302E+03  0.19434148597E+03  0.12499890297E+03 0.  0.
    9000005    1    3    3    0    0  0.14059054127E+02 -0.40621319617E+02  0.13079528154E+03  0.13768135053E+03  0.10000000000E+01 0.  0.
    9000005    1    3    3    0    0 -0.35502250493E+02  0.40963975467E+02  0.16459461481E+02  0.56660135443E+02  0.10000000000E+01 0.  0.
         21    1    1    2  502  501  0.21443196366E+02 -0.34265585000E+00  0.18524057967E+01  0.21525786645E+02  0.00000000000E+00 0.  1.
<mgrwt>
<rscale>  1 0.12682529E+03</rscale>
<asrwt>0</asrwt>
<pdfrwt beam="2">  1        4 0.51353943E-02 0.12682529E+03</pdfrwt>
<pdfrwt beam="1">  1       -4 0.28074955E-01 0.12682529E+03</pdfrwt>
<totfact> 0.44345814E+03</totfact>
</mgrwt>
</event>
<event>
 6    4  0.1195577E-003  0.1296716E+03  0.7818608E-02  0.1227944E+00
         -4   -1    0    0    0  501 -0.00000000000E+00  0.00000000000E+00  0.69000793533E+02  0.69012480090E+02  0.12700000000E+01 0.  1.
          4   -1    0    0  502    0  0.00000000000E+00 -0.00000000000E+00 -0.12024441598E+03  0.12025112255E+03  0.12700000000E+01 0.  1.
         25    2    1    2    0    0  0.33317686808E+02  0.88867896336E+01 -0.26753131032E+01  0.12969915051E+03  0.12500267621E+03 0.  0.
    9000005    1    3    3    0    0  0.47838436684E+02  0.49835320497E+02 -0.33141615676E+02  0.76625334473E+02  0.10000000000E+01 0.  0.
    9000005    1    3    3    0    0 -0.14520749876E+02 -0.40948530863E+02  0.30466302573E+02  0.53073816042E+02  0.10000000000E+01 0.  0.
         21    1    1    2  502  501 -0.33317686808E+02 -0.88867896336E+01 -0.48568309341E+02  0.59564452121E+02  0.00000000000E+00 0.  1.
<mgrwt>
<rscale>  1 0.12967156E+03</rscale>
<asrwt>0</asrwt>
<pdfrwt beam="2">  1        4 0.18500556E-01 0.12967156E+03</pdfrwt>
<pdfrwt beam="1">  1       -4 0.10616922E-01 0.12967156E+03</pdfrwt>
<totfact> 0.28857076E+03</totfact>
</mgrwt>
</event>
<event>
 6    4  0.1195577E-003  0.1289563E+03  0.7818608E-02  0.1229013E+00
         -4   -1    0    0    0  501 -0.00000000000E+00  0.00000000000E+00  0.32524217752E+03  0.32524465704E+03  0.12700000000E+01 0. -1.
          4   -1    0    0  502    0  0.00000000000E+00 -0.00000000000E+00 -0.20112495605E+02  0.20152552678E+02  0.12700000000E+01 0. -1.
         25    2    1    2    0    0  0.81084919480E+01  0.30635480863E+02  0.26036404981E+03  0.29054976542E+03  0.12500178967E+03 0.  0.
    9000005    1    3    3    0    0  0.56873157658E+02  0.50677313851E+02  0.15749064770E+03  0.17494870766E+03  0.10000000000E+01 0.  0.
    9000005    1    3    3    0    0 -0.48764665710E+02 -0.20041832987E+02  0.10287340212E+03  0.11560105776E+03  0.10000000000E+01 0.  0.
         21    1    1    2  502  501 -0.81084919480E+01 -0.30635480863E+02  0.44765632098E+02  0.54847444302E+02  0.00000000000E+00 0.  1.
<mgrwt>
<rscale>  1 0.12895630E+03</rscale>
<asrwt>0</asrwt>
<pdfrwt beam="2">  1        4 0.30975021E-02 0.12895630E+03</pdfrwt>
<pdfrwt beam="1">  1       -4 0.50040531E-01 0.12895630E+03</pdfrwt>
<totfact> 0.32199564E+03</totfact>
</mgrwt>
</event>
<event>
 6    4  0.1195577E-003  0.1278454E+03  0.7818608E-02  0.1230688E+00
         -4   -1    0    0    0  501 -0.00000000000E+00  0.00000000000E+00  0.27587148443E+02  0.27616365786E+02  0.12700000000E+01 0.  1.
          4   -1    0    0  502    0  0.00000000000E+00 -0.00000000000E+00 -0.26696263301E+03  0.26696565383E+03  0.12700000000E+01 0.  1.
         25    2    1    2    0    0 -0.15089853098E+02 -0.22181883280E+02 -0.13143098171E+03  0.18335362706E+03  0.12499883996E+03 0.  0.
    9000005    1    3    3    0    0 -0.11121168548E+02 -0.19446606257E+01 -0.15304423767E+03  0.15346335321E+03  0.10000000000E+01 0.  0.
    9000005    1    3    3    0    0 -0.39686845493E+01 -0.20237222654E+02  0.21613255959E+02  0.29890273852E+02  0.10000000000E+01 0.  0.
         21    1    1    2  502  501  0.15089853098E+02  0.22181883280E+02 -0.10794450286E+03  0.11122839255E+03  0.00000000000E+00 0.  1.
<mgrwt>
<rscale>  1 0.12784541E+03</rscale>
<asrwt>0</asrwt>
<pdfrwt beam="2">  1        4 0.41073652E-01 0.12784541E+03</pdfrwt>
<pdfrwt beam="1">  1       -4 0.42466567E-02 0.12784541E+03</pdfrwt>
<totfact> 0.29000824E+03</totfact>
</mgrwt>
</event>
<event>
 6    4  0.1195577E-003  0.1421328E+03  0.7818608E-02  0.1210488E+00
          4   -1    0    0  502    0  0.00000000000E+00  0.00000000000E+00  0.14446399758E+04  0.14446405340E+04  0.12700000000E+01 0. -1.
         -4   -1    0    0    0  501 -0.00000000000E+00 -0.00000000000E+00 -0.10085617691E+02  0.10165263607E+02  0.12700000000E+01 0. -1.
         25    2    1    2    0    0 -0.35325348656E+02 -0.57693161682E+02  0.56424611218E+03  0.58187233850E+03  0.12500144814E+03 0.  0.
    9000005    1    3    3    0    0  0.28006563034E+02 -0.47780086164E+02  0.42478008220E+03  0.42837649613E+03  0.10000000000E+01 0.  0.
    9000005    1    3    3    0    0 -0.63331911690E+02 -0.99130755177E+01  0.13946602998E+03  0.15349584236E+03  0.10000000000E+01 0.  0.
         21    1    1    2  502  501  0.35325348656E+02  0.57693161682E+02  0.87030824589E+03  0.87293345911E+03  0.00000000000E+00 0. -1.
<mgrwt>
<rscale>  1 0.14213284E+03</rscale>
<asrwt>0</asrwt>
<pdfrwt beam="1">  1        4 0.22225833E+00 0.14213284E+03</pdfrwt>
<pdfrwt beam="2">  1       -4 0.15578040E-02 0.14213284E+03</pdfrwt>
<totfact> 0.26909459E+02</totfact>
</mgrwt>
</event>
<event>
 6    4  0.1195577E-003  0.1341670E+03  0.7818608E-02  0.1221400E+00
          4   -1    0    0  502    0  0.00000000000E+00  0.00000000000E+00  0.16344688370E+02  0.16393954310E+02  0.12700000000E+01 0. -1.
         -4   -1    0    0    0  501 -0.00000000000E+00 -0.00000000000E+00 -0.61547133526E+03  0.61547264556E+03  0.12700000000E+01 0. -1.
         25    2    1    2    0    0 -0.48226298312E+02  0.70634167857E+01 -0.53354816929E+03  0.55015855601E+03  0.12500048040E+03 0.  0.
    9000005    1    3    3    0    0 -0.14517673491E+02 -0.35595598326E+02 -0.47672348606E+02  0.61249181916E+02  0.10000000000E+01 0.  0.
    9000005    1    3    3    0    0 -0.33708624821E+02  0.42659015112E+02 -0.48587582068E+03  0.48890937410E+03  0.10000000000E+01 0.  0.
         21    1    1    2  502  501  0.48226298312E+02 -0.70634167857E+01 -0.65578477605E+02  0.81708043855E+02  0.00000000000E+00 0. -1.
<mgrwt>
<rscale>  1 0.13416701E+03</rscale>
<asrwt>0</asrwt>
<pdfrwt beam="1">  1        4 0.25184584E-02 0.13416701E+03</pdfrwt>
<pdfrwt beam="2">  1       -4 0.94691770E-01 0.13416701E+03</pdfrwt>
<totfact> 0.11371102E+03</totfact>
</mgrwt>
</event>
<event>
 6    4  0.1195577E-003  0.1268989E+03  0.7818608E-02  0.1232131E+00
         -4   -1    0    0    0  501 -0.00000000000E+00  0.00000000000E+00  0.28061747302E+03  0.28062034684E+03  0.12700000000E+01 0.  1.
          4   -1    0    0  502    0  0.00000000000E+00 -0.00000000000E+00 -0.56396927069E+02  0.56411224795E+02  0.12700000000E+01 0.  1.
         25    2    1    2    0    0  0.17975271118E+02  0.12388912072E+02  0.26329057205E+03  0.29227598591E+03  0.12500692419E+03 0.  0.
    9000005    1    3    3    0    0 -0.79257033125E+01  0.56392838377E+02  0.21344053602E+03  0.22090910214E+03  0.10000000000E+01 0.  0.
    9000005    1    3    3    0    0  0.25900974431E+02 -0.44003926304E+02  0.49850036031E+02  0.71366883769E+02  0.10000000000E+01 0.  0.
         21    1    1    2  502  501 -0.17975271118E+02 -0.12388912072E+02 -0.39070026102E+02  0.44755585726E+02  0.00000000000E+00 0.  1.
<mgrwt>
<rscale>  1 0.12689888E+03</rscale>
<asrwt>0</asrwt>
<pdfrwt beam="2">  1        4 0.86777713E-02 0.12689888E+03</pdfrwt>
<pdfrwt beam="1">  1       -4 0.43173239E-01 0.12689888E+03</pdfrwt>
<totfact> 0.82098288E+02</totfact>
</mgrwt>
</event>
<event>
 6    4  0.1195577E-003  0.1272221E+03  0.7818608E-02  0.1231637E+00
          4   -1    0    0  502    0  0.00000000000E+00  0.00000000000E+00  0.48122614344E+01  0.49770232180E+01  0.12700000000E+01 0.  1.
         -4   -1    0    0    0  501 -0.00000000000E+00 -0.00000000000E+00 -0.19369949684E+04  0.19369953847E+04  0.12700000000E+01 0.  1.
         25    2    1    2    0    0  0.17436596709E+02 -0.15979905105E+02 -0.18840714715E+04  0.18883619309E+04  0.12500432030E+03 0.  0.
    9000005    1    3    3    0    0  0.44004654895E+02 -0.28021237856E+02 -0.17648037310E+04  0.17655749229E+04  0.10000000000E+01 0.  0.
    9000005    1    3    3    0    0 -0.26568058186E+02  0.12041332750E+02 -0.11926774048E+03  0.12278700799E+03  0.10000000000E+01 0.  0.
         21    1    1    2  502  501 -0.17436596709E+02  0.15979905105E+02 -0.48111235454E+02  0.53610477044E+02  0.00000000000E+00 0.  1.
<mgrwt>
<rscale>  1 0.12722214E+03</rscale>
<asrwt>0</asrwt>
<pdfrwt beam="1">  1        4 0.75305547E-03 0.12722214E+03</pdfrwt>
<pdfrwt beam="2">  1       -4 0.29801132E+00 0.12722214E+03</pdfrwt>
<totfact> 0.28930667E+02</totfact>
</mgrwt>
</event>
<event>
 6    4  0.1195577E-003  0.1283856E+03  0.7818608E-02  0.1229871E+00
         -4   -1    0    0    0  501 -0.00000000000E+00  0.00000000000E+00  0.12400822648E+02  0.12465684993E+02  0.12700000000E+01 0.  1.
          4   -1    0    0  502    0  0.00000000000E+00 -0.00000000000E+00 -0.64787807231E+03  0.64787931706E+03  0.12700000000E+01 0.  1.
         25    2    1    2    0    0  0.14826554372E+02 -0.25197695545E+02 -0.34012057945E+03  0.36354487872E+03  0.12501247818E+03 0.  0.
    9000005    1    3    3    0    0  0.27115568713E+02  0.45982494523E+02 -0.10858642042E+03  0.12100270480E+03  0.10000000000E+01 0.  0.
    9000005    1    3    3    0    0 -0.12289014341E+02 -0.71180190068E+02 -0.23153415904E+03  0.24254217393E+03  0.10000000000E+01 0.  0.
         21    1    1    2  502  501 -0.14826554372E+02  0.25197695545E+02 -0.29535667020E+03  0.29680012333E+03  0.00000000000E+00 0.  1.
<mgrwt>
<rscale>  1 0.12838563E+03</rscale>
<asrwt>0</asrwt>
<pdfrwt beam="2">  1        4 0.99678608E-01 0.12838563E+03</pdfrwt>
<pdfrwt beam="1">  1       -4 0.19129045E-02 0.12838563E+03</pdfrwt>
<totfact> 0.15312995E+03</totfact>
</mgrwt>
</event>
<event>
 6    4  0.1195577E-003  0.1297046E+03  0.7818608E-02  0.1227895E+00
         -4   -1    0    0    0  501 -0.00000000000E+00  0.00000000000E+00  0.69023288417E+01  0.70181937448E+01  0.12700000000E+01 0. -1.
          4   -1    0    0  502    0  0.00000000000E+00 -0.00000000000E+00 -0.10920476370E+04  0.10920483755E+04  0.12700000000E+01 0. -1.
         25    2    1    2    0    0 -0.24047409052E+02  0.25192707736E+02 -0.66839510098E+03  0.68086364528E+03  0.12494135444E+03 0.  0.
    9000005    1    3    3    0    0 -0.24541406001E+02 -0.47382062318E+02 -0.36651081318E+03  0.37037618258E+03  0.10000000000E+01 0.  0.
    9000005    1    3    3    0    0  0.49399694922E+00  0.72574770054E+02 -0.30188428779E+03  0.31048746271E+03  0.10000000000E+01 0.  0.
         21    1    1    2  502  501  0.24047409052E+02 -0.25192707736E+02 -0.41675020718E+03  0.41820292393E+03  0.00000000000E+00 0.  1.
<mgrwt>
<rscale>  1 0.12970464E+03</rscale>
<asrwt>0</asrwt>
<pdfrwt beam="2">  1        4 0.16801616E+00 0.12970464E+03</pdfrwt>
<pdfrwt beam="1">  1       -4 0.10708671E-02 0.12970464E+03</pdfrwt>
<totfact> 0.10299447E+03</totfact>
</mgrwt>
</event>
<event>
 6    4  0.1195577E-003  0.1441795E+03  0.7818608E-02  0.1207813E+00
         -4   -1    0    0    0  501 -0.00000000000E+00  0.00000000000E+00  0.54840982464E+02  0.54855685737E+02  0.12700000000E+01 0. -1.
          4   -1    0    0  502    0  0.00000000000E+00 -0.00000000000E+00 -0.25713452554E+03  0.25713766182E+03  0.12700000000E+01 0. -1.
         25    2    1    2    0    0 -0.70042519108E+02 -0.15985842429E+02 -0.67388529139E+02  0.15915073430E+03  0.12500496281E+03 0.  0.
    9000005    1    3    3    0    0 -0.44376379432E+02  0.38932761371E+02  0.10993299394E+02  0.60057269260E+02  0.10000000000E+01 0.  0.
    9000005    1    3    3    0    0 -0.25666139677E+02 -0.54918603800E+02 -0.78381828532E+02  0.99093465038E+02  0.10000000000E+01 0.  0.
         21    1    1    2  502  501  0.70042519108E+02  0.15985842429E+02 -0.13490501394E+03  0.15284261325E+03  0.00000000000E+00 0. -1.
<mgrwt>
<rscale>  1 0.14417955E+03</rscale>
<asrwt>0</asrwt>
<pdfrwt beam="2">  1        4 0.39560529E-01 0.14417955E+03</pdfrwt>
<pdfrwt beam="1">  1       -4 0.84384467E-02 0.14417955E+03</pdfrwt>
<totfact> 0.10498234E+03</totfact>
</mgrwt>
</event>
<event>
 6    4  0.1195577E-003  0.1265993E+03  0.7818608E-02  0.1232591E+00
         -4   -1    0    0    0  501 -0.00000000000E+00  0.00000000000E+00  0.80456052049E+02  0.80466074909E+02  0.12700000000E+01 0.  1.
          4   -1    0    0  502    0  0.00000000000E+00 -0.00000000000E+00 -0.68944651024E+02  0.68956347096E+02  0.12700000000E+01 0.  1.
         25    2    1    2    0    0 -0.16709294228E+02 -0.11168132978E+02  0.18914354023E+02  0.12800440574E+03  0.12499378941E+03 0.  0.
    9000005    1    3    3    0    0 -0.27868123558E+02  0.48874696575E+02 -0.14873076052E+02  0.58202892258E+02  0.10000000000E+01 0.  0.
    9000005    1    3    3    0    0  0.11158829330E+02 -0.60042829553E+02  0.33787430075E+02  0.69801513478E+02  0.10000000000E+01 0.  0.
         21    1    1    2  502  501  0.16709294228E+02  0.11168132978E+02 -0.74029529985E+01  0.21418016269E+02  0.00000000000E+00 0. -1.
<mgrwt>
<rscale>  1 0.12659927E+03</rscale>
<asrwt>0</asrwt>
<pdfrwt beam="2">  1        4 0.10608540E-01 0.12659927E+03</pdfrwt>
<pdfrwt beam="1">  1       -4 0.12379525E-01 0.12659927E+03</pdfrwt>
<totfact> 0.57928178E+03</totfact>
</mgrwt>
</event>
<event>
 6    4  0.1195577E-003  0.1276305E+03  0.7818608E-02  0.1231015E+00
          4   -1    0    0  502    0  0.00000000000E+00  0.00000000000E+00  0.62005370343E+03  0.62005500404E+03  0.12700000000E+01 0.  1.
         -4   -1    0    0    0  501 -0.00000000000E+00 -0.00000000000E+00 -0.94499127108E+01  0.95348702268E+01  0.12700000000E+01 0.  1.
         25    2    1    2    0    0 -0.11720462245E+02  0.22952739802E+02  0.50214414471E+03  0.51811031421E+03  0.12500143247E+03 0.  0.
    9000005    1    3    3    0    0  0.18105750979E+02 -0.42086077908E+02  0.30412219737E+03  0.30755546996E+03  0.10000000000E+01 0.  0.
    9000005    1    3    3    0    0 -0.29826213223E+02  0.65038817711E+02  0.19802194734E+03  0.21055484424E+03  0.10000000000E+01 0.  0.
         21    1    1    2  502  501  0.11720462245E+02 -0.22952739802E+02  0.10845964600E+03  0.11147956006E+03  0.00000000000E+00 0.  1.
<mgrwt>
<rscale>  1 0.12763054E+03</rscale>
<asrwt>0</asrwt>
<pdfrwt beam="1">  1        4 0.95399513E-01 0.12763054E+03</pdfrwt>
<pdfrwt beam="2">  1       -4 0.14604680E-02 0.12763054E+03</pdfrwt>
<totfact> 0.25546850E+03</totfact>
</mgrwt>
</event>
<event>
 6    4  0.1195577E-003  0.1271456E+03  0.7818608E-02  0.1231754E+00
          4   -1    0    0  502    0  0.00000000000E+00  0.00000000000E+00  0.37032407653E+02  0.37054178126E+02  0.12700000000E+01 0.  1.
         -4   -1    0    0    0  501 -0.00000000000E+00 -0.00000000000E+00 -0.17015229271E+03  0.17015703222E+03  0.12700000000E+01 0.  1.
         25    2    1    2    0    0 -0.13958979834E+02 -0.18594387755E+02 -0.13294795976E+03  0.18395967422E+03  0.12500158944E+03 0.  0.
    9000005    1    3    3    0    0 -0.45003663290E+02  0.40102952501E+02 -0.71000643398E+02  0.93143265305E+02  0.10000000000E+01 0.  0.
    9000005    1    3    3    0    0  0.31044683455E+02 -0.58697340256E+02 -0.61947316357E+02  0.90816408913E+02  0.10000000000E+01 0.  0.
         21    1    1    2  502  501  0.13958979834E+02  0.18594387755E+02 -0.17192529879E+00  0.23251536128E+02  0.00000000000E+00 0.  1.
<mgrwt>
<rscale>  1 0.12714559E+03</rscale>
<asrwt>0</asrwt>
<pdfrwt beam="1">  1        4 0.56993328E-02 0.12714559E+03</pdfrwt>
<pdfrwt beam="2">  1       -4 0.26179315E-01 0.12714559E+03</pdfrwt>
<totfact> 0.42726107E+03</totfact>
</mgrwt>
</event>
<event>
 6    4  0.1195577E-003  0.1266602E+03  0.7818608E-02  0.1232497E+00
         -4   -1    0    0    0  501 -0.00000000000E+00  0.00000000000E+00  0.22063912061E+03  0.22064277564E+03  0.12700000000E+01 0. -1.
          4   -1    0    0  502    0  0.00000000000E+00 -0.00000000000E+00 -0.44173328774E+02  0.44191581494E+02  0.12700000000E+01 0. -1.
         25    2    1    2    0    0  0.79031981685E+01  0.18837618097E+02  0.19806736509E+03  0.23510315528E+03  0.12500198443E+03 0.  0.
    9000005    1    3    3    0    0 -0.53311913676E+02 -0.90877461699E+01  0.12254202589E+03  0.13394885359E+03  0.10000000000E+01 0.  0.
    9000005    1    3    3    0    0  0.61215111845E+02  0.27925364267E+02  0.75525339203E+02  0.10115430168E+03  0.10000000000E+01 0.  0.
         21    1    1    2  502  501 -0.79031981685E+01 -0.18837618097E+02 -0.21601573255E+02  0.29731201859E+02  0.00000000000E+00 0. -1.
<mgrwt>
<rscale>  1 0.12666022E+03</rscale>
<asrwt>0</asrwt>
<pdfrwt beam="2">  1        4 0.67975819E-02 0.12666022E+03</pdfrwt>
<pdfrwt beam="1">  1       -4 0.33946165E-01 0.12666022E+03</pdfrwt>
<totfact> 0.19633664E+03</totfact>
</mgrwt>
</event>
<event>
 6    4  0.1195577E-003  0.1270265E+03  0.7818608E-02  0.1231936E+00
         -4   -1    0    0    0  501 -0.00000000000E+00  0.00000000000E+00  0.18630893156E+02  0.18674128622E+02  0.12700000000E+01 0. -1.
          4   -1    0    0  502    0  0.00000000000E+00 -0.00000000000E+00 -0.51486263132E+03  0.51486419766E+03  0.12700000000E+01 0. -1.
         25    2    1    2    0    0  0.13690517742E+02 -0.17965950484E+02 -0.20319903551E+03  0.23963635202E+03  0.12500211007E+03 0.  0.
    9000005    1    3    3    0    0 -0.35720135524E+02  0.25891216509E+02 -0.27676786277E+02  0.52089227992E+02  0.10000000000E+01 0.  0.
    9000005    1    3    3    0    0  0.49410653266E+02 -0.43857166994E+02 -0.17552224924E+03  0.18754712403E+03  0.10000000000E+01 0.  0.
         21    1    1    2  502  501 -0.13690517742E+02  0.17965950484E+02 -0.29303270265E+03  0.29390197426E+03  0.00000000000E+00 0. -1.
<mgrwt>
<rscale>  1 0.12702651E+03</rscale>
<asrwt>0</asrwt>
<pdfrwt beam="2">  1        4 0.79213071E-01 0.12702651E+03</pdfrwt>
<pdfrwt beam="1">  1       -4 0.28697379E-02 0.12702651E+03</pdfrwt>
<totfact> 0.13679237E+03</totfact>
</mgrwt>
</event>
<event>
 6    4  0.1195577E-003  0.1274909E+03  0.7818608E-02  0.1231227E+00
         -4   -1    0    0    0  501 -0.00000000000E+00  0.00000000000E+00  0.73244030473E+03  0.73244140578E+03  0.12700000000E+01 0. -1.
          4   -1    0    0  502    0  0.00000000000E+00 -0.00000000000E+00 -0.91300281325E+01  0.92179343511E+01  0.12700000000E+01 0. -1.
         25    2    1    2    0    0 -0.21429445419E+02 -0.12996818094E+02  0.67797106869E+03  0.68985410694E+03  0.12500312185E+03 0.  0.
    9000005    1    3    3    0    0 -0.45927968853E+02  0.40807184686E+02  0.45687145745E+03  0.46098495993E+03  0.10000000000E+01 0.  0.
    9000005    1    3    3    0    0  0.24498523433E+02 -0.53804002780E+02  0.22109961124E+03  0.22886914702E+03  0.10000000000E+01 0.  0.
         21    1    1    2  502  501  0.21429445419E+02  0.12996818094E+02  0.45339207906E+02  0.51805233183E+02  0.00000000000E+00 0. -1.
<mgrwt>
<rscale>  1 0.12749086E+03</rscale>
<asrwt>0</asrwt>
<pdfrwt beam="2">  1        4 0.14114665E-02 0.12749086E+03</pdfrwt>
<pdfrwt beam="1">  1       -4 0.11268996E+00 0.12749086E+03</pdfrwt>
<totfact> 0.18259061E+03</totfact>
</mgrwt>
</event>
<event>
 6    4  0.1195577E-003  0.1313180E+03  0.7818608E-02  0.1225513E+00
          4   -1    0    0  502    0  0.00000000000E+00  0.00000000000E+00  0.74961625745E+03  0.74961733327E+03  0.12700000000E+01 0.  1.
         -4   -1    0    0    0  501 -0.00000000000E+00 -0.00000000000E+00 -0.10924735464E+02  0.10998306459E+02  0.12700000000E+01 0.  1.
         25    2    1    2    0    0  0.23916461324E+02 -0.32358010886E+02  0.43854174999E+03  0.45778082729E+03  0.12500152544E+03 0.  0.
    9000005    1    3    3    0    0  0.44102471652E+02 -0.52923180323E+02  0.12346736345E+03  0.14138981880E+03  0.10000000000E+01 0.  0.
    9000005    1    3    3    0    0 -0.20186010328E+02  0.20565169437E+02  0.31507438653E+03  0.31639100850E+03  0.10000000000E+01 0.  0.
         21    1    1    2  502  501 -0.23916461324E+02  0.32358010886E+02  0.30014977200E+03  0.30283481243E+03  0.00000000000E+00 0.  1.
<mgrwt>
<rscale>  1 0.13131801E+03</rscale>
<asrwt>0</asrwt>
<pdfrwt beam="1">  1        4 0.11533133E+00 0.13131801E+03</pdfrwt>
<pdfrwt beam="2">  1       -4 0.16864704E-02 0.13131801E+03</pdfrwt>
<totfact> 0.13263129E+03</totfact>
</mgrwt>
</event>
<event>
 6    4  0.1195577E-003  0.1340901E+03  0.7818608E-02  0.1221510E+00
          4   -1    0    0  502    0  0.00000000000E+00  0.00000000000E+00  0.16865550528E+02  0.16913299341E+02  0.12700000000E+01 0.  1.
         -4   -1    0    0    0  501 -0.00000000000E+00 -0.00000000000E+00 -0.50305564112E+03  0.50305724422E+03  0.12700000000E+01 0.  1.
         25    2    1    2    0    0  0.44798035661E+02 -0.18674761177E+02 -0.32332386211E+03  0.35002637895E+03  0.12499814178E+03 0.  0.
    9000005    1    3    3    0    0  0.16791676256E+02  0.31577795154E+02 -0.26741784810E+03  0.26980070982E+03  0.10000000000E+01 0.  0.
    9000005    1    3    3    0    0  0.28006359405E+02 -0.50252556331E+02 -0.55906014007E+02  0.80225669128E+02  0.10000000000E+01 0.  0.
         21    1    1    2  502  501 -0.44798035661E+02  0.18674761177E+02 -0.16286622849E+03  0.16994416461E+03  0.00000000000E+00 0. -1.
<mgrwt>
<rscale>  1 0.13409007E+03</rscale>
<asrwt>0</asrwt>
<pdfrwt beam="1">  1        4 0.25984968E-02 0.13409007E+03</pdfrwt>
<pdfrwt beam="2">  1       -4 0.77396961E-01 0.13409007E+03</pdfrwt>
<totfact> 0.17008727E+03</totfact>
</mgrwt>
</event>
<event>
 6    4  0.1195577E-003  0.1311130E+03  0.7818608E-02  0.1225814E+00
          4   -1    0    0  502    0  0.00000000000E+00  0.00000000000E+00  0.44015865681E+03  0.44016048899E+03  0.12700000000E+01 0.  1.
         -4   -1    0    0    0  501 -0.00000000000E+00 -0.00000000000E+00 -0.16646054588E+02  0.16694431207E+02  0.12700000000E+01 0.  1.
         25    2    1    2    0    0  0.20042814065E+01 -0.39513421477E+02  0.34129866721E+03  0.36561644842E+03  0.12500111799E+03 0.  0.
    9000005    1    3    3    0    0 -0.26371731824E+02  0.65663490196E+01  0.28925049155E+03  0.29052612970E+03  0.10000000000E+01 0.  0.
    9000005    1    3    3    0    0  0.28376013230E+02 -0.46079770496E+02  0.52048175658E+02  0.75090318718E+02  0.10000000000E+01 0.  0.
         21    1    1    2  502  501 -0.20042814065E+01  0.39513421477E+02  0.82213935015E+02  0.91238471773E+02  0.00000000000E+00 0.  1.
<mgrwt>
<rscale>  1 0.13111296E+03</rscale>
<asrwt>0</asrwt>
<pdfrwt beam="1">  1        4 0.67720582E-01 0.13111296E+03</pdfrwt>
<pdfrwt beam="2">  1       -4 0.25647936E-02 0.13111296E+03</pdfrwt>
<totfact> 0.23075345E+03</totfact>
</mgrwt>
</event>
<event>
 6    4  0.1195577E-003  0.1277257E+03  0.7818608E-02  0.1230870E+00
         -4   -1    0    0    0  501 -0.00000000000E+00  0.00000000000E+00  0.42055395427E+02  0.42074566956E+02  0.12700000000E+01 0. -1.
          4   -1    0    0  502    0  0.00000000000E+00 -0.00000000000E+00 -0.14104502698E+03  0.14105074455E+03  0.12700000000E+01 0. -1.
         25    2    1    2    0    0  0.24988576497E+02  0.80466592583E+01 -0.79763778848E+02  0.15058593393E+03  0.12499874159E+03 0.  0.
    9000005    1    3    3    0    0  0.15386935314E+02  0.53122526898E+02  0.34864642152E+01  0.55424868743E+02  0.10000000000E+01 0.  0.
    9000005    1    3    3    0    0  0.96016411825E+01 -0.45075867640E+02 -0.83250243064E+02  0.95161065184E+02  0.10000000000E+01 0.  0.
         21    1    1    2  502  501 -0.24988576497E+02 -0.80466592583E+01 -0.19225852709E+02  0.32539377575E+02  0.00000000000E+00 0. -1.
<mgrwt>
<rscale>  1 0.12772573E+03</rscale>
<asrwt>0</asrwt>
<pdfrwt beam="2">  1        4 0.21701149E-01 0.12772573E+03</pdfrwt>
<pdfrwt beam="1">  1       -4 0.64719755E-02 0.12772573E+03</pdfrwt>
<totfact> 0.49076506E+03</totfact>
</mgrwt>
</event>
<event>
 6    4  0.1195577E-003  0.1269027E+03  0.7818608E-02  0.1232125E+00
         -4   -1    0    0    0  501 -0.00000000000E+00  0.00000000000E+00  0.27658502198E+03  0.27658793771E+03  0.12700000000E+01 0.  1.
          4   -1    0    0  502    0  0.00000000000E+00 -0.00000000000E+00 -0.21539966182E+02  0.21577373406E+02  0.12700000000E+01 0.  1.
         25    2    1    2    0    0  0.97750569899E+01  0.19592654168E+02  0.24035203306E+03  0.27179660326E+03  0.12499947965E+03 0.  0.
    9000005    1    3    3    0    0  0.11485277748E+02 -0.10491037486E+02 -0.10721842776E+02  0.18919074634E+02  0.10000000000E+01 0.  0.
    9000005    1    3    3    0    0 -0.17102207581E+01  0.30083691654E+02  0.25107387583E+03  0.25287752863E+03  0.10000000000E+01 0.  0.
         21    1    1    2  502  501 -0.97750569899E+01 -0.19592654168E+02  0.14693022746E+02  0.26368707854E+02  0.00000000000E+00 0.  1.
<mgrwt>
<rscale>  1 0.12690269E+03</rscale>
<asrwt>0</asrwt>
<pdfrwt beam="2">  1        4 0.33169429E-02 0.12690269E+03</pdfrwt>
<pdfrwt beam="1">  1       -4 0.42554641E-01 0.12690269E+03</pdfrwt>
<totfact> 0.39890102E+03</totfact>
</mgrwt>
</event>
<event>
 6    4  0.1195577E-003  0.1382793E+03  0.7818608E-02  0.1215663E+00
         -4   -1    0    0    0  501 -0.00000000000E+00  0.00000000000E+00  0.31158456224E+02  0.31184327702E+02  0.12700000000E+01 0.  1.
          4   -1    0    0  502    0  0.00000000000E+00 -0.00000000000E+00 -0.34172385867E+03  0.34172621861E+03  0.12700000000E+01 0.  1.
         25    2    1    2    0    0 -0.58399139240E+02  0.91941512051E+01 -0.16185917457E+03  0.21288387951E+03  0.12500464743E+03 0.  0.
    9000005    1    3    3    0    0  0.24157468635E+01  0.59065871037E+02 -0.60583753376E+02  0.84652254119E+02  0.10000000000E+01 0.  0.
    9000005    1    3    3    0    0 -0.60814886103E+02 -0.49871719832E+02 -0.10127542120E+03  0.12823162539E+03  0.10000000000E+01 0.  0.
         21    1    1    2  502  501  0.58399139240E+02 -0.91941512051E+01 -0.14870622787E+03  0.16002666681E+03  0.00000000000E+00 0.  1.
<mgrwt>
<rscale>  1 0.13827926E+03</rscale>
<asrwt>0</asrwt>
<pdfrwt beam="2">  1        4 0.52575070E-01 0.13827926E+03</pdfrwt>
<pdfrwt beam="1">  1       -4 0.47957805E-02 0.13827926E+03</pdfrwt>
<totfact> 0.14788073E+03</totfact>
</mgrwt>
</event>
<event>
 6    4  0.1195577E-003  0.1331303E+03  0.7818608E-02  0.1222883E+00
         -4   -1    0    0    0  501 -0.00000000000E+00  0.00000000000E+00  0.34136869409E+03  0.34137105648E+03  0.12700000000E+01 0. -1.
          4   -1    0    0  502    0  0.00000000000E+00 -0.00000000000E+00 -0.23430497840E+02  0.23464891413E+02  0.12700000000E+01 0. -1.
         25    2    1    2    0    0 -0.42997168102E+02  0.15811774599E+02  0.23624427259E+03  0.27117343755E+03  0.12499963289E+03 0.  0.
    9000005    1    3    3    0    0 -0.25964254160E+02 -0.39510339964E+02  0.19354110335E+03  0.19923445521E+03  0.10000000000E+01 0.  0.
    9000005    1    3    3    0    0 -0.17032913942E+02  0.55322114563E+02  0.42703169238E+02  0.71938982340E+02  0.10000000000E+01 0.  0.
         21    1    1    2  502  501  0.42997168102E+02 -0.15811774599E+02  0.81693923665E+02  0.93662510347E+02  0.00000000000E+00 0.  1.
<mgrwt>
<rscale>  1 0.13313030E+03</rscale>
<asrwt>0</asrwt>
<pdfrwt beam="2">  1        4 0.36075196E-02 0.13313030E+03</pdfrwt>
<pdfrwt beam="1">  1       -4 0.52521085E-01 0.13313030E+03</pdfrwt>
<totfact> 0.23122616E+03</totfact>
</mgrwt>
</event>
<event>
 6    4  0.1195577E-003  0.1378177E+03  0.7818608E-02  0.1216296E+00
          4   -1    0    0  502    0  0.00000000000E+00  0.00000000000E+00  0.37416198080E+02  0.37437745375E+02  0.12700000000E+01 0.  1.
         -4   -1    0    0    0  501 -0.00000000000E+00 -0.00000000000E+00 -0.40137493810E+03  0.40137694731E+03  0.12700000000E+01 0.  1.
         25    2    1    2    0    0  0.23626354429E+02  0.53020638663E+02 -0.35405101002E+03  0.37992873628E+03  0.12499733682E+03 0.  0.
    9000005    1    3    3    0    0  0.64710533852E+02  0.67536234315E+02 -0.25861286939E+03  0.27500947684E+03  0.10000000000E+01 0.  0.
    9000005    1    3    3    0    0 -0.41084179423E+02 -0.14515595653E+02 -0.95438140625E+02  0.10491925944E+03  0.10000000000E+01 0.  0.
         21    1    1    2  502  501 -0.23626354429E+02 -0.53020638663E+02 -0.99077300018E+01  0.58885956404E+02  0.00000000000E+00 0.  1.
<mgrwt>
<rscale>  1 0.13781773E+03</rscale>
<asrwt>0</asrwt>
<pdfrwt beam="1">  1        4 0.57581505E-02 0.13781773E+03</pdfrwt>
<pdfrwt beam="2">  1       -4 0.61751799E-01 0.13781773E+03</pdfrwt>
<totfact> 0.78706508E+02</totfact>
</mgrwt>
</event>
<event>
 6    4  0.1195577E-003  0.1270760E+03  0.7818608E-02  0.1231860E+00
         -4   -1    0    0    0  501 -0.00000000000E+00  0.00000000000E+00  0.27755702592E+02  0.27784742691E+02  0.12700000000E+01 0. -1.
          4   -1    0    0  502    0  0.00000000000E+00 -0.00000000000E+00 -0.47561442071E+03  0.47561611630E+03  0.12700000000E+01 0. -1.
         25    2    1    2    0    0 -0.22300981577E+02  0.50828346799E+01 -0.12011424453E+03  0.17485921938E+03  0.12500058351E+03 0.  0.
    9000005    1    3    3    0    0  0.48796843882E+02  0.18127387398E+02 -0.68464800858E+02  0.86012575262E+02  0.10000000000E+01 0.  0.
    9000005    1    3    3    0    0 -0.71097825459E+02 -0.13044552718E+02 -0.51649443669E+02  0.88846644122E+02  0.10000000000E+01 0.  0.
         21    1    1    2  502  501  0.22300981577E+02 -0.50828346799E+01 -0.32774447359E+03  0.32854163960E+03  0.00000000000E+00 0. -1.
<mgrwt>
<rscale>  1 0.12707602E+03</rscale>
<asrwt>0</asrwt>
<pdfrwt beam="2">  1        4 0.73173808E-01 0.12707602E+03</pdfrwt>
<pdfrwt beam="1">  1       -4 0.42724727E-02 0.12707602E+03</pdfrwt>
<totfact> 0.86910293E+02</totfact>
</mgrwt>
</event>
<event>
 6    4  0.1195577E-003  0.1268526E+03  0.7818608E-02  0.1232202E+00
          4   -1    0    0  502    0  0.00000000000E+00  0.00000000000E+00  0.69762072910E+02  0.69773631959E+02  0.12700000000E+01 0. -1.
         -4   -1    0    0    0  501 -0.00000000000E+00 -0.00000000000E+00 -0.78837353143E+02  0.78847581767E+02  0.12700000000E+01 0. -1.
         25    2    1    2    0    0 -0.20368137272E+02 -0.64431641958E+01 -0.99346125473E+01  0.12724099313E+03  0.12504078705E+03 0.  0.
    9000005    1    3    3    0    0 -0.13414885024E+02  0.38346438515E+02 -0.51589978848E+02  0.65672935099E+02  0.10000000000E+01 0.  0.
    9000005    1    3    3    0    0 -0.69532522478E+01 -0.44789602711E+02  0.41655366301E+02  0.61568058029E+02  0.10000000000E+01 0.  0.
         21    1    1    2  502  501  0.20368137272E+02  0.64431641958E+01  0.85933231482E+00  0.21380220598E+02  0.00000000000E+00 0. -1.
<mgrwt>
<rscale>  1 0.12685257E+03</rscale>
<asrwt>0</asrwt>
<pdfrwt beam="1">  1        4 0.10734303E-01 0.12685257E+03</pdfrwt>
<pdfrwt beam="2">  1       -4 0.12130500E-01 0.12685257E+03</pdfrwt>
<totfact> 0.58824188E+03</totfact>
</mgrwt>
</event>
<event>
 6    4  0.1195577E-003  0.1405122E+03  0.7818608E-02  0.1212641E+00
          4   -1    0    0  502    0  0.00000000000E+00  0.00000000000E+00  0.23767670409E+03  0.23768009712E+03  0.12700000000E+01 0. -1.
         -4   -1    0    0    0  501 -0.00000000000E+00 -0.00000000000E+00 -0.51396578493E+02  0.51412266832E+02  0.12700000000E+01 0. -1.
         25    2    1    2    0    0 -0.99587423704E+00  0.64155688020E+02  0.71648295010E+02  0.15772493780E+03  0.12500693483E+03 0.  0.
    9000005    1    3    3    0    0  0.54884150847E+02  0.60419146926E+02  0.26639252898E+02  0.85868464085E+02  0.10000000000E+01 0.  0.
    9000005    1    3    3    0    0 -0.55880025084E+02  0.37365410941E+01  0.45009042112E+02  0.71856473713E+02  0.10000000000E+01 0.  0.
         21    1    1    2  502  501  0.99587423704E+00 -0.64155688020E+02  0.11463183059E+03  0.13136742616E+03  0.00000000000E+00 0. -1.
<mgrwt>
<rscale>  1 0.14051220E+03</rscale>
<asrwt>0</asrwt>
<pdfrwt beam="1">  1        4 0.36567114E-01 0.14051220E+03</pdfrwt>
<pdfrwt beam="2">  1       -4 0.79086338E-02 0.14051220E+03</pdfrwt>
<totfact> 0.13563255E+03</totfact>
</mgrwt>
</event>
<event>
 6    4  0.1195577E-003  0.1268522E+03  0.7818608E-02  0.1232203E+00
          4   -1    0    0  502    0  0.00000000000E+00  0.00000000000E+00  0.35080180845E+02  0.35103162082E+02  0.12700000000E+01 0.  1.
         -4   -1    0    0    0  501 -0.00000000000E+00 -0.00000000000E+00 -0.28117223479E+03  0.28117510294E+03  0.12700000000E+01 0.  1.
         25    2    1    2    0    0  0.16215155745E+02 -0.14260319086E+02 -0.26089391958E+03  0.29009844068E+03  0.12500072013E+03 0.  0.
    9000005    1    3    3    0    0 -0.12874378525E+02 -0.56525985522E+02 -0.62837297172E+02  0.85501243134E+02  0.10000000000E+01 0.  0.
    9000005    1    3    3    0    0  0.29089534270E+02  0.42265666435E+02 -0.19805662241E+03  0.20459719755E+03  0.10000000000E+01 0.  0.
         21    1    1    2  502  501 -0.16215155745E+02  0.14260319086E+02  0.14801865640E+02  0.26179824344E+02  0.00000000000E+00 0.  1.
<mgrwt>
<rscale>  1 0.12685215E+03</rscale>
<asrwt>0</asrwt>
<pdfrwt beam="1">  1        4 0.53989395E-02 0.12685215E+03</pdfrwt>
<pdfrwt beam="2">  1       -4 0.43259254E-01 0.12685215E+03</pdfrwt>
<totfact> 0.17783323E+03</totfact>
</mgrwt>
</event>
<event>
 6    4  0.1195577E-003  0.1299572E+03  0.7818608E-02  0.1227519E+00
          4   -1    0    0  502    0  0.00000000000E+00  0.00000000000E+00  0.35314858804E+03  0.35315087163E+03  0.12700000000E+01 0. -1.
         -4   -1    0    0    0  501 -0.00000000000E+00 -0.00000000000E+00 -0.32326621616E+02  0.32351558929E+02  0.12700000000E+01 0. -1.
         25    2    1    2    0    0 -0.31543925073E+02 -0.16394691864E+02  0.10584757248E+03  0.16760843069E+03  0.12500028923E+03 0.  0.
    9000005    1    3    3    0    0 -0.21185214725E+01 -0.68342549864E+02  0.70513205883E+02  0.98225783067E+02  0.10000000000E+01 0.  0.
    9000005    1    3    3    0    0 -0.29425403601E+02  0.51947858001E+02  0.35334366600E+02  0.69382647621E+02  0.10000000000E+01 0.  0.
         21    1    1    2  502  501  0.31543925073E+02  0.16394691864E+02  0.21497439394E+03  0.21789399987E+03  0.00000000000E+00 0. -1.
<mgrwt>
<rscale>  1 0.12995721E+03</rscale>
<asrwt>0</asrwt>
<pdfrwt beam="1">  1        4 0.54332644E-01 0.12995721E+03</pdfrwt>
<pdfrwt beam="2">  1       -4 0.49754205E-02 0.12995721E+03</pdfrwt>
<totfact> 0.12854304E+03</totfact>
</mgrwt>
</event>
<event>
 6    4  0.1195577E-003  0.1304147E+03  0.7818608E-02  0.1226842E+00
         -4   -1    0    0    0  501 -0.00000000000E+00  0.00000000000E+00  0.17173475703E+03  0.17173945287E+03  0.12700000000E+01 0. -1.
          4   -1    0    0  502    0  0.00000000000E+00 -0.00000000000E+00 -0.40942409344E+02  0.40962101788E+02  0.12700000000E+01 0. -1.
         25    2    1    2    0    0 -0.36142798747E+02  0.87370271893E+01  0.98138201399E+02  0.16321488155E+03  0.12500141376E+03 0.  0.
    9000005    1    3    3    0    0 -0.20155858760E+02 -0.22927508815E+01 -0.28552885365E+02  0.35039729047E+02  0.10000000000E+01 0.  0.
    9000005    1    3    3    0    0 -0.15986939986E+02  0.11029778071E+02  0.12669108676E+03  0.12817515251E+03  0.10000000000E+01 0.  0.
         21    1    1    2  502  501  0.36142798747E+02 -0.87370271893E+01  0.32654146290E+02  0.49486673108E+02  0.00000000000E+00 0. -1.
<mgrwt>
<rscale>  1 0.13041469E+03</rscale>
<asrwt>0</asrwt>
<pdfrwt beam="2">  1        4 0.63007083E-02 0.13041469E+03</pdfrwt>
<pdfrwt beam="1">  1       -4 0.26422608E-01 0.13041469E+03</pdfrwt>
<totfact> 0.35912090E+03</totfact>
</mgrwt>
</event>
<event>
 6    4  0.1195577E-003  0.1267786E+03  0.7818608E-02  0.1232315E+00
          4   -1    0    0  502    0  0.00000000000E+00  0.00000000000E+00  0.42165682347E+01  0.44036743383E+01  0.12700000000E+01 0. -1.
         -4   -1    0    0    0  501 -0.00000000000E+00 -0.00000000000E+00 -0.12746905297E+04  0.12746911623E+04  0.12700000000E+01 0. -1.
         25    2    1    2    0    0  0.15211136141E+02  0.14712594820E+02 -0.10576219911E+04  0.10651934566E+04  0.12499993950E+03 0.  0.
    9000005    1    3    3    0    0 -0.14407328394E+01 -0.37911572534E+02 -0.11804136506E+03  0.12399244698E+03  0.10000000000E+01 0.  0.
    9000005    1    3    3    0    0  0.16651868980E+02  0.52624167354E+02 -0.93958062606E+03  0.94120100966E+03  0.10000000000E+01 0.  0.
         21    1    1    2  502  501 -0.15211136141E+02 -0.14712594820E+02 -0.21285197030E+03  0.21390138001E+03  0.00000000000E+00 0. -1.
<mgrwt>
<rscale>  1 0.12677864E+03</rscale>
<asrwt>0</asrwt>
<pdfrwt beam="1">  1        4 0.66314526E-03 0.12677864E+03</pdfrwt>
<pdfrwt beam="2">  1       -4 0.19612038E+00 0.12677864E+03</pdfrwt>
<totfact> 0.13772286E+03</totfact>
</mgrwt>
</event>
<event>
 6    4  0.1195577E-003  0.1350474E+03  0.7818608E-02  0.1220153E+00
         -4   -1    0    0    0  501 -0.00000000000E+00  0.00000000000E+00  0.14395395491E+03  0.14395955694E+03  0.12700000000E+01 0.  1.
          4   -1    0    0  502    0  0.00000000000E+00 -0.00000000000E+00 -0.60708676628E+02  0.60721959108E+02  0.12700000000E+01 0.  1.
         25    2    1    2    0    0 -0.15683475669E+02  0.48650935017E+02  0.68803240750E+02  0.15156412403E+03  0.12499965147E+03 0.  0.
    9000005    1    3    3    0    0  0.25984816218E+02  0.47767696103E+02  0.89723188874E+02  0.10492003663E+03  0.10000000000E+01 0.  0.
    9000005    1    3    3    0    0 -0.41668291887E+02  0.88323891400E+00 -0.20919948124E+02  0.46644087399E+02  0.10000000000E+01 0.  0.
         21    1    1    2  502  501  0.15683475669E+02 -0.48650935017E+02  0.14442037537E+02  0.53117392023E+02  0.00000000000E+00 0.  1.
<mgrwt>
<rscale>  1 0.13504739E+03</rscale>
<asrwt>0</asrwt>
<pdfrwt beam="2">  1        4 0.93412491E-02 0.13504739E+03</pdfrwt>
<pdfrwt beam="1">  1       -4 0.22148215E-01 0.13504739E+03</pdfrwt>
<totfact> 0.26136149E+03</totfact>
</mgrwt>
</event>
<event>
 6    4  0.1195577E-003  0.1277504E+03  0.7818608E-02  0.1230832E+00
         -4   -1    0    0    0  501 -0.00000000000E+00  0.00000000000E+00  0.21918369614E+02  0.21955132123E+02  0.12700000000E+01 0.  1.
          4   -1    0    0  502    0  0.00000000000E+00 -0.00000000000E+00 -0.29931654712E+03  0.29931924141E+03  0.12700000000E+01 0.  1.
         25    2    1    2    0    0 -0.20360497662E+02  0.16726162780E+02 -0.18238916509E+03  0.22267910577E+03  0.12500344882E+03 0.  0.
    9000005    1    3    3    0    0 -0.49044249258E+02  0.29043737482E+02 -0.18275945050E+03  0.19144423162E+03  0.10000000000E+01 0.  0.
    9000005    1    3    3    0    0  0.28683751597E+02 -0.12317574702E+02  0.37028540415E+00  0.31234874155E+02  0.10000000000E+01 0.  0.
         21    1    1    2  502  501  0.20360497662E+02 -0.16726162780E+02 -0.95009012413E+02  0.98595267767E+02  0.00000000000E+00 0. -1.
<mgrwt>
<rscale>  1 0.12775045E+03</rscale>
<asrwt>0</asrwt>
<pdfrwt beam="2">  1        4 0.46051732E-01 0.12775045E+03</pdfrwt>
<pdfrwt beam="1">  1       -4 0.33750922E-02 0.12775045E+03</pdfrwt>
<totfact> 0.33209319E+03</totfact>
</mgrwt>
</event>
<event>
 6    4  0.1195577E-003  0.1282673E+03  0.7818608E-02  0.1230050E+00
          4   -1    0    0  502    0  0.00000000000E+00  0.00000000000E+00  0.70758605224E+02  0.70770001506E+02  0.12700000000E+01 0. -1.
         -4   -1    0    0    0  501 -0.00000000000E+00 -0.00000000000E+00 -0.87881530156E+02  0.87890706235E+02  0.12700000000E+01 0. -1.
         25    2    1    2    0    0  0.25424383569E+02 -0.13450494623E+02 -0.19745753256E+02  0.12977828551E+03  0.12500077413E+03 0.  0.
    9000005    1    3    3    0    0  0.31970115908E+02  0.50056142427E+02  0.84097580492E+01  0.59995247614E+02  0.10000000000E+01 0.  0.
    9000005    1    3    3    0    0 -0.65457323395E+01 -0.63506637050E+02 -0.28155511306E+02  0.69783037897E+02  0.10000000000E+01 0.  0.
         21    1    1    2  502  501 -0.25424383569E+02  0.13450494623E+02  0.26228283242E+01  0.28882422230E+02  0.00000000000E+00 0.  1.
<mgrwt>
<rscale>  1 0.12826733E+03</rscale>
<asrwt>0</asrwt>
<pdfrwt beam="1">  1        4 0.10887522E-01 0.12826733E+03</pdfrwt>
<pdfrwt beam="2">  1       -4 0.13521818E-01 0.12826733E+03</pdfrwt>
<totfact> 0.47789398E+03</totfact>
</mgrwt>
</event>
<event>
 6    4  0.1195577E-003  0.1281945E+03  0.7818608E-02  0.1230160E+00
          4   -1    0    0  502    0  0.00000000000E+00  0.00000000000E+00  0.28418134497E+03  0.28418418276E+03  0.12700000000E+01 0. -1.
         -4   -1    0    0    0  501 -0.00000000000E+00 -0.00000000000E+00 -0.23771871961E+02  0.23805772336E+02  0.12700000000E+01 0. -1.
         25    2    1    2    0    0  0.28084795358E+02 -0.43477204200E+01  0.16809216369E+03  0.21139728455E+03  0.12500471198E+03 0.  0.
    9000005    1    3    3    0    0  0.13987650712E+02 -0.22925510273E+02 -0.12261446074E+02  0.29539405098E+02  0.10000000000E+01 0.  0.
    9000005    1    3    3    0    0  0.14097144646E+02  0.18577789853E+02  0.18035360976E+03  0.18185787945E+03  0.10000000000E+01 0.  0.
         21    1    1    2  502  501 -0.28084795358E+02  0.43477204200E+01  0.92317309325E+02  0.96592670551E+02  0.00000000000E+00 0.  1.
<mgrwt>
<rscale>  1 0.12819453E+03</rscale>
<asrwt>0</asrwt>
<pdfrwt beam="1">  1        4 0.43723035E-01 0.12819453E+03</pdfrwt>
<pdfrwt beam="2">  1       -4 0.36600369E-02 0.12819453E+03</pdfrwt>
<totfact> 0.32450067E+03</totfact>
</mgrwt>
</event>
<event>
 6    4  0.1195577E-003  0.1295398E+03  0.7818608E-02  0.1228140E+00
         -4   -1    0    0    0  501 -0.00000000000E+00  0.00000000000E+00  0.10993078968E+03  0.10993812541E+03  0.12700000000E+01 0. -1.
          4   -1    0    0  502    0  0.00000000000E+00 -0.00000000000E+00 -0.73079181885E+02  0.73090216343E+02  0.12700000000E+01 0. -1.
         25    2    1    2    0    0  0.29551030346E+02  0.16812437278E+02  0.59112853219E+02  0.14238988103E+03  0.12499850944E+03 0.  0.
    9000005    1    3    3    0    0 -0.41375139653E+02  0.65960467663E+01 -0.97206971214E+01  0.43022110208E+02  0.10000000000E+01 0.  0.
    9000005    1    3    3    0    0  0.70926169999E+02  0.10216390512E+02  0.68833550340E+02  0.99367770823E+02  0.10000000000E+01 0.  0.
         21    1    1    2  502  501 -0.29551030346E+02 -0.16812437278E+02 -0.22261245429E+02  0.40638460722E+02  0.00000000000E+00 0.  1.
<mgrwt>
<rscale>  1 0.12953976E+03</rscale>
<asrwt>0</asrwt>
<pdfrwt beam="2">  1        4 0.11244364E-01 0.12953976E+03</pdfrwt>
<pdfrwt beam="1">  1       -4 0.16913842E-01 0.12953976E+03</pdfrwt>
<totfact> 0.30685012E+03</totfact>
</mgrwt>
</event>
<event>
 6    4  0.1195577E-003  0.1279319E+03  0.7818608E-02  0.1230557E+00
          4   -1    0    0  502    0  0.00000000000E+00  0.00000000000E+00  0.86721788328E+02  0.86731087107E+02  0.12700000000E+01 0. -1.
         -4   -1    0    0    0  501 -0.00000000000E+00 -0.00000000000E+00 -0.78530263237E+02  0.78540531855E+02  0.12700000000E+01 0. -1.
         25    2    1    2    0    0 -0.16728155150E+02 -0.21489347296E+02 -0.15894644696E+02  0.12891550810E+03  0.12499978111E+03 0.  0.
    9000005    1    3    3    0    0 -0.60246376999E+02  0.13816500378E+02  0.16758517639E+02  0.64049742682E+02  0.10000000000E+01 0.  0.
    9000005    1    3    3    0    0  0.43518221849E+02 -0.35305847674E+02 -0.32653162335E+02  0.64865765419E+02  0.10000000000E+01 0.  0.
         21    1    1    2  502  501  0.16728155150E+02  0.21489347296E+02  0.24086169787E+02  0.36356110861E+02  0.00000000000E+00 0. -1.
<mgrwt>
<rscale>  1 0.12793189E+03</rscale>
<asrwt>0</asrwt>
<pdfrwt beam="1">  1        4 0.13343319E-01 0.12793189E+03</pdfrwt>
<pdfrwt beam="2">  1       -4 0.12083084E-01 0.12793189E+03</pdfrwt>
<totfact> 0.40926510E+03</totfact>
</mgrwt>
</event>
<event>
 6    4  0.1195577E-003  0.1557374E+03  0.7818608E-02  0.1193595E+00
          4   -1    0    0  502    0  0.00000000000E+00  0.00000000000E+00  0.92756246771E+01  0.93621639138E+01  0.12700000000E+01 0. -1.
         -4   -1    0    0    0  501 -0.00000000000E+00 -0.00000000000E+00 -0.16630088125E+04  0.16630092974E+04  0.12700000000E+01 0. -1.
         25    2    1    2    0    0  0.75209235259E+02 -0.54523921945E+02 -0.10782963124E+04  0.10894847787E+04  0.12499943479E+03 0.  0.
    9000005    1    3    3    0    0 -0.14820967790E+02  0.17076470032E+02 -0.46138858487E+03  0.46194338740E+03  0.10000000000E+01 0.  0.
    9000005    1    3    3    0    0  0.90030203049E+02 -0.71600391976E+02 -0.61690772750E+03  0.62754139133E+03  0.10000000000E+01 0.  0.
         21    1    1    2  502  501 -0.75209235259E+02  0.54523921945E+02 -0.57543687541E+03  0.58288668257E+03  0.00000000000E+00 0.  1.
<mgrwt>
<rscale>  1 0.15573743E+03</rscale>
<asrwt>0</asrwt>
<pdfrwt beam="1">  1        4 0.14337147E-02 0.15573743E+03</pdfrwt>
<pdfrwt beam="2">  1       -4 0.25585397E+00 0.15573743E+03</pdfrwt>
<totfact> 0.19679427E+02</totfact>
</mgrwt>
</event>
<event>
 6    4  0.1195577E-003  0.1266191E+03  0.7818608E-02  0.1232560E+00
         -4   -1    0    0    0  501 -0.00000000000E+00  0.00000000000E+00  0.51970969188E+03  0.51971124361E+03  0.12700000000E+01 0. -1.
          4   -1    0    0  502    0  0.00000000000E+00 -0.00000000000E+00 -0.10455394816E+02  0.10532244811E+02  0.12700000000E+01 0. -1.
         25    2    1    2    0    0  0.17903540487E+02  0.93536308217E+01  0.41680407404E+03  0.43561225199E+03  0.12499748307E+03 0.  0.
    9000005    1    3    3    0    0 -0.50827798976E+02  0.48304451640E+01  0.11157411898E+03  0.12270526629E+03  0.10000000000E+01 0.  0.
    9000005    1    3    3    0    0  0.68731339463E+02  0.45231856577E+01  0.30522995506E+03  0.31290698570E+03  0.10000000000E+01 0.  0.
         21    1    1    2  502  501 -0.17903540487E+02 -0.93536308217E+01  0.92450223019E+02  0.94631236427E+02  0.00000000000E+00 0. -1.
<mgrwt>
<rscale>  1 0.12661911E+03</rscale>
<asrwt>0</asrwt>
<pdfrwt beam="2">  1        4 0.16145530E-02 0.12661911E+03</pdfrwt>
<pdfrwt beam="1">  1       -4 0.79961378E-01 0.12661911E+03</pdfrwt>
<totfact> 0.32520432E+03</totfact>
</mgrwt>
</event>
<event>
 6    4  0.1195577E-003  0.1276065E+03  0.7818608E-02  0.1231051E+00
         -4   -1    0    0    0  501 -0.00000000000E+00  0.00000000000E+00  0.15282621229E+02  0.15335299529E+02  0.12700000000E+01 0. -1.
          4   -1    0    0  502    0  0.00000000000E+00 -0.00000000000E+00 -0.38390253060E+03  0.38390463126E+03  0.12700000000E+01 0. -1.
         25    2    1    2    0    0 -0.24598362315E+02 -0.72743474608E+01 -0.30204324410E+03  0.32789255580E+03  0.12500164511E+03 0.  0.
    9000005    1    3    3    0    0 -0.19599552021E+02 -0.22380705772E+02 -0.30904807113E+03  0.31047825801E+03  0.10000000000E+01 0.  0.
    9000005    1    3    3    0    0 -0.49988102944E+01  0.15106358311E+02  0.70048270237E+01  0.17414297787E+02  0.10000000000E+01 0.  0.
         21    1    1    2  502  501  0.24598362315E+02  0.72743474608E+01 -0.66576665265E+02  0.71347374986E+02  0.00000000000E+00 0.  1.
<mgrwt>
<rscale>  1 0.12760645E+03</rscale>
<asrwt>0</asrwt>
<pdfrwt beam="2">  1        4 0.59066134E-01 0.12760645E+03</pdfrwt>
<pdfrwt beam="1">  1       -4 0.23553865E-02 0.12760645E+03</pdfrwt>
<totfact> 0.34949448E+03</totfact>
</mgrwt>
</event>
<event>
 6    4  0.1195577E-003  0.1286475E+03  0.7818608E-02  0.1229476E+00
         -4   -1    0    0    0  501 -0.00000000000E+00  0.00000000000E+00  0.96791234493E+01  0.97620863932E+01  0.12700000000E+01 0. -1.
          4   -1    0    0  502    0  0.00000000000E+00 -0.00000000000E+00 -0.88685751628E+03  0.88685842562E+03  0.12700000000E+01 0. -1.
         25    2    1    2    0    0  0.16146176309E+02 -0.25775165545E+02 -0.44095504227E+03  0.45933814357E+03  0.12500049068E+03 0.  0.
    9000005    1    3    3    0    0  0.42164706267E+02 -0.67180140508E+02 -0.25454700832E+03  0.26661997895E+03  0.10000000000E+01 0.  0.
    9000005    1    3    3    0    0 -0.26018529958E+02  0.41404974963E+02 -0.18640803395E+03  0.19271816462E+03  0.10000000000E+01 0.  0.
         21    1    1    2  502  501 -0.16146176309E+02  0.25775165545E+02 -0.43622335057E+03  0.43728236844E+03  0.00000000000E+00 0. -1.
<mgrwt>
<rscale>  1 0.12864751E+03</rscale>
<asrwt>0</asrwt>
<pdfrwt beam="2">  1        4 0.13644601E+00 0.12864751E+03</pdfrwt>
<pdfrwt beam="1">  1       -4 0.14955483E-02 0.12864751E+03</pdfrwt>
<totfact> 0.10551746E+03</totfact>
</mgrwt>
</event>
<event>
 6    4  0.1195577E-003  0.1278950E+03  0.7818608E-02  0.1230613E+00
          4   -1    0    0  502    0  0.00000000000E+00  0.00000000000E+00  0.86757664171E+02  0.86766959105E+02  0.12700000000E+01 0. -1.
         -4   -1    0    0    0  501 -0.00000000000E+00 -0.00000000000E+00 -0.70498971401E+02  0.70510409648E+02  0.12700000000E+01 0. -1.
         25    2    1    2    0    0 -0.26095510253E+02  0.75273924403E+01  0.53435739316E+01  0.12800661353E+03  0.12497800619E+03 0.  0.
    9000005    1    3    3    0    0 -0.66368538809E+02  0.15925648494E+01 -0.31138305619E+02  0.73334257228E+02  0.10000000000E+01 0.  0.
    9000005    1    3    3    0    0  0.40273028556E+02  0.59348275909E+01  0.36481879550E+02  0.54672356297E+02  0.10000000000E+01 0.  0.
         21    1    1    2  502  501  0.26095510253E+02 -0.75273924403E+01  0.10915118838E+02  0.29270755227E+02  0.00000000000E+00 0.  1.
<mgrwt>
<rscale>  1 0.12789503E+03</rscale>
<asrwt>0</asrwt>
<pdfrwt beam="1">  1        4 0.13348928E-01 0.12789503E+03</pdfrwt>
<pdfrwt beam="2">  1       -4 0.10847590E-01 0.12789503E+03</pdfrwt>
<totfact> 0.49131926E+03</totfact>
</mgrwt>
</event>
<event>
 6    4  0.1195577E-003  0.1303092E+03  0.7818608E-02  0.1226998E+00
         -4   -1    0    0    0  501 -0.00000000000E+00  0.00000000000E+00  0.10510805190E+02  0.10587252984E+02  0.12700000000E+01 0.  1.
          4   -1    0    0  502    0  0.00000000000E+00 -0.00000000000E+00 -0.67283584942E+03  0.67283704800E+03  0.12700000000E+01 0.  1.
         25    2    1    2    0    0  0.22998627080E+02  0.28779572305E+02 -0.47737034937E+03  0.49483628498E+03  0.12499319121E+03 0.  0.
    9000005    1    3    3    0    0  0.23005255327E+02 -0.15938715536E+02 -0.17994535011E+02  0.33287951512E+02  0.10000000000E+01 0.  0.
    9000005    1    3    3    0    0 -0.66282470861E-02  0.44718287842E+02 -0.45937581436E+03  0.46154833347E+03  0.10000000000E+01 0.  0.
         21    1    1    2  502  501 -0.22998627080E+02 -0.28779572305E+02 -0.18495469485E+03  0.18858801600E+03  0.00000000000E+00 0.  1.
<mgrwt>
<rscale>  1 0.13030924E+03</rscale>
<asrwt>0</asrwt>
<pdfrwt beam="2">  1        4 0.10351915E+00 0.13030924E+03</pdfrwt>
<pdfrwt beam="1">  1       -4 0.16230203E-02 0.13030924E+03</pdfrwt>
<totfact> 0.18101442E+03</totfact>
</mgrwt>
</event>
<event>
 6    4  0.1195577E-003  0.1272078E+03  0.7818608E-02  0.1231659E+00
         -4   -1    0    0    0  501 -0.00000000000E+00  0.00000000000E+00  0.38308670550E+02  0.38329716139E+02  0.12700000000E+01 0. -1.
          4   -1    0    0  502    0  0.00000000000E+00 -0.00000000000E+00 -0.17639989136E+03  0.17640446302E+03  0.12700000000E+01 0. -1.
         25    2    1    2    0    0  0.22955357833E+02 -0.54897277951E+01 -0.75700899610E+02  0.14802857411E+03  0.12499898795E+03 0.  0.
    9000005    1    3    3    0    0  0.71512191559E+02  0.15011198361E+02 -0.54702760760E+02  0.91283742542E+02  0.10000000000E+01 0.  0.
    9000005    1    3    3    0    0 -0.48556833726E+02 -0.20500926156E+02 -0.20998138850E+02  0.56744831570E+02  0.10000000000E+01 0.  0.
         21    1    1    2  502  501 -0.22955357833E+02  0.54897277951E+01 -0.62390321206E+02  0.66705605047E+02  0.00000000000E+00 0. -1.
<mgrwt>
<rscale>  1 0.12720783E+03</rscale>
<asrwt>0</asrwt>
<pdfrwt beam="2">  1        4 0.27140415E-01 0.12720783E+03</pdfrwt>
<pdfrwt beam="1">  1       -4 0.58956123E-02 0.12720783E+03</pdfrwt>
<totfact> 0.37829975E+03</totfact>
</mgrwt>
</event>
<event>
 6    4  0.1195577E-003  0.1278822E+03  0.7818608E-02  0.1230632E+00
          4   -1    0    0  502    0  0.00000000000E+00  0.00000000000E+00  0.98658633545E+02  0.98666807351E+02  0.12700000000E+01 0.  1.
         -4   -1    0    0    0  501 -0.00000000000E+00 -0.00000000000E+00 -0.62681938067E+02  0.62694802495E+02  0.12700000000E+01 0.  1.
         25    2    1    2    0    0 -0.81205987261E+01 -0.25741931593E+02  0.18520275765E+02  0.12921634962E+03  0.12500109291E+03 0.  0.
    9000005    1    3    3    0    0  0.47453923458E+02 -0.29323637225E+02  0.40912315417E+02  0.69185028037E+02  0.10000000000E+01 0.  0.
    9000005    1    3    3    0    0 -0.55574522184E+02  0.35817056323E+01 -0.22392039652E+02  0.60031321583E+02  0.10000000000E+01 0.  0.
         21    1    1    2  502  501  0.81205987261E+01  0.25741931593E+02  0.17456419712E+02  0.32145260226E+02  0.00000000000E+00 0.  1.
<mgrwt>
<rscale>  1 0.12788223E+03</rscale>
<asrwt>0</asrwt>
<pdfrwt beam="1">  1        4 0.15179869E-01 0.12788223E+03</pdfrwt>
<pdfrwt beam="2">  1       -4 0.96449935E-02 0.12788223E+03</pdfrwt>
<totfact> 0.47920330E+03</totfact>
</mgrwt>
</event>
<event>
 6    4  0.1195577E-003  0.1340444E+03  0.7818608E-02  0.1221575E+00
         -4   -1    0    0    0  501 -0.00000000000E+00  0.00000000000E+00  0.23776201431E+02  0.23810095642E+02  0.12700000000E+01 0.  1.
          4   -1    0    0  502    0  0.00000000000E+00 -0.00000000000E+00 -0.37998327720E+03  0.37998539953E+03  0.12700000000E+01 0.  1.
         25    2    1    2    0    0  0.11577378810E+02 -0.46998179400E+02 -0.20417702228E+03  0.24424612434E+03  0.12500019305E+03 0.  0.
    9000005    1    3    3    0    0 -0.49651047921E+02  0.89817979146E+01 -0.66160781335E+02  0.83211467000E+02  0.10000000000E+01 0.  0.
    9000005    1    3    3    0    0  0.61228426732E+02 -0.55979977315E+02 -0.13801624094E+03  0.16103465734E+03  0.10000000000E+01 0.  0.
         21    1    1    2  502  501 -0.11577378810E+02  0.46998179400E+02 -0.15203005349E+03  0.15954937083E+03  0.00000000000E+00 0.  1.
<mgrwt>
<rscale>  1 0.13404444E+03</rscale>
<asrwt>0</asrwt>
<pdfrwt beam="2">  1        4 0.58461732E-01 0.13404444E+03</pdfrwt>
<pdfrwt beam="1">  1       -4 0.36606479E-02 0.13404444E+03</pdfrwt>
<totfact> 0.18124991E+03</totfact>
</mgrwt>
</event>
<event>
 6    4  0.1195577E-003  0.1324218E+03  0.7818608E-02  0.1223906E+00
         -4   -1    0    0    0  501 -0.00000000000E+00  0.00000000000E+00  0.59497839678E+02  0.59511392408E+02  0.12700000000E+01 0.  1.
          4   -1    0    0  502    0  0.00000000000E+00 -0.00000000000E+00 -0.22123763496E+03  0.22124128010E+03  0.12700000000E+01 0.  1.
         25    2    1    2    0    0  0.29087476609E+02  0.32630135758E+02 -0.21875392061E+02  0.13421647104E+03  0.12499888505E+03 0.  0.
    9000005    1    3    3    0    0  0.63300148387E+02 -0.21635089382E+02 -0.15668179763E+01  0.66921153583E+02  0.10000000000E+01 0.  0.
    9000005    1    3    3    0    0 -0.34212671777E+02  0.54265225140E+02 -0.20308574085E+02  0.67295317452E+02  0.10000000000E+01 0.  0.
         21    1    1    2  502  501 -0.29087476609E+02 -0.32630135758E+02 -0.13986440322E+03  0.14653620147E+03  0.00000000000E+00 0.  1.
<mgrwt>
<rscale>  1 0.13242178E+03</rscale>
<asrwt>0</asrwt>
<pdfrwt beam="2">  1        4 0.34037882E-01 0.13242178E+03</pdfrwt>
<pdfrwt beam="1">  1       -4 0.91548368E-02 0.13242178E+03</pdfrwt>
<totfact> 0.12059278E+03</totfact>
</mgrwt>
</event>
<event>
 6    4  0.1195577E-003  0.1267292E+03  0.7818608E-02  0.1232391E+00
         -4   -1    0    0    0  501 -0.00000000000E+00  0.00000000000E+00  0.10760157549E+03  0.10760907001E+03  0.12700000000E+01 0.  1.
          4   -1    0    0  502    0  0.00000000000E+00 -0.00000000000E+00 -0.65123953834E+02  0.65136335965E+02  0.12700000000E+01 0.  1.
         25    2    1    2    0    0  0.17713743520E+02  0.11026994634E+02  0.64676947311E+02  0.14227933666E+03  0.12499972323E+03 0.  0.
    9000005    1    3    3    0    0 -0.23175639758E+02  0.16874612400E+02 -0.28448086430E+02  0.40399955982E+02  0.10000000000E+01 0.  0.
    9000005    1    3    3    0    0  0.40889383278E+02 -0.58476177658E+01  0.93125033741E+02  0.10187938068E+03  0.10000000000E+01 0.  0.
         21    1    1    2  502  501 -0.17713743520E+02 -0.11026994634E+02 -0.22199325651E+02  0.30466069315E+02  0.00000000000E+00 0. -1.
<mgrwt>
<rscale>  1 0.12672925E+03</rscale>
<asrwt>0</asrwt>
<pdfrwt beam="2">  1        4 0.10020599E-01 0.12672925E+03</pdfrwt>
<pdfrwt beam="1">  1       -4 0.16555617E-01 0.12672925E+03</pdfrwt>
<totfact> 0.38513013E+03</totfact>
</mgrwt>
</event>
<event>
 6    4  0.1195577E-003  0.1272803E+03  0.7818608E-02  0.1231548E+00
          4   -1    0    0  502    0  0.00000000000E+00  0.00000000000E+00  0.23781793363E+03  0.23782132465E+03  0.12700000000E+01 0. -1.
         -4   -1    0    0    0  501 -0.00000000000E+00 -0.00000000000E+00 -0.70447808540E+02  0.70459255092E+02  0.12700000000E+01 0. -1.
         25    2    1    2    0    0  0.88774407566E+01  0.22274550468E+02 -0.11510749284E+02  0.12779974483E+03  0.12500125150E+03 0.  0.
    9000005    1    3    3    0    0  0.59018342487E+00  0.66659083907E+02  0.23464244742E+02  0.70677808151E+02  0.10000000000E+01 0.  0.
    9000005    1    3    3    0    0  0.82872573317E+01 -0.44384533438E+02 -0.34974994026E+02  0.57121936677E+02  0.10000000000E+01 0.  0.
         21    1    1    2  502  501 -0.88774407566E+01 -0.22274550468E+02  0.17888087438E+03  0.18048083491E+03  0.00000000000E+00 0. -1.
<mgrwt>
<rscale>  1 0.12728031E+03</rscale>
<asrwt>0</asrwt>
<pdfrwt beam="1">  1        4 0.36588516E-01 0.12728031E+03</pdfrwt>
<pdfrwt beam="2">  1       -4 0.10839266E-01 0.12728031E+03</pdfrwt>
<totfact> 0.78265267E+02</totfact>
</mgrwt>
</event>
<event>
 6    4  0.1195577E-003  0.1266232E+03  0.7818608E-02  0.1232554E+00
         -4   -1    0    0    0  501 -0.00000000000E+00  0.00000000000E+00  0.54927996498E+02  0.54942676485E+02  0.12700000000E+01 0.  1.
          4   -1    0    0  502    0  0.00000000000E+00 -0.00000000000E+00 -0.98488098578E+02  0.98496286536E+02  0.12700000000E+01 0.  1.
         25    2    1    2    0    0  0.23465066684E+01  0.20031082526E+02 -0.33933961977E+02  0.13109141430E+03  0.12500677888E+03 0.  0.
    9000005    1    3    3    0    0  0.38843510472E+01 -0.47474511036E+02 -0.41441076166E+02  0.63144914086E+02  0.10000000000E+01 0.  0.
    9000005    1    3    3    0    0 -0.15378443788E+01  0.67505593562E+02  0.75071141890E+01  0.67946500211E+02  0.10000000000E+01 0.  0.
         21    1    1    2  502  501 -0.23465066684E+01 -0.20031082526E+02 -0.96261401019E+01  0.22347548724E+02  0.00000000000E+00 0.  1.
<mgrwt>
<rscale>  1 0.12662324E+03</rscale>
<asrwt>0</asrwt>
<pdfrwt beam="2">  1        4 0.15153774E-01 0.12662324E+03</pdfrwt>
<pdfrwt beam="1">  1       -4 0.84522201E-02 0.12662324E+03</pdfrwt>
<totfact> 0.59763767E+03</totfact>
</mgrwt>
</event>
<event>
 6    4  0.1195577E-003  0.1368226E+03  0.7818608E-02  0.1217669E+00
          4   -1    0    0  502    0  0.00000000000E+00  0.00000000000E+00  0.22986977314E+02  0.23022033491E+02  0.12700000000E+01 0. -1.
         -4   -1    0    0    0  501 -0.00000000000E+00 -0.00000000000E+00 -0.47359477070E+03  0.47359647352E+03  0.12700000000E+01 0. -1.
         25    2    1    2    0    0 -0.31823295205E+02  0.45637148751E+02 -0.39470874892E+03  0.41775042325E+03  0.12499979276E+03 0.  0.
    9000005    1    3    3    0    0  0.22325467312E+02 -0.30983129926E+02 -0.16999315840E+03  0.17423276022E+03  0.10000000000E+01 0.  0.
    9000005    1    3    3    0    0 -0.54148762518E+02  0.76620278677E+02 -0.22471559053E+03  0.24351766304E+03  0.10000000000E+01 0.  0.
         21    1    1    2  502  501  0.31823295205E+02 -0.45637148751E+02 -0.55899044460E+02  0.78868083757E+02  0.00000000000E+00 0. -1.
<mgrwt>
<rscale>  1 0.13682258E+03</rscale>
<asrwt>0</asrwt>
<pdfrwt beam="1">  1        4 0.35392860E-02 0.13682258E+03</pdfrwt>
<pdfrwt beam="2">  1       -4 0.72863554E-01 0.13682258E+03</pdfrwt>
<totfact> 0.12008754E+03</totfact>
</mgrwt>
</event>
<event>
 6    4  0.1195577E-003  0.1364998E+03  0.7818608E-02  0.1218118E+00
          4   -1    0    0  502    0  0.00000000000E+00  0.00000000000E+00  0.54271102736E+02  0.54285960360E+02  0.12700000000E+01 0.  1.
         -4   -1    0    0    0  501 -0.00000000000E+00 -0.00000000000E+00 -0.17270425719E+03  0.17270892667E+03  0.12700000000E+01 0.  1.
         25    2    1    2    0    0  0.39949140183E+02  0.37559977474E+02 -0.99762066682E+02  0.16906997678E+03  0.12500200554E+03 0.  0.
    9000005    1    3    3    0    0  0.69957955290E+02  0.44260529594E+02 -0.22326576381E+02  0.85747221536E+02  0.10000000000E+01 0.  0.
    9000005    1    3    3    0    0 -0.30008815107E+02 -0.67005521204E+01 -0.77435490301E+02  0.83322755241E+02  0.10000000000E+01 0.  0.
         21    1    1    2  502  501 -0.39949140183E+02 -0.37559977474E+02 -0.18671087770E+02  0.57924910252E+02  0.00000000000E+00 0.  1.
<mgrwt>
<rscale>  1 0.13649977E+03</rscale>
<asrwt>0</asrwt>
<pdfrwt beam="1">  1        4 0.83509026E-02 0.13649977E+03</pdfrwt>
<pdfrwt beam="2">  1       -4 0.26571388E-01 0.13649977E+03</pdfrwt>
<totfact> 0.22596288E+03</totfact>
</mgrwt>
</event>
<event>
 6    4  0.1195577E-003  0.1321835E+03  0.7818608E-02  0.1224251E+00
          4   -1    0    0  502    0  0.00000000000E+00  0.00000000000E+00  0.34298638612E+01  0.36574398295E+01  0.12700000000E+01 0. -1.
         -4   -1    0    0    0  501 -0.00000000000E+00 -0.00000000000E+00 -0.21644819675E+04  0.21644823401E+04  0.12700000000E+01 0. -1.
         25    2    1    2    0    0  0.20194882662E+02  0.37943309017E+02 -0.16349958389E+04  0.16403304188E+04  0.12499984682E+03 0.  0.
    9000005    1    3    3    0    0  0.64877676344E+02 -0.85951918131E+01 -0.97238698684E+03  0.97458731902E+03  0.10000000000E+01 0.  0.
    9000005    1    3    3    0    0 -0.44682793682E+02  0.46538500831E+02 -0.66260885208E+03  0.66574309983E+03  0.10000000000E+01 0.  0.
         21    1    1    2  502  501 -0.20194882662E+02 -0.37943309017E+02 -0.52605626470E+03  0.52780936105E+03  0.00000000000E+00 0. -1.
<mgrwt>
<rscale>  1 0.13218355E+03</rscale>
<asrwt>0</asrwt>
<pdfrwt beam="1">  1        4 0.54520760E-03 0.13218355E+03</pdfrwt>
<pdfrwt beam="2">  1       -4 0.33301370E+00 0.13218355E+03</pdfrwt>
<totfact> 0.29337181E+02</totfact>
</mgrwt>
</event>
<event>
 6    4  0.1195577E-003  0.1272426E+03  0.7818608E-02  0.1231606E+00
          4   -1    0    0  502    0  0.00000000000E+00  0.00000000000E+00  0.93113083110E+03  0.93113169719E+03  0.12700000000E+01 0. -1.
         -4   -1    0    0    0  501 -0.00000000000E+00 -0.00000000000E+00 -0.60597015603E+01  0.61913555058E+01  0.12700000000E+01 0. -1.
         25    2    1    2    0    0  0.70140324460E+01 -0.22743181713E+02  0.77473002669E+03  0.78510972815E+03  0.12499688802E+03 0.  0.
    9000005    1    3    3    0    0 -0.67399005951E+01  0.50917080571E+02  0.36273368966E+03  0.36635325162E+03  0.10000000000E+01 0.  0.
    9000005    1    3    3    0    0  0.13753933041E+02 -0.73660262284E+02  0.41199633703E+03  0.41875647653E+03  0.10000000000E+01 0.  0.
         21    1    1    2  502  501 -0.70140324460E+01  0.22743181713E+02  0.15034110285E+03  0.15221332455E+03  0.00000000000E+00 0.  1.
<mgrwt>
<rscale>  1 0.12724257E+03</rscale>
<asrwt>0</asrwt>
<pdfrwt beam="1">  1        4 0.14326116E+00 0.12724257E+03</pdfrwt>
<pdfrwt beam="2">  1       -4 0.94245520E-03 0.12724257E+03</pdfrwt>
<totfact> 0.18733162E+03</totfact>
</mgrwt>
</event>
<event>
 6    4  0.1195577E-003  0.1436357E+03  0.7818608E-02  0.1208519E+00
         -4   -1    0    0    0  501 -0.00000000000E+00  0.00000000000E+00  0.72622363045E+02  0.72633466903E+02  0.12700000000E+01 0. -1.
          4   -1    0    0  502    0  0.00000000000E+00 -0.00000000000E+00 -0.15934579908E+03  0.15935086000E+03  0.12700000000E+01 0. -1.
         25    2    1    2    0    0  0.23018020047E+02  0.66905718133E+02 -0.48745963612E+02  0.15168181899E+03  0.12500000352E+03 0.  0.
    9000005    1    3    3    0    0  0.69974976152E+02  0.23735194254E+02 -0.44778569319E+01  0.74033154306E+02  0.10000000000E+01 0.  0.
    9000005    1    3    3    0    0 -0.46956956105E+02  0.43170523879E+02 -0.44268106680E+02  0.77648664687E+02  0.10000000000E+01 0.  0.
         21    1    1    2  502  501 -0.23018020047E+02 -0.66905718133E+02 -0.37977472422E+02  0.80302507914E+02  0.00000000000E+00 0. -1.
<mgrwt>
<rscale>  1 0.14363567E+03</rscale>
<asrwt>0</asrwt>
<pdfrwt beam="2">  1        4 0.24515982E-01 0.14363567E+03</pdfrwt>
<pdfrwt beam="1">  1       -4 0.11173915E-01 0.14363567E+03</pdfrwt>
<totfact> 0.16253395E+03</totfact>
</mgrwt>
</event>
<event>
 6    4  0.1195577E-003  0.1291188E+03  0.7818608E-02  0.1228769E+00
         -4   -1    0    0    0  501 -0.00000000000E+00  0.00000000000E+00  0.14591932205E+03  0.14592484863E+03  0.12700000000E+01 0.  1.
          4   -1    0    0  502    0  0.00000000000E+00 -0.00000000000E+00 -0.46008411926E+02  0.46025936904E+02  0.12700000000E+01 0.  1.
         25    2    1    2    0    0  0.74546368877E+01 -0.31484798400E+02  0.92288094296E+02  0.15870967450E+03  0.12499921716E+03 0.  0.
    9000005    1    3    3    0    0  0.54755413422E+02 -0.10281002158E+02  0.91173007739E+02  0.10685210173E+03  0.10000000000E+01 0.  0.
    9000005    1    3    3    0    0 -0.47300776534E+02 -0.21203796242E+02  0.11150865571E+01  0.51857572772E+02  0.10000000000E+01 0.  0.
         21    1    1    2  502  501 -0.74546368877E+01  0.31484798400E+02  0.76228158295E+01  0.33241111031E+02  0.00000000000E+00 0.  1.
<mgrwt>
<rscale>  1 0.12911882E+03</rscale>
<asrwt>0</asrwt>
<pdfrwt beam="2">  1        4 0.70799905E-02 0.12911882E+03</pdfrwt>
<pdfrwt beam="1">  1       -4 0.22450899E-01 0.12911882E+03</pdfrwt>
<totfact> 0.39943506E+03</totfact>
</mgrwt>
</event>
<event>
 6    4  0.1195577E-003  0.1327130E+03  0.7818608E-02  0.1223485E+00
         -4   -1    0    0    0  501 -0.00000000000E+00  0.00000000000E+00  0.13207884188E+03  0.13208494756E+03  0.12700000000E+01 0.  1.
          4   -1    0    0  502    0  0.00000000000E+00 -0.00000000000E+00 -0.82645344589E+02  0.82655101974E+02  0.12700000000E+01 0.  1.
         25    2    1    2    0    0 -0.25015941179E+02 -0.36910302345E+02  0.85089179517E+02  0.15764805878E+03  0.12499829693E+03 0.  0.
    9000005    1    3    3    0    0 -0.65228465778E+02 -0.57183457783E+02  0.64604834949E+02  0.10816415899E+03  0.10000000000E+01 0.  0.
    9000005    1    3    3    0    0  0.40212524599E+02  0.20273155438E+02  0.20484344568E+02  0.49483899790E+02  0.10000000000E+01 0.  0.
         21    1    1    2  502  501  0.25015941179E+02  0.36910302345E+02 -0.35655682230E+02  0.57091990748E+02  0.00000000000E+00 0.  1.
<mgrwt>
<rscale>  1 0.13271301E+03</rscale>
<asrwt>0</asrwt>
<pdfrwt beam="2">  1        4 0.12715889E-01 0.13271301E+03</pdfrwt>
<pdfrwt beam="1">  1       -4 0.20321042E-01 0.13271301E+03</pdfrwt>
<totfact> 0.18031379E+03</totfact>
</mgrwt>
</event>
<event>
 6    4  0.1195577E-003  0.1435963E+03  0.7818608E-02  0.1208570E+00
         -4   -1    0    0    0  501 -0.00000000000E+00  0.00000000000E+00  0.35894510781E+02  0.35916970977E+02  0.12700000000E+01 0. -1.
          4   -1    0    0  502    0  0.00000000000E+00 -0.00000000000E+00 -0.51314807944E+03  0.51314965101E+03  0.12700000000E+01 0. -1.
         25    2    1    2    0    0 -0.68857185407E+02 -0.15908055665E+02 -0.12682862256E+03  0.19158652315E+03  0.12500207252E+03 0.  0.
    9000005    1    3    3    0    0 -0.74548997699E+02  0.71196171655E+01 -0.13880705232E+02  0.76170309072E+02  0.10000000000E+01 0.  0.
    9000005    1    3    3    0    0  0.56918122913E+01 -0.23027672831E+02 -0.11294791733E+03  0.11541621408E+03  0.10000000000E+01 0.  0.
         21    1    1    2  502  501  0.68857185407E+02  0.15908055665E+02 -0.35042494610E+03  0.35748009884E+03  0.00000000000E+00 0. -1.
<mgrwt>
<rscale>  1 0.14359630E+03</rscale>
<asrwt>0</asrwt>
<pdfrwt beam="2">  1        4 0.78947702E-01 0.14359630E+03</pdfrwt>
<pdfrwt beam="1">  1       -4 0.55240814E-02 0.14359630E+03</pdfrwt>
<totfact> 0.49930468E+02</totfact>
</mgrwt>
</event>
<event>
 6    4  0.1195577E-003  0.1421021E+03  0.7818608E-02  0.1210528E+00
          4   -1    0    0  502    0  0.00000000000E+00  0.00000000000E+00  0.42309692956E+02  0.42328749309E+02  0.12700000000E+01 0.  1.
         -4   -1    0    0    0  501 -0.00000000000E+00 -0.00000000000E+00 -0.29058106381E+03  0.29058383910E+03  0.12700000000E+01 0.  1.
         25    2    1    2    0    0  0.25891897744E+02  0.62426929673E+02 -0.21465792158E+03  0.25743162465E+03  0.12500202461E+03 0.  0.
    9000005    1    3    3    0    0 -0.22345766828E+02  0.67711105602E+02 -0.19010239477E+03  0.20303705971E+03  0.10000000000E+01 0.  0.
    9000005    1    3    3    0    0  0.48237664572E+02 -0.52841759288E+01 -0.24555526805E+02  0.54394564942E+02  0.10000000000E+01 0.  0.
         21    1    1    2  502  501 -0.25891897744E+02 -0.62426929673E+02 -0.33613449277E+02  0.75480963756E+02  0.00000000000E+00 0.  1.
<mgrwt>
<rscale>  1 0.14210214E+03</rscale>
<asrwt>0</asrwt>
<pdfrwt beam="1">  1        4 0.65108631E-02 0.14210214E+03</pdfrwt>
<pdfrwt beam="2">  1       -4 0.44706457E-01 0.14210214E+03</pdfrwt>
<totfact> 0.12595384E+03</totfact>
</mgrwt>
</event>
<event>
 6    4  0.1195577E-003  0.1322688E+03  0.7818608E-02  0.1224128E+00
          4   -1    0    0  502    0  0.00000000000E+00  0.00000000000E+00  0.36889140158E+02  0.36910995131E+02  0.12700000000E+01 0.  1.
         -4   -1    0    0    0  501 -0.00000000000E+00 -0.00000000000E+00 -0.21606472666E+03  0.21606845907E+03  0.12700000000E+01 0.  1.
         25    2    1    2    0    0  0.26450845633E+02 -0.34237989490E+02 -0.15367385964E+03  0.20275769366E+03  0.12499255995E+03 0.  0.
    9000005    1    3    3    0    0  0.62283122265E+02 -0.10410037798E+02 -0.14594830206E+03  0.15902661123E+03  0.10000000000E+01 0.  0.
    9000005    1    3    3    0    0 -0.35832276632E+02 -0.23827951692E+02 -0.77255575784E+01  0.43731082428E+02  0.10000000000E+01 0.  0.
         21    1    1    2  502  501 -0.26450845633E+02  0.34237989490E+02 -0.25501726864E+02  0.50221760543E+02  0.00000000000E+00 0.  1.
<mgrwt>
<rscale>  1 0.13226877E+03</rscale>
<asrwt>0</asrwt>
<pdfrwt beam="1">  1        4 0.56772207E-02 0.13226877E+03</pdfrwt>
<pdfrwt beam="2">  1       -4 0.33242695E-01 0.13226877E+03</pdfrwt>
<totfact> 0.27678785E+03</totfact>
</mgrwt>
</event>
<event>
 6    4  0.1195577E-003  0.1272843E+03  0.7818608E-02  0.1231542E+00
         -4   -1    0    0    0  501 -0.00000000000E+00  0.00000000000E+00  0.19299481168E+03  0.19299899025E+03  0.12700000000E+01 0.  1.
          4   -1    0    0  502    0  0.00000000000E+00 -0.00000000000E+00 -0.29645968639E+02  0.29673158857E+02  0.12700000000E+01 0.  1.
         25    2    1    2    0    0  0.17565376507E+02  0.16045500977E+02  0.14212937838E+03  0.19079321822E+03  0.12504115870E+03 0.  0.
    9000005    1    3    3    0    0 -0.22831160003E+02 -0.41103865179E+02  0.22366366473E+02  0.52077288226E+02  0.10000000000E+01 0.  0.
    9000005    1    3    3    0    0  0.40396536511E+02  0.57149366156E+02  0.11976301191E+03  0.13871593000E+03  0.10000000000E+01 0.  0.
         21    1    1    2  502  501 -0.17565376507E+02 -0.16045500977E+02  0.21219464662E+02  0.31878930879E+02  0.00000000000E+00 0. -1.
<mgrwt>
<rscale>  1 0.12728430E+03</rscale>
<asrwt>0</asrwt>
<pdfrwt beam="2">  1        4 0.45633313E-02 0.12728430E+03</pdfrwt>
<pdfrwt beam="1">  1       -4 0.29693922E-01 0.12728430E+03</pdfrwt>
<totfact> 0.48275106E+03</totfact>
</mgrwt>
</event>
<event>
 6    4  0.1195577E-003  0.1301709E+03  0.7818608E-02  0.1227202E+00
         -4   -1    0    0    0  501 -0.00000000000E+00  0.00000000000E+00  0.19547216630E+03  0.19547629191E+03  0.12700000000E+01 0.  1.
          4   -1    0    0  502    0  0.00000000000E+00 -0.00000000000E+00 -0.58625488084E+02  0.58639242432E+02  0.12700000000E+01 0.  1.
         25    2    1    2    0    0  0.26399526252E+02  0.24940057259E+02  0.16355646527E+03  0.20903389543E+03  0.12500204263E+03 0.  0.
    9000005    1    3    3    0    0 -0.15215566905E+02 -0.17247044228E+02  0.14516483767E+03  0.14697892402E+03  0.10000000000E+01 0.  0.
    9000005    1    3    3    0    0  0.41615093158E+02  0.42187101488E+02  0.18391627605E+02  0.62054971408E+02  0.10000000000E+01 0.  0.
         21    1    1    2  502  501 -0.26399526252E+02 -0.24940057259E+02 -0.26709787056E+02  0.45081638913E+02  0.00000000000E+00 0.  1.
<mgrwt>
<rscale>  1 0.13017086E+03</rscale>
<asrwt>0</asrwt>
<pdfrwt beam="2">  1        4 0.90206813E-02 0.13017086E+03</pdfrwt>
<pdfrwt beam="1">  1       -4 0.30074016E-01 0.13017086E+03</pdfrwt>
<totfact> 0.15588533E+03</totfact>
</mgrwt>
</event>
<event>
 6    4  0.1195577E-003  0.1278456E+03  0.7818608E-02  0.1230688E+00
         -4   -1    0    0    0  501 -0.00000000000E+00  0.00000000000E+00  0.28837015155E+03  0.28837294812E+03  0.12700000000E+01 0. -1.
          4   -1    0    0  502    0  0.00000000000E+00 -0.00000000000E+00 -0.20744280192E+02  0.20783119609E+02  0.12700000000E+01 0. -1.
         25    2    1    2    0    0 -0.16513203437E+02  0.21206603239E+02  0.22397445362E+03  0.25789348703E+03  0.12498835494E+03 0.  0.
    9000005    1    3    3    0    0 -0.24676131759E+02  0.69682447427E+02  0.16702607579E+03  0.18265613855E+03  0.10000000000E+01 0.  0.
    9000005    1    3    3    0    0  0.81629283214E+01 -0.48475844188E+02  0.56948377831E+02  0.75237348479E+02  0.10000000000E+01 0.  0.
         21    1    1    2  502  501  0.16513203437E+02 -0.21206603239E+02  0.43651417744E+02  0.51262580697E+02  0.00000000000E+00 0. -1.
<mgrwt>
<rscale>  1 0.12784559E+03</rscale>
<asrwt>0</asrwt>
<pdfrwt beam="2">  1        4 0.31946307E-02 0.12784559E+03</pdfrwt>
<pdfrwt beam="1">  1       -4 0.44367839E-01 0.12784559E+03</pdfrwt>
<totfact> 0.39014306E+03</totfact>
</mgrwt>
</event>
<event>
 6    4  0.1195577E-003  0.1342830E+03  0.7818608E-02  0.1221235E+00
         -4   -1    0    0    0  501 -0.00000000000E+00  0.00000000000E+00  0.89042036803E+02  0.89051093301E+02  0.12700000000E+01 0. -1.
          4   -1    0    0  502    0  0.00000000000E+00 -0.00000000000E+00 -0.95248653571E+02  0.95257119981E+02  0.12700000000E+01 0. -1.
         25    2    1    2    0    0  0.37299083444E+02  0.32031735183E+02  0.28610188890E+01  0.13431345655E+03  0.12495865515E+03 0.  0.
    9000005    1    3    3    0    0  0.24252768424E+02 -0.60113146321E+01 -0.56968873048E+02  0.62215634499E+02  0.10000000000E+01 0.  0.
    9000005    1    3    3    0    0  0.13046315020E+02  0.38043049815E+02  0.59829891937E+02  0.72097822047E+02  0.10000000000E+01 0.  0.
         21    1    1    2  502  501 -0.37299083444E+02 -0.32031735183E+02 -0.90676356567E+01  0.49994756735E+02  0.00000000000E+00 0. -1.
<mgrwt>
<rscale>  1 0.13428298E+03</rscale>
<asrwt>0</asrwt>
<pdfrwt beam="2">  1        4 0.14654987E-01 0.13428298E+03</pdfrwt>
<pdfrwt beam="1">  1       -4 0.13700123E-01 0.13428298E+03</pdfrwt>
<totfact> 0.28357256E+03</totfact>
</mgrwt>
</event>
<event>
 6    4  0.1195577E-003  0.1331541E+03  0.7818608E-02  0.1222849E+00
         -4   -1    0    0    0  501 -0.00000000000E+00  0.00000000000E+00  0.74946945031E+01  0.76015357458E+01  0.12700000000E+01 0.  1.
          4   -1    0    0  502    0  0.00000000000E+00 -0.00000000000E+00 -0.10728854655E+04  0.10728862172E+04  0.12700000000E+01 0.  1.
         25    2    1    2    0    0 -0.27340521500E+02  0.36847502979E+02 -0.74106499471E+03  0.75293248772E+03  0.12499904833E+03 0.  0.
    9000005    1    3    3    0    0 -0.14435415976E+02 -0.46002426343E+02 -0.22619143700E+03  0.23127509731E+03  0.10000000000E+01 0.  0.
    9000005    1    3    3    0    0 -0.12905105524E+02  0.82849929322E+02 -0.51487355771E+03  0.52165739040E+03  0.10000000000E+01 0.  0.
         21    1    1    2  502  501  0.27340521500E+02 -0.36847502979E+02 -0.32432577633E+03  0.32755526524E+03  0.00000000000E+00 0.  1.
<mgrwt>
<rscale>  1 0.13315406E+03</rscale>
<asrwt>0</asrwt>
<pdfrwt beam="2">  1        4 0.16506746E+00 0.13315406E+03</pdfrwt>
<pdfrwt beam="1">  1       -4 0.11613072E-02 0.13315406E+03</pdfrwt>
<totfact> 0.95992359E+02</totfact>
</mgrwt>
</event>
<event>
 6    4  0.1195577E-003  0.1276726E+03  0.7818608E-02  0.1230951E+00
          4   -1    0    0  502    0  0.00000000000E+00  0.00000000000E+00  0.47846326675E+03  0.47846495225E+03  0.12700000000E+01 0. -1.
         -4   -1    0    0    0  501 -0.00000000000E+00 -0.00000000000E+00 -0.12306470787E+02  0.12371827805E+02  0.12700000000E+01 0. -1.
         25    2    1    2    0    0 -0.10174727321E+02  0.23938056655E+02  0.38704753184E+03  0.40756114554E+03  0.12499495919E+03 0.  0.
    9000005    1    3    3    0    0 -0.30845358425E+02  0.47070638073E+02  0.73974422323E+02  0.92953193937E+02  0.10000000000E+01 0.  0.
    9000005    1    3    3    0    0  0.20670631104E+02 -0.23132581418E+02  0.31307310951E+03  0.31460795161E+03  0.10000000000E+01 0.  0.
         21    1    1    2  502  501  0.10174727321E+02 -0.23938056655E+02  0.79109264124E+02  0.83275634508E+02  0.00000000000E+00 0. -1.
<mgrwt>
<rscale>  1 0.12767261E+03</rscale>
<asrwt>0</asrwt>
<pdfrwt beam="1">  1        4 0.73614895E-01 0.12767261E+03</pdfrwt>
<pdfrwt beam="2">  1       -4 0.18984602E-02 0.12767261E+03</pdfrwt>
<totfact> 0.30479537E+03</totfact>
</mgrwt>
</event>
<event>
 6    4  0.1195577E-003  0.1275593E+03  0.7818608E-02  0.1231123E+00
         -4   -1    0    0    0  501 -0.00000000000E+00  0.00000000000E+00  0.57237621980E+02  0.57251709756E+02  0.12700000000E+01 0. -1.
          4   -1    0    0  502    0  0.00000000000E+00 -0.00000000000E+00 -0.10526193051E+03  0.10526959160E+03  0.12700000000E+01 0. -1.
         25    2    1    2    0    0  0.20597860393E+02  0.14885568870E+02 -0.50050310216E+02  0.13702705306E+03  0.12500211080E+03 0.  0.
    9000005    1    3    3    0    0  0.44827407600E+02  0.12939083849E+02 -0.83505613507E+02  0.95661402092E+02  0.10000000000E+01 0.  0.
    9000005    1    3    3    0    0 -0.24229547207E+02  0.19464850213E+01  0.33455303291E+02  0.41365650969E+02  0.10000000000E+01 0.  0.
         21    1    1    2  502  501 -0.20597860393E+02 -0.14885568870E+02  0.20260016818E+01  0.25494248296E+02  0.00000000000E+00 0. -1.
<mgrwt>
<rscale>  1 0.12755932E+03</rscale>
<asrwt>0</asrwt>
<pdfrwt beam="2">  1        4 0.16195816E-01 0.12755932E+03</pdfrwt>
<pdfrwt beam="1">  1       -4 0.88074610E-02 0.12755932E+03</pdfrwt>
<totfact> 0.49766767E+03</totfact>
</mgrwt>
</event>
<event>
 6    4  0.1195577E-003  0.1366833E+03  0.7818608E-02  0.1217863E+00
         -4   -1    0    0    0  501 -0.00000000000E+00  0.00000000000E+00  0.28364129347E+02  0.28392547149E+02  0.12700000000E+01 0. -1.
          4   -1    0    0  502    0  0.00000000000E+00 -0.00000000000E+00 -0.36515384881E+03  0.36515605732E+03  0.12700000000E+01 0. -1.
         25    2    1    2    0    0 -0.97916754830E+01 -0.54425081122E+02 -0.17180679521E+03  0.21954477791E+03  0.12499747303E+03 0.  0.
    9000005    1    3    3    0    0  0.26597406166E+02 -0.26685557604E+02  0.39782515893E+01  0.37899439113E+02  0.10000000000E+01 0.  0.
    9000005    1    3    3    0    0 -0.36389081649E+02 -0.27739523518E+02 -0.17578504680E+03  0.18164533879E+03  0.10000000000E+01 0.  0.
         21    1    1    2  502  501  0.97916754830E+01  0.54425081122E+02 -0.16498292425E+03  0.17400382656E+03  0.00000000000E+00 0. -1.
<mgrwt>
<rscale>  1 0.13668334E+03</rscale>
<asrwt>0</asrwt>
<pdfrwt beam="2">  1        4 0.56179868E-01 0.13668334E+03</pdfrwt>
<pdfrwt beam="1">  1       -4 0.43660683E-02 0.13668334E+03</pdfrwt>
<totfact> 0.14948076E+03</totfact>
</mgrwt>
</event>
<event>
 6    4  0.1195577E-003  0.1269688E+03  0.7818608E-02  0.1232024E+00
          4   -1    0    0  502    0  0.00000000000E+00  0.00000000000E+00  0.13830179015E+03  0.13830762112E+03  0.12700000000E+01 0.  1.
         -4   -1    0    0    0  501 -0.00000000000E+00 -0.00000000000E+00 -0.43985732195E+02  0.44004062730E+02  0.12700000000E+01 0.  1.
         25    2    1    2    0    0  0.63408453591E+01 -0.21355826328E+02  0.57730187500E+02  0.13947707687E+03  0.12499921114E+03 0.  0.
    9000005    1    3    3    0    0  0.58066118937E+01 -0.62281554446E+02 -0.69329480308E+01  0.62942628911E+02  0.10000000000E+01 0.  0.
    9000005    1    3    3    0    0  0.53423346537E+00  0.40925728118E+02  0.64663135531E+02  0.76534447957E+02  0.10000000000E+01 0.  0.
         21    1    1    2  502  501 -0.63408453591E+01  0.21355826328E+02  0.36585870454E+02  0.42834606977E+02  0.00000000000E+00 0. -1.
<mgrwt>
<rscale>  1 0.12696882E+03</rscale>
<asrwt>0</asrwt>
<pdfrwt beam="1">  1        4 0.21279057E-01 0.12696882E+03</pdfrwt>
<pdfrwt beam="2">  1       -4 0.67688945E-02 0.12696882E+03</pdfrwt>
<totfact> 0.47190490E+03</totfact>
</mgrwt>
</event>
<event>
 6    4  0.1195577E-003  0.2037220E+03  0.7818608E-02  0.1146636E+00
         -4   -1    0    0    0  501 -0.00000000000E+00  0.00000000000E+00  0.89004156818E+03  0.89004247426E+03  0.12700000000E+01 0.  1.
          4   -1    0    0  502    0  0.00000000000E+00 -0.00000000000E+00 -0.41293582119E+02  0.41313107172E+02  0.12700000000E+01 0.  1.
         25    2    1    2    0    0  0.10967171460E+03  0.11768061058E+03  0.61290970909E+03  0.64588000634E+03  0.12500423996E+03 0.  0.
    9000005    1    3    3    0    0  0.94096824940E+02  0.35936383640E+02  0.19197124067E+03  0.21679389608E+03  0.10000000000E+01 0.  0.
    9000005    1    3    3    0    0  0.15574889655E+02  0.81744226938E+02  0.42093846842E+03  0.42908611026E+03  0.10000000000E+01 0.  0.
         21    1    1    2  502  501 -0.10967171460E+03 -0.11768061058E+03  0.23583827697E+03  0.28547557509E+03  0.00000000000E+00 0.  1.
<mgrwt>
<rscale>  1 0.20372204E+03</rscale>
<asrwt>0</asrwt>
<pdfrwt beam="2">  1        4 0.63544306E-02 0.20372204E+03</pdfrwt>
<pdfrwt beam="1">  1       -4 0.13693104E+00 0.20372204E+03</pdfrwt>
<totfact> 0.11540041E+02</totfact>
</mgrwt>
</event>
<event>
 6    4  0.1195577E-003  0.1299343E+03  0.7818608E-02  0.1227553E+00
          4   -1    0    0  502    0  0.00000000000E+00  0.00000000000E+00  0.89711111572E+01  0.90605593312E+01  0.12700000000E+01 0. -1.
         -4   -1    0    0    0  501 -0.00000000000E+00 -0.00000000000E+00 -0.80643144638E+03  0.80643244641E+03  0.12700000000E+01 0. -1.
         25    2    1    2    0    0  0.44972721203E+01 -0.35184088499E+02 -0.69565279637E+03  0.70768335632E+03  0.12499909668E+03 0.  0.
    9000005    1    3    3    0    0  0.12413948321E+02  0.33971303978E+02 -0.76452836943E+02  0.84582456122E+02  0.10000000000E+01 0.  0.
    9000005    1    3    3    0    0 -0.79166762012E+01 -0.69155392477E+02 -0.61919995943E+03  0.62310090020E+03  0.10000000000E+01 0.  0.
         21    1    1    2  502  501 -0.44972721203E+01  0.35184088499E+02 -0.10180753886E+03  0.10780964942E+03  0.00000000000E+00 0. -1.
<mgrwt>
<rscale>  1 0.12993429E+03</rscale>
<asrwt>0</asrwt>
<pdfrwt beam="1">  1        4 0.13871291E-02 0.12993429E+03</pdfrwt>
<pdfrwt beam="2">  1       -4 0.12407328E+00 0.12993429E+03</pdfrwt>
<totfact> 0.14958642E+03</totfact>
</mgrwt>
</event>
<event>
 6    4  0.1195577E-003  0.1882117E+03  0.7818608E-02  0.1160084E+00
         -4   -1    0    0    0  501 -0.00000000000E+00  0.00000000000E+00  0.20300718731E+03  0.20301115979E+03  0.12700000000E+01 0. -1.
          4   -1    0    0  502    0  0.00000000000E+00 -0.00000000000E+00 -0.21240157733E+03  0.21240537412E+03  0.12700000000E+01 0. -1.
         25    2    1    2    0    0 -0.12492191068E+03  0.64756047303E+02  0.12085898881E+03  0.22367511394E+03  0.12499932796E+03 0.  0.
    9000005    1    3    3    0    0 -0.81437002318E+02  0.54082984908E+02  0.32408025695E+01  0.97818492139E+02  0.10000000000E+01 0.  0.
    9000005    1    3    3    0    0 -0.43484908358E+02  0.10673062396E+02  0.11761818625E+03  0.12585662180E+03  0.10000000000E+01 0.  0.
         21    1    1    2  502  501  0.12492191068E+03 -0.64756047303E+02 -0.13025337884E+03  0.19174141996E+03  0.00000000000E+00 0. -1.
<mgrwt>
<rscale>  1 0.18821175E+03</rscale>
<asrwt>0</asrwt>
<pdfrwt beam="2">  1        4 0.32677763E-01 0.18821175E+03</pdfrwt>
<pdfrwt beam="1">  1       -4 0.31232473E-01 0.18821175E+03</pdfrwt>
<totfact> 0.15659832E+02</totfact>
</mgrwt>
</event>
<event>
 6    4  0.1195577E-003  0.1284443E+03  0.7818608E-02  0.1229783E+00
         -4   -1    0    0    0  501 -0.00000000000E+00  0.00000000000E+00  0.12524551551E+03  0.12525195429E+03  0.12700000000E+01 0. -1.
          4   -1    0    0  502    0  0.00000000000E+00 -0.00000000000E+00 -0.53732485136E+02  0.53747491652E+02  0.12700000000E+01 0. -1.
         25    2    1    2    0    0  0.14444953681E+02  0.25785294155E+02  0.75787256504E+02  0.14913630662E+03  0.12499756646E+03 0.  0.
    9000005    1    3    3    0    0  0.38621340006E+02  0.64943660432E+02  0.69519475223E+02  0.10268030176E+03  0.10000000000E+01 0.  0.
    9000005    1    3    3    0    0 -0.24176386325E+02 -0.39158366276E+02  0.62677812813E+01  0.46456004858E+02  0.10000000000E+01 0.  0.
         21    1    1    2  502  501 -0.14444953681E+02 -0.25785294155E+02 -0.42742261334E+01  0.29863139329E+02  0.00000000000E+00 0.  1.
<mgrwt>
<rscale>  1 0.12844427E+03</rscale>
<asrwt>0</asrwt>
<pdfrwt beam="2">  1        4 0.82681859E-02 0.12844427E+03</pdfrwt>
<pdfrwt beam="1">  1       -4 0.19270190E-01 0.12844427E+03</pdfrwt>
<totfact> 0.40690121E+03</totfact>
</mgrwt>
</event>
<event>
 6    4  0.1195577E-003  0.1298903E+03  0.7818608E-02  0.1227619E+00
         -4   -1    0    0    0  501 -0.00000000000E+00  0.00000000000E+00  0.16804462137E+03  0.16804942033E+03  0.12700000000E+01 0. -1.
          4   -1    0    0  502    0  0.00000000000E+00 -0.00000000000E+00 -0.41502226176E+02  0.41521653117E+02  0.12700000000E+01 0. -1.
         25    2    1    2    0    0  0.22563984444E+02 -0.27352910012E+02  0.11099027554E+03  0.17085178231E+03  0.12495669319E+03 0.  0.
    9000005    1    3    3    0    0 -0.25785160181E+02  0.29312787221E+02  0.23498535744E+01  0.39123340758E+02  0.10000000000E+01 0.  0.
    9000005    1    3    3    0    0  0.48349144625E+02 -0.56665697233E+02  0.10864042197E+03  0.13172844155E+03  0.10000000000E+01 0.  0.
         21    1    1    2  502  501 -0.22563984444E+02  0.27352910012E+02  0.15552119655E+02  0.38719291134E+02  0.00000000000E+00 0.  1.
<mgrwt>
<rscale>  1 0.12989030E+03</rscale>
<asrwt>0</asrwt>
<pdfrwt beam="2">  1        4 0.63868215E-02 0.12989030E+03</pdfrwt>
<pdfrwt beam="1">  1       -4 0.25854882E-01 0.12989030E+03</pdfrwt>
<totfact> 0.36534207E+03</totfact>
</mgrwt>
</event>
<event>
 6    4  0.1195577E-003  0.1267047E+03  0.7818608E-02  0.1232429E+00
          4   -1    0    0  502    0  0.00000000000E+00  0.00000000000E+00  0.34179725717E+03  0.34179961661E+03  0.12700000000E+01 0. -1.
         -4   -1    0    0    0  501 -0.00000000000E+00 -0.00000000000E+00 -0.20439643937E+02  0.20479061117E+02  0.12700000000E+01 0. -1.
         25    2    1    2    0    0 -0.12631941537E+02 -0.16404096302E+02  0.18421938235E+03  0.22358637551E+03  0.12500170462E+03 0.  0.
    9000005    1    3    3    0    0 -0.19809082063E+02 -0.69109617844E+02  0.12306762642E+03  0.14253132878E+03  0.10000000000E+01 0.  0.
    9000005    1    3    3    0    0  0.71771405266E+01  0.52705521542E+02  0.61151755932E+02  0.81055046732E+02  0.10000000000E+01 0.  0.
         21    1    1    2  502  501  0.12631941537E+02  0.16404096302E+02  0.13713823089E+03  0.13869230221E+03  0.00000000000E+00 0. -1.
<mgrwt>
<rscale>  1 0.12670472E+03</rscale>
<asrwt>0</asrwt>
<pdfrwt beam="1">  1        4 0.52587406E-01 0.12670472E+03</pdfrwt>
<pdfrwt beam="2">  1       -4 0.31477743E-02 0.12670472E+03</pdfrwt>
<totfact> 0.28248920E+03</totfact>
</mgrwt>
</event>
<event>
 6    4  0.1195577E-003  0.1266080E+03  0.7818608E-02  0.1232577E+00
         -4   -1    0    0    0  501 -0.00000000000E+00  0.00000000000E+00  0.13048609503E+03  0.13049227524E+03  0.12700000000E+01 0. -1.
          4   -1    0    0  502    0  0.00000000000E+00 -0.00000000000E+00 -0.42972972125E+02  0.42991734476E+02  0.12700000000E+01 0. -1.
         25    2    1    2    0    0  0.50430368512E+00  0.20083953207E+02  0.86563062391E+02  0.15337127461E+03  0.12500385836E+03 0.  0.
    9000005    1    3    3    0    0 -0.19735851987E+02  0.44551548479E+01 -0.28796145896E+02  0.35207531536E+02  0.10000000000E+01 0.  0.
    9000005    1    3    3    0    0  0.20240155672E+02  0.15628798359E+02  0.11535920829E+03  0.11816374307E+03  0.10000000000E+01 0.  0.
         21    1    1    2  502  501 -0.50430368512E+00 -0.20083953207E+02  0.95006051796E+00  0.20112735110E+02  0.00000000000E+00 0.  1.
<mgrwt>
<rscale>  1 0.12660799E+03</rscale>
<asrwt>0</asrwt>
<pdfrwt beam="2">  1        4 0.66131452E-02 0.12660799E+03</pdfrwt>
<pdfrwt beam="1">  1       -4 0.20076702E-01 0.12660799E+03</pdfrwt>
<totfact> 0.54401355E+03</totfact>
</mgrwt>
</event>
<event>
 6    4  0.1195577E-003  0.1363552E+03  0.7818608E-02  0.1218319E+00
          4   -1    0    0  502    0  0.00000000000E+00  0.00000000000E+00  0.10200242610E+03  0.10201033198E+03  0.12700000000E+01 0.  1.
         -4   -1    0    0    0  501 -0.00000000000E+00 -0.00000000000E+00 -0.90739574051E+02  0.90748461138E+02  0.12700000000E+01 0.  1.
         25    2    1    2    0    0 -0.54386684379E+02 -0.29235335479E+01 -0.32473119620E+01  0.13639388076E+03  0.12500514864E+03 0.  0.
    9000005    1    3    3    0    0 -0.55651926974E+01 -0.35141750846E+02 -0.50090075305E+02  0.61448593689E+02  0.10000000000E+01 0.  0.
    9000005    1    3    3    0    0 -0.48821491681E+02  0.32218217298E+02  0.46842763343E+02  0.74945287067E+02  0.10000000000E+01 0.  0.
         21    1    1    2  502  501  0.54386684379E+02  0.29235335479E+01  0.14510164016E+02  0.56364912365E+02  0.00000000000E+00 0.  1.
<mgrwt>
<rscale>  1 0.13635522E+03</rscale>
<asrwt>0</asrwt>
<pdfrwt beam="1">  1        4 0.15693973E-01 0.13635522E+03</pdfrwt>
<pdfrwt beam="2">  1       -4 0.13961226E-01 0.13635522E+03</pdfrwt>
<totfact> 0.24432538E+03</totfact>
</mgrwt>
</event>
<event>
 6    4  0.1195577E-003  0.1266546E+03  0.7818608E-02  0.1232506E+00
         -4   -1    0    0    0  501 -0.00000000000E+00  0.00000000000E+00  0.29394424634E+02  0.29421847317E+02  0.12700000000E+01 0. -1.
          4   -1    0    0  502    0  0.00000000000E+00 -0.00000000000E+00 -0.20919388733E+03  0.20919774234E+03  0.12700000000E+01 0. -1.
         25    2    1    2    0    0  0.14099758825E+02  0.14780409478E+02 -0.11642860746E+03  0.17203784293E+03  0.12499654019E+03 0.  0.
    9000005    1    3    3    0    0  0.59980198783E+02 -0.10306848499E+02 -0.10026860241E+03  0.11729726340E+03  0.10000000000E+01 0.  0.
    9000005    1    3    3    0    0 -0.45880439958E+02  0.25087257977E+02 -0.16160005051E+02  0.54740579526E+02  0.10000000000E+01 0.  0.
         21    1    1    2  502  501 -0.14099758825E+02 -0.14780409478E+02 -0.63370855239E+02  0.66581746725E+02  0.00000000000E+00 0. -1.
<mgrwt>
<rscale>  1 0.12665464E+03</rscale>
<asrwt>0</asrwt>
<pdfrwt beam="2">  1        4 0.32186080E-01 0.12665464E+03</pdfrwt>
<pdfrwt beam="1">  1       -4 0.45246253E-02 0.12665464E+03</pdfrwt>
<totfact> 0.41953939E+03</totfact>
</mgrwt>
</event>
<event>
 6    4  0.1195577E-003  0.1266285E+03  0.7818608E-02  0.1232546E+00
          4   -1    0    0  502    0  0.00000000000E+00  0.00000000000E+00  0.79320414768E+02  0.79330581108E+02  0.12700000000E+01 0. -1.
         -4   -1    0    0    0  501 -0.00000000000E+00 -0.00000000000E+00 -0.76685506922E+02  0.76696022530E+02  0.12700000000E+01 0. -1.
         25    2    1    2    0    0  0.13148323063E+02  0.15380790119E+02 -0.17080318685E+02  0.12777528046E+03  0.12500135162E+03 0.  0.
    9000005    1    3    3    0    0 -0.33046110592E+02 -0.19724363930E+02 -0.48392400438E+02  0.61837855541E+02  0.10000000000E+01 0.  0.
    9000005    1    3    3    0    0  0.46194433655E+02  0.35105154049E+02  0.31312081753E+02  0.65937424921E+02  0.10000000000E+01 0.  0.
         21    1    1    2  502  501 -0.13148323063E+02 -0.15380790119E+02  0.19715226531E+02  0.28251323176E+02  0.00000000000E+00 0. -1.
<mgrwt>
<rscale>  1 0.12662853E+03</rscale>
<asrwt>0</asrwt>
<pdfrwt beam="1">  1        4 0.12204732E-01 0.12662853E+03</pdfrwt>
<pdfrwt beam="2">  1       -4 0.11799361E-01 0.12662853E+03</pdfrwt>
<totfact> 0.49549528E+03</totfact>
</mgrwt>
</event>
<event>
 6    4  0.1195577E-003  0.1269052E+03  0.7818608E-02  0.1232121E+00
         -4   -1    0    0    0  501 -0.00000000000E+00  0.00000000000E+00  0.39567208487E+02  0.39587585016E+02  0.12700000000E+01 0.  1.
          4   -1    0    0  502    0  0.00000000000E+00 -0.00000000000E+00 -0.14057559752E+03  0.14058133418E+03  0.12700000000E+01 0.  1.
         25    2    1    2    0    0  0.10942605285E+02  0.18973022689E+02 -0.90546561218E+02  0.15589617642E+03  0.12500088749E+03 0.  0.
    9000005    1    3    3    0    0  0.43748315211E+01  0.63815630031E+02 -0.11827499496E+02  0.65057386448E+02  0.10000000000E+01 0.  0.
    9000005    1    3    3    0    0  0.65677737637E+01 -0.44842607342E+02 -0.78719061722E+02  0.90838789973E+02  0.10000000000E+01 0.  0.
         21    1    1    2  502  501 -0.10942605285E+02 -0.18973022689E+02 -0.10461827819E+02  0.24272742772E+02  0.00000000000E+00 0.  1.
<mgrwt>
<rscale>  1 0.12690523E+03</rscale>
<asrwt>0</asrwt>
<pdfrwt beam="2">  1        4 0.21629023E-01 0.12690523E+03</pdfrwt>
<pdfrwt beam="1">  1       -4 0.60892716E-02 0.12690523E+03</pdfrwt>
<totfact> 0.54434828E+03</totfact>
</mgrwt>
</event>
<event>
 6    4  0.1195577E-003  0.1283881E+03  0.7818608E-02  0.1229867E+00
         -4   -1    0    0    0  501 -0.00000000000E+00  0.00000000000E+00  0.19935959344E+02  0.19976370415E+02  0.12700000000E+01 0.  1.
          4   -1    0    0  502    0  0.00000000000E+00 -0.00000000000E+00 -0.32434457359E+03  0.32434705997E+03  0.12700000000E+01 0.  1.
         25    2    1    2    0    0 -0.25720250909E+01  0.29185447450E+02 -0.27108854603E+03  0.29995415497E+03  0.12500035855E+03 0.  0.
    9000005    1    3    3    0    0  0.29317603725E+02  0.56234885242E+02 -0.69580482965E+02  0.94150559297E+02  0.10000000000E+01 0.  0.
    9000005    1    3    3    0    0 -0.31889628815E+02 -0.27049437792E+02 -0.20150806306E+03  0.20580359567E+03  0.10000000000E+01 0.  0.
         21    1    1    2  502  501  0.25720250909E+01 -0.29185447450E+02 -0.33320068212E+02  0.44369275423E+02  0.00000000000E+00 0.  1.
<mgrwt>
<rscale>  1 0.12838807E+03</rscale>
<asrwt>0</asrwt>
<pdfrwt beam="2">  1        4 0.49902461E-01 0.12838807E+03</pdfrwt>
<pdfrwt beam="1">  1       -4 0.30703707E-02 0.12838807E+03</pdfrwt>
<totfact> 0.32795395E+03</totfact>
</mgrwt>
</event>
<event>
 6    4  0.1195577E-003  0.1391012E+03  0.7818608E-02  0.1214543E+00
          4   -1    0    0  502    0  0.00000000000E+00  0.00000000000E+00  0.12038163226E+03  0.12038833119E+03  0.12700000000E+01 0. -1.
         -4   -1    0    0    0  501 -0.00000000000E+00 -0.00000000000E+00 -0.97962021663E+02  0.97970253589E+02  0.12700000000E+01 0. -1.
         25    2    1    2    0    0 -0.71416737166E+01 -0.60605677644E+02 -0.24677183889E+02  0.14127317943E+03  0.12500038462E+03 0.  0.
    9000005    1    3    3    0    0  0.28131473630E+02 -0.18899169390E+02  0.42704198927E+02  0.54527121859E+02  0.10000000000E+01 0.  0.
    9000005    1    3    3    0    0 -0.35273147346E+02 -0.41706508254E+02 -0.67381382815E+02  0.86746057574E+02  0.10000000000E+01 0.  0.
         21    1    1    2  502  501  0.71416737166E+01  0.60605677644E+02  0.47096794489E+02  0.77085405345E+02  0.00000000000E+00 0. -1.
<mgrwt>
<rscale>  1 0.13910121E+03</rscale>
<asrwt>0</asrwt>
<pdfrwt beam="1">  1        4 0.18521399E-01 0.13910121E+03</pdfrwt>
<pdfrwt beam="2">  1       -4 0.15072229E-01 0.13910121E+03</pdfrwt>
<totfact> 0.16021867E+03</totfact>
</mgrwt>
</event>
<event>
 6    4  0.1195577E-003  0.1267866E+03  0.7818608E-02  0.1232303E+00
         -4   -1    0    0    0  501 -0.00000000000E+00  0.00000000000E+00  0.11535893501E+03  0.11536592559E+03  0.12700000000E+01 0.  1.
          4   -1    0    0  502    0  0.00000000000E+00 -0.00000000000E+00 -0.54046598403E+02  0.54061517727E+02  0.12700000000E+01 0.  1.
         25    2    1    2    0    0  0.85565576783E+01  0.19392856978E+02  0.71877494145E+02  0.14574369076E+03  0.12500220659E+03 0.  0.
    9000005    1    3    3    0    0  0.56205448224E+01  0.48492558687E+02 -0.17366617448E+02  0.51823915075E+02  0.10000000000E+01 0.  0.
    9000005    1    3    3    0    0  0.29360128559E+01 -0.29099701708E+02  0.89244111593E+02  0.93919775687E+02  0.10000000000E+01 0.  0.
         21    1    1    2  502  501 -0.85565576783E+01 -0.19392856978E+02 -0.10565157540E+02  0.23683752551E+02  0.00000000000E+00 0.  1.
<mgrwt>
<rscale>  1 0.12678663E+03</rscale>
<asrwt>0</asrwt>
<pdfrwt beam="2">  1        4 0.83165467E-02 0.12678663E+03</pdfrwt>
<pdfrwt beam="1">  1       -4 0.17749214E-01 0.12678663E+03</pdfrwt>
<totfact> 0.46503107E+03</totfact>
</mgrwt>
</event>
<event>
 6    4  0.1195577E-003  0.1309169E+03  0.7818608E-02  0.1226102E+00
          4   -1    0    0  502    0  0.00000000000E+00  0.00000000000E+00  0.69687120427E+02  0.69698691906E+02  0.12700000000E+01 0.  1.
         -4   -1    0    0    0  501 -0.00000000000E+00 -0.00000000000E+00 -0.12156129967E+03  0.12156793359E+03  0.12700000000E+01 0.  1.
         25    2    1    2    0    0 -0.28858879236E+02 -0.26106550045E+02 -0.69866689612E+02  0.14839335533E+03  0.12499938689E+03 0.  0.
    9000005    1    3    3    0    0  0.15419675162E+02  0.27702332120E+02 -0.71990375284E+02  0.78668924745E+02  0.10000000000E+01 0.  0.
    9000005    1    3    3    0    0 -0.44278554398E+02 -0.53808882165E+02  0.21236856719E+01  0.69724430584E+02  0.10000000000E+01 0.  0.
         21    1    1    2  502  501  0.28858879236E+02  0.26106550045E+02  0.17992510365E+02  0.42873270172E+02  0.00000000000E+00 0.  1.
<mgrwt>
<rscale>  1 0.13091690E+03</rscale>
<asrwt>0</asrwt>
<pdfrwt beam="1">  1        4 0.10722496E-01 0.13091690E+03</pdfrwt>
<pdfrwt beam="2">  1       -4 0.18703139E-01 0.13091690E+03</pdfrwt>
<totfact> 0.27895994E+03</totfact>
</mgrwt>
</event>
<event>
 6    4  0.1195577E-003  0.1334424E+03  0.7818608E-02  0.1222435E+00
          4   -1    0    0  502    0  0.00000000000E+00  0.00000000000E+00  0.23736952945E+03  0.23737292687E+03  0.12700000000E+01 0. -1.
         -4   -1    0    0    0  501 -0.00000000000E+00 -0.00000000000E+00 -0.47148072879E+02  0.47165174400E+02  0.12700000000E+01 0. -1.
         25    2    1    2    0    0  0.34983003576E+02 -0.30943893326E+02  0.60219510056E+02  0.14640106362E+03  0.12500218784E+03 0.  0.
    9000005    1    3    3    0    0  0.49117400535E+02  0.38201877455E+02  0.35308732466E+02  0.71551443484E+02  0.10000000000E+01 0.  0.
    9000005    1    3    3    0    0 -0.14134396959E+02 -0.69145770781E+02  0.24910777590E+02  0.74849620135E+02  0.10000000000E+01 0.  0.
         21    1    1    2  502  501 -0.34983003576E+02  0.30943893326E+02  0.13000194651E+03  0.13813703765E+03  0.00000000000E+00 0. -1.
<mgrwt>
<rscale>  1 0.13344243E+03</rscale>
<asrwt>0</asrwt>
<pdfrwt beam="1">  1        4 0.36519966E-01 0.13344243E+03</pdfrwt>
<pdfrwt beam="2">  1       -4 0.72551265E-02 0.13344243E+03</pdfrwt>
<totfact> 0.15505989E+03</totfact>
</mgrwt>
</event>
<event>
 6    4  0.1195577E-003  0.1278647E+03  0.7818608E-02  0.1230659E+00
         -4   -1    0    0    0  501 -0.00000000000E+00  0.00000000000E+00  0.25675720883E+02  0.25707110745E+02  0.12700000000E+01 0. -1.
          4   -1    0    0  502    0  0.00000000000E+00 -0.00000000000E+00 -0.26669357923E+03  0.26669660309E+03  0.12700000000E+01 0. -1.
         25    2    1    2    0    0 -0.10667690619E+02  0.24692928584E+02 -0.14804928430E+03  0.19562202081E+03  0.12500337635E+03 0.  0.
    9000005    1    3    3    0    0 -0.54829815892E+02  0.45960150766E+02 -0.11836021396E+03  0.13830684878E+03  0.10000000000E+01 0.  0.
    9000005    1    3    3    0    0  0.44162125273E+02 -0.21267222182E+02 -0.29689070341E+02  0.57315172038E+02  0.10000000000E+01 0.  0.
         21    1    1    2  502  501  0.10667690619E+02 -0.24692928584E+02 -0.92968574040E+02  0.96781693022E+02  0.00000000000E+00 0. -1.
<mgrwt>
<rscale>  1 0.12786471E+03</rscale>
<asrwt>0</asrwt>
<pdfrwt beam="2">  1        4 0.41032427E-01 0.12786471E+03</pdfrwt>
<pdfrwt beam="1">  1       -4 0.39527583E-02 0.12786471E+03</pdfrwt>
<totfact> 0.32565176E+03</totfact>
</mgrwt>
</event>
<event>
 6    4  0.1195577E-003  0.1455955E+03  0.7818608E-02  0.1205992E+00
         -4   -1    0    0    0  501 -0.00000000000E+00  0.00000000000E+00  0.16842379670E+02  0.16890193988E+02  0.12700000000E+01 0.  1.
          4   -1    0    0  502    0  0.00000000000E+00 -0.00000000000E+00 -0.89144806983E+03  0.89144897448E+03  0.12700000000E+01 0.  1.
         25    2    1    2    0    0  0.66289391595E+02 -0.34265577575E+02 -0.35961678144E+03  0.38797200065E+03  0.12501852082E+03 0.  0.
    9000005    1    3    3    0    0  0.46954440772E+02  0.41939613789E+02 -0.20591721322E+03  0.21532893306E+03  0.10000000000E+01 0.  0.
    9000005    1    3    3    0    0  0.19334950823E+02 -0.76205191364E+02 -0.15369956822E+03  0.17264306759E+03  0.10000000000E+01 0.  0.
         21    1    1    2  502  501 -0.66289391595E+02  0.34265577575E+02 -0.51498890871E+03  0.52036716782E+03  0.00000000000E+00 0.  1.
<mgrwt>
<rscale>  1 0.14559548E+03</rscale>
<asrwt>0</asrwt>
<pdfrwt beam="2">  1        4 0.13714957E+00 0.14559548E+03</pdfrwt>
<pdfrwt beam="1">  1       -4 0.25948836E-02 0.14559548E+03</pdfrwt>
<totfact> 0.45668388E+02</totfact>
</mgrwt>
</event>
<event>
 6    4  0.1195577E-003  0.1524642E+03  0.7818608E-02  0.1197477E+00
          4   -1    0    0  502    0  0.00000000000E+00  0.00000000000E+00  0.70445501269E+02  0.70456948196E+02  0.12700000000E+01 0. -1.
         -4   -1    0    0    0  501 -0.00000000000E+00 -0.00000000000E+00 -0.26783129731E+03  0.26783430833E+03  0.12700000000E+01 0. -1.
         25    2    1    2    0    0  0.57891142596E+02  0.65292312058E+02 -0.19939721746E+03  0.25100714445E+03  0.12502346112E+03 0.  0.
    9000005    1    3    3    0    0  0.69125450583E+02  0.91978278705E+02 -0.18684791357E+03  0.21943444232E+03  0.10000000000E+01 0.  0.
    9000005    1    3    3    0    0 -0.11234307987E+02 -0.26685966647E+02 -0.12549303893E+02  0.31572702134E+02  0.10000000000E+01 0.  0.
         21    1    1    2  502  501 -0.57891142596E+02 -0.65292312058E+02  0.20114214150E+01  0.87284112077E+02  0.00000000000E+00 0. -1.
<mgrwt>
<rscale>  1 0.15246421E+03</rscale>
<asrwt>0</asrwt>
<pdfrwt beam="1">  1        4 0.10838882E-01 0.15246421E+03</pdfrwt>
<pdfrwt beam="2">  1       -4 0.41205927E-01 0.15246421E+03</pdfrwt>
<totfact> 0.64284739E+02</totfact>
</mgrwt>
</event>
<event>
 6    4  0.1195577E-003  0.1291263E+03  0.7818608E-02  0.1228758E+00
         -4   -1    0    0    0  501 -0.00000000000E+00  0.00000000000E+00  0.14221112270E+03  0.14221679338E+03  0.12700000000E+01 0. -1.
          4   -1    0    0  502    0  0.00000000000E+00 -0.00000000000E+00 -0.18904769323E+03  0.18905195904E+03  0.12700000000E+01 0. -1.
         25    2    1    2    0    0  0.22072353254E+02 -0.23696663867E+02  0.11091800322E+03  0.17022457775E+03  0.12499953110E+03 0.  0.
    9000005    1    3    3    0    0  0.23971782908E+02  0.39290839000E+02  0.94468667206E+02  0.10508922632E+03  0.10000000000E+01 0.  0.
    9000005    1    3    3    0    0 -0.18994296531E+01 -0.62987502867E+02  0.16449336012E+02  0.65135351428E+02  0.10000000000E+01 0.  0.
         21    1    1    2  502  501 -0.22072353254E+02  0.23696663867E+02 -0.15775457375E+03  0.16104417467E+03  0.00000000000E+00 0. -1.
<mgrwt>
<rscale>  1 0.12912631E+03</rscale>
<asrwt>0</asrwt>
<pdfrwt beam="2">  1        4 0.29085025E-01 0.12912631E+03</pdfrwt>
<pdfrwt beam="1">  1       -4 0.21879398E-01 0.12912631E+03</pdfrwt>
<totfact> 0.35582125E+02</totfact>
</mgrwt>
</event>
<event>
 6    4  0.1195577E-003  0.1278769E+03  0.7818608E-02  0.1230640E+00
          4   -1    0    0  502    0  0.00000000000E+00  0.00000000000E+00  0.10537777004E+03  0.10538542270E+03  0.12700000000E+01 0. -1.
         -4   -1    0    0    0  501 -0.00000000000E+00 -0.00000000000E+00 -0.14710456691E+03  0.14711004896E+03  0.12700000000E+01 0. -1.
         25    2    1    2    0    0  0.24676619491E+02 -0.11007848440E+02 -0.11650131721E+03  0.17298863442E+03  0.12498960937E+03 0.  0.
    9000005    1    3    3    0    0  0.68223177342E+02 -0.14875019681E+01 -0.10776039837E+03  0.12755358892E+03  0.10000000000E+01 0.  0.
    9000005    1    3    3    0    0 -0.43546557851E+02 -0.95203464723E+01 -0.87409188354E+01  0.45435045501E+02  0.10000000000E+01 0.  0.
         21    1    1    2  502  501 -0.24676619491E+02  0.11007848440E+02  0.74774520337E+02  0.79506837244E+02  0.00000000000E+00 0. -1.
<mgrwt>
<rscale>  1 0.12787694E+03</rscale>
<asrwt>0</asrwt>
<pdfrwt beam="1">  1        4 0.16212975E-01 0.12787694E+03</pdfrwt>
<pdfrwt beam="2">  1       -4 0.22632482E-01 0.12787694E+03</pdfrwt>
<totfact> 0.96459427E+02</totfact>
</mgrwt>
</event>
<event>
 6    4  0.1195577E-003  0.1309525E+03  0.7818608E-02  0.1226049E+00
          4   -1    0    0  502    0  0.00000000000E+00  0.00000000000E+00  0.59224465595E+01  0.60570845504E+01  0.12700000000E+01 0.  1.
         -4   -1    0    0    0  501 -0.00000000000E+00 -0.00000000000E+00 -0.13185042893E+04  0.13185049010E+04  0.12700000000E+01 0.  1.
         25    2    1    2    0    0 -0.38850259614E+02  0.35758713583E+01 -0.11467384754E+04  0.11541913541E+04  0.12500568602E+03 0.  0.
    9000005    1    3    3    0    0  0.23023919701E+01  0.29003328922E+02 -0.98355563905E+03  0.98398637653E+03  0.10000000000E+01 0.  0.
    9000005    1    3    3    0    0 -0.41152651584E+02 -0.25427457564E+02 -0.16318283631E+03  0.17020497759E+03  0.10000000000E+01 0.  0.
         21    1    1    2  502  501  0.38850259614E+02 -0.35758713583E+01 -0.16584336742E+03  0.17037063141E+03  0.00000000000E+00 0.  1.
<mgrwt>
<rscale>  1 0.13095248E+03</rscale>
<asrwt>0</asrwt>
<pdfrwt beam="1">  1        4 0.92155049E-03 0.13095248E+03</pdfrwt>
<pdfrwt beam="2">  1       -4 0.20285699E+00 0.13095248E+03</pdfrwt>
<totfact> 0.76995289E+02</totfact>
</mgrwt>
</event>
<event>
 6    4  0.1195577E-003  0.1274647E+03  0.7818608E-02  0.1231267E+00
          4   -1    0    0  502    0  0.00000000000E+00  0.00000000000E+00  0.83267029084E+02  0.83276713626E+02  0.12700000000E+01 0.  1.
         -4   -1    0    0    0  501 -0.00000000000E+00 -0.00000000000E+00 -0.70588968207E+02  0.70600391872E+02  0.12700000000E+01 0.  1.
         25    2    1    2    0    0  0.24279126919E+02 -0.57689061520E+01  0.42439737976E+01  0.12753531158E+03  0.12499795240E+03 0.  0.
    9000005    1    3    3    0    0 -0.10902035374E+00 -0.52945477178E+02  0.37480417206E+02  0.64876938221E+02  0.10000000000E+01 0.  0.
    9000005    1    3    3    0    0  0.24388147273E+02  0.47176571026E+02 -0.33236443408E+02  0.62658373356E+02  0.10000000000E+01 0.  0.
         21    1    1    2  502  501 -0.24279126919E+02  0.57689061520E+01  0.84340870790E+01  0.26341793921E+02  0.00000000000E+00 0. -1.
<mgrwt>
<rscale>  1 0.12746468E+03</rscale>
<asrwt>0</asrwt>
<pdfrwt beam="1">  1        4 0.12811936E-01 0.12746468E+03</pdfrwt>
<pdfrwt beam="2">  1       -4 0.10861465E-01 0.12746468E+03</pdfrwt>
<totfact> 0.52571746E+03</totfact>
</mgrwt>
</event>
<event>
 6    4  0.1195577E-003  0.1278209E+03  0.7818608E-02  0.1230725E+00
          4   -1    0    0  502    0  0.00000000000E+00  0.00000000000E+00  0.79391411468E+02  0.79401568718E+02  0.12700000000E+01 0. -1.
         -4   -1    0    0    0  501 -0.00000000000E+00 -0.00000000000E+00 -0.10292918714E+03  0.10293702184E+03  0.12700000000E+01 0. -1.
         25    2    1    2    0    0 -0.26683641800E+02 -0.38127080231E+00 -0.56649255230E+02  0.13981174979E+03  0.12500410055E+03 0.  0.
    9000005    1    3    3    0    0 -0.31058065640E+02 -0.23669705149E+02  0.30458130443E+02  0.49533383624E+02  0.10000000000E+01 0.  0.
    9000005    1    3    3    0    0  0.43744238393E+01  0.23288434347E+02 -0.87107385673E+02  0.90278366163E+02  0.10000000000E+01 0.  0.
         21    1    1    2  502  501  0.26683641800E+02  0.38127080231E+00  0.33111479561E+02  0.42526840770E+02  0.00000000000E+00 0. -1.
<mgrwt>
<rscale>  1 0.12782092E+03</rscale>
<asrwt>0</asrwt>
<pdfrwt beam="1">  1        4 0.12215447E-01 0.12782092E+03</pdfrwt>
<pdfrwt beam="2">  1       -4 0.15836644E-01 0.12782092E+03</pdfrwt>
<totfact> 0.29816722E+03</totfact>
</mgrwt>
</event>
<event>
 6    4  0.1195577E-003  0.1319618E+03  0.7818608E-02  0.1224573E+00
         -4   -1    0    0    0  501 -0.00000000000E+00  0.00000000000E+00  0.32638802329E+03  0.32639049411E+03  0.12700000000E+01 0.  1.
          4   -1    0    0  502    0  0.00000000000E+00 -0.00000000000E+00 -0.23247222815E+02  0.23281887136E+02  0.12700000000E+01 0.  1.
         25    2    1    2    0    0 -0.10311206358E+02  0.41049279016E+02  0.23025052680E+03  0.26538503771E+03  0.12499019507E+03 0.  0.
    9000005    1    3    3    0    0  0.51825183308E+01  0.80154060082E+02  0.19353661768E+03  0.20954463540E+03  0.10000000000E+01 0.  0.
    9000005    1    3    3    0    0 -0.15493724689E+02 -0.39104781066E+02  0.36713909124E+02  0.55840402309E+02  0.10000000000E+01 0.  0.
         21    1    1    2  502  501  0.10311206358E+02 -0.41049279016E+02  0.72890273671E+02  0.84287343535E+02  0.00000000000E+00 0.  1.
<mgrwt>
<rscale>  1 0.13196179E+03</rscale>
<asrwt>0</asrwt>
<pdfrwt beam="2">  1        4 0.35793525E-02 0.13196179E+03</pdfrwt>
<pdfrwt beam="1">  1       -4 0.50216396E-01 0.13196179E+03</pdfrwt>
<totfact> 0.25608270E+03</totfact>
</mgrwt>
</event>
<event>
 6    4  0.1195577E-003  0.1274999E+03  0.7818608E-02  0.1231213E+00
         -4   -1    0    0    0  501 -0.00000000000E+00  0.00000000000E+00  0.30382125145E+03  0.30382390579E+03  0.12700000000E+01 0.  1.
          4   -1    0    0  502    0  0.00000000000E+00 -0.00000000000E+00 -0.21487506896E+02  0.21525005287E+02  0.12700000000E+01 0.  1.
         25    2    1    2    0    0  0.12207012853E+02  0.21923166928E+02  0.18395566486E+03  0.22382116623E+03  0.12500636546E+03 0.  0.
    9000005    1    3    3    0    0 -0.18725920200E+02 -0.47674305535E+02  0.78378730483E+02  0.93636130247E+02  0.10000000000E+01 0.  0.
    9000005    1    3    3    0    0  0.30932933053E+02  0.69597472463E+02  0.10557693438E+03  0.13018503598E+03  0.10000000000E+01 0.  0.
         21    1    1    2  502  501 -0.12207012853E+02 -0.21923166928E+02  0.98378079694E+02  0.10152774485E+03  0.00000000000E+00 0.  1.
<mgrwt>
<rscale>  1 0.12749991E+03</rscale>
<asrwt>0</asrwt>
<pdfrwt beam="2">  1        4 0.33088591E-02 0.12749991E+03</pdfrwt>
<pdfrwt beam="1">  1       -4 0.46744818E-01 0.12749991E+03</pdfrwt>
<totfact> 0.33231080E+03</totfact>
</mgrwt>
</event>
<event>
 6    4  0.1195577E-003  0.1284087E+03  0.7818608E-02  0.1229836E+00
          4   -1    0    0  502    0  0.00000000000E+00  0.00000000000E+00  0.28115671955E+03  0.28115958787E+03  0.12700000000E+01 0.  1.
         -4   -1    0    0    0  501 -0.00000000000E+00 -0.00000000000E+00 -0.35296588889E+02  0.35319429316E+02  0.12700000000E+01 0.  1.
         25    2    1    2    0    0  0.23997039558E+02  0.17024953240E+02  0.87447797317E+02  0.15535740381E+03  0.12499239466E+03 0.  0.
    9000005    1    3    3    0    0  0.10711802790E+02  0.51347668653E+02 -0.79868093651E+01  0.53067079428E+02  0.10000000000E+01 0.  0.
    9000005    1    3    3    0    0  0.13285236768E+02 -0.34322715414E+02  0.95434606682E+02  0.10229032438E+03  0.10000000000E+01 0.  0.
         21    1    1    2  502  501 -0.23997039558E+02 -0.17024953240E+02  0.15841233335E+03  0.16112161338E+03  0.00000000000E+00 0.  1.
<mgrwt>
<rscale>  1 0.12840874E+03</rscale>
<asrwt>0</asrwt>
<pdfrwt beam="1">  1        4 0.43256858E-01 0.12840874E+03</pdfrwt>
<pdfrwt beam="2">  1       -4 0.54322219E-02 0.12840874E+03</pdfrwt>
<totfact> 0.17659324E+03</totfact>
</mgrwt>
</event>
<event>
 6    4  0.1195577E-003  0.1371407E+03  0.7818608E-02  0.1217229E+00
         -4   -1    0    0    0  501 -0.00000000000E+00  0.00000000000E+00  0.11773926826E+02  0.11842223310E+02  0.12700000000E+01 0.  1.
          4   -1    0    0  502    0  0.00000000000E+00 -0.00000000000E+00 -0.19315288141E+04  0.19315292316E+04  0.12700000000E+01 0.  1.
         25    2    1    2    0    0 -0.56129876309E+02 -0.58906888529E+01 -0.40545548639E+03  0.42802069067E+03  0.12498918740E+03 0.  0.
    9000005    1    3    3    0    0 -0.72200741142E+02 -0.13260894582E+02 -0.11129755560E+03  0.13333020749E+03  0.10000000000E+01 0.  0.
    9000005    1    3    3    0    0  0.16070864833E+02  0.73702057292E+01 -0.29415793079E+03  0.29469048318E+03  0.10000000000E+01 0.  0.
         21    1    1    2  502  501  0.56129876309E+02  0.58906888529E+01 -0.15142994008E+04  0.15153507642E+04  0.00000000000E+00 0.  1.
<mgrwt>
<rscale>  1 0.13714066E+03</rscale>
<asrwt>0</asrwt>
<pdfrwt beam="2">  1        4 0.29716331E+00 0.13714066E+03</pdfrwt>
<pdfrwt beam="1">  1       -4 0.18166606E-02 0.13714066E+03</pdfrwt>
<totfact> 0.77961147E+01</totfact>
</mgrwt>
</event>
<event>
 6    4  0.1195577E-003  0.1291569E+03  0.7818608E-02  0.1228712E+00
         -4   -1    0    0    0  501 -0.00000000000E+00  0.00000000000E+00  0.63061791872E+03  0.63061919755E+03  0.12700000000E+01 0.  1.
          4   -1    0    0  502    0  0.00000000000E+00 -0.00000000000E+00 -0.21540025173E+02  0.21577432295E+02  0.12700000000E+01 0.  1.
         25    2    1    2    0    0  0.71638965865E+01  0.31735529846E+02  0.60589405400E+03  0.61950714983E+03  0.12499215477E+03 0.  0.
    9000005    1    3    3    0    0  0.32905279113E+01 -0.19428031814E+02  0.51300411806E+03  0.51338338612E+03  0.10000000000E+01 0.  0.
    9000005    1    3    3    0    0  0.38733686753E+01  0.51163561660E+02  0.92889935938E+02  0.10612376372E+03  0.10000000000E+01 0.  0.
         21    1    1    2  502  501 -0.71638965865E+01 -0.31735529846E+02  0.31838395516E+01  0.32689480008E+02  0.00000000000E+00 0.  1.
<mgrwt>
<rscale>  1 0.12915690E+03</rscale>
<asrwt>0</asrwt>
<pdfrwt beam="2">  1        4 0.33168256E-02 0.12915690E+03</pdfrwt>
<pdfrwt beam="1">  1       -4 0.97021126E-01 0.12915690E+03</pdfrwt>
<totfact> 0.69390065E+02</totfact>
</mgrwt>
</event>
<event>
 6    4  0.1195577E-003  0.1371235E+03  0.7818608E-02  0.1217253E+00
          4   -1    0    0  502    0  0.00000000000E+00  0.00000000000E+00  0.36586480514E+02  0.36608516173E+02  0.12700000000E+01 0.  1.
         -4   -1    0    0    0  501 -0.00000000000E+00 -0.00000000000E+00 -0.42222447815E+03  0.42222638815E+03  0.12700000000E+01 0.  1.
         25    2    1    2    0    0 -0.11962905717E+02 -0.55090537886E+02 -0.37780393995E+03  0.40191872966E+03  0.12499907894E+03 0.  0.
    9000005    1    3    3    0    0  0.35160739849E+02 -0.67195409085E+02 -0.14038020334E+03  0.15955908661E+03  0.10000000000E+01 0.  0.
    9000005    1    3    3    0    0 -0.47123645566E+02  0.12104871200E+02 -0.23742373661E+03  0.24235964306E+03  0.10000000000E+01 0.  0.
         21    1    1    2  502  501  0.11962905717E+02  0.55090537886E+02 -0.78340576876E+01  0.56916174657E+02  0.00000000000E+00 0.  1.
<mgrwt>
<rscale>  1 0.13712348E+03</rscale>
<asrwt>0</asrwt>
<pdfrwt beam="1">  1        4 0.56305316E-02 0.13712348E+03</pdfrwt>
<pdfrwt beam="2">  1       -4 0.64959451E-01 0.13712348E+03</pdfrwt>
<totfact> 0.73234293E+02</totfact>
</mgrwt>
</event>
<event>
 6    4  0.1195577E-003  0.1266429E+03  0.7818608E-02  0.1232524E+00
          4   -1    0    0  502    0  0.00000000000E+00  0.00000000000E+00  0.18133713633E+02  0.18178131646E+02  0.12700000000E+01 0. -1.
         -4   -1    0    0    0  501 -0.00000000000E+00 -0.00000000000E+00 -0.30005089031E+03  0.30005357801E+03  0.12700000000E+01 0. -1.
         25    2    1    2    0    0 -0.10210627204E+02  0.17566807159E+02 -0.25250026584E+03  0.28247972698E+03  0.12500224913E+03 0.  0.
    9000005    1    3    3    0    0  0.16015753886E+02  0.12063860592E+02 -0.25477733718E+03  0.25556708052E+03  0.10000000000E+01 0.  0.
    9000005    1    3    3    0    0 -0.26226381090E+02  0.55029465667E+01  0.22770713385E+01  0.26912646467E+02  0.10000000000E+01 0.  0.
         21    1    1    2  502  501  0.10210627204E+02 -0.17566807159E+02 -0.29416910841E+02  0.35751982673E+02  0.00000000000E+00 0. -1.
<mgrwt>
<rscale>  1 0.12664285E+03</rscale>
<asrwt>0</asrwt>
<pdfrwt beam="1">  1        4 0.27934258E-02 0.12664285E+03</pdfrwt>
<pdfrwt beam="2">  1       -4 0.46165295E-01 0.12664285E+03</pdfrwt>
<totfact> 0.44343704E+03</totfact>
</mgrwt>
</event>
<event>
 6    4  0.1195577E-003  0.1397594E+03  0.7818608E-02  0.1213653E+00
         -4   -1    0    0    0  501 -0.00000000000E+00  0.00000000000E+00  0.14723611818E+03  0.14724159533E+03  0.12700000000E+01 0. -1.
          4   -1    0    0  502    0  0.00000000000E+00 -0.00000000000E+00 -0.84889992427E+02  0.84899491837E+02  0.12700000000E+01 0. -1.
         25    2    1    2    0    0 -0.73273159847E+01  0.62080329154E+02  0.87353851614E+02  0.16481320899E+03  0.12500016655E+03 0.  0.
    9000005    1    3    3    0    0 -0.79239719131E+01  0.52954781021E+02 -0.19925313215E+02  0.57140320883E+02  0.10000000000E+01 0.  0.
    9000005    1    3    3    0    0  0.59665592842E+00  0.91255481327E+01  0.10727916483E+03  0.10767288811E+03  0.10000000000E+01 0.  0.
         21    1    1    2  502  501  0.73273159847E+01 -0.62080329154E+02 -0.25007725863E+02  0.67327878180E+02  0.00000000000E+00 0. -1.
<mgrwt>
<rscale>  1 0.13975943E+03</rscale>
<asrwt>0</asrwt>
<pdfrwt beam="2">  1        4 0.13061151E-01 0.13975943E+03</pdfrwt>
<pdfrwt beam="1">  1       -4 0.22652862E-01 0.13975943E+03</pdfrwt>
<totfact> 0.14298356E+03</totfact>
</mgrwt>
</event>
<event>
 6    4  0.1195577E-003  0.1304170E+03  0.7818608E-02  0.1226838E+00
          4   -1    0    0  502    0  0.00000000000E+00  0.00000000000E+00  0.21309998193E+03  0.21310376627E+03  0.12700000000E+01 0. -1.
         -4   -1    0    0    0  501 -0.00000000000E+00 -0.00000000000E+00 -0.33926484360E+02  0.33950246554E+02  0.12700000000E+01 0. -1.
         25    2    1    2    0    0  0.35507620958E+02  0.11078079972E+02  0.12037826990E+03  0.17748107413E+03  0.12500035523E+03 0.  0.
    9000005    1    3    3    0    0 -0.26710187679E+02  0.25704914169E+02  0.10553194845E+03  0.11185780653E+03  0.10000000000E+01 0.  0.
    9000005    1    3    3    0    0  0.62217808637E+02 -0.14626834198E+02  0.14846321458E+02  0.65623267604E+02  0.10000000000E+01 0.  0.
         21    1    1    2  502  501 -0.35507620958E+02 -0.11078079972E+02  0.58795227661E+02  0.69572938688E+02  0.00000000000E+00 0. -1.
<mgrwt>
<rscale>  1 0.13041704E+03</rscale>
<asrwt>0</asrwt>
<pdfrwt beam="1">  1        4 0.32786732E-01 0.13041704E+03</pdfrwt>
<pdfrwt beam="2">  1       -4 0.52215780E-02 0.13041704E+03</pdfrwt>
<totfact> 0.32419914E+03</totfact>
</mgrwt>
</event>
<event>
 6    4  0.1195577E-003  0.1272737E+03  0.7818608E-02  0.1231558E+00
         -4   -1    0    0    0  501 -0.00000000000E+00  0.00000000000E+00  0.10710233291E+02  0.10785267597E+02  0.12700000000E+01 0. -1.
          4   -1    0    0  502    0  0.00000000000E+00 -0.00000000000E+00 -0.53364531449E+03  0.53364682570E+03  0.12700000000E+01 0. -1.
         25    2    1    2    0    0 -0.12543241672E+02  0.20440382788E+02 -0.42875131741E+03  0.44724298113E+03  0.12499379919E+03 0.  0.
    9000005    1    3    3    0    0  0.28976624007E+02 -0.31492144891E+02 -0.29266400748E+03  0.29577799310E+03  0.10000000000E+01 0.  0.
    9000005    1    3    3    0    0 -0.41519865679E+02  0.51932527679E+02 -0.13608730992E+03  0.15146498803E+03  0.10000000000E+01 0.  0.
         21    1    1    2  502  501  0.12543241672E+02 -0.20440382788E+02 -0.94183763795E+02  0.97189112161E+02  0.00000000000E+00 0.  1.
<mgrwt>
<rscale>  1 0.12727369E+03</rscale>
<asrwt>0</asrwt>
<pdfrwt beam="2">  1        4 0.82105147E-01 0.12727369E+03</pdfrwt>
<pdfrwt beam="1">  1       -4 0.16536167E-02 0.12727369E+03</pdfrwt>
<totfact> 0.29608311E+03</totfact>
</mgrwt>
</event>
<event>
 6    4  0.1195577E-003  0.1279722E+03  0.7818608E-02  0.1230496E+00
          4   -1    0    0  502    0  0.00000000000E+00  0.00000000000E+00  0.81136898027E+01  0.82124820983E+01  0.12700000000E+01 0. -1.
         -4   -1    0    0    0  501 -0.00000000000E+00 -0.00000000000E+00 -0.74702639084E+03  0.74702747039E+03  0.12700000000E+01 0. -1.
         25    2    1    2    0    0  0.22097969778E+02 -0.16236624152E+02 -0.63523196204E+03  0.64799423522E+03  0.12499974020E+03 0.  0.
    9000005    1    3    3    0    0 -0.62482186771E+01  0.46077898817E+02 -0.40880832444E+03  0.41144557249E+03  0.10000000000E+01 0.  0.
    9000005    1    3    3    0    0  0.28346188455E+02 -0.62314522969E+02 -0.22642363761E+03  0.23654866273E+03  0.10000000000E+01 0.  0.
         21    1    1    2  502  501 -0.22097969778E+02  0.16236624152E+02 -0.10368073900E+03  0.10724571726E+03  0.00000000000E+00 0.  1.
<mgrwt>
<rscale>  1 0.12797220E+03</rscale>
<asrwt>0</asrwt>
<pdfrwt beam="1">  1        4 0.12559430E-02 0.12797220E+03</pdfrwt>
<pdfrwt beam="2">  1       -4 0.11493477E+00 0.12797220E+03</pdfrwt>
<totfact> 0.20820934E+03</totfact>
</mgrwt>
</event>
<event>
 6    4  0.1195577E-003  0.1302382E+03  0.7818608E-02  0.1227103E+00
          4   -1    0    0  502    0  0.00000000000E+00  0.00000000000E+00  0.18203530225E+03  0.18203973238E+03  0.12700000000E+01 0.  1.
         -4   -1    0    0    0  501 -0.00000000000E+00 -0.00000000000E+00 -0.81598418693E+02  0.81608301252E+02  0.12700000000E+01 0.  1.
         25    2    1    2    0    0 -0.22417810018E+02 -0.28886763815E+02 -0.25325671212E+02  0.13267771825E+03  0.12499993587E+03 0.  0.
    9000005    1    3    3    0    0 -0.57289934657E+00 -0.26739300038E+02  0.48640005453E+02  0.55517281189E+02  0.10000000000E+01 0.  0.
    9000005    1    3    3    0    0 -0.21844910671E+02 -0.21474637771E+01 -0.73965676665E+02  0.77160437061E+02  0.10000000000E+01 0.  0.
         21    1    1    2  502  501  0.22417810018E+02  0.28886763815E+02  0.12576255477E+03  0.13097031539E+03  0.00000000000E+00 0.  1.
<mgrwt>
<rscale>  1 0.13023819E+03</rscale>
<asrwt>0</asrwt>
<pdfrwt beam="1">  1        4 0.28006532E-01 0.13023819E+03</pdfrwt>
<pdfrwt beam="2">  1       -4 0.12554704E-01 0.13023819E+03</pdfrwt>
<totfact> 0.10187445E+03</totfact>
</mgrwt>
</event>
<event>
 6    4  0.1195577E-003  0.1297178E+03  0.7818608E-02  0.1227875E+00
         -4   -1    0    0    0  501 -0.00000000000E+00  0.00000000000E+00  0.32771144338E+02  0.32795743645E+02  0.12700000000E+01 0. -1.
          4   -1    0    0  502    0  0.00000000000E+00 -0.00000000000E+00 -0.20606572559E+03  0.20606963911E+03  0.12700000000E+01 0. -1.
         25    2    1    2    0    0 -0.29729379896E+02  0.17836161470E+02 -0.13579959427E+03  0.18779838036E+03  0.12499894870E+03 0.  0.
    9000005    1    3    3    0    0 -0.26489773327E+02  0.25876136556E+01 -0.15823473647E+03  0.16046069818E+03  0.10000000000E+01 0.  0.
    9000005    1    3    3    0    0 -0.32396065688E+01  0.15248547815E+02  0.22435142201E+02  0.27337682176E+02  0.10000000000E+01 0.  0.
         21    1    1    2  502  501  0.29729379896E+02 -0.17836161470E+02 -0.37494986981E+02  0.51067002396E+02  0.00000000000E+00 0. -1.
<mgrwt>
<rscale>  1 0.12971778E+03</rscale>
<asrwt>0</asrwt>
<pdfrwt beam="2">  1        4 0.31704612E-01 0.12971778E+03</pdfrwt>
<pdfrwt beam="1">  1       -4 0.50439079E-02 0.12971778E+03</pdfrwt>
<totfact> 0.36493671E+03</totfact>
</mgrwt>
</event>
<event>
 6    4  0.1195577E-003  0.1278063E+03  0.7818608E-02  0.1230748E+00
         -4   -1    0    0    0  501 -0.00000000000E+00  0.00000000000E+00  0.70199384122E+02  0.70210871175E+02  0.12700000000E+01 0.  1.
          4   -1    0    0  502    0  0.00000000000E+00 -0.00000000000E+00 -0.10019553813E+04  0.10019561862E+04  0.12700000000E+01 0.  1.
         25    2    1    2    0    0  0.22859184388E+02 -0.13644573771E+02  0.11695241533E+02  0.12834029542E+03  0.12500294417E+03 0.  0.
    9000005    1    3    3    0    0 -0.11768451026E+02  0.26294791234E+02  0.53611988911E+02  0.60870007726E+02  0.10000000000E+01 0.  0.
    9000005    1    3    3    0    0  0.34627635415E+02 -0.39939365004E+02 -0.41916747378E+02  0.67470287699E+02  0.10000000000E+01 0.  0.
         21    1    1    2  502  501 -0.22859184388E+02  0.13644573771E+02 -0.94345123876E+03  0.94382676197E+03  0.00000000000E+00 0.  1.
<mgrwt>
<rscale>  1 0.12780631E+03</rscale>
<asrwt>0</asrwt>
<pdfrwt beam="2">  1        4 0.15414792E+00 0.12780631E+03</pdfrwt>
<pdfrwt beam="1">  1       -4 0.10800852E-01 0.12780631E+03</pdfrwt>
<totfact> 0.33173940E+01</totfact>
</mgrwt>
</event>
<event>
 6    4  0.1195577E-003  0.1377604E+03  0.7818608E-02  0.1216375E+00
          4   -1    0    0  502    0  0.00000000000E+00  0.00000000000E+00  0.28825294807E+03  0.28825574578E+03  0.12700000000E+01 0. -1.
         -4   -1    0    0    0  501 -0.00000000000E+00 -0.00000000000E+00 -0.37752877494E+02  0.37774232740E+02  0.12700000000E+01 0. -1.
         25    2    1    2    0    0 -0.29505642961E+02 -0.49821352406E+02  0.11784375043E+03  0.18128727784E+03  0.12500070988E+03 0.  0.
    9000005    1    3    3    0    0  0.14214668298E+02 -0.63245444817E+02  0.11901432221E+03  0.13552657295E+03  0.10000000000E+01 0.  0.
    9000005    1    3    3    0    0 -0.43720311259E+02  0.13424092411E+02 -0.11705717842E+01  0.45760704889E+02  0.10000000000E+01 0.  0.
         21    1    1    2  502  501  0.29505642961E+02  0.49821352406E+02  0.13265632016E+03  0.14474270068E+03  0.00000000000E+00 0. -1.
<mgrwt>
<rscale>  1 0.13776040E+03</rscale>
<asrwt>0</asrwt>
<pdfrwt beam="1">  1        4 0.44348465E-01 0.13776040E+03</pdfrwt>
<pdfrwt beam="2">  1       -4 0.58099929E-02 0.13776040E+03</pdfrwt>
<totfact> 0.15307814E+03</totfact>
</mgrwt>
</event>
<event>
 6    4  0.1195577E-003  0.1310856E+03  0.7818608E-02  0.1225854E+00
         -4   -1    0    0    0  501 -0.00000000000E+00  0.00000000000E+00  0.69428473876E+03  0.69428590032E+03  0.12700000000E+01 0.  1.
          4   -1    0    0  502    0  0.00000000000E+00 -0.00000000000E+00 -0.12228609832E+02  0.12294380766E+02  0.12700000000E+01 0.  1.
         25    2    1    2    0    0  0.35469949306E+02 -0.17328486443E+02  0.61458318426E+03  0.62840744688E+03  0.12500014064E+03 0.  0.
    9000005    1    3    3    0    0  0.36369661496E+01 -0.64893945802E+02  0.43747865243E+03  0.44228161058E+03  0.10000000000E+01 0.  0.
    9000005    1    3    3    0    0  0.31832983157E+02  0.47565459358E+02  0.17710453184E+03  0.18612583630E+03  0.10000000000E+01 0.  0.
         21    1    1    2  502  501 -0.35469949306E+02  0.17328486443E+02  0.67472944666E+02  0.78172834208E+02  0.00000000000E+00 0.  1.
<mgrwt>
<rscale>  1 0.13108558E+03</rscale>
<asrwt>0</asrwt>
<pdfrwt beam="2">  1        4 0.18864739E-02 0.13108558E+03</pdfrwt>
<pdfrwt beam="1">  1       -4 0.10681815E+00 0.13108558E+03</pdfrwt>
<totfact> 0.13377690E+03</totfact>
</mgrwt>
</event>
<event>
 6    4  0.1195577E-003  0.1420912E+03  0.7818608E-02  0.1210543E+00
          4   -1    0    0  502    0  0.00000000000E+00  0.00000000000E+00  0.83493986956E+03  0.83494083543E+03  0.12700000000E+01 0. -1.
         -4   -1    0    0    0  501 -0.00000000000E+00 -0.00000000000E+00 -0.15884935111E+02  0.15935622469E+02  0.12700000000E+01 0. -1.
         25    2    1    2    0    0 -0.51096113558E+02 -0.44210918976E+02  0.36258178949E+03  0.38942965680E+03  0.12499794139E+03 0.  0.
    9000005    1    3    3    0    0  0.38432630377E+01 -0.50126084019E+02  0.30684671218E+03  0.31093938276E+03  0.10000000000E+01 0.  0.
    9000005    1    3    3    0    0 -0.54939376596E+02  0.59151650433E+01  0.55735077303E+02  0.78490274049E+02  0.10000000000E+01 0.  0.
         21    1    1    2  502  501  0.51096113558E+02  0.44210918976E+02  0.45647314496E+03  0.46144680110E+03  0.00000000000E+00 0. -1.
<mgrwt>
<rscale>  1 0.14209118E+03</rscale>
<asrwt>0</asrwt>
<pdfrwt beam="1">  1        4 0.12845629E+00 0.14209118E+03</pdfrwt>
<pdfrwt beam="2">  1       -4 0.24478090E-02 0.14209118E+03</pdfrwt>
<totfact> 0.58495674E+02</totfact>
</mgrwt>
</event>
<event>
 6    4  0.1195577E-003  0.1338231E+03  0.7818608E-02  0.1221891E+00
         -4   -1    0    0    0  501 -0.00000000000E+00  0.00000000000E+00  0.17768149846E+03  0.17768603714E+03  0.12700000000E+01 0.  1.
          4   -1    0    0  502    0  0.00000000000E+00 -0.00000000000E+00 -0.46821748486E+02  0.46838969152E+02  0.12700000000E+01 0.  1.
         25    2    1    2    0    0  0.45632045089E+02 -0.14267304896E+02  0.10548158291E+03  0.17039653974E+03  0.12499110726E+03 0.  0.
    9000005    1    3    3    0    0 -0.16398193054E+02  0.98617151261E+01  0.10195261859E+03  0.10373760455E+03  0.10000000000E+01 0.  0.
    9000005    1    3    3    0    0  0.62030238143E+02 -0.24129020022E+02  0.35289643206E+01  0.66658935189E+02  0.10000000000E+01 0.  0.
         21    1    1    2  502  501 -0.45632045089E+02  0.14267304896E+02  0.25378167064E+02  0.54128466554E+02  0.00000000000E+00 0.  1.
<mgrwt>
<rscale>  1 0.13382308E+03</rscale>
<asrwt>0</asrwt>
<pdfrwt beam="2">  1        4 0.72050199E-02 0.13382308E+03</pdfrwt>
<pdfrwt beam="1">  1       -4 0.27337288E-01 0.13382308E+03</pdfrwt>
<totfact> 0.27230691E+03</totfact>
</mgrwt>
</event>
<event>
 6    4  0.1195577E-003  0.1578970E+03  0.7818608E-02  0.1191092E+00
         -4   -1    0    0    0  501 -0.00000000000E+00  0.00000000000E+00  0.69423984861E+01  0.70576055954E+01  0.12700000000E+01 0. -1.
          4   -1    0    0  502    0  0.00000000000E+00 -0.00000000000E+00 -0.23986508800E+04  0.23986512162E+04  0.12700000000E+01 0. -1.
         25    2    1    2    0    0  0.50834915319E+02 -0.81965588261E+02 -0.16983584443E+04  0.17056825220E+04  0.12501565643E+03 0.  0.
    9000005    1    3    3    0    0 -0.16156297381E+02 -0.52459899374E+02 -0.27411136654E+03  0.27955519715E+03  0.10000000000E+01 0.  0.
    9000005    1    3    3    0    0  0.66991212700E+02 -0.29505688887E+02 -0.14242470778E+04  0.14261273249E+04  0.10000000000E+01 0.  0.
         21    1    1    2  502  501 -0.50834915319E+02  0.81965588261E+02 -0.69335003719E+03  0.70002629975E+03  0.00000000000E+00 0. -1.
<mgrwt>
<rscale>  1 0.15789699E+03</rscale>
<asrwt>0</asrwt>
<pdfrwt beam="2">  1        4 0.36903144E+00 0.15789699E+03</pdfrwt>
<pdfrwt beam="1">  1       -4 0.10769512E-02 0.15789699E+03</pdfrwt>
<totfact> 0.64962320E+01</totfact>
</mgrwt>
</event>
<event>
 6    4  0.1195577E-003  0.1448431E+03  0.7818608E-02  0.1206957E+00
         -4   -1    0    0    0  501 -0.00000000000E+00  0.00000000000E+00  0.13121116390E+04  0.13121122536E+04  0.12700000000E+01 0. -1.
          4   -1    0    0  502    0  0.00000000000E+00 -0.00000000000E+00 -0.90155179263E+01  0.91045298330E+01  0.12700000000E+01 0. -1.
         25    2    1    2    0    0  0.70881766004E+02  0.18107699416E+02  0.88126727235E+03  0.89309099452E+03  0.12500962225E+03 0.  0.
    9000005    1    3    3    0    0  0.78559346108E+02 -0.32612503071E+02  0.68364234694E+03  0.68891436677E+03  0.10000000000E+01 0.  0.
    9000005    1    3    3    0    0 -0.76775801037E+01  0.50720202486E+02  0.19762492541E+03  0.20417662775E+03  0.10000000000E+01 0.  0.
         21    1    1    2  502  501 -0.70881766004E+02 -0.18107699416E+02  0.42182884875E+03  0.42812578895E+03  0.00000000000E+00 0. -1.
<mgrwt>
<rscale>  1 0.14484308E+03</rscale>
<asrwt>0</asrwt>
<pdfrwt beam="2">  1        4 0.13938962E-02 0.14484308E+03</pdfrwt>
<pdfrwt beam="1">  1       -4 0.20187035E+00 0.14484308E+03</pdfrwt>
<totfact> 0.42513831E+02</totfact>
</mgrwt>
</event>
<event>
 6    4  0.1195577E-003  0.1277754E+03  0.7818608E-02  0.1230794E+00
          4   -1    0    0  502    0  0.00000000000E+00  0.00000000000E+00  0.85582876007E+03  0.85582970237E+03  0.12700000000E+01 0. -1.
         -4   -1    0    0    0  501 -0.00000000000E+00 -0.00000000000E+00 -0.99886990970E+01  0.10069111661E+02  0.12700000000E+01 0. -1.
         25    2    1    2    0    0  0.19610059562E+02 -0.17809866108E+02  0.41453104605E+03  0.43377705791E+03  0.12499920823E+03 0.  0.
    9000005    1    3    3    0    0 -0.27331609673E+02 -0.51625962726E+02  0.29797967436E+03  0.30365299808E+03  0.10000000000E+01 0.  0.
    9000005    1    3    3    0    0  0.46941669235E+02  0.33816096618E+02  0.11655137170E+03  0.13012405983E+03  0.10000000000E+01 0.  0.
         21    1    1    2  502  501 -0.19610059562E+02  0.17809866108E+02  0.43130901492E+03  0.43212175612E+03  0.00000000000E+00 0. -1.
<mgrwt>
<rscale>  1 0.12777538E+03</rscale>
<asrwt>0</asrwt>
<pdfrwt beam="1">  1        4 0.13167224E+00 0.12777538E+03</pdfrwt>
<pdfrwt beam="2">  1       -4 0.15429808E-02 0.12777538E+03</pdfrwt>
<totfact> 0.10966140E+03</totfact>
</mgrwt>
</event>
<event>
 6    4  0.1195577E-003  0.1269447E+03  0.7818608E-02  0.1232061E+00
          4   -1    0    0  502    0  0.00000000000E+00  0.00000000000E+00  0.33942218132E+02  0.33965969318E+02  0.12700000000E+01 0. -1.
         -4   -1    0    0    0  501 -0.00000000000E+00 -0.00000000000E+00 -0.17776906357E+03  0.17777360002E+03  0.12700000000E+01 0. -1.
         25    2    1    2    0    0 -0.14532741491E+02  0.16669833174E+02 -0.14053494841E+03  0.18938066732E+03  0.12500352601E+03 0.  0.
    9000005    1    3    3    0    0  0.41411872335E+02  0.12416585359E+02 -0.60601481955E+01  0.43667380943E+02  0.10000000000E+01 0.  0.
    9000005    1    3    3    0    0 -0.55944613825E+02  0.42532478152E+01 -0.13447480022E+03  0.14571328638E+03  0.10000000000E+01 0.  0.
         21    1    1    2  502  501  0.14532741491E+02 -0.16669833174E+02 -0.32918970252E+01  0.22358902015E+02  0.00000000000E+00 0. -1.
<mgrwt>
<rscale>  1 0.12694473E+03</rscale>
<asrwt>0</asrwt>
<pdfrwt beam="1">  1        4 0.52240558E-02 0.12694473E+03</pdfrwt>
<pdfrwt beam="2">  1       -4 0.27351262E-01 0.12694473E+03</pdfrwt>
<totfact> 0.45308607E+03</totfact>
</mgrwt>
</event>
<event>
 6    4  0.1195577E-003  0.1281064E+03  0.7818608E-02  0.1230293E+00
          4   -1    0    0  502    0  0.00000000000E+00  0.00000000000E+00  0.21652855811E+02  0.21690068344E+02  0.12700000000E+01 0.  1.
         -4   -1    0    0    0  501 -0.00000000000E+00 -0.00000000000E+00 -0.37892653405E+03  0.37892866230E+03  0.12700000000E+01 0.  1.
         25    2    1    2    0    0 -0.25532268292E+02 -0.11342769669E+02 -0.34855523511E+03  0.37135157501E+03  0.12502273871E+03 0.  0.
    9000005    1    3    3    0    0 -0.72100029893E+02  0.91636683389E+01 -0.25108805033E+03  0.26139739124E+03  0.10000000000E+01 0.  0.
    9000005    1    3    3    0    0  0.46567761602E+02 -0.20506438008E+02 -0.97467184779E+02  0.10995418377E+03  0.10000000000E+01 0.  0.
         21    1    1    2  502  501  0.25532268292E+02  0.11342769669E+02 -0.87184431334E+01  0.29267155628E+02  0.00000000000E+00 0.  1.
<mgrwt>
<rscale>  1 0.12810636E+03</rscale>
<asrwt>0</asrwt>
<pdfrwt beam="1">  1        4 0.33342351E-02 0.12810636E+03</pdfrwt>
<pdfrwt beam="2">  1       -4 0.58299411E-01 0.12810636E+03</pdfrwt>
<totfact> 0.20905062E+03</totfact>
</mgrwt>
</event>
<event>
 6    4  0.1195577E-003  0.1362628E+03  0.7818608E-02  0.1218448E+00
         -4   -1    0    0    0  501 -0.00000000000E+00  0.00000000000E+00  0.50847158269E+03  0.50847316872E+03  0.12700000000E+01 0.  1.
          4   -1    0    0  502    0  0.00000000000E+00 -0.00000000000E+00 -0.17847940047E+02  0.17893067482E+02  0.12700000000E+01 0.  1.
         25    2    1    2    0    0  0.44769563293E+02 -0.30632218517E+02  0.34141646514E+03  0.36760406052E+03  0.12499958412E+03 0.  0.
    9000005    1    3    3    0    0  0.32967978291E+02 -0.79243063510E+02  0.22894868716E+03  0.24450941099E+03  0.10000000000E+01 0.  0.
    9000005    1    3    3    0    0  0.11801585002E+02  0.48610844994E+02  0.11246777798E+03  0.12309464953E+03  0.10000000000E+01 0.  0.
         21    1    1    2  502  501 -0.44769563293E+02  0.30632218517E+02  0.14920717750E+03  0.15876217568E+03  0.00000000000E+00 0.  1.
<mgrwt>
<rscale>  1 0.13626277E+03</rscale>
<asrwt>0</asrwt>
<pdfrwt beam="2">  1        4 0.27494306E-02 0.13626277E+03</pdfrwt>
<pdfrwt beam="1">  1       -4 0.78229982E-01 0.13626277E+03</pdfrwt>
<totfact> 0.15266508E+03</totfact>
</mgrwt>
</event>
<event>
 6    4  0.1195577E-003  0.1271663E+03  0.7818608E-02  0.1231722E+00
          4   -1    0    0  502    0  0.00000000000E+00  0.00000000000E+00  0.25286975616E+02  0.25318847443E+02  0.12700000000E+01 0. -1.
         -4   -1    0    0    0  501 -0.00000000000E+00 -0.00000000000E+00 -0.23862689079E+03  0.23863027031E+03  0.12700000000E+01 0. -1.
         25    2    1    2    0    0 -0.19900300640E+02  0.12225201411E+02 -0.20013628322E+03  0.23711977911E+03  0.12500312104E+03 0.  0.
    9000005    1    3    3    0    0  0.29154469571E+02  0.47815962715E+02 -0.49517373395E+02  0.74761752616E+02  0.10000000000E+01 0.  0.
    9000005    1    3    3    0    0 -0.49054770211E+02 -0.35590761304E+02 -0.15061890982E+03  0.16235802649E+03  0.10000000000E+01 0.  0.
         21    1    1    2  502  501  0.19900300640E+02 -0.12225201411E+02 -0.13203631953E+02  0.26829338640E+02  0.00000000000E+00 0.  1.
<mgrwt>
<rscale>  1 0.12716626E+03</rscale>
<asrwt>0</asrwt>
<pdfrwt beam="1">  1        4 0.38930157E-02 0.12716626E+03</pdfrwt>
<pdfrwt beam="2">  1       -4 0.36714539E-01 0.12716626E+03</pdfrwt>
<totfact> 0.41411844E+03</totfact>
</mgrwt>
</event>
<event>
 6    4  0.1195577E-003  0.1401249E+03  0.7818608E-02  0.1213161E+00
         -4   -1    0    0    0  501 -0.00000000000E+00  0.00000000000E+00  0.35656227884E+03  0.35656454057E+03  0.12700000000E+01 0.  1.
          4   -1    0    0  502    0  0.00000000000E+00 -0.00000000000E+00 -0.79254431940E+02  0.79264606743E+02  0.12700000000E+01 0.  1.
         25    2    1    2    0    0  0.63240491269E+02 -0.31535319564E+01  0.32672710305E+03  0.35550749781E+03  0.12500270652E+03 0.  0.
    9000005    1    3    3    0    0  0.54225302574E+02 -0.10009457354E+02  0.38978643582E+02  0.67534489938E+02  0.10000000000E+01 0.  0.
    9000005    1    3    3    0    0  0.90151886947E+01  0.68559253977E+01  0.28774845947E+03  0.28797300788E+03  0.10000000000E+01 0.  0.
         21    1    1    2  502  501 -0.63240491269E+02  0.31535319564E+01 -0.49419256148E+02  0.80321649497E+02  0.00000000000E+00 0.  1.
<mgrwt>
<rscale>  1 0.14012488E+03</rscale>
<asrwt>0</asrwt>
<pdfrwt beam="2">  1        4 0.12193946E-01 0.14012488E+03</pdfrwt>
<pdfrwt beam="1">  1       -4 0.54856692E-01 0.14012488E+03</pdfrwt>
<totfact> 0.28999418E+02</totfact>
</mgrwt>
</event>
<event>
 6    4  0.1195577E-003  0.1435376E+03  0.7818608E-02  0.1208647E+00
         -4   -1    0    0    0  501 -0.00000000000E+00  0.00000000000E+00  0.12624289011E+02  0.12688009025E+02  0.12700000000E+01 0.  1.
          4   -1    0    0  502    0  0.00000000000E+00 -0.00000000000E+00 -0.92256032179E+03  0.92256119594E+03  0.12700000000E+01 0.  1.
         25    2    1    2    0    0 -0.25618582685E+02 -0.65741747644E+02 -0.66727205830E+03  0.68253574336E+03  0.12499900806E+03 0.  0.
    9000005    1    3    3    0    0 -0.39826712459E+02 -0.87425244526E+02 -0.31539019749E+03  0.32969882784E+03  0.10000000000E+01 0.  0.
    9000005    1    3    3    0    0  0.14208129774E+02  0.21683496882E+02 -0.35188186081E+03  0.35283691552E+03  0.10000000000E+01 0.  0.
         21    1    1    2  502  501  0.25618582685E+02  0.65741747644E+02 -0.24266397449E+03  0.25271346160E+03  0.00000000000E+00 0.  1.
<mgrwt>
<rscale>  1 0.14353760E+03</rscale>
<asrwt>0</asrwt>
<pdfrwt beam="2">  1        4 0.14193727E+00 0.14353760E+03</pdfrwt>
<pdfrwt beam="1">  1       -4 0.19471678E-02 0.14353760E+03</pdfrwt>
<totfact> 0.65223298E+02</totfact>
</mgrwt>
</event>
<event>
 6    4  0.1195577E-003  0.1269581E+03  0.7818608E-02  0.1232040E+00
          4   -1    0    0  502    0  0.00000000000E+00  0.00000000000E+00  0.15796960347E+02  0.15847929083E+02  0.12700000000E+01 0. -1.
         -4   -1    0    0    0  501 -0.00000000000E+00 -0.00000000000E+00 -0.44175177460E+03  0.44175360017E+03  0.12700000000E+01 0. -1.
         25    2    1    2    0    0  0.37679293204E+01  0.21889631400E+02 -0.41258470816E+03  0.43167638719E+03  0.12500003437E+03 0.  0.
    9000005    1    3    3    0    0 -0.23043273094E+02 -0.47363197171E+02 -0.17374015756E+03  0.18155139005E+03  0.10000000000E+01 0.  0.
    9000005    1    3    3    0    0  0.26811202414E+02  0.69252828572E+02 -0.23884455060E+03  0.25012499714E+03  0.10000000000E+01 0.  0.
         21    1    1    2  502  501 -0.37679293204E+01 -0.21889631400E+02 -0.13370106095E+02  0.25925142067E+02  0.00000000000E+00 0. -1.
<mgrwt>
<rscale>  1 0.12695811E+03</rscale>
<asrwt>0</asrwt>
<pdfrwt beam="1">  1        4 0.24343630E-02 0.12695811E+03</pdfrwt>
<pdfrwt beam="2">  1       -4 0.67965863E-01 0.12695811E+03</pdfrwt>
<totfact> 0.24642393E+03</totfact>
</mgrwt>
</event>
<event>
 6    4  0.1195577E-003  0.1271460E+03  0.7818608E-02  0.1231753E+00
         -4   -1    0    0    0  501 -0.00000000000E+00  0.00000000000E+00  0.25534494381E+03  0.25534810207E+03  0.12700000000E+01 0.  1.
          4   -1    0    0  502    0  0.00000000000E+00 -0.00000000000E+00 -0.27548436743E+02  0.27577695099E+02  0.12700000000E+01 0.  1.
         25    2    1    2    0    0 -0.63300437542E+01 -0.22383145603E+02  0.22635484566E+03  0.25962015303E+03  0.12500013218E+03 0.  0.
    9000005    1    3    3    0    0 -0.20740606781E+02 -0.63729619863E+02  0.19375803109E+03  0.20502392990E+03  0.10000000000E+01 0.  0.
    9000005    1    3    3    0    0  0.14410563027E+02  0.41346474260E+02  0.32596814565E+02  0.54596223132E+02  0.10000000000E+01 0.  0.
         21    1    1    2  502  501  0.63300437542E+01  0.22383145603E+02  0.14416614085E+01  0.23305644137E+02  0.00000000000E+00 0.  1.
<mgrwt>
<rscale>  1 0.12714601E+03</rscale>
<asrwt>0</asrwt>
<pdfrwt beam="2">  1        4 0.42407146E-02 0.12714601E+03</pdfrwt>
<pdfrwt beam="1">  1       -4 0.39286331E-01 0.12714601E+03</pdfrwt>
<totfact> 0.31680948E+03</totfact>
</mgrwt>
</event>
<event>
 6    4  0.1195577E-003  0.1277489E+03  0.7818608E-02  0.1230835E+00
         -4   -1    0    0    0  501 -0.00000000000E+00  0.00000000000E+00  0.11426347986E+02  0.11496709455E+02  0.12700000000E+01 0. -1.
          4   -1    0    0  502    0  0.00000000000E+00 -0.00000000000E+00 -0.61010282325E+03  0.61010414507E+03  0.12700000000E+01 0. -1.
         25    2    1    2    0    0  0.35301288527E+01 -0.26129624405E+02 -0.37049241691E+03  0.39189847412E+03  0.12499825577E+03 0.  0.
    9000005    1    3    3    0    0 -0.40434020664E+02 -0.24343982838E+02 -0.51415085555E+02  0.69800075574E+02  0.10000000000E+01 0.  0.
    9000005    1    3    3    0    0  0.43964149516E+02 -0.17856415669E+01 -0.31907733135E+03  0.32209839854E+03  0.10000000000E+01 0.  0.
         21    1    1    2  502  501 -0.35301288527E+01  0.26129624405E+02 -0.22818405835E+03  0.22970238041E+03  0.00000000000E+00 0. -1.
<mgrwt>
<rscale>  1 0.12774891E+03</rscale>
<asrwt>0</asrwt>
<pdfrwt beam="2">  1        4 0.93867462E-01 0.12774891E+03</pdfrwt>
<pdfrwt beam="1">  1       -4 0.17634143E-02 0.12774891E+03</pdfrwt>
<totfact> 0.19883882E+03</totfact>
</mgrwt>
</event>
<event>
 6    4  0.1195577E-003  0.1279150E+03  0.7818608E-02  0.1230583E+00
          4   -1    0    0  502    0  0.00000000000E+00  0.00000000000E+00  0.11527581706E+02  0.11597329002E+02  0.12700000000E+01 0. -1.
         -4   -1    0    0    0  501 -0.00000000000E+00 -0.00000000000E+00 -0.80347722282E+03  0.80347822652E+03  0.12700000000E+01 0. -1.
         25    2    1    2    0    0  0.97197883105E-01  0.27198739591E+02 -0.76877046531E+03  0.77933964817E+03  0.12498991161E+03 0.  0.
    9000005    1    3    3    0    0  0.19382371395E+02  0.46908099103E+02 -0.72994330274E+03  0.73170641059E+03  0.10000000000E+01 0.  0.
    9000005    1    3    3    0    0 -0.19285173512E+02 -0.19709359512E+02 -0.38827162564E+02  0.47633237582E+02  0.10000000000E+01 0.  0.
         21    1    1    2  502  501 -0.97197883105E-01 -0.27198739591E+02 -0.23179175804E+02  0.35735907344E+02  0.00000000000E+00 0. -1.
<mgrwt>
<rscale>  1 0.12791505E+03</rscale>
<asrwt>0</asrwt>
<pdfrwt beam="1">  1        4 0.17789171E-02 0.12791505E+03</pdfrwt>
<pdfrwt beam="2">  1       -4 0.12361728E+00 0.12791505E+03</pdfrwt>
<totfact> 0.10291149E+03</totfact>
</mgrwt>
</event>
<event>
 6    4  0.1195577E-003  0.1267349E+03  0.7818608E-02  0.1232383E+00
         -4   -1    0    0    0  501 -0.00000000000E+00  0.00000000000E+00  0.18255431481E+02  0.18299554053E+02  0.12700000000E+01 0. -1.
          4   -1    0    0  502    0  0.00000000000E+00 -0.00000000000E+00 -0.33440786574E+03  0.33441027730E+03  0.12700000000E+01 0. -1.
         25    2    1    2    0    0  0.20792220153E+02 -0.20767300300E+01 -0.21629520662E+03  0.25068975912E+03  0.12500043879E+03 0.  0.
    9000005    1    3    3    0    0  0.66957635396E+02  0.13501368352E+02 -0.76087596991E+02  0.10225426300E+03  0.10000000000E+01 0.  0.
    9000005    1    3    3    0    0 -0.46165415242E+02 -0.15578098382E+02 -0.14020760963E+03  0.14843549613E+03  0.10000000000E+01 0.  0.
         21    1    1    2  502  501 -0.20792220153E+02  0.20767300300E+01 -0.99857227640E+02  0.10202007223E+03  0.00000000000E+00 0. -1.
<mgrwt>
<rscale>  1 0.12673492E+03</rscale>
<asrwt>0</asrwt>
<pdfrwt beam="2">  1        4 0.51450939E-01 0.12673492E+03</pdfrwt>
<pdfrwt beam="1">  1       -4 0.28121077E-02 0.12673492E+03</pdfrwt>
<totfact> 0.35239320E+03</totfact>
</mgrwt>
</event>
<event>
 6    4  0.1195577E-003  0.1305026E+03  0.7818608E-02  0.1226712E+00
          4   -1    0    0  502    0  0.00000000000E+00  0.00000000000E+00  0.18083016595E+03  0.18083462561E+03  0.12700000000E+01 0.  1.
         -4   -1    0    0    0  501 -0.00000000000E+00 -0.00000000000E+00 -0.46840817579E+02  0.46858031238E+02  0.12700000000E+01 0.  1.
         25    2    1    2    0    0 -0.34944322378E+02 -0.13664854300E+02  0.57727660682E+02  0.14270042826E+03  0.12499238181E+03 0.  0.
    9000005    1    3    3    0    0 -0.93370472705E+00  0.50681614974E+01  0.91245566250E+02  0.91396451932E+02  0.10000000000E+01 0.  0.
    9000005    1    3    3    0    0 -0.34010617651E+02 -0.18733015797E+02 -0.33517905568E+02  0.51303976333E+02  0.10000000000E+01 0.  0.
         21    1    1    2  502  501  0.34944322378E+02  0.13664854300E+02  0.76261687692E+02  0.84992228581E+02  0.00000000000E+00 0.  1.
<mgrwt>
<rscale>  1 0.13050260E+03</rscale>
<asrwt>0</asrwt>
<pdfrwt beam="1">  1        4 0.27821692E-01 0.13050260E+03</pdfrwt>
<pdfrwt beam="2">  1       -4 0.72079470E-02 0.13050260E+03</pdfrwt>
<totfact> 0.26179816E+03</totfact>
</mgrwt>
</event>
<event>
 6    4  0.1195577E-003  0.1326835E+03  0.7818608E-02  0.1223527E+00
         -4   -1    0    0    0  501 -0.00000000000E+00  0.00000000000E+00  0.38145982264E+02  0.38167117560E+02  0.12700000000E+01 0.  1.
          4   -1    0    0  502    0  0.00000000000E+00 -0.00000000000E+00 -0.20579820871E+03  0.20580212732E+03  0.12700000000E+01 0.  1.
         25    2    1    2    0    0  0.78013151345E+01  0.43805368685E+02 -0.12829850591E+03  0.18456818290E+03  0.12500054671E+03 0.  0.
    9000005    1    3    3    0    0 -0.57638336819E+02  0.24385372012E+02 -0.46211078158E+02  0.77802879021E+02  0.10000000000E+01 0.  0.
    9000005    1    3    3    0    0  0.65439651954E+02  0.19419996673E+02 -0.82087427751E+02  0.10676530388E+03  0.10000000000E+01 0.  0.
         21    1    1    2  502  501 -0.78013151345E+01 -0.43805368685E+02 -0.39353720542E+02  0.59401061977E+02  0.00000000000E+00 0.  1.
<mgrwt>
<rscale>  1 0.13268349E+03</rscale>
<asrwt>0</asrwt>
<pdfrwt beam="2">  1        4 0.31663189E-01 0.13268349E+03</pdfrwt>
<pdfrwt beam="1">  1       -4 0.58705400E-02 0.13268349E+03</pdfrwt>
<totfact> 0.28791251E+03</totfact>
</mgrwt>
</event>
<event>
 6    4  0.1195577E-003  0.1495553E+03  0.7818608E-02  0.1201021E+00
          4   -1    0    0  502    0  0.00000000000E+00  0.00000000000E+00  0.19826000040E+03  0.19826406799E+03  0.12700000000E+01 0. -1.
         -4   -1    0    0    0  501 -0.00000000000E+00 -0.00000000000E+00 -0.84737989220E+02  0.84747505669E+02  0.12700000000E+01 0. -1.
         25    2    1    2    0    0 -0.33682093019E+02  0.74876346568E+02  0.86251209440E+01  0.14980381020E+03  0.12500335265E+03 0.  0.
    9000005    1    3    3    0    0 -0.72654138934E+02  0.81047511558E+02  0.14806500885E+02  0.10985242602E+03  0.10000000000E+01 0.  0.
    9000005    1    3    3    0    0  0.38972045915E+02 -0.61711649899E+01 -0.61813799410E+01  0.39951384183E+02  0.10000000000E+01 0.  0.
         21    1    1    2  502  501  0.33682093019E+02 -0.74876346568E+02  0.10489689023E+03  0.13320776346E+03  0.00000000000E+00 0. -1.
<mgrwt>
<rscale>  1 0.14955530E+03</rscale>
<asrwt>0</asrwt>
<pdfrwt beam="1">  1        4 0.30502583E-01 0.14955530E+03</pdfrwt>
<pdfrwt beam="2">  1       -4 0.13037659E-01 0.14955530E+03</pdfrwt>
<totfact> 0.83609626E+02</totfact>
</mgrwt>
</event>
<event>
 6    4  0.1195577E-003  0.1280315E+03  0.7818608E-02  0.1230406E+00
         -4   -1    0    0    0  501 -0.00000000000E+00  0.00000000000E+00  0.54487750260E+03  0.54487898266E+03  0.12700000000E+01 0. -1.
          4   -1    0    0  502    0  0.00000000000E+00 -0.00000000000E+00 -0.11110333647E+02  0.11182683656E+02  0.12700000000E+01 0. -1.
         25    2    1    2    0    0 -0.18733035243E+01 -0.27648866587E+02  0.42975048570E+03  0.44841669669E+03  0.12499633923E+03 0.  0.
    9000005    1    3    3    0    0  0.23550509319E+02 -0.53718173450E+02  0.39044234476E+03  0.39482463605E+03  0.10000000000E+01 0.  0.
    9000005    1    3    3    0    0 -0.25423812843E+02  0.26069306863E+02  0.39308140938E+02  0.53592060641E+02  0.10000000000E+01 0.  0.
         21    1    1    2  502  501  0.18733035243E+01  0.27648866587E+02  0.10401668326E+03  0.10764496962E+03  0.00000000000E+00 0.  1.
<mgrwt>
<rscale>  1 0.12803146E+03</rscale>
<asrwt>0</asrwt>
<pdfrwt beam="2">  1        4 0.17149615E-02 0.12803146E+03</pdfrwt>
<pdfrwt beam="1">  1       -4 0.83832977E-01 0.12803146E+03</pdfrwt>
<totfact> 0.26775801E+03</totfact>
</mgrwt>
</event>
<event>
 6    4  0.1195577E-003  0.1290055E+03  0.7818608E-02  0.1228939E+00
          4   -1    0    0  502    0  0.00000000000E+00  0.00000000000E+00  0.29756782711E+03  0.29757053723E+03  0.12700000000E+01 0.  1.
         -4   -1    0    0    0  501 -0.00000000000E+00 -0.00000000000E+00 -0.21824191728E+02  0.21861112610E+02  0.12700000000E+01 0.  1.
         25    2    1    2    0    0 -0.27786838514E+02  0.15657135593E+02  0.21230780773E+03  0.24842912511E+03  0.12500068275E+03 0.  0.
    9000005    1    3    3    0    0  0.32966484408E+02  0.67874804726E+01  0.73436433485E+01  0.34464301575E+02  0.10000000000E+01 0.  0.
    9000005    1    3    3    0    0 -0.60753322922E+02  0.88696551201E+01  0.20496416438E+03  0.21396482353E+03  0.10000000000E+01 0.  0.
         21    1    1    2  502  501  0.27786838514E+02 -0.15657135593E+02  0.63435827651E+02  0.71002524739E+02  0.00000000000E+00 0. -1.
<mgrwt>
<rscale>  1 0.12900552E+03</rscale>
<asrwt>0</asrwt>
<pdfrwt beam="1">  1        4 0.45782711E-01 0.12900552E+03</pdfrwt>
<pdfrwt beam="2">  1       -4 0.33606167E-02 0.12900552E+03</pdfrwt>
<totfact> 0.33910685E+03</totfact>
</mgrwt>
</event>
<event>
 6    4  0.1195577E-003  0.1269289E+03  0.7818608E-02  0.1232085E+00
         -4   -1    0    0    0  501 -0.00000000000E+00  0.00000000000E+00  0.26952199644E+03  0.26952498858E+03  0.12700000000E+01 0. -1.
          4   -1    0    0  502    0  0.00000000000E+00 -0.00000000000E+00 -0.14377675817E+03  0.14378236710E+03  0.12700000000E+01 0. -1.
         25    2    1    2    0    0 -0.20720206596E+02  0.75223944379E+01  0.25358678372E+03  0.28357927806E+03  0.12500014675E+03 0.  0.
    9000005    1    3    3    0    0 -0.61016808332E+02  0.30789178602E+02  0.87147953897E+02  0.11075554292E+03  0.10000000000E+01 0.  0.
    9000005    1    3    3    0    0  0.40296601735E+02 -0.23266784164E+02  0.16643882982E+03  0.17282373515E+03  0.10000000000E+01 0.  0.
         21    1    1    2  502  501  0.20720206596E+02 -0.75223944379E+01 -0.12784154545E+03  0.12972807762E+03  0.00000000000E+00 0. -1.
<mgrwt>
<rscale>  1 0.12692892E+03</rscale>
<asrwt>0</asrwt>
<pdfrwt beam="2">  1        4 0.22120163E-01 0.12692892E+03</pdfrwt>
<pdfrwt beam="1">  1       -4 0.41465584E-01 0.12692892E+03</pdfrwt>
<totfact> 0.17559360E+02</totfact>
</mgrwt>
</event>
<event>
 6    4  0.1195577E-003  0.1270476E+03  0.7818608E-02  0.1231903E+00
         -4   -1    0    0    0  501 -0.00000000000E+00  0.00000000000E+00  0.77242642580E+02  0.77253082351E+02  0.12700000000E+01 0. -1.
          4   -1    0    0  502    0  0.00000000000E+00 -0.00000000000E+00 -0.72904239743E+02  0.72915300675E+02  0.12700000000E+01 0. -1.
         25    2    1    2    0    0 -0.14758686483E+02  0.17267322701E+02  0.26751994209E-01  0.12704762195E+03  0.12500047306E+03 0.  0.
    9000005    1    3    3    0    0  0.19438401995E+02 -0.92916915172E+01 -0.53798481711E+02  0.57960880236E+02  0.10000000000E+01 0.  0.
    9000005    1    3    3    0    0 -0.34197088478E+02  0.26559014218E+02  0.53825233705E+02  0.69086741709E+02  0.10000000000E+01 0.  0.
         21    1    1    2  502  501  0.14758686483E+02 -0.17267322701E+02  0.43116508432E+01  0.23120761080E+02  0.00000000000E+00 0. -1.
<mgrwt>
<rscale>  1 0.12704762E+03</rscale>
<asrwt>0</asrwt>
<pdfrwt beam="2">  1        4 0.11217691E-01 0.12704762E+03</pdfrwt>
<pdfrwt beam="1">  1       -4 0.11885137E-01 0.12704762E+03</pdfrwt>
<totfact> 0.56553083E+03</totfact>
</mgrwt>
</event>
<event>
 6    4  0.1195577E-003  0.1404452E+03  0.7818608E-02  0.1212731E+00
          4   -1    0    0  502    0  0.00000000000E+00  0.00000000000E+00  0.20632624676E+03  0.20633015533E+03  0.12700000000E+01 0.  1.
         -4   -1    0    0    0  501 -0.00000000000E+00 -0.00000000000E+00 -0.50855326464E+02  0.50871181722E+02  0.12700000000E+01 0.  1.
         25    2    1    2    0    0 -0.27950933882E+02 -0.57621390960E+02  0.11416777774E+03  0.18099484793E+03  0.12499349623E+03 0.  0.
    9000005    1    3    3    0    0 -0.16877874534E+02 -0.67952996847E+02  0.43786032264E+01  0.70161560669E+02  0.10000000000E+01 0.  0.
    9000005    1    3    3    0    0 -0.11073059348E+02  0.10331605887E+02  0.10978917451E+03  0.11083328726E+03  0.10000000000E+01 0.  0.
         21    1    1    2  502  501  0.27950933882E+02  0.57621390960E+02  0.41303142551E+02  0.76206489131E+02  0.00000000000E+00 0.  1.
<mgrwt>
<rscale>  1 0.14044520E+03</rscale>
<asrwt>0</asrwt>
<pdfrwt beam="1">  1        4 0.31744020E-01 0.14044520E+03</pdfrwt>
<pdfrwt beam="2">  1       -4 0.78254167E-02 0.14044520E+03</pdfrwt>
<totfact> 0.18118908E+03</totfact>
</mgrwt>
</event>
<event>
 6    4  0.1195577E-003  0.1377946E+03  0.7818608E-02  0.1216328E+00
         -4   -1    0    0    0  501 -0.00000000000E+00  0.00000000000E+00  0.27827928652E+03  0.27828218449E+03  0.12700000000E+01 0.  1.
          4   -1    0    0  502    0  0.00000000000E+00 -0.00000000000E+00 -0.45990541392E+02  0.46008073178E+02  0.12700000000E+01 0.  1.
         25    2    1    2    0    0 -0.45978308525E+02  0.35329897617E+02  0.22766990182E+03  0.26612205129E+03  0.12500062187E+03 0.  0.
    9000005    1    3    3    0    0  0.95387337021E+01 -0.41645511979E+02  0.76456378929E+02  0.87589462766E+02  0.10000000000E+01 0.  0.
    9000005    1    3    3    0    0 -0.55517042227E+02  0.76975409597E+02  0.15121352289E+03  0.17853258852E+03  0.10000000000E+01 0.  0.
         21    1    1    2  502  501  0.45978308525E+02 -0.35329897617E+02  0.46188433131E+01  0.58168206385E+02  0.00000000000E+00 0.  1.
<mgrwt>
<rscale>  1 0.13779464E+03</rscale>
<asrwt>0</asrwt>
<pdfrwt beam="2">  1        4 0.70770395E-02 0.13779464E+03</pdfrwt>
<pdfrwt beam="1">  1       -4 0.42813769E-01 0.13779464E+03</pdfrwt>
<totfact> 0.11900033E+03</totfact>
</mgrwt>
</event>
<event>
 6    4  0.1195577E-003  0.1291967E+03  0.7818608E-02  0.1228653E+00
          4   -1    0    0  502    0  0.00000000000E+00  0.00000000000E+00  0.68900234191E+02  0.68911937801E+02  0.12700000000E+01 0. -1.
         -4   -1    0    0    0  501 -0.00000000000E+00 -0.00000000000E+00 -0.97180520961E+02  0.97188819080E+02  0.12700000000E+01 0. -1.
         25    2    1    2    0    0  0.20344811474E+02 -0.25559804208E+02 -0.32335573668E+02  0.13318176089E+03  0.12499830865E+03 0.  0.
    9000005    1    3    3    0    0  0.27432723392E+02 -0.11957763277E+02  0.45155596474E+02  0.54180903538E+02  0.10000000000E+01 0.  0.
    9000005    1    3    3    0    0 -0.70879119180E+01 -0.13602040930E+02 -0.77491170142E+02  0.79000857355E+02  0.10000000000E+01 0.  0.
         21    1    1    2  502  501 -0.20344811474E+02  0.25559804208E+02  0.40552868976E+01  0.32918995988E+02  0.00000000000E+00 0. -1.
<mgrwt>
<rscale>  1 0.12919672E+03</rscale>
<asrwt>0</asrwt>
<pdfrwt beam="1">  1        4 0.10601575E-01 0.12919672E+03</pdfrwt>
<pdfrwt beam="2">  1       -4 0.14952388E-01 0.12919672E+03</pdfrwt>
<totfact> 0.42061965E+03</totfact>
</mgrwt>
</event>
<event>
 6    4  0.1195577E-003  0.1480507E+03  0.7818608E-02  0.1202889E+00
         -4   -1    0    0    0  501 -0.00000000000E+00  0.00000000000E+00  0.83173978626E+02  0.83183674002E+02  0.12700000000E+01 0. -1.
          4   -1    0    0  502    0  0.00000000000E+00 -0.00000000000E+00 -0.17220737940E+03  0.17221206235E+03  0.12700000000E+01 0. -1.
         25    2    1    2    0    0  0.22528584834E+02 -0.76068430380E+02 -0.18428731434E+02  0.14919327608E+03  0.12500028900E+03 0.  0.
    9000005    1    3    3    0    0  0.14805801617E+02 -0.10834005355E+03  0.34984811663E+01  0.10940757897E+03  0.10000000000E+01 0.  0.
    9000005    1    3    3    0    0  0.77227832169E+01  0.32271623170E+02 -0.21927212600E+02  0.39785697116E+02  0.10000000000E+01 0.  0.
         21    1    1    2  502  501 -0.22528584834E+02  0.76068430380E+02 -0.70604669336E+02  0.10620246027E+03  0.00000000000E+00 0. -1.
<mgrwt>
<rscale>  1 0.14805072E+03</rscale>
<asrwt>0</asrwt>
<pdfrwt beam="2">  1        4 0.26494549E-01 0.14805072E+03</pdfrwt>
<pdfrwt beam="1">  1       -4 0.12797103E-01 0.14805072E+03</pdfrwt>
<totfact> 0.11229367E+03</totfact>
</mgrwt>
</event>
<event>
 6    4  0.1195577E-003  0.1340304E+03  0.7818608E-02  0.1221595E+00
          4   -1    0    0  502    0  0.00000000000E+00  0.00000000000E+00  0.49272408698E+02  0.49288773153E+02  0.12700000000E+01 0. -1.
         -4   -1    0    0    0  501 -0.00000000000E+00 -0.00000000000E+00 -0.19632655177E+03  0.19633065943E+03  0.12700000000E+01 0. -1.
         25    2    1    2    0    0 -0.44439218792E+02  0.19089005624E+02 -0.14464159264E+03  0.19719366772E+03  0.12499967186E+03 0.  0.
    9000005    1    3    3    0    0 -0.42728991884E+02 -0.49371213044E+02 -0.76500793316E+02  0.10058158282E+03  0.10000000000E+01 0.  0.
    9000005    1    3    3    0    0 -0.17102269085E+01  0.68460218669E+02 -0.68140799320E+02  0.96612084898E+02  0.10000000000E+01 0.  0.
         21    1    1    2  502  501  0.44439218792E+02 -0.19089005624E+02 -0.24125504374E+01  0.48425764859E+02  0.00000000000E+00 0.  1.
<mgrwt>
<rscale>  1 0.13403042E+03</rscale>
<asrwt>0</asrwt>
<pdfrwt beam="1">  1        4 0.75819455E-02 0.13403042E+03</pdfrwt>
<pdfrwt beam="2">  1       -4 0.30205659E-01 0.13403042E+03</pdfrwt>
<totfact> 0.20764382E+03</totfact>
</mgrwt>
</event>
<event>
 6    4  0.1195577E-003  0.1267402E+03  0.7818608E-02  0.1232374E+00
         -4   -1    0    0    0  501 -0.00000000000E+00  0.00000000000E+00  0.52096409468E+02  0.52111887123E+02  0.12700000000E+01 0.  1.
          4   -1    0    0  502    0  0.00000000000E+00 -0.00000000000E+00 -0.10878329579E+03  0.10879070890E+03  0.12700000000E+01 0.  1.
         25    2    1    2    0    0 -0.20257287309E+02 -0.52621820133E+01 -0.36661908248E+02  0.13193627082E+03  0.12500014317E+03 0.  0.
    9000005    1    3    3    0    0  0.98176124427E+01  0.26132117340E+02 -0.71147986309E+02  0.76434998702E+02  0.10000000000E+01 0.  0.
    9000005    1    3    3    0    0 -0.30074899752E+02 -0.31394299353E+02  0.34486078061E+02  0.55501272121E+02  0.10000000000E+01 0.  0.
         21    1    1    2  502  501  0.20257287309E+02  0.52621820133E+01 -0.20024978070E+02  0.28966325196E+02  0.00000000000E+00 0. -1.
<mgrwt>
<rscale>  1 0.12674022E+03</rscale>
<asrwt>0</asrwt>
<pdfrwt beam="2">  1        4 0.16737652E-01 0.12674022E+03</pdfrwt>
<pdfrwt beam="1">  1       -4 0.80165931E-02 0.12674022E+03</pdfrwt>
<totfact> 0.54817440E+03</totfact>
</mgrwt>
</event>
<event>
 6    4  0.1195577E-003  0.1301683E+03  0.7818608E-02  0.1227206E+00
         -4   -1    0    0    0  501 -0.00000000000E+00  0.00000000000E+00  0.32995566827E+03  0.32995811238E+03  0.12700000000E+01 0.  1.
          4   -1    0    0  502    0  0.00000000000E+00 -0.00000000000E+00 -0.15628297077E+03  0.15628813088E+03  0.12700000000E+01 0.  1.
         25    2    1    2    0    0 -0.24188280972E+02  0.27002610997E+02  0.31474008786E+03  0.34059521319E+03  0.12501824829E+03 0.  0.
    9000005    1    3    3    0    0 -0.32172407860E+02  0.65621265912E+02  0.10986273823E+03  0.13195467259E+03  0.10000000000E+01 0.  0.
    9000005    1    3    3    0    0  0.79841268879E+01 -0.38618654915E+02  0.20487734963E+03  0.20864054060E+03  0.10000000000E+01 0.  0.
         21    1    1    2  502  501  0.24188280972E+02 -0.27002610997E+02 -0.14106739036E+03  0.14565103006E+03  0.00000000000E+00 0.  1.
<mgrwt>
<rscale>  1 0.13016826E+03</rscale>
<asrwt>0</asrwt>
<pdfrwt beam="2">  1        4 0.24044119E-01 0.13016826E+03</pdfrwt>
<pdfrwt beam="1">  1       -4 0.50762996E-01 0.13016826E+03</pdfrwt>
<totfact> 0.10090300E+02</totfact>
</mgrwt>
</event>
<event>
 6    4  0.1195577E-003  0.1302682E+03  0.7818608E-02  0.1227058E+00
          4   -1    0    0  502    0  0.00000000000E+00  0.00000000000E+00  0.16647489779E+03  0.16647974199E+03  0.12700000000E+01 0. -1.
         -4   -1    0    0    0  501 -0.00000000000E+00 -0.00000000000E+00 -0.45584175608E+02  0.45601863623E+02  0.12700000000E+01 0. -1.
         25    2    1    2    0    0  0.20790535082E+02 -0.30195353642E+02  0.65893622257E+02  0.14598556390E+03  0.12500323869E+03 0.  0.
    9000005    1    3    3    0    0  0.53822569980E+02 -0.44631688325E+02  0.80893133818E+02  0.10692780621E+03  0.10000000000E+01 0.  0.
    9000005    1    3    3    0    0 -0.33032034899E+02  0.14436334682E+02 -0.14999511561E+02  0.39057757689E+02  0.10000000000E+01 0.  0.
         21    1    1    2  502  501 -0.20790535082E+02  0.30195353642E+02  0.54997099926E+02  0.66096041718E+02  0.00000000000E+00 0. -1.
<mgrwt>
<rscale>  1 0.13026824E+03</rscale>
<asrwt>0</asrwt>
<pdfrwt beam="1">  1        4 0.25613256E-01 0.13026824E+03</pdfrwt>
<pdfrwt beam="2">  1       -4 0.70146832E-02 0.13026824E+03</pdfrwt>
<totfact> 0.31912406E+03</totfact>
</mgrwt>
</event>
<event>
 6    4  0.1195577E-003  0.1268805E+03  0.7818608E-02  0.1232159E+00
          4   -1    0    0  502    0  0.00000000000E+00  0.00000000000E+00  0.52885022794E+03  0.52885175285E+03  0.12700000000E+01 0.  1.
         -4   -1    0    0    0  501 -0.00000000000E+00 -0.00000000000E+00 -0.10608807316E+02  0.10684553929E+02  0.12700000000E+01 0.  1.
         25    2    1    2    0    0  0.51444727838E+00  0.21760485880E+02  0.41227976711E+03  0.43136211662E+03  0.12499954353E+03 0.  0.
    9000005    1    3    3    0    0 -0.18113475756E+02  0.34840088286E+02  0.40577044747E+03  0.40766724886E+03  0.10000000000E+01 0.  0.
    9000005    1    3    3    0    0  0.18627923034E+02 -0.13079602406E+02  0.65093196404E+01  0.23694867753E+02  0.10000000000E+01 0.  0.
         21    1    1    2  502  501 -0.51444727838E+00 -0.21760485880E+02  0.10596165351E+03  0.10817419016E+03  0.00000000000E+00 0.  1.
<mgrwt>
<rscale>  1 0.12688053E+03</rscale>
<asrwt>0</asrwt>
<pdfrwt beam="1">  1        4 0.81367523E-01 0.12688053E+03</pdfrwt>
<pdfrwt beam="2">  1       -4 0.16380681E-02 0.12688053E+03</pdfrwt>
<totfact> 0.30622863E+03</totfact>
</mgrwt>
</event>
<event>
 6    4  0.1195577E-003  0.1309219E+03  0.7818608E-02  0.1226094E+00
          4   -1    0    0  502    0  0.00000000000E+00  0.00000000000E+00  0.78679413854E+01  0.79697805268E+01  0.12700000000E+01 0. -1.
         -4   -1    0    0    0  501 -0.00000000000E+00 -0.00000000000E+00 -0.91258054195E+03  0.91258142565E+03  0.12700000000E+01 0. -1.
         25    2    1    2    0    0  0.23602968610E+02 -0.30962121483E+02 -0.67934781150E+03  0.69184825202E+03  0.12499920692E+03 0.  0.
    9000005    1    3    3    0    0 -0.42995685215E+02  0.19097306129E+02 -0.27626497085E+03  0.28024394760E+03  0.10000000000E+01 0.  0.
    9000005    1    3    3    0    0  0.66598653825E+02 -0.50059427612E+02 -0.40308284065E+03  0.41160430441E+03  0.10000000000E+01 0.  0.
         21    1    1    2  502  501 -0.23602968610E+02  0.30962121483E+02 -0.22536478906E+03  0.22870295416E+03  0.00000000000E+00 0. -1.
<mgrwt>
<rscale>  1 0.13092194E+03</rscale>
<asrwt>0</asrwt>
<pdfrwt beam="1">  1        4 0.12183550E-02 0.13092194E+03</pdfrwt>
<pdfrwt beam="2">  1       -4 0.14040482E+00 0.13092194E+03</pdfrwt>
<totfact> 0.13463587E+03</totfact>
</mgrwt>
</event>
<event>
 6    4  0.1195577E-003  0.2017617E+03  0.7818608E-02  0.1148261E+00
          4   -1    0    0  502    0  0.00000000000E+00  0.00000000000E+00  0.19498609262E+03  0.19499022851E+03  0.12700000000E+01 0. -1.
         -4   -1    0    0    0  501 -0.00000000000E+00 -0.00000000000E+00 -0.16645057934E+03  0.16645542425E+03  0.12700000000E+01 0. -1.
         25    2    1    2    0    0 -0.15639768831E+03 -0.24976144161E+02  0.21596652531E+02  0.20291429159E+03  0.12499499848E+03 0.  0.
    9000005    1    3    3    0    0 -0.11657027209E+03  0.38155541009E+02  0.33894126266E+02  0.12725676972E+03  0.10000000000E+01 0.  0.
    9000005    1    3    3    0    0 -0.39827416227E+02 -0.63131685170E+02 -0.12297473735E+02  0.75657521874E+02  0.10000000000E+01 0.  0.
         21    1    1    2  502  501  0.15639768831E+03  0.24976144161E+02  0.69388607532E+01  0.15853136117E+03  0.00000000000E+00 0. -1.
<mgrwt>
<rscale>  1 0.20176173E+03</rscale>
<asrwt>0</asrwt>
<pdfrwt beam="1">  1        4 0.29998551E-01 0.20176173E+03</pdfrwt>
<pdfrwt beam="2">  1       -4 0.25608472E-01 0.20176173E+03</pdfrwt>
<totfact> 0.27124323E+02</totfact>
</mgrwt>
</event>
<event>
 6    4  0.1195577E-003  0.1295471E+03  0.7818608E-02  0.1228129E+00
         -4   -1    0    0    0  501 -0.00000000000E+00  0.00000000000E+00  0.70093475747E+02  0.70104980153E+02  0.12700000000E+01 0.  1.
          4   -1    0    0  502    0  0.00000000000E+00 -0.00000000000E+00 -0.10309439832E+03  0.10310222047E+03  0.12700000000E+01 0.  1.
         25    2    1    2    0    0 -0.34018376674E+02  0.90256063744E+00 -0.58607069821E+01  0.12967955573E+03  0.12499749886E+03 0.  0.
    9000005    1    3    3    0    0  0.36066132518E+02 -0.17215336736E+02 -0.33530168601E+02  0.52176680041E+02  0.10000000000E+01 0.  0.
    9000005    1    3    3    0    0 -0.70084509191E+02  0.18117897374E+02  0.27669461619E+02  0.77502875689E+02  0.10000000000E+01 0.  0.
         21    1    1    2  502  501  0.34018376674E+02 -0.90256063744E+00 -0.27140215592E+02  0.43527644889E+02  0.00000000000E+00 0.  1.
<mgrwt>
<rscale>  1 0.12954705E+03</rscale>
<asrwt>0</asrwt>
<pdfrwt beam="2">  1        4 0.15862163E-01 0.12954705E+03</pdfrwt>
<pdfrwt beam="1">  1       -4 0.10785098E-01 0.12954705E+03</pdfrwt>
<totfact> 0.36872948E+03</totfact>
</mgrwt>
</event>
<event>
 6    4  0.1195577E-003  0.1285704E+03  0.7818608E-02  0.1229593E+00
         -4   -1    0    0    0  501 -0.00000000000E+00  0.00000000000E+00  0.10658931637E+04  0.10658939203E+04  0.12700000000E+01 0. -1.
          4   -1    0    0  502    0  0.00000000000E+00 -0.00000000000E+00 -0.59303178932E+01  0.60647811432E+01  0.12700000000E+01 0. -1.
         25    2    1    2    0    0  0.28996414854E+02  0.80426848935E+01  0.90664249469E+03  0.91571335936E+03  0.12499946591E+03 0.  0.
    9000005    1    3    3    0    0  0.15417777248E+02  0.51123630001E+02  0.18227484578E+03  0.18993802359E+03  0.10000000000E+01 0.  0.
    9000005    1    3    3    0    0  0.13578637606E+02 -0.43080945107E+02  0.72436764891E+03  0.72577533577E+03  0.10000000000E+01 0.  0.
         21    1    1    2  502  501 -0.28996414854E+02 -0.80426848935E+01  0.15332035114E+03  0.15624534210E+03  0.00000000000E+00 0.  1.
<mgrwt>
<rscale>  1 0.12857038E+03</rscale>
<asrwt>0</asrwt>
<pdfrwt beam="2">  1        4 0.92275749E-03 0.12857038E+03</pdfrwt>
<pdfrwt beam="1">  1       -4 0.16399408E+00 0.12857038E+03</pdfrwt>
<totfact> 0.13707158E+03</totfact>
</mgrwt>
</event>
<event>
 6    4  0.1195577E-003  0.1271909E+03  0.7818608E-02  0.1231684E+00
         -4   -1    0    0    0  501 -0.00000000000E+00  0.00000000000E+00  0.25683091451E+02  0.25714472316E+02  0.12700000000E+01 0.  1.
          4   -1    0    0  502    0  0.00000000000E+00 -0.00000000000E+00 -0.31567828705E+03  0.31568084170E+03  0.12700000000E+01 0.  1.
         25    2    1    2    0    0  0.14522150777E+02 -0.18473979785E+02 -0.13831519603E+03  0.18790589073E+03  0.12500139809E+03 0.  0.
    9000005    1    3    3    0    0  0.28559602911E+02 -0.61556423335E+02 -0.37889923497E+02  0.77727025383E+02  0.10000000000E+01 0.  0.
    9000005    1    3    3    0    0 -0.14037452134E+02  0.43082443550E+02 -0.10042527254E+03  0.11017886534E+03  0.10000000000E+01 0.  0.
         21    1    1    2  502  501 -0.14522150777E+02  0.18473979785E+02 -0.15167999957E+03  0.15348942329E+03  0.00000000000E+00 0.  1.
<mgrwt>
<rscale>  1 0.12719092E+03</rscale>
<asrwt>0</asrwt>
<pdfrwt beam="2">  1        4 0.48568498E-01 0.12719092E+03</pdfrwt>
<pdfrwt beam="1">  1       -4 0.39538555E-02 0.12719092E+03</pdfrwt>
<totfact> 0.23210008E+03</totfact>
</mgrwt>
</event>
<event>
 6    4  0.1195577E-003  0.1265986E+03  0.7818608E-02  0.1232592E+00
         -4   -1    0    0    0  501 -0.00000000000E+00  0.00000000000E+00  0.18076420147E+03  0.18076866275E+03  0.12700000000E+01 0.  1.
          4   -1    0    0  502    0  0.00000000000E+00 -0.00000000000E+00 -0.29886291845E+02  0.29913263618E+02  0.12700000000E+01 0.  1.
         25    2    1    2    0    0 -0.65946869823E+01  0.18940719215E+02  0.13525125281E+03  0.18525687684E+03  0.12499987314E+03 0.  0.
    9000005    1    3    3    0    0 -0.25217270761E+02 -0.10923791902E+02  0.14590278765E+03  0.14847175967E+03  0.10000000000E+01 0.  0.
    9000005    1    3    3    0    0  0.18622583779E+02  0.29864511118E+02 -0.10651534835E+02  0.36785117170E+02  0.10000000000E+01 0.  0.
         21    1    1    2  502  501  0.65946869823E+01 -0.18940719215E+02  0.15626656811E+02  0.25425049535E+02  0.00000000000E+00 0. -1.
<mgrwt>
<rscale>  1 0.12659861E+03</rscale>
<asrwt>0</asrwt>
<pdfrwt beam="2">  1        4 0.46003090E-02 0.12659861E+03</pdfrwt>
<pdfrwt beam="1">  1       -4 0.27812295E-01 0.12659861E+03</pdfrwt>
<totfact> 0.53812750E+03</totfact>
</mgrwt>
</event>
<event>
 6    4  0.1195577E-003  0.1299427E+03  0.7818608E-02  0.1227541E+00
          4   -1    0    0  502    0  0.00000000000E+00  0.00000000000E+00  0.91117182385E+02  0.91126032646E+02  0.12700000000E+01 0. -1.
         -4   -1    0    0    0  501 -0.00000000000E+00 -0.00000000000E+00 -0.77721282779E+02  0.77731658266E+02  0.12700000000E+01 0. -1.
         25    2    1    2    0    0  0.10011448367E+02 -0.34077646894E+02 -0.24490675259E+01  0.12996581387E+03  0.12499439878E+03 0.  0.
    9000005    1    3    3    0    0 -0.22223485068E+02 -0.43231824270E+01  0.53944834237E+02  0.58511694009E+02  0.10000000000E+01 0.  0.
    9000005    1    3    3    0    0  0.32234933436E+02 -0.29754464467E+02 -0.56393901763E+02  0.71454119863E+02  0.10000000000E+01 0.  0.
         21    1    1    2  502  501 -0.10011448367E+02  0.34077646894E+02  0.15844967132E+02  0.38891877040E+02  0.00000000000E+00 0. -1.
<mgrwt>
<rscale>  1 0.12994274E+03</rscale>
<asrwt>0</asrwt>
<pdfrwt beam="1">  1        4 0.14019507E-01 0.12994274E+03</pdfrwt>
<pdfrwt beam="2">  1       -4 0.11958599E-01 0.12994274E+03</pdfrwt>
<totfact> 0.38391993E+03</totfact>
</mgrwt>
</event>
<event>
 6    4  0.1195577E-003  0.1312118E+03  0.7818608E-02  0.1225669E+00
         -4   -1    0    0    0  501 -0.00000000000E+00  0.00000000000E+00  0.11937257952E+02  0.12004625251E+02  0.12700000000E+01 0.  1.
          4   -1    0    0  502    0  0.00000000000E+00 -0.00000000000E+00 -0.62739324391E+03  0.62739452931E+03  0.12700000000E+01 0.  1.
         25    2    1    2    0    0 -0.84868437582E+01 -0.38988661309E+02 -0.42438339569E+03  0.44420469516E+03  0.12499760972E+03 0.  0.
    9000005    1    3    3    0    0  0.45802260455E+02 -0.36341721570E+02 -0.33120194257E+03  0.33632468621E+03  0.10000000000E+01 0.  0.
    9000005    1    3    3    0    0 -0.54289104213E+02 -0.26469397387E+01 -0.93181453116E+02  0.10788000895E+03  0.10000000000E+01 0.  0.
         21    1    1    2  502  501  0.84868437582E+01  0.38988661309E+02 -0.19107259027E+03  0.19519445940E+03  0.00000000000E+00 0.  1.
<mgrwt>
<rscale>  1 0.13121183E+03</rscale>
<asrwt>0</asrwt>
<pdfrwt beam="2">  1        4 0.96527293E-01 0.13121183E+03</pdfrwt>
<pdfrwt beam="1">  1       -4 0.18417827E-02 0.13121183E+03</pdfrwt>
<totfact> 0.17559025E+03</totfact>
</mgrwt>
</event>
<event>
 6    4  0.1195577E-003  0.1280661E+03  0.7818608E-02  0.1230354E+00
          4   -1    0    0  502    0  0.00000000000E+00  0.00000000000E+00  0.81633482472E+01  0.82615467441E+01  0.12700000000E+01 0. -1.
         -4   -1    0    0    0  501 -0.00000000000E+00 -0.00000000000E+00 -0.20411504598E+04  0.20411508549E+04  0.12700000000E+01 0. -1.
         25    2    1    2    0    0 -0.10334583407E+02  0.25872948170E+02 -0.20077211686E+04  0.20118014866E+04  0.12499886939E+03 0.  0.
    9000005    1    3    3    0    0  0.92273261453E+00 -0.20067891757E+01  0.11650862881E+01  0.26899933703E+01  0.10000000000E+01 0.  0.
    9000005    1    3    3    0    0 -0.11257316022E+02  0.27879737345E+02 -0.20088862549E+04  0.20091114932E+04  0.10000000000E+01 0.  0.
         21    1    1    2  502  501  0.10334583407E+02 -0.25872948170E+02 -0.25265942954E+02  0.37610915099E+02  0.00000000000E+00 0. -1.
<mgrwt>
<rscale>  1 0.12806612E+03</rscale>
<asrwt>0</asrwt>
<pdfrwt beam="1">  1        4 0.12634855E-02 0.12806612E+03</pdfrwt>
<pdfrwt beam="2">  1       -4 0.31403033E+00 0.12806612E+03</pdfrwt>
<totfact> 0.10743322E+02</totfact>
</mgrwt>
</event>
<event>
 6    4  0.1195577E-003  0.1286635E+03  0.7818608E-02  0.1229452E+00
         -4   -1    0    0    0  501 -0.00000000000E+00  0.00000000000E+00  0.34781423640E+02  0.34804602145E+02  0.12700000000E+01 0.  1.
          4   -1    0    0  502    0  0.00000000000E+00 -0.00000000000E+00 -0.19543914233E+03  0.19544326863E+03  0.12700000000E+01 0.  1.
         25    2    1    2    0    0 -0.30206280187E+02  0.41002159551E+01 -0.10217944216E+03  0.16430137762E+03  0.12500029262E+03 0.  0.
    9000005    1    3    3    0    0 -0.73227389013E+02 -0.27676170585E+01 -0.95243002682E+02  0.12017545409E+03  0.10000000000E+01 0.  0.
    9000005    1    3    3    0    0  0.43021108826E+02  0.68678330136E+01 -0.69364394751E+01  0.44125923532E+02  0.10000000000E+01 0.  0.
         21    1    1    2  502  501  0.30206280187E+02 -0.41002159551E+01 -0.58478276532E+02  0.65946493157E+02  0.00000000000E+00 0. -1.
<mgrwt>
<rscale>  1 0.12866353E+03</rscale>
<asrwt>0</asrwt>
<pdfrwt beam="2">  1        4 0.30069660E-01 0.12866353E+03</pdfrwt>
<pdfrwt beam="1">  1       -4 0.53530887E-02 0.12866353E+03</pdfrwt>
<totfact> 0.36588146E+03</totfact>
</mgrwt>
</event>
<event>
 6    4  0.1195577E-003  0.1475838E+03  0.7818608E-02  0.1203474E+00
         -4   -1    0    0    0  501 -0.00000000000E+00  0.00000000000E+00  0.45643631684E+03  0.45643808368E+03  0.12700000000E+01 0. -1.
          4   -1    0    0  502    0  0.00000000000E+00 -0.00000000000E+00 -0.30183601619E+02  0.30210307954E+02  0.12700000000E+01 0. -1.
         25    2    1    2    0    0 -0.56686673899E+02  0.54246875446E+02  0.33646499305E+03  0.36740939824E+03  0.12499948748E+03 0.  0.
    9000005    1    3    3    0    0 -0.84662327181E+02  0.18203692169E+01  0.15736264608E+03  0.17870373742E+03  0.10000000000E+01 0.  0.
    9000005    1    3    3    0    0  0.27975653282E+02  0.52426506229E+02  0.17910234697E+03  0.18870566082E+03  0.10000000000E+01 0.  0.
         21    1    1    2  502  501  0.56686673899E+02 -0.54246875446E+02  0.89787722169E+02  0.11923899339E+03  0.00000000000E+00 0. -1.
<mgrwt>
<rscale>  1 0.14758379E+03</rscale>
<asrwt>0</asrwt>
<pdfrwt beam="2">  1        4 0.46458213E-02 0.14758379E+03</pdfrwt>
<pdfrwt beam="1">  1       -4 0.70223162E-01 0.14758379E+03</pdfrwt>
<totfact> 0.85702045E+02</totfact>
</mgrwt>
</event>
<event>
 6    4  0.1195577E-003  0.1271919E+03  0.7818608E-02  0.1231683E+00
          4   -1    0    0  502    0  0.00000000000E+00  0.00000000000E+00  0.85107203000E+02  0.85116678169E+02  0.12700000000E+01 0.  1.
         -4   -1    0    0    0  501 -0.00000000000E+00 -0.00000000000E+00 -0.68285247570E+02  0.68297056567E+02  0.12700000000E+01 0.  1.
         25    2    1    2    0    0 -0.14844078094E+02 -0.18194570968E+02  0.54126843899E+01  0.12730702041E+03  0.12500556478E+03 0.  0.
    9000005    1    3    3    0    0 -0.19173406461E+02 -0.71154152138E+02 -0.14965728063E+01  0.73714127628E+02  0.10000000000E+01 0.  0.
    9000005    1    3    3    0    0  0.43293283671E+01  0.52959581170E+02  0.69092571962E+01  0.53592892782E+02  0.10000000000E+01 0.  0.
         21    1    1    2  502  501  0.14844078094E+02  0.18194570968E+02  0.11409271041E+02  0.26106714325E+02  0.00000000000E+00 0.  1.
<mgrwt>
<rscale>  1 0.12719190E+03</rscale>
<asrwt>0</asrwt>
<pdfrwt beam="1">  1        4 0.13095053E-01 0.12719190E+03</pdfrwt>
<pdfrwt beam="2">  1       -4 0.10507060E-01 0.12719190E+03</pdfrwt>
<totfact> 0.53525559E+03</totfact>
</mgrwt>
</event>
<event>
 6    4  0.1195577E-003  0.1289643E+03  0.7818608E-02  0.1229001E+00
          4   -1    0    0  502    0  0.00000000000E+00  0.00000000000E+00  0.46425755021E+01  0.48131494152E+01  0.12700000000E+01 0.  1.
         -4   -1    0    0    0  501 -0.00000000000E+00 -0.00000000000E+00 -0.14706956052E+04  0.14706961535E+04  0.12700000000E+01 0.  1.
         25    2    1    2    0    0 -0.16448973140E+01  0.31698577064E+02 -0.13050964015E+04  0.13114527833E+04  0.12499712077E+03 0.  0.
    9000005    1    3    3    0    0  0.27732028308E+02 -0.61220125210E+01 -0.71692486444E+02  0.77119109460E+02  0.10000000000E+01 0.  0.
    9000005    1    3    3    0    0 -0.29376925622E+02  0.37820589585E+02 -0.12334039150E+04  0.12343336739E+04  0.10000000000E+01 0.  0.
         21    1    1    2  502  501  0.16448973140E+01 -0.31698577064E+02 -0.16095662820E+03  0.16405651964E+03  0.00000000000E+00 0. -1.
<mgrwt>
<rscale>  1 0.12896428E+03</rscale>
<asrwt>0</asrwt>
<pdfrwt beam="1">  1        4 0.72740681E-03 0.12896428E+03</pdfrwt>
<pdfrwt beam="2">  1       -4 0.22627366E+00 0.12896428E+03</pdfrwt>
<totfact> 0.79087071E+02</totfact>
</mgrwt>
</event>
<event>
 6    4  0.1195577E-003  0.1320194E+03  0.7818608E-02  0.1224490E+00
         -4   -1    0    0    0  501 -0.00000000000E+00  0.00000000000E+00  0.11354825067E+02  0.11425626999E+02  0.12700000000E+01 0. -1.
          4   -1    0    0  502    0  0.00000000000E+00 -0.00000000000E+00 -0.66953960702E+03  0.66954081150E+03  0.12700000000E+01 0. -1.
         25    2    1    2    0    0 -0.76668841078E+01 -0.41772509677E+02 -0.48452763128E+03  0.50219135730E+03  0.12500164080E+03 0.  0.
    9000005    1    3    3    0    0 -0.49434645224E+02  0.22021656831E+02 -0.16332153642E+03  0.17205714683E+03  0.10000000000E+01 0.  0.
    9000005    1    3    3    0    0  0.41767761116E+02 -0.63794166509E+02 -0.32120609486E+03  0.33013421047E+03  0.10000000000E+01 0.  0.
         21    1    1    2  502  501  0.76668841078E+01  0.41772509677E+02 -0.17365715067E+03  0.17877508120E+03  0.00000000000E+00 0. -1.
<mgrwt>
<rscale>  1 0.13201945E+03</rscale>
<asrwt>0</asrwt>
<pdfrwt beam="2">  1        4 0.10301160E+00 0.13201945E+03</pdfrwt>
<pdfrwt beam="1">  1       -4 0.17524356E-02 0.13201945E+03</pdfrwt>
<totfact> 0.16330194E+03</totfact>
</mgrwt>
</event>
<event>
 6    4  0.1195577E-003  0.1418897E+03  0.7818608E-02  0.1210809E+00
         -4   -1    0    0    0  501 -0.00000000000E+00  0.00000000000E+00  0.10967268525E+03  0.10968003825E+03  0.12700000000E+01 0.  1.
          4   -1    0    0  502    0  0.00000000000E+00 -0.00000000000E+00 -0.99645085620E+02  0.99653178516E+02  0.12700000000E+01 0.  1.
         25    2    1    2    0    0 -0.26625821930E+02  0.61639031163E+02  0.91336986181E+01  0.14218335738E+03  0.12499751241E+03 0.  0.
    9000005    1    3    3    0    0 -0.53511676490E+02  0.85747669511E+02 -0.95173039218E+01  0.10152704773E+03  0.10000000000E+01 0.  0.
    9000005    1    3    3    0    0  0.26885854560E+02 -0.24108638348E+02  0.18651002540E+02  0.40656309648E+02  0.10000000000E+01 0.  0.
         21    1    1    2  502  501  0.26625821930E+02 -0.61639031163E+02  0.89390101193E+00  0.67149859383E+02  0.00000000000E+00 0. -1.
<mgrwt>
<rscale>  1 0.14188968E+03</rscale>
<asrwt>0</asrwt>
<pdfrwt beam="2">  1        4 0.15331201E-01 0.14188968E+03</pdfrwt>
<pdfrwt beam="1">  1       -4 0.16873909E-01 0.14188968E+03</pdfrwt>
<totfact> 0.18428542E+03</totfact>
</mgrwt>
</event>
<event>
 6    4  0.1195577E-003  0.1318905E+03  0.7818608E-02  0.1224677E+00
         -4   -1    0    0    0  501 -0.00000000000E+00  0.00000000000E+00  0.11616923817E+03  0.11617617999E+03  0.12700000000E+01 0.  1.
          4   -1    0    0  502    0  0.00000000000E+00 -0.00000000000E+00 -0.66068271003E+02  0.66080476189E+02  0.12700000000E+01 0.  1.
         25    2    1    2    0    0 -0.18607659170E+02 -0.37732504302E+02  0.47213381690E+02  0.14008646516E+03  0.12500050980E+03 0.  0.
    9000005    1    3    3    0    0  0.45855435099E+02 -0.35463695638E+02  0.48461010028E+02  0.75563642907E+02  0.10000000000E+01 0.  0.
    9000005    1    3    3    0    0 -0.64463094269E+02 -0.22688086645E+01 -0.12476283379E+01  0.64522822256E+02  0.10000000000E+01 0.  0.
         21    1    1    2  502  501  0.18607659170E+02  0.37732504302E+02  0.28875854801E+01  0.42170191019E+02  0.00000000000E+00 0. -1.
<mgrwt>
<rscale>  1 0.13189054E+03</rscale>
<asrwt>0</asrwt>
<pdfrwt beam="2">  1        4 0.10165822E-01 0.13189054E+03</pdfrwt>
<pdfrwt beam="1">  1       -4 0.17873663E-01 0.13189054E+03</pdfrwt>
<totfact> 0.33151387E+03</totfact>
</mgrwt>
</event>
<event>
 6    4  0.1195577E-003  0.1267780E+03  0.7818608E-02  0.1232316E+00
         -4   -1    0    0    0  501 -0.00000000000E+00  0.00000000000E+00  0.37871842322E+02  0.37893130523E+02  0.12700000000E+01 0. -1.
          4   -1    0    0  502    0  0.00000000000E+00 -0.00000000000E+00 -0.16768809674E+03  0.16769290590E+03  0.12700000000E+01 0. -1.
         25    2    1    2    0    0  0.21153819896E+02  0.55469094953E+00 -0.76129882248E+02  0.14787972537E+03  0.12499944970E+03 0.  0.
    9000005    1    3    3    0    0  0.19746962220E+02 -0.42146775804E+02  0.13593523668E+02  0.48498217631E+02  0.10000000000E+01 0.  0.
    9000005    1    3    3    0    0  0.14068576757E+01  0.42701466754E+02 -0.89723405917E+02  0.99381507740E+02  0.10000000000E+01 0.  0.
         21    1    1    2  502  501 -0.21153819896E+02 -0.55469094953E+00 -0.53686372169E+02  0.57706311049E+02  0.00000000000E+00 0. -1.
<mgrwt>
<rscale>  1 0.12677797E+03</rscale>
<asrwt>0</asrwt>
<pdfrwt beam="2">  1        4 0.25800176E-01 0.12677797E+03</pdfrwt>
<pdfrwt beam="1">  1       -4 0.58284448E-02 0.12677797E+03</pdfrwt>
<totfact> 0.42302614E+03</totfact>
</mgrwt>
</event>
<event>
 6    4  0.1195577E-003  0.1363574E+03  0.7818608E-02  0.1218316E+00
         -4   -1    0    0    0  501 -0.00000000000E+00  0.00000000000E+00  0.31444766713E+02  0.31470402820E+02  0.12700000000E+01 0. -1.
          4   -1    0    0  502    0  0.00000000000E+00 -0.00000000000E+00 -0.29227309150E+03  0.29227585072E+03  0.12700000000E+01 0. -1.
         25    2    1    2    0    0 -0.41540922774E+02  0.35244544623E+02 -0.17129372279E+03  0.21894037992E+03  0.12500209719E+03 0.  0.
    9000005    1    3    3    0    0 -0.10749144551E+02  0.65837714477E+00  0.19665876249E+02  0.22443802211E+02  0.10000000000E+01 0.  0.
    9000005    1    3    3    0    0 -0.30791778222E+02  0.34586167478E+02 -0.19095959904E+03  0.19649657771E+03  0.10000000000E+01 0.  0.
         21    1    1    2  502  501  0.41540922774E+02 -0.35244544623E+02 -0.89534601996E+02  0.10480587362E+03  0.00000000000E+00 0. -1.
<mgrwt>
<rscale>  1 0.13635744E+03</rscale>
<asrwt>0</asrwt>
<pdfrwt beam="2">  1        4 0.44967274E-01 0.13635744E+03</pdfrwt>
<pdfrwt beam="1">  1       -4 0.48398409E-02 0.13635744E+03</pdfrwt>
<totfact> 0.19949262E+03</totfact>
</mgrwt>
</event>
<event>
 6    4  0.1195577E-003  0.1268471E+03  0.7818608E-02  0.1232211E+00
          4   -1    0    0  502    0  0.00000000000E+00  0.00000000000E+00  0.54170844098E+03  0.54170992969E+03  0.12700000000E+01 0.  1.
         -4   -1    0    0    0  501 -0.00000000000E+00 -0.00000000000E+00 -0.10297791602E+02  0.10375808975E+02  0.12700000000E+01 0.  1.
         25    2    1    2    0    0 -0.12065322341E+02  0.17900845637E+02  0.42585197096E+03  0.44434230793E+03  0.12499669263E+03 0.  0.
    9000005    1    3    3    0    0 -0.48524969651E+02 -0.32642658031E+02  0.13915331653E+03  0.15094655115E+03  0.10000000000E+01 0.  0.
    9000005    1    3    3    0    0  0.36459647309E+02  0.50543503668E+02  0.28669865443E+03  0.29339575678E+03  0.10000000000E+01 0.  0.
         21    1    1    2  502  501  0.12065322341E+02 -0.17900845637E+02  0.10555867842E+03  0.10774343074E+03  0.00000000000E+00 0.  1.
<mgrwt>
<rscale>  1 0.12684709E+03</rscale>
<asrwt>0</asrwt>
<pdfrwt beam="1">  1        4 0.83345877E-01 0.12684709E+03</pdfrwt>
<pdfrwt beam="2">  1       -4 0.15903915E-02 0.12684709E+03</pdfrwt>
<totfact> 0.30370107E+03</totfact>
</mgrwt>
</event>
<event>
 6    4  0.1195577E-003  0.1439745E+03  0.7818608E-02  0.1208079E+00
          4   -1    0    0  502    0  0.00000000000E+00  0.00000000000E+00  0.65643318869E+02  0.65655603052E+02  0.12700000000E+01 0.  1.
         -4   -1    0    0    0  501 -0.00000000000E+00 -0.00000000000E+00 -0.44918983643E+03  0.44919163177E+03  0.12700000000E+01 0.  1.
         25    2    1    2    0    0  0.43076604853E+02 -0.56984111794E+02 -0.41315358092E+03  0.43752090630E+03  0.12500351651E+03 0.  0.
    9000005    1    3    3    0    0  0.55567368483E+02 -0.86601945374E+02 -0.36779402842E+03  0.38191763081E+03  0.10000000000E+01 0.  0.
    9000005    1    3    3    0    0 -0.12490763630E+02  0.29617833580E+02 -0.45359552501E+02  0.55603275489E+02  0.10000000000E+01 0.  0.
         21    1    1    2  502  501 -0.43076604853E+02  0.56984111794E+02  0.29607063357E+02  0.77326328525E+02  0.00000000000E+00 0.  1.
<mgrwt>
<rscale>  1 0.14397452E+03</rscale>
<asrwt>0</asrwt>
<pdfrwt beam="1">  1        4 0.10100055E-01 0.14397452E+03</pdfrwt>
<pdfrwt beam="2">  1       -4 0.69107210E-01 0.14397452E+03</pdfrwt>
<totfact> 0.24651749E+02</totfact>
</mgrwt>
</event>
<event>
 6    4  0.1195577E-003  0.1266949E+03  0.7818608E-02  0.1232444E+00
          4   -1    0    0  502    0  0.00000000000E+00  0.00000000000E+00  0.14199260576E+02  0.14255942652E+02  0.12700000000E+01 0.  1.
         -4   -1    0    0    0  501 -0.00000000000E+00 -0.00000000000E+00 -0.38206948803E+03  0.38207159876E+03  0.12700000000E+01 0.  1.
         25    2    1    2    0    0 -0.74379054097E+00 -0.20620436662E+02 -0.31010192373E+03  0.33498479492E+03  0.12500341634E+03 0.  0.
    9000005    1    3    3    0    0 -0.47504306745E+02  0.46739520652E+00 -0.46669077666E+02  0.66602405571E+02  0.10000000000E+01 0.  0.
    9000005    1    3    3    0    0  0.46760516204E+02 -0.21087831869E+02 -0.26343284607E+03  0.26838238935E+03  0.10000000000E+01 0.  0.
         21    1    1    2  502  501  0.74379054097E+00  0.20620436662E+02 -0.57768303720E+02  0.61342746492E+02  0.00000000000E+00 0.  1.
<mgrwt>
<rscale>  1 0.12669495E+03</rscale>
<asrwt>0</asrwt>
<pdfrwt beam="1">  1        4 0.21890244E-02 0.12669495E+03</pdfrwt>
<pdfrwt beam="2">  1       -4 0.58784436E-01 0.12669495E+03</pdfrwt>
<totfact> 0.39463737E+03</totfact>
</mgrwt>
</event>
<event>
 6    4  0.1195577E-003  0.1268599E+03  0.7818608E-02  0.1232191E+00
         -4   -1    0    0    0  501 -0.00000000000E+00  0.00000000000E+00  0.26613887846E+03  0.26614190862E+03  0.12700000000E+01 0.  1.
          4   -1    0    0  502    0  0.00000000000E+00 -0.00000000000E+00 -0.20808701739E+02  0.20847421137E+02  0.12700000000E+01 0.  1.
         25    2    1    2    0    0  0.19324397975E+02  0.97723813410E+01  0.21654131254E+03  0.25096530313E+03  0.12499804616E+03 0.  0.
    9000005    1    3    3    0    0 -0.34979419018E+02 -0.36518294332E+02  0.57084637621E+02  0.76267958070E+02  0.10000000000E+01 0.  0.
    9000005    1    3    3    0    0  0.54303816994E+02  0.46290675673E+02  0.15945667492E+03  0.17469734506E+03  0.10000000000E+01 0.  0.
         21    1    1    2  502  501 -0.19324397975E+02 -0.97723813410E+01  0.28788864172E+02  0.36024026628E+02  0.00000000000E+00 0. -1.
<mgrwt>
<rscale>  1 0.12685994E+03</rscale>
<asrwt>0</asrwt>
<pdfrwt beam="2">  1        4 0.32045504E-02 0.12685994E+03</pdfrwt>
<pdfrwt beam="1">  1       -4 0.40947652E-01 0.12685994E+03</pdfrwt>
<totfact> 0.45435953E+03</totfact>
</mgrwt>
</event>
<event>
 6    4  0.1195577E-003  0.1281036E+03  0.7818608E-02  0.1230297E+00
          4   -1    0    0  502    0  0.00000000000E+00  0.00000000000E+00  0.38084885650E+01  0.40146587837E+01  0.12700000000E+01 0. -1.
         -4   -1    0    0    0  501 -0.00000000000E+00 -0.00000000000E+00 -0.16180874537E+04  0.16180879521E+04  0.12700000000E+01 0. -1.
         25    2    1    2    0    0 -0.27402943161E+02  0.58248461922E+01 -0.14271939998E+04  0.14329316978E+04  0.12500274866E+03 0.  0.
    9000005    1    3    3    0    0 -0.64669958361E+02  0.75576934412E+01 -0.41745676170E+03  0.42250499421E+03  0.10000000000E+01 0.  0.
    9000005    1    3    3    0    0  0.37267015201E+02 -0.17328472489E+01 -0.10097372381E+04  0.10104267036E+04  0.10000000000E+01 0.  0.
         21    1    1    2  502  501  0.27402943161E+02 -0.58248461922E+01 -0.18708496533E+03  0.18917091314E+03  0.00000000000E+00 0.  1.
<mgrwt>
<rscale>  1 0.12810362E+03</rscale>
<asrwt>0</asrwt>
<pdfrwt beam="1">  1        4 0.60182019E-03 0.12810362E+03</pdfrwt>
<pdfrwt beam="2">  1       -4 0.24895189E+00 0.12810362E+03</pdfrwt>
<totfact> 0.77273910E+02</totfact>
</mgrwt>
</event>
<event>
 6    4  0.1195577E-003  0.1327150E+03  0.7818608E-02  0.1223482E+00
         -4   -1    0    0    0  501 -0.00000000000E+00  0.00000000000E+00  0.48039468918E+03  0.48039636790E+03  0.12700000000E+01 0. -1.
          4   -1    0    0  502    0  0.00000000000E+00 -0.00000000000E+00 -0.21438364744E+02  0.21475948940E+02  0.12700000000E+01 0. -1.
         25    2    1    2    0    0 -0.15093835934E+02 -0.41964284573E+02  0.42662043163E+03  0.44678661065E+03  0.12499783081E+03 0.  0.
    9000005    1    3    3    0    0 -0.49598251969E+02 -0.11895590221E+02  0.66730146162E+02  0.83996452734E+02  0.10000000000E+01 0.  0.
    9000005    1    3    3    0    0  0.34504416035E+02 -0.30068694352E+02  0.35989028547E+03  0.36279015792E+03  0.10000000000E+01 0.  0.
         21    1    1    2  502  501  0.15093835934E+02  0.41964284573E+02  0.32335892803E+02  0.55085706188E+02  0.00000000000E+00 0. -1.
<mgrwt>
<rscale>  1 0.13271504E+03</rscale>
<asrwt>0</asrwt>
<pdfrwt beam="2">  1        4 0.33012300E-02 0.13271504E+03</pdfrwt>
<pdfrwt beam="1">  1       -4 0.73909899E-01 0.13271504E+03</pdfrwt>
<totfact> 0.12909012E+03</totfact>
</mgrwt>
</event>
<event>
 6    4  0.1195577E-003  0.1393738E+03  0.7818608E-02  0.1214174E+00
          4   -1    0    0  502    0  0.00000000000E+00  0.00000000000E+00  0.10225298380E+04  0.10225306267E+04  0.12700000000E+01 0. -1.
         -4   -1    0    0    0  501 -0.00000000000E+00 -0.00000000000E+00 -0.14434529040E+02  0.14490290839E+02  0.12700000000E+01 0. -1.
         25    2    1    2    0    0  0.19213830335E+02  0.58570493276E+02  0.36058645528E+03  0.38658461045E+03  0.12500158138E+03 0.  0.
    9000005    1    3    3    0    0 -0.77574687828E+01  0.77619238069E+01 -0.79479043377E+01  0.13586573021E+02  0.10000000000E+01 0.  0.
    9000005    1    3    3    0    0  0.26971299118E+02  0.50808569469E+02  0.36853435962E+03  0.37299803743E+03  0.10000000000E+01 0.  0.
         21    1    1    2  502  501 -0.19213830335E+02 -0.58570493276E+02  0.64750885368E+03  0.65043630707E+03  0.00000000000E+00 0. -1.
<mgrwt>
<rscale>  1 0.13937385E+03</rscale>
<asrwt>0</asrwt>
<pdfrwt beam="1">  1        4 0.15731661E+00 0.13937385E+03</pdfrwt>
<pdfrwt beam="2">  1       -4 0.22250472E-02 0.13937385E+03</pdfrwt>
<totfact> 0.40620174E+02</totfact>
</mgrwt>
</event>
<event>
 6    4  0.1195577E-003  0.1305442E+03  0.7818608E-02  0.1226651E+00
         -4   -1    0    0    0  501 -0.00000000000E+00  0.00000000000E+00  0.34836765308E+02  0.34859907016E+02  0.12700000000E+01 0.  1.
          4   -1    0    0  502    0  0.00000000000E+00 -0.00000000000E+00 -0.21883524488E+03  0.21883893004E+03  0.12700000000E+01 0.  1.
         25    2    1    2    0    0 -0.30976577544E+02  0.21375145796E+02 -0.11012244641E+03  0.17078856333E+03  0.12500133978E+03 0.  0.
    9000005    1    3    3    0    0 -0.25236493836E+02  0.18110317501E+02 -0.13834175340E+03  0.14178965038E+03  0.10000000000E+01 0.  0.
    9000005    1    3    3    0    0 -0.57400837076E+01  0.32648282948E+01  0.28219306994E+02  0.28998912945E+02  0.10000000000E+01 0.  0.
         21    1    1    2  502  501  0.30976577544E+02 -0.21375145796E+02 -0.73876033164E+02  0.82910273731E+02  0.00000000000E+00 0. -1.
<mgrwt>
<rscale>  1 0.13054417E+03</rscale>
<asrwt>0</asrwt>
<pdfrwt beam="2">  1        4 0.33669023E-01 0.13054417E+03</pdfrwt>
<pdfrwt beam="1">  1       -4 0.53615661E-02 0.13054417E+03</pdfrwt>
<totfact> 0.29533735E+03</totfact>
</mgrwt>
</event>
<event>
 6    4  0.1195577E-003  0.1349571E+03  0.7818608E-02  0.1220280E+00
         -4   -1    0    0    0  501 -0.00000000000E+00  0.00000000000E+00  0.22634701733E+03  0.22635058019E+03  0.12700000000E+01 0. -1.
          4   -1    0    0  502    0  0.00000000000E+00 -0.00000000000E+00 -0.14958333939E+03  0.14958873061E+03  0.12700000000E+01 0. -1.
         25    2    1    2    0    0 -0.47265646538E+02  0.18818309964E+02  0.20076416220E+03  0.24190838067E+03  0.12500098273E+03 0.  0.
    9000005    1    3    3    0    0  0.75767238876E+01  0.40672287845E+02  0.10503172507E+02  0.42696116640E+02  0.10000000000E+01 0.  0.
    9000005    1    3    3    0    0 -0.54842370425E+02 -0.21853977880E+02  0.19026098969E+03  0.19921226403E+03  0.10000000000E+01 0.  0.
         21    1    1    2  502  501  0.47265646538E+02 -0.18818309964E+02 -0.12400048426E+03  0.13403093012E+03  0.00000000000E+00 0. -1.
<mgrwt>
<rscale>  1 0.13495709E+03</rscale>
<asrwt>0</asrwt>
<pdfrwt beam="2">  1        4 0.23013510E-01 0.13495709E+03</pdfrwt>
<pdfrwt beam="1">  1       -4 0.34823306E-01 0.13495709E+03</pdfrwt>
<totfact> 0.23223812E+02</totfact>
</mgrwt>
</event>
<event>
 6    4  0.1195577E-003  0.1329283E+03  0.7818608E-02  0.1223174E+00
         -4   -1    0    0    0  501 -0.00000000000E+00  0.00000000000E+00  0.54775955906E+02  0.54790676629E+02  0.12700000000E+01 0.  1.
          4   -1    0    0  502    0  0.00000000000E+00 -0.00000000000E+00 -0.14496209204E+03  0.14496765512E+03  0.12700000000E+01 0.  1.
         25    2    1    2    0    0 -0.41227175001E+02 -0.18518997961E+02 -0.64121797284E+02  0.14758570478E+03  0.12500920816E+03 0.  0.
    9000005    1    3    3    0    0 -0.29475428160E+02 -0.38599568700E+02  0.25586785278E+02  0.54903653338E+02  0.10000000000E+01 0.  0.
    9000005    1    3    3    0    0 -0.11751746841E+02  0.20080570739E+02 -0.89708582562E+02  0.92682051446E+02  0.10000000000E+01 0.  0.
         21    1    1    2  502  501  0.41227175001E+02  0.18518997961E+02 -0.26064338855E+02  0.52172626961E+02  0.00000000000E+00 0.  1.
<mgrwt>
<rscale>  1 0.13292831E+03</rscale>
<asrwt>0</asrwt>
<pdfrwt beam="2">  1        4 0.22303421E-01 0.13292831E+03</pdfrwt>
<pdfrwt beam="1">  1       -4 0.84286305E-02 0.13292831E+03</pdfrwt>
<totfact> 0.30525968E+03</totfact>
</mgrwt>
</event>
<event>
 6    4  0.1195577E-003  0.1268620E+03  0.7818608E-02  0.1232188E+00
         -4   -1    0    0    0  501 -0.00000000000E+00  0.00000000000E+00  0.30180549866E+02  0.30207258899E+02  0.12700000000E+01 0. -1.
          4   -1    0    0  502    0  0.00000000000E+00 -0.00000000000E+00 -0.22237090705E+03  0.22237453362E+03  0.12700000000E+01 0. -1.
         25    2    1    2    0    0 -0.18247637774E+02 -0.11565327222E+02 -0.11100374108E+03  0.16856989031E+03  0.12500897691E+03 0.  0.
    9000005    1    3    3    0    0  0.49559700367E+02 -0.16675809643E+01 -0.78171122315E+02  0.92577908222E+02  0.10000000000E+01 0.  0.
    9000005    1    3    3    0    0 -0.67807338141E+02 -0.98977462577E+01 -0.32832618764E+02  0.75991982088E+02  0.10000000000E+01 0.  0.
         21    1    1    2  502  501  0.18247637774E+02  0.11565327222E+02 -0.81186616106E+02  0.84011902209E+02  0.00000000000E+00 0. -1.
<mgrwt>
<rscale>  1 0.12686204E+03</rscale>
<asrwt>0</asrwt>
<pdfrwt beam="2">  1        4 0.34213241E-01 0.12686204E+03</pdfrwt>
<pdfrwt beam="1">  1       -4 0.46454952E-02 0.12686204E+03</pdfrwt>
<totfact> 0.35802253E+03</totfact>
</mgrwt>
</event>
<event>
 6    4  0.1195577E-003  0.1283994E+03  0.7818608E-02  0.1229850E+00
          4   -1    0    0  502    0  0.00000000000E+00  0.00000000000E+00  0.67071074474E+01  0.68262867147E+01  0.12700000000E+01 0. -1.
         -4   -1    0    0    0  501 -0.00000000000E+00 -0.00000000000E+00 -0.13221315664E+04  0.13221321764E+04  0.12700000000E+01 0. -1.
         25    2    1    2    0    0  0.23881026410E+02  0.17058095972E+02 -0.12573581343E+04  0.12638971065E+04  0.12500054350E+03 0.  0.
    9000005    1    3    3    0    0  0.51720309498E+02  0.10345998595E+02 -0.22348785165E+03  0.22962981064E+03  0.10000000000E+01 0.  0.
    9000005    1    3    3    0    0 -0.27839283088E+02  0.67120973770E+01 -0.10338702827E+04  0.10342672959E+04  0.10000000000E+01 0.  0.
         21    1    1    2  502  501 -0.23881026410E+02 -0.17058095972E+02 -0.58066324651E+02  0.65061356572E+02  0.00000000000E+00 0. -1.
<mgrwt>
<rscale>  1 0.12839945E+03</rscale>
<asrwt>0</asrwt>
<pdfrwt beam="1">  1        4 0.10410783E-02 0.12839945E+03</pdfrwt>
<pdfrwt beam="2">  1       -4 0.20341387E+00 0.12839945E+03</pdfrwt>
<totfact> 0.63359782E+02</totfact>
</mgrwt>
</event>
<event>
 6    4  0.1195577E-003  0.1294226E+03  0.7818608E-02  0.1228315E+00
          4   -1    0    0  502    0  0.00000000000E+00  0.00000000000E+00  0.13311090123E+02  0.13371537692E+02  0.12700000000E+01 0.  1.
         -4   -1    0    0    0  501 -0.00000000000E+00 -0.00000000000E+00 -0.55839873897E+03  0.55840018318E+03  0.12700000000E+01 0.  1.
         25    2    1    2    0    0 -0.18362476346E+02  0.28068205912E+02 -0.49388667541E+03  0.51056269865E+03  0.12500086556E+03 0.  0.
    9000005    1    3    3    0    0 -0.35681113718E+02  0.30611714774E+02 -0.59575128929E+02  0.75897397482E+02  0.10000000000E+01 0.  0.
    9000005    1    3    3    0    0  0.17318637372E+02 -0.25435088621E+01 -0.43431154648E+03  0.43466530117E+03  0.10000000000E+01 0.  0.
         21    1    1    2  502  501  0.18362476346E+02 -0.28068205912E+02 -0.51200973439E+02  0.61209022225E+02  0.00000000000E+00 0. -1.
<mgrwt>
<rscale>  1 0.12942265E+03</rscale>
<asrwt>0</asrwt>
<pdfrwt beam="1">  1        4 0.20526214E-02 0.12942265E+03</pdfrwt>
<pdfrwt beam="2">  1       -4 0.85912241E-01 0.12942265E+03</pdfrwt>
<totfact> 0.19287450E+03</totfact>
</mgrwt>
</event>
<event>
 6    4  0.1195577E-003  0.1339203E+03  0.7818608E-02  0.1221752E+00
         -4   -1    0    0    0  501 -0.00000000000E+00  0.00000000000E+00  0.21318247997E+04  0.21318251780E+04  0.12700000000E+01 0. -1.
          4   -1    0    0  502    0  0.00000000000E+00 -0.00000000000E+00 -0.43571670141E+01  0.45384804052E+01  0.12700000000E+01 0. -1.
         25    2    1    2    0    0 -0.82005672302E+01  0.47356217982E+02  0.18434762770E+04  0.18483342315E+04  0.12499914637E+03 0.  0.
    9000005    1    3    3    0    0 -0.47480609046E+02  0.72906518111E+02  0.12196811096E+04  0.12227807562E+04  0.10000000000E+01 0.  0.
    9000005    1    3    3    0    0  0.39280041815E+02 -0.25550300129E+02  0.62379516738E+03  0.62555347523E+03  0.10000000000E+01 0.  0.
         21    1    1    2  502  501  0.82005672302E+01 -0.47356217982E+02  0.28399135569E+03  0.28802942696E+03  0.00000000000E+00 0. -1.
<mgrwt>
<rscale>  1 0.13392030E+03</rscale>
<asrwt>0</asrwt>
<pdfrwt beam="2">  1        4 0.68430975E-03 0.13392030E+03</pdfrwt>
<pdfrwt beam="1">  1       -4 0.32798698E+00 0.13392030E+03</pdfrwt>
<totfact> 0.22458488E+02</totfact>
</mgrwt>
</event>
<event>
 6    4  0.1195577E-003  0.1292112E+03  0.7818608E-02  0.1228631E+00
         -4   -1    0    0    0  501 -0.00000000000E+00  0.00000000000E+00  0.12261586032E+03  0.12262243719E+03  0.12700000000E+01 0.  1.
          4   -1    0    0  502    0  0.00000000000E+00 -0.00000000000E+00 -0.16705717960E+03  0.16706200692E+03  0.12700000000E+01 0.  1.
         25    2    1    2    0    0  0.19212681964E+02  0.26478502696E+02  0.85992689668E+02  0.15521039850E+03  0.12500114749E+03 0.  0.
    9000005    1    3    3    0    0 -0.32105818332E+02  0.45215677457E+02  0.83841474427E+02  0.10052678197E+03  0.10000000000E+01 0.  0.
    9000005    1    3    3    0    0  0.51318500295E+02 -0.18737174760E+02  0.21512152407E+01  0.54683616537E+02  0.10000000000E+01 0.  0.
         21    1    1    2  502  501 -0.19212681964E+02 -0.26478502696E+02 -0.13043400894E+03  0.13447404561E+03  0.00000000000E+00 0.  1.
<mgrwt>
<rscale>  1 0.12921116E+03</rscale>
<asrwt>0</asrwt>
<pdfrwt beam="2">  1        4 0.25701982E-01 0.12921116E+03</pdfrwt>
<pdfrwt beam="1">  1       -4 0.18864856E-01 0.12921116E+03</pdfrwt>
<totfact> 0.58528580E+02</totfact>
</mgrwt>
</event>
<event>
 6    4  0.1195577E-003  0.1294841E+03  0.7818608E-02  0.1228223E+00
          4   -1    0    0  502    0  0.00000000000E+00  0.00000000000E+00  0.17785874613E+03  0.17786328029E+03  0.12700000000E+01 0. -1.
         -4   -1    0    0    0  501 -0.00000000000E+00 -0.00000000000E+00 -0.49411525648E+02  0.49427844044E+02  0.12700000000E+01 0. -1.
         25    2    1    2    0    0  0.33752924010E+02  0.12949557371E+01  0.14083548727E+03  0.19131327082E+03  0.12500078532E+03 0.  0.
    9000005    1    3    3    0    0  0.32740755382E+02  0.57624026829E+02  0.44917389476E+02  0.80069078978E+02  0.10000000000E+01 0.  0.
    9000005    1    3    3    0    0  0.10121686274E+01 -0.56329071092E+02  0.95918097789E+02  0.11124419184E+03  0.10000000000E+01 0.  0.
         21    1    1    2  502  501 -0.33752924010E+02 -0.12949557371E+01 -0.12388266782E+02  0.35977853513E+02  0.00000000000E+00 0. -1.
<mgrwt>
<rscale>  1 0.12948410E+03</rscale>
<asrwt>0</asrwt>
<pdfrwt beam="1">  1        4 0.27364489E-01 0.12948410E+03</pdfrwt>
<pdfrwt beam="2">  1       -4 0.76033770E-02 0.12948410E+03</pdfrwt>
<totfact> 0.24684015E+03</totfact>
</mgrwt>
</event>
<event>
 6    4  0.1195577E-003  0.1283705E+03  0.7818608E-02  0.1229894E+00
         -4   -1    0    0    0  501 -0.00000000000E+00  0.00000000000E+00  0.69316865532E+02  0.69328498810E+02  0.12700000000E+01 0. -1.
          4   -1    0    0  502    0  0.00000000000E+00 -0.00000000000E+00 -0.90988607136E+02  0.90997469902E+02  0.12700000000E+01 0. -1.
         25    2    1    2    0    0 -0.70029682756E+01  0.28483720182E+02 -0.10007766580E+02  0.12875997129E+03  0.12497444112E+03 0.  0.
    9000005    1    3    3    0    0 -0.62041951693E+00 -0.44036396090E+02 -0.29952263679E+02  0.53270321948E+02  0.10000000000E+01 0.  0.
    9000005    1    3    3    0    0 -0.63825487587E+01  0.72520116272E+02  0.19944497100E+02  0.75489649339E+02  0.10000000000E+01 0.  0.
         21    1    1    2  502  501  0.70029682756E+01 -0.28483720182E+02 -0.11663975024E+02  0.31565997425E+02  0.00000000000E+00 0.  1.
<mgrwt>
<rscale>  1 0.12837046E+03</rscale>
<asrwt>0</asrwt>
<pdfrwt beam="2">  1        4 0.13999824E-01 0.12837046E+03</pdfrwt>
<pdfrwt beam="1">  1       -4 0.10665710E-01 0.12837046E+03</pdfrwt>
<totfact> 0.46607360E+03</totfact>
</mgrwt>
</event>
<event>
 6    4  0.1195577E-003  0.1272684E+03  0.7818608E-02  0.1231566E+00
          4   -1    0    0  502    0  0.00000000000E+00  0.00000000000E+00  0.28535903990E+02  0.28564150898E+02  0.12700000000E+01 0. -1.
         -4   -1    0    0    0  501 -0.00000000000E+00 -0.00000000000E+00 -0.98911443270E+03  0.98911524803E+03  0.12700000000E+01 0. -1.
         25    2    1    2    0    0 -0.84617629651E+00 -0.23927570570E+02 -0.97914506187E+03  0.98738153099E+03  0.12499596358E+03 0.  0.
    9000005    1    3    3    0    0 -0.28337655855E+02  0.18142459323E+02 -0.79498662414E+02  0.86331969138E+02  0.10000000000E+01 0.  0.
    9000005    1    3    3    0    0  0.27491479559E+02 -0.42070029893E+02 -0.89964639945E+03  0.90104956185E+03  0.10000000000E+01 0.  0.
         21    1    1    2  502  501  0.84617629651E+00  0.23927570570E+02  0.18566533159E+02  0.30297867932E+02  0.00000000000E+00 0. -1.
<mgrwt>
<rscale>  1 0.12726836E+03</rscale>
<asrwt>0</asrwt>
<pdfrwt beam="1">  1        4 0.43923754E-02 0.12726836E+03</pdfrwt>
<pdfrwt beam="2">  1       -4 0.15217366E+00 0.12726836E+03</pdfrwt>
<totfact> 0.14979804E+02</totfact>
</mgrwt>
</event>
<event>
 6    4  0.1195577E-003  0.1288103E+03  0.7818608E-02  0.1229232E+00
         -4   -1    0    0    0  501 -0.00000000000E+00  0.00000000000E+00  0.42072732796E+02  0.42091896428E+02  0.12700000000E+01 0. -1.
          4   -1    0    0  502    0  0.00000000000E+00 -0.00000000000E+00 -0.15341539636E+03  0.15342065292E+03  0.12700000000E+01 0. -1.
         25    2    1    2    0    0 -0.21537034509E+02 -0.22417036096E+02 -0.81550717175E+02  0.15245529174E+03  0.12500291654E+03 0.  0.
    9000005    1    3    3    0    0  0.45840244737E+02 -0.28623831289E+02 -0.11903833260E+02  0.55347565453E+02  0.10000000000E+01 0.  0.
    9000005    1    3    3    0    0 -0.67377279246E+02  0.62067951936E+01 -0.69646883915E+02  0.97107726285E+02  0.10000000000E+01 0.  0.
         21    1    1    2  502  501  0.21537034509E+02  0.22417036096E+02 -0.29791946393E+02  0.43057257607E+02  0.00000000000E+00 0.  1.
<mgrwt>
<rscale>  1 0.12881031E+03</rscale>
<asrwt>0</asrwt>
<pdfrwt beam="2">  1        4 0.23604247E-01 0.12881031E+03</pdfrwt>
<pdfrwt beam="1">  1       -4 0.64746067E-02 0.12881031E+03</pdfrwt>
<totfact> 0.42167471E+03</totfact>
</mgrwt>
</event>
<event>
 6    4  0.1195577E-003  0.1278595E+03  0.7818608E-02  0.1230667E+00
         -4   -1    0    0    0  501 -0.00000000000E+00  0.00000000000E+00  0.32800934843E+02  0.32825511825E+02  0.12700000000E+01 0.  1.
          4   -1    0    0  502    0  0.00000000000E+00 -0.00000000000E+00 -0.18592541854E+03  0.18592975598E+03  0.12700000000E+01 0.  1.
         25    2    1    2    0    0  0.20864657641E+02 -0.16994774937E+02 -0.11419952903E+03  0.17143393637E+03  0.12499562310E+03 0.  0.
    9000005    1    3    3    0    0 -0.44616932693E+02  0.18876472037E+02 -0.68443303913E+02  0.83859869604E+02  0.10000000000E+01 0.  0.
    9000005    1    3    3    0    0  0.65481590334E+02 -0.35871246974E+02 -0.45756225121E+02  0.87574066763E+02  0.10000000000E+01 0.  0.
         21    1    1    2  502  501 -0.20864657641E+02  0.16994774937E+02 -0.38924954662E+02  0.47321331438E+02  0.00000000000E+00 0.  1.
<mgrwt>
<rscale>  1 0.12785954E+03</rscale>
<asrwt>0</asrwt>
<pdfrwt beam="2">  1        4 0.28606134E-01 0.12785954E+03</pdfrwt>
<pdfrwt beam="1">  1       -4 0.50485219E-02 0.12785954E+03</pdfrwt>
<totfact> 0.44095294E+03</totfact>
</mgrwt>
</event>
<event>
 6    4  0.1195577E-003  0.1268503E+03  0.7818608E-02  0.1232206E+00
          4   -1    0    0  502    0  0.00000000000E+00  0.00000000000E+00  0.11382803968E+03  0.11383512427E+03  0.12700000000E+01 0. -1.
         -4   -1    0    0    0  501 -0.00000000000E+00 -0.00000000000E+00 -0.48583831685E+02  0.48600427994E+02  0.12700000000E+01 0. -1.
         25    2    1    2    0    0  0.20080802866E+02 -0.79112021211E+01  0.51875895735E+02  0.13704780846E+03  0.12500066993E+03 0.  0.
    9000005    1    3    3    0    0 -0.20159147898E+02 -0.48706413929E+02  0.59196857916E+02  0.79271520667E+02  0.10000000000E+01 0.  0.
    9000005    1    3    3    0    0  0.40239950763E+02  0.40795211808E+02 -0.73209621807E+01  0.57776287793E+02  0.10000000000E+01 0.  0.
         21    1    1    2  502  501 -0.20080802866E+02  0.79112021211E+01  0.13368312260E+02  0.25387743803E+02  0.00000000000E+00 0. -1.
<mgrwt>
<rscale>  1 0.12685028E+03</rscale>
<asrwt>0</asrwt>
<pdfrwt beam="1">  1        4 0.17513828E-01 0.12685028E+03</pdfrwt>
<pdfrwt beam="2">  1       -4 0.74762572E-02 0.12685028E+03</pdfrwt>
<totfact> 0.56788028E+03</totfact>
</mgrwt>
</event>
<event>
 6    4  0.1195577E-003  0.1386387E+03  0.7818608E-02  0.1215173E+00
          4   -1    0    0  502    0  0.00000000000E+00  0.00000000000E+00  0.78497493365E+02  0.78507766270E+02  0.12700000000E+01 0.  1.
         -4   -1    0    0    0  501 -0.00000000000E+00 -0.00000000000E+00 -0.12636833700E+03  0.12637471858E+03  0.12700000000E+01 0.  1.
         25    2    1    2    0    0 -0.31483749386E+02  0.51034855041E+02 -0.40706274612E+02  0.14449114480E+03  0.12499962891E+03 0.  0.
    9000005    1    3    3    0    0 -0.54980856501E+02  0.19332561089E+02 -0.73052512950E+02  0.93457541954E+02  0.10000000000E+01 0.  0.
    9000005    1    3    3    0    0  0.23497107115E+02  0.31702293951E+02  0.32346238338E+02  0.51033602843E+02  0.10000000000E+01 0.  0.
         21    1    1    2  502  501  0.31483749386E+02 -0.51034855041E+02 -0.71645690263E+01  0.60391340056E+02  0.00000000000E+00 0. -1.
<mgrwt>
<rscale>  1 0.13863870E+03</rscale>
<asrwt>0</asrwt>
<pdfrwt beam="1">  1        4 0.12077819E-01 0.13863870E+03</pdfrwt>
<pdfrwt beam="2">  1       -4 0.19442564E-01 0.13863870E+03</pdfrwt>
<totfact> 0.21530377E+03</totfact>
</mgrwt>
</event>
<event>
 6    4  0.1195577E-003  0.1271597E+03  0.7818608E-02  0.1231732E+00
         -4   -1    0    0    0  501 -0.00000000000E+00  0.00000000000E+00  0.30066141287E+03  0.30066409511E+03  0.12700000000E+01 0. -1.
          4   -1    0    0  502    0  0.00000000000E+00 -0.00000000000E+00 -0.69613263844E+02  0.69624847598E+02  0.12700000000E+01 0. -1.
         25    2    1    2    0    0 -0.23219050686E+02  0.27527097355E+01  0.28467617684E+03  0.31178537791E+03  0.12499157769E+03 0.  0.
    9000005    1    3    3    0    0 -0.56664828898E+02 -0.98612398581E+01  0.26458951707E+03  0.27077067682E+03  0.10000000000E+01 0.  0.
    9000005    1    3    3    0    0  0.33445778212E+02  0.12613949594E+02  0.20086659778E+02  0.41014701091E+02  0.10000000000E+01 0.  0.
         21    1    1    2  502  501  0.23219050686E+02 -0.27527097355E+01 -0.53628027820E+02  0.58503564793E+02  0.00000000000E+00 0. -1.
<mgrwt>
<rscale>  1 0.12715973E+03</rscale>
<asrwt>0</asrwt>
<pdfrwt beam="2">  1        4 0.10710830E-01 0.12715973E+03</pdfrwt>
<pdfrwt beam="1">  1       -4 0.46256700E-01 0.12715973E+03</pdfrwt>
<totfact> 0.50265222E+02</totfact>
</mgrwt>
</event>
<event>
 6    4  0.1195577E-003  0.1336402E+03  0.7818608E-02  0.1222152E+00
          4   -1    0    0  502    0  0.00000000000E+00  0.00000000000E+00  0.48909292234E+02  0.48925778142E+02  0.12700000000E+01 0. -1.
         -4   -1    0    0    0  501 -0.00000000000E+00 -0.00000000000E+00 -0.17998601747E+03  0.17999049804E+03  0.12700000000E+01 0. -1.
         25    2    1    2    0    0  0.47270139021E+02  0.33743283937E+00 -0.67580104450E+02  0.14975567515E+03  0.12500044728E+03 0.  0.
    9000005    1    3    3    0    0  0.87224589025E+02  0.54647302150E+01 -0.24504876012E+02  0.90771587820E+02  0.10000000000E+01 0.  0.
    9000005    1    3    3    0    0 -0.39954450004E+02 -0.51272973756E+01 -0.43075228438E+02  0.58984087333E+02  0.10000000000E+01 0.  0.
         21    1    1    2  502  501 -0.47270139021E+02 -0.33743283937E+00 -0.63496620782E+02  0.79160601025E+02  0.00000000000E+00 0. -1.
<mgrwt>
<rscale>  1 0.13364016E+03</rscale>
<asrwt>0</asrwt>
<pdfrwt beam="1">  1        4 0.75261194E-02 0.13364016E+03</pdfrwt>
<pdfrwt beam="2">  1       -4 0.27691769E-01 0.13364016E+03</pdfrwt>
<totfact> 0.24733768E+03</totfact>
</mgrwt>
</event>
<event>
 6    4  0.1195577E-003  0.1378931E+03  0.7818608E-02  0.1216192E+00
          4   -1    0    0  502    0  0.00000000000E+00  0.00000000000E+00  0.16141002636E+04  0.16141007633E+04  0.12700000000E+01 0.  1.
         -4   -1    0    0    0  501 -0.00000000000E+00 -0.00000000000E+00 -0.68230565535E+01  0.69402450052E+01  0.12700000000E+01 0.  1.
         25    2    1    2    0    0 -0.49066398879E+02 -0.31331124943E+02  0.81107279053E+03  0.82271111166E+03  0.12500140325E+03 0.  0.
    9000005    1    3    3    0    0 -0.75561808828E+01  0.37018781170E+02  0.95874408663E+02  0.10305526801E+03  0.10000000000E+01 0.  0.
    9000005    1    3    3    0    0 -0.41510217996E+02 -0.68349906113E+02  0.71519838187E+03  0.71965584364E+03  0.10000000000E+01 0.  0.
         21    1    1    2  502  501  0.49066398879E+02  0.31331124943E+02  0.79620441655E+03  0.79832989661E+03  0.00000000000E+00 0.  1.
<mgrwt>
<rscale>  1 0.13789308E+03</rscale>
<asrwt>0</asrwt>
<pdfrwt beam="1">  1        4 0.24833225E+00 0.13789308E+03</pdfrwt>
<pdfrwt beam="2">  1       -4 0.10587536E-02 0.13789308E+03</pdfrwt>
<totfact> 0.33874314E+02</totfact>
</mgrwt>
</event>
<event>
 6    4  0.1195577E-003  0.1379977E+03  0.7818608E-02  0.1216049E+00
         -4   -1    0    0    0  501 -0.00000000000E+00  0.00000000000E+00  0.53381015662E+03  0.53381166736E+03  0.12700000000E+01 0. -1.
          4   -1    0    0  502    0  0.00000000000E+00 -0.00000000000E+00 -0.19996450702E+02  0.20036739772E+02  0.12700000000E+01 0. -1.
         25    2    1    2    0    0 -0.28436422511E+02 -0.51072634475E+02  0.43047056782E+03  0.45204898284E+03  0.12500531594E+03 0.  0.
    9000005    1    3    3    0    0  0.13171803321E+02  0.33578745698E+02  0.62387197483E+02  0.72070735914E+02  0.10000000000E+01 0.  0.
    9000005    1    3    3    0    0 -0.41608225832E+02 -0.84651380173E+02  0.36808337033E+03  0.37997824693E+03  0.10000000000E+01 0.  0.
         21    1    1    2  502  501  0.28436422511E+02  0.51072634475E+02  0.83343138098E+02  0.10179942429E+03  0.00000000000E+00 0. -1.
<mgrwt>
<rscale>  1 0.13799773E+03</rscale>
<asrwt>0</asrwt>
<pdfrwt beam="2">  1        4 0.30795924E-02 0.13799773E+03</pdfrwt>
<pdfrwt beam="1">  1       -4 0.82127854E-01 0.13799773E+03</pdfrwt>
<totfact> 0.11511185E+03</totfact>
</mgrwt>
</event>
<event>
 6    4  0.1195577E-003  0.1282620E+03  0.7818608E-02  0.1230058E+00
         -4   -1    0    0    0  501 -0.00000000000E+00  0.00000000000E+00  0.10478969421E+03  0.10479738982E+03  0.12700000000E+01 0.  1.
          4   -1    0    0  502    0  0.00000000000E+00 -0.00000000000E+00 -0.85169222268E+02  0.85178690538E+02  0.12700000000E+01 0.  1.
         25    2    1    2    0    0  0.23680627965E+02  0.16262827945E+02  0.59041259574E+02  0.14119852188E+03  0.12500360209E+03 0.  0.
    9000005    1    3    3    0    0  0.31524889024E+02  0.65748602968E+02  0.14927386494E+02  0.74434698144E+02  0.10000000000E+01 0.  0.
    9000005    1    3    3    0    0 -0.78442610596E+01 -0.49485775023E+02  0.44113873080E+02  0.66763823732E+02  0.10000000000E+01 0.  0.
         21    1    1    2  502  501 -0.23680627965E+02 -0.16262827945E+02 -0.39420787633E+02  0.48777558479E+02  0.00000000000E+00 0.  1.
<mgrwt>
<rscale>  1 0.12826205E+03</rscale>
<asrwt>0</asrwt>
<pdfrwt beam="2">  1        4 0.13104278E-01 0.12826205E+03</pdfrwt>
<pdfrwt beam="1">  1       -4 0.16122812E-01 0.12826205E+03</pdfrwt>
<totfact> 0.25634047E+03</totfact>
</mgrwt>
</event>
<event>
 6    4  0.1195577E-003  0.1294016E+03  0.7818608E-02  0.1228346E+00
          4   -1    0    0  502    0  0.00000000000E+00  0.00000000000E+00  0.42338904691E+02  0.42357947902E+02  0.12700000000E+01 0. -1.
         -4   -1    0    0    0  501 -0.00000000000E+00 -0.00000000000E+00 -0.16092817316E+03  0.16093318432E+03  0.12700000000E+01 0. -1.
         25    2    1    2    0    0  0.32960825892E+02  0.60309115993E+01 -0.79782544411E+02  0.15201979744E+03  0.12498790535E+03 0.  0.
    9000005    1    3    3    0    0  0.74053925245E+02 -0.72590296304E+01 -0.79395400162E+02  0.10881776933E+03  0.10000000000E+01 0.  0.
    9000005    1    3    3    0    0 -0.41093099353E+02  0.13289941230E+02 -0.38714424933E+00  0.43202028112E+02  0.10000000000E+01 0.  0.
         21    1    1    2  502  501 -0.32960825892E+02 -0.60309115993E+01 -0.38806724053E+02  0.51271334778E+02  0.00000000000E+00 0. -1.
<mgrwt>
<rscale>  1 0.12940156E+03</rscale>
<asrwt>0</asrwt>
<pdfrwt beam="1">  1        4 0.65155281E-02 0.12940156E+03</pdfrwt>
<pdfrwt beam="2">  1       -4 0.24760031E-01 0.12940156E+03</pdfrwt>
<totfact> 0.38271146E+03</totfact>
</mgrwt>
</event>
<event>
 6    4  0.1195577E-003  0.1288385E+03  0.7818608E-02  0.1229189E+00
          4   -1    0    0  502    0  0.00000000000E+00  0.00000000000E+00  0.54289950723E+03  0.54290099268E+03  0.12700000000E+01 0. -1.
         -4   -1    0    0    0  501 -0.00000000000E+00 -0.00000000000E+00 -0.11773146045E+02  0.11841447032E+02  0.12700000000E+01 0. -1.
         25    2    1    2    0    0 -0.18408356534E+02 -0.25230265694E+02  0.43371692783E+03  0.45244859041E+03  0.12499567826E+03 0.  0.
    9000005    1    3    3    0    0  0.31063436679E+02 -0.23376073126E+02  0.40581629642E+02  0.56207175321E+02  0.10000000000E+01 0.  0.
    9000005    1    3    3    0    0 -0.49471793213E+02 -0.18541925678E+01  0.39313529819E+03  0.39624141509E+03  0.10000000000E+01 0.  0.
         21    1    1    2  502  501  0.18408356534E+02  0.25230265694E+02  0.97409433356E+02  0.10229384930E+03  0.00000000000E+00 0. -1.
<mgrwt>
<rscale>  1 0.12883848E+03</rscale>
<asrwt>0</asrwt>
<pdfrwt beam="1">  1        4 0.83528347E-01 0.12883848E+03</pdfrwt>
<pdfrwt beam="2">  1       -4 0.18166219E-02 0.12883848E+03</pdfrwt>
<totfact> 0.24751375E+03</totfact>
</mgrwt>
</event>
<event>
 6    4  0.1195577E-003  0.1271451E+03  0.7818608E-02  0.1231754E+00
          4   -1    0    0  502    0  0.00000000000E+00  0.00000000000E+00  0.39644858823E+02  0.39665195462E+02  0.12700000000E+01 0.  1.
         -4   -1    0    0    0  501 -0.00000000000E+00 -0.00000000000E+00 -0.14260651966E+03  0.14261217462E+03  0.12700000000E+01 0.  1.
         25    2    1    2    0    0 -0.21192059436E+02 -0.95496950202E+01 -0.88190888021E+02  0.15473693095E+03  0.12500234002E+03 0.  0.
    9000005    1    3    3    0    0  0.18473422949E+02 -0.44849812728E+01  0.26865195410E+02  0.32925994851E+02  0.10000000000E+01 0.  0.
    9000005    1    3    3    0    0 -0.39665482385E+02 -0.50647137474E+01 -0.11505608343E+03  0.12181093610E+03  0.10000000000E+01 0.  0.
         21    1    1    2  502  501  0.21192059436E+02  0.95496950202E+01 -0.14770772817E+02  0.27540439135E+02  0.00000000000E+00 0.  1.
<mgrwt>
<rscale>  1 0.12714513E+03</rscale>
<asrwt>0</asrwt>
<pdfrwt beam="1">  1        4 0.61012085E-02 0.12714513E+03</pdfrwt>
<pdfrwt beam="2">  1       -4 0.21941464E-01 0.12714513E+03</pdfrwt>
<totfact> 0.52893911E+03</totfact>
</mgrwt>
</event>
<event>
 6    4  0.1195577E-003  0.1267524E+03  0.7818608E-02  0.1232356E+00
          4   -1    0    0  502    0  0.00000000000E+00  0.00000000000E+00  0.28727373906E+03  0.28727654630E+03  0.12700000000E+01 0. -1.
         -4   -1    0    0    0  501 -0.00000000000E+00 -0.00000000000E+00 -0.19068118233E+02  0.19110364543E+02  0.12700000000E+01 0. -1.
         25    2    1    2    0    0  0.65384441761E+01  0.19958338192E+02  0.22211114951E+03  0.25573331471E+03  0.12500031599E+03 0.  0.
    9000005    1    3    3    0    0 -0.50487782211E+02 -0.47183618382E+01  0.44179233793E+02  0.67261309752E+02  0.10000000000E+01 0.  0.
    9000005    1    3    3    0    0  0.57026226387E+02  0.24676700030E+02  0.17793191572E+03  0.18847200496E+03  0.10000000000E+01 0.  0.
         21    1    1    2  502  501 -0.65384441761E+01 -0.19958338192E+02  0.46094471318E+02  0.50653596139E+02  0.00000000000E+00 0.  1.
<mgrwt>
<rscale>  1 0.12675238E+03</rscale>
<asrwt>0</asrwt>
<pdfrwt beam="1">  1        4 0.44199423E-01 0.12675238E+03</pdfrwt>
<pdfrwt beam="2">  1       -4 0.29370225E-02 0.12675238E+03</pdfrwt>
<totfact> 0.44747998E+03</totfact>
</mgrwt>
</event>
<event>
 6    4  0.1195577E-003  0.1280643E+03  0.7818608E-02  0.1230357E+00
         -4   -1    0    0    0  501 -0.00000000000E+00  0.00000000000E+00  0.30190995238E+03  0.30191262353E+03  0.12700000000E+01 0. -1.
          4   -1    0    0  502    0  0.00000000000E+00 -0.00000000000E+00 -0.40958825630E+02  0.40978510185E+02  0.12700000000E+01 0. -1.
         25    2    1    2    0    0  0.84729685282E+01 -0.26533912698E+02  0.28084293192E+03  0.30866360631E+03  0.12499851894E+03 0.  0.
    9000005    1    3    3    0    0 -0.90856781998E+01 -0.29307642427E+02  0.28788482916E+03  0.28951711921E+03  0.10000000000E+01 0.  0.
    9000005    1    3    3    0    0  0.17558646728E+02  0.27737297284E+01 -0.70418972480E+01  0.19146487103E+02  0.10000000000E+01 0.  0.
         21    1    1    2  502  501 -0.84729685282E+01  0.26533912698E+02 -0.19891805170E+02  0.34227527397E+02  0.00000000000E+00 0. -1.
<mgrwt>
<rscale>  1 0.12806432E+03</rscale>
<asrwt>0</asrwt>
<pdfrwt beam="2">  1        4 0.63030776E-02 0.12806432E+03</pdfrwt>
<pdfrwt beam="1">  1       -4 0.46449403E-01 0.12806432E+03</pdfrwt>
<totfact> 0.12028428E+03</totfact>
</mgrwt>
</event>
<event>
 6    4  0.1195577E-003  0.1308318E+03  0.7818608E-02  0.1226227E+00
         -4   -1    0    0    0  501 -0.00000000000E+00  0.00000000000E+00  0.26445460516E+02  0.26475937791E+02  0.12700000000E+01 0.  1.
          4   -1    0    0  502    0  0.00000000000E+00 -0.00000000000E+00 -0.48953879265E+03  0.48954044002E+03  0.12700000000E+01 0.  1.
         25    2    1    2    0    0  0.20385869539E+02  0.32802136127E+02 -0.14385757784E+03  0.19445296161E+03  0.12500155106E+03 0.  0.
    9000005    1    3    3    0    0 -0.70705628312E+01  0.66916882267E+02 -0.32386036511E+02  0.74684117133E+02  0.10000000000E+01 0.  0.
    9000005    1    3    3    0    0  0.27456432370E+02 -0.34114746139E+02 -0.11147154132E+03  0.11976884448E+03  0.10000000000E+01 0.  0.
         21    1    1    2  502  501 -0.20385869539E+02 -0.32802136127E+02 -0.31923575430E+03  0.32156341620E+03  0.00000000000E+00 0.  1.
<mgrwt>
<rscale>  1 0.13083177E+03</rscale>
<asrwt>0</asrwt>
<pdfrwt beam="2">  1        4 0.75316125E-01 0.13083177E+03</pdfrwt>
<pdfrwt beam="1">  1       -4 0.40710039E-02 0.13083177E+03</pdfrwt>
<totfact> 0.88681950E+02</totfact>
</mgrwt>
</event>
<event>
 6    4  0.1195577E-003  0.1270268E+03  0.7818608E-02  0.1231935E+00
         -4   -1    0    0    0  501 -0.00000000000E+00  0.00000000000E+00  0.30326233720E+03  0.30326499644E+03  0.12700000000E+01 0.  1.
          4   -1    0    0  502    0  0.00000000000E+00 -0.00000000000E+00 -0.20107411992E+02  0.20147479173E+02  0.12700000000E+01 0.  1.
         25    2    1    2    0    0 -0.44295646043E+01  0.22155511133E+02  0.26687575641E+03  0.29556469198E+03  0.12500132028E+03 0.  0.
    9000005    1    3    3    0    0 -0.61833573858E+02 -0.69312543053E+01  0.14346048518E+03  0.15637565012E+03  0.10000000000E+01 0.  0.
    9000005    1    3    3    0    0  0.57404009254E+02  0.29086765438E+02  0.12341527123E+03  0.13918904186E+03  0.10000000000E+01 0.  0.
         21    1    1    2  502  501  0.44295646043E+01 -0.22155511133E+02  0.16279168798E+02  0.27847783627E+02  0.00000000000E+00 0.  1.
<mgrwt>
<rscale>  1 0.12702684E+03</rscale>
<asrwt>0</asrwt>
<pdfrwt beam="2">  1        4 0.30967347E-02 0.12702684E+03</pdfrwt>
<pdfrwt beam="1">  1       -4 0.46659030E-01 0.12702684E+03</pdfrwt>
<totfact> 0.36974738E+03</totfact>
</mgrwt>
</event>
<event>
 6    4  0.1195577E-003  0.1286713E+03  0.7818608E-02  0.1229441E+00
         -4   -1    0    0    0  501 -0.00000000000E+00  0.00000000000E+00  0.59978811337E+02  0.59992255412E+02  0.12700000000E+01 0.  1.
          4   -1    0    0  502    0  0.00000000000E+00 -0.00000000000E+00 -0.12271141040E+03  0.12271798215E+03  0.12700000000E+01 0.  1.
         25    2    1    2    0    0  0.24747836924E+02  0.17830518236E+02 -0.20012284926E+02  0.13021825671E+03  0.12500368003E+03 0.  0.
    9000005    1    3    3    0    0 -0.35497843354E+02 -0.33597776260E+02 -0.13592050471E+02  0.50741021752E+02  0.10000000000E+01 0.  0.
    9000005    1    3    3    0    0  0.60245680278E+02  0.51428294496E+02 -0.64202344551E+01  0.79477234963E+02  0.10000000000E+01 0.  0.
         21    1    1    2  502  501 -0.24747836924E+02 -0.17830518236E+02 -0.42720314137E+02  0.52491980844E+02  0.00000000000E+00 0.  1.
<mgrwt>
<rscale>  1 0.12867130E+03</rscale>
<asrwt>0</asrwt>
<pdfrwt beam="2">  1        4 0.18880218E-01 0.12867130E+03</pdfrwt>
<pdfrwt beam="1">  1       -4 0.92290491E-02 0.12867130E+03</pdfrwt>
<totfact> 0.35158596E+03</totfact>
</mgrwt>
</event>
<event>
 6    4  0.1195577E-003  0.1308298E+03  0.7818608E-02  0.1226230E+00
          4   -1    0    0  502    0  0.00000000000E+00  0.00000000000E+00  0.14595927491E+03  0.14596479997E+03  0.12700000000E+01 0.  1.
         -4   -1    0    0    0  501 -0.00000000000E+00 -0.00000000000E+00 -0.58653164996E+02  0.58666912856E+02  0.12700000000E+01 0.  1.
         25    2    1    2    0    0  0.27419946605E+02 -0.27204357481E+02  0.27898544653E+02  0.13377136180E+03  0.12499807161E+03 0.  0.
    9000005    1    3    3    0    0 -0.89395531841E-01 -0.67587291170E+02 -0.14428458348E+02  0.69117511019E+02  0.10000000000E+01 0.  0.
    9000005    1    3    3    0    0  0.27509342136E+02  0.40382933688E+02  0.42327003000E+02  0.64653850783E+02  0.10000000000E+01 0.  0.
         21    1    1    2  502  501 -0.27419946605E+02  0.27204357481E+02  0.59407565257E+02  0.70860351026E+02  0.00000000000E+00 0. -1.
<mgrwt>
<rscale>  1 0.13082985E+03</rscale>
<asrwt>0</asrwt>
<pdfrwt beam="1">  1        4 0.22456755E-01 0.13082985E+03</pdfrwt>
<pdfrwt beam="2">  1       -4 0.90250466E-02 0.13082985E+03</pdfrwt>
<totfact> 0.26800395E+03</totfact>
</mgrwt>
</event>
<event>
 6    4  0.1195577E-003  0.1295534E+03  0.7818608E-02  0.1228120E+00
          4   -1    0    0  502    0  0.00000000000E+00  0.00000000000E+00  0.60333769457E+02  0.60347134455E+02  0.12700000000E+01 0. -1.
         -4   -1    0    0    0  501 -0.00000000000E+00 -0.00000000000E+00 -0.12045514340E+03  0.12046183823E+03  0.12700000000E+01 0. -1.
         25    2    1    2    0    0 -0.26484266372E+02  0.21438411941E+02 -0.25129844885E+02  0.13196811912E+03  0.12499221371E+03 0.  0.
    9000005    1    3    3    0    0 -0.27110222870E+02  0.12687267066E+01  0.48516531070E+02  0.55600608257E+02  0.10000000000E+01 0.  0.
    9000005    1    3    3    0    0  0.62595649835E+00  0.20169685234E+02 -0.73646375955E+02  0.76367510862E+02  0.10000000000E+01 0.  0.
         21    1    1    2  502  501  0.26484266372E+02 -0.21438411941E+02 -0.34991529054E+02  0.48840853569E+02  0.00000000000E+00 0.  1.
<mgrwt>
<rscale>  1 0.12955337E+03</rscale>
<asrwt>0</asrwt>
<pdfrwt beam="1">  1        4 0.92836615E-02 0.12955337E+03</pdfrwt>
<pdfrwt beam="2">  1       -4 0.18533103E-01 0.12955337E+03</pdfrwt>
<totfact> 0.36045027E+03</totfact>
</mgrwt>
</event>
<event>
 6    4  0.1195577E-003  0.1301460E+03  0.7818608E-02  0.1227239E+00
          4   -1    0    0  502    0  0.00000000000E+00  0.00000000000E+00  0.42995808456E+03  0.42995996021E+03  0.12700000000E+01 0. -1.
         -4   -1    0    0    0  501 -0.00000000000E+00 -0.00000000000E+00 -0.18949015368E+02  0.18991526621E+02  0.12700000000E+01 0. -1.
         25    2    1    2    0    0  0.35264824103E+02  0.81574482393E+01  0.22918638406E+03  0.26356097842E+03  0.12501135517E+03 0.  0.
    9000005    1    3    3    0    0 -0.38186423387E+02  0.18621103248E+02  0.32977691724E+02  0.53791045432E+02  0.10000000000E+01 0.  0.
    9000005    1    3    3    0    0  0.73451247491E+02 -0.10463655009E+02  0.19620869234E+03  0.20976993298E+03  0.10000000000E+01 0.  0.
         21    1    1    2  502  501 -0.35264824103E+02 -0.81574482393E+01  0.18182268513E+03  0.18539050841E+03  0.00000000000E+00 0. -1.
<mgrwt>
<rscale>  1 0.13014604E+03</rscale>
<asrwt>0</asrwt>
<pdfrwt beam="1">  1        4 0.66150814E-01 0.13014604E+03</pdfrwt>
<pdfrwt beam="2">  1       -4 0.29186474E-02 0.13014604E+03</pdfrwt>
<totfact> 0.19801222E+03</totfact>
</mgrwt>
</event>
<event>
 6    4  0.1195577E-003  0.1282987E+03  0.7818608E-02  0.1230002E+00
         -4   -1    0    0    0  501 -0.00000000000E+00  0.00000000000E+00  0.60151923852E+02  0.60165329244E+02  0.12700000000E+01 0.  1.
          4   -1    0    0  502    0  0.00000000000E+00 -0.00000000000E+00 -0.16599903927E+03  0.16600389736E+03  0.12700000000E+01 0.  1.
         25    2    1    2    0    0 -0.89471669089E+01  0.27486479775E+02 -0.13034085624E+02  0.12895905807E+03  0.12499997162E+03 0.  0.
    9000005    1    3    3    0    0 -0.45653005068E+02  0.29464083818E+02  0.37815126966E+02  0.66206592833E+02  0.10000000000E+01 0.  0.
    9000005    1    3    3    0    0  0.36705838160E+02 -0.19776040436E+01 -0.50849212590E+02  0.62752465241E+02  0.10000000000E+01 0.  0.
         21    1    1    2  502  501  0.89471669089E+01 -0.27486479775E+02 -0.92813029799E+02  0.97210168535E+02  0.00000000000E+00 0.  1.
<mgrwt>
<rscale>  1 0.12829868E+03</rscale>
<asrwt>0</asrwt>
<pdfrwt beam="2">  1        4 0.25539718E-01 0.12829868E+03</pdfrwt>
<pdfrwt beam="1">  1       -4 0.92555471E-02 0.12829868E+03</pdfrwt>
<totfact> 0.20198649E+03</totfact>
</mgrwt>
</event>
<event>
 6    4  0.1195577E-003  0.1312247E+03  0.7818608E-02  0.1225650E+00
          4   -1    0    0  502    0  0.00000000000E+00  0.00000000000E+00  0.43090977584E+03  0.43091164734E+03  0.12700000000E+01 0.  1.
         -4   -1    0    0    0  501 -0.00000000000E+00 -0.00000000000E+00 -0.17729100580E+02  0.17774529737E+02  0.12700000000E+01 0.  1.
         25    2    1    2    0    0  0.38683211311E+02  0.10025612148E+02  0.35145605444E+03  0.37515500987E+03  0.12499207770E+03 0.  0.
    9000005    1    3    3    0    0 -0.25470954364E+02 -0.41644136269E+02  0.13381325195E+03  0.14244293594E+03  0.10000000000E+01 0.  0.
    9000005    1    3    3    0    0  0.64154165675E+02  0.51669748417E+02  0.21764280249E+03  0.23271207393E+03  0.10000000000E+01 0.  0.
         21    1    1    2  502  501 -0.38683211311E+02 -0.10025612148E+02  0.61724620814E+02  0.73531167208E+02  0.00000000000E+00 0.  1.
<mgrwt>
<rscale>  1 0.13122471E+03</rscale>
<asrwt>0</asrwt>
<pdfrwt beam="1">  1        4 0.66297453E-01 0.13122471E+03</pdfrwt>
<pdfrwt beam="2">  1       -4 0.27311923E-02 0.13122471E+03</pdfrwt>
<totfact> 0.21901272E+03</totfact>
</mgrwt>
</event>
<event>
 6    4  0.1195577E-003  0.1306936E+03  0.7818608E-02  0.1226430E+00
         -4   -1    0    0    0  501 -0.00000000000E+00  0.00000000000E+00  0.86792118086E+01  0.87716371116E+01  0.12700000000E+01 0.  1.
          4   -1    0    0  502    0  0.00000000000E+00 -0.00000000000E+00 -0.84714360066E+03  0.84714455262E+03  0.12700000000E+01 0.  1.
         25    2    1    2    0    0 -0.17323908428E+02  0.34002008578E+02 -0.57251574446E+03  0.58724364583E+03  0.12499827011E+03 0.  0.
    9000005    1    3    3    0    0 -0.43372837864E+02  0.47517212444E+02 -0.53840146210E+03  0.54223262806E+03  0.10000000000E+01 0.  0.
    9000005    1    3    3    0    0  0.26048929437E+02 -0.13515203867E+02 -0.34114282362E+02  0.45011017778E+02  0.10000000000E+01 0.  0.
         21    1    1    2  502  501  0.17323908428E+02 -0.34002008578E+02 -0.26594864439E+03  0.26867254390E+03  0.00000000000E+00 0.  1.
<mgrwt>
<rscale>  1 0.13069362E+03</rscale>
<asrwt>0</asrwt>
<pdfrwt beam="2">  1        4 0.13033690E+00 0.13069362E+03</pdfrwt>
<pdfrwt beam="1">  1       -4 0.13424469E-02 0.13069362E+03</pdfrwt>
<totfact> 0.13962881E+03</totfact>
</mgrwt>
</event>
<event>
 6    4  0.1195577E-003  0.1304155E+03  0.7818608E-02  0.1226840E+00
          4   -1    0    0  502    0  0.00000000000E+00  0.00000000000E+00  0.44803959080E+02  0.44821954992E+02  0.12700000000E+01 0.  1.
         -4   -1    0    0    0  501 -0.00000000000E+00 -0.00000000000E+00 -0.16213982650E+03  0.16214480022E+03  0.12700000000E+01 0.  1.
         25    2    1    2    0    0  0.23826578853E+02 -0.28559981736E+02 -0.10606976311E+03  0.16810413149E+03  0.12499930384E+03 0.  0.
    9000005    1    3    3    0    0  0.45264947115E+02  0.24607898759E+02 -0.97297073932E+02  0.11010079343E+03  0.10000000000E+01 0.  0.
    9000005    1    3    3    0    0 -0.21438368262E+02 -0.53167880495E+02 -0.87726891821E+01  0.58003338055E+02  0.10000000000E+01 0.  0.
         21    1    1    2  502  501 -0.23826578853E+02  0.28559981736E+02 -0.11266104311E+02  0.38862623727E+02  0.00000000000E+00 0.  1.
<mgrwt>
<rscale>  1 0.13041551E+03</rscale>
<asrwt>0</asrwt>
<pdfrwt beam="1">  1        4 0.68946838E-02 0.13041551E+03</pdfrwt>
<pdfrwt beam="2">  1       -4 0.24946355E-01 0.13041551E+03</pdfrwt>
<totfact> 0.34476807E+03</totfact>
</mgrwt>
</event>
<event>
 6    4  0.1195577E-003  0.1267311E+03  0.7818608E-02  0.1232388E+00
          4   -1    0    0  502    0  0.00000000000E+00  0.00000000000E+00  0.24238679562E+02  0.24271927960E+02  0.12700000000E+01 0. -1.
         -4   -1    0    0    0  501 -0.00000000000E+00 -0.00000000000E+00 -0.22826567522E+03  0.22826920814E+03  0.12700000000E+01 0. -1.
         25    2    1    2    0    0  0.14176929367E+02  0.15335432114E+02 -0.18528502125E+03  0.22448008820E+03  0.12499844037E+03 0.  0.
    9000005    1    3    3    0    0  0.36227901071E+01  0.18538158852E+02 -0.20284202910E+03  0.20372205750E+03  0.10000000000E+01 0.  0.
    9000005    1    3    3    0    0  0.10554139260E+02 -0.32027267380E+01  0.17557007848E+02  0.20758030703E+02  0.10000000000E+01 0.  0.
         21    1    1    2  502  501 -0.14176929367E+02 -0.15335432114E+02 -0.18741974408E+02  0.28061047897E+02  0.00000000000E+00 0. -1.
<mgrwt>
<rscale>  1 0.12673110E+03</rscale>
<asrwt>0</asrwt>
<pdfrwt beam="1">  1        4 0.37318571E-02 0.12673110E+03</pdfrwt>
<pdfrwt beam="2">  1       -4 0.35120624E-01 0.12673110E+03</pdfrwt>
<totfact> 0.48204453E+03</totfact>
</mgrwt>
</event>
<event>
 6    4  0.1195577E-003  0.1277055E+03  0.7818608E-02  0.1230901E+00
         -4   -1    0    0    0  501 -0.00000000000E+00  0.00000000000E+00  0.26123203077E+03  0.26123511785E+03  0.12700000000E+01 0.  1.
          4   -1    0    0  502    0  0.00000000000E+00 -0.00000000000E+00 -0.33779586669E+02  0.33803452124E+02  0.12700000000E+01 0.  1.
         25    2    1    2    0    0  0.26046626076E+02 -0.21593111068E+01  0.23532433196E+03  0.26774285652E+03  0.12500242658E+03 0.  0.
    9000005    1    3    3    0    0 -0.48842186628E+02 -0.11472920073E+02  0.11816105640E+03  0.12837531826E+03  0.10000000000E+01 0.  0.
    9000005    1    3    3    0    0  0.74888812704E+02  0.93136089661E+01  0.11716327557E+03  0.13936753826E+03  0.10000000000E+01 0.  0.
         21    1    1    2  502  501 -0.26046626076E+02  0.21593111068E+01 -0.78718878629E+01  0.27295713453E+02  0.00000000000E+00 0.  1.
<mgrwt>
<rscale>  1 0.12770550E+03</rscale>
<asrwt>0</asrwt>
<pdfrwt beam="2">  1        4 0.51989326E-02 0.12770550E+03</pdfrwt>
<pdfrwt beam="1">  1       -4 0.40191618E-01 0.12770550E+03</pdfrwt>
<totfact> 0.21890958E+03</totfact>
</mgrwt>
</event>
<event>
 6    4  0.1195577E-003  0.1271196E+03  0.7818608E-02  0.1231793E+00
          4   -1    0    0  502    0  0.00000000000E+00  0.00000000000E+00  0.36428147235E+02  0.36450278614E+02  0.12700000000E+01 0. -1.
         -4   -1    0    0    0  501 -0.00000000000E+00 -0.00000000000E+00 -0.17176021005E+03  0.17176490519E+03  0.12700000000E+01 0. -1.
         25    2    1    2    0    0 -0.21755219046E+02  0.78041906442E+01 -0.13453032995E+03  0.18508862498E+03  0.12500077790E+03 0.  0.
    9000005    1    3    3    0    0 -0.24840914628E+02 -0.28328145567E+02 -0.14295963963E+03  0.14784455835E+03  0.10000000000E+01 0.  0.
    9000005    1    3    3    0    0  0.30856955817E+01  0.36132336211E+02  0.84293096855E+01  0.37244066629E+02  0.10000000000E+01 0.  0.
         21    1    1    2  502  501  0.21755219046E+02 -0.78041906442E+01 -0.80173286284E+00  0.23126558822E+02  0.00000000000E+00 0. -1.
<mgrwt>
<rscale>  1 0.12711959E+03</rscale>
<asrwt>0</asrwt>
<pdfrwt beam="1">  1        4 0.56063940E-02 0.12711959E+03</pdfrwt>
<pdfrwt beam="2">  1       -4 0.26426711E-01 0.12711959E+03</pdfrwt>
<totfact> 0.43116045E+03</totfact>
</mgrwt>
</event>
<event>
 6    4  0.1195577E-003  0.1267164E+03  0.7818608E-02  0.1232411E+00
          4   -1    0    0  502    0  0.00000000000E+00  0.00000000000E+00  0.71213311309E+02  0.71224634836E+02  0.12700000000E+01 0.  1.
         -4   -1    0    0    0  501 -0.00000000000E+00 -0.00000000000E+00 -0.76615854370E+02  0.76626379537E+02  0.12700000000E+01 0.  1.
         25    2    1    2    0    0  0.12001356820E+02  0.16951964385E+02 -0.15461535839E+01  0.12672583031E+03  0.12500257523E+03 0.  0.
    9000005    1    3    3    0    0  0.30680981222E+02  0.24439684371E+02  0.54506945355E+02  0.67161208096E+02  0.10000000000E+01 0.  0.
    9000005    1    3    3    0    0 -0.18679624403E+02 -0.74877199855E+01 -0.56053098939E+02  0.59564622211E+02  0.10000000000E+01 0.  0.
         21    1    1    2  502  501 -0.12001356820E+02 -0.16951964385E+02 -0.38563894778E+01  0.21125184066E+02  0.00000000000E+00 0.  1.
<mgrwt>
<rscale>  1 0.12671640E+03</rscale>
<asrwt>0</asrwt>
<pdfrwt beam="1">  1        4 0.10957575E-01 0.12671640E+03</pdfrwt>
<pdfrwt beam="2">  1       -4 0.11788735E-01 0.12671640E+03</pdfrwt>
<totfact> 0.59633066E+03</totfact>
</mgrwt>
</event>
<event>
 6    4  0.1195577E-003  0.1359138E+03  0.7818608E-02  0.1218935E+00
         -4   -1    0    0    0  501 -0.00000000000E+00  0.00000000000E+00  0.11417991084E+02  0.11488403736E+02  0.12700000000E+01 0.  1.
          4   -1    0    0  502    0  0.00000000000E+00 -0.00000000000E+00 -0.79653182527E+03  0.79653283772E+03  0.12700000000E+01 0.  1.
         25    2    1    2    0    0  0.53324293619E+02 -0.16369160824E+01 -0.51113081023E+03  0.52889249482E+03  0.12500562437E+03 0.  0.
    9000005    1    3    3    0    0  0.63475811201E+02 -0.53457906858E+02 -0.30214005807E+03  0.31333135991E+03  0.10000000000E+01 0.  0.
    9000005    1    3    3    0    0 -0.10151517581E+02  0.51820990775E+02 -0.20899075216E+03  0.21556113491E+03  0.10000000000E+01 0.  0.
         21    1    1    2  502  501 -0.53324293619E+02  0.16369160824E+01 -0.27398302396E+03  0.27912874664E+03  0.00000000000E+00 0.  1.
<mgrwt>
<rscale>  1 0.13591382E+03</rscale>
<asrwt>0</asrwt>
<pdfrwt beam="2">  1        4 0.12254881E+00 0.13591382E+03</pdfrwt>
<pdfrwt beam="1">  1       -4 0.17621089E-02 0.13591382E+03</pdfrwt>
<totfact> 0.10799655E+03</totfact>
</mgrwt>
</event>
<event>
 6    4  0.1195577E-003  0.1269640E+03  0.7818608E-02  0.1232031E+00
          4   -1    0    0  502    0  0.00000000000E+00  0.00000000000E+00  0.37408542273E+02  0.37430093975E+02  0.12700000000E+01 0. -1.
         -4   -1    0    0    0  501 -0.00000000000E+00 -0.00000000000E+00 -0.26137936442E+03  0.26138244977E+03  0.12700000000E+01 0. -1.
         25    2    1    2    0    0  0.21506797080E+02 -0.57377154085E+01 -0.23991048748E+03  0.27143487712E+03  0.12499754726E+03 0.  0.
    9000005    1    3    3    0    0 -0.47412535947E+02 -0.22436211416E+02 -0.13467317232E+03  0.14453094994E+03  0.10000000000E+01 0.  0.
    9000005    1    3    3    0    0  0.68919333027E+02  0.16698496008E+02 -0.10523731516E+03  0.12690392718E+03  0.10000000000E+01 0.  0.
         21    1    1    2  502  501 -0.21506797080E+02  0.57377154085E+01  0.15939665326E+02  0.27377666618E+02  0.00000000000E+00 0. -1.
<mgrwt>
<rscale>  1 0.12696397E+03</rscale>
<asrwt>0</asrwt>
<pdfrwt beam="1">  1        4 0.57570557E-02 0.12696397E+03</pdfrwt>
<pdfrwt beam="2">  1       -4 0.40214104E-01 0.12696397E+03</pdfrwt>
<totfact> 0.18523576E+03</totfact>
</mgrwt>
</event>
<event>
 6    4  0.1195577E-003  0.1305746E+03  0.7818608E-02  0.1226606E+00
          4   -1    0    0  502    0  0.00000000000E+00  0.00000000000E+00  0.28482353136E+02  0.28510653100E+02  0.12700000000E+01 0. -1.
         -4   -1    0    0    0  501 -0.00000000000E+00 -0.00000000000E+00 -0.28333992400E+03  0.28334277021E+03  0.12700000000E+01 0. -1.
         25    2    1    2    0    0  0.18696805352E+02 -0.32777187066E+02 -0.23589432343E+03  0.26962169027E+03  0.12500323803E+03 0.  0.
    9000005    1    3    3    0    0 -0.39974987499E+02 -0.15457104725E+02 -0.18540267460E+03  0.19029470161E+03  0.10000000000E+01 0.  0.
    9000005    1    3    3    0    0  0.58671792851E+02 -0.17320082342E+02 -0.50491648824E+02  0.79326988659E+02  0.10000000000E+01 0.  0.
         21    1    1    2  502  501 -0.18696805352E+02  0.32777187066E+02 -0.18963247435E+02  0.42231733041E+02  0.00000000000E+00 0.  1.
<mgrwt>
<rscale>  1 0.13057459E+03</rscale>
<asrwt>0</asrwt>
<pdfrwt beam="1">  1        4 0.43842965E-02 0.13057459E+03</pdfrwt>
<pdfrwt beam="2">  1       -4 0.43593151E-01 0.13057459E+03</pdfrwt>
<totfact> 0.24618972E+03</totfact>
</mgrwt>
</event>
<event>
 6    4  0.1195577E-003  0.1445649E+03  0.7818608E-02  0.1207315E+00
          4   -1    0    0  502    0  0.00000000000E+00  0.00000000000E+00  0.40591466875E+03  0.40591665549E+03  0.12700000000E+01 0.  1.
         -4   -1    0    0    0  501 -0.00000000000E+00 -0.00000000000E+00 -0.29502179563E+02  0.29529502180E+02  0.12700000000E+01 0.  1.
         25    2    1    2    0    0  0.67270382331E+02 -0.27384158260E+02  0.22378267150E+03  0.26641640375E+03  0.12499527856E+03 0.  0.
    9000005    1    3    3    0    0  0.57214680735E+00  0.21426188849E+02  0.16150545398E+03  0.16292458558E+03  0.10000000000E+01 0.  0.
    9000005    1    3    3    0    0  0.66698235523E+02 -0.48810347109E+02  0.62277217512E+02  0.10349181817E+03  0.10000000000E+01 0.  0.
         21    1    1    2  502  501 -0.67270382331E+02  0.27384158260E+02  0.15262981769E+03  0.16902975392E+03  0.00000000000E+00 0.  1.
<mgrwt>
<rscale>  1 0.14456492E+03</rscale>
<asrwt>0</asrwt>
<pdfrwt beam="1">  1        4 0.62450662E-01 0.14456492E+03</pdfrwt>
<pdfrwt beam="2">  1       -4 0.45410517E-02 0.14456492E+03</pdfrwt>
<totfact> 0.11377705E+03</totfact>
</mgrwt>
</event>
<event>
 6    4  0.1195577E-003  0.1314653E+03  0.7818608E-02  0.1225298E+00
         -4   -1    0    0    0  501 -0.00000000000E+00  0.00000000000E+00  0.72318884598E+03  0.72318996111E+03  0.12700000000E+01 0.  1.
          4   -1    0    0  502    0  0.00000000000E+00 -0.00000000000E+00 -0.10332911172E+02  0.10410665363E+02  0.12700000000E+01 0.  1.
         25    2    1    2    0    0 -0.32290432608E+02  0.24828543844E+02  0.57596660929E+03  0.59077970339E+03  0.12499597714E+03 0.  0.
    9000005    1    3    3    0    0 -0.66785791687E+02 -0.23615680348E+02  0.35135160238E+03  0.35842292173E+03  0.10000000000E+01 0.  0.
    9000005    1    3    3    0    0  0.34495359079E+02  0.48444224191E+02  0.22461500691E+03  0.23235678166E+03  0.10000000000E+01 0.  0.
         21    1    1    2  502  501  0.32290432608E+02 -0.24828543844E+02  0.13688932552E+03  0.14282092308E+03  0.00000000000E+00 0.  1.
<mgrwt>
<rscale>  1 0.13146529E+03</rscale>
<asrwt>0</asrwt>
<pdfrwt beam="2">  1        4 0.15957450E-02 0.13146529E+03</pdfrwt>
<pdfrwt beam="1">  1       -4 0.11126592E+00 0.13146529E+03</pdfrwt>
<totfact> 0.15715041E+03</totfact>
</mgrwt>
</event>
<event>
 6    4  0.1195577E-003  0.1273735E+03  0.7818608E-02  0.1231406E+00
         -4   -1    0    0    0  501 -0.00000000000E+00  0.00000000000E+00  0.12973914300E+04  0.12973920515E+04  0.12700000000E+01 0.  1.
          4   -1    0    0  502    0  0.00000000000E+00 -0.00000000000E+00 -0.55505094615E+01  0.56939490059E+01  0.12700000000E+01 0.  1.
         25    2    1    2    0    0  0.20548885309E+02 -0.13347120477E+02  0.12298462704E+04  0.12364246252E+04  0.12499441144E+03 0.  0.
    9000005    1    3    3    0    0 -0.37049918448E+02 -0.14640605696E+02  0.15519443463E+03  0.16022907455E+03  0.10000000000E+01 0.  0.
    9000005    1    3    3    0    0  0.57598803757E+02  0.12934852185E+01  0.10746518357E+04  0.10761955507E+04  0.10000000000E+01 0.  0.
         21    1    1    2  502  501 -0.20548885309E+02  0.13347120477E+02  0.61994650137E+02  0.66661375309E+02  0.00000000000E+00 0.  1.
<mgrwt>
<rscale>  1 0.12737349E+03</rscale>
<asrwt>0</asrwt>
<pdfrwt beam="2">  1        4 0.86500708E-03 0.12737349E+03</pdfrwt>
<pdfrwt beam="1">  1       -4 0.19960955E+00 0.12737349E+03</pdfrwt>
<totfact> 0.88198029E+02</totfact>
</mgrwt>
</event>
<event>
 6    4  0.1195577E-003  0.1447974E+03  0.7818608E-02  0.1207016E+00
          4   -1    0    0  502    0  0.00000000000E+00  0.00000000000E+00  0.78305962389E+02  0.78316260417E+02  0.12700000000E+01 0.  1.
         -4   -1    0    0    0  501 -0.00000000000E+00 -0.00000000000E+00 -0.16142624083E+03  0.16143123654E+03  0.12700000000E+01 0.  1.
         25    2    1    2    0    0 -0.29664906386E+02  0.66796273531E+02 -0.82513704360E+02  0.16665771134E+03  0.12499813004E+03 0.  0.
    9000005    1    3    3    0    0  0.87219496929E+01 -0.30732938913E+02  0.19836587683E+01  0.32023754352E+02  0.10000000000E+01 0.  0.
    9000005    1    3    3    0    0 -0.38386856079E+02  0.97529212444E+02 -0.84497363129E+02  0.13463395699E+03  0.10000000000E+01 0.  0.
         21    1    1    2  502  501  0.29664906386E+02 -0.66796273531E+02 -0.60657408514E+00  0.73089785611E+02  0.00000000000E+00 0.  1.
<mgrwt>
<rscale>  1 0.14479738E+03</rscale>
<asrwt>0</asrwt>
<pdfrwt beam="1">  1        4 0.12048248E-01 0.14479738E+03</pdfrwt>
<pdfrwt beam="2">  1       -4 0.24835983E-01 0.14479738E+03</pdfrwt>
<totfact> 0.13977175E+03</totfact>
</mgrwt>
</event>
<event>
 6    4  0.1195577E-003  0.1291176E+03  0.7818608E-02  0.1228771E+00
          4   -1    0    0  502    0  0.00000000000E+00  0.00000000000E+00  0.94571336092E+01  0.95420268340E+01  0.12700000000E+01 0.  1.
         -4   -1    0    0    0  501 -0.00000000000E+00 -0.00000000000E+00 -0.71479041656E+03  0.71479154479E+03  0.12700000000E+01 0.  1.
         25    2    1    2    0    0 -0.29782538764E+02 -0.12556296800E+02 -0.61457483853E+03  0.62799170410E+03  0.12500675206E+03 0.  0.
    9000005    1    3    3    0    0 -0.52069237162E+02 -0.50826926291E+02 -0.23954061479E+03  0.25035033059E+03  0.10000000000E+01 0.  0.
    9000005    1    3    3    0    0  0.22286698399E+02  0.38270629492E+02 -0.37503422374E+03  0.37764137351E+03  0.10000000000E+01 0.  0.
         21    1    1    2  502  501  0.29782538764E+02  0.12556296800E+02 -0.90758444418E+02  0.96341867522E+02  0.00000000000E+00 0.  1.
<mgrwt>
<rscale>  1 0.12911758E+03</rscale>
<asrwt>0</asrwt>
<pdfrwt beam="1">  1        4 0.14615612E-02 0.12911758E+03</pdfrwt>
<pdfrwt beam="2">  1       -4 0.10997433E+00 0.12911758E+03</pdfrwt>
<totfact> 0.18393316E+03</totfact>
</mgrwt>
</event>
<event>
 6    4  0.1195577E-003  0.1271478E+03  0.7818608E-02  0.1231750E+00
          4   -1    0    0  502    0  0.00000000000E+00  0.00000000000E+00  0.10987379503E+03  0.10988113457E+03  0.12700000000E+01 0. -1.
         -4   -1    0    0    0  501 -0.00000000000E+00 -0.00000000000E+00 -0.53300673748E+02  0.53315801804E+02  0.12700000000E+01 0. -1.
         25    2    1    2    0    0  0.22589304186E+02  0.56267043118E+01  0.36042632853E+02  0.13215764804E+03  0.12499854434E+03 0.  0.
    9000005    1    3    3    0    0  0.61411223574E+02  0.69645645782E+01 -0.19102318861E+02  0.64697311586E+02  0.10000000000E+01 0.  0.
    9000005    1    3    3    0    0 -0.38821919388E+02 -0.13378602663E+01  0.55144951714E+02  0.67460336455E+02  0.10000000000E+01 0.  0.
         21    1    1    2  502  501 -0.22589304186E+02 -0.56267043118E+01  0.20530488425E+02  0.31039288329E+02  0.00000000000E+00 0.  1.
<mgrwt>
<rscale>  1 0.12714784E+03</rscale>
<asrwt>0</asrwt>
<pdfrwt beam="1">  1        4 0.16905389E-01 0.12714784E+03</pdfrwt>
<pdfrwt beam="2">  1       -4 0.82018320E-02 0.12714784E+03</pdfrwt>
<totfact> 0.51904929E+03</totfact>
</mgrwt>
</event>
<event>
 6    4  0.1195577E-003  0.1283699E+03  0.7818608E-02  0.1229895E+00
          4   -1    0    0  502    0  0.00000000000E+00  0.00000000000E+00  0.37272911279E+02  0.37294541359E+02  0.12700000000E+01 0.  1.
         -4   -1    0    0    0  501 -0.00000000000E+00 -0.00000000000E+00 -0.17742514976E+03  0.17742969499E+03  0.12700000000E+01 0.  1.
         25    2    1    2    0    0 -0.22551484205E+02  0.18562920896E+02 -0.13259372921E+03  0.18455334750E+03  0.12500275827E+03 0.  0.
    9000005    1    3    3    0    0 -0.13099469275E+02 -0.48914305765E+02 -0.23285667803E+02  0.55744306694E+02  0.10000000000E+01 0.  0.
    9000005    1    3    3    0    0 -0.94520149300E+01  0.67477226661E+02 -0.10930806141E+03  0.12880904080E+03  0.10000000000E+01 0.  0.
         21    1    1    2  502  501  0.22551484205E+02 -0.18562920896E+02 -0.75585092656E+01  0.30170888856E+02  0.00000000000E+00 0. -1.
<mgrwt>
<rscale>  1 0.12836994E+03</rscale>
<asrwt>0</asrwt>
<pdfrwt beam="1">  1        4 0.57363077E-02 0.12836994E+03</pdfrwt>
<pdfrwt beam="2">  1       -4 0.27298190E-01 0.12836994E+03</pdfrwt>
<totfact> 0.39209310E+03</totfact>
</mgrwt>
</event>
<event>
 6    4  0.1195577E-003  0.1278881E+03  0.7818608E-02  0.1230624E+00
         -4   -1    0    0    0  501 -0.00000000000E+00  0.00000000000E+00  0.10572868374E+04  0.10572876001E+04  0.12700000000E+01 0.  1.
          4   -1    0    0  502    0  0.00000000000E+00 -0.00000000000E+00 -0.78932192200E+01  0.79947363718E+01  0.12700000000E+01 0.  1.
         25    2    1    2    0    0 -0.12483888709E+02 -0.24002367099E+02  0.10063411928E+04  0.10144347954E+04  0.12499358688E+03 0.  0.
    9000005    1    3    3    0    0 -0.54670277196E+02 -0.51446675181E+02  0.50123331897E+03  0.50682486091E+03  0.10000000000E+01 0.  0.
    9000005    1    3    3    0    0  0.42186388487E+02  0.27444308082E+02  0.50510787381E+03  0.50760993451E+03  0.10000000000E+01 0.  0.
         21    1    1    2  502  501  0.12483888709E+02  0.24002367099E+02  0.43052425375E+02  0.50847541084E+02  0.00000000000E+00 0. -1.
<mgrwt>
<rscale>  1 0.12788807E+03</rscale>
<asrwt>0</asrwt>
<pdfrwt beam="2">  1        4 0.12222101E-02 0.12788807E+03</pdfrwt>
<pdfrwt beam="1">  1       -4 0.16266725E+00 0.12788807E+03</pdfrwt>
<totfact> 0.91581740E+02</totfact>
</mgrwt>
</event>
<event>
 6    4  0.1195577E-003  0.1269251E+03  0.7818608E-02  0.1232091E+00
         -4   -1    0    0    0  501 -0.00000000000E+00  0.00000000000E+00  0.57463951511E+01  0.58850622115E+01  0.12700000000E+01 0. -1.
          4   -1    0    0  502    0  0.00000000000E+00 -0.00000000000E+00 -0.13280184994E+04  0.13280191067E+04  0.12700000000E+01 0. -1.
         25    2    1    2    0    0  0.89277782767E+01 -0.20134001910E+02 -0.71132475375E+03  0.72255995459E+03  0.12499959766E+03 0.  0.
    9000005    1    3    3    0    0  0.45129121271E+02 -0.23456631691E+02 -0.64429450619E+03  0.64629966878E+03  0.10000000000E+01 0.  0.
    9000005    1    3    3    0    0 -0.36201342994E+02  0.33226297807E+01 -0.67030247559E+02  0.76260285805E+02  0.10000000000E+01 0.  0.
         21    1    1    2  502  501 -0.89277782767E+01  0.20134001910E+02 -0.61094735049E+03  0.61134421427E+03  0.00000000000E+00 0. -1.
<mgrwt>
<rscale>  1 0.12692511E+03</rscale>
<asrwt>0</asrwt>
<pdfrwt beam="2">  1        4 0.20432101E+00 0.12692511E+03</pdfrwt>
<pdfrwt beam="1">  1       -4 0.89477526E-03 0.12692511E+03</pdfrwt>
<totfact> 0.78362682E+02</totfact>
</mgrwt>
</event>
<event>
 6    4  0.1195577E-003  0.1270400E+03  0.7818608E-02  0.1231915E+00
          4   -1    0    0  502    0  0.00000000000E+00  0.00000000000E+00  0.94498713494E+03  0.94498798834E+03  0.12700000000E+01 0. -1.
         -4   -1    0    0    0  501 -0.00000000000E+00 -0.00000000000E+00 -0.59346151350E+01  0.60689831769E+01  0.12700000000E+01 0. -1.
         25    2    1    2    0    0  0.52221274626E+01  0.22065954367E+02  0.75510953604E+03  0.76572160459E+03  0.12499994943E+03 0.  0.
    9000005    1    3    3    0    0 -0.56507173923E+02 -0.81311952096E+01  0.29071757020E+03  0.29627163662E+03  0.10000000000E+01 0.  0.
    9000005    1    3    3    0    0  0.61729301385E+02  0.30197149576E+02  0.46439196584E+03  0.46944996797E+03  0.10000000000E+01 0.  0.
         21    1    1    2  502  501 -0.52221274626E+01 -0.22065954367E+02  0.18394298376E+03  0.18533536693E+03  0.00000000000E+00 0. -1.
<mgrwt>
<rscale>  1 0.12704001E+03</rscale>
<asrwt>0</asrwt>
<pdfrwt beam="1">  1        4 0.14539313E+00 0.12704001E+03</pdfrwt>
<pdfrwt beam="2">  1       -4 0.92341877E-03 0.12704001E+03</pdfrwt>
<totfact> 0.18604415E+03</totfact>
</mgrwt>
</event>
<event>
 6    4  0.1195577E-003  0.1287137E+03  0.7818608E-02  0.1229377E+00
          4   -1    0    0  502    0  0.00000000000E+00  0.00000000000E+00  0.16290452401E+02  0.16339881867E+02  0.12700000000E+01 0.  1.
         -4   -1    0    0    0  501 -0.00000000000E+00 -0.00000000000E+00 -0.39230425959E+03  0.39230631526E+03  0.12700000000E+01 0.  1.
         25    2    1    2    0    0  0.66898212272E+01 -0.29942203810E+02 -0.31697126144E+03  0.34210815173E+03  0.12500367043E+03 0.  0.
    9000005    1    3    3    0    0 -0.14970322156E+02 -0.57916715248E+02 -0.67746895559E+02  0.90383064278E+02  0.10000000000E+01 0.  0.
    9000005    1    3    3    0    0  0.21660143383E+02  0.27974511438E+02 -0.24922436589E+03  0.25172508745E+03  0.10000000000E+01 0.  0.
         21    1    1    2  502  501 -0.66898212272E+01  0.29942203810E+02 -0.59042545744E+02  0.66538045395E+02  0.00000000000E+00 0. -1.
<mgrwt>
<rscale>  1 0.12871366E+03</rscale>
<asrwt>0</asrwt>
<pdfrwt beam="1">  1        4 0.25101841E-02 0.12871366E+03</pdfrwt>
<pdfrwt beam="2">  1       -4 0.60358455E-01 0.12871366E+03</pdfrwt>
<totfact> 0.30324320E+03</totfact>
</mgrwt>
</event>
<event>
 6    4  0.1195577E-003  0.2345992E+03  0.7818608E-02  0.1123444E+00
         -4   -1    0    0    0  501 -0.00000000000E+00  0.00000000000E+00  0.46878924198E+02  0.46896123870E+02  0.12700000000E+01 0.  1.
          4   -1    0    0  502    0  0.00000000000E+00 -0.00000000000E+00 -0.10002168368E+04  0.10002176431E+04  0.12700000000E+01 0.  1.
         25    2    1    2    0    0 -0.35956757532E+01  0.19848950434E+03 -0.51662191592E+03  0.56739314619E+03  0.12500306443E+03 0.  0.
    9000005    1    3    3    0    0 -0.26964445503E+02  0.11492294474E+03 -0.42545600156E+03  0.44152935782E+03  0.10000000000E+01 0.  0.
    9000005    1    3    3    0    0  0.23368769750E+02  0.83566559601E+02 -0.91165914357E+02  0.12586378837E+03  0.10000000000E+01 0.  0.
         21    1    1    2  502  501  0.35956757532E+01 -0.19848950434E+03 -0.43671599668E+03  0.47972062075E+03  0.00000000000E+00 0.  1.
<mgrwt>
<rscale>  1 0.23459919E+03</rscale>
<asrwt>0</asrwt>
<pdfrwt beam="2">  1        4 0.15388088E+00 0.23459919E+03</pdfrwt>
<pdfrwt beam="1">  1       -4 0.72135280E-02 0.23459919E+03</pdfrwt>
<totfact> 0.70598560E+01</totfact>
</mgrwt>
</event>
<event>
 6    4  0.1195577E-003  0.1290726E+03  0.7818608E-02  0.1228838E+00
          4   -1    0    0  502    0  0.00000000000E+00  0.00000000000E+00  0.20272028151E+03  0.20272425961E+03  0.12700000000E+01 0.  1.
         -4   -1    0    0    0  501 -0.00000000000E+00 -0.00000000000E+00 -0.34002664835E+02  0.34026373828E+02  0.12700000000E+01 0.  1.
         25    2    1    2    0    0 -0.26030067536E+02  0.18911866332E+02  0.10909841876E+03  0.16900351643E+03  0.12499800192E+03 0.  0.
    9000005    1    3    3    0    0 -0.65788870023E+02  0.83918274109E+01  0.17512688692E+02  0.68602423072E+02  0.10000000000E+01 0.  0.
    9000005    1    3    3    0    0  0.39758802487E+02  0.10520038921E+02  0.91585730071E+02  0.10040109335E+03  0.10000000000E+01 0.  0.
         21    1    1    2  502  501  0.26030067536E+02 -0.18911866332E+02  0.59619197912E+02  0.67747117015E+02  0.00000000000E+00 0.  1.
<mgrwt>
<rscale>  1 0.12907255E+03</rscale>
<asrwt>0</asrwt>
<pdfrwt beam="1">  1        4 0.31189866E-01 0.12907255E+03</pdfrwt>
<pdfrwt beam="2">  1       -4 0.52333089E-02 0.12907255E+03</pdfrwt>
<totfact> 0.35435791E+03</totfact>
</mgrwt>
</event>
<event>
 6    4  0.1195577E-003  0.1289592E+03  0.7818608E-02  0.1229008E+00
         -4   -1    0    0    0  501 -0.00000000000E+00  0.00000000000E+00  0.58267522737E+02  0.58281361565E+02  0.12700000000E+01 0. -1.
          4   -1    0    0  502    0  0.00000000000E+00 -0.00000000000E+00 -0.13552623283E+03  0.13553218321E+03  0.12700000000E+01 0. -1.
         25    2    1    2    0    0 -0.51041347991E+01  0.31304917344E+02 -0.23043826992E+02  0.13100189305E+03  0.12499771190E+03 0.  0.
    9000005    1    3    3    0    0  0.13561233997E+02  0.42200432407E+02  0.42842326193E+02  0.61654265680E+02  0.10000000000E+01 0.  0.
    9000005    1    3    3    0    0 -0.18665368796E+02 -0.10895515063E+02 -0.65886153185E+02  0.69347627374E+02  0.10000000000E+01 0.  0.
         21    1    1    2  502  501  0.51041347991E+01 -0.31304917344E+02 -0.54214883103E+02  0.62811651721E+02  0.00000000000E+00 0. -1.
<mgrwt>
<rscale>  1 0.12895921E+03</rscale>
<asrwt>0</asrwt>
<pdfrwt beam="2">  1        4 0.20851712E-01 0.12895921E+03</pdfrwt>
<pdfrwt beam="1">  1       -4 0.89657566E-02 0.12895921E+03</pdfrwt>
<totfact> 0.30890165E+03</totfact>
</mgrwt>
</event>
<event>
 6    4  0.1195577E-003  0.1280260E+03  0.7818608E-02  0.1230414E+00
          4   -1    0    0  502    0  0.00000000000E+00  0.00000000000E+00  0.15280760997E+03  0.15281288743E+03  0.12700000000E+01 0.  1.
         -4   -1    0    0    0  501 -0.00000000000E+00 -0.00000000000E+00 -0.75232023094E+02  0.75242741835E+02  0.12700000000E+01 0.  1.
         25    2    1    2    0    0  0.27467456448E+02 -0.40770480948E+01 -0.17309381237E+02  0.12919086983E+03  0.12497832885E+03 0.  0.
    9000005    1    3    3    0    0  0.67213559026E+02 -0.32991395563E+02  0.53250098942E+01  0.75069637195E+02  0.10000000000E+01 0.  0.
    9000005    1    3    3    0    0 -0.39746102578E+02  0.28914347469E+02 -0.22634391131E+02  0.54121232632E+02  0.10000000000E+01 0.  0.
         21    1    1    2  502  501 -0.27467456448E+02  0.40770480948E+01  0.94884968109E+02  0.98864759434E+02  0.00000000000E+00 0.  1.
<mgrwt>
<rscale>  1 0.12802604E+03</rscale>
<asrwt>0</asrwt>
<pdfrwt beam="1">  1        4 0.23510093E-01 0.12802604E+03</pdfrwt>
<pdfrwt beam="2">  1       -4 0.11575388E-01 0.12802604E+03</pdfrwt>
<totfact> 0.16118721E+03</totfact>
</mgrwt>
</event>
<event>
 6    4  0.1195577E-003  0.1284065E+03  0.7818608E-02  0.1229839E+00
          4   -1    0    0  502    0  0.00000000000E+00  0.00000000000E+00  0.18741179524E+04  0.18741183827E+04  0.12700000000E+01 0.  1.
         -4   -1    0    0    0  501 -0.00000000000E+00 -0.00000000000E+00 -0.39538807154E+01  0.41528391146E+01  0.12700000000E+01 0.  1.
         25    2    1    2    0    0 -0.78016762718E+01 -0.28326355800E+02  0.10872895746E+04  0.10948455861E+04  0.12499995879E+03 0.  0.
    9000005    1    3    3    0    0 -0.68689358570E+01  0.25598759854E+01  0.10275809450E+04  0.10276075777E+04  0.10000000000E+01 0.  0.
    9000005    1    3    3    0    0 -0.93274041480E+00 -0.30886231786E+02  0.59708629648E+02  0.67238008395E+02  0.10000000000E+01 0.  0.
         21    1    1    2  502  501  0.78016762718E+01  0.28326355800E+02  0.78287449705E+03  0.78342563573E+03  0.00000000000E+00 0.  1.
<mgrwt>
<rscale>  1 0.12840654E+03</rscale>
<asrwt>0</asrwt>
<pdfrwt beam="1">  1        4 0.28834171E+00 0.12840654E+03</pdfrwt>
<pdfrwt beam="2">  1       -4 0.62362578E-03 0.12840654E+03</pdfrwt>
<totfact> 0.43597433E+02</totfact>
</mgrwt>
</event>
<event>
 6    4  0.1195577E-003  0.1314918E+03  0.7818608E-02  0.1225259E+00
         -4   -1    0    0    0  501 -0.00000000000E+00  0.00000000000E+00  0.10572734323E+02  0.10648737534E+02  0.12700000000E+01 0. -1.
          4   -1    0    0  502    0  0.00000000000E+00 -0.00000000000E+00 -0.90300743163E+03  0.90300832470E+03  0.12700000000E+01 0. -1.
         25    2    1    2    0    0  0.12200074363E+02  0.38940795476E+02 -0.43586527475E+03  0.45526763721E+03  0.12499942554E+03 0.  0.
    9000005    1    3    3    0    0  0.87024376333E+01  0.11800522111E+02 -0.42586077477E+03  0.42611428541E+03  0.10000000000E+01 0.  0.
    9000005    1    3    3    0    0  0.34976367296E+01  0.27140273366E+02 -0.10004499982E+02  0.29153351796E+02  0.10000000000E+01 0.  0.
         21    1    1    2  502  501 -0.12200074363E+02 -0.38940795476E+02 -0.45656942255E+03  0.45838942503E+03  0.00000000000E+00 0. -1.
<mgrwt>
<rscale>  1 0.13149176E+03</rscale>
<asrwt>0</asrwt>
<pdfrwt beam="2">  1        4 0.13893008E+00 0.13149176E+03</pdfrwt>
<pdfrwt beam="1">  1       -4 0.16324903E-02 0.13149176E+03</pdfrwt>
<totfact> 0.88669349E+02</totfact>
</mgrwt>
</event>
<event>
 6    4  0.1195577E-003  0.1279805E+03  0.7818608E-02  0.1230483E+00
         -4   -1    0    0    0  501 -0.00000000000E+00  0.00000000000E+00  0.55874745180E+02  0.55889176492E+02  0.12700000000E+01 0.  1.
          4   -1    0    0  502    0  0.00000000000E+00 -0.00000000000E+00 -0.12648187424E+03  0.12648825010E+03  0.12700000000E+01 0.  1.
         25    2    1    2    0    0 -0.26409640040E+02  0.75598775329E+01 -0.26935261887E+02  0.13078427958E+03  0.12499759445E+03 0.  0.
    9000005    1    3    3    0    0 -0.45084596413E+02  0.58077562864E+02 -0.21685287165E+02  0.76660784116E+02  0.10000000000E+01 0.  0.
    9000005    1    3    3    0    0  0.18674956373E+02 -0.50517685331E+02 -0.52499747229E+01  0.54123495465E+02  0.10000000000E+01 0.  0.
         21    1    1    2  502  501  0.26409640040E+02 -0.75598775329E+01 -0.43671867176E+02  0.51593147006E+02  0.00000000000E+00 0.  1.
<mgrwt>
<rscale>  1 0.12798054E+03</rscale>
<asrwt>0</asrwt>
<pdfrwt beam="2">  1        4 0.19460350E-01 0.12798054E+03</pdfrwt>
<pdfrwt beam="1">  1       -4 0.85977152E-02 0.12798054E+03</pdfrwt>
<totfact> 0.37434847E+03</totfact>
</mgrwt>
</event>
<event>
 6    4  0.1195577E-003  0.1324487E+03  0.7818608E-02  0.1223867E+00
         -4   -1    0    0    0  501 -0.00000000000E+00  0.00000000000E+00  0.25074089650E+03  0.25074411275E+03  0.12700000000E+01 0. -1.
          4   -1    0    0  502    0  0.00000000000E+00 -0.00000000000E+00 -0.30957644050E+02  0.30983683208E+02  0.12700000000E+01 0. -1.
         25    2    1    2    0    0 -0.36647782988E+02 -0.23957104728E+02  0.16320679080E+03  0.21018830422E+03  0.12500265518E+03 0.  0.
    9000005    1    3    3    0    0 -0.50899081367E+02 -0.68150272687E+02  0.11717266304E+03  0.14479505901E+03  0.10000000000E+01 0.  0.
    9000005    1    3    3    0    0  0.14251298379E+02  0.44193167959E+02  0.46034127760E+02  0.65393245205E+02  0.10000000000E+01 0.  0.
         21    1    1    2  502  501  0.36647782988E+02  0.23957104728E+02  0.56576461654E+02  0.71539491738E+02  0.00000000000E+00 0.  1.
<mgrwt>
<rscale>  1 0.13244873E+03</rscale>
<asrwt>0</asrwt>
<pdfrwt beam="2">  1        4 0.47649647E-02 0.13244873E+03</pdfrwt>
<pdfrwt beam="1">  1       -4 0.38577774E-01 0.13244873E+03</pdfrwt>
<totfact> 0.27523609E+03</totfact>
</mgrwt>
</event>
<event>
 6    4  0.1195577E-003  0.1274658E+03  0.7818608E-02  0.1231265E+00
         -4   -1    0    0    0  501 -0.00000000000E+00  0.00000000000E+00  0.86917276364E+01  0.87840212491E+01  0.12700000000E+01 0. -1.
          4   -1    0    0  502    0  0.00000000000E+00 -0.00000000000E+00 -0.71405595733E+03  0.71405708672E+03  0.12700000000E+01 0. -1.
         25    2    1    2    0    0  0.16071354700E+01 -0.24898081433E+02 -0.50105803716E+03  0.51701711119E+03  0.12500015727E+03 0.  0.
    9000005    1    3    3    0    0  0.41349276747E+01 -0.40741136796E+02 -0.45683482930E+02  0.61358931436E+02  0.10000000000E+01 0.  0.
    9000005    1    3    3    0    0 -0.25277922047E+01  0.15843055363E+02 -0.45537455423E+03  0.45565817975E+03  0.10000000000E+01 0.  0.
         21    1    1    2  502  501 -0.16071354700E+01  0.24898081433E+02 -0.20430619253E+03  0.20582399678E+03  0.00000000000E+00 0. -1.
<mgrwt>
<rscale>  1 0.12746583E+03</rscale>
<asrwt>0</asrwt>
<pdfrwt beam="2">  1        4 0.10986190E+00 0.12746583E+03</pdfrwt>
<pdfrwt beam="1">  1       -4 0.13443758E-02 0.12746583E+03</pdfrwt>
<totfact> 0.20873130E+03</totfact>
</mgrwt>
</event>
<event>
 6    4  0.1195577E-003  0.1344784E+03  0.7818608E-02  0.1220958E+00
         -4   -1    0    0    0  501 -0.00000000000E+00  0.00000000000E+00  0.10496518518E+02  0.10573069611E+02  0.12700000000E+01 0.  1.
          4   -1    0    0  502    0  0.00000000000E+00 -0.00000000000E+00 -0.80398749110E+03  0.80398849416E+03  0.12700000000E+01 0.  1.
         25    2    1    2    0    0 -0.43854143322E+02 -0.23156178176E+02 -0.57816167048E+03  0.59359527037E+03  0.12500013331E+03 0.  0.
    9000005    1    3    3    0    0 -0.34157704399E+02  0.22374030428E+02 -0.55744049349E+02  0.69106765553E+02  0.10000000000E+01 0.  0.
    9000005    1    3    3    0    0 -0.96964389230E+01 -0.45530208604E+02 -0.52241762113E+03  0.52448850482E+03  0.10000000000E+01 0.  0.
         21    1    1    2  502  501  0.43854143322E+02  0.23156178176E+02 -0.21532930210E+03  0.22096629340E+03  0.00000000000E+00 0.  1.
<mgrwt>
<rscale>  1 0.13447835E+03</rscale>
<asrwt>0</asrwt>
<pdfrwt beam="2">  1        4 0.12369630E+00 0.13447835E+03</pdfrwt>
<pdfrwt beam="1">  1       -4 0.16208153E-02 0.13447835E+03</pdfrwt>
<totfact> 0.11973865E+03</totfact>
</mgrwt>
</event>
<event>
 6    4  0.1195577E-003  0.1273439E+03  0.7818608E-02  0.1231451E+00
          4   -1    0    0  502    0  0.00000000000E+00  0.00000000000E+00  0.19306422988E+03  0.19306840694E+03  0.12700000000E+01 0.  1.
         -4   -1    0    0    0  501 -0.00000000000E+00 -0.00000000000E+00 -0.36084579996E+02  0.36106921961E+02  0.12700000000E+01 0.  1.
         25    2    1    2    0    0  0.15448205159E+02 -0.18793633501E+02  0.84772154866E+02  0.15297972510E+03  0.12499852138E+03 0.  0.
    9000005    1    3    3    0    0 -0.51071433799E+02 -0.21266019985E+02  0.16773242172E+02  0.57817615043E+02  0.10000000000E+01 0.  0.
    9000005    1    3    3    0    0  0.66519638958E+02  0.24723864836E+01  0.67998912694E+02  0.95162110052E+02  0.10000000000E+01 0.  0.
         21    1    1    2  502  501 -0.15448205159E+02  0.18793633501E+02  0.72207495020E+02  0.76195603809E+02  0.00000000000E+00 0. -1.
<mgrwt>
<rscale>  1 0.12734394E+03</rscale>
<asrwt>0</asrwt>
<pdfrwt beam="1">  1        4 0.29704229E-01 0.12734394E+03</pdfrwt>
<pdfrwt beam="2">  1       -4 0.55535139E-02 0.12734394E+03</pdfrwt>
<totfact> 0.35196644E+03</totfact>
</mgrwt>
</event>
<event>
 6    4  0.1195577E-003  0.1270984E+03  0.7818608E-02  0.1231826E+00
          4   -1    0    0  502    0  0.00000000000E+00  0.00000000000E+00  0.54550626030E+02  0.54565407543E+02  0.12700000000E+01 0. -1.
         -4   -1    0    0    0  501 -0.00000000000E+00 -0.00000000000E+00 -0.11350250026E+03  0.11350960517E+03  0.12700000000E+01 0. -1.
         25    2    1    2    0    0  0.16120297296E+02 -0.16391416665E+02 -0.67050412904E+02  0.14370025417E+03  0.12500185060E+03 0.  0.
    9000005    1    3    3    0    0  0.69458183778E+01 -0.24307943800E+02 -0.10283745523E+03  0.10590402600E+03  0.10000000000E+01 0.  0.
    9000005    1    3    3    0    0  0.91744789184E+01  0.79165271355E+01  0.35787042328E+02  0.37796228170E+02  0.10000000000E+01 0.  0.
         21    1    1    2  502  501 -0.16120297296E+02  0.16391416665E+02  0.80985386738E+01  0.24374758539E+02  0.00000000000E+00 0. -1.
<mgrwt>
<rscale>  1 0.12709841E+03</rscale>
<asrwt>0</asrwt>
<pdfrwt beam="1">  1        4 0.83940876E-02 0.12709841E+03</pdfrwt>
<pdfrwt beam="2">  1       -4 0.17463607E-01 0.12709841E+03</pdfrwt>
<totfact> 0.47156626E+03</totfact>
</mgrwt>
</event>
<event>
 6    4  0.1195577E-003  0.1271934E+03  0.7818608E-02  0.1231681E+00
          4   -1    0    0  502    0  0.00000000000E+00  0.00000000000E+00  0.26768239773E+02  0.26798349959E+02  0.12700000000E+01 0. -1.
         -4   -1    0    0    0  501 -0.00000000000E+00 -0.00000000000E+00 -0.22226733816E+03  0.22227096642E+03  0.12700000000E+01 0. -1.
         25    2    1    2    0    0 -0.83607959859E+01  0.21974195155E+02 -0.18174099077E+03  0.22182865399E+03  0.12500158336E+03 0.  0.
    9000005    1    3    3    0    0  0.40936141652E+02 -0.18475217943E+02 -0.22399328279E+02  0.50197921060E+02  0.10000000000E+01 0.  0.
    9000005    1    3    3    0    0 -0.49296937638E+02  0.40449413098E+02 -0.15934166249E+03  0.17163073293E+03  0.10000000000E+01 0.  0.
         21    1    1    2  502  501  0.83607959859E+01 -0.21974195155E+02 -0.13758107619E+02  0.27240662390E+02  0.00000000000E+00 0. -1.
<mgrwt>
<rscale>  1 0.12719341E+03</rscale>
<asrwt>0</asrwt>
<pdfrwt beam="1">  1        4 0.41207861E-02 0.12719341E+03</pdfrwt>
<pdfrwt beam="2">  1       -4 0.34197569E-01 0.12719341E+03</pdfrwt>
<totfact> 0.43403907E+03</totfact>
</mgrwt>
</event>
<event>
 6    4  0.1195577E-003  0.1272953E+03  0.7818608E-02  0.1231525E+00
          4   -1    0    0  502    0  0.00000000000E+00  0.00000000000E+00  0.93281433580E+02  0.93290078523E+02  0.12700000000E+01 0. -1.
         -4   -1    0    0    0  501 -0.00000000000E+00 -0.00000000000E+00 -0.77515773137E+02  0.77526176128E+02  0.12700000000E+01 0. -1.
         25    2    1    2    0    0  0.21784461396E+02 -0.10147762753E+02 -0.18842603715E+02  0.12868228029E+03  0.12500618264E+03 0.  0.
    9000005    1    3    3    0    0  0.44375464157E+02  0.46730939183E+02 -0.19934131245E+02  0.67463561161E+02  0.10000000000E+01 0.  0.
    9000005    1    3    3    0    0 -0.22591002761E+02 -0.56878701936E+02  0.10915275300E+01  0.61218719131E+02  0.10000000000E+01 0.  0.
         21    1    1    2  502  501 -0.21784461396E+02  0.10147762753E+02  0.34608264158E+02  0.42133974359E+02  0.00000000000E+00 0. -1.
<mgrwt>
<rscale>  1 0.12729527E+03</rscale>
<asrwt>0</asrwt>
<pdfrwt beam="1">  1        4 0.14352455E-01 0.12729527E+03</pdfrwt>
<pdfrwt beam="2">  1       -4 0.11926969E-01 0.12729527E+03</pdfrwt>
<totfact> 0.36840257E+03</totfact>
</mgrwt>
</event>
<event>
 6    4  0.1195577E-003  0.1306306E+03  0.7818608E-02  0.1226523E+00
          4   -1    0    0  502    0  0.00000000000E+00  0.00000000000E+00  0.70963018374E+03  0.70963132018E+03  0.12700000000E+01 0.  1.
         -4   -1    0    0    0  501 -0.00000000000E+00 -0.00000000000E+00 -0.10403267629E+02  0.10480499862E+02  0.12700000000E+01 0.  1.
         25    2    1    2    0    0  0.14972972801E+02 -0.34870776831E+02  0.47224155675E+03  0.48997595939E+03  0.12499676743E+03 0.  0.
    9000005    1    3    3    0    0  0.54590210630E+02  0.22458670432E+02  0.17565701744E+03  0.18531289958E+03  0.10000000000E+01 0.  0.
    9000005    1    3    3    0    0 -0.39617237829E+02 -0.57329447263E+02  0.29658453931E+03  0.30466305982E+03  0.10000000000E+01 0.  0.
         21    1    1    2  502  501 -0.14972972801E+02  0.34870776831E+02  0.22698535936E+03  0.23013586065E+03  0.00000000000E+00 0. -1.
<mgrwt>
<rscale>  1 0.13063060E+03</rscale>
<asrwt>0</asrwt>
<pdfrwt beam="1">  1        4 0.10917991E+00 0.13063060E+03</pdfrwt>
<pdfrwt beam="2">  1       -4 0.16065309E-02 0.13063060E+03</pdfrwt>
<totfact> 0.16240068E+03</totfact>
</mgrwt>
</event>
<event>
 6    4  0.1195577E-003  0.1266199E+03  0.7818608E-02  0.1232559E+00
         -4   -1    0    0    0  501 -0.00000000000E+00  0.00000000000E+00  0.58569798707E+01  0.59930887867E+01  0.12700000000E+01 0. -1.
          4   -1    0    0  502    0  0.00000000000E+00 -0.00000000000E+00 -0.92336877576E+03  0.92336964914E+03  0.12700000000E+01 0. -1.
         25    2    1    2    0    0  0.12710102946E+02 -0.15692956980E+02 -0.74645191631E+03  0.75711495705E+03  0.12499911682E+03 0.  0.
    9000005    1    3    3    0    0  0.25704307848E+02  0.27606610692E+02 -0.64427979520E+03  0.64538383222E+03  0.10000000000E+01 0.  0.
    9000005    1    3    3    0    0 -0.12994204902E+02 -0.43299567672E+02 -0.10217212111E+03  0.11173112483E+03  0.10000000000E+01 0.  0.
         21    1    1    2  502  501 -0.12710102946E+02  0.15692956980E+02 -0.17105987958E+03  0.17224778088E+03  0.00000000000E+00 0. -1.
<mgrwt>
<rscale>  1 0.12661988E+03</rscale>
<asrwt>0</asrwt>
<pdfrwt beam="2">  1        4 0.14206716E+00 0.12661988E+03</pdfrwt>
<pdfrwt beam="1">  1       -4 0.91161166E-03 0.12661988E+03</pdfrwt>
<totfact> 0.20087884E+03</totfact>
</mgrwt>
</event>
<event>
 6    4  0.1195577E-003  0.1271536E+03  0.7818608E-02  0.1231741E+00
          4   -1    0    0  502    0  0.00000000000E+00  0.00000000000E+00  0.64528141553E+03  0.64528266529E+03  0.12700000000E+01 0. -1.
         -4   -1    0    0    0  501 -0.00000000000E+00 -0.00000000000E+00 -0.10526087259E+02  0.10602424864E+02  0.12700000000E+01 0. -1.
         25    2    1    2    0    0 -0.86449696539E+01 -0.21626284842E+02  0.39408778580E+03  0.41409324229E+03  0.12500239476E+03 0.  0.
    9000005    1    3    3    0    0 -0.25189618556E+02 -0.52933775557E+02  0.86653047730E+02  0.10462433827E+03  0.10000000000E+01 0.  0.
    9000005    1    3    3    0    0  0.16544648903E+02  0.31307490714E+02  0.30743473807E+03  0.30946890402E+03  0.10000000000E+01 0.  0.
         21    1    1    2  502  501  0.86449696539E+01  0.21626284842E+02  0.24066754246E+03  0.24179184786E+03  0.00000000000E+00 0.  1.
<mgrwt>
<rscale>  1 0.12715357E+03</rscale>
<asrwt>0</asrwt>
<pdfrwt beam="1">  1        4 0.99280053E-01 0.12715357E+03</pdfrwt>
<pdfrwt beam="2">  1       -4 0.16253660E-02 0.12715357E+03</pdfrwt>
<totfact> 0.19790283E+03</totfact>
</mgrwt>
</event>
<event>
 6    4  0.1195577E-003  0.1267051E+03  0.7818608E-02  0.1232428E+00
         -4   -1    0    0    0  501 -0.00000000000E+00  0.00000000000E+00  0.14130114390E+02  0.14187072731E+02  0.12700000000E+01 0.  1.
          4   -1    0    0  502    0  0.00000000000E+00 -0.00000000000E+00 -0.59563464858E+03  0.59563600251E+03  0.12700000000E+01 0.  1.
         25    2    1    2    0    0  0.20415393091E+02 -0.35017811745E+01 -0.27686961188E+03  0.30448476020E+03  0.12500054585E+03 0.  0.
    9000005    1    3    3    0    0  0.64526045907E+02 -0.71989235014E+01 -0.81729638882E+02  0.10438471618E+03  0.10000000000E+01 0.  0.
    9000005    1    3    3    0    0 -0.44110652816E+02  0.36971423269E+01 -0.19513997300E+03  0.20010004402E+03  0.10000000000E+01 0.  0.
         21    1    1    2  502  501 -0.20415393091E+02  0.35017811745E+01 -0.30463492230E+03  0.30533831504E+03  0.00000000000E+00 0. -1.
<mgrwt>
<rscale>  1 0.12670512E+03</rscale>
<asrwt>0</asrwt>
<pdfrwt beam="2">  1        4 0.91640566E-01 0.12670512E+03</pdfrwt>
<pdfrwt beam="1">  1       -4 0.21783498E-02 0.12670512E+03</pdfrwt>
<totfact> 0.15145387E+03</totfact>
</mgrwt>
</event>
<event>
 6    4  0.1195577E-003  0.1266980E+03  0.7818608E-02  0.1232439E+00
          4   -1    0    0  502    0  0.00000000000E+00  0.00000000000E+00  0.64692855511E+02  0.64705320138E+02  0.12700000000E+01 0.  1.
         -4   -1    0    0    0  501 -0.00000000000E+00 -0.00000000000E+00 -0.90047635058E+02  0.90056590429E+02  0.12700000000E+01 0.  1.
         25    2    1    2    0    0 -0.61169086737E+01 -0.19727979451E+02 -0.35741465968E+02  0.13164280592E+03  0.12500306482E+03 0.  0.
    9000005    1    3    3    0    0 -0.47855442109E+02 -0.60543178894E+01  0.26816959467E+02  0.55199161403E+02  0.10000000000E+01 0.  0.
    9000005    1    3    3    0    0  0.41738533435E+02 -0.13673661562E+02 -0.62558425435E+02  0.76443644515E+02  0.10000000000E+01 0.  0.
         21    1    1    2  502  501  0.61169086737E+01  0.19727979451E+02  0.10386686421E+02  0.23119104649E+02  0.00000000000E+00 0. -1.
<mgrwt>
<rscale>  1 0.12669797E+03</rscale>
<asrwt>0</asrwt>
<pdfrwt beam="1">  1        4 0.99543947E-02 0.12669797E+03</pdfrwt>
<pdfrwt beam="2">  1       -4 0.13855130E-01 0.12669797E+03</pdfrwt>
<totfact> 0.53136256E+03</totfact>
</mgrwt>
</event>
<event>
 6    4  0.1195577E-003  0.1280289E+03  0.7818608E-02  0.1230410E+00
          4   -1    0    0  502    0  0.00000000000E+00  0.00000000000E+00  0.77267009335E+02  0.77277445814E+02  0.12700000000E+01 0.  1.
         -4   -1    0    0    0  501 -0.00000000000E+00 -0.00000000000E+00 -0.10694877205E+03  0.10695631231E+03  0.12700000000E+01 0.  1.
         25    2    1    2    0    0  0.15125849258E+02 -0.23181545016E+02 -0.61522404198E+02  0.14204369063E+03  0.12500091394E+03 0.  0.
    9000005    1    3    3    0    0  0.15096697744E+02 -0.55755002697E+02  0.14299671058E+02  0.59514798168E+02  0.10000000000E+01 0.  0.
    9000005    1    3    3    0    0  0.29151514449E-01  0.32573457681E+02 -0.75822075257E+02  0.82528892464E+02  0.10000000000E+01 0.  0.
         21    1    1    2  502  501 -0.15125849258E+02  0.23181545016E+02  0.31840641482E+02  0.42190067493E+02  0.00000000000E+00 0.  1.
<mgrwt>
<rscale>  1 0.12802892E+03</rscale>
<asrwt>0</asrwt>
<pdfrwt beam="1">  1        4 0.11888615E-01 0.12802892E+03</pdfrwt>
<pdfrwt beam="2">  1       -4 0.16455040E-01 0.12802892E+03</pdfrwt>
<totfact> 0.29210473E+03</totfact>
</mgrwt>
</event>
<event>
 6    4  0.1195577E-003  0.1289104E+03  0.7818608E-02  0.1229082E+00
          4   -1    0    0  502    0  0.00000000000E+00  0.00000000000E+00  0.21080169312E+02  0.21118390995E+02  0.12700000000E+01 0. -1.
         -4   -1    0    0    0  501 -0.00000000000E+00 -0.00000000000E+00 -0.66904781774E+03  0.66904902311E+03  0.12700000000E+01 0. -1.
         25    2    1    2    0    0  0.15625375471E+02  0.27359564691E+02 -0.64584971195E+03  0.65858919703E+03  0.12500072748E+03 0.  0.
    9000005    1    3    3    0    0 -0.44085743179E+02  0.31606655157E+02 -0.15748848774E+03  0.16657177784E+03  0.10000000000E+01 0.  0.
    9000005    1    3    3    0    0  0.59711118650E+02 -0.42470904660E+01 -0.48836122421E+03  0.49201741919E+03  0.10000000000E+01 0.  0.
         21    1    1    2  502  501 -0.15625375471E+02 -0.27359564691E+02 -0.21179364706E+01  0.31578217074E+02  0.00000000000E+00 0. -1.
<mgrwt>
<rscale>  1 0.12891036E+03</rscale>
<asrwt>0</asrwt>
<pdfrwt beam="1">  1        4 0.32461363E-02 0.12891036E+03</pdfrwt>
<pdfrwt beam="2">  1       -4 0.10293345E+00 0.12891036E+03</pdfrwt>
<totfact> 0.62586457E+02</totfact>
</mgrwt>
</event>
<event>
 6    4  0.1195577E-003  0.1328526E+03  0.7818608E-02  0.1223283E+00
          4   -1    0    0  502    0  0.00000000000E+00  0.00000000000E+00  0.13931066693E+03  0.13931645567E+03  0.12700000000E+01 0. -1.
         -4   -1    0    0    0  501 -0.00000000000E+00 -0.00000000000E+00 -0.80172388971E+02  0.80182447290E+02  0.12700000000E+01 0. -1.
         25    2    1    2    0    0  0.19329587945E+02 -0.40639424189E+02 -0.14037974188E+02  0.13359221145E+03  0.12499847388E+03 0.  0.
    9000005    1    3    3    0    0 -0.46388889302E+02  0.12418526460E+02 -0.43607673242E+00  0.48034768794E+02  0.10000000000E+01 0.  0.
    9000005    1    3    3    0    0  0.65718477248E+02 -0.53057950650E+02 -0.13601897456E+02  0.85557442653E+02  0.10000000000E+01 0.  0.
         21    1    1    2  502  501 -0.19329587945E+02  0.40639424189E+02  0.73176252149E+02  0.85906691516E+02  0.00000000000E+00 0. -1.
<mgrwt>
<rscale>  1 0.13285260E+03</rscale>
<asrwt>0</asrwt>
<pdfrwt beam="1">  1        4 0.21433629E-01 0.13285260E+03</pdfrwt>
<pdfrwt beam="2">  1       -4 0.12335433E-01 0.13285260E+03</pdfrwt>
<totfact> 0.17255999E+03</totfact>
</mgrwt>
</event>
<event>
 6    4  0.1195577E-003  0.1334229E+03  0.7818608E-02  0.1222463E+00
          4   -1    0    0  502    0  0.00000000000E+00  0.00000000000E+00  0.45572097945E+02  0.45589790646E+02  0.12700000000E+01 0.  1.
         -4   -1    0    0    0  501 -0.00000000000E+00 -0.00000000000E+00 -0.19365993589E+03  0.19366410010E+03  0.12700000000E+01 0.  1.
         25    2    1    2    0    0 -0.29573664866E+02 -0.36085859220E+02 -0.13713108884E+03  0.19132851918E+03  0.12499950334E+03 0.  0.
    9000005    1    3    3    0    0  0.20021089969E+02 -0.61799328665E+02 -0.32341741335E+02  0.72574026343E+02  0.10000000000E+01 0.  0.
    9000005    1    3    3    0    0 -0.49594754835E+02  0.25713469446E+02 -0.10478934751E+03  0.11875449284E+03  0.10000000000E+01 0.  0.
         21    1    1    2  502  501  0.29573664866E+02  0.36085859220E+02 -0.10956749103E+02  0.47925371570E+02  0.00000000000E+00 0.  1.
<mgrwt>
<rscale>  1 0.13342289E+03</rscale>
<asrwt>0</asrwt>
<pdfrwt beam="1">  1        4 0.70127734E-02 0.13342289E+03</pdfrwt>
<pdfrwt beam="2">  1       -4 0.29795517E-01 0.13342289E+03</pdfrwt>
<totfact> 0.24202819E+03</totfact>
</mgrwt>
</event>
<event>
 6    4  0.1195577E-003  0.1276631E+03  0.7818608E-02  0.1230965E+00
          4   -1    0    0  502    0  0.00000000000E+00  0.00000000000E+00  0.17455377320E+02  0.17501517002E+02  0.12700000000E+01 0.  1.
         -4   -1    0    0    0  501 -0.00000000000E+00 -0.00000000000E+00 -0.35936703958E+03  0.35936928366E+03  0.12700000000E+01 0.  1.
         25    2    1    2    0    0  0.25854045049E+02 -0.19965560258E+01 -0.31300055573E+03  0.33803434920E+03  0.12500182186E+03 0.  0.
    9000005    1    3    3    0    0 -0.39033799081E+02  0.35326410151E+02 -0.13723604756E+03  0.14699090269E+03  0.10000000000E+01 0.  0.
    9000005    1    3    3    0    0  0.64887844130E+02 -0.37322966177E+02 -0.17576450817E+03  0.19104344651E+03  0.10000000000E+01 0.  0.
         21    1    1    2  502  501 -0.25854045049E+02  0.19965560258E+01 -0.28911106531E+02  0.38836451463E+02  0.00000000000E+00 0. -1.
<mgrwt>
<rscale>  1 0.12766312E+03</rscale>
<asrwt>0</asrwt>
<pdfrwt beam="1">  1        4 0.26891648E-02 0.12766312E+03</pdfrwt>
<pdfrwt beam="2">  1       -4 0.55290953E-01 0.12766312E+03</pdfrwt>
<totfact> 0.32642712E+03</totfact>
</mgrwt>
</event>
<event>
 6    4  0.1195577E-003  0.1277566E+03  0.7818608E-02  0.1230823E+00
         -4   -1    0    0    0  501 -0.00000000000E+00  0.00000000000E+00  0.15413672671E+03  0.15414195866E+03  0.12700000000E+01 0. -1.
          4   -1    0    0  502    0  0.00000000000E+00 -0.00000000000E+00 -0.38636179089E+02  0.38657046378E+02  0.12700000000E+01 0. -1.
         25    2    1    2    0    0 -0.26390608578E+02 -0.33644879374E+01  0.94666230638E+02  0.15900769308E+03  0.12495586114E+03 0.  0.
    9000005    1    3    3    0    0 -0.31898541481E+02  0.57090201178E+02  0.61732093873E+02  0.89936974784E+02  0.10000000000E+01 0.  0.
    9000005    1    3    3    0    0  0.55079329038E+01 -0.60454689116E+02  0.32934136765E+02  0.69070718292E+02  0.10000000000E+01 0.  0.
         21    1    1    2  502  501  0.26390608578E+02  0.33644879374E+01  0.20834316979E+02  0.33791311963E+02  0.00000000000E+00 0.  1.
<mgrwt>
<rscale>  1 0.12775661E+03</rscale>
<asrwt>0</asrwt>
<pdfrwt beam="2">  1        4 0.59460352E-02 0.12775661E+03</pdfrwt>
<pdfrwt beam="1">  1       -4 0.23715350E-01 0.12775661E+03</pdfrwt>
<totfact> 0.47920219E+03</totfact>
</mgrwt>
</event>
<event>
 6    4  0.1195577E-003  0.1282906E+03  0.7818608E-02  0.1230014E+00
          4   -1    0    0  502    0  0.00000000000E+00  0.00000000000E+00  0.13667939612E+03  0.13668529629E+03  0.12700000000E+01 0. -1.
         -4   -1    0    0    0  501 -0.00000000000E+00 -0.00000000000E+00 -0.45556713167E+02  0.45574411840E+02  0.12700000000E+01 0. -1.
         25    2    1    2    0    0 -0.19981092008E+02 -0.20474552628E+02  0.81887753378E+02  0.15219751814E+03  0.12506010167E+03 0.  0.
    9000005    1    3    3    0    0 -0.48204345452E+02 -0.62916993706E+01  0.10319953802E+03  0.11408062521E+03  0.10000000000E+01 0.  0.
    9000005    1    3    3    0    0  0.28223253444E+02 -0.14182853257E+02 -0.21311784643E+02  0.38116892923E+02  0.10000000000E+01 0.  0.
         21    1    1    2  502  501  0.19981092008E+02  0.20474552628E+02  0.92349295706E+01  0.30062189995E+02  0.00000000000E+00 0. -1.
<mgrwt>
<rscale>  1 0.12829061E+03</rscale>
<asrwt>0</asrwt>
<pdfrwt beam="1">  1        4 0.21029414E-01 0.12829061E+03</pdfrwt>
<pdfrwt beam="2">  1       -4 0.70105405E-02 0.12829061E+03</pdfrwt>
<totfact> 0.45635158E+03</totfact>
</mgrwt>
</event>
<event>
 6    4  0.1195577E-003  0.1341145E+03  0.7818608E-02  0.1221475E+00
          4   -1    0    0  502    0  0.00000000000E+00  0.00000000000E+00  0.13349844078E+04  0.13349850119E+04  0.12700000000E+01 0. -1.
         -4   -1    0    0    0  501 -0.00000000000E+00 -0.00000000000E+00 -0.76549164141E+01  0.77595518754E+01  0.12700000000E+01 0. -1.
         25    2    1    2    0    0 -0.33853885893E+02  0.34868834729E+02  0.65099598219E+03  0.66466718110E+03  0.12499908629E+03 0.  0.
    9000005    1    3    3    0    0  0.11339807227E+02  0.48870891845E+02  0.10239996533E+03  0.11403380287E+03  0.10000000000E+01 0.  0.
    9000005    1    3    3    0    0 -0.45193693119E+02 -0.14002057116E+02  0.54859601686E+03  0.55063337822E+03  0.10000000000E+01 0.  0.
         21    1    1    2  502  501  0.33853885893E+02 -0.34868834729E+02  0.67633350922E+03  0.67807738269E+03  0.00000000000E+00 0. -1.
<mgrwt>
<rscale>  1 0.13411448E+03</rscale>
<asrwt>0</asrwt>
<pdfrwt beam="1">  1        4 0.20539019E+00 0.13411448E+03</pdfrwt>
<pdfrwt beam="2">  1       -4 0.11857755E-02 0.13411448E+03</pdfrwt>
<totfact> 0.51026347E+02</totfact>
</mgrwt>
</event>
<event>
 6    4  0.1195577E-003  0.1266303E+03  0.7818608E-02  0.1232543E+00
         -4   -1    0    0    0  501 -0.00000000000E+00  0.00000000000E+00  0.14571852491E+04  0.14571858026E+04  0.12700000000E+01 0.  1.
          4   -1    0    0  502    0  0.00000000000E+00 -0.00000000000E+00 -0.37410771512E+01  0.39507667929E+01  0.12700000000E+01 0.  1.
         25    2    1    2    0    0 -0.18272375897E+02  0.87212404256E+01  0.13331349417E+04  0.13391355421E+04  0.12500115053E+03 0.  0.
    9000005    1    3    3    0    0  0.12594138733E+02 -0.24090802039E+02  0.11572749734E+04  0.11575946368E+04  0.10000000000E+01 0.  0.
    9000005    1    3    3    0    0 -0.30866514630E+02  0.32812042465E+02  0.17585996823E+03  0.18154090526E+03  0.10000000000E+01 0.  0.
         21    1    1    2  502  501  0.18272375897E+02 -0.87212404256E+01  0.12030923032E+03  0.12200102727E+03  0.00000000000E+00 0. -1.
<mgrwt>
<rscale>  1 0.12663028E+03</rscale>
<asrwt>0</asrwt>
<pdfrwt beam="2">  1        4 0.59172266E-03 0.12663028E+03</pdfrwt>
<pdfrwt beam="1">  1       -4 0.22419860E+00 0.12663028E+03</pdfrwt>
<totfact> 0.11019507E+03</totfact>
</mgrwt>
</event>
<event>
 6    4  0.1195577E-003  0.1417614E+03  0.7818608E-02  0.1210978E+00
          4   -1    0    0  502    0  0.00000000000E+00  0.00000000000E+00  0.28556098609E+02  0.28584325561E+02  0.12700000000E+01 0. -1.
         -4   -1    0    0    0  501 -0.00000000000E+00 -0.00000000000E+00 -0.57168937814E+03  0.57169078878E+03  0.12700000000E+01 0. -1.
         25    2    1    2    0    0 -0.12805343195E+02  0.65634671310E+02 -0.50230164829E+03  0.52192264787E+03  0.12499767035E+03 0.  0.
    9000005    1    3    3    0    0 -0.52159379137E+02  0.31448615379E+02 -0.10640631294E+03  0.12260880749E+03  0.10000000000E+01 0.  0.
    9000005    1    3    3    0    0  0.39354035941E+02  0.34186055931E+02 -0.39589533535E+03  0.39931384038E+03  0.10000000000E+01 0.  0.
         21    1    1    2  502  501  0.12805343195E+02 -0.65634671310E+02 -0.40831631236E+02  0.78352466468E+02  0.00000000000E+00 0. -1.
<mgrwt>
<rscale>  1 0.14176144E+03</rscale>
<asrwt>0</asrwt>
<pdfrwt beam="1">  1        4 0.43955262E-02 0.14176144E+03</pdfrwt>
<pdfrwt beam="2">  1       -4 0.87954483E-01 0.14176144E+03</pdfrwt>
<totfact> 0.56532015E+02</totfact>
</mgrwt>
</event>
<event>
 6    4  0.1195577E-003  0.1275646E+03  0.7818608E-02  0.1231115E+00
         -4   -1    0    0    0  501 -0.00000000000E+00  0.00000000000E+00  0.36733968230E+03  0.36734187768E+03  0.12700000000E+01 0.  1.
          4   -1    0    0  502    0  0.00000000000E+00 -0.00000000000E+00 -0.15964487732E+02  0.16014923308E+02  0.12700000000E+01 0.  1.
         25    2    1    2    0    0 -0.17322297075E+02  0.18640846509E+02  0.28389426958E+03  0.31123732807E+03  0.12500069982E+03 0.  0.
    9000005    1    3    3    0    0  0.28750008796E+02  0.54623836483E+02  0.19745633004E+03  0.20688240329E+03  0.10000000000E+01 0.  0.
    9000005    1    3    3    0    0 -0.46072305872E+02 -0.35982989974E+02  0.86437939539E+02  0.10435492479E+03  0.10000000000E+01 0.  0.
         21    1    1    2  502  501  0.17322297075E+02 -0.18640846509E+02  0.67480924997E+02  0.72119472911E+02  0.00000000000E+00 0.  1.
<mgrwt>
<rscale>  1 0.12756456E+03</rscale>
<asrwt>0</asrwt>
<pdfrwt beam="2">  1        4 0.24601236E-02 0.12756456E+03</pdfrwt>
<pdfrwt beam="1">  1       -4 0.56517845E-01 0.12756456E+03</pdfrwt>
<totfact> 0.35812213E+03</totfact>
</mgrwt>
</event>
<event>
 6    4  0.1195577E-003  0.1279964E+03  0.7818608E-02  0.1230459E+00
          4   -1    0    0  502    0  0.00000000000E+00  0.00000000000E+00  0.30118040279E+03  0.30118308040E+03  0.12700000000E+01 0. -1.
         -4   -1    0    0    0  501 -0.00000000000E+00 -0.00000000000E+00 -0.25171600956E+02  0.25203618683E+02  0.12700000000E+01 0. -1.
         25    2    1    2    0    0  0.21849192847E+02 -0.16759558657E+02  0.14900558064E+03  0.19643252167E+03  0.12499920990E+03 0.  0.
    9000005    1    3    3    0    0 -0.15099091121E+02 -0.27406547763E+01  0.15559750386E+03  0.15635561054E+03  0.10000000000E+01 0.  0.
    9000005    1    3    3    0    0  0.36948283968E+02 -0.14018903881E+02 -0.65919232178E+01  0.40076911133E+02  0.10000000000E+01 0.  0.
         21    1    1    2  502  501 -0.21849192847E+02  0.16759558657E+02  0.12700322119E+03  0.12995417741E+03  0.00000000000E+00 0. -1.
<mgrwt>
<rscale>  1 0.12799638E+03</rscale>
<asrwt>0</asrwt>
<pdfrwt beam="1">  1        4 0.46338116E-01 0.12799638E+03</pdfrwt>
<pdfrwt beam="2">  1       -4 0.38752228E-02 0.12799638E+03</pdfrwt>
<totfact> 0.26383620E+03</totfact>
</mgrwt>
</event>
<event>
 6    4  0.1195577E-003  0.1279703E+03  0.7818608E-02  0.1230499E+00
         -4   -1    0    0    0  501 -0.00000000000E+00  0.00000000000E+00  0.63698328111E+02  0.63710987311E+02  0.12700000000E+01 0.  1.
          4   -1    0    0  502    0  0.00000000000E+00 -0.00000000000E+00 -0.11671682236E+03  0.11672373162E+03  0.12700000000E+01 0.  1.
         25    2    1    2    0    0  0.12491428756E+02  0.24385950576E+02 -0.86171047340E+01  0.12826007213E+03  0.12500272489E+03 0.  0.
    9000005    1    3    3    0    0  0.63770877764E+02 -0.12178185902E+02 -0.61850150985E+01  0.65224899191E+02  0.10000000000E+01 0.  0.
    9000005    1    3    3    0    0 -0.51279449008E+02  0.36564136477E+02 -0.24320896355E+01  0.63035172934E+02  0.10000000000E+01 0.  0.
         21    1    1    2  502  501 -0.12491428756E+02 -0.24385950576E+02 -0.44401389516E+02  0.52174646801E+02  0.00000000000E+00 0.  1.
<mgrwt>
<rscale>  1 0.12797028E+03</rscale>
<asrwt>0</asrwt>
<pdfrwt beam="2">  1        4 0.17957940E-01 0.12797028E+03</pdfrwt>
<pdfrwt beam="1">  1       -4 0.98012480E-02 0.12797028E+03</pdfrwt>
<totfact> 0.34704209E+03</totfact>
</mgrwt>
</event>
<event>
 6    4  0.1195577E-003  0.1372918E+03  0.7818608E-02  0.1217020E+00
         -4   -1    0    0    0  501 -0.00000000000E+00  0.00000000000E+00  0.16326453965E+03  0.16326947910E+03  0.12700000000E+01 0.  1.
          4   -1    0    0  502    0  0.00000000000E+00 -0.00000000000E+00 -0.82338063056E+02  0.82347856851E+02  0.12700000000E+01 0.  1.
         25    2    1    2    0    0 -0.14456149777E+01  0.56759107986E+02  0.11526586859E+03  0.17926313499E+03  0.12500145984E+03 0.  0.
    9000005    1    3    3    0    0  0.40573558930E+02  0.54232530473E+02  0.13417252564E+02  0.69053629246E+02  0.10000000000E+01 0.  0.
    9000005    1    3    3    0    0 -0.42019173908E+02  0.25265775134E+01  0.10184861603E+03  0.11020950575E+03  0.10000000000E+01 0.  0.
         21    1    1    2  502  501  0.14456149777E+01 -0.56759107986E+02 -0.34339392002E+02  0.66354200960E+02  0.00000000000E+00 0. -1.
<mgrwt>
<rscale>  1 0.13729185E+03</rscale>
<asrwt>0</asrwt>
<pdfrwt beam="2">  1        4 0.12668528E-01 0.13729185E+03</pdfrwt>
<pdfrwt beam="1">  1       -4 0.25118755E-01 0.13729185E+03</pdfrwt>
<totfact> 0.12418255E+03</totfact>
</mgrwt>
</event>
<event>
 6    4  0.1195577E-003  0.1340589E+03  0.7818608E-02  0.1221554E+00
          4   -1    0    0  502    0  0.00000000000E+00  0.00000000000E+00  0.18267325364E+03  0.18267766830E+03  0.12700000000E+01 0. -1.
         -4   -1    0    0    0  501 -0.00000000000E+00 -0.00000000000E+00 -0.53100347882E+02  0.53115532993E+02  0.12700000000E+01 0. -1.
         25    2    1    2    0    0  0.38462703090E+01 -0.48275769295E+02  0.50874413459E+02  0.14338759331E+03  0.12500580896E+03 0.  0.
    9000005    1    3    3    0    0  0.47372698230E+02 -0.56636495122E+02 -0.26451323501E+01  0.73890877938E+02  0.10000000000E+01 0.  0.
    9000005    1    3    3    0    0 -0.43526427921E+02  0.83607258269E+01  0.53519545809E+02  0.69496715372E+02  0.10000000000E+01 0.  0.
         21    1    1    2  502  501 -0.38462703090E+01  0.48275769295E+02  0.78698492301E+02  0.92405607983E+02  0.00000000000E+00 0. -1.
<mgrwt>
<rscale>  1 0.13405893E+03</rscale>
<asrwt>0</asrwt>
<pdfrwt beam="1">  1        4 0.28105085E-01 0.13405893E+03</pdfrwt>
<pdfrwt beam="2">  1       -4 0.81707919E-02 0.13405893E+03</pdfrwt>
<totfact> 0.21014619E+03</totfact>
</mgrwt>
</event>
<event>
 6    4  0.1195577E-003  0.1295440E+03  0.7818608E-02  0.1228134E+00
         -4   -1    0    0    0  501 -0.00000000000E+00  0.00000000000E+00  0.60167225354E+01  0.61492967133E+01  0.12700000000E+01 0.  1.
          4   -1    0    0  502    0  0.00000000000E+00 -0.00000000000E+00 -0.11459293328E+04  0.11459300365E+04  0.12700000000E+01 0.  1.
         25    2    1    2    0    0  0.31381584692E+02  0.13105070050E+02 -0.79392400737E+03  0.80442338257E+03  0.12500040893E+03 0.  0.
    9000005    1    3    3    0    0  0.20776044641E+01  0.40731688092E+02 -0.71162289878E+03  0.71279136984E+03  0.10000000000E+01 0.  0.
    9000005    1    3    3    0    0  0.29303980228E+02 -0.27626618043E+02 -0.82301108590E+02  0.91632012729E+02  0.10000000000E+01 0.  0.
         21    1    1    2  502  501 -0.31381584692E+02 -0.13105070050E+02 -0.34598860288E+03  0.34765595068E+03  0.00000000000E+00 0.  1.
<mgrwt>
<rscale>  1 0.12954400E+03</rscale>
<asrwt>0</asrwt>
<pdfrwt beam="2">  1        4 0.17630690E+00 0.12954400E+03</pdfrwt>
<pdfrwt beam="1">  1       -4 0.93590268E-03 0.12954400E+03</pdfrwt>
<totfact> 0.11089104E+03</totfact>
</mgrwt>
</event>
<event>
 6    4  0.1195577E-003  0.1270496E+03  0.7818608E-02  0.1231900E+00
         -4   -1    0    0    0  501 -0.00000000000E+00  0.00000000000E+00  0.38271767678E+02  0.38292833549E+02  0.12700000000E+01 0. -1.
          4   -1    0    0  502    0  0.00000000000E+00 -0.00000000000E+00 -0.19567094073E+03  0.19567506214E+03  0.12700000000E+01 0. -1.
         25    2    1    2    0    0 -0.12596515827E+02  0.18894843339E+02 -0.72917532301E+02  0.14648741250E+03  0.12500363270E+03 0.  0.
    9000005    1    3    3    0    0 -0.14038532383E+02  0.45677490365E+02 -0.98452388333E+02  0.10944124582E+03  0.10000000000E+01 0.  0.
    9000005    1    3    3    0    0  0.14420165565E+01 -0.26782647025E+02  0.25534856033E+02  0.37046166685E+02  0.10000000000E+01 0.  0.
         21    1    1    2  502  501  0.12596515827E+02 -0.18894843339E+02 -0.84481640748E+02  0.87480483191E+02  0.00000000000E+00 0. -1.
<mgrwt>
<rscale>  1 0.12704958E+03</rscale>
<asrwt>0</asrwt>
<pdfrwt beam="2">  1        4 0.30105159E-01 0.12704958E+03</pdfrwt>
<pdfrwt beam="1">  1       -4 0.58899018E-02 0.12704958E+03</pdfrwt>
<totfact> 0.31184970E+03</totfact>
</mgrwt>
</event>
<event>
 6    4  0.1195577E-003  0.1315760E+03  0.7818608E-02  0.1225136E+00
         -4   -1    0    0    0  501 -0.00000000000E+00  0.00000000000E+00  0.12451758386E+02  0.12516356775E+02  0.12700000000E+01 0.  1.
          4   -1    0    0  502    0  0.00000000000E+00 -0.00000000000E+00 -0.81077978905E+03  0.81078078371E+03  0.12700000000E+01 0.  1.
         25    2    1    2    0    0  0.26707922318E+02  0.31206407673E+02 -0.36435433955E+03  0.38738394090E+03  0.12500031969E+03 0.  0.
    9000005    1    3    3    0    0  0.57530028211E+02  0.28601511759E+02 -0.34488821199E+03  0.35082278916E+03  0.10000000000E+01 0.  0.
    9000005    1    3    3    0    0 -0.30822105894E+02  0.26048959139E+01 -0.19466127556E+02  0.36561151739E+02  0.10000000000E+01 0.  0.
         21    1    1    2  502  501 -0.26707922318E+02 -0.31206407673E+02 -0.43397369111E+03  0.43591319959E+03  0.00000000000E+00 0.  1.
<mgrwt>
<rscale>  1 0.13157596E+03</rscale>
<asrwt>0</asrwt>
<pdfrwt beam="2">  1        4 0.12474036E+00 0.13157596E+03</pdfrwt>
<pdfrwt beam="1">  1       -4 0.19207014E-02 0.13157596E+03</pdfrwt>
<totfact> 0.90038977E+02</totfact>
</mgrwt>
</event>
<event>
 6    4  0.1195577E-003  0.1272035E+03  0.7818608E-02  0.1231665E+00
         -4   -1    0    0    0  501 -0.00000000000E+00  0.00000000000E+00  0.79591422168E+02  0.79601553897E+02  0.12700000000E+01 0. -1.
          4   -1    0    0  502    0  0.00000000000E+00 -0.00000000000E+00 -0.75917108374E+02  0.75927730401E+02  0.12700000000E+01 0. -1.
         25    2    1    2    0    0  0.74850023133E+01 -0.22352927266E+02  0.17185106304E+02  0.12835907761E+03  0.12500018524E+03 0.  0.
    9000005    1    3    3    0    0 -0.43776278196E+02  0.27913628687E+02 -0.74268128521E+01  0.52456560584E+02  0.10000000000E+01 0.  0.
    9000005    1    3    3    0    0  0.51261280510E+02 -0.50266555953E+02  0.24611919156E+02  0.75902517030E+02  0.10000000000E+01 0.  0.
         21    1    1    2  502  501 -0.74850023133E+01  0.22352927266E+02 -0.13510792509E+02  0.27170206684E+02  0.00000000000E+00 0. -1.
<mgrwt>
<rscale>  1 0.12720348E+03</rscale>
<asrwt>0</asrwt>
<pdfrwt beam="2">  1        4 0.11681152E-01 0.12720348E+03</pdfrwt>
<pdfrwt beam="1">  1       -4 0.12246431E-01 0.12720348E+03</pdfrwt>
<totfact> 0.50171459E+03</totfact>
</mgrwt>
</event>
<event>
 6    4  0.1195577E-003  0.1335320E+03  0.7818608E-02  0.1222307E+00
          4   -1    0    0  502    0  0.00000000000E+00  0.00000000000E+00  0.28324447841E+03  0.28324732558E+03  0.12700000000E+01 0.  1.
         -4   -1    0    0    0  501 -0.00000000000E+00 -0.00000000000E+00 -0.34084875294E+02  0.34108527142E+02  0.12700000000E+01 0.  1.
         25    2    1    2    0    0 -0.35546177646E+02 -0.30703187933E+02  0.11857275485E+03  0.17857854393E+03  0.12499832666E+03 0.  0.
    9000005    1    3    3    0    0 -0.54527753017E+02  0.94184063900E+01  0.12208464408E+03  0.13404343531E+03  0.10000000000E+01 0.  0.
    9000005    1    3    3    0    0  0.18981575371E+02 -0.40121594323E+02 -0.35118892333E+01  0.44535108628E+02  0.10000000000E+01 0.  0.
         21    1    1    2  502  501  0.35546177646E+02  0.30703187933E+02  0.13058684826E+03  0.13877730879E+03  0.00000000000E+00 0.  1.
<mgrwt>
<rscale>  1 0.13353201E+03</rscale>
<asrwt>0</asrwt>
<pdfrwt beam="1">  1        4 0.43578113E-01 0.13353201E+03</pdfrwt>
<pdfrwt beam="2">  1       -4 0.52458652E-02 0.13353201E+03</pdfrwt>
<totfact> 0.18573448E+03</totfact>
</mgrwt>
</event>
<event>
 6    4  0.1195577E-003  0.1279136E+03  0.7818608E-02  0.1230585E+00
          4   -1    0    0  502    0  0.00000000000E+00  0.00000000000E+00  0.19545044094E+03  0.19545456701E+03  0.12700000000E+01 0.  1.
         -4   -1    0    0    0  501 -0.00000000000E+00 -0.00000000000E+00 -0.55809481560E+02  0.55823929744E+02  0.12700000000E+01 0.  1.
         25    2    1    2    0    0 -0.23296396245E+02  0.13588039853E+02  0.21018662370E+02  0.12962897454E+03  0.12503811406E+03 0.  0.
    9000005    1    3    3    0    0  0.10016193648E+02 -0.28033571844E+02 -0.39176688447E+02  0.49214004137E+02  0.10000000000E+01 0.  0.
    9000005    1    3    3    0    0 -0.33312589892E+02  0.41621611697E+02  0.60195350816E+02  0.80414970407E+02  0.10000000000E+01 0.  0.
         21    1    1    2  502  501  0.23296396245E+02 -0.13588039853E+02  0.11862229701E+03  0.12164952221E+03  0.00000000000E+00 0.  1.
<mgrwt>
<rscale>  1 0.12791359E+03</rscale>
<asrwt>0</asrwt>
<pdfrwt beam="1">  1        4 0.30070727E-01 0.12791359E+03</pdfrwt>
<pdfrwt beam="2">  1       -4 0.85875030E-02 0.12791359E+03</pdfrwt>
<totfact> 0.16856985E+03</totfact>
</mgrwt>
</event>
<event>
 6    4  0.1195577E-003  0.1318837E+03  0.7818608E-02  0.1224687E+00
          4   -1    0    0  502    0  0.00000000000E+00  0.00000000000E+00  0.29824084946E+02  0.29851112925E+02  0.12700000000E+01 0.  1.
         -4   -1    0    0    0  501 -0.00000000000E+00 -0.00000000000E+00 -0.39842478315E+03  0.39842680724E+03  0.12700000000E+01 0.  1.
         25    2    1    2    0    0 -0.19092675258E+02 -0.37475733424E+02 -0.36254179245E+03  0.38578473032E+03  0.12499738411E+03 0.  0.
    9000005    1    3    3    0    0  0.23646504240E+01 -0.60013495107E+02 -0.72833859472E+02  0.94408592046E+02  0.10000000000E+01 0.  0.
    9000005    1    3    3    0    0 -0.21457325682E+02  0.22537761683E+02 -0.28970793298E+03  0.29137613828E+03  0.10000000000E+01 0.  0.
         21    1    1    2  502  501  0.19092675258E+02  0.37475733424E+02 -0.60589057558E+01  0.42493189844E+02  0.00000000000E+00 0.  1.
<mgrwt>
<rscale>  1 0.13188369E+03</rscale>
<asrwt>0</asrwt>
<pdfrwt beam="1">  1        4 0.45905558E-02 0.13188369E+03</pdfrwt>
<pdfrwt beam="2">  1       -4 0.61298351E-01 0.13188369E+03</pdfrwt>
<totfact> 0.11410085E+03</totfact>
</mgrwt>
</event>
<event>
 6    4  0.1195577E-003  0.1265757E+03  0.7818608E-02  0.1232627E+00
          4   -1    0    0  502    0  0.00000000000E+00  0.00000000000E+00  0.58135941359E+03  0.58136080077E+03  0.12700000000E+01 0.  1.
         -4   -1    0    0    0  501 -0.00000000000E+00 -0.00000000000E+00 -0.10088234689E+02  0.10167860106E+02  0.12700000000E+01 0.  1.
         25    2    1    2    0    0  0.18113823788E+02  0.84934772759E+01  0.41197823589E+03  0.43098430108E+03  0.12498460370E+03 0.  0.
    9000005    1    3    3    0    0 -0.39361767444E+02  0.19611968487E+02  0.31229687301E+03  0.31537963621E+03  0.10000000000E+01 0.  0.
    9000005    1    3    3    0    0  0.57475591232E+02 -0.11118491212E+02  0.99681362880E+02  0.11560466487E+03  0.10000000000E+01 0.  0.
         21    1    1    2  502  501 -0.18113823788E+02 -0.84934772759E+01  0.15929294302E+03  0.16054435980E+03  0.00000000000E+00 0.  1.
<mgrwt>
<rscale>  1 0.12657567E+03</rscale>
<asrwt>0</asrwt>
<pdfrwt beam="1">  1        4 0.89446195E-01 0.12657567E+03</pdfrwt>
<pdfrwt beam="2">  1       -4 0.15582669E-02 0.12657567E+03</pdfrwt>
<totfact> 0.26735136E+03</totfact>
</mgrwt>
</event>
<event>
 6    4  0.1195577E-003  0.1309267E+03  0.7818608E-02  0.1226087E+00
         -4   -1    0    0    0  501 -0.00000000000E+00  0.00000000000E+00  0.22162863527E+03  0.22163227399E+03  0.12700000000E+01 0. -1.
          4   -1    0    0  502    0  0.00000000000E+00 -0.00000000000E+00 -0.35853805847E+02  0.35876291527E+02  0.12700000000E+01 0. -1.
         25    2    1    2    0    0  0.38753691588E+02  0.38738729838E+01  0.17207772313E+03  0.21622338386E+03  0.12499981371E+03 0.  0.
    9000005    1    3    3    0    0  0.25602440887E+02  0.11793834692E+02 -0.12609673854E+02  0.30896332968E+02  0.10000000000E+01 0.  0.
    9000005    1    3    3    0    0  0.13151250700E+02 -0.79199617081E+01  0.18468739698E+03  0.18532705089E+03  0.10000000000E+01 0.  0.
         21    1    1    2  502  501 -0.38753691588E+02 -0.38738729838E+01  0.13697106302E+02  0.41285181659E+02  0.00000000000E+00 0. -1.
<mgrwt>
<rscale>  1 0.13092673E+03</rscale>
<asrwt>0</asrwt>
<pdfrwt beam="2">  1        4 0.55179797E-02 0.13092673E+03</pdfrwt>
<pdfrwt beam="1">  1       -4 0.34098723E-01 0.13092673E+03</pdfrwt>
<totfact> 0.27535318E+03</totfact>
</mgrwt>
</event>
<event>
 6    4  0.1195577E-003  0.1266012E+03  0.7818608E-02  0.1232588E+00
         -4   -1    0    0    0  501 -0.00000000000E+00  0.00000000000E+00  0.20632105912E+02  0.20671156097E+02  0.12700000000E+01 0. -1.
          4   -1    0    0  502    0  0.00000000000E+00 -0.00000000000E+00 -0.27079673675E+03  0.27079971479E+03  0.12700000000E+01 0. -1.
         25    2    1    2    0    0 -0.18859847305E+02  0.69227734097E+01 -0.19243746802E+03  0.23034768414E+03  0.12499703140E+03 0.  0.
    9000005    1    3    3    0    0 -0.58987676018E+02  0.27605069826E+02 -0.16528816510E+03  0.17765912114E+03  0.10000000000E+01 0.  0.
    9000005    1    3    3    0    0  0.40127828713E+02 -0.20682296417E+02 -0.27149302929E+02  0.52688563008E+02  0.10000000000E+01 0.  0.
         21    1    1    2  502  501  0.18859847305E+02 -0.69227734097E+01 -0.57727162809E+02  0.61123186746E+02  0.00000000000E+00 0.  1.
<mgrwt>
<rscale>  1 0.12660125E+03</rscale>
<asrwt>0</asrwt>
<pdfrwt beam="2">  1        4 0.41664267E-01 0.12660125E+03</pdfrwt>
<pdfrwt beam="1">  1       -4 0.31774033E-02 0.12660125E+03</pdfrwt>
<totfact> 0.44473110E+03</totfact>
</mgrwt>
</event>
<event>
 6    4  0.1195577E-003  0.1266583E+03  0.7818608E-02  0.1232500E+00
          4   -1    0    0  502    0  0.00000000000E+00  0.00000000000E+00  0.12714397220E+02  0.12777667889E+02  0.12700000000E+01 0. -1.
         -4   -1    0    0    0  501 -0.00000000000E+00 -0.00000000000E+00 -0.42488677577E+03  0.42488867380E+03  0.12700000000E+01 0. -1.
         25    2    1    2    0    0  0.31171662642E+01  0.20168139018E+02 -0.36100955699E+03  0.38258363236E+03  0.12500345977E+03 0.  0.
    9000005    1    3    3    0    0  0.61103690677E+01  0.46449264617E+02 -0.35126521483E+03  0.35437709004E+03  0.10000000000E+01 0.  0.
    9000005    1    3    3    0    0 -0.29932028035E+01 -0.26281125598E+02 -0.97443421602E+01  0.28206542324E+02  0.10000000000E+01 0.  0.
         21    1    1    2  502  501 -0.31171662642E+01 -0.20168139018E+02 -0.51162821557E+02  0.55082709326E+02  0.00000000000E+00 0. -1.
<mgrwt>
<rscale>  1 0.12665834E+03</rscale>
<asrwt>0</asrwt>
<pdfrwt beam="1">  1        4 0.19610744E-02 0.12665834E+03</pdfrwt>
<pdfrwt beam="2">  1       -4 0.65372198E-01 0.12665834E+03</pdfrwt>
<totfact> 0.37364298E+03</totfact>
</mgrwt>
</event>
<event>
 6    4  0.1195577E-003  0.1364142E+03  0.7818608E-02  0.1218237E+00
         -4   -1    0    0    0  501 -0.00000000000E+00  0.00000000000E+00  0.94994153280E+02  0.95002642370E+02  0.12700000000E+01 0.  1.
          4   -1    0    0  502    0  0.00000000000E+00 -0.00000000000E+00 -0.10573169262E+03  0.10573931967E+03  0.12700000000E+01 0.  1.
         25    2    1    2    0    0  0.12618624563E+02  0.53150306805E+02  0.20294338118E+02  0.13791551683E+03  0.12499857928E+03 0.  0.
    9000005    1    3    3    0    0 -0.85481382003E+01  0.72378576607E+01  0.67685029116E+02  0.68612829825E+02  0.10000000000E+01 0.  0.
    9000005    1    3    3    0    0  0.21166762763E+02  0.45912449145E+02 -0.47390690998E+02  0.69302687001E+02  0.10000000000E+01 0.  0.
         21    1    1    2  502  501 -0.12618624563E+02 -0.53150306805E+02 -0.31031877455E+02  0.62826445210E+02  0.00000000000E+00 0.  1.
<mgrwt>
<rscale>  1 0.13641418E+03</rscale>
<asrwt>0</asrwt>
<pdfrwt beam="2">  1        4 0.16267654E-01 0.13641418E+03</pdfrwt>
<pdfrwt beam="1">  1       -4 0.14615725E-01 0.13641418E+03</pdfrwt>
<totfact> 0.21185141E+03</totfact>
</mgrwt>
</event>
<event>
 6    4  0.1195577E-003  0.1323525E+03  0.7818608E-02  0.1224006E+00
          4   -1    0    0  502    0  0.00000000000E+00  0.00000000000E+00  0.21088390021E+02  0.21126596831E+02  0.12700000000E+01 0. -1.
         -4   -1    0    0    0  501 -0.00000000000E+00 -0.00000000000E+00 -0.66497558739E+03  0.66497680014E+03  0.12700000000E+01 0. -1.
         25    2    1    2    0    0 -0.24021062615E+02 -0.36277047798E+02 -0.62467374911E+03  0.63854088821E+03  0.12499654970E+03 0.  0.
    9000005    1    3    3    0    0  0.19493574555E+02  0.37844128412E+02 -0.14102901227E+03  0.14731720811E+03  0.10000000000E+01 0.  0.
    9000005    1    3    3    0    0 -0.43514637171E+02 -0.74121176210E+02 -0.48364473685E+03  0.49122368010E+03  0.10000000000E+01 0.  0.
         21    1    1    2  502  501  0.24021062615E+02  0.36277047798E+02 -0.19213448259E+02  0.47562508766E+02  0.00000000000E+00 0. -1.
<mgrwt>
<rscale>  1 0.13235246E+03</rscale>
<asrwt>0</asrwt>
<pdfrwt beam="1">  1        4 0.32474005E-02 0.13235246E+03</pdfrwt>
<pdfrwt beam="2">  1       -4 0.10230695E+00 0.13235246E+03</pdfrwt>
<totfact> 0.63786582E+02</totfact>
</mgrwt>
</event>
<event>
 6    4  0.1195577E-003  0.1272912E+03  0.7818608E-02  0.1231531E+00
         -4   -1    0    0    0  501 -0.00000000000E+00  0.00000000000E+00  0.12416756763E+03  0.12417406231E+03  0.12700000000E+01 0. -1.
          4   -1    0    0  502    0  0.00000000000E+00 -0.00000000000E+00 -0.50153111477E+02  0.50169188660E+02  0.12700000000E+01 0. -1.
         25    2    1    2    0    0  0.16258163139E+02 -0.17672282728E+02  0.79006194945E+02  0.14981663478E+03  0.12500563096E+03 0.  0.
    9000005    1    3    3    0    0  0.17453255172E+01  0.45911650626E+02  0.70332837267E+02  0.84015676051E+02  0.10000000000E+01 0.  0.
    9000005    1    3    3    0    0  0.14512837622E+02 -0.63583933354E+02  0.86733576789E+01  0.65800958732E+02  0.10000000000E+01 0.  0.
         21    1    1    2  502  501 -0.16258163139E+02  0.17672282728E+02 -0.49917387922E+01  0.24526616189E+02  0.00000000000E+00 0. -1.
<mgrwt>
<rscale>  1 0.12729118E+03</rscale>
<asrwt>0</asrwt>
<pdfrwt beam="2">  1        4 0.77175997E-02 0.12729118E+03</pdfrwt>
<pdfrwt beam="1">  1       -4 0.19104439E-01 0.12729118E+03</pdfrwt>
<totfact> 0.46209959E+03</totfact>
</mgrwt>
</event>
<event>
 6    4  0.1195577E-003  0.1277980E+03  0.7818608E-02  0.1230760E+00
         -4   -1    0    0    0  501 -0.00000000000E+00  0.00000000000E+00  0.12766165640E+02  0.12829181001E+02  0.12700000000E+01 0. -1.
          4   -1    0    0  502    0  0.00000000000E+00 -0.00000000000E+00 -0.72412756244E+03  0.72412867613E+03  0.12700000000E+01 0. -1.
         25    2    1    2    0    0 -0.54476976946E+01 -0.26023834438E+02 -0.31828809859E+03  0.34298636687E+03  0.12500166713E+03 0.  0.
    9000005    1    3    3    0    0  0.44526204885E+02  0.26025215936E+02 -0.92051487532E+02  0.10551952967E+03  0.10000000000E+01 0.  0.
    9000005    1    3    3    0    0 -0.49973902580E+02 -0.52049050374E+02 -0.22623661106E+03  0.23746683719E+03  0.10000000000E+01 0.  0.
         21    1    1    2  502  501  0.54476976946E+01  0.26023834438E+02 -0.39307329822E+03  0.39397149026E+03  0.00000000000E+00 0. -1.
<mgrwt>
<rscale>  1 0.12779802E+03</rscale>
<asrwt>0</asrwt>
<pdfrwt beam="2">  1        4 0.11140914E+00 0.12779802E+03</pdfrwt>
<pdfrwt beam="1">  1       -4 0.19689590E-02 0.12779802E+03</pdfrwt>
<totfact> 0.11283864E+03</totfact>
</mgrwt>
</event>
<event>
 6    4  0.1195577E-003  0.1499307E+03  0.7818608E-02  0.1200558E+00
         -4   -1    0    0    0  501 -0.00000000000E+00  0.00000000000E+00  0.43335643529E+02  0.43354248928E+02  0.12700000000E+01 0.  1.
          4   -1    0    0  502    0  0.00000000000E+00 -0.00000000000E+00 -0.31256133168E+03  0.31256391181E+03  0.12700000000E+01 0.  1.
         25    2    1    2    0    0  0.81154808050E+02 -0.16379986486E+02 -0.17779667650E+03  0.23257444991E+03  0.12499923900E+03 0.  0.
    9000005    1    3    3    0    0  0.87913524696E+02  0.52219072565E+01 -0.47000291983E+02  0.99830273897E+02  0.10000000000E+01 0.  0.
    9000005    1    3    3    0    0 -0.67587166466E+01 -0.21601893742E+02 -0.13079638451E+03  0.13274417601E+03  0.10000000000E+01 0.  0.
         21    1    1    2  502  501 -0.81154808050E+02  0.16379986486E+02 -0.91429011660E+02  0.12334371082E+03  0.00000000000E+00 0.  1.
<mgrwt>
<rscale>  1 0.14993071E+03</rscale>
<asrwt>0</asrwt>
<pdfrwt beam="2">  1        4 0.48087987E-01 0.14993071E+03</pdfrwt>
<pdfrwt beam="1">  1       -4 0.66686519E-02 0.14993071E+03</pdfrwt>
<totfact> 0.10572072E+03</totfact>
</mgrwt>
</event>
<event>
 6    4  0.1195577E-003  0.1271813E+03  0.7818608E-02  0.1231699E+00
         -4   -1    0    0    0  501 -0.00000000000E+00  0.00000000000E+00  0.19987176526E+03  0.19987580006E+03  0.12700000000E+01 0.  1.
          4   -1    0    0  502    0  0.00000000000E+00 -0.00000000000E+00 -0.28811958613E+02  0.28839935144E+02  0.12700000000E+01 0.  1.
         25    2    1    2    0    0 -0.11885204958E+02 -0.20210896514E+02  0.15395671306E+03  0.19969411835E+03  0.12500133187E+03 0.  0.
    9000005    1    3    3    0    0 -0.53822176945E+02  0.22655622578E+02  0.11258386091E+03  0.12683150122E+03  0.10000000000E+01 0.  0.
    9000005    1    3    3    0    0  0.41936971987E+02 -0.42866519092E+02  0.41372852153E+02  0.72862617122E+02  0.10000000000E+01 0.  0.
         21    1    1    2  502  501  0.11885204958E+02  0.20210896514E+02  0.17103093586E+02  0.29021616857E+02  0.00000000000E+00 0. -1.
<mgrwt>
<rscale>  1 0.12718125E+03</rscale>
<asrwt>0</asrwt>
<pdfrwt beam="2">  1        4 0.44350713E-02 0.12718125E+03</pdfrwt>
<pdfrwt beam="1">  1       -4 0.30751965E-01 0.12718125E+03</pdfrwt>
<totfact> 0.47279528E+03</totfact>
</mgrwt>
</event>
<event>
 6    4  0.1195577E-003  0.1295011E+03  0.7818608E-02  0.1228198E+00
         -4   -1    0    0    0  501 -0.00000000000E+00  0.00000000000E+00  0.18161585566E+03  0.18162029602E+03  0.12700000000E+01 0. -1.
          4   -1    0    0  502    0  0.00000000000E+00 -0.00000000000E+00 -0.94888277297E+02  0.94896775859E+02  0.12700000000E+01 0. -1.
         25    2    1    2    0    0 -0.30371972040E+02  0.14933798249E+02  0.15399880884E+03  0.20121173697E+03  0.12500021982E+03 0.  0.
    9000005    1    3    3    0    0  0.14029836607E+02 -0.22578656635E+01 -0.17877688222E+02  0.22859265271E+02  0.10000000000E+01 0.  0.
    9000005    1    3    3    0    0 -0.44401808646E+02  0.17191663912E+02  0.17187649706E+03  0.17835247170E+03  0.10000000000E+01 0.  0.
         21    1    1    2  502  501  0.30371972040E+02 -0.14933798249E+02 -0.67271230478E+02  0.75305334909E+02  0.00000000000E+00 0. -1.
<mgrwt>
<rscale>  1 0.12950108E+03</rscale>
<asrwt>0</asrwt>
<pdfrwt beam="2">  1        4 0.14599192E-01 0.12950108E+03</pdfrwt>
<pdfrwt beam="1">  1       -4 0.27941896E-01 0.12950108E+03</pdfrwt>
<totfact> 0.78742361E+02</totfact>
</mgrwt>
</event>
<event>
 6    4  0.1195577E-003  0.1319634E+03  0.7818608E-02  0.1224571E+00
          4   -1    0    0  502    0  0.00000000000E+00  0.00000000000E+00  0.68997249099E+01  0.70156328177E+01  0.12700000000E+01 0.  1.
         -4   -1    0    0    0  501 -0.00000000000E+00 -0.00000000000E+00 -0.11632061581E+04  0.11632068514E+04  0.12700000000E+01 0.  1.
         25    2    1    2    0    0  0.12090385017E+02 -0.40538671782E+02 -0.73085756435E+03  0.74267564314E+03  0.12499908089E+03 0.  0.
    9000005    1    3    3    0    0  0.10616918026E+02 -0.72570742581E+02 -0.66885432684E+03  0.67286428213E+03  0.10000000000E+01 0.  0.
    9000005    1    3    3    0    0  0.14734669910E+01  0.32032070799E+02 -0.62003237508E+02  0.69811361010E+02  0.10000000000E+01 0.  0.
         21    1    1    2  502  501 -0.12090385017E+02  0.40538671782E+02 -0.42544886888E+03  0.42754684112E+03  0.00000000000E+00 0. -1.
<mgrwt>
<rscale>  1 0.13196337E+03</rscale>
<asrwt>0</asrwt>
<pdfrwt beam="1">  1        4 0.10704664E-02 0.13196337E+03</pdfrwt>
<pdfrwt beam="2">  1       -4 0.17896361E+00 0.13196337E+03</pdfrwt>
<totfact> 0.87326018E+02</totfact>
</mgrwt>
</event>
<event>
 6    4  0.1195577E-003  0.1278337E+03  0.7818608E-02  0.1230706E+00
          4   -1    0    0  502    0  0.00000000000E+00  0.00000000000E+00  0.25709565554E+02  0.25740914144E+02  0.12700000000E+01 0. -1.
         -4   -1    0    0    0  501 -0.00000000000E+00 -0.00000000000E+00 -0.23867318539E+03  0.23867656425E+03  0.12700000000E+01 0. -1.
         25    2    1    2    0    0 -0.25498197439E+02 -0.81351246008E+01 -0.15762270861E+03  0.20294427464E+03  0.12500048806E+03 0.  0.
    9000005    1    3    3    0    0 -0.40864410202E+02 -0.10089214176E+02  0.23988608762E+01  0.42171634985E+02  0.10000000000E+01 0.  0.
    9000005    1    3    3    0    0  0.15366212762E+02  0.19540895756E+01 -0.16002156949E+03  0.16077263966E+03  0.10000000000E+01 0.  0.
         21    1    1    2  502  501  0.25498197439E+02  0.81351246008E+01 -0.55340911222E+02  0.61473203754E+02  0.00000000000E+00 0. -1.
<mgrwt>
<rscale>  1 0.12783372E+03</rscale>
<asrwt>0</asrwt>
<pdfrwt beam="1">  1        4 0.39579893E-02 0.12783372E+03</pdfrwt>
<pdfrwt beam="2">  1       -4 0.36721621E-01 0.12783372E+03</pdfrwt>
<totfact> 0.40377056E+03</totfact>
</mgrwt>
</event>
<event>
 6    4  0.1195577E-003  0.1480275E+03  0.7818608E-02  0.1202918E+00
          4   -1    0    0  502    0  0.00000000000E+00  0.00000000000E+00  0.19539915748E+03  0.19540328463E+03  0.12700000000E+01 0.  1.
         -4   -1    0    0    0  501 -0.00000000000E+00 -0.00000000000E+00 -0.71632709997E+02  0.71643967237E+02  0.12700000000E+01 0.  1.
         25    2    1    2    0    0 -0.22062524269E+02 -0.76154305280E+02  0.43644730949E+02  0.15432758788E+03  0.12500363455E+03 0.  0.
    9000005    1    3    3    0    0 -0.39985519147E+02  0.18183388829E+02 -0.89473373359E+01  0.44838958687E+02  0.10000000000E+01 0.  0.
    9000005    1    3    3    0    0  0.17922994878E+02 -0.94337694110E+02  0.52592068285E+02  0.10948862919E+03  0.10000000000E+01 0.  0.
         21    1    1    2  502  501  0.22062524269E+02  0.76154305280E+02  0.80121716538E+02  0.11271966399E+03  0.00000000000E+00 0.  1.
<mgrwt>
<rscale>  1 0.14802750E+03</rscale>
<asrwt>0</asrwt>
<pdfrwt beam="1">  1        4 0.30062592E-01 0.14802750E+03</pdfrwt>
<pdfrwt beam="2">  1       -4 0.11021600E-01 0.14802750E+03</pdfrwt>
<totfact> 0.11437676E+03</totfact>
</mgrwt>
</event>
<event>
 6    4  0.1195577E-003  0.1453764E+03  0.7818608E-02  0.1206272E+00
         -4   -1    0    0    0  501 -0.00000000000E+00  0.00000000000E+00  0.88004326381E+02  0.88013489658E+02  0.12700000000E+01 0. -1.
          4   -1    0    0  502    0  0.00000000000E+00 -0.00000000000E+00 -0.14195805306E+03  0.14196373385E+03  0.12700000000E+01 0. -1.
         25    2    1    2    0    0  0.71801401497E+02 -0.18791757197E+02 -0.14977801097E+02  0.14614587990E+03  0.12500284913E+03 0.  0.
    9000005    1    3    3    0    0  0.10178248580E+03 -0.29099007259E+02 -0.31405321501E+02  0.11042518217E+03  0.10000000000E+01 0.  0.
    9000005    1    3    3    0    0 -0.29981084303E+02  0.10307250062E+02  0.16427520405E+02  0.35720697732E+02  0.10000000000E+01 0.  0.
         21    1    1    2  502  501 -0.71801401497E+02  0.18791757197E+02 -0.38975925582E+02  0.83831343604E+02  0.00000000000E+00 0. -1.
<mgrwt>
<rscale>  1 0.14537635E+03</rscale>
<asrwt>0</asrwt>
<pdfrwt beam="2">  1        4 0.21840842E-01 0.14537635E+03</pdfrwt>
<pdfrwt beam="1">  1       -4 0.13540269E-01 0.14537635E+03</pdfrwt>
<totfact> 0.14479875E+03</totfact>
</mgrwt>
</event>
<event>
 6    4  0.1195577E-003  0.1281929E+03  0.7818608E-02  0.1230162E+00
          4   -1    0    0  502    0  0.00000000000E+00  0.00000000000E+00  0.27457272764E+02  0.27486628160E+02  0.12700000000E+01 0. -1.
         -4   -1    0    0    0  501 -0.00000000000E+00 -0.00000000000E+00 -0.22582106981E+03  0.22582464097E+03  0.12700000000E+01 0. -1.
         25    2    1    2    0    0 -0.26505262594E+02 -0.10275172777E+02 -0.17219462425E+03  0.21467276857E+03  0.12500120329E+03 0.  0.
    9000005    1    3    3    0    0 -0.23516829166E+01 -0.53264626140E+02 -0.15251919911E+03  0.16157276042E+03  0.10000000000E+01 0.  0.
    9000005    1    3    3    0    0 -0.24153579678E+02  0.42989453364E+02 -0.19675425142E+02  0.53100008157E+02  0.10000000000E+01 0.  0.
         21    1    1    2  502  501  0.26505262594E+02  0.10275172777E+02 -0.26169172789E+02  0.38638500556E+02  0.00000000000E+00 0. -1.
<mgrwt>
<rscale>  1 0.12819286E+03</rscale>
<asrwt>0</asrwt>
<pdfrwt beam="1">  1        4 0.42267288E-02 0.12819286E+03</pdfrwt>
<pdfrwt beam="2">  1       -4 0.34744235E-01 0.12819286E+03</pdfrwt>
<totfact> 0.40513619E+03</totfact>
</mgrwt>
</event>
<event>
 6    4  0.1195577E-003  0.1283579E+03  0.7818608E-02  0.1229913E+00
         -4   -1    0    0    0  501 -0.00000000000E+00  0.00000000000E+00  0.60634944114E+01  0.61950677540E+01  0.12700000000E+01 0.  1.
          4   -1    0    0  502    0  0.00000000000E+00 -0.00000000000E+00 -0.11379584831E+04  0.11379591918E+04  0.12700000000E+01 0.  1.
         25    2    1    2    0    0  0.23056067638E+02  0.17829220325E+02 -0.72960266028E+03  0.74080753419E+03  0.12500518977E+03 0.  0.
    9000005    1    3    3    0    0  0.21188490561E+02  0.53633526867E+02 -0.65992309504E+03  0.66243867543E+03  0.10000000000E+01 0.  0.
    9000005    1    3    3    0    0  0.18675770768E+01 -0.35804306542E+02 -0.69679565237E+02  0.78368858756E+02  0.10000000000E+01 0.  0.
         21    1    1    2  502  501 -0.23056067638E+02 -0.17829220325E+02 -0.40229232840E+03  0.40334672534E+03  0.00000000000E+00 0. -1.
<mgrwt>
<rscale>  1 0.12835794E+03</rscale>
<asrwt>0</asrwt>
<pdfrwt beam="2">  1        4 0.17508054E+00 0.12835794E+03</pdfrwt>
<pdfrwt beam="1">  1       -4 0.94302174E-03 0.12835794E+03</pdfrwt>
<totfact> 0.11150842E+03</totfact>
</mgrwt>
</event>
<event>
 6    4  0.1195577E-003  0.1282010E+03  0.7818608E-02  0.1230150E+00
         -4   -1    0    0    0  501 -0.00000000000E+00  0.00000000000E+00  0.27570845634E+02  0.27600080235E+02  0.12700000000E+01 0. -1.
          4   -1    0    0  502    0  0.00000000000E+00 -0.00000000000E+00 -0.23076408951E+03  0.23076758418E+03  0.12700000000E+01 0. -1.
         25    2    1    2    0    0 -0.69544605397E+01  0.27608436957E+02 -0.14475984305E+03  0.19336725946E+03  0.12499957823E+03 0.  0.
    9000005    1    3    3    0    0  0.41261876168E+01 -0.28619005898E+02  0.81579165899E+01  0.30060348068E+02  0.10000000000E+01 0.  0.
    9000005    1    3    3    0    0 -0.11080648156E+02  0.56227442855E+02 -0.15291775964E+03  0.16330691139E+03  0.10000000000E+01 0.  0.
         21    1    1    2  502  501  0.69544605397E+01 -0.27608436957E+02 -0.58433400825E+02  0.65000404957E+02  0.00000000000E+00 0. -1.
<mgrwt>
<rscale>  1 0.12820096E+03</rscale>
<asrwt>0</asrwt>
<pdfrwt beam="2">  1        4 0.35504684E-01 0.12820096E+03</pdfrwt>
<pdfrwt beam="1">  1       -4 0.42441863E-02 0.12820096E+03</pdfrwt>
<totfact> 0.38603317E+03</totfact>
</mgrwt>
</event>
<event>
 6    4  0.1195577E-003  0.2473277E+03  0.7818608E-02  0.1115005E+00
         -4   -1    0    0    0  501 -0.00000000000E+00  0.00000000000E+00  0.17073024976E+04  0.17073029700E+04  0.12700000000E+01 0.  1.
          4   -1    0    0  502    0  0.00000000000E+00 -0.00000000000E+00 -0.33246189611E+02  0.33270437684E+02  0.12700000000E+01 0.  1.
         25    2    1    2    0    0  0.71530320555E+01 -0.21329606761E+03  0.67266942434E+03  0.71669740486E+03  0.12499854943E+03 0.  0.
    9000005    1    3    3    0    0 -0.56895955490E+02 -0.12864566373E+03  0.36055337958E+03  0.38702273328E+03  0.10000000000E+01 0.  0.
    9000005    1    3    3    0    0  0.64048987545E+02 -0.84650403879E+02  0.31211604476E+03  0.32967467158E+03  0.10000000000E+01 0.  0.
         21    1    1    2  502  501 -0.71530320555E+01  0.21329606761E+03  0.10013868837E+04  0.10238760028E+04  0.00000000000E+00 0.  1.
<mgrwt>
<rscale>  1 0.24732775E+03</rscale>
<asrwt>0</asrwt>
<pdfrwt beam="2">  1        4 0.51166984E-02 0.24732775E+03</pdfrwt>
<pdfrwt beam="1">  1       -4 0.26266391E+00 0.24732775E+03</pdfrwt>
<totfact> 0.25373796E+01</totfact>
</mgrwt>
</event>
<event>
 6    4  0.1195577E-003  0.1273135E+03  0.7818608E-02  0.1231497E+00
         -4   -1    0    0    0  501 -0.00000000000E+00  0.00000000000E+00  0.36714352447E+03  0.36714572101E+03  0.12700000000E+01 0. -1.
          4   -1    0    0  502    0  0.00000000000E+00 -0.00000000000E+00 -0.18308057222E+02  0.18352053270E+02  0.12700000000E+01 0. -1.
         25    2    1    2    0    0 -0.46528701264E+01  0.23638534121E+02  0.33340958482E+03  0.35689030420E+03  0.12501323325E+03 0.  0.
    9000005    1    3    3    0    0 -0.44849018917E+02 -0.25928673010E+02  0.78107591525E+02  0.93731139093E+02  0.10000000000E+01 0.  0.
    9000005    1    3    3    0    0  0.40196148790E+02  0.49567207130E+02  0.25530199330E+03  0.26315916511E+03  0.10000000000E+01 0.  0.
         21    1    1    2  502  501  0.46528701264E+01 -0.23638534121E+02  0.15425882423E+02  0.28607470079E+02  0.00000000000E+00 0. -1.
<mgrwt>
<rscale>  1 0.12731354E+03</rscale>
<asrwt>0</asrwt>
<pdfrwt beam="2">  1        4 0.28201777E-02 0.12731354E+03</pdfrwt>
<pdfrwt beam="1">  1       -4 0.56487167E-01 0.12731354E+03</pdfrwt>
<totfact> 0.28976414E+03</totfact>
</mgrwt>
</event>
<event>
 6    4  0.1195577E-003  0.1310194E+03  0.7818608E-02  0.1225951E+00
          4   -1    0    0  502    0  0.00000000000E+00  0.00000000000E+00  0.11127436701E+03  0.11128161417E+03  0.12700000000E+01 0. -1.
         -4   -1    0    0    0  501 -0.00000000000E+00 -0.00000000000E+00 -0.65629258247E+02  0.65641545062E+02  0.12700000000E+01 0. -1.
         25    2    1    2    0    0  0.26493050833E+02  0.28992078747E+02  0.28570101561E+02  0.13409818704E+03  0.12499460265E+03 0.  0.
    9000005    1    3    3    0    0  0.76939921364E+02  0.16856204256E+02  0.12396472398E+02  0.79740552100E+02  0.10000000000E+01 0.  0.
    9000005    1    3    3    0    0 -0.50446870530E+02  0.12135874492E+02  0.16173629162E+02  0.54357634940E+02  0.10000000000E+01 0.  0.
         21    1    1    2  502  501 -0.26493050833E+02 -0.28992078747E+02  0.17075007199E+02  0.42824972194E+02  0.00000000000E+00 0. -1.
<mgrwt>
<rscale>  1 0.13101936E+03</rscale>
<asrwt>0</asrwt>
<pdfrwt beam="1">  1        4 0.17120636E-01 0.13101936E+03</pdfrwt>
<pdfrwt beam="2">  1       -4 0.10098312E-01 0.13101936E+03</pdfrwt>
<totfact> 0.36124276E+03</totfact>
</mgrwt>
</event>
<event>
 6    4  0.1195577E-003  0.1963364E+03  0.7818608E-02  0.1152867E+00
         -4   -1    0    0    0  501 -0.00000000000E+00  0.00000000000E+00  0.13284755232E+03  0.13285362267E+03  0.12700000000E+01 0.  1.
          4   -1    0    0  502    0  0.00000000000E+00 -0.00000000000E+00 -0.22913690031E+03  0.22914041980E+03  0.12700000000E+01 0.  1.
         25    2    1    2    0    0  0.12816447219E+03 -0.80587774594E+02 -0.39320810621E+02  0.20023516143E+03  0.12500988913E+03 0.  0.
    9000005    1    3    3    0    0  0.12803720662E+03 -0.44465926045E+02 -0.70254140849E+02  0.15266757732E+03  0.10000000000E+01 0.  0.
    9000005    1    3    3    0    0  0.12726556619E+00 -0.36121848549E+02  0.30933330227E+02  0.47567584111E+02  0.10000000000E+01 0.  0.
         21    1    1    2  502  501 -0.12816447219E+03  0.80587774594E+02 -0.56968537369E+02  0.16175888104E+03  0.00000000000E+00 0.  1.
<mgrwt>
<rscale>  1 0.19633643E+03</rscale>
<asrwt>0</asrwt>
<pdfrwt beam="2">  1        4 0.35252568E-01 0.19633643E+03</pdfrwt>
<pdfrwt beam="1">  1       -4 0.20438823E-01 0.19633643E+03</pdfrwt>
<totfact> 0.29984382E+02</totfact>
</mgrwt>
</event>
<event>
 6    4  0.1195577E-003  0.1269446E+03  0.7818608E-02  0.1232061E+00
         -4   -1    0    0    0  501 -0.00000000000E+00  0.00000000000E+00  0.65374003446E+03  0.65374126805E+03  0.12700000000E+01 0. -1.
          4   -1    0    0  502    0  0.00000000000E+00 -0.00000000000E+00 -0.99127214484E+01  0.99937453697E+01  0.12700000000E+01 0. -1.
         25    2    1    2    0    0 -0.19829303099E+02 -0.96203885940E+01  0.61196442708E+03  0.62499231556E+03  0.12501672430E+03 0.  0.
    9000005    1    3    3    0    0 -0.54196006258E+02  0.14576055622E+02  0.52913569073E+03  0.53210454583E+03  0.10000000000E+01 0.  0.
    9000005    1    3    3    0    0  0.34366703159E+02 -0.24196444216E+02  0.82828736355E+02  0.92887769727E+02  0.10000000000E+01 0.  0.
         21    1    1    2  502  501  0.19829303099E+02  0.96203885940E+01  0.31862885926E+02  0.38742697862E+02  0.00000000000E+00 0. -1.
<mgrwt>
<rscale>  1 0.12694461E+03</rscale>
<asrwt>0</asrwt>
<pdfrwt beam="2">  1        4 0.15313618E-02 0.12694461E+03</pdfrwt>
<pdfrwt beam="1">  1       -4 0.10058170E+00 0.12694461E+03</pdfrwt>
<totfact> 0.21022847E+03</totfact>
</mgrwt>
</event>
<event>
 6    4  0.1195577E-003  0.1276279E+03  0.7818608E-02  0.1231018E+00
          4   -1    0    0  502    0  0.00000000000E+00  0.00000000000E+00  0.17592022362E+03  0.17592480774E+03  0.12700000000E+01 0.  1.
         -4   -1    0    0    0  501 -0.00000000000E+00 -0.00000000000E+00 -0.54944011289E+02  0.54958686998E+02  0.12700000000E+01 0.  1.
         25    2    1    2    0    0  0.11063882248E+02  0.23345015694E+02  0.23158728298E+02  0.12971205890E+03  0.12498596833E+03 0.  0.
    9000005    1    3    3    0    0  0.45657030633E+02  0.10266177770E+02  0.60934426428E+02  0.76837251228E+02  0.10000000000E+01 0.  0.
    9000005    1    3    3    0    0 -0.34593148385E+02  0.13078837924E+02 -0.37775698129E+02  0.52874807667E+02  0.10000000000E+01 0.  0.
         21    1    1    2  502  501 -0.11063882248E+02 -0.23345015694E+02  0.97817484030E+02  0.10117143584E+03  0.00000000000E+00 0.  1.
<mgrwt>
<rscale>  1 0.12762794E+03</rscale>
<asrwt>0</asrwt>
<pdfrwt beam="1">  1        4 0.27066131E-01 0.12762794E+03</pdfrwt>
<pdfrwt beam="2">  1       -4 0.84544064E-02 0.12762794E+03</pdfrwt>
<totfact> 0.21064836E+03</totfact>
</mgrwt>
</event>
<event>
 6    4  0.1195577E-003  0.1300731E+03  0.7818608E-02  0.1227347E+00
          4   -1    0    0  502    0  0.00000000000E+00  0.00000000000E+00  0.43354693210E+02  0.43373290437E+02  0.12700000000E+01 0.  1.
         -4   -1    0    0    0  501 -0.00000000000E+00 -0.00000000000E+00 -0.30401822180E+03  0.30402087443E+03  0.12700000000E+01 0.  1.
         25    2    1    2    0    0 -0.35946584032E+02  0.18636662285E+01 -0.27838462112E+03  0.30727350590E+03  0.12499351980E+03 0.  0.
    9000005    1    3    3    0    0 -0.14518609125E+02  0.29113587584E+02 -0.65062590111E+01  0.33192203892E+02  0.10000000000E+01 0.  0.
    9000005    1    3    3    0    0 -0.21427974907E+02 -0.27249921355E+02 -0.27187836211E+03  0.27408130200E+03  0.10000000000E+01 0.  0.
         21    1    1    2  502  501  0.35946584032E+02 -0.18636662285E+01  0.17721092534E+02  0.40120658967E+02  0.00000000000E+00 0.  1.
<mgrwt>
<rscale>  1 0.13007310E+03</rscale>
<asrwt>0</asrwt>
<pdfrwt beam="1">  1        4 0.66715876E-02 0.13007310E+03</pdfrwt>
<pdfrwt beam="2">  1       -4 0.46773667E-01 0.13007310E+03</pdfrwt>
<totfact> 0.10848112E+03</totfact>
</mgrwt>
</event>
<event>
 6    4  0.1195577E-003  0.1321134E+03  0.7818608E-02  0.1224353E+00
          4   -1    0    0  502    0  0.00000000000E+00  0.00000000000E+00  0.21563773680E+04  0.21563777420E+04  0.12700000000E+01 0.  1.
         -4   -1    0    0    0  501 -0.00000000000E+00 -0.00000000000E+00 -0.85472469407E+01  0.86410838595E+01  0.12700000000E+01 0.  1.
         25    2    1    2    0    0 -0.42750618874E+02  0.10178410683E+01  0.51651207792E+03  0.53314039616E+03  0.12500121583E+03 0.  0.
    9000005    1    3    3    0    0 -0.38021640700E+02  0.18722148758E+02  0.51263269882E+03  0.51438258905E+03  0.10000000000E+01 0.  0.
    9000005    1    3    3    0    0 -0.47289781746E+01 -0.17704307689E+02  0.38793791035E+01  0.18757807110E+02  0.10000000000E+01 0.  0.
         21    1    1    2  502  501  0.42750618874E+02 -0.10178410683E+01  0.16313180431E+04  0.16318784297E+04  0.00000000000E+00 0.  1.
<mgrwt>
<rscale>  1 0.13211342E+03</rscale>
<asrwt>0</asrwt>
<pdfrwt beam="1">  1        4 0.33175803E+00 0.13211342E+03</pdfrwt>
<pdfrwt beam="2">  1       -4 0.13222064E-02 0.13211342E+03</pdfrwt>
<totfact> 0.79139101E+01</totfact>
</mgrwt>
</event>
<event>
 6    4  0.1195577E-003  0.1268250E+03  0.7818608E-02  0.1232244E+00
          4   -1    0    0  502    0  0.00000000000E+00  0.00000000000E+00  0.54053150325E+02  0.54068067841E+02  0.12700000000E+01 0.  1.
         -4   -1    0    0    0  501 -0.00000000000E+00 -0.00000000000E+00 -0.10248108471E+03  0.10248895367E+03  0.12700000000E+01 0.  1.
         25    2    1    2    0    0 -0.21481852404E+02  0.35444403334E+00 -0.36450265315E+02  0.13195905066E+03  0.12499189413E+03 0.  0.
    9000005    1    3    3    0    0 -0.15598066707E+02  0.25994353781E+02  0.40517929758E+02  0.50613325769E+02  0.10000000000E+01 0.  0.
    9000005    1    3    3    0    0 -0.58837856966E+01 -0.25639909748E+02 -0.76968195073E+02  0.81345724895E+02  0.10000000000E+01 0.  0.
         21    1    1    2  502  501  0.21481852404E+02 -0.35444403334E+00 -0.11977669073E+02  0.24597970845E+02  0.00000000000E+00 0. -1.
<mgrwt>
<rscale>  1 0.12682495E+03</rscale>
<asrwt>0</asrwt>
<pdfrwt beam="1">  1        4 0.83176221E-02 0.12682495E+03</pdfrwt>
<pdfrwt beam="2">  1       -4 0.15768073E-01 0.12682495E+03</pdfrwt>
<totfact> 0.57280863E+03</totfact>
</mgrwt>
</event>
<event>
 6    4  0.1195577E-003  0.1277533E+03  0.7818608E-02  0.1230828E+00
         -4   -1    0    0    0  501 -0.00000000000E+00  0.00000000000E+00  0.39797437095E+02  0.39817695806E+02  0.12700000000E+01 0.  1.
          4   -1    0    0  502    0  0.00000000000E+00 -0.00000000000E+00 -0.15326735440E+03  0.15327261603E+03  0.12700000000E+01 0.  1.
         25    2    1    2    0    0  0.23156861097E+01 -0.26281454441E+02 -0.81061602624E+02  0.15130064672E+03  0.12499930012E+03 0.  0.
    9000005    1    3    3    0    0  0.48477178600E+02 -0.49920588363E+02 -0.22659331292E+02  0.73188436806E+02  0.10000000000E+01 0.  0.
    9000005    1    3    3    0    0 -0.46161492490E+02  0.23639133922E+02 -0.58402271332E+02  0.78112209917E+02  0.10000000000E+01 0.  0.
         21    1    1    2  502  501 -0.23156861097E+01  0.26281454441E+02 -0.32408314681E+02  0.41789665112E+02  0.00000000000E+00 0.  1.
<mgrwt>
<rscale>  1 0.12775329E+03</rscale>
<asrwt>0</asrwt>
<pdfrwt beam="2">  1        4 0.23581556E-01 0.12775329E+03</pdfrwt>
<pdfrwt beam="1">  1       -4 0.61246458E-02 0.12775329E+03</pdfrwt>
<totfact> 0.46147460E+03</totfact>
</mgrwt>
</event>
<event>
 6    4  0.1195577E-003  0.1429121E+03  0.7818608E-02  0.1209463E+00
         -4   -1    0    0    0  501 -0.00000000000E+00  0.00000000000E+00  0.28735858607E+03  0.28736139248E+03  0.12700000000E+01 0.  1.
          4   -1    0    0  502    0  0.00000000000E+00 -0.00000000000E+00 -0.49038584012E+02  0.49055026470E+02  0.12700000000E+01 0.  1.
         25    2    1    2    0    0 -0.44164921437E+02  0.53369295868E+02  0.22395612357E+03  0.26566938345E+03  0.12500021596E+03 0.  0.
    9000005    1    3    3    0    0 -0.61337623805E+02  0.12557419909E+02  0.35296033325E+02  0.71880476190E+02  0.10000000000E+01 0.  0.
    9000005    1    3    3    0    0  0.17172702368E+02  0.40811875959E+02  0.18866009024E+03  0.19378890726E+03  0.10000000000E+01 0.  0.
         21    1    1    2  502  501  0.44164921437E+02 -0.53369295868E+02  0.14363878489E+02  0.70747035501E+02  0.00000000000E+00 0.  1.
<mgrwt>
<rscale>  1 0.14291213E+03</rscale>
<asrwt>0</asrwt>
<pdfrwt beam="2">  1        4 0.75458782E-02 0.14291213E+03</pdfrwt>
<pdfrwt beam="1">  1       -4 0.44210494E-01 0.14291213E+03</pdfrwt>
<totfact> 0.10118612E+03</totfact>
</mgrwt>
</event>
<event>
 6    4  0.1195577E-003  0.1269621E+03  0.7818608E-02  0.1232034E+00
          4   -1    0    0  502    0  0.00000000000E+00  0.00000000000E+00  0.10449965359E+02  0.10526854991E+02  0.12700000000E+01 0. -1.
         -4   -1    0    0    0  501 -0.00000000000E+00 -0.00000000000E+00 -0.55010337534E+03  0.55010484134E+03  0.12700000000E+01 0. -1.
         25    2    1    2    0    0  0.22248141700E+02  0.18346760249E+01 -0.49017182899E+03  0.50634751168E+03  0.12498413821E+03 0.  0.
    9000005    1    3    3    0    0 -0.35544472199E+02 -0.13594993306E+02 -0.37153329408E+03  0.37347854284E+03  0.10000000000E+01 0.  0.
    9000005    1    3    3    0    0  0.57792613899E+02  0.15429669331E+02 -0.11863853491E+03  0.13286896884E+03  0.10000000000E+01 0.  0.
         21    1    1    2  502  501 -0.22248141700E+02 -0.18346760249E+01 -0.49481580996E+02  0.54284184650E+02  0.00000000000E+00 0. -1.
<mgrwt>
<rscale>  1 0.12696212E+03</rscale>
<asrwt>0</asrwt>
<pdfrwt beam="1">  1        4 0.16137148E-02 0.12696212E+03</pdfrwt>
<pdfrwt beam="2">  1       -4 0.84637293E-01 0.12696212E+03</pdfrwt>
<totfact> 0.28709467E+03</totfact>
</mgrwt>
</event>
<event>
 6    4  0.1195577E-003  0.1270313E+03  0.7818608E-02  0.1231929E+00
          4   -1    0    0  502    0  0.00000000000E+00  0.00000000000E+00  0.11761389627E+03  0.11762075283E+03  0.12700000000E+01 0.  1.
         -4   -1    0    0    0  501 -0.00000000000E+00 -0.00000000000E+00 -0.57966169466E+02  0.57980080222E+02  0.12700000000E+01 0.  1.
         25    2    1    2    0    0  0.35937358068E+01 -0.22308087110E+02  0.18110888036E+02  0.12831579670E+03  0.12500549480E+03 0.  0.
    9000005    1    3    3    0    0 -0.12751264785E+02 -0.72148276548E+02  0.19543468791E+02  0.75834792377E+02  0.10000000000E+01 0.  0.
    9000005    1    3    3    0    0  0.16345000592E+02  0.49840189437E+02 -0.14325807549E+01  0.52481004326E+02  0.10000000000E+01 0.  0.
         21    1    1    2  502  501 -0.35937358068E+01  0.22308087110E+02  0.41536838769E+02  0.47285036349E+02  0.00000000000E+00 0.  1.
<mgrwt>
<rscale>  1 0.12703125E+03</rscale>
<asrwt>0</asrwt>
<pdfrwt beam="1">  1        4 0.18096043E-01 0.12703125E+03</pdfrwt>
<pdfrwt beam="2">  1       -4 0.89194697E-02 0.12703125E+03</pdfrwt>
<totfact> 0.40014991E+03</totfact>
</mgrwt>
</event>
<event>
 6    4  0.1195577E-003  0.1331286E+03  0.7818608E-02  0.1222886E+00
          4   -1    0    0  502    0  0.00000000000E+00  0.00000000000E+00  0.37361368421E+03  0.37361584272E+03  0.12700000000E+01 0.  1.
         -4   -1    0    0    0  501 -0.00000000000E+00 -0.00000000000E+00 -0.27100218207E+02  0.27129959950E+02  0.12700000000E+01 0.  1.
         25    2    1    2    0    0 -0.25679435916E+02 -0.37935488739E+02  0.15733917504E+03  0.20610395954E+03  0.12499876560E+03 0.  0.
    9000005    1    3    3    0    0 -0.67293108921E+02 -0.52442459907E+02  0.12537916447E+03  0.15165589007E+03  0.10000000000E+01 0.  0.
    9000005    1    3    3    0    0  0.41613673005E+02  0.14506971168E+02  0.31960010571E+02  0.54448069471E+02  0.10000000000E+01 0.  0.
         21    1    1    2  502  501  0.25679435916E+02  0.37935488739E+02  0.18917429097E+03  0.19464184313E+03  0.00000000000E+00 0.  1.
<mgrwt>
<rscale>  1 0.13312861E+03</rscale>
<asrwt>0</asrwt>
<pdfrwt beam="1">  1        4 0.57481487E-01 0.13312861E+03</pdfrwt>
<pdfrwt beam="2">  1       -4 0.41717179E-02 0.13312861E+03</pdfrwt>
<totfact> 0.15238793E+03</totfact>
</mgrwt>
</event>
<event>
 6    4  0.1195577E-003  0.1268423E+03  0.7818608E-02  0.1232218E+00
         -4   -1    0    0    0  501 -0.00000000000E+00  0.00000000000E+00  0.50447058592E+02  0.50463042126E+02  0.12700000000E+01 0.  1.
          4   -1    0    0  502    0  0.00000000000E+00 -0.00000000000E+00 -0.12848785391E+03  0.12849413022E+03  0.12700000000E+01 0.  1.
         25    2    1    2    0    0  0.28107411224E+01 -0.21339488458E+02 -0.88856066316E+02  0.15486891546E+03  0.12500282565E+03 0.  0.
    9000005    1    3    3    0    0  0.88883561574E+01  0.52060401955E+02 -0.31390175718E+02  0.61446167159E+02  0.10000000000E+01 0.  0.
    9000005    1    3    3    0    0 -0.60776150350E+01 -0.73399890414E+02 -0.57465890598E+02  0.93422748297E+02  0.10000000000E+01 0.  0.
         21    1    1    2  502  501 -0.28107411224E+01  0.21339488458E+02  0.10815271000E+02  0.24088256893E+02  0.00000000000E+00 0.  1.
<mgrwt>
<rscale>  1 0.12684234E+03</rscale>
<asrwt>0</asrwt>
<pdfrwt beam="2">  1        4 0.19769074E-01 0.12684234E+03</pdfrwt>
<pdfrwt beam="1">  1       -4 0.77627983E-02 0.12684234E+03</pdfrwt>
<totfact> 0.43009858E+03</totfact>
</mgrwt>
</event>
<event>
 6    4  0.1195577E-003  0.1277510E+03  0.7818608E-02  0.1230831E+00
          4   -1    0    0  502    0  0.00000000000E+00  0.00000000000E+00  0.50688541154E+02  0.50704448566E+02  0.12700000000E+01 0. -1.
         -4   -1    0    0    0  501 -0.00000000000E+00 -0.00000000000E+00 -0.11991005319E+03  0.11991677846E+03  0.12700000000E+01 0. -1.
         25    2    1    2    0    0  0.26125854291E+02  0.35987089299E+01 -0.46958541369E+02  0.13610817397E+03  0.12499927778E+03 0.  0.
    9000005    1    3    3    0    0  0.61863740233E+01 -0.42970787659E+02 -0.68456030682E+02  0.81067798492E+02  0.10000000000E+01 0.  0.
    9000005    1    3    3    0    0  0.19939480267E+02  0.46569496589E+02  0.21497489312E+02  0.55040375477E+02  0.10000000000E+01 0.  0.
         21    1    1    2  502  501 -0.26125854291E+02 -0.35987089299E+01 -0.22262970665E+02  0.34513053056E+02  0.00000000000E+00 0. -1.
<mgrwt>
<rscale>  1 0.12775105E+03</rscale>
<asrwt>0</asrwt>
<pdfrwt beam="1">  1        4 0.77999781E-02 0.12775105E+03</pdfrwt>
<pdfrwt beam="2">  1       -4 0.18449441E-01 0.12775105E+03</pdfrwt>
<totfact> 0.48366798E+03</totfact>
</mgrwt>
</event>
<event>
 6    4  0.1195577E-003  0.1381755E+03  0.7818608E-02  0.1215805E+00
         -4   -1    0    0    0  501 -0.00000000000E+00  0.00000000000E+00  0.41577553973E+03  0.41577747935E+03  0.12700000000E+01 0. -1.
          4   -1    0    0  502    0  0.00000000000E+00 -0.00000000000E+00 -0.46662543380E+02  0.46679822779E+02  0.12700000000E+01 0. -1.
         25    2    1    2    0    0  0.19220388897E+02  0.55661918424E+02  0.37840349095E+03  0.40284198697E+03  0.12499916796E+03 0.  0.
    9000005    1    3    3    0    0  0.88250367442E+00  0.36948383571E+02  0.37451491896E+03  0.37633547054E+03  0.10000000000E+01 0.  0.
    9000005    1    3    3    0    0  0.18337885222E+02  0.18713534853E+02  0.38885719879E+01  0.26506516429E+02  0.10000000000E+01 0.  0.
         21    1    1    2  502  501 -0.19220388897E+02 -0.55661918424E+02 -0.92904946011E+01  0.59615315162E+02  0.00000000000E+00 0. -1.
<mgrwt>
<rscale>  1 0.13817548E+03</rscale>
<asrwt>0</asrwt>
<pdfrwt beam="2">  1        4 0.71803313E-02 0.13817548E+03</pdfrwt>
<pdfrwt beam="1">  1       -4 0.63966945E-01 0.13817548E+03</pdfrwt>
<totfact> 0.50964426E+02</totfact>
</mgrwt>
</event>
<event>
 6    4  0.1195577E-003  0.1271270E+03  0.7818608E-02  0.1231782E+00
          4   -1    0    0  502    0  0.00000000000E+00  0.00000000000E+00  0.79385598794E+03  0.79385700381E+03  0.12700000000E+01 0.  1.
         -4   -1    0    0    0  501 -0.00000000000E+00 -0.00000000000E+00 -0.21567822309E+02  0.21605181303E+02  0.12700000000E+01 0.  1.
         25    2    1    2    0    0 -0.17204146752E+02 -0.15577985009E+02  0.16775069968E+03  0.21047937211E+03  0.12499044987E+03 0.  0.
    9000005    1    3    3    0    0  0.36251348269E+02 -0.11222757553E+02  0.40067256406E+01  0.38172822646E+02  0.10000000000E+01 0.  0.
    9000005    1    3    3    0    0 -0.53455495021E+02 -0.43552274561E+01  0.16374397404E+03  0.17230654947E+03  0.10000000000E+01 0.  0.
         21    1    1    2  502  501  0.17204146752E+02  0.15577985009E+02  0.60453746595E+03  0.60498281300E+03  0.00000000000E+00 0.  1.
<mgrwt>
<rscale>  1 0.12712698E+03</rscale>
<asrwt>0</asrwt>
<pdfrwt beam="1">  1        4 0.12213465E+00 0.12712698E+03</pdfrwt>
<pdfrwt beam="2">  1       -4 0.33210782E-02 0.12712698E+03</pdfrwt>
<totfact> 0.40190248E+02</totfact>
</mgrwt>
</event>
<event>
 6    4  0.1195577E-003  0.1316889E+03  0.7818608E-02  0.1224971E+00
         -4   -1    0    0    0  501 -0.00000000000E+00  0.00000000000E+00  0.27753769408E+03  0.27754059980E+03  0.12700000000E+01 0. -1.
          4   -1    0    0  502    0  0.00000000000E+00 -0.00000000000E+00 -0.28909759484E+02  0.28937641463E+02  0.12700000000E+01 0. -1.
         25    2    1    2    0    0 -0.31374405246E+02 -0.27075620495E+02  0.21896406632E+03  0.25551366915E+03  0.12499812098E+03 0.  0.
    9000005    1    3    3    0    0 -0.51711905189E+01  0.16649403517E+02 -0.10551779357E+02  0.20403036452E+02  0.10000000000E+01 0.  0.
    9000005    1    3    3    0    0 -0.26203214728E+02 -0.43725024013E+02  0.22951584568E+03  0.23511063269E+03  0.10000000000E+01 0.  0.
         21    1    1    2  502  501  0.31374405246E+02  0.27075620495E+02  0.29663868272E+02  0.50964572113E+02  0.00000000000E+00 0. -1.
<mgrwt>
<rscale>  1 0.13168892E+03</rscale>
<asrwt>0</asrwt>
<pdfrwt beam="2">  1        4 0.44500238E-02 0.13168892E+03</pdfrwt>
<pdfrwt beam="1">  1       -4 0.42700473E-01 0.13168892E+03</pdfrwt>
<totfact> 0.25101622E+03</totfact>
</mgrwt>
</event>
<event>
 6    4  0.1195577E-003  0.1276024E+03  0.7818608E-02  0.1231057E+00
          4   -1    0    0  502    0  0.00000000000E+00  0.00000000000E+00  0.18626326969E+03  0.18626759926E+03  0.12700000000E+01 0. -1.
         -4   -1    0    0    0  501 -0.00000000000E+00 -0.00000000000E+00 -0.49174568368E+02  0.49190965372E+02  0.12700000000E+01 0. -1.
         25    2    1    2    0    0  0.24648326097E+02 -0.70620405581E+01  0.38049965591E+02  0.13315468606E+03  0.12499983257E+03 0.  0.
    9000005    1    3    3    0    0  0.61294591064E+02 -0.29844130666E+02  0.54169590847E+02  0.87080672950E+02  0.10000000000E+01 0.  0.
    9000005    1    3    3    0    0 -0.36646264967E+02  0.22782090108E+02 -0.16119625257E+02  0.46074013111E+02  0.10000000000E+01 0.  0.
         21    1    1    2  502  501 -0.24648326097E+02  0.70620405581E+01  0.99038735732E+02  0.10230387858E+03  0.00000000000E+00 0.  1.
<mgrwt>
<rscale>  1 0.12760239E+03</rscale>
<asrwt>0</asrwt>
<pdfrwt beam="1">  1        4 0.28657482E-01 0.12760239E+03</pdfrwt>
<pdfrwt beam="2">  1       -4 0.75669125E-02 0.12760239E+03</pdfrwt>
<totfact> 0.22742830E+03</totfact>
</mgrwt>
</event>
<event>
 6    4  0.1195577E-003  0.1301405E+03  0.7818608E-02  0.1227247E+00
          4   -1    0    0  502    0  0.00000000000E+00  0.00000000000E+00  0.18987098103E+02  0.19029524281E+02  0.12700000000E+01 0.  1.
         -4   -1    0    0    0  501 -0.00000000000E+00 -0.00000000000E+00 -0.38168189836E+03  0.38168401124E+03  0.12700000000E+01 0.  1.
         25    2    1    2    0    0 -0.27395070318E+02 -0.23689609961E+02 -0.31501176890E+03  0.34083566835E+03  0.12499940310E+03 0.  0.
    9000005    1    3    3    0    0  0.13462626791E+01 -0.69178551482E+02 -0.11988078311E+03  0.13841924204E+03  0.10000000000E+01 0.  0.
    9000005    1    3    3    0    0 -0.28741332997E+02  0.45488941521E+02 -0.19513098579E+03  0.20241642630E+03  0.10000000000E+01 0.  0.
         21    1    1    2  502  501  0.27395070318E+02  0.23689609961E+02 -0.47683031357E+02  0.59877867173E+02  0.00000000000E+00 0.  1.
<mgrwt>
<rscale>  1 0.13014046E+03</rscale>
<asrwt>0</asrwt>
<pdfrwt beam="1">  1        4 0.29245184E-02 0.13014046E+03</pdfrwt>
<pdfrwt beam="2">  1       -4 0.58723713E-01 0.13014046E+03</pdfrwt>
<totfact> 0.25383714E+03</totfact>
</mgrwt>
</event>
<event>
 6    4  0.1195577E-003  0.1277130E+03  0.7818608E-02  0.1230889E+00
          4   -1    0    0  502    0  0.00000000000E+00  0.00000000000E+00  0.74948966151E+02  0.74959725367E+02  0.12700000000E+01 0.  1.
         -4   -1    0    0    0  501 -0.00000000000E+00 -0.00000000000E+00 -0.10227511313E+03  0.10228299793E+03  0.12700000000E+01 0.  1.
         25    2    1    2    0    0 -0.20402958999E+01 -0.26105400172E+02 -0.55081650275E+02  0.13908485794E+03  0.12499981914E+03 0.  0.
    9000005    1    3    3    0    0 -0.23636939442E+02 -0.38583567596E+02  0.27401066795E+02  0.52907608679E+02  0.10000000000E+01 0.  0.
    9000005    1    3    3    0    0  0.21596643543E+02  0.12478167424E+02 -0.82482717069E+02  0.86177249258E+02  0.10000000000E+01 0.  0.
         21    1    1    2  502  501  0.20402958999E+01  0.26105400172E+02  0.27755503297E+02  0.38157865359E+02  0.00000000000E+00 0.  1.
<mgrwt>
<rscale>  1 0.12771300E+03</rscale>
<asrwt>0</asrwt>
<pdfrwt beam="1">  1        4 0.11532044E-01 0.12771300E+03</pdfrwt>
<pdfrwt beam="2">  1       -4 0.15736067E-01 0.12771300E+03</pdfrwt>
<totfact> 0.33257580E+03</totfact>
</mgrwt>
</event>
<event>
 6    4  0.1195577E-003  0.1311861E+03  0.7818608E-02  0.1225706E+00
          4   -1    0    0  502    0  0.00000000000E+00  0.00000000000E+00  0.10250989255E+02  0.10329360130E+02  0.12700000000E+01 0.  1.
         -4   -1    0    0    0  501 -0.00000000000E+00 -0.00000000000E+00 -0.71736805633E+03  0.71736918051E+03  0.12700000000E+01 0.  1.
         25    2    1    2    0    0  0.28779242424E+02  0.27514374977E+02 -0.57111085191E+03  0.58598412292E+03  0.12499800608E+03 0.  0.
    9000005    1    3    3    0    0  0.41617716846E+02  0.46259069639E+02 -0.55410074093E+03  0.55758458281E+03  0.10000000000E+01 0.  0.
    9000005    1    3    3    0    0 -0.12838474421E+02 -0.18744694662E+02 -0.17010110975E+02  0.28399540116E+02  0.10000000000E+01 0.  0.
         21    1    1    2  502  501 -0.28779242424E+02 -0.27514374977E+02 -0.13600621517E+03  0.14171441772E+03  0.00000000000E+00 0. -1.
<mgrwt>
<rscale>  1 0.13118608E+03</rscale>
<asrwt>0</asrwt>
<pdfrwt beam="1">  1        4 0.15831908E-02 0.13118608E+03</pdfrwt>
<pdfrwt beam="2">  1       -4 0.11037039E+00 0.13118608E+03</pdfrwt>
<totfact> 0.16203884E+03</totfact>
</mgrwt>
</event>
<event>
 6    4  0.1195577E-003  0.1334291E+03  0.7818608E-02  0.1222454E+00
          4   -1    0    0  502    0  0.00000000000E+00  0.00000000000E+00  0.30129960324E+03  0.30130227980E+03  0.12700000000E+01 0. -1.
         -4   -1    0    0    0  501 -0.00000000000E+00 -0.00000000000E+00 -0.34547732954E+02  0.34571068138E+02  0.12700000000E+01 0. -1.
         25    2    1    2    0    0  0.15594084765E+02  0.43989488897E+02  0.11189865662E+03  0.17413971385E+03  0.12500031989E+03 0.  0.
    9000005    1    3    3    0    0 -0.52117937583E+02  0.32176259350E+02  0.72472620523E+02  0.94894003020E+02  0.10000000000E+01 0.  0.
    9000005    1    3    3    0    0  0.67712022347E+02  0.11813229547E+02  0.39426036101E+02  0.79245710832E+02  0.10000000000E+01 0.  0.
         21    1    1    2  502  501 -0.15594084765E+02 -0.43989488897E+02  0.15485321367E+03  0.16173363409E+03  0.00000000000E+00 0. -1.
<mgrwt>
<rscale>  1 0.13342912E+03</rscale>
<asrwt>0</asrwt>
<pdfrwt beam="1">  1        4 0.46355785E-01 0.13342912E+03</pdfrwt>
<pdfrwt beam="2">  1       -4 0.53170369E-02 0.13342912E+03</pdfrwt>
<totfact> 0.16056540E+03</totfact>
</mgrwt>
</event>
<event>
 6    4  0.1195577E-003  0.1273626E+03  0.7818608E-02  0.1231423E+00
          4   -1    0    0  502    0  0.00000000000E+00  0.00000000000E+00  0.72420416372E+02  0.72431551188E+02  0.12700000000E+01 0. -1.
         -4   -1    0    0    0  501 -0.00000000000E+00 -0.00000000000E+00 -0.82136981734E+02  0.82146799501E+02  0.12700000000E+01 0. -1.
         25    2    1    2    0    0  0.36343480540E+01 -0.24147672640E+02 -0.18349583848E+02  0.12867762506E+03  0.12499962154E+03 0.  0.
    9000005    1    3    3    0    0  0.18616786548E+02 -0.43518630517E+02 -0.62364209934E+02  0.78299109983E+02  0.10000000000E+01 0.  0.
    9000005    1    3    3    0    0 -0.14982438494E+02  0.19370957877E+02  0.44014626086E+02  0.50378515082E+02  0.10000000000E+01 0.  0.
         21    1    1    2  502  501 -0.36343480540E+01  0.24147672640E+02  0.86330184866E+01  0.25900725625E+02  0.00000000000E+00 0. -1.
<mgrwt>
<rscale>  1 0.12736257E+03</rscale>
<asrwt>0</asrwt>
<pdfrwt beam="1">  1        4 0.11143214E-01 0.12736257E+03</pdfrwt>
<pdfrwt beam="2">  1       -4 0.12638070E-01 0.12736257E+03</pdfrwt>
<totfact> 0.51522011E+03</totfact>
</mgrwt>
</event>
<event>
 6    4  0.1195577E-003  0.1302770E+03  0.7818608E-02  0.1227045E+00
          4   -1    0    0  502    0  0.00000000000E+00  0.00000000000E+00  0.13954850720E+04  0.13954856499E+04  0.12700000000E+01 0. -1.
         -4   -1    0    0    0  501 -0.00000000000E+00 -0.00000000000E+00 -0.90690495229E+01  0.91575411137E+01  0.12700000000E+01 0. -1.
         25    2    1    2    0    0 -0.23049292572E+01 -0.36592455667E+02  0.47648422576E+03  0.49397300088E+03  0.12501115028E+03 0.  0.
    9000005    1    3    3    0    0  0.26783143393E+02  0.31232971726E+02  0.73075534725E+02  0.83868164808E+02  0.10000000000E+01 0.  0.
    9000005    1    3    3    0    0 -0.29088072650E+02 -0.67825427393E+02  0.40340869103E+03  0.41010483607E+03  0.10000000000E+01 0.  0.
         21    1    1    2  502  501  0.23049292572E+01  0.36592455667E+02  0.90993179669E+03  0.91067019010E+03  0.00000000000E+00 0. -1.
<mgrwt>
<rscale>  1 0.13027704E+03</rscale>
<asrwt>0</asrwt>
<pdfrwt beam="1">  1        4 0.21469674E+00 0.13027704E+03</pdfrwt>
<pdfrwt beam="2">  1       -4 0.14020907E-02 0.13027704E+03</pdfrwt>
<totfact> 0.34580142E+02</totfact>
</mgrwt>
</event>
<event>
 6    4  0.1195577E-003  0.1302828E+03  0.7818608E-02  0.1227037E+00
         -4   -1    0    0    0  501 -0.00000000000E+00  0.00000000000E+00  0.73921672468E+01  0.75004690923E+01  0.12700000000E+01 0.  1.
          4   -1    0    0  502    0  0.00000000000E+00 -0.00000000000E+00 -0.10845727979E+04  0.10845735415E+04  0.12700000000E+01 0.  1.
         25    2    1    2    0    0 -0.24413439023E+02 -0.27426231652E+02 -0.62666443968E+03  0.64006399682E+03  0.12500154351E+03 0.  0.
    9000005    1    3    3    0    0  0.45739184545E+02  0.78151535373E-01 -0.36202022227E+03  0.36489960324E+03  0.10000000000E+01 0.  0.
    9000005    1    3    3    0    0 -0.70152623568E+02 -0.27504383188E+02 -0.26464421741E+03  0.27516439358E+03  0.10000000000E+01 0.  0.
         21    1    1    2  502  501  0.24413439023E+02  0.27426231652E+02 -0.45051619096E+03  0.45201001372E+03  0.00000000000E+00 0.  1.
<mgrwt>
<rscale>  1 0.13028277E+03</rscale>
<asrwt>0</asrwt>
<pdfrwt beam="2">  1        4 0.16686562E+00 0.13028277E+03</pdfrwt>
<pdfrwt beam="1">  1       -4 0.11456455E-02 0.13028277E+03</pdfrwt>
<totfact> 0.94809864E+02</totfact>
</mgrwt>
</event>
<event>
 6    4  0.1195577E-003  0.1266571E+03  0.7818608E-02  0.1232502E+00
          4   -1    0    0  502    0  0.00000000000E+00  0.00000000000E+00  0.90071396599E+02  0.90080349607E+02  0.12700000000E+01 0.  1.
         -4   -1    0    0    0  501 -0.00000000000E+00 -0.00000000000E+00 -0.60319565136E+02  0.60332933281E+02  0.12700000000E+01 0.  1.
         25    2    1    2    0    0 -0.16379988865E+02  0.12199179272E+02  0.21922043494E+02  0.12854024950E+03  0.12499958296E+03 0.  0.
    9000005    1    3    3    0    0  0.29077693948E+02  0.42518308592E+02  0.45768829494E+02  0.68913747570E+02  0.10000000000E+01 0.  0.
    9000005    1    3    3    0    0 -0.45457682813E+02 -0.30319129319E+02 -0.23846786000E+02  0.59626501926E+02  0.10000000000E+01 0.  0.
         21    1    1    2  502  501  0.16379988865E+02 -0.12199179272E+02  0.78297879685E+01  0.21873033392E+02  0.00000000000E+00 0.  1.
<mgrwt>
<rscale>  1 0.12665710E+03</rscale>
<asrwt>0</asrwt>
<pdfrwt beam="1">  1        4 0.13858855E-01 0.12665710E+03</pdfrwt>
<pdfrwt beam="2">  1       -4 0.92816501E-02 0.12665710E+03</pdfrwt>
<totfact> 0.59720846E+03</totfact>
</mgrwt>
</event>
<event>
 6    4  0.1195577E-003  0.1267237E+03  0.7818608E-02  0.1232400E+00
          4   -1    0    0  502    0  0.00000000000E+00  0.00000000000E+00  0.60787526670E+03  0.60787659336E+03  0.12700000000E+01 0. -1.
         -4   -1    0    0    0  501 -0.00000000000E+00 -0.00000000000E+00 -0.95460738998E+01  0.96301831187E+01  0.12700000000E+01 0. -1.
         25    2    1    2    0    0  0.79004229397E+00  0.20713371431E+02  0.44193806640E+03  0.45974793413E+03  0.12501696080E+03 0.  0.
    9000005    1    3    3    0    0  0.27273759515E+02 -0.42120713897E+02  0.11046000670E+03  0.12132776095E+03  0.10000000000E+01 0.  0.
    9000005    1    3    3    0    0 -0.26483717221E+02  0.62834085328E+02  0.33147805970E+03  0.33842017318E+03  0.10000000000E+01 0.  0.
         21    1    1    2  502  501 -0.79004229397E+00 -0.20713371431E+02  0.15639112640E+03  0.15775884235E+03  0.00000000000E+00 0. -1.
<mgrwt>
<rscale>  1 0.12672375E+03</rscale>
<asrwt>0</asrwt>
<pdfrwt beam="1">  1        4 0.93525816E-01 0.12672375E+03</pdfrwt>
<pdfrwt beam="2">  1       -4 0.14751992E-02 0.12672375E+03</pdfrwt>
<totfact> 0.26278548E+03</totfact>
</mgrwt>
</event>
<event>
 6    4  0.1195577E-003  0.1267972E+03  0.7818608E-02  0.1232287E+00
         -4   -1    0    0    0  501 -0.00000000000E+00  0.00000000000E+00  0.84364870875E+03  0.84364966465E+03  0.12700000000E+01 0.  1.
          4   -1    0    0  502    0  0.00000000000E+00 -0.00000000000E+00 -0.10741596471E+02  0.10816413210E+02  0.12700000000E+01 0.  1.
         25    2    1    2    0    0 -0.21244147766E+02 -0.95843344943E+00  0.81966504034E+03  0.82941443364E+03  0.12500116789E+03 0.  0.
    9000005    1    3    3    0    0 -0.42131059503E+02 -0.12814934011E+02  0.79002491788E+03  0.79125193180E+03  0.10000000000E+01 0.  0.
    9000005    1    3    3    0    0  0.20886911737E+02  0.11856500562E+02  0.29640122455E+02  0.38162501839E+02  0.10000000000E+01 0.  0.
         21    1    1    2  502  501  0.21244147766E+02  0.95843344943E+00  0.13242071940E+02  0.25051644223E+02  0.00000000000E+00 0.  1.
<mgrwt>
<rscale>  1 0.12679718E+03</rscale>
<asrwt>0</asrwt>
<pdfrwt beam="2">  1        4 0.16583818E-02 0.12679718E+03</pdfrwt>
<pdfrwt beam="1">  1       -4 0.12979795E+00 0.12679718E+03</pdfrwt>
<totfact> 0.10156979E+03</totfact>
</mgrwt>
</event>
<event>
 6    4  0.1195577E-003  0.1272610E+03  0.7818608E-02  0.1231577E+00
          4   -1    0    0  502    0  0.00000000000E+00  0.00000000000E+00  0.12787874317E+03  0.12788504938E+03  0.12700000000E+01 0.  1.
         -4   -1    0    0    0  501 -0.00000000000E+00 -0.00000000000E+00 -0.61746646923E+02  0.61759706170E+02  0.12700000000E+01 0.  1.
         25    2    1    2    0    0  0.13545566998E+02 -0.19650096057E+02  0.88252105188E+01  0.12756667720E+03  0.12500305648E+03 0.  0.
    9000005    1    3    3    0    0 -0.37905696641E+02  0.35164759866E+02  0.83172624672E+01  0.52379185076E+02  0.10000000000E+01 0.  0.
    9000005    1    3    3    0    0  0.51451263639E+02 -0.54814855923E+02  0.50794805155E+00  0.75187492119E+02  0.10000000000E+01 0.  0.
         21    1    1    2  502  501 -0.13545566998E+02  0.19650096057E+02  0.57306885732E+02  0.62078078358E+02  0.00000000000E+00 0. -1.
<mgrwt>
<rscale>  1 0.12726104E+03</rscale>
<asrwt>0</asrwt>
<pdfrwt beam="1">  1        4 0.19675142E-01 0.12726104E+03</pdfrwt>
<pdfrwt beam="2">  1       -4 0.95009739E-02 0.12726104E+03</pdfrwt>
<totfact> 0.31024159E+03</totfact>
</mgrwt>
</event>
<event>
 6    4  0.1195577E-003  0.1269374E+03  0.7818608E-02  0.1232072E+00
         -4   -1    0    0    0  501 -0.00000000000E+00  0.00000000000E+00  0.89583743321E+02  0.89592745060E+02  0.12700000000E+01 0.  1.
          4   -1    0    0  502    0  0.00000000000E+00 -0.00000000000E+00 -0.71221133305E+02  0.71232455589E+02  0.12700000000E+01 0.  1.
         25    2    1    2    0    0  0.20564220463E+02  0.80328089051E+01  0.36688242901E+02  0.13213300654E+03  0.12500276424E+03 0.  0.
    9000005    1    3    3    0    0  0.37273673620E+02 -0.35631485266E+02  0.60629115122E+02  0.79597858563E+02  0.10000000000E+01 0.  0.
    9000005    1    3    3    0    0 -0.16709453156E+02  0.43664294171E+02 -0.23940872222E+02  0.52535147977E+02  0.10000000000E+01 0.  0.
         21    1    1    2  502  501 -0.20564220463E+02 -0.80328089051E+01 -0.18325632885E+02  0.28692194109E+02  0.00000000000E+00 0.  1.
<mgrwt>
<rscale>  1 0.12693740E+03</rscale>
<asrwt>0</asrwt>
<pdfrwt beam="2">  1        4 0.10958661E-01 0.12693740E+03</pdfrwt>
<pdfrwt beam="1">  1       -4 0.13783678E-01 0.12693740E+03</pdfrwt>
<totfact> 0.45604234E+03</totfact>
</mgrwt>
</event>
<event>
 6    4  0.1195577E-003  0.1303011E+03  0.7818608E-02  0.1227010E+00
          4   -1    0    0  502    0  0.00000000000E+00  0.00000000000E+00  0.13026647673E+04  0.13026653864E+04  0.12700000000E+01 0. -1.
         -4   -1    0    0    0  501 -0.00000000000E+00 -0.00000000000E+00 -0.55806129077E+01  0.57232980374E+01  0.12700000000E+01 0. -1.
         25    2    1    2    0    0 -0.59002026906E+00  0.36783267120E+02  0.86736836344E+03  0.87710105666E+03  0.12500011530E+03 0.  0.
    9000005    1    3    3    0    0 -0.16094097571E+02  0.80867699850E+02  0.60623309772E+03  0.61181547351E+03  0.10000000000E+01 0.  0.
    9000005    1    3    3    0    0  0.15504077302E+02 -0.44084432730E+02  0.26113526572E+03  0.26528558314E+03  0.10000000000E+01 0.  0.
         21    1    1    2  502  501  0.59002026906E+00 -0.36783267120E+02  0.42971579098E+03  0.43128762779E+03  0.00000000000E+00 0. -1.
<mgrwt>
<rscale>  1 0.13030113E+03</rscale>
<asrwt>0</asrwt>
<pdfrwt beam="1">  1        4 0.20042088E+00 0.13030113E+03</pdfrwt>
<pdfrwt beam="2">  1       -4 0.86957970E-03 0.13030113E+03</pdfrwt>
<totfact> 0.86876595E+02</totfact>
</mgrwt>
</event>
<event>
 6    4  0.1195577E-003  0.1387811E+03  0.7818608E-02  0.1214979E+00
          4   -1    0    0  502    0  0.00000000000E+00  0.00000000000E+00  0.42146337729E+03  0.42146529074E+03  0.12700000000E+01 0. -1.
         -4   -1    0    0    0  501 -0.00000000000E+00 -0.00000000000E+00 -0.41495418196E+02  0.41514848322E+02  0.12700000000E+01 0. -1.
         25    2    1    2    0    0  0.22241198704E+02  0.56038155409E+02  0.86829229446E+02  0.16370558184E+03  0.12500102662E+03 0.  0.
    9000005    1    3    3    0    0 -0.28777564463E+02  0.61821066057E+02  0.89214247443E+02  0.11229503271E+03  0.10000000000E+01 0.  0.
    9000005    1    3    3    0    0  0.51018763167E+02 -0.57829106473E+01 -0.23850179965E+01  0.51410549126E+02  0.10000000000E+01 0.  0.
         21    1    1    2  502  501 -0.22241198704E+02 -0.56038155409E+02  0.29313872965E+03  0.29927455723E+03  0.00000000000E+00 0. -1.
<mgrwt>
<rscale>  1 0.13878113E+03</rscale>
<asrwt>0</asrwt>
<pdfrwt beam="1">  1        4 0.64842161E-01 0.13878113E+03</pdfrwt>
<pdfrwt beam="2">  1       -4 0.63855523E-02 0.13878113E+03</pdfrwt>
<totfact> 0.60057524E+02</totfact>
</mgrwt>
</event>
<event>
 6    4  0.1195577E-003  0.1267307E+03  0.7818608E-02  0.1232389E+00
         -4   -1    0    0    0  501 -0.00000000000E+00  0.00000000000E+00  0.61741514942E+03  0.61741645559E+03  0.12700000000E+01 0. -1.
          4   -1    0    0  502    0  0.00000000000E+00 -0.00000000000E+00 -0.89165103560E+01  0.90065008149E+01  0.12700000000E+01 0. -1.
         25    2    1    2    0    0 -0.12639736507E+02  0.16644484971E+02  0.54629902119E+03  0.56080592902E+03  0.12499547054E+03 0.  0.
    9000005    1    3    3    0    0 -0.31906187832E+02 -0.48147795119E+02  0.21135514800E+03  0.21910776705E+03  0.10000000000E+01 0.  0.
    9000005    1    3    3    0    0  0.19266451325E+02  0.64792280089E+02  0.33494387319E+03  0.34169816196E+03  0.10000000000E+01 0.  0.
         21    1    1    2  502  501  0.12639736507E+02 -0.16644484971E+02  0.62199617881E+02  0.65617027389E+02  0.00000000000E+00 0.  1.
<mgrwt>
<rscale>  1 0.12673070E+03</rscale>
<asrwt>0</asrwt>
<pdfrwt beam="2">  1        4 0.13787935E-02 0.12673070E+03</pdfrwt>
<pdfrwt beam="1">  1       -4 0.94993982E-01 0.12673070E+03</pdfrwt>
<totfact> 0.28107521E+03</totfact>
</mgrwt>
</event>
<event>
 6    4  0.1195577E-003  0.1270742E+03  0.7818608E-02  0.1231863E+00
          4   -1    0    0  502    0  0.00000000000E+00  0.00000000000E+00  0.11510806405E+03  0.11511506986E+03  0.12700000000E+01 0. -1.
         -4   -1    0    0    0  501 -0.00000000000E+00 -0.00000000000E+00 -0.49293929901E+02  0.49310287213E+02  0.12700000000E+01 0. -1.
         25    2    1    2    0    0 -0.44170643455E+01 -0.22351753813E+02  0.49373461355E+02  0.13632896802E+03  0.12501494903E+03 0.  0.
    9000005    1    3    3    0    0 -0.53429976595E+02  0.91853317802E+01  0.55652949807E+02  0.77700601935E+02  0.10000000000E+01 0.  0.
    9000005    1    3    3    0    0  0.49012912249E+02 -0.31537085593E+02 -0.62794884517E+01  0.58628366087E+02  0.10000000000E+01 0.  0.
         21    1    1    2  502  501  0.44170643455E+01  0.22351753813E+02  0.16440672796E+02  0.28096389055E+02  0.00000000000E+00 0. -1.
<mgrwt>
<rscale>  1 0.12707419E+03</rscale>
<asrwt>0</asrwt>
<pdfrwt beam="1">  1        4 0.17710730E-01 0.12707419E+03</pdfrwt>
<pdfrwt beam="2">  1       -4 0.75854787E-02 0.12707419E+03</pdfrwt>
<totfact> 0.54384305E+03</totfact>
</mgrwt>
</event>
<event>
 6    4  0.1195577E-003  0.1277237E+03  0.7818608E-02  0.1230873E+00
          4   -1    0    0  502    0  0.00000000000E+00  0.00000000000E+00  0.39214974655E+02  0.39235534114E+02  0.12700000000E+01 0. -1.
         -4   -1    0    0    0  501 -0.00000000000E+00 -0.00000000000E+00 -0.16721551066E+03  0.16722033341E+03  0.12700000000E+01 0. -1.
         25    2    1    2    0    0 -0.26217186011E+02 -0.10328885381E+01 -0.12712201049E+03  0.18020363889E+03  0.12499975287E+03 0.  0.
    9000005    1    3    3    0    0 -0.64500006122E+02 -0.21203485986E+02 -0.30716448338E+02  0.74527436600E+02  0.10000000000E+01 0.  0.
    9000005    1    3    3    0    0  0.38282820111E+02  0.20170597448E+02 -0.96405562151E+02  0.10567620229E+03  0.10000000000E+01 0.  0.
         21    1    1    2  502  501  0.26217186011E+02  0.10328885381E+01 -0.87852551627E+00  0.26252228632E+02  0.00000000000E+00 0. -1.
<mgrwt>
<rscale>  1 0.12772371E+03</rscale>
<asrwt>0</asrwt>
<pdfrwt beam="1">  1        4 0.60350256E-02 0.12772371E+03</pdfrwt>
<pdfrwt beam="2">  1       -4 0.25727415E-01 0.12772371E+03</pdfrwt>
<totfact> 0.40263145E+03</totfact>
</mgrwt>
</event>
<event>
 6    4  0.1195577E-003  0.1266269E+03  0.7818608E-02  0.1232548E+00
         -4   -1    0    0    0  501 -0.00000000000E+00  0.00000000000E+00  0.84195686755E+02  0.84205264492E+02  0.12700000000E+01 0.  1.
          4   -1    0    0  502    0  0.00000000000E+00 -0.00000000000E+00 -0.66195042185E+02  0.66207224001E+02  0.12700000000E+01 0.  1.
         25    2    1    2    0    0 -0.20154917905E+02 -0.18882162120E+01  0.24849431055E+02  0.12904213631E+03  0.12499837056E+03 0.  0.
    9000005    1    3    3    0    0  0.44746662610E+02 -0.29341510104E+02 -0.21748202910E+01  0.53562280321E+02  0.10000000000E+01 0.  0.
    9000005    1    3    3    0    0 -0.64901580515E+02  0.27453293892E+02  0.27024251346E+02  0.75479855986E+02  0.10000000000E+01 0.  0.
         21    1    1    2  502  501  0.20154917905E+02  0.18882162120E+01 -0.68487864851E+01  0.21370352186E+02  0.00000000000E+00 0.  1.
<mgrwt>
<rscale>  1 0.12662693E+03</rscale>
<asrwt>0</asrwt>
<pdfrwt beam="2">  1        4 0.10185526E-01 0.12662693E+03</pdfrwt>
<pdfrwt beam="1">  1       -4 0.12954856E-01 0.12662693E+03</pdfrwt>
<totfact> 0.57396443E+03</totfact>
</mgrwt>
</event>
<event>
 6    4  0.1195577E-003  0.1301962E+03  0.7818608E-02  0.1227165E+00
         -4   -1    0    0    0  501 -0.00000000000E+00  0.00000000000E+00  0.21977917359E+03  0.21978284293E+03  0.12700000000E+01 0.  1.
          4   -1    0    0  502    0  0.00000000000E+00 -0.00000000000E+00 -0.37197299425E+02  0.37218973448E+02  0.12700000000E+01 0.  1.
         25    2    1    2    0    0  0.68563119782E+01 -0.35753384530E+02  0.17766969814E+03  0.22026705093E+03  0.12500295424E+03 0.  0.
    9000005    1    3    3    0    0  0.28661830476E+02 -0.20611219640E+02 -0.50053253891E+01  0.35670382442E+02  0.10000000000E+01 0.  0.
    9000005    1    3    3    0    0 -0.21805518498E+02 -0.15142164890E+02  0.18267502353E+03  0.18459666848E+03  0.10000000000E+01 0.  0.
         21    1    1    2  502  501 -0.68563119782E+01  0.35753384530E+02  0.49121760287E+01  0.36734765450E+02  0.00000000000E+00 0. -1.
<mgrwt>
<rscale>  1 0.13019621E+03</rscale>
<asrwt>0</asrwt>
<pdfrwt beam="2">  1        4 0.57246109E-02 0.13019621E+03</pdfrwt>
<pdfrwt beam="1">  1       -4 0.33814130E-01 0.13019621E+03</pdfrwt>
<totfact> 0.26331726E+03</totfact>
</mgrwt>
</event>
<event>
 6    4  0.1195577E-003  0.1272094E+03  0.7818608E-02  0.1231656E+00
         -4   -1    0    0    0  501 -0.00000000000E+00  0.00000000000E+00  0.16416927373E+02  0.16465977176E+02  0.12700000000E+01 0. -1.
          4   -1    0    0  502    0  0.00000000000E+00 -0.00000000000E+00 -0.88716063567E+03  0.88716154469E+03  0.12700000000E+01 0. -1.
         25    2    1    2    0    0 -0.18805666686E+02  0.14245817283E+02 -0.23313642286E+03  0.26558391298E+03  0.12500250700E+03 0.  0.
    9000005    1    3    3    0    0  0.22291520190E+02  0.48288901446E+02 -0.18894035854E+03  0.19628598768E+03  0.10000000000E+01 0.  0.
    9000005    1    3    3    0    0 -0.41097186876E+02 -0.34043084163E+02 -0.44196064324E+02  0.69297925295E+02  0.10000000000E+01 0.  0.
         21    1    1    2  502  501  0.18805666686E+02 -0.14245817283E+02 -0.63760728543E+03  0.63804360889E+03  0.00000000000E+00 0. -1.
<mgrwt>
<rscale>  1 0.12720937E+03</rscale>
<asrwt>0</asrwt>
<pdfrwt beam="2">  1        4 0.13649006E+00 0.12720937E+03</pdfrwt>
<pdfrwt beam="1">  1       -4 0.25295248E-02 0.12720937E+03</pdfrwt>
<totfact> 0.46894509E+02</totfact>
</mgrwt>
</event>
<event>
 6    4  0.1195577E-003  0.1277998E+03  0.7818608E-02  0.1230757E+00
          4   -1    0    0  502    0  0.00000000000E+00  0.00000000000E+00  0.53780266813E+03  0.53780416765E+03  0.12700000000E+01 0.  1.
         -4   -1    0    0    0  501 -0.00000000000E+00 -0.00000000000E+00 -0.18368606825E+02  0.18412458192E+02  0.12700000000E+01 0.  1.
         25    2    1    2    0    0 -0.25350106306E+02  0.80635821181E+01  0.21134157021E+03  0.24697783088E+03  0.12500056160E+03 0.  0.
    9000005    1    3    3    0    0 -0.75607311391E+02 -0.79104853237E+00  0.10965593347E+03  0.13320103242E+03  0.10000000000E+01 0.  0.
    9000005    1    3    3    0    0  0.50257205085E+02  0.88546306505E+01  0.10168563674E+03  0.11377679846E+03  0.10000000000E+01 0.  0.
         21    1    1    2  502  501  0.25350106306E+02 -0.80635821181E+01  0.30809249109E+03  0.30923879497E+03  0.00000000000E+00 0.  1.
<mgrwt>
<rscale>  1 0.12779980E+03</rscale>
<asrwt>0</asrwt>
<pdfrwt beam="1">  1        4 0.82742344E-01 0.12779980E+03</pdfrwt>
<pdfrwt beam="2">  1       -4 0.28294286E-02 0.12779980E+03</pdfrwt>
<totfact> 0.12715939E+03</totfact>
</mgrwt>
</event>
<event>
 6    4  0.1195577E-003  0.1362285E+03  0.7818608E-02  0.1218496E+00
          4   -1    0    0  502    0  0.00000000000E+00  0.00000000000E+00  0.10872143117E+03  0.10872884850E+03  0.12700000000E+01 0. -1.
         -4   -1    0    0    0  501 -0.00000000000E+00 -0.00000000000E+00 -0.98473634743E+02  0.98481823904E+02  0.12700000000E+01 0. -1.
         25    2    1    2    0    0 -0.49702324513E+02  0.21554572666E+02 -0.30281089105E+02  0.13955336513E+03  0.12499310660E+03 0.  0.
    9000005    1    3    3    0    0 -0.65318908307E+02 -0.36056855981E+02 -0.28357298961E+02  0.79823511887E+02  0.10000000000E+01 0.  0.
    9000005    1    3    3    0    0  0.15616583794E+02  0.57611428647E+02 -0.19237901436E+01  0.59729853245E+02  0.10000000000E+01 0.  0.
         21    1    1    2  502  501  0.49702324513E+02 -0.21554572666E+02  0.40528885536E+02  0.67657307274E+02  0.00000000000E+00 0. -1.
<mgrwt>
<rscale>  1 0.13622847E+03</rscale>
<asrwt>0</asrwt>
<pdfrwt beam="1">  1        4 0.16727574E-01 0.13622847E+03</pdfrwt>
<pdfrwt beam="2">  1       -4 0.15150991E-01 0.13622847E+03</pdfrwt>
<totfact> 0.18936682E+03</totfact>
</mgrwt>
</event>
<event>
 6    4  0.1195577E-003  0.1351567E+03  0.7818608E-02  0.1219999E+00
         -4   -1    0    0    0  501 -0.00000000000E+00  0.00000000000E+00  0.33106090349E+02  0.33130440959E+02  0.12700000000E+01 0.  1.
          4   -1    0    0  502    0  0.00000000000E+00 -0.00000000000E+00 -0.26589272831E+03  0.26589576128E+03  0.12700000000E+01 0.  1.
         25    2    1    2    0    0  0.45002372910E+02 -0.24795975782E+02 -0.15323567192E+03  0.20432451176E+03  0.12500912356E+03 0.  0.
    9000005    1    3    3    0    0 -0.43166156901E+02 -0.44238535122E+01 -0.37145537702E+02  0.57128614133E+02  0.10000000000E+01 0.  0.
    9000005    1    3    3    0    0  0.88168529811E+02 -0.20372122269E+02 -0.11609013422E+03  0.14719589762E+03  0.10000000000E+01 0.  0.
         21    1    1    2  502  501 -0.45002372910E+02  0.24795975782E+02 -0.79550966037E+02  0.94701690481E+02  0.00000000000E+00 0.  1.
<mgrwt>
<rscale>  1 0.13515671E+03</rscale>
<asrwt>0</asrwt>
<pdfrwt beam="2">  1        4 0.40908679E-01 0.13515671E+03</pdfrwt>
<pdfrwt beam="1">  1       -4 0.50953513E-02 0.13515671E+03</pdfrwt>
<totfact> 0.22124093E+03</totfact>
</mgrwt>
</event>
<event>
 6    4  0.1195577E-003  0.1268422E+03  0.7818608E-02  0.1232218E+00
          4   -1    0    0  502    0  0.00000000000E+00  0.00000000000E+00  0.36729902284E+02  0.36751851950E+02  0.12700000000E+01 0.  1.
         -4   -1    0    0    0  501 -0.00000000000E+00 -0.00000000000E+00 -0.15468284180E+03  0.15468805528E+03  0.12700000000E+01 0.  1.
         25    2    1    2    0    0  0.12987214990E+01  0.21500646472E+02 -0.11169085707E+03  0.16900827437E+03  0.12499993910E+03 0.  0.
    9000005    1    3    3    0    0  0.30626765076E+02 -0.17929202284E+02 -0.11440003577E+03  0.11978239945E+03  0.10000000000E+01 0.  0.
    9000005    1    3    3    0    0 -0.29328043577E+02  0.39429848756E+02  0.27091786930E+01  0.49225874925E+02  0.10000000000E+01 0.  0.
         21    1    1    2  502  501 -0.12987214990E+01 -0.21500646472E+02 -0.62620824392E+01  0.22431632859E+02  0.00000000000E+00 0.  1.
<mgrwt>
<rscale>  1 0.12684222E+03</rscale>
<asrwt>0</asrwt>
<pdfrwt beam="1">  1        4 0.56528438E-02 0.12684222E+03</pdfrwt>
<pdfrwt beam="2">  1       -4 0.23799449E-01 0.12684222E+03</pdfrwt>
<totfact> 0.51579745E+03</totfact>
</mgrwt>
</event>
<event>
 6    4  0.1195577E-003  0.1269190E+03  0.7818608E-02  0.1232100E+00
         -4   -1    0    0    0  501 -0.00000000000E+00  0.00000000000E+00  0.22274152607E+03  0.22274514660E+03  0.12700000000E+01 0. -1.
          4   -1    0    0  502    0  0.00000000000E+00 -0.00000000000E+00 -0.27518404237E+02  0.27547694491E+02  0.12700000000E+01 0. -1.
         25    2    1    2    0    0  0.18638997366E+02 -0.11714360380E+02  0.18855335827E+03  0.22729014108E+03  0.12499520333E+03 0.  0.
    9000005    1    3    3    0    0 -0.28262544033E+02  0.25589372221E+01  0.17376975767E+03  0.17607455306E+03  0.10000000000E+01 0.  0.
    9000005    1    3    3    0    0  0.46901541399E+02 -0.14273297602E+02  0.14783600609E+02  0.51215588027E+02  0.10000000000E+01 0.  0.
         21    1    1    2  502  501 -0.18638997366E+02  0.11714360380E+02  0.66697635585E+01  0.23002700012E+02  0.00000000000E+00 0. -1.
<mgrwt>
<rscale>  1 0.12691903E+03</rscale>
<asrwt>0</asrwt>
<pdfrwt beam="2">  1        4 0.42361323E-02 0.12691903E+03</pdfrwt>
<pdfrwt beam="1">  1       -4 0.34270458E-01 0.12691903E+03</pdfrwt>
<totfact> 0.41348606E+03</totfact>
</mgrwt>
</event>
<event>
 6    4  0.1195577E-003  0.1268781E+03  0.7818608E-02  0.1232163E+00
          4   -1    0    0  502    0  0.00000000000E+00  0.00000000000E+00  0.42964192634E+02  0.42982958817E+02  0.12700000000E+01 0.  1.
         -4   -1    0    0    0  501 -0.00000000000E+00 -0.00000000000E+00 -0.12925593697E+03  0.12926217599E+03  0.12700000000E+01 0.  1.
         25    2    1    2    0    0  0.19226622612E+02  0.10504160768E+02 -0.77241293024E+02  0.14854047114E+03  0.12497221215E+03 0.  0.
    9000005    1    3    3    0    0  0.40343838225E+02 -0.28165000761E+02 -0.90072333142E+02  0.10263974741E+03  0.10000000000E+01 0.  0.
    9000005    1    3    3    0    0 -0.21117215614E+02  0.38669161529E+02  0.12831040118E+02  0.45900723732E+02  0.10000000000E+01 0.  0.
         21    1    1    2  502  501 -0.19226622612E+02 -0.10504160768E+02 -0.90504513081E+01  0.23704663663E+02  0.00000000000E+00 0.  1.
<mgrwt>
<rscale>  1 0.12687811E+03</rscale>
<asrwt>0</asrwt>
<pdfrwt beam="1">  1        4 0.66117993E-02 0.12687811E+03</pdfrwt>
<pdfrwt beam="2">  1       -4 0.19887452E-01 0.12687811E+03</pdfrwt>
<totfact> 0.55383198E+03</totfact>
</mgrwt>
</event>
<event>
 6    4  0.1195577E-003  0.1289454E+03  0.7818608E-02  0.1229029E+00
         -4   -1    0    0    0  501 -0.00000000000E+00  0.00000000000E+00  0.36109680348E+03  0.36109903680E+03  0.12700000000E+01 0.  1.
          4   -1    0    0  502    0  0.00000000000E+00 -0.00000000000E+00 -0.31901025487E+02  0.31926295230E+02  0.12700000000E+01 0.  1.
         25    2    1    2    0    0 -0.21665679863E+01  0.31579343834E+02  0.33665520566E+03  0.36050469190E+03  0.12499982561E+03 0.  0.
    9000005    1    3    3    0    0  0.33159699681E+02  0.29841078892E+02  0.34811340233E+02  0.56594037505E+02  0.10000000000E+01 0.  0.
    9000005    1    3    3    0    0 -0.35326267667E+02  0.17382649422E+01  0.30184386543E+03  0.30391065439E+03  0.10000000000E+01 0.  0.
         21    1    1    2  502  501  0.21665679863E+01 -0.31579343834E+02 -0.74594276744E+01  0.32520640140E+02  0.00000000000E+00 0.  1.
<mgrwt>
<rscale>  1 0.12894536E+03</rscale>
<asrwt>0</asrwt>
<pdfrwt beam="2">  1        4 0.49099655E-02 0.12894536E+03</pdfrwt>
<pdfrwt beam="1">  1       -4 0.55555472E-01 0.12894536E+03</pdfrwt>
<totfact> 0.12518400E+03</totfact>
</mgrwt>
</event>
<event>
 6    4  0.1195577E-003  0.1387966E+03  0.7818608E-02  0.1214957E+00
          4   -1    0    0  502    0  0.00000000000E+00  0.00000000000E+00  0.84687162675E+02  0.84696684835E+02  0.12700000000E+01 0. -1.
         -4   -1    0    0    0  501 -0.00000000000E+00 -0.00000000000E+00 -0.37218550999E+03  0.37218767678E+03  0.12700000000E+01 0. -1.
         25    2    1    2    0    0  0.29066815302E+02  0.52864098539E+02 -0.34602965159E+03  0.37282839071E+03  0.12499998588E+03 0.  0.
    9000005    1    3    3    0    0  0.31789068080E+02  0.19689791169E+02 -0.33596337601E+03  0.33803938046E+03  0.10000000000E+01 0.  0.
    9000005    1    3    3    0    0 -0.27222527772E+01  0.33174307370E+02 -0.10066275583E+02  0.34789010244E+02  0.10000000000E+01 0.  0.
         21    1    1    2  502  501 -0.29066815302E+02 -0.52864098539E+02  0.58531304271E+02  0.84055970911E+02  0.00000000000E+00 0. -1.
<mgrwt>
<rscale>  1 0.13879657E+03</rscale>
<asrwt>0</asrwt>
<pdfrwt beam="1">  1        4 0.13029694E-01 0.13879657E+03</pdfrwt>
<pdfrwt beam="2">  1       -4 0.57260207E-01 0.13879657E+03</pdfrwt>
<totfact> 0.23631740E+02</totfact>
</mgrwt>
</event>
<event>
 6    4  0.1195577E-003  0.1340104E+03  0.7818608E-02  0.1221623E+00
          4   -1    0    0  502    0  0.00000000000E+00  0.00000000000E+00  0.42844031686E+02  0.42862850478E+02  0.12700000000E+01 0.  1.
         -4   -1    0    0    0  501 -0.00000000000E+00 -0.00000000000E+00 -0.20842059243E+03  0.20842446174E+03  0.12700000000E+01 0.  1.
         25    2    1    2    0    0 -0.10204762326E+02  0.47215848774E+02 -0.14855893362E+03  0.20007136565E+03  0.12500128417E+03 0.  0.
    9000005    1    3    3    0    0  0.42149394982E+02  0.65555427431E+02 -0.95880773044E+02  0.12356459122E+03  0.10000000000E+01 0.  0.
    9000005    1    3    3    0    0 -0.52354157307E+02 -0.18339578656E+02 -0.52678160575E+02  0.76506774434E+02  0.10000000000E+01 0.  0.
         21    1    1    2  502  501  0.10204762326E+02 -0.47215848774E+02 -0.17017627129E+02  0.51215946567E+02  0.00000000000E+00 0.  1.
<mgrwt>
<rscale>  1 0.13401043E+03</rscale>
<asrwt>0</asrwt>
<pdfrwt beam="1">  1        4 0.65931349E-02 0.13401043E+03</pdfrwt>
<pdfrwt beam="2">  1       -4 0.32066451E-01 0.13401043E+03</pdfrwt>
<totfact> 0.23317256E+03</totfact>
</mgrwt>
</event>
<event>
 6    4  0.1195577E-003  0.1271973E+03  0.7818608E-02  0.1231675E+00
         -4   -1    0    0    0  501 -0.00000000000E+00  0.00000000000E+00  0.27462083079E+03  0.27462376737E+03  0.12700000000E+01 0.  1.
          4   -1    0    0  502    0  0.00000000000E+00 -0.00000000000E+00 -0.30058267393E+02  0.30085084987E+02  0.12700000000E+01 0.  1.
         25    2    1    2    0    0  0.19786133143E+02 -0.12733296296E+02  0.25005492771E+03  0.28054702368E+03  0.12500215089E+03 0.  0.
    9000005    1    3    3    0    0  0.32354421874E+02 -0.27922963847E+02  0.25630117999E+03  0.25984186612E+03  0.10000000000E+01 0.  0.
    9000005    1    3    3    0    0 -0.12568288731E+02  0.15189667551E+02 -0.62462522855E+01  0.20705157560E+02  0.10000000000E+01 0.  0.
         21    1    1    2  502  501 -0.19786133143E+02  0.12733296296E+02 -0.54923643074E+01  0.24161828676E+02  0.00000000000E+00 0.  1.
<mgrwt>
<rscale>  1 0.12719735E+03</rscale>
<asrwt>0</asrwt>
<pdfrwt beam="2">  1        4 0.46266378E-02 0.12719735E+03</pdfrwt>
<pdfrwt beam="1">  1       -4 0.42251645E-01 0.12719735E+03</pdfrwt>
<totfact> 0.23891262E+03</totfact>
</mgrwt>
</event>
<event>
 6    4  0.1195577E-003  0.1281352E+03  0.7818608E-02  0.1230249E+00
         -4   -1    0    0    0  501 -0.00000000000E+00  0.00000000000E+00  0.57670706802E+02  0.57684688809E+02  0.12700000000E+01 0. -1.
          4   -1    0    0  502    0  0.00000000000E+00 -0.00000000000E+00 -0.10753567329E+03  0.10754317240E+03  0.12700000000E+01 0. -1.
         25    2    1    2    0    0  0.27442572268E+02 -0.64758757859E+01 -0.32788879763E+02  0.13226387362E+03  0.12499435943E+03 0.  0.
    9000005    1    3    3    0    0  0.87118251893E+01  0.48555040783E+02  0.20469295479E+02  0.53417973950E+02  0.10000000000E+01 0.  0.
    9000005    1    3    3    0    0  0.18730747079E+02 -0.55030916569E+02 -0.53258175242E+02  0.78845899669E+02  0.10000000000E+01 0.  0.
         21    1    1    2  502  501 -0.27442572268E+02  0.64758757859E+01 -0.17076086723E+02  0.32963987587E+02  0.00000000000E+00 0. -1.
<mgrwt>
<rscale>  1 0.12813517E+03</rscale>
<asrwt>0</asrwt>
<pdfrwt beam="2">  1        4 0.16545602E-01 0.12813517E+03</pdfrwt>
<pdfrwt beam="1">  1       -4 0.88740688E-02 0.12813517E+03</pdfrwt>
<totfact> 0.47386797E+03</totfact>
</mgrwt>
</event>
<event>
 6    4  0.1195577E-003  0.1323391E+03  0.7818608E-02  0.1224026E+00
          4   -1    0    0  502    0  0.00000000000E+00  0.00000000000E+00  0.96947524681E+01  0.97775828004E+01  0.12700000000E+01 0. -1.
         -4   -1    0    0    0  501 -0.00000000000E+00 -0.00000000000E+00 -0.88818924683E+03  0.88819015480E+03  0.12700000000E+01 0. -1.
         25    2    1    2    0    0 -0.27084324095E+02  0.34071224895E+02 -0.76597976493E+03  0.77732788798E+03  0.12497694256E+03 0.  0.
    9000005    1    3    3    0    0  0.97123176894E+01  0.74768083757E+02 -0.37396450803E+03  0.38149056178E+03  0.10000000000E+01 0.  0.
    9000005    1    3    3    0    0 -0.36796641784E+02 -0.40696858862E+02 -0.39201525690E+03  0.39583732620E+03  0.10000000000E+01 0.  0.
         21    1    1    2  502  501  0.27084324095E+02 -0.34071224895E+02 -0.11251472943E+03  0.12063984962E+03  0.00000000000E+00 0.  1.
<mgrwt>
<rscale>  1 0.13233913E+03</rscale>
<asrwt>0</asrwt>
<pdfrwt beam="1">  1        4 0.14979425E-02 0.13233913E+03</pdfrwt>
<pdfrwt beam="2">  1       -4 0.13665088E+00 0.13233913E+03</pdfrwt>
<totfact> 0.10549846E+03</totfact>
</mgrwt>
</event>
<event>
 6    4  0.1195577E-003  0.1266877E+03  0.7818608E-02  0.1232455E+00
         -4   -1    0    0    0  501 -0.00000000000E+00  0.00000000000E+00  0.28648305414E+02  0.28676441604E+02  0.12700000000E+01 0. -1.
          4   -1    0    0  502    0  0.00000000000E+00 -0.00000000000E+00 -0.26120010501E+03  0.26120319247E+03  0.12700000000E+01 0. -1.
         25    2    1    2    0    0  0.10325573268E+02  0.17829472375E+02 -0.11681721439E+03  0.17232538379E+03  0.12500107508E+03 0.  0.
    9000005    1    3    3    0    0 -0.26482387243E+02  0.32191234816E+02 -0.12516731349E+03  0.13192971159E+03  0.10000000000E+01 0.  0.
    9000005    1    3    3    0    0  0.36807960512E+02 -0.14361762442E+02  0.83500990996E+01  0.40395672199E+02  0.10000000000E+01 0.  0.
         21    1    1    2  502  501 -0.10325573268E+02 -0.17829472375E+02 -0.11573458520E+03  0.11755425028E+03  0.00000000000E+00 0. -1.
<mgrwt>
<rscale>  1 0.12668771E+03</rscale>
<asrwt>0</asrwt>
<pdfrwt beam="2">  1        4 0.40187032E-01 0.12668771E+03</pdfrwt>
<pdfrwt beam="1">  1       -4 0.44098336E-02 0.12668771E+03</pdfrwt>
<totfact> 0.28447517E+03</totfact>
</mgrwt>
</event>
<event>
 6    4  0.1195577E-003  0.1286902E+03  0.7818608E-02  0.1229412E+00
          4   -1    0    0  502    0  0.00000000000E+00  0.00000000000E+00  0.63411994832E+03  0.63412122008E+03  0.12700000000E+01 0.  1.
         -4   -1    0    0    0  501 -0.00000000000E+00 -0.00000000000E+00 -0.17606169303E+02  0.17651914840E+02  0.12700000000E+01 0.  1.
         25    2    1    2    0    0  0.45612914033E+01 -0.30243440809E+02  0.22606254751E+03  0.26012579958E+03  0.12500274049E+03 0.  0.
    9000005    1    3    3    0    0 -0.22642469732E+02 -0.14331134720E+02  0.22700180597E+03  0.22858014519E+03  0.10000000000E+01 0.  0.
    9000005    1    3    3    0    0  0.27203761135E+02 -0.15912306089E+02 -0.93925846282E+00  0.31545654399E+02  0.10000000000E+01 0.  0.
         21    1    1    2  502  501 -0.45612914033E+01  0.30243440809E+02  0.39045123151E+03  0.39164733534E+03  0.00000000000E+00 0.  1.
<mgrwt>
<rscale>  1 0.12869016E+03</rscale>
<asrwt>0</asrwt>
<pdfrwt beam="1">  1        4 0.97560522E-01 0.12869016E+03</pdfrwt>
<pdfrwt beam="2">  1       -4 0.27122584E-02 0.12869016E+03</pdfrwt>
<totfact> 0.93799285E+02</totfact>
</mgrwt>
</event>
<event>
 6    4  0.1195577E-003  0.1272518E+03  0.7818608E-02  0.1231592E+00
         -4   -1    0    0    0  501 -0.00000000000E+00  0.00000000000E+00  0.54796560238E+02  0.54811275426E+02  0.12700000000E+01 0. -1.
          4   -1    0    0  502    0  0.00000000000E+00 -0.00000000000E+00 -0.10413074551E+03  0.10413848982E+03  0.12700000000E+01 0. -1.
         25    2    1    2    0    0 -0.20550583127E+02  0.12054860407E+02 -0.40542951561E+02  0.13355425547E+03  0.12500144842E+03 0.  0.
    9000005    1    3    3    0    0 -0.39465402211E+02 -0.14015734519E+02 -0.75292713072E+02  0.86162355048E+02  0.10000000000E+01 0.  0.
    9000005    1    3    3    0    0  0.18914819084E+02  0.26070594926E+02  0.34749761511E+02  0.47391900424E+02  0.10000000000E+01 0.  0.
         21    1    1    2  502  501  0.20550583127E+02 -0.12054860407E+02 -0.87912337159E+01  0.25395509771E+02  0.00000000000E+00 0. -1.
<mgrwt>
<rscale>  1 0.12725175E+03</rscale>
<asrwt>0</asrwt>
<pdfrwt beam="2">  1        4 0.16021842E-01 0.12725175E+03</pdfrwt>
<pdfrwt beam="1">  1       -4 0.84319677E-02 0.12725175E+03</pdfrwt>
<totfact> 0.54498145E+03</totfact>
</mgrwt>
</event>
<event>
 6    4  0.1195577E-003  0.1741317E+03  0.7818608E-02  0.1173606E+00
         -4   -1    0    0    0  501 -0.00000000000E+00  0.00000000000E+00  0.24889982251E+03  0.24890306255E+03  0.12700000000E+01 0.  1.
          4   -1    0    0  502    0  0.00000000000E+00 -0.00000000000E+00 -0.88118876341E+02  0.88128027708E+02  0.12700000000E+01 0.  1.
         25    2    1    2    0    0 -0.11189840009E+03  0.46638766979E+02  0.82170349947E+02  0.19254561567E+03  0.12500168469E+03 0.  0.
    9000005    1    3    3    0    0 -0.38300527032E+02 -0.31767224996E+01 -0.30475780571E+02  0.49059098424E+02  0.10000000000E+01 0.  0.
    9000005    1    3    3    0    0 -0.73597873057E+02  0.49815489479E+02  0.11264613052E+03  0.14348651725E+03  0.10000000000E+01 0.  0.
         21    1    1    2  502  501  0.11189840009E+03 -0.46638766979E+02  0.78610596221E+02  0.14448547459E+03  0.00000000000E+00 0.  1.
<mgrwt>
<rscale>  1 0.17413170E+03</rscale>
<asrwt>0</asrwt>
<pdfrwt beam="2">  1        4 0.13557703E-01 0.17413170E+03</pdfrwt>
<pdfrwt beam="1">  1       -4 0.38293234E-01 0.17413170E+03</pdfrwt>
<totfact> 0.51815315E+02</totfact>
</mgrwt>
</event>
<event>
 6    4  0.1195577E-003  0.1281733E+03  0.7818608E-02  0.1230192E+00
         -4   -1    0    0    0  501 -0.00000000000E+00  0.00000000000E+00  0.20643331942E+02  0.20682360930E+02  0.12700000000E+01 0. -1.
          4   -1    0    0  502    0  0.00000000000E+00 -0.00000000000E+00 -0.30848504717E+03  0.30848766138E+03  0.12700000000E+01 0. -1.
         25    2    1    2    0    0  0.21603767404E+02 -0.18389709177E+02 -0.20673271695E+03  0.24324229820E+03  0.12499398069E+03 0.  0.
    9000005    1    3    3    0    0  0.31811368948E+02 -0.69287021433E+02 -0.12187205262E+03  0.14375831017E+03  0.10000000000E+01 0.  0.
    9000005    1    3    3    0    0 -0.10207601544E+02  0.50897312256E+02 -0.84860664335E+02  0.99483988036E+02  0.10000000000E+01 0.  0.
         21    1    1    2  502  501 -0.21603767404E+02  0.18389709177E+02 -0.81108998277E+02  0.85927724112E+02  0.00000000000E+00 0. -1.
<mgrwt>
<rscale>  1 0.12817332E+03</rscale>
<asrwt>0</asrwt>
<pdfrwt beam="2">  1        4 0.47462438E-01 0.12817332E+03</pdfrwt>
<pdfrwt beam="1">  1       -4 0.31791008E-02 0.12817332E+03</pdfrwt>
<totfact> 0.34359669E+03</totfact>
</mgrwt>
</event>
<event>
 6    4  0.1195577E-003  0.1271750E+03  0.7818608E-02  0.1231709E+00
          4   -1    0    0  502    0  0.00000000000E+00  0.00000000000E+00  0.21029979630E+03  0.21030363103E+03  0.12700000000E+01 0. -1.
         -4   -1    0    0    0  501 -0.00000000000E+00 -0.00000000000E+00 -0.44111417011E+02  0.44129695339E+02  0.12700000000E+01 0. -1.
         25    2    1    2    0    0 -0.44256995917E+01 -0.22974703597E+02  0.51209602208E+02  0.13709815261E+03  0.12500422500E+03 0.  0.
    9000005    1    3    3    0    0  0.29741838221E+02  0.26210954158E+02 -0.19697622465E+02  0.44278520633E+02  0.10000000000E+01 0.  0.
    9000005    1    3    3    0    0 -0.34167537813E+02 -0.49185657755E+02  0.70907224673E+02  0.92819631974E+02  0.10000000000E+01 0.  0.
         21    1    1    2  502  501  0.44256995917E+01  0.22974703597E+02  0.11497877708E+03  0.11733517376E+03  0.00000000000E+00 0. -1.
<mgrwt>
<rscale>  1 0.12717500E+03</rscale>
<asrwt>0</asrwt>
<pdfrwt beam="1">  1        4 0.32355516E-01 0.12717500E+03</pdfrwt>
<pdfrwt beam="2">  1       -4 0.67880728E-02 0.12717500E+03</pdfrwt>
<totfact> 0.21591010E+03</totfact>
</mgrwt>
</event>
<event>
 6    4  0.1195577E-003  0.1332934E+03  0.7818608E-02  0.1222649E+00
          4   -1    0    0  502    0  0.00000000000E+00  0.00000000000E+00  0.54403624984E+03  0.54403773219E+03  0.12700000000E+01 0. -1.
         -4   -1    0    0    0  501 -0.00000000000E+00 -0.00000000000E+00 -0.19131611493E+02  0.19173717905E+02  0.12700000000E+01 0. -1.
         25    2    1    2    0    0 -0.46282673728E+02  0.46620782161E+00  0.23963821625E+03  0.27421450406E+03  0.12499926525E+03 0.  0.
    9000005    1    3    3    0    0 -0.62976542690E+01  0.60459368390E+02  0.99177766586E+02  0.11632809231E+03  0.10000000000E+01 0.  0.
    9000005    1    3    3    0    0 -0.39985019459E+02 -0.59993160568E+02  0.14046044966E+03  0.15788641175E+03  0.10000000000E+01 0.  0.
         21    1    1    2  502  501  0.46282673728E+02 -0.46620782161E+00  0.28526642210E+03  0.28899694603E+03  0.00000000000E+00 0. -1.
<mgrwt>
<rscale>  1 0.13329336E+03</rscale>
<asrwt>0</asrwt>
<pdfrwt beam="1">  1        4 0.83701227E-01 0.13329336E+03</pdfrwt>
<pdfrwt beam="2">  1       -4 0.29466782E-02 0.13329336E+03</pdfrwt>
<totfact> 0.11739967E+03</totfact>
</mgrwt>
</event>
<event>
 6    4  0.1195577E-003  0.1351180E+03  0.7818608E-02  0.1220053E+00
         -4   -1    0    0    0  501 -0.00000000000E+00  0.00000000000E+00  0.16657906784E+02  0.16706249083E+02  0.12700000000E+01 0.  1.
          4   -1    0    0  502    0  0.00000000000E+00 -0.00000000000E+00 -0.59573327843E+03  0.59573463214E+03  0.12700000000E+01 0.  1.
         25    2    1    2    0    0  0.47308357288E+02  0.19851509406E+02 -0.30477297116E+03  0.33338180144E+03  0.12499879394E+03 0.  0.
    9000005    1    3    3    0    0 -0.16947099674E+02  0.18415747012E+02 -0.24281533981E+03  0.24410373445E+03  0.10000000000E+01 0.  0.
    9000005    1    3    3    0    0  0.64255456961E+02  0.14357623942E+01 -0.61957631344E+02  0.89278066986E+02  0.10000000000E+01 0.  0.
         21    1    1    2  502  501 -0.47308357288E+02 -0.19851509406E+02 -0.27430240049E+03  0.27905907978E+03  0.00000000000E+00 0.  1.
<mgrwt>
<rscale>  1 0.13511795E+03</rscale>
<asrwt>0</asrwt>
<pdfrwt beam="2">  1        4 0.91655080E-01 0.13511795E+03</pdfrwt>
<pdfrwt beam="1">  1       -4 0.25665781E-02 0.13511795E+03</pdfrwt>
<totfact> 0.11908692E+03</totfact>
</mgrwt>
</event>
<event>
 6    4  0.1195577E-003  0.1284412E+03  0.7818608E-02  0.1229787E+00
          4   -1    0    0  502    0  0.00000000000E+00  0.00000000000E+00  0.25722312964E+03  0.25722626483E+03  0.12700000000E+01 0.  1.
         -4   -1    0    0    0  501 -0.00000000000E+00 -0.00000000000E+00 -0.24235874633E+02  0.24269126874E+02  0.12700000000E+01 0.  1.
         25    2    1    2    0    0 -0.29480289636E+02 -0.15727008225E+01  0.19084989451E+03  0.23004524094E+03  0.12500227909E+03 0.  0.
    9000005    1    3    3    0    0 -0.29257939147E+02 -0.13640473864E+00 -0.86585949941E+01  0.30528951450E+02  0.10000000000E+01 0.  0.
    9000005    1    3    3    0    0 -0.22235048898E+00 -0.14362960838E+01  0.19950848951E+03  0.19951628949E+03  0.10000000000E+01 0.  0.
         21    1    1    2  502  501  0.29480289636E+02  0.15727008225E+01  0.42137360488E+02  0.51450150765E+02  0.00000000000E+00 0.  1.
<mgrwt>
<rscale>  1 0.12844116E+03</rscale>
<asrwt>0</asrwt>
<pdfrwt beam="1">  1        4 0.39575586E-01 0.12844116E+03</pdfrwt>
<pdfrwt beam="2">  1       -4 0.37313953E-02 0.12844116E+03</pdfrwt>
<totfact> 0.38348131E+03</totfact>
</mgrwt>
</event>
<event>
 6    4  0.1195577E-003  0.1325903E+03  0.7818608E-02  0.1223662E+00
         -4   -1    0    0    0  501 -0.00000000000E+00  0.00000000000E+00  0.16103759133E+03  0.16104259909E+03  0.12700000000E+01 0.  1.
          4   -1    0    0  502    0  0.00000000000E+00 -0.00000000000E+00 -0.50055086878E+02  0.50071195536E+02  0.12700000000E+01 0.  1.
         25    2    1    2    0    0 -0.11426016123E+02  0.42715057243E+02  0.98484090081E+02  0.16516447122E+03  0.12500022638E+03 0.  0.
    9000005    1    3    3    0    0  0.23785091316E+02 -0.21245094347E+01  0.10507931903E+03  0.10776320057E+03  0.10000000000E+01 0.  0.
    9000005    1    3    3    0    0 -0.35211107439E+02  0.44839566678E+02 -0.65952289535E+01  0.57401270647E+02  0.10000000000E+01 0.  0.
         21    1    1    2  502  501  0.11426016123E+02 -0.42715057243E+02  0.12498414374E+02  0.45949323407E+02  0.00000000000E+00 0.  1.
<mgrwt>
<rscale>  1 0.13259030E+03</rscale>
<asrwt>0</asrwt>
<pdfrwt beam="2">  1        4 0.77024070E-02 0.13259030E+03</pdfrwt>
<pdfrwt beam="1">  1       -4 0.24776638E-01 0.13259030E+03</pdfrwt>
<totfact> 0.29213651E+03</totfact>
</mgrwt>
</event>
<event>
 6    4  0.1195577E-003  0.1318211E+03  0.7818608E-02  0.1224778E+00
          4   -1    0    0  502    0  0.00000000000E+00  0.00000000000E+00  0.14316612890E+02  0.14372832172E+02  0.12700000000E+01 0.  1.
         -4   -1    0    0    0  501 -0.00000000000E+00 -0.00000000000E+00 -0.62829967732E+03  0.62830096086E+03  0.12700000000E+01 0.  1.
         25    2    1    2    0    0 -0.32756333246E+02  0.26057818576E+02 -0.55441166568E+03  0.56986762004E+03  0.12499928821E+03 0.  0.
    9000005    1    3    3    0    0  0.29340118556E+02 -0.34238220690E+02 -0.20346949919E+03  0.20840809824E+03  0.10000000000E+01 0.  0.
    9000005    1    3    3    0    0 -0.62096451803E+02  0.60296039266E+02 -0.35094216650E+03  0.36145952180E+03  0.10000000000E+01 0.  0.
         21    1    1    2  502  501  0.32756333246E+02 -0.26057818576E+02 -0.59571398744E+02  0.72806172987E+02  0.00000000000E+00 0.  1.
<mgrwt>
<rscale>  1 0.13182113E+03</rscale>
<asrwt>0</asrwt>
<pdfrwt beam="1">  1        4 0.22069796E-02 0.13182113E+03</pdfrwt>
<pdfrwt beam="2">  1       -4 0.96665891E-01 0.13182113E+03</pdfrwt>
<totfact> 0.13260025E+03</totfact>
</mgrwt>
</event>
<event>
 6    4  0.1195577E-003  0.1281908E+03  0.7818608E-02  0.1230165E+00
         -4   -1    0    0    0  501 -0.00000000000E+00  0.00000000000E+00  0.92491707218E+02  0.92500425967E+02  0.12700000000E+01 0. -1.
          4   -1    0    0  502    0  0.00000000000E+00 -0.00000000000E+00 -0.13354699855E+03  0.13355303711E+03  0.12700000000E+01 0. -1.
         25    2    1    2    0    0 -0.13658561672E+02 -0.24923920460E+02  0.44661223298E+02  0.13574798706E+03  0.12500053203E+03 0.  0.
    9000005    1    3    3    0    0 -0.65371283853E+02 -0.27862478487E+02  0.44671785048E+02  0.83942187483E+02  0.10000000000E+01 0.  0.
    9000005    1    3    3    0    0  0.51712722181E+02  0.29385580271E+01 -0.10561750060E-01  0.51805799581E+02  0.10000000000E+01 0.  0.
         21    1    1    2  502  501  0.13658561672E+02  0.24923920460E+02 -0.85716514628E+02  0.90305476014E+02  0.00000000000E+00 0. -1.
<mgrwt>
<rscale>  1 0.12819084E+03</rscale>
<asrwt>0</asrwt>
<pdfrwt beam="2">  1        4 0.20546827E-01 0.12819084E+03</pdfrwt>
<pdfrwt beam="1">  1       -4 0.14230629E-01 0.12819084E+03</pdfrwt>
<totfact> 0.14439745E+03</totfact>
</mgrwt>
</event>
<event>
 6    4  0.1195577E-003  0.1273892E+03  0.7818608E-02  0.1231382E+00
          4   -1    0    0  502    0  0.00000000000E+00  0.00000000000E+00  0.18629561924E+02  0.18672800472E+02  0.12700000000E+01 0. -1.
         -4   -1    0    0    0  501 -0.00000000000E+00 -0.00000000000E+00 -0.36772425086E+03  0.36772644393E+03  0.12700000000E+01 0. -1.
         25    2    1    2    0    0  0.23723520975E+02 -0.63612867636E+01 -0.33424447752E+03  0.35769732468E+03  0.12499893566E+03 0.  0.
    9000005    1    3    3    0    0 -0.29626037985E+02 -0.10017019095E+01 -0.27947657086E+03  0.28104600903E+03  0.10000000000E+01 0.  0.
    9000005    1    3    3    0    0  0.53349558960E+02 -0.53595848541E+01 -0.54767906659E+02  0.76651315650E+02  0.10000000000E+01 0.  0.
         21    1    1    2  502  501 -0.23723520975E+02  0.63612867636E+01 -0.14850211412E+02  0.28701919722E+02  0.00000000000E+00 0. -1.
<mgrwt>
<rscale>  1 0.12738919E+03</rscale>
<asrwt>0</asrwt>
<pdfrwt beam="1">  1        4 0.28695815E-02 0.12738919E+03</pdfrwt>
<pdfrwt beam="2">  1       -4 0.56576451E-01 0.12738919E+03</pdfrwt>
<totfact> 0.28113384E+03</totfact>
</mgrwt>
</event>
<event>
 6    4  0.1195577E-003  0.1268597E+03  0.7818608E-02  0.1232191E+00
         -4   -1    0    0    0  501 -0.00000000000E+00  0.00000000000E+00  0.14726540314E+03  0.14727087920E+03  0.12700000000E+01 0. -1.
          4   -1    0    0  502    0  0.00000000000E+00 -0.00000000000E+00 -0.49163340228E+02  0.49179740975E+02  0.12700000000E+01 0. -1.
         25    2    1    2    0    0  0.68317028307E+01  0.20580548359E+02  0.11320414236E+03  0.17002517906E+03  0.12499260991E+03 0.  0.
    9000005    1    3    3    0    0  0.19016027196E+02  0.49783454197E+01 -0.24202969533E+02  0.31195784133E+02  0.10000000000E+01 0.  0.
    9000005    1    3    3    0    0 -0.12184324366E+02  0.15602202939E+02  0.13740711190E+03  0.13882939493E+03  0.10000000000E+01 0.  0.
         21    1    1    2  502  501 -0.68317028307E+01 -0.20580548359E+02 -0.15102079454E+02  0.26425441116E+02  0.00000000000E+00 0. -1.
<mgrwt>
<rscale>  1 0.12685970E+03</rscale>
<asrwt>0</asrwt>
<pdfrwt beam="2">  1        4 0.75652737E-02 0.12685970E+03</pdfrwt>
<pdfrwt beam="1">  1       -4 0.22657898E-01 0.12685970E+03</pdfrwt>
<totfact> 0.35071511E+03</totfact>
</mgrwt>
</event>
<event>
 6    4  0.1195577E-003  0.1303272E+03  0.7818608E-02  0.1226971E+00
          4   -1    0    0  502    0  0.00000000000E+00  0.00000000000E+00  0.46659041193E+03  0.46659214032E+03  0.12700000000E+01 0.  1.
         -4   -1    0    0    0  501 -0.00000000000E+00 -0.00000000000E+00 -0.17960093854E+02  0.18004940190E+02  0.12700000000E+01 0.  1.
         25    2    1    2    0    0 -0.32571473357E+02  0.17307656189E+02  0.24356455206E+03  0.27624059697E+03  0.12499888222E+03 0.  0.
    9000005    1    3    3    0    0  0.27427171771E+02 -0.39038234121E+02  0.80616433409E+02  0.93681603371E+02  0.10000000000E+01 0.  0.
    9000005    1    3    3    0    0 -0.59998645128E+02  0.56345890311E+02  0.16294811865E+03  0.18255899360E+03  0.10000000000E+01 0.  0.
         21    1    1    2  502  501  0.32571473357E+02 -0.17307656189E+02  0.20506576602E+03  0.20835648354E+03  0.00000000000E+00 0. -1.
<mgrwt>
<rscale>  1 0.13032719E+03</rscale>
<asrwt>0</asrwt>
<pdfrwt beam="1">  1        4 0.71786708E-01 0.13032719E+03</pdfrwt>
<pdfrwt beam="2">  1       -4 0.27666746E-02 0.13032719E+03</pdfrwt>
<totfact> 0.18061586E+03</totfact>
</mgrwt>
</event>
<event>
 6    4  0.1195577E-003  0.1709377E+03  0.7818608E-02  0.1176873E+00
         -4   -1    0    0    0  501 -0.00000000000E+00  0.00000000000E+00  0.34867173994E+03  0.34867405286E+03  0.12700000000E+01 0.  1.
          4   -1    0    0  502    0  0.00000000000E+00 -0.00000000000E+00 -0.18751536394E+03  0.18751966461E+03  0.12700000000E+01 0.  1.
         25    2    1    2    0    0  0.36350616212E+02 -0.11078491321E+03  0.30584511951E+03  0.35037257552E+03  0.12500016100E+03 0.  0.
    9000005    1    3    3    0    0 -0.33583186200E+02 -0.64515822119E+02  0.21389038246E+03  0.22592082110E+03  0.10000000000E+01 0.  0.
    9000005    1    3    3    0    0  0.69933802412E+02 -0.46269091095E+02  0.91954737053E+02  0.12445175442E+03  0.10000000000E+01 0.  0.
         21    1    1    2  502  501 -0.36350616212E+02  0.11078491321E+03 -0.14468874351E+03  0.18582114194E+03  0.00000000000E+00 0.  1.
<mgrwt>
<rscale>  1 0.17093772E+03</rscale>
<asrwt>0</asrwt>
<pdfrwt beam="2">  1        4 0.28849026E-01 0.17093772E+03</pdfrwt>
<pdfrwt beam="1">  1       -4 0.53642315E-01 0.17093772E+03</pdfrwt>
<totfact> 0.66842049E+01</totfact>
</mgrwt>
</event>
<event>
 6    4  0.1195577E-003  0.1275183E+03  0.7818608E-02  0.1231185E+00
         -4   -1    0    0    0  501 -0.00000000000E+00  0.00000000000E+00  0.27192515496E+02  0.27222156399E+02  0.12700000000E+01 0. -1.
          4   -1    0    0  502    0  0.00000000000E+00 -0.00000000000E+00 -0.22478133846E+03  0.22478492614E+03  0.12700000000E+01 0. -1.
         25    2    1    2    0    0  0.20952767374E+02  0.13501312275E+02 -0.18324706355E+03  0.22324964947E+03  0.12505844951E+03 0.  0.
    9000005    1    3    3    0    0 -0.27638551860E+02 -0.27175297997E+02 -0.11902051371E+02  0.40559156759E+02  0.10000000000E+01 0.  0.
    9000005    1    3    3    0    0  0.48591319234E+02  0.40676610273E+02 -0.17134501218E+03  0.18269049271E+03  0.10000000000E+01 0.  0.
         21    1    1    2  502  501 -0.20952767374E+02 -0.13501312275E+02 -0.14341759418E+02  0.28757433074E+02  0.00000000000E+00 0. -1.
<mgrwt>
<rscale>  1 0.12751831E+03</rscale>
<asrwt>0</asrwt>
<pdfrwt beam="2">  1        4 0.34584299E-01 0.12751831E+03</pdfrwt>
<pdfrwt beam="1">  1       -4 0.41860201E-02 0.12751831E+03</pdfrwt>
<totfact> 0.41454783E+03</totfact>
</mgrwt>
</event>
<event>
 6    4  0.1195577E-003  0.1322833E+03  0.7818608E-02  0.1224106E+00
          4   -1    0    0  502    0  0.00000000000E+00  0.00000000000E+00  0.17826255673E+02  0.17871437864E+02  0.12700000000E+01 0.  1.
         -4   -1    0    0    0  501 -0.00000000000E+00 -0.00000000000E+00 -0.64487025406E+03  0.64487150462E+03  0.12700000000E+01 0.  1.
         25    2    1    2    0    0  0.21140169852E+02 -0.37771709383E+02 -0.59327398845E+03  0.60784282971E+03  0.12500108579E+03 0.  0.
    9000005    1    3    3    0    0 -0.49159447538E+02 -0.20944033560E+02 -0.16300173202E+03  0.17153969939E+03  0.10000000000E+01 0.  0.
    9000005    1    3    3    0    0  0.70299617390E+02 -0.16827675823E+02 -0.43027225643E+03  0.43630313033E+03  0.10000000000E+01 0.  0.
         21    1    1    2  502  501 -0.21140169852E+02  0.37771709383E+02 -0.33770009934E+02  0.54900112769E+02  0.00000000000E+00 0.  1.
<mgrwt>
<rscale>  1 0.13228333E+03</rscale>
<asrwt>0</asrwt>
<pdfrwt beam="1">  1        4 0.27460731E-02 0.13228333E+03</pdfrwt>
<pdfrwt beam="2">  1       -4 0.99214362E-01 0.13228333E+03</pdfrwt>
<totfact> 0.89038227E+02</totfact>
</mgrwt>
</event>
<event>
 6    4  0.1195577E-003  0.1278428E+03  0.7818608E-02  0.1230692E+00
         -4   -1    0    0    0  501 -0.00000000000E+00  0.00000000000E+00  0.49243102805E+03  0.49243266573E+03  0.12700000000E+01 0.  1.
          4   -1    0    0  502    0  0.00000000000E+00 -0.00000000000E+00 -0.13181071267E+02  0.13242112360E+02  0.12700000000E+01 0.  1.
         25    2    1    2    0    0  0.12183565070E+02  0.23889613645E+02  0.43956525039E+03  0.45777875718E+03  0.12499851311E+03 0.  0.
    9000005    1    3    3    0    0  0.53834302765E+02 -0.17857871798E+02  0.31359731240E+03  0.31868685270E+03  0.10000000000E+01 0.  0.
    9000005    1    3    3    0    0 -0.41650737695E+02  0.41747485443E+02  0.12596793799E+03  0.13909190448E+03  0.10000000000E+01 0.  0.
         21    1    1    2  502  501 -0.12183565070E+02 -0.23889613645E+02  0.39684706391E+02  0.47896020912E+02  0.00000000000E+00 0.  1.
<mgrwt>
<rscale>  1 0.12784280E+03</rscale>
<asrwt>0</asrwt>
<pdfrwt beam="2">  1        4 0.20326786E-02 0.12784280E+03</pdfrwt>
<pdfrwt beam="1">  1       -4 0.75763439E-01 0.12784280E+03</pdfrwt>
<totfact> 0.25780837E+03</totfact>
</mgrwt>
</event>
<event>
 6    4  0.1195577E-003  0.1267962E+03  0.7818608E-02  0.1232288E+00
          4   -1    0    0  502    0  0.00000000000E+00  0.00000000000E+00  0.39575246130E+01  0.41563085861E+01  0.12700000000E+01 0.  1.
         -4   -1    0    0    0  501 -0.00000000000E+00 -0.00000000000E+00 -0.15079573913E+04  0.15079579261E+04  0.12700000000E+01 0.  1.
         25    2    1    2    0    0 -0.20991677217E+02  0.35440655674E+01 -0.14120790569E+04  0.14177603996E+04  0.12499630783E+03 0.  0.
    9000005    1    3    3    0    0 -0.98866640229E+01  0.55762849286E+01 -0.87019758016E+01  0.14337554253E+02  0.10000000000E+01 0.  0.
    9000005    1    3    3    0    0 -0.11105013195E+02 -0.20322193611E+01 -0.14033770811E+04  0.14034228454E+04  0.10000000000E+01 0.  0.
         21    1    1    2  502  501  0.20991677217E+02 -0.35440655674E+01 -0.91920809786E+02  0.94353835030E+02  0.00000000000E+00 0.  1.
<mgrwt>
<rscale>  1 0.12679625E+03</rscale>
<asrwt>0</asrwt>
<pdfrwt beam="1">  1        4 0.62418335E-03 0.12679625E+03</pdfrwt>
<pdfrwt beam="2">  1       -4 0.23200833E+00 0.12679625E+03</pdfrwt>
<totfact> 0.91617360E+02</totfact>
</mgrwt>
</event>
<event>
 6    4  0.1195577E-003  0.1267993E+03  0.7818608E-02  0.1232284E+00
         -4   -1    0    0    0  501 -0.00000000000E+00  0.00000000000E+00  0.11599746443E+03  0.11600441653E+03  0.12700000000E+01 0.  1.
          4   -1    0    0  502    0  0.00000000000E+00 -0.00000000000E+00 -0.47482138887E+02  0.47499120132E+02  0.12700000000E+01 0.  1.
         25    2    1    2    0    0 -0.22140058818E+00 -0.21272758485E+02  0.54421759274E+02  0.13798476158E+03  0.12500194908E+03 0.  0.
    9000005    1    3    3    0    0 -0.61946547896E+02 -0.44441578826E+01  0.34047987319E+02  0.70833542732E+02  0.10000000000E+01 0.  0.
    9000005    1    3    3    0    0  0.61725147308E+02 -0.16828600602E+02  0.20373771955E+02  0.67151218843E+02  0.10000000000E+01 0.  0.
         21    1    1    2  502  501  0.22140058818E+00  0.21272758485E+02  0.14093566272E+02  0.25518775089E+02  0.00000000000E+00 0.  1.
<mgrwt>
<rscale>  1 0.12679932E+03</rscale>
<asrwt>0</asrwt>
<pdfrwt beam="2">  1        4 0.73067856E-02 0.12679932E+03</pdfrwt>
<pdfrwt beam="1">  1       -4 0.17847605E-01 0.12679932E+03</pdfrwt>
<totfact> 0.57024822E+03</totfact>
</mgrwt>
</event>
<event>
 6    4  0.1195577E-003  0.1360077E+03  0.7818608E-02  0.1218804E+00
         -4   -1    0    0    0  501 -0.00000000000E+00  0.00000000000E+00  0.34542860091E+02  0.34566198565E+02  0.12700000000E+01 0. -1.
          4   -1    0    0  502    0  0.00000000000E+00 -0.00000000000E+00 -0.46453068551E+03  0.46453242156E+03  0.12700000000E+01 0. -1.
         25    2    1    2    0    0  0.34123233388E+02  0.41344071181E+02 -0.11076285244E+03  0.17540384004E+03  0.12499748134E+03 0.  0.
    9000005    1    3    3    0    0 -0.22747897388E+02  0.43901667965E+02 -0.10755010448E+03  0.11837587702E+03  0.10000000000E+01 0.  0.
    9000005    1    3    3    0    0  0.56871130776E+02 -0.25575967838E+01 -0.32127479554E+01  0.57027963022E+02  0.10000000000E+01 0.  0.
         21    1    1    2  502  501 -0.34123233388E+02 -0.41344071181E+02 -0.31922497298E+03  0.32369478008E+03  0.00000000000E+00 0. -1.
<mgrwt>
<rscale>  1 0.13600771E+03</rscale>
<asrwt>0</asrwt>
<pdfrwt beam="2">  1        4 0.71468183E-01 0.13600771E+03</pdfrwt>
<pdfrwt beam="1">  1       -4 0.53162153E-02 0.13600771E+03</pdfrwt>
<totfact> 0.65354349E+02</totfact>
</mgrwt>
</event>
<event>
 6    4  0.1195577E-003  0.1301318E+03  0.7818608E-02  0.1227260E+00
         -4   -1    0    0    0  501 -0.00000000000E+00  0.00000000000E+00  0.17810006398E+03  0.17810459200E+03  0.12700000000E+01 0.  1.
          4   -1    0    0  502    0  0.00000000000E+00 -0.00000000000E+00 -0.47458414212E+02  0.47475403942E+02  0.12700000000E+01 0.  1.
         25    2    1    2    0    0  0.35739959389E+02 -0.59370183096E+01  0.13682516511E+03  0.18882637373E+03  0.12498672220E+03 0.  0.
    9000005    1    3    3    0    0  0.51762357641E+02 -0.23123603869E+02  0.15104956467E+03  0.16134129574E+03  0.10000000000E+01 0.  0.
    9000005    1    3    3    0    0 -0.16022398252E+02  0.17186585560E+02 -0.14224399565E+02  0.27485077987E+02  0.10000000000E+01 0.  0.
         21    1    1    2  502  501 -0.35739959389E+02  0.59370183096E+01 -0.61835153373E+01  0.36753622209E+02  0.00000000000E+00 0.  1.
<mgrwt>
<rscale>  1 0.13013175E+03</rscale>
<asrwt>0</asrwt>
<pdfrwt beam="2">  1        4 0.73029496E-02 0.13013175E+03</pdfrwt>
<pdfrwt beam="1">  1       -4 0.27401665E-01 0.13013175E+03</pdfrwt>
<totfact> 0.26342963E+03</totfact>
</mgrwt>
</event>
<event>
 6    4  0.1195577E-003  0.1400397E+03  0.7818608E-02  0.1213276E+00
          4   -1    0    0  502    0  0.00000000000E+00  0.00000000000E+00  0.28714019013E+02  0.28742090875E+02  0.12700000000E+01 0.  1.
         -4   -1    0    0    0  501 -0.00000000000E+00 -0.00000000000E+00 -0.35999338710E+03  0.35999562727E+03  0.12700000000E+01 0.  1.
         25    2    1    2    0    0  0.62626595608E+02 -0.80078573722E+01 -0.21978592163E+03  0.26060885778E+03  0.12499963659E+03 0.  0.
    9000005    1    3    3    0    0 -0.35968919625E+02  0.14677610574E+02 -0.60387344247E+02  0.71811049124E+02  0.10000000000E+01 0.  0.
    9000005    1    3    3    0    0  0.98595515233E+02 -0.22685467947E+02 -0.15939857739E+03  0.18879780865E+03  0.10000000000E+01 0.  0.
         21    1    1    2  502  501 -0.62626595608E+02  0.80078573722E+01 -0.11149344646E+03  0.12812886037E+03  0.00000000000E+00 0.  1.
<mgrwt>
<rscale>  1 0.14003973E+03</rscale>
<asrwt>0</asrwt>
<pdfrwt beam="1">  1        4 0.44198734E-02 0.14003973E+03</pdfrwt>
<pdfrwt beam="2">  1       -4 0.55385926E-01 0.14003973E+03</pdfrwt>
<totfact> 0.15176368E+03</totfact>
</mgrwt>
</event>
<event>
 6    4  0.1195577E-003  0.1337351E+03  0.7818608E-02  0.1222016E+00
          4   -1    0    0  502    0  0.00000000000E+00  0.00000000000E+00  0.68849255445E+02  0.68860967720E+02  0.12700000000E+01 0.  1.
         -4   -1    0    0    0  501 -0.00000000000E+00 -0.00000000000E+00 -0.13557505723E+03  0.13558100547E+03  0.12700000000E+01 0.  1.
         25    2    1    2    0    0  0.41625060906E+02 -0.23004978454E+02 -0.78998378380E+02  0.15532485941E+03  0.12499277353E+03 0.  0.
    9000005    1    3    3    0    0 -0.29529204391E+02 -0.26370430192E+02 -0.73973051297E+02  0.83907006970E+02  0.10000000000E+01 0.  0.
    9000005    1    3    3    0    0  0.71154265296E+02  0.33654517373E+01 -0.50253270821E+01  0.71417852443E+02  0.10000000000E+01 0.  0.
         21    1    1    2  502  501 -0.41625060906E+02  0.23004978454E+02  0.12272576595E+02  0.49117113773E+02  0.00000000000E+00 0.  1.
<mgrwt>
<rscale>  1 0.13373507E+03</rscale>
<asrwt>0</asrwt>
<pdfrwt beam="1">  1        4 0.10593552E-01 0.13373507E+03</pdfrwt>
<pdfrwt beam="2">  1       -4 0.20859060E-01 0.13373507E+03</pdfrwt>
<totfact> 0.23523741E+03</totfact>
</mgrwt>
</event>
<event>
 6    4  0.1195577E-003  0.1285802E+03  0.7818608E-02  0.1229578E+00
          4   -1    0    0  502    0  0.00000000000E+00  0.00000000000E+00  0.25715388807E+03  0.25715702411E+03  0.12700000000E+01 0. -1.
         -4   -1    0    0    0  501 -0.00000000000E+00 -0.00000000000E+00 -0.25733416919E+02  0.25764736489E+02  0.12700000000E+01 0. -1.
         25    2    1    2    0    0 -0.28136016423E+02  0.10803460318E+02  0.15902849410E+03  0.20450652919E+03  0.12499803347E+03 0.  0.
    9000005    1    3    3    0    0 -0.47792294020E+02  0.58993283520E+02  0.10387677644E+03  0.12866893779E+03  0.10000000000E+01 0.  0.
    9000005    1    3    3    0    0  0.19656277597E+02 -0.48189823202E+02  0.55151717658E+02  0.75837591403E+02  0.10000000000E+01 0.  0.
         21    1    1    2  502  501  0.28136016423E+02 -0.10803460318E+02  0.72391977058E+02  0.78415231412E+02  0.00000000000E+00 0.  1.
<mgrwt>
<rscale>  1 0.12858016E+03</rscale>
<asrwt>0</asrwt>
<pdfrwt beam="1">  1        4 0.39564788E-01 0.12858016E+03</pdfrwt>
<pdfrwt beam="2">  1       -4 0.39616376E-02 0.12858016E+03</pdfrwt>
<totfact> 0.34907811E+03</totfact>
</mgrwt>
</event>
<event>
 6    4  0.1195577E-003  0.1302813E+03  0.7818608E-02  0.1227039E+00
         -4   -1    0    0    0  501 -0.00000000000E+00  0.00000000000E+00  0.11972064870E+04  0.11972071606E+04  0.12700000000E+01 0.  1.
          4   -1    0    0  502    0  0.00000000000E+00 -0.00000000000E+00 -0.90136947271E+01  0.91027244621E+01  0.12700000000E+01 0.  1.
         25    2    1    2    0    0 -0.21508219498E+02 -0.29756523847E+02  0.11301150848E+04  0.11375998107E+04  0.12500068055E+03 0.  0.
    9000005    1    3    3    0    0 -0.48429416486E+02 -0.56064134878E+02  0.98136235239E+03  0.98415530395E+03  0.10000000000E+01 0.  0.
    9000005    1    3    3    0    0  0.26921196988E+02  0.26307611031E+02  0.14875273244E+03  0.15344450676E+03  0.10000000000E+01 0.  0.
         21    1    1    2  502  501  0.21508219498E+02  0.29756523847E+02  0.58077707431E+02  0.68710074355E+02  0.00000000000E+00 0.  1.
<mgrwt>
<rscale>  1 0.13028133E+03</rscale>
<asrwt>0</asrwt>
<pdfrwt beam="2">  1        4 0.13936220E-02 0.13028133E+03</pdfrwt>
<pdfrwt beam="1">  1       -4 0.18419258E+00 0.13028133E+03</pdfrwt>
<totfact> 0.54014089E+02</totfact>
</mgrwt>
</event>
<event>
 6    4  0.1195577E-003  0.1293484E+03  0.7818608E-02  0.1228426E+00
          4   -1    0    0  502    0  0.00000000000E+00  0.00000000000E+00  0.45692373583E+02  0.45710019729E+02  0.12700000000E+01 0.  1.
         -4   -1    0    0    0  501 -0.00000000000E+00 -0.00000000000E+00 -0.14537066707E+03  0.14537621451E+03  0.12700000000E+01 0.  1.
         25    2    1    2    0    0 -0.85321502947E+01 -0.32155727313E+02 -0.84617563284E+02  0.15456755433E+03  0.12499683375E+03 0.  0.
    9000005    1    3    3    0    0 -0.49287934797E+02 -0.59801434534E+02 -0.36348303116E+02  0.85602051542E+02  0.10000000000E+01 0.  0.
    9000005    1    3    3    0    0  0.40755784502E+02  0.27645707220E+02 -0.48269260167E+02  0.68965502791E+02  0.10000000000E+01 0.  0.
         21    1    1    2  502  501  0.85321502947E+01  0.32155727313E+02 -0.15060730206E+02  0.36518679905E+02  0.00000000000E+00 0. -1.
<mgrwt>
<rscale>  1 0.12934835E+03</rscale>
<asrwt>0</asrwt>
<pdfrwt beam="1">  1        4 0.70313801E-02 0.12934835E+03</pdfrwt>
<pdfrwt beam="2">  1       -4 0.22366502E-01 0.12934835E+03</pdfrwt>
<totfact> 0.40693374E+03</totfact>
</mgrwt>
</event>
<event>
 6    4  0.1195577E-003  0.1910123E+03  0.7818608E-02  0.1157551E+00
         -4   -1    0    0    0  501 -0.00000000000E+00  0.00000000000E+00  0.11410626441E+03  0.11411333173E+03  0.12700000000E+01 0. -1.
          4   -1    0    0  502    0  0.00000000000E+00 -0.00000000000E+00 -0.28193901897E+03  0.28194187933E+03  0.12700000000E+01 0. -1.
         25    2    1    2    0    0  0.12634455657E+03  0.69986126828E+02 -0.24508326662E+02  0.19257819379E+03  0.12499879090E+03 0.  0.
    9000005    1    3    3    0    0  0.94173856632E+02 -0.81150497956E+01 -0.46417609778E+02  0.10530984666E+03  0.10000000000E+01 0.  0.
    9000005    1    3    3    0    0  0.32170699933E+02  0.78101176624E+02  0.21909283116E+02  0.87268347130E+02  0.10000000000E+01 0.  0.
         21    1    1    2  502  501 -0.12634455657E+03 -0.69986126828E+02 -0.14332442790E+03  0.20347701727E+03  0.00000000000E+00 0. -1.
<mgrwt>
<rscale>  1 0.19101231E+03</rscale>
<asrwt>0</asrwt>
<pdfrwt beam="2">  1        4 0.43375997E-01 0.19101231E+03</pdfrwt>
<pdfrwt beam="1">  1       -4 0.17555574E-01 0.19101231E+03</pdfrwt>
<totfact> 0.26065199E+02</totfact>
</mgrwt>
</event>
<event>
 6    4  0.1195577E-003  0.1284857E+03  0.7818608E-02  0.1229720E+00
         -4   -1    0    0    0  501 -0.00000000000E+00  0.00000000000E+00  0.26428369778E+03  0.26428674921E+03  0.12700000000E+01 0.  1.
          4   -1    0    0  502    0  0.00000000000E+00 -0.00000000000E+00 -0.30481340749E+02  0.30507786446E+02  0.12700000000E+01 0.  1.
         25    2    1    2    0    0 -0.65776163016E+01  0.28993324899E+02  0.23176177387E+03  0.26499450370E+03  0.12499875696E+03 0.  0.
    9000005    1    3    3    0    0 -0.15428460337E+00  0.36800156162E+02  0.24531196479E+03  0.24805893527E+03  0.10000000000E+01 0.  0.
    9000005    1    3    3    0    0 -0.64233316983E+01 -0.78068312620E+01 -0.13550190916E+02  0.16935568438E+02  0.10000000000E+01 0.  0.
         21    1    1    2  502  501  0.65776163016E+01 -0.28993324899E+02  0.20405831552E+01  0.29800031956E+02  0.00000000000E+00 0. -1.
<mgrwt>
<rscale>  1 0.12848567E+03</rscale>
<asrwt>0</asrwt>
<pdfrwt beam="2">  1        4 0.46917060E-02 0.12848567E+03</pdfrwt>
<pdfrwt beam="1">  1       -4 0.40661300E-01 0.12848567E+03</pdfrwt>
<totfact> 0.25263707E+03</totfact>
</mgrwt>
</event>
<event>
 6    4  0.1195577E-003  0.1314243E+03  0.7818608E-02  0.1225358E+00
          4   -1    0    0  502    0  0.00000000000E+00  0.00000000000E+00  0.94296364156E+01  0.95147749806E+01  0.12700000000E+01 0. -1.
         -4   -1    0    0    0  501 -0.00000000000E+00 -0.00000000000E+00 -0.97251907720E+03  0.97251990644E+03  0.12700000000E+01 0. -1.
         25    2    1    2    0    0  0.33196296736E+02  0.23164144738E+02 -0.87829775096E+03  0.88807616727E+03  0.12503506631E+03 0.  0.
    9000005    1    3    3    0    0 -0.21450983679E+02  0.41378805010E+02 -0.67953806615E+03  0.68113532690E+03  0.10000000000E+01 0.  0.
    9000005    1    3    3    0    0  0.54647280415E+02 -0.18214660271E+02 -0.19875968481E+03  0.20694084037E+03  0.10000000000E+01 0.  0.
         21    1    1    2  502  501 -0.33196296736E+02 -0.23164144738E+02 -0.84791689825E+02  0.93958514153E+02  0.00000000000E+00 0. -1.
<mgrwt>
<rscale>  1 0.13142427E+03</rscale>
<asrwt>0</asrwt>
<pdfrwt beam="1">  1        4 0.14573270E-02 0.13142427E+03</pdfrwt>
<pdfrwt beam="2">  1       -4 0.14962485E+00 0.13142427E+03</pdfrwt>
<totfact> 0.87461831E+02</totfact>
</mgrwt>
</event>
<event>
 6    4  0.1195577E-003  0.1274766E+03  0.7818608E-02  0.1231249E+00
         -4   -1    0    0    0  501 -0.00000000000E+00  0.00000000000E+00  0.50328127332E+03  0.50328287570E+03  0.12700000000E+01 0.  1.
          4   -1    0    0  502    0  0.00000000000E+00 -0.00000000000E+00 -0.13682374088E+02  0.13741188474E+02  0.12700000000E+01 0.  1.
         25    2    1    2    0    0  0.78713906094E+01 -0.23741600964E+02  0.46416575045E+03  0.48135240227E+03  0.12499867547E+03 0.  0.
    9000005    1    3    3    0    0  0.25787635276E+02  0.34350212791E+02  0.67222293104E+02  0.79779545888E+02  0.10000000000E+01 0.  0.
    9000005    1    3    3    0    0 -0.17916244667E+02 -0.58091813755E+02  0.39694345735E+03  0.40157285638E+03  0.10000000000E+01 0.  0.
         21    1    1    2  502  501 -0.78713906094E+01  0.23741600964E+02  0.25433148775E+02  0.35671661905E+02  0.00000000000E+00 0.  1.
<mgrwt>
<rscale>  1 0.12747663E+03</rscale>
<asrwt>0</asrwt>
<pdfrwt beam="2">  1        4 0.21096281E-02 0.12747663E+03</pdfrwt>
<pdfrwt beam="1">  1       -4 0.77432534E-01 0.12747663E+03</pdfrwt>
<totfact> 0.23196029E+03</totfact>
</mgrwt>
</event>
<event>
 6    4  0.1195577E-003  0.1298173E+03  0.7818608E-02  0.1227727E+00
         -4   -1    0    0    0  501 -0.00000000000E+00  0.00000000000E+00  0.14378753270E+02  0.14434730534E+02  0.12700000000E+01 0.  1.
          4   -1    0    0  502    0  0.00000000000E+00 -0.00000000000E+00 -0.47415799599E+03  0.47415969679E+03  0.12700000000E+01 0.  1.
         25    2    1    2    0    0  0.29140605332E+02  0.19447577956E+02 -0.34642722692E+03  0.36995184368E+03  0.12500063970E+03 0.  0.
    9000005    1    3    3    0    0 -0.10601409406E+01 -0.33999146990E+02 -0.23782146794E+02  0.41516941133E+02  0.10000000000E+01 0.  0.
    9000005    1    3    3    0    0  0.30200746273E+02  0.53446724947E+02 -0.32264508013E+03  0.32843490255E+03  0.10000000000E+01 0.  0.
         21    1    1    2  502  501 -0.29140605332E+02 -0.19447577956E+02 -0.11335201579E+03  0.11864258364E+03  0.00000000000E+00 0.  1.
<mgrwt>
<rscale>  1 0.12981735E+03</rscale>
<asrwt>0</asrwt>
<pdfrwt beam="2">  1        4 0.72951809E-01 0.12981735E+03</pdfrwt>
<pdfrwt beam="1">  1       -4 0.22165530E-02 0.12981735E+03</pdfrwt>
<totfact> 0.24583426E+03</totfact>
</mgrwt>
</event>
<event>
 6    4  0.1195577E-003  0.1319313E+03  0.7818608E-02  0.1224618E+00
          4   -1    0    0  502    0  0.00000000000E+00  0.00000000000E+00  0.12149395822E+04  0.12149402460E+04  0.12700000000E+01 0. -1.
         -4   -1    0    0    0  501 -0.00000000000E+00 -0.00000000000E+00 -0.68096233598E+01  0.69270390718E+01  0.12700000000E+01 0. -1.
         25    2    1    2    0    0  0.32991018398E+02 -0.26317786580E+02  0.72570336557E+03  0.73759829877E+03  0.12499936941E+03 0.  0.
    9000005    1    3    3    0    0  0.22272934015E+02  0.46494836628E+02  0.19041519483E+03  0.19727341393E+03  0.10000000000E+01 0.  0.
    9000005    1    3    3    0    0  0.10718084383E+02 -0.72812623208E+02  0.53528817075E+03  0.54032488483E+03  0.10000000000E+01 0.  0.
         21    1    1    2  502  501 -0.32991018398E+02  0.26317786580E+02  0.48242659330E+03  0.48426898631E+03  0.00000000000E+00 0.  1.
<mgrwt>
<rscale>  1 0.13193133E+03</rscale>
<asrwt>0</asrwt>
<pdfrwt beam="1">  1        4 0.18692282E+00 0.13193133E+03</pdfrwt>
<pdfrwt beam="2">  1       -4 0.10567177E-02 0.13193133E+03</pdfrwt>
<totfact> 0.79036450E+02</totfact>
</mgrwt>
</event>
<event>
 6    4  0.1195577E-003  0.1283290E+03  0.7818608E-02  0.1229956E+00
         -4   -1    0    0    0  501 -0.00000000000E+00  0.00000000000E+00  0.17526269700E+04  0.17526274302E+04  0.12700000000E+01 0. -1.
          4   -1    0    0  502    0  0.00000000000E+00 -0.00000000000E+00 -0.40446155678E+01  0.42393177625E+01  0.12700000000E+01 0. -1.
         25    2    1    2    0    0  0.19173661357E+01 -0.28978453563E+02  0.16186128629E+04  0.16236920664E+04  0.12499959791E+03 0.  0.
    9000005    1    3    3    0    0 -0.33559579881E+02 -0.53183493188E+02  0.13664011825E+04  0.13678479158E+04  0.10000000000E+01 0.  0.
    9000005    1    3    3    0    0  0.35476946016E+02  0.24205039625E+02  0.25221168048E+03  0.25584415063E+03  0.10000000000E+01 0.  0.
         21    1    1    2  502  501 -0.19173661357E+01  0.28978453563E+02  0.12996949151E+03  0.13317468148E+03  0.00000000000E+00 0. -1.
<mgrwt>
<rscale>  1 0.12832898E+03</rscale>
<asrwt>0</asrwt>
<pdfrwt beam="2">  1        4 0.63725994E-03 0.12832898E+03</pdfrwt>
<pdfrwt beam="1">  1       -4 0.26965040E+00 0.12832898E+03</pdfrwt>
<totfact> 0.54015327E+02</totfact>
</mgrwt>
</event>
<event>
 6    4  0.1195577E-003  0.1292997E+03  0.7818608E-02  0.1228498E+00
          4   -1    0    0  502    0  0.00000000000E+00  0.00000000000E+00  0.61419489770E+03  0.61419621072E+03  0.12700000000E+01 0. -1.
         -4   -1    0    0    0  501 -0.00000000000E+00 -0.00000000000E+00 -0.10691145989E+02  0.10766313323E+02  0.12700000000E+01 0. -1.
         25    2    1    2    0    0  0.90207276050E+01 -0.31805017115E+02  0.48203591030E+03  0.49907618984E+03  0.12500196723E+03 0.  0.
    9000005    1    3    3    0    0  0.15747962426E+02 -0.52547580890E+02  0.83313206910E+02  0.99756388385E+02  0.10000000000E+01 0.  0.
    9000005    1    3    3    0    0 -0.67272348210E+01  0.20742563775E+02  0.39872270339E+03  0.39931980146E+03  0.10000000000E+01 0.  0.
         21    1    1    2  502  501 -0.90207276050E+01  0.31805017115E+02  0.12146784141E+03  0.12588633420E+03  0.00000000000E+00 0. -1.
<mgrwt>
<rscale>  1 0.12929975E+03</rscale>
<asrwt>0</asrwt>
<pdfrwt beam="1">  1        4 0.94497447E-01 0.12929975E+03</pdfrwt>
<pdfrwt beam="2">  1       -4 0.16506741E-02 0.12929975E+03</pdfrwt>
<totfact> 0.21726449E+03</totfact>
</mgrwt>
</event>
<event>
 6    4  0.1195577E-003  0.1292991E+03  0.7818608E-02  0.1228499E+00
         -4   -1    0    0    0  501 -0.00000000000E+00  0.00000000000E+00  0.99649797435E+02  0.99657889947E+02  0.12700000000E+01 0.  1.
          4   -1    0    0  502    0  0.00000000000E+00 -0.00000000000E+00 -0.74995370692E+02  0.75006123252E+02  0.12700000000E+01 0.  1.
         25    2    1    2    0    0  0.32455768577E+02  0.63137403364E+01  0.43727515392E+02  0.13649304332E+03  0.12500006016E+03 0.  0.
    9000005    1    3    3    0    0 -0.40524821415E+02  0.24118091959E+02 -0.42377360122E+01  0.47359285435E+02  0.10000000000E+01 0.  0.
    9000005    1    3    3    0    0  0.72980589991E+02 -0.17804351623E+02  0.47965251405E+02  0.89133757884E+02  0.10000000000E+01 0.  0.
         21    1    1    2  502  501 -0.32455768577E+02 -0.63137403364E+01 -0.19073088650E+02  0.38170969880E+02  0.00000000000E+00 0.  1.
<mgrwt>
<rscale>  1 0.12929909E+03</rscale>
<asrwt>0</asrwt>
<pdfrwt beam="2">  1        4 0.11539199E-01 0.12929909E+03</pdfrwt>
<pdfrwt beam="1">  1       -4 0.15332188E-01 0.12929909E+03</pdfrwt>
<totfact> 0.34873774E+03</totfact>
</mgrwt>
</event>
<event>
 6    4  0.1195577E-003  0.1266843E+03  0.7818608E-02  0.1232460E+00
          4   -1    0    0  502    0  0.00000000000E+00  0.00000000000E+00  0.27776122237E+01  0.30541823235E+01  0.12700000000E+01 0. -1.
         -4   -1    0    0    0  501 -0.00000000000E+00 -0.00000000000E+00 -0.20440023661E+04  0.20440027607E+04  0.12700000000E+01 0. -1.
         25    2    1    2    0    0 -0.17051565364E+02 -0.11489095175E+02 -0.19133869959E+04  0.19175762589E+04  0.12500462922E+03 0.  0.
    9000005    1    3    3    0    0 -0.96588179607E+01  0.27866995493E+02 -0.17114648512E+04  0.17117192525E+04  0.10000000000E+01 0.  0.
    9000005    1    3    3    0    0 -0.73927474030E+01 -0.39356090668E+02 -0.20192214471E+03  0.20585700646E+03  0.10000000000E+01 0.  0.
         21    1    1    2  502  501  0.17051565364E+02  0.11489095175E+02 -0.12783775797E+03  0.12948068409E+03  0.00000000000E+00 0.  1.
<mgrwt>
<rscale>  1 0.12668430E+03</rscale>
<asrwt>0</asrwt>
<pdfrwt beam="1">  1        4 0.44863157E-03 0.12668430E+03</pdfrwt>
<pdfrwt beam="2">  1       -4 0.31448206E+00 0.12668430E+03</pdfrwt>
<totfact> 0.50009716E+02</totfact>
</mgrwt>
</event>
<event>
 6    4  0.1195577E-003  0.1294643E+03  0.7818608E-02  0.1228253E+00
         -4   -1    0    0    0  501 -0.00000000000E+00  0.00000000000E+00  0.11806563035E+03  0.11807246068E+03  0.12700000000E+01 0.  1.
          4   -1    0    0  502    0  0.00000000000E+00 -0.00000000000E+00 -0.91003272161E+02  0.91012133499E+02  0.12700000000E+01 0.  1.
         25    2    1    2    0    0  0.27038851352E+02  0.20148265521E+02  0.75646869891E+02  0.14994487095E+03  0.12499585318E+03 0.  0.
    9000005    1    3    3    0    0 -0.30965417695E+02 -0.35826308176E+02  0.39166849242E+02  0.61460747881E+02  0.10000000000E+01 0.  0.
    9000005    1    3    3    0    0  0.58004269048E+02  0.55974573697E+02  0.36480020649E+02  0.88484123066E+02  0.10000000000E+01 0.  0.
         21    1    1    2  502  501 -0.27038851352E+02 -0.20148265521E+02 -0.48584511703E+02  0.59139723227E+02  0.00000000000E+00 0.  1.
<mgrwt>
<rscale>  1 0.12946434E+03</rscale>
<asrwt>0</asrwt>
<pdfrwt beam="2">  1        4 0.14001710E-01 0.12946434E+03</pdfrwt>
<pdfrwt beam="1">  1       -4 0.18165150E-01 0.12946434E+03</pdfrwt>
<totfact> 0.18558267E+03</totfact>
</mgrwt>
</event>
<event>
 6    4  0.1195577E-003  0.1483238E+03  0.7818608E-02  0.1202548E+00
          4   -1    0    0  502    0  0.00000000000E+00  0.00000000000E+00  0.14072995556E+03  0.14073568592E+03  0.12700000000E+01 0.  1.
         -4   -1    0    0    0  501 -0.00000000000E+00 -0.00000000000E+00 -0.94914508558E+02  0.94923004771E+02  0.12700000000E+01 0.  1.
         25    2    1    2    0    0 -0.46559425344E+02 -0.64870124350E+02  0.11566120565E+02  0.14877411506E+03  0.12499619612E+03 0.  0.
    9000005    1    3    3    0    0 -0.61073467926E+02  0.78285979067E+01 -0.24563158121E+02  0.66299352686E+02  0.10000000000E+01 0.  0.
    9000005    1    3    3    0    0  0.14514042582E+02 -0.72698722257E+02  0.36129278686E+02  0.82474762371E+02  0.10000000000E+01 0.  0.
         21    1    1    2  502  501  0.46559425344E+02  0.64870124350E+02  0.34249326434E+02  0.86884575632E+02  0.00000000000E+00 0.  1.
<mgrwt>
<rscale>  1 0.14832384E+03</rscale>
<asrwt>0</asrwt>
<pdfrwt beam="1">  1        4 0.21651857E-01 0.14832384E+03</pdfrwt>
<pdfrwt beam="2">  1       -4 0.14603327E-01 0.14832384E+03</pdfrwt>
<totfact> 0.12953913E+03</totfact>
</mgrwt>
</event>
<event>
 6    4  0.1195577E-003  0.1296643E+03  0.7818608E-02  0.1227955E+00
         -4   -1    0    0    0  501 -0.00000000000E+00  0.00000000000E+00  0.13615409559E+02  0.13674511964E+02  0.12700000000E+01 0.  1.
          4   -1    0    0  502    0  0.00000000000E+00 -0.00000000000E+00 -0.50111132481E+03  0.50111293413E+03  0.12700000000E+01 0.  1.
         25    2    1    2    0    0 -0.11063478176E+02 -0.32638319846E+02 -0.35701853494E+03  0.37983557600E+03  0.12500068010E+03 0.  0.
    9000005    1    3    3    0    0  0.54905185586E+01 -0.77102198085E+02 -0.16769731435E+03  0.18465720669E+03  0.10000000000E+01 0.  0.
    9000005    1    3    3    0    0 -0.16553996735E+02  0.44463878240E+02 -0.18932122060E+03  0.19517836930E+03  0.10000000000E+01 0.  0.
         21    1    1    2  502  501  0.11063478176E+02  0.32638319846E+02 -0.13047738031E+03  0.13495187010E+03  0.00000000000E+00 0.  1.
<mgrwt>
<rscale>  1 0.12966430E+03</rscale>
<asrwt>0</asrwt>
<pdfrwt beam="2">  1        4 0.77098706E-01 0.12966430E+03</pdfrwt>
<pdfrwt beam="1">  1       -4 0.20993489E-02 0.12966430E+03</pdfrwt>
<totfact> 0.23688312E+03</totfact>
</mgrwt>
</event>
<event>
 6    4  0.1195577E-003  0.1288520E+03  0.7818608E-02  0.1229169E+00
         -4   -1    0    0    0  501 -0.00000000000E+00  0.00000000000E+00  0.18649344680E+02  0.18692537468E+02  0.12700000000E+01 0. -1.
          4   -1    0    0  502    0  0.00000000000E+00 -0.00000000000E+00 -0.34500760173E+03  0.34500993921E+03  0.12700000000E+01 0. -1.
         25    2    1    2    0    0 -0.27931767805E+02 -0.14041594970E+02 -0.25174628003E+03  0.28280564635E+03  0.12500197621E+03 0.  0.
    9000005    1    3    3    0    0  0.29296874360E+02 -0.26787904060E+02 -0.20212422198E+03  0.20598810587E+03  0.10000000000E+01 0.  0.
    9000005    1    3    3    0    0 -0.57228642165E+02  0.12746309090E+02 -0.49622058052E+02  0.76817540476E+02  0.10000000000E+01 0.  0.
         21    1    1    2  502  501  0.27931767805E+02  0.14041594970E+02 -0.74611977021E+02  0.80896830327E+02  0.00000000000E+00 0. -1.
<mgrwt>
<rscale>  1 0.12885202E+03</rscale>
<asrwt>0</asrwt>
<pdfrwt beam="2">  1        4 0.53081590E-01 0.12885202E+03</pdfrwt>
<pdfrwt beam="1">  1       -4 0.28726325E-02 0.12885202E+03</pdfrwt>
<totfact> 0.32105507E+03</totfact>
</mgrwt>
</event>
<event>
 6    4  0.1195577E-003  0.1285290E+03  0.7818608E-02  0.1229655E+00
         -4   -1    0    0    0  501 -0.00000000000E+00  0.00000000000E+00  0.98278523802E+03  0.98278605859E+03  0.12700000000E+01 0. -1.
          4   -1    0    0  502    0  0.00000000000E+00 -0.00000000000E+00 -0.66366523537E+01  0.67570744013E+01  0.12700000000E+01 0. -1.
         25    2    1    2    0    0 -0.50400510838E+00  0.29912566655E+02  0.86244557524E+03  0.87197021840E+03  0.12499870349E+03 0.  0.
    9000005    1    3    3    0    0 -0.19635942409E+02  0.89540110517E+01  0.21277034770E+02  0.30322545355E+02  0.10000000000E+01 0.  0.
    9000005    1    3    3    0    0  0.19131937301E+02  0.20958555604E+02  0.84116854047E+03  0.84164767305E+03  0.10000000000E+01 0.  0.
         21    1    1    2  502  501  0.50400510838E+00 -0.29912566655E+02  0.11370301043E+03  0.11757291459E+03  0.00000000000E+00 0.  1.
<mgrwt>
<rscale>  1 0.12852895E+03</rscale>
<asrwt>0</asrwt>
<pdfrwt beam="2">  1        4 0.10303497E-02 0.12852895E+03</pdfrwt>
<pdfrwt beam="1">  1       -4 0.15120708E+00 0.12852895E+03</pdfrwt>
<totfact> 0.14324370E+03</totfact>
</mgrwt>
</event>
<event>
 6    4  0.1195577E-003  0.1273421E+03  0.7818608E-02  0.1231454E+00
         -4   -1    0    0    0  501 -0.00000000000E+00  0.00000000000E+00  0.18379454155E+02  0.18423279704E+02  0.12700000000E+01 0. -1.
          4   -1    0    0  502    0  0.00000000000E+00 -0.00000000000E+00 -0.37379665965E+03  0.37379881710E+03  0.12700000000E+01 0. -1.
         25    2    1    2    0    0  0.14141428746E+02 -0.19703811352E+02 -0.21625792200E+03  0.25096514522E+03  0.12501117989E+03 0.  0.
    9000005    1    3    3    0    0  0.61793198433E+02  0.40743781549E+01 -0.61438281763E+02  0.87239110472E+02  0.10000000000E+01 0.  0.
    9000005    1    3    3    0    0 -0.47651769687E+02 -0.23778189507E+02 -0.15481964023E+03  0.16372603474E+03  0.10000000000E+01 0.  0.
         21    1    1    2  502  501 -0.14141428746E+02  0.19703811352E+02 -0.13915928350E+03  0.14125695159E+03  0.00000000000E+00 0. -1.
<mgrwt>
<rscale>  1 0.12734212E+03</rscale>
<asrwt>0</asrwt>
<pdfrwt beam="2">  1        4 0.57510710E-01 0.12734212E+03</pdfrwt>
<pdfrwt beam="1">  1       -4 0.28311458E-02 0.12734212E+03</pdfrwt>
<totfact> 0.27747671E+03</totfact>
</mgrwt>
</event>
<event>
 6    4  0.1195577E-003  0.1652072E+03  0.7818608E-02  0.1182940E+00
          4   -1    0    0  502    0  0.00000000000E+00  0.00000000000E+00  0.15685199767E+04  0.15685204909E+04  0.12700000000E+01 0. -1.
         -4   -1    0    0    0  501 -0.00000000000E+00 -0.00000000000E+00 -0.15891285012E+02  0.15941952180E+02  0.12700000000E+01 0. -1.
         25    2    1    2    0    0  0.95275523134E+02  0.50912929589E+02  0.50630109158E+03  0.53257319104E+03  0.12499542698E+03 0.  0.
    9000005    1    3    3    0    0  0.54894904902E+02 -0.38266687406E+02  0.18800608002E+03  0.19956221104E+03  0.10000000000E+01 0.  0.
    9000005    1    3    3    0    0  0.40380618231E+02  0.89179616995E+02  0.31829501156E+03  0.33301098000E+03  0.10000000000E+01 0.  0.
         21    1    1    2  502  501 -0.95275523134E+02 -0.50912929589E+02  0.10463276001E+04  0.10518892520E+04  0.00000000000E+00 0. -1.
<mgrwt>
<rscale>  1 0.16520717E+03</rscale>
<asrwt>0</asrwt>
<pdfrwt beam="1">  1        4 0.24131475E+00 0.16520717E+03</pdfrwt>
<pdfrwt beam="2">  1       -4 0.24487496E-02 0.16520717E+03</pdfrwt>
<totfact> 0.10550830E+02</totfact>
</mgrwt>
</event>
<event>
 6    4  0.1195577E-003  0.1679051E+03  0.7818608E-02  0.1180050E+00
          4   -1    0    0  502    0  0.00000000000E+00  0.00000000000E+00  0.15329160147E+03  0.15329686227E+03  0.12700000000E+01 0.  1.
         -4   -1    0    0    0  501 -0.00000000000E+00 -0.00000000000E+00 -0.12790584110E+03  0.12791214597E+03  0.12700000000E+01 0.  1.
         25    2    1    2    0    0 -0.79540394421E+02  0.78994530676E+02  0.17926468107E+02  0.16885932527E+03  0.12500121300E+03 0.  0.
    9000005    1    3    3    0    0  0.18154779833E+02  0.11668055860E+01  0.38192712200E+02  0.42315963078E+02  0.10000000000E+01 0.  0.
    9000005    1    3    3    0    0 -0.97695174255E+02  0.77827725090E+02 -0.20266244093E+02  0.12654336219E+03  0.10000000000E+01 0.  0.
         21    1    1    2  502  501  0.79540394421E+02 -0.78994530676E+02  0.74592922656E+01  0.11234968297E+03  0.00000000000E+00 0.  1.
<mgrwt>
<rscale>  1 0.16790507E+03</rscale>
<asrwt>0</asrwt>
<pdfrwt beam="1">  1        4 0.23584213E-01 0.16790507E+03</pdfrwt>
<pdfrwt beam="2">  1       -4 0.19678711E-01 0.16790507E+03</pdfrwt>
<totfact> 0.66883965E+02</totfact>
</mgrwt>
</event>
<event>
 6    4  0.1195577E-003  0.1324015E+03  0.7818608E-02  0.1223935E+00
          4   -1    0    0  502    0  0.00000000000E+00  0.00000000000E+00  0.23324829617E+02  0.23359378773E+02  0.12700000000E+01 0.  1.
         -4   -1    0    0    0  501 -0.00000000000E+00 -0.00000000000E+00 -0.33343344890E+03  0.33343586752E+03  0.12700000000E+01 0.  1.
         25    2    1    2    0    0 -0.27585028416E+02  0.33841845310E+02 -0.24312026044E+03  0.27683497799E+03  0.12499575878E+03 0.  0.
    9000005    1    3    3    0    0 -0.58428484212E+00  0.18545582022E+02  0.10485263209E+02  0.21335902743E+02  0.10000000000E+01 0.  0.
    9000005    1    3    3    0    0 -0.27000743574E+02  0.15296263288E+02 -0.25360552365E+03  0.25549907524E+03  0.10000000000E+01 0.  0.
         21    1    1    2  502  501  0.27585028416E+02 -0.33841845310E+02 -0.66988358840E+02  0.79960268301E+02  0.00000000000E+00 0.  1.
<mgrwt>
<rscale>  1 0.13240145E+03</rscale>
<asrwt>0</asrwt>
<pdfrwt beam="1">  1        4 0.35912792E-02 0.13240145E+03</pdfrwt>
<pdfrwt beam="2">  1       -4 0.51300294E-01 0.13240145E+03</pdfrwt>
<totfact> 0.24406917E+03</totfact>
</mgrwt>
</event>
<event>
 6    4  0.1195577E-003  0.1313679E+03  0.7818608E-02  0.1225440E+00
         -4   -1    0    0    0  501 -0.00000000000E+00  0.00000000000E+00  0.59178162825E+01  0.60525572739E+01  0.12700000000E+01 0. -1.
          4   -1    0    0  502    0  0.00000000000E+00 -0.00000000000E+00 -0.13879149938E+04  0.13879155749E+04  0.12700000000E+01 0. -1.
         25    2    1    2    0    0  0.33498020717E+02 -0.22586372551E+02 -0.81364845267E+03  0.82418524834E+03  0.12500102974E+03 0.  0.
    9000005    1    3    3    0    0  0.29694357094E+02  0.21891126605E+02 -0.69433065099E+02  0.78631589048E+02  0.10000000000E+01 0.  0.
    9000005    1    3    3    0    0  0.38036636234E+01 -0.44477499156E+02 -0.74421538757E+03  0.74555365929E+03  0.10000000000E+01 0.  0.
         21    1    1    2  502  501 -0.33498020717E+02  0.22586372551E+02 -0.56834872489E+03  0.56978288382E+03  0.00000000000E+00 0. -1.
<mgrwt>
<rscale>  1 0.13136788E+03</rscale>
<asrwt>0</asrwt>
<pdfrwt beam="2">  1        4 0.21353554E+00 0.13136788E+03</pdfrwt>
<pdfrwt beam="1">  1       -4 0.92084377E-03 0.13136788E+03</pdfrwt>
<totfact> 0.66408252E+02</totfact>
</mgrwt>
</event>
<event>
 6    4  0.1195577E-003  0.1287344E+03  0.7818608E-02  0.1229346E+00
         -4   -1    0    0    0  501 -0.00000000000E+00  0.00000000000E+00  0.21539135961E+02  0.21576544624E+02  0.12700000000E+01 0. -1.
          4   -1    0    0  502    0  0.00000000000E+00 -0.00000000000E+00 -0.33713649988E+03  0.33713889193E+03  0.12700000000E+01 0. -1.
         25    2    1    2    0    0  0.13871267511E+02  0.27541141663E+02 -0.19082193452E+03  0.23018592893E+03  0.12498649783E+03 0.  0.
    9000005    1    3    3    0    0  0.30821910298E+02 -0.44389867945E+02 -0.68315598654E+02  0.87111833582E+02  0.10000000000E+01 0.  0.
    9000005    1    3    3    0    0 -0.16950642787E+02  0.71931009608E+02 -0.12250633586E+03  0.14307409535E+03  0.10000000000E+01 0.  0.
         21    1    1    2  502  501 -0.13871267511E+02 -0.27541141663E+02 -0.12477542940E+03  0.12852950762E+03  0.00000000000E+00 0. -1.
<mgrwt>
<rscale>  1 0.12873442E+03</rscale>
<asrwt>0</asrwt>
<pdfrwt beam="2">  1        4 0.51870212E-01 0.12873442E+03</pdfrwt>
<pdfrwt beam="1">  1       -4 0.33167751E-02 0.12873442E+03</pdfrwt>
<totfact> 0.26866736E+03</totfact>
</mgrwt>
</event>
<event>
 6    4  0.1195577E-003  0.1342340E+03  0.7818608E-02  0.1221305E+00
         -4   -1    0    0    0  501 -0.00000000000E+00  0.00000000000E+00  0.96754102915E+02  0.96762437603E+02  0.12700000000E+01 0.  1.
          4   -1    0    0  502    0  0.00000000000E+00 -0.00000000000E+00 -0.89101679688E+02  0.89110730124E+02  0.12700000000E+01 0.  1.
         25    2    1    2    0    0 -0.48790420974E+01 -0.48688141342E+02  0.19191699718E+02  0.13559896897E+03  0.12499767553E+03 0.  0.
    9000005    1    3    3    0    0 -0.47504245982E+02  0.18007290896E+02 -0.89331884453E+01  0.51591838187E+02  0.10000000000E+01 0.  0.
    9000005    1    3    3    0    0  0.42625203885E+02 -0.66695432238E+02  0.28124888163E+02  0.84007130779E+02  0.10000000000E+01 0.  0.
         21    1    1    2  502  501  0.48790420974E+01  0.48688141342E+02 -0.11539276490E+02  0.50274198760E+02  0.00000000000E+00 0.  1.
<mgrwt>
<rscale>  1 0.13423397E+03</rscale>
<asrwt>0</asrwt>
<pdfrwt beam="2">  1        4 0.13709288E-01 0.13423397E+03</pdfrwt>
<pdfrwt beam="1">  1       -4 0.14886584E-01 0.13423397E+03</pdfrwt>
<totfact> 0.27558509E+03</totfact>
</mgrwt>
</event>
<event>
 6    4  0.1195577E-003  0.1273101E+03  0.7818608E-02  0.1231503E+00
          4   -1    0    0  502    0  0.00000000000E+00  0.00000000000E+00  0.31822740497E+03  0.31822993915E+03  0.12700000000E+01 0. -1.
         -4   -1    0    0    0  501 -0.00000000000E+00 -0.00000000000E+00 -0.20379303805E+02  0.20418837469E+02  0.12700000000E+01 0. -1.
         25    2    1    2    0    0 -0.23886124535E+02 -0.33794895208E+01  0.19405293790E+03  0.23208703953E+03  0.12500353322E+03 0.  0.
    9000005    1    3    3    0    0  0.47544839154E+02  0.79811145463E+00  0.12012377557E+03  0.12919702074E+03  0.10000000000E+01 0.  0.
    9000005    1    3    3    0    0 -0.71430963689E+02 -0.41776009755E+01  0.73929162337E+02  0.10289001879E+03  0.10000000000E+01 0.  0.
         21    1    1    2  502  501  0.23886124535E+02  0.33794895208E+01  0.10379516326E+03  0.10656173709E+03  0.00000000000E+00 0.  1.
<mgrwt>
<rscale>  1 0.12731006E+03</rscale>
<asrwt>0</asrwt>
<pdfrwt beam="1">  1        4 0.48961297E-01 0.12731006E+03</pdfrwt>
<pdfrwt beam="2">  1       -4 0.31385136E-02 0.12731006E+03</pdfrwt>
<totfact> 0.32868218E+03</totfact>
</mgrwt>
</event>
<event>
 6    4  0.1195577E-003  0.1267058E+03  0.7818608E-02  0.1232427E+00
         -4   -1    0    0    0  501 -0.00000000000E+00  0.00000000000E+00  0.31375907320E+03  0.31376164347E+03  0.12700000000E+01 0. -1.
          4   -1    0    0  502    0  0.00000000000E+00 -0.00000000000E+00 -0.30679647316E+02  0.30705922221E+02  0.12700000000E+01 0. -1.
         25    2    1    2    0    0  0.10636129994E+02  0.17782761425E+02  0.29464776657E+03  0.32073614409E+03  0.12500005565E+03 0.  0.
    9000005    1    3    3    0    0  0.34735216009E+02  0.62744399051E+02  0.20988116062E+03  0.22179832377E+03  0.10000000000E+01 0.  0.
    9000005    1    3    3    0    0 -0.24099086015E+02 -0.44961637626E+02  0.84766605952E+02  0.98937820318E+02  0.10000000000E+01 0.  0.
         21    1    1    2  502  501 -0.10636129994E+02 -0.17782761425E+02 -0.11568340689E+02  0.23731421606E+02  0.00000000000E+00 0.  1.
<mgrwt>
<rscale>  1 0.12670583E+03</rscale>
<asrwt>0</asrwt>
<pdfrwt beam="2">  1        4 0.47221641E-02 0.12670583E+03</pdfrwt>
<pdfrwt beam="1">  1       -4 0.48272850E-01 0.12670583E+03</pdfrwt>
<totfact> 0.17694245E+03</totfact>
</mgrwt>
</event>
<event>
 6    4  0.1195577E-003  0.1269261E+03  0.7818608E-02  0.1232090E+00
         -4   -1    0    0    0  501 -0.00000000000E+00  0.00000000000E+00  0.11253285800E+03  0.11254002413E+03  0.12700000000E+01 0.  1.
          4   -1    0    0  502    0  0.00000000000E+00 -0.00000000000E+00 -0.49524001181E+02  0.49540282528E+02  0.12700000000E+01 0.  1.
         25    2    1    2    0    0  0.21983384027E+02  0.13278222453E+01  0.49456056823E+02  0.13622086596E+03  0.12500076192E+03 0.  0.
    9000005    1    3    3    0    0  0.29497236075E+02 -0.58228845524E+02  0.36532733302E+02  0.74808595694E+02  0.10000000000E+01 0.  0.
    9000005    1    3    3    0    0 -0.75138520480E+01  0.59556667769E+02  0.12923323521E+02  0.61412270266E+02  0.10000000000E+01 0.  0.
         21    1    1    2  502  501 -0.21983384027E+02 -0.13278222453E+01  0.13552800001E+02  0.25859440695E+02  0.00000000000E+00 0.  1.
<mgrwt>
<rscale>  1 0.12692605E+03</rscale>
<asrwt>0</asrwt>
<pdfrwt beam="2">  1        4 0.76208809E-02 0.12692605E+03</pdfrwt>
<pdfrwt beam="1">  1       -4 0.17314551E-01 0.12692605E+03</pdfrwt>
<totfact> 0.56157527E+03</totfact>
</mgrwt>
</event>
<event>
 6    4  0.1195577E-003  0.1276852E+03  0.7818608E-02  0.1230931E+00
         -4   -1    0    0    0  501 -0.00000000000E+00  0.00000000000E+00  0.91576843518E+01  0.92453276138E+01  0.12700000000E+01 0. -1.
          4   -1    0    0  502    0  0.00000000000E+00 -0.00000000000E+00 -0.13661443506E+04  0.13661449409E+04  0.12700000000E+01 0. -1.
         25    2    1    2    0    0  0.10337864537E+02  0.23891409847E+02 -0.44303150667E+03  0.46106444880E+03  0.12500335648E+03 0.  0.
    9000005    1    3    3    0    0 -0.12486208254E+02 -0.47693086588E+02 -0.12735582734E+03  0.13656882025E+03  0.10000000000E+01 0.  0.
    9000005    1    3    3    0    0  0.22824072791E+02  0.71584496435E+02 -0.31567567933E+03  0.32449562855E+03  0.10000000000E+01 0.  0.
         21    1    1    2  502  501 -0.10337864537E+02 -0.23891409847E+02 -0.91395515957E+03  0.91432581972E+03  0.00000000000E+00 0. -1.
<mgrwt>
<rscale>  1 0.12768520E+03</rscale>
<asrwt>0</asrwt>
<pdfrwt beam="2">  1        4 0.21018268E+00 0.12768520E+03</pdfrwt>
<pdfrwt beam="1">  1       -4 0.14156628E-02 0.12768520E+03</pdfrwt>
<totfact> 0.36159194E+02</totfact>
</mgrwt>
</event>
<event>
 6    4  0.1195577E-003  0.1352816E+03  0.7818608E-02  0.1219823E+00
         -4   -1    0    0    0  501 -0.00000000000E+00  0.00000000000E+00  0.25917995996E+02  0.25949092786E+02  0.12700000000E+01 0. -1.
          4   -1    0    0  502    0  0.00000000000E+00 -0.00000000000E+00 -0.78321801592E+03  0.78321904558E+03  0.12700000000E+01 0. -1.
         25    2    1    2    0    0 -0.27620938534E+02 -0.43741680173E+02 -0.15954495738E+03  0.20917866710E+03  0.12499948206E+03 0.  0.
    9000005    1    3    3    0    0 -0.33607887718E+02 -0.15420336927E+02 -0.17323617241E+03  0.17714132307E+03  0.10000000000E+01 0.  0.
    9000005    1    3    3    0    0  0.59869491837E+01 -0.28321343246E+02  0.13691215029E+02  0.32037344035E+02  0.10000000000E+01 0.  0.
         21    1    1    2  502  501  0.27620938534E+02  0.43741680173E+02 -0.59775506255E+03  0.59998947127E+03  0.00000000000E+00 0. -1.
<mgrwt>
<rscale>  1 0.13528164E+03</rscale>
<asrwt>0</asrwt>
<pdfrwt beam="2">  1        4 0.12049753E+00 0.13528164E+03</pdfrwt>
<pdfrwt beam="1">  1       -4 0.39898559E-02 0.13528164E+03</pdfrwt>
<totfact> 0.31438241E+02</totfact>
</mgrwt>
</event>
<event>
 6    4  0.1195577E-003  0.1594451E+03  0.7818608E-02  0.1189325E+00
         -4   -1    0    0    0  501 -0.00000000000E+00  0.00000000000E+00  0.16078874858E+04  0.16078879874E+04  0.12700000000E+01 0.  1.
          4   -1    0    0  502    0  0.00000000000E+00 -0.00000000000E+00 -0.18755290435E+02  0.18798239793E+02  0.12700000000E+01 0.  1.
         25    2    1    2    0    0 -0.73261174951E+02 -0.66562554822E+02  0.14328534346E+04  0.14416975126E+04  0.12499991684E+03 0.  0.
    9000005    1    3    3    0    0 -0.91191534272E+02 -0.77303611952E+02  0.13747933032E+04  0.13799816560E+04  0.10000000000E+01 0.  0.
    9000005    1    3    3    0    0  0.17930359321E+02  0.10741057130E+02  0.58060131393E+02  0.61715856560E+02  0.10000000000E+01 0.  0.
         21    1    1    2  502  501  0.73261174951E+02  0.66562554822E+02  0.15627876074E+03  0.18498871457E+03  0.00000000000E+00 0.  1.
<mgrwt>
<rscale>  1 0.15944514E+03</rscale>
<asrwt>0</asrwt>
<pdfrwt beam="2">  1        4 0.28887719E-02 0.15944514E+03</pdfrwt>
<pdfrwt beam="1">  1       -4 0.24737063E+00 0.15944514E+03</pdfrwt>
<totfact> 0.74810819E+01</totfact>
</mgrwt>
</event>
<event>
 6    4  0.1195577E-003  0.1320076E+03  0.7818608E-02  0.1224507E+00
         -4   -1    0    0    0  501 -0.00000000000E+00  0.00000000000E+00  0.28887902097E+03  0.28888181261E+03  0.12700000000E+01 0. -1.
          4   -1    0    0  502    0  0.00000000000E+00 -0.00000000000E+00 -0.26495492396E+02  0.26525912187E+02  0.12700000000E+01 0. -1.
         25    2    1    2    0    0 -0.17921953123E+02 -0.38468076636E+02  0.18700031296E+03  0.22889981464E+03  0.12500007508E+03 0.  0.
    9000005    1    3    3    0    0  0.65471467285E+01 -0.61499488152E+02  0.30755705643E+02  0.69079415189E+02  0.10000000000E+01 0.  0.
    9000005    1    3    3    0    0 -0.24469099851E+02  0.23031411516E+02  0.15624460732E+03  0.15982039945E+03  0.10000000000E+01 0.  0.
         21    1    1    2  502  501  0.17921953123E+02  0.38468076636E+02  0.75383215608E+02  0.86507910154E+02  0.00000000000E+00 0.  1.
<mgrwt>
<rscale>  1 0.13200761E+03</rscale>
<asrwt>0</asrwt>
<pdfrwt beam="2">  1        4 0.40787845E-02 0.13200761E+03</pdfrwt>
<pdfrwt beam="1">  1       -4 0.44445480E-01 0.13200761E+03</pdfrwt>
<totfact> 0.26640924E+03</totfact>
</mgrwt>
</event>
<event>
 6    4  0.1195577E-003  0.1278371E+03  0.7818608E-02  0.1230701E+00
         -4   -1    0    0    0  501 -0.00000000000E+00  0.00000000000E+00  0.51275957521E+03  0.51276114797E+03  0.12700000000E+01 0. -1.
          4   -1    0    0  502    0  0.00000000000E+00 -0.00000000000E+00 -0.22981759983E+02  0.23016824106E+02  0.12700000000E+01 0. -1.
         25    2    1    2    0    0  0.42948669471E+01 -0.26400821597E+02  0.49256648195E+03  0.50888511196E+03  0.12500747488E+03 0.  0.
    9000005    1    3    3    0    0 -0.30582323879E+02 -0.61878115898E+02  0.18783939449E+03  0.20012200750E+03  0.10000000000E+01 0.  0.
    9000005    1    3    3    0    0  0.34877190826E+02  0.35477294301E+02  0.30472708746E+03  0.30876310447E+03  0.10000000000E+01 0.  0.
         21    1    1    2  502  501 -0.42948669471E+01  0.26400821597E+02 -0.27886667208E+01  0.26892860115E+02  0.00000000000E+00 0.  1.
<mgrwt>
<rscale>  1 0.12783708E+03</rscale>
<asrwt>0</asrwt>
<pdfrwt beam="2">  1        4 0.35384742E-02 0.12783708E+03</pdfrwt>
<pdfrwt beam="1">  1       -4 0.78888893E-01 0.12783708E+03</pdfrwt>
<totfact> 0.99510471E+02</totfact>
</mgrwt>
</event>
<event>
 6    4  0.1195577E-003  0.1274071E+03  0.7818608E-02  0.1231355E+00
         -4   -1    0    0    0  501 -0.00000000000E+00  0.00000000000E+00  0.56339678407E+02  0.56353990658E+02  0.12700000000E+01 0. -1.
          4   -1    0    0  502    0  0.00000000000E+00 -0.00000000000E+00 -0.10535959144E+03  0.10536724542E+03  0.12700000000E+01 0. -1.
         25    2    1    2    0    0  0.40520333256E+01 -0.24311331365E+02 -0.30816514313E+02  0.13108100874E+03  0.12500045396E+03 0.  0.
    9000005    1    3    3    0    0  0.29434100418E+02  0.12645504827E+02  0.37518770453E+02  0.49345042264E+02  0.10000000000E+01 0.  0.
    9000005    1    3    3    0    0 -0.25382067092E+02 -0.36956836192E+02 -0.68335284766E+02  0.81735966472E+02  0.10000000000E+01 0.  0.
         21    1    1    2  502  501 -0.40520333256E+01  0.24311331365E+02 -0.18203398716E+02  0.30640227342E+02  0.00000000000E+00 0. -1.
<mgrwt>
<rscale>  1 0.12740712E+03</rscale>
<asrwt>0</asrwt>
<pdfrwt beam="2">  1        4 0.16210858E-01 0.12740712E+03</pdfrwt>
<pdfrwt beam="1">  1       -4 0.86693325E-02 0.12740712E+03</pdfrwt>
<totfact> 0.50995341E+03</totfact>
</mgrwt>
</event>
<event>
 6    4  0.1195577E-003  0.1297439E+03  0.7818608E-02  0.1227836E+00
         -4   -1    0    0    0  501 -0.00000000000E+00  0.00000000000E+00  0.39497329130E+02  0.39517741692E+02  0.12700000000E+01 0.  1.
          4   -1    0    0  502    0  0.00000000000E+00 -0.00000000000E+00 -0.18011823210E+03  0.18012270938E+03  0.12700000000E+01 0.  1.
         25    2    1    2    0    0  0.34510258086E+02 -0.42183797311E+01 -0.88744662938E+02  0.15719129639E+03  0.12499894328E+03 0.  0.
    9000005    1    3    3    0    0 -0.11748795474E+02 -0.49034942711E+02 -0.76490301727E+02  0.91620009059E+02  0.10000000000E+01 0.  0.
    9000005    1    3    3    0    0  0.46259053559E+02  0.44816562980E+02 -0.12254361211E+02  0.65571287331E+02  0.10000000000E+01 0.  0.
         21    1    1    2  502  501 -0.34510258086E+02  0.42183797311E+01 -0.51876240029E+02  0.62449154680E+02  0.00000000000E+00 0.  1.
<mgrwt>
<rscale>  1 0.12974393E+03</rscale>
<asrwt>0</asrwt>
<pdfrwt beam="2">  1        4 0.27712411E-01 0.12974393E+03</pdfrwt>
<pdfrwt beam="1">  1       -4 0.60784269E-02 0.12974393E+03</pdfrwt>
<totfact> 0.34794722E+03</totfact>
</mgrwt>
</event>
<event>
 6    4  0.1195577E-003  0.1270754E+03  0.7818608E-02  0.1231861E+00
          4   -1    0    0  502    0  0.00000000000E+00  0.00000000000E+00  0.22550325381E+02  0.22586059302E+02  0.12700000000E+01 0.  1.
         -4   -1    0    0    0  501 -0.00000000000E+00 -0.00000000000E+00 -0.53219061303E+03  0.53219212837E+03  0.12700000000E+01 0.  1.
         25    2    1    2    0    0 -0.22233097997E+02  0.54887137711E+01 -0.51567031664E+03  0.53109701635E+03  0.12499491466E+03 0.  0.
    9000005    1    3    3    0    0  0.32125172226E+02  0.43274100689E+02 -0.14795227900E+03  0.15746603235E+03  0.10000000000E+01 0.  0.
    9000005    1    3    3    0    0 -0.54358270223E+02 -0.37785386918E+02 -0.36771803763E+03  0.37363098400E+03  0.10000000000E+01 0.  0.
         21    1    1    2  502  501  0.22233097997E+02 -0.54887137711E+01  0.60300289892E+01  0.23681171318E+02  0.00000000000E+00 0.  1.
<mgrwt>
<rscale>  1 0.12707543E+03</rscale>
<asrwt>0</asrwt>
<pdfrwt beam="1">  1        4 0.34721466E-02 0.12707543E+03</pdfrwt>
<pdfrwt beam="2">  1       -4 0.81878335E-01 0.12707543E+03</pdfrwt>
<totfact> 0.94311360E+02</totfact>
</mgrwt>
</event>
<event>
 6    4  0.1195577E-003  0.1267381E+03  0.7818608E-02  0.1232378E+00
          4   -1    0    0  502    0  0.00000000000E+00  0.00000000000E+00  0.10570105052E+03  0.10570867979E+03  0.12700000000E+01 0. -1.
         -4   -1    0    0    0  501 -0.00000000000E+00 -0.00000000000E+00 -0.26148740970E+03  0.26149049377E+03  0.12700000000E+01 0. -1.
         25    2    1    2    0    0 -0.52997515909E+01  0.20223969770E+02 -0.24485435639E+03  0.27571035212E+03  0.12500178439E+03 0.  0.
    9000005    1    3    3    0    0  0.30648011187E+02 -0.42191499852E+02 -0.76458821664E+02  0.92554711710E+02  0.10000000000E+01 0.  0.
    9000005    1    3    3    0    0 -0.35947762778E+02  0.62415469622E+02 -0.16839553473E+03  0.18315564041E+03  0.10000000000E+01 0.  0.
         21    1    1    2  502  501  0.52997515909E+01 -0.20223969770E+02  0.89067997215E+02  0.91488821438E+02  0.00000000000E+00 0. -1.
<mgrwt>
<rscale>  1 0.12673809E+03</rscale>
<asrwt>0</asrwt>
<pdfrwt beam="1">  1        4 0.16262524E-01 0.12673809E+03</pdfrwt>
<pdfrwt beam="2">  1       -4 0.40229656E-01 0.12673809E+03</pdfrwt>
<totfact> 0.32280382E+02</totfact>
</mgrwt>
</event>
<event>
 6    4  0.1195577E-003  0.1268450E+03  0.7818608E-02  0.1232214E+00
          4   -1    0    0  502    0  0.00000000000E+00  0.00000000000E+00  0.38890678723E+02  0.38911409529E+02  0.12700000000E+01 0.  1.
         -4   -1    0    0    0  501 -0.00000000000E+00 -0.00000000000E+00 -0.20865752946E+03  0.20866139437E+03  0.12700000000E+01 0.  1.
         25    2    1    2    0    0  0.18447698854E+02  0.11173657318E+02 -0.18270630973E+03  0.22242130673E+03  0.12499789543E+03 0.  0.
    9000005    1    3    3    0    0  0.67913643274E+02  0.29175173896E+02 -0.99440353068E+02  0.12390656776E+03  0.10000000000E+01 0.  0.
    9000005    1    3    3    0    0 -0.49465944420E+02 -0.18001516578E+02 -0.83265956663E+02  0.98514738976E+02  0.10000000000E+01 0.  0.
         21    1    1    2  502  501 -0.18447698854E+02 -0.11173657318E+02  0.12939458991E+02  0.25151497170E+02  0.00000000000E+00 0.  1.
<mgrwt>
<rscale>  1 0.12684495E+03</rscale>
<asrwt>0</asrwt>
<pdfrwt beam="1">  1        4 0.59850734E-02 0.12684495E+03</pdfrwt>
<pdfrwt beam="2">  1       -4 0.32103050E-01 0.12684495E+03</pdfrwt>
<totfact> 0.26888882E+03</totfact>
</mgrwt>
</event>
<event>
 6    4  0.1195577E-003  0.1340065E+03  0.7818608E-02  0.1221629E+00
         -4   -1    0    0    0  501 -0.00000000000E+00  0.00000000000E+00  0.56369667072E+02  0.56383971710E+02  0.12700000000E+01 0. -1.
          4   -1    0    0  502    0  0.00000000000E+00 -0.00000000000E+00 -0.28862317576E+03  0.28862596987E+03  0.12700000000E+01 0. -1.
         25    2    1    2    0    0 -0.29858716652E+02  0.37962834716E+02 -0.30337179783E+02  0.13739750540E+03  0.12500004093E+03 0.  0.
    9000005    1    3    3    0    0  0.20969272353E+02 -0.10880037819E+02 -0.57246490700E+02  0.61937438625E+02  0.10000000000E+01 0.  0.
    9000005    1    3    3    0    0 -0.50827989005E+02  0.48842872535E+02  0.26909310917E+02  0.75460066775E+02  0.10000000000E+01 0.  0.
         21    1    1    2  502  501  0.29858716652E+02 -0.37962834716E+02 -0.20191632890E+03  0.20761243618E+03  0.00000000000E+00 0. -1.
<mgrwt>
<rscale>  1 0.13400646E+03</rscale>
<asrwt>0</asrwt>
<pdfrwt beam="2">  1        4 0.44404880E-01 0.13400646E+03</pdfrwt>
<pdfrwt beam="1">  1       -4 0.86735719E-02 0.13400646E+03</pdfrwt>
<totfact> 0.78580948E+02</totfact>
</mgrwt>
</event>
<event>
 6    4  0.1195577E-003  0.1272265E+03  0.7818608E-02  0.1231630E+00
          4   -1    0    0  502    0  0.00000000000E+00  0.00000000000E+00  0.74351196889E+02  0.74362042594E+02  0.12700000000E+01 0. -1.
         -4   -1    0    0    0  501 -0.00000000000E+00 -0.00000000000E+00 -0.97381235183E+02  0.97389516200E+02  0.12700000000E+01 0. -1.
         25    2    1    2    0    0 -0.21309040245E+02 -0.10372697029E+02 -0.49233576984E+02  0.13642036182E+03  0.12499960790E+03 0.  0.
    9000005    1    3    3    0    0 -0.67549395999E+02  0.16601957838E+02 -0.10542175846E+02  0.70361092768E+02  0.10000000000E+01 0.  0.
    9000005    1    3    3    0    0  0.46240355755E+02 -0.26974654867E+02 -0.38691401138E+02  0.66059269051E+02  0.10000000000E+01 0.  0.
         21    1    1    2  502  501  0.21309040245E+02  0.10372697029E+02  0.26203538690E+02  0.35331196975E+02  0.00000000000E+00 0. -1.
<mgrwt>
<rscale>  1 0.12722645E+03</rscale>
<asrwt>0</asrwt>
<pdfrwt beam="1">  1        4 0.11440117E-01 0.12722645E+03</pdfrwt>
<pdfrwt beam="2">  1       -4 0.14983200E-01 0.12722645E+03</pdfrwt>
<totfact> 0.36695329E+03</totfact>
</mgrwt>
</event>
<event>
 6    4  0.1195577E-003  0.1267211E+03  0.7818608E-02  0.1232404E+00
          4   -1    0    0  502    0  0.00000000000E+00  0.00000000000E+00  0.23829950093E+02  0.23863767964E+02  0.12700000000E+01 0.  1.
         -4   -1    0    0    0  501 -0.00000000000E+00 -0.00000000000E+00 -0.24158852736E+03  0.24159186545E+03  0.12700000000E+01 0.  1.
         25    2    1    2    0    0  0.15215724697E+02  0.14183754257E+02 -0.20514709744E+03  0.24112979147E+03  0.12500219032E+03 0.  0.
    9000005    1    3    3    0    0  0.71930074286E+01  0.69882528353E+02 -0.10748962277E+03  0.12841466477E+03  0.10000000000E+01 0.  0.
    9000005    1    3    3    0    0  0.80227172686E+01 -0.55698774096E+02 -0.97657474671E+02  0.11271512670E+03  0.10000000000E+01 0.  0.
         21    1    1    2  502  501 -0.15215724697E+02 -0.14183754257E+02 -0.12611479828E+02  0.24325841945E+02  0.00000000000E+00 0.  1.
<mgrwt>
<rscale>  1 0.12672113E+03</rscale>
<asrwt>0</asrwt>
<pdfrwt beam="1">  1        4 0.36690045E-02 0.12672113E+03</pdfrwt>
<pdfrwt beam="2">  1       -4 0.37170322E-01 0.12672113E+03</pdfrwt>
<totfact> 0.44365237E+03</totfact>
</mgrwt>
</event>
<event>
 6    4  0.1195577E-003  0.1271153E+03  0.7818608E-02  0.1231800E+00
         -4   -1    0    0    0  501 -0.00000000000E+00  0.00000000000E+00  0.18719735639E+03  0.18720166436E+03  0.12700000000E+01 0. -1.
          4   -1    0    0  502    0  0.00000000000E+00 -0.00000000000E+00 -0.32626669092E+02  0.32651377246E+02  0.12700000000E+01 0. -1.
         25    2    1    2    0    0 -0.20492010513E+02 -0.10739411251E+02  0.14937582264E+03  0.19614135529E+03  0.12499214943E+03 0.  0.
    9000005    1    3    3    0    0 -0.45236838044E+02  0.34163810037E+01  0.15953360917E+03  0.16586143503E+03  0.10000000000E+01 0.  0.
    9000005    1    3    3    0    0  0.24744827530E+02 -0.14155792255E+02 -0.10157786531E+02  0.30279920262E+02  0.10000000000E+01 0.  0.
         21    1    1    2  502  501  0.20492010513E+02  0.10739411251E+02  0.51948646555E+01  0.23711686311E+02  0.00000000000E+00 0. -1.
<mgrwt>
<rscale>  1 0.12711528E+03</rscale>
<asrwt>0</asrwt>
<pdfrwt beam="2">  1        4 0.50217196E-02 0.12711528E+03</pdfrwt>
<pdfrwt beam="1">  1       -4 0.28801825E-01 0.12711528E+03</pdfrwt>
<totfact> 0.43844681E+03</totfact>
</mgrwt>
</event>
<event>
 6    4  0.1195577E-003  0.1723134E+03  0.7818608E-02  0.1175457E+00
          4   -1    0    0  502    0  0.00000000000E+00  0.00000000000E+00  0.16570554729E+02  0.16619151123E+02  0.12700000000E+01 0. -1.
         -4   -1    0    0    0  501 -0.00000000000E+00 -0.00000000000E+00 -0.12818953401E+04  0.12818959692E+04  0.12700000000E+01 0. -1.
         25    2    1    2    0    0  0.11260711258E+03  0.37253338410E+02 -0.79567438539E+03  0.81411892791E+03  0.12499491267E+03 0.  0.
    9000005    1    3    3    0    0  0.97385192698E+02  0.13137017752E+02 -0.26429605906E+03  0.28197493475E+03  0.10000000000E+01 0.  0.
    9000005    1    3    3    0    0  0.15221919883E+02  0.24116320658E+02 -0.53137832633E+03  0.53214399316E+03  0.10000000000E+01 0.  0.
         21    1    1    2  502  501 -0.11260711258E+03 -0.37253338410E+02 -0.46965040000E+03  0.48439619244E+03  0.00000000000E+00 0. -1.
<mgrwt>
<rscale>  1 0.17231338E+03</rscale>
<asrwt>0</asrwt>
<pdfrwt beam="1">  1        4 0.25531037E-02 0.17231338E+03</pdfrwt>
<pdfrwt beam="2">  1       -4 0.19721838E+00 0.17231338E+03</pdfrwt>
<totfact> 0.18355073E+02</totfact>
</mgrwt>
</event>
<event>
 6    4  0.1195577E-003  0.1277647E+03  0.7818608E-02  0.1230811E+00
          4   -1    0    0  502    0  0.00000000000E+00  0.00000000000E+00  0.17835113171E+02  0.17880272979E+02  0.12700000000E+01 0. -1.
         -4   -1    0    0    0  501 -0.00000000000E+00 -0.00000000000E+00 -0.34333168910E+03  0.34333403799E+03  0.12700000000E+01 0. -1.
         25    2    1    2    0    0  0.12317681037E+02  0.23393628054E+02 -0.29049126149E+03  0.31734679293E+03  0.12499930752E+03 0.  0.
    9000005    1    3    3    0    0 -0.50096614266E+02  0.48118061221E+01 -0.62580754759E+02  0.80312982171E+02  0.10000000000E+01 0.  0.
    9000005    1    3    3    0    0  0.62414295303E+02  0.18581821932E+02 -0.22791050674E+03  0.23703381076E+03  0.10000000000E+01 0.  0.
         21    1    1    2  502  501 -0.12317681037E+02 -0.23393628054E+02 -0.35005314439E+02  0.43867518036E+02  0.00000000000E+00 0. -1.
<mgrwt>
<rscale>  1 0.12776468E+03</rscale>
<asrwt>0</asrwt>
<pdfrwt beam="1">  1        4 0.27475183E-02 0.12776468E+03</pdfrwt>
<pdfrwt beam="2">  1       -4 0.52823910E-01 0.12776468E+03</pdfrwt>
<totfact> 0.34689143E+03</totfact>
</mgrwt>
</event>
<event>
 6    4  0.1195577E-003  0.1285754E+03  0.7818608E-02  0.1229585E+00
         -4   -1    0    0    0  501 -0.00000000000E+00  0.00000000000E+00  0.27573893000E+03  0.27574185467E+03  0.12700000000E+01 0.  1.
          4   -1    0    0  502    0  0.00000000000E+00 -0.00000000000E+00 -0.22959082178E+02  0.22994180882E+02  0.12700000000E+01 0.  1.
         25    2    1    2    0    0  0.67080907580E+01 -0.29338906326E+02  0.19472908276E+03  0.23334749504E+03  0.12500347140E+03 0.  0.
    9000005    1    3    3    0    0 -0.82851648962E+01 -0.59101029607E+02  0.32969434167E+02  0.68187676653E+02  0.10000000000E+01 0.  0.
    9000005    1    3    3    0    0  0.14993255654E+02  0.29762123281E+02  0.16175964859E+03  0.16515981839E+03  0.10000000000E+01 0.  0.
         21    1    1    2  502  501 -0.67080907580E+01  0.29338906326E+02  0.58050765066E+02  0.65388540516E+02  0.00000000000E+00 0.  1.
<mgrwt>
<rscale>  1 0.12857542E+03</rscale>
<asrwt>0</asrwt>
<pdfrwt beam="2">  1        4 0.35350913E-02 0.12857542E+03</pdfrwt>
<pdfrwt beam="1">  1       -4 0.42424299E-01 0.12857542E+03</pdfrwt>
<totfact> 0.36421831E+03</totfact>
</mgrwt>
</event>
<event>
 6    4  0.1195577E-003  0.1278853E+03  0.7818608E-02  0.1230628E+00
         -4   -1    0    0    0  501 -0.00000000000E+00  0.00000000000E+00  0.68057019228E+02  0.68068867819E+02  0.12700000000E+01 0.  1.
          4   -1    0    0  502    0  0.00000000000E+00 -0.00000000000E+00 -0.93187687599E+02  0.93196341237E+02  0.12700000000E+01 0.  1.
         25    2    1    2    0    0  0.23251893316E+02  0.13729879299E+02 -0.57266472450E+01  0.12801349986E+03  0.12500200611E+03 0.  0.
    9000005    1    3    3    0    0  0.41604484731E+02 -0.46694733339E+02  0.89140507377E+01  0.63180626555E+02  0.10000000000E+01 0.  0.
    9000005    1    3    3    0    0 -0.18352591415E+02  0.60424612638E+02 -0.14640697983E+02  0.64832873309E+02  0.10000000000E+01 0.  0.
         21    1    1    2  502  501 -0.23251893316E+02 -0.13729879299E+02 -0.19404021126E+02  0.33251709192E+02  0.00000000000E+00 0.  1.
<mgrwt>
<rscale>  1 0.12788535E+03</rscale>
<asrwt>0</asrwt>
<pdfrwt beam="2">  1        4 0.14338144E-01 0.12788535E+03</pdfrwt>
<pdfrwt beam="1">  1       -4 0.10471888E-01 0.12788535E+03</pdfrwt>
<totfact> 0.46080601E+03</totfact>
</mgrwt>
</event>
<event>
 6    4  0.1195577E-003  0.1427053E+03  0.7818608E-02  0.1209734E+00
         -4   -1    0    0    0  501 -0.00000000000E+00  0.00000000000E+00  0.11356491753E+02  0.11427283358E+02  0.12700000000E+01 0.  1.
          4   -1    0    0  502    0  0.00000000000E+00 -0.00000000000E+00 -0.11743995694E+04  0.11744002561E+04  0.12700000000E+01 0.  1.
         25    2    1    2    0    0 -0.41982881974E+02 -0.54568048738E+02 -0.52393967528E+03  0.54302633127E+03  0.12499831517E+03 0.  0.
    9000005    1    3    3    0    0 -0.16777658595E+02 -0.36024978802E+02 -0.34644932380E+02  0.52731018056E+02  0.10000000000E+01 0.  0.
    9000005    1    3    3    0    0 -0.25205223379E+02 -0.18543069937E+02 -0.48929474290E+03  0.49029531321E+03  0.10000000000E+01 0.  0.
         21    1    1    2  502  501  0.41982881974E+02  0.54568048738E+02 -0.63910340235E+03  0.64280120816E+03  0.00000000000E+00 0. -1.
<mgrwt>
<rscale>  1 0.14270534E+03</rscale>
<asrwt>0</asrwt>
<pdfrwt beam="2">  1        4 0.18068226E+00 0.14270534E+03</pdfrwt>
<pdfrwt beam="1">  1       -4 0.17526518E-02 0.14270534E+03</pdfrwt>
<totfact> 0.40771699E+02</totfact>
</mgrwt>
</event>
<event>
 6    4  0.1195577E-003  0.1632823E+03  0.7818608E-02  0.1185040E+00
         -4   -1    0    0    0  501 -0.00000000000E+00  0.00000000000E+00  0.19862974521E+03  0.19863380524E+03  0.12700000000E+01 0.  1.
          4   -1    0    0  502    0  0.00000000000E+00 -0.00000000000E+00 -0.92431976513E+02  0.92440700896E+02  0.12700000000E+01 0.  1.
         25    2    1    2    0    0  0.10431115816E+03  0.12482470625E+02  0.84306185873E+02  0.18376247891E+03  0.12499794353E+03 0.  0.
    9000005    1    3    3    0    0 -0.55229336926E+00 -0.28864380872E+02 -0.15868349798E+02  0.32958489595E+02  0.10000000000E+01 0.  0.
    9000005    1    3    3    0    0  0.10486345153E+03  0.41346851497E+02  0.10017453567E+03  0.15080398931E+03  0.10000000000E+01 0.  0.
         21    1    1    2  502  501 -0.10431115816E+03 -0.12482470625E+02  0.21891582826E+02  0.10731202723E+03  0.00000000000E+00 0.  1.
<mgrwt>
<rscale>  1 0.16328232E+03</rscale>
<asrwt>0</asrwt>
<pdfrwt beam="2">  1        4 0.14221288E-01 0.16328232E+03</pdfrwt>
<pdfrwt beam="1">  1       -4 0.30559405E-01 0.16328232E+03</pdfrwt>
<totfact> 0.72886576E+02</totfact>
</mgrwt>
</event>
<event>
 6    4  0.1195577E-003  0.1269800E+03  0.7818608E-02  0.1232007E+00
          4   -1    0    0  502    0  0.00000000000E+00  0.00000000000E+00  0.32345472260E+02  0.32370395051E+02  0.12700000000E+01 0. -1.
         -4   -1    0    0    0  501 -0.00000000000E+00 -0.00000000000E+00 -0.17399692236E+03  0.17400155715E+03  0.12700000000E+01 0. -1.
         25    2    1    2    0    0  0.20914771001E+02 -0.78178790511E+01 -0.11246324344E+03  0.16962282586E+03  0.12500150018E+03 0.  0.
    9000005    1    3    3    0    0  0.71637409269E+02  0.46684373555E+01 -0.82608598889E+02  0.10944813075E+03  0.10000000000E+01 0.  0.
    9000005    1    3    3    0    0 -0.50722638268E+02 -0.12486316407E+02 -0.29854644552E+02  0.60174695111E+02  0.10000000000E+01 0.  0.
         21    1    1    2  502  501 -0.20914771001E+02  0.78178790511E+01 -0.29188206655E+02  0.36749126338E+02  0.00000000000E+00 0.  1.
<mgrwt>
<rscale>  1 0.12698001E+03</rscale>
<asrwt>0</asrwt>
<pdfrwt beam="1">  1        4 0.49785003E-02 0.12698001E+03</pdfrwt>
<pdfrwt beam="2">  1       -4 0.26771030E-01 0.12698001E+03</pdfrwt>
<totfact> 0.50951306E+03</totfact>
</mgrwt>
</event>
<event>
 6    4  0.1195577E-003  0.1357369E+03  0.7818608E-02  0.1219183E+00
          4   -1    0    0  502    0  0.00000000000E+00  0.00000000000E+00  0.67511975735E+02  0.67523919967E+02  0.12700000000E+01 0.  1.
         -4   -1    0    0    0  501 -0.00000000000E+00 -0.00000000000E+00 -0.17820014582E+03  0.17820467129E+03  0.12700000000E+01 0.  1.
         25    2    1    2    0    0 -0.35177001521E+02  0.39540627801E+02 -0.13137874865E+03  0.18890445269E+03  0.12499453574E+03 0.  0.
    9000005    1    3    3    0    0 -0.40314311062E+02 -0.39097720998E+02 -0.64609467061E+02  0.85611089805E+02  0.10000000000E+01 0.  0.
    9000005    1    3    3    0    0  0.51373095411E+01  0.78638348799E+02 -0.66769281591E+02  0.10329336288E+03  0.10000000000E+01 0.  0.
         21    1    1    2  502  501  0.35177001521E+02 -0.39540627801E+02  0.20690578568E+02  0.56824138572E+02  0.00000000000E+00 0.  1.
<mgrwt>
<rscale>  1 0.13573694E+03</rscale>
<asrwt>0</asrwt>
<pdfrwt beam="1">  1        4 0.10387725E-01 0.13573694E+03</pdfrwt>
<pdfrwt beam="2">  1       -4 0.27416674E-01 0.13573694E+03</pdfrwt>
<totfact> 0.14767643E+03</totfact>
</mgrwt>
</event>
<event>
 6    4  0.1195577E-003  0.1298634E+03  0.7818608E-02  0.1227659E+00
          4   -1    0    0  502    0  0.00000000000E+00  0.00000000000E+00  0.11566851744E+03  0.11567548931E+03  0.12700000000E+01 0.  1.
         -4   -1    0    0    0  501 -0.00000000000E+00 -0.00000000000E+00 -0.87264711981E+02  0.87273952914E+02  0.12700000000E+01 0.  1.
         25    2    1    2    0    0  0.66829370683E+01  0.34561848551E+02 -0.31353222728E+02  0.13359466271E+03  0.12500130522E+03 0.  0.
    9000005    1    3    3    0    0  0.28130433770E+01 -0.44826740725E+02  0.67751237850E+01  0.45434042296E+02  0.10000000000E+01 0.  0.
    9000005    1    3    3    0    0  0.38698936914E+01  0.79388589276E+02 -0.38128346513E+02  0.88160620417E+02  0.10000000000E+01 0.  0.
         21    1    1    2  502  501 -0.66829370683E+01 -0.34561848551E+02  0.59757028185E+02  0.69354779508E+02  0.00000000000E+00 0.  1.
<mgrwt>
<rscale>  1 0.12986343E+03</rscale>
<asrwt>0</asrwt>
<pdfrwt beam="1">  1        4 0.17796404E-01 0.12986343E+03</pdfrwt>
<pdfrwt beam="2">  1       -4 0.13426588E-01 0.12986343E+03</pdfrwt>
<totfact> 0.20709765E+03</totfact>
</mgrwt>
</event>
<event>
 6    4  0.1195577E-003  0.1556029E+03  0.7818608E-02  0.1193752E+00
         -4   -1    0    0    0  501 -0.00000000000E+00  0.00000000000E+00  0.58308591679E+02  0.58322420763E+02  0.12700000000E+01 0. -1.
          4   -1    0    0  502    0  0.00000000000E+00 -0.00000000000E+00 -0.26436327058E+03  0.26436632110E+03  0.12700000000E+01 0. -1.
         25    2    1    2    0    0 -0.92658108673E+02  0.80662855669E+00 -0.13281021443E+03  0.20457469813E+03  0.12500431314E+03 0.  0.
    9000005    1    3    3    0    0 -0.10480459789E+03  0.41789024888E+02 -0.97510568939E+02  0.14912959932E+03  0.10000000000E+01 0.  0.
    9000005    1    3    3    0    0  0.12146489216E+02 -0.40982396332E+02 -0.35299645492E+02  0.55445098803E+02  0.10000000000E+01 0.  0.
         21    1    1    2  502  501  0.92658108673E+02 -0.80662855669E+00 -0.73244464475E+02  0.11811404374E+03  0.00000000000E+00 0. -1.
<mgrwt>
<rscale>  1 0.15560287E+03</rscale>
<asrwt>0</asrwt>
<pdfrwt beam="2">  1        4 0.40672570E-01 0.15560287E+03</pdfrwt>
<pdfrwt beam="1">  1       -4 0.89718511E-02 0.15560287E+03</pdfrwt>
<totfact> 0.91119862E+02</totfact>
</mgrwt>
</event>
<event>
 6    4  0.1195577E-003  0.1428216E+03  0.7818608E-02  0.1209582E+00
          4   -1    0    0  502    0  0.00000000000E+00  0.00000000000E+00  0.15813879622E+03  0.15814389577E+03  0.12700000000E+01 0.  1.
         -4   -1    0    0    0  501 -0.00000000000E+00 -0.00000000000E+00 -0.70990871587E+02  0.71002230589E+02  0.12700000000E+01 0.  1.
         25    2    1    2    0    0  0.46844723714E+02 -0.50802936366E+02  0.58306983422E+02  0.15426511159E+03  0.12499061506E+03 0.  0.
    9000005    1    3    3    0    0  0.84904242599E+02 -0.32466262596E+02  0.12196975437E+02  0.91719980528E+02  0.10000000000E+01 0.  0.
    9000005    1    3    3    0    0 -0.38059518885E+02 -0.18336673770E+02  0.46110007985E+02  0.62545131059E+02  0.10000000000E+01 0.  0.
         21    1    1    2  502  501 -0.46844723714E+02  0.50802936366E+02  0.28840941207E+02  0.74881014770E+02  0.00000000000E+00 0.  1.
<mgrwt>
<rscale>  1 0.14282164E+03</rscale>
<asrwt>0</asrwt>
<pdfrwt beam="1">  1        4 0.24330311E-01 0.14282164E+03</pdfrwt>
<pdfrwt beam="2">  1       -4 0.10922939E-01 0.14282164E+03</pdfrwt>
<totfact> 0.17111002E+03</totfact>
</mgrwt>
</event>
<event>
 6    4  0.1195577E-003  0.1267554E+03  0.7818608E-02  0.1232351E+00
          4   -1    0    0  502    0  0.00000000000E+00  0.00000000000E+00  0.33326269802E+03  0.33326511788E+03  0.12700000000E+01 0.  1.
         -4   -1    0    0    0  501 -0.00000000000E+00 -0.00000000000E+00 -0.17351995689E+02  0.17398409536E+02  0.12700000000E+01 0.  1.
         25    2    1    2    0    0 -0.66297051605E+01 -0.19941279201E+02  0.23428798255E+03  0.26637903304E+03  0.12500129147E+03 0.  0.
    9000005    1    3    3    0    0 -0.19224612086E+02 -0.70560311699E+02  0.11652864708E+03  0.13758004538E+03  0.10000000000E+01 0.  0.
    9000005    1    3    3    0    0  0.12594906925E+02  0.50619032498E+02  0.11775933547E+03  0.12879898766E+03  0.10000000000E+01 0.  0.
         21    1    1    2  502  501  0.66297051605E+01  0.19941279201E+02  0.81622719779E+02  0.84284494367E+02  0.00000000000E+00 0.  1.
<mgrwt>
<rscale>  1 0.12675540E+03</rscale>
<asrwt>0</asrwt>
<pdfrwt beam="1">  1        4 0.51274943E-01 0.12675540E+03</pdfrwt>
<pdfrwt beam="2">  1       -4 0.26732941E-02 0.12675540E+03</pdfrwt>
<totfact> 0.38400372E+03</totfact>
</mgrwt>
</event>
<event>
 6    4  0.1195577E-003  0.1270419E+03  0.7818608E-02  0.1231912E+00
          4   -1    0    0  502    0  0.00000000000E+00  0.00000000000E+00  0.13523293073E+03  0.13523889401E+03  0.12700000000E+01 0.  1.
         -4   -1    0    0    0  501 -0.00000000000E+00 -0.00000000000E+00 -0.43469280209E+02  0.43487828434E+02  0.12700000000E+01 0.  1.
         25    2    1    2    0    0  0.20594357599E+02 -0.95228320396E+01  0.62176060913E+02  0.14144083566E+03  0.12499934218E+03 0.  0.
    9000005    1    3    3    0    0 -0.12334901699E+02 -0.14346608616E+02 -0.34407560118E+02  0.39279195155E+02  0.10000000000E+01 0.  0.
    9000005    1    3    3    0    0  0.32929259298E+02  0.48237765765E+01  0.96583621031E+02  0.10216164050E+03  0.10000000000E+01 0.  0.
         21    1    1    2  502  501 -0.20594357599E+02  0.95228320396E+01  0.29587589603E+02  0.37285886787E+02  0.00000000000E+00 0.  1.
<mgrwt>
<rscale>  1 0.12704191E+03</rscale>
<asrwt>0</asrwt>
<pdfrwt beam="1">  1        4 0.20806952E-01 0.12704191E+03</pdfrwt>
<pdfrwt beam="2">  1       -4 0.66894670E-02 0.12704191E+03</pdfrwt>
<totfact> 0.50107573E+03</totfact>
</mgrwt>
</event>
<event>
 6    4  0.1195577E-003  0.1296870E+03  0.7818608E-02  0.1227921E+00
          4   -1    0    0  502    0  0.00000000000E+00  0.00000000000E+00  0.11147885474E+03  0.11148608861E+03  0.12700000000E+01 0.  1.
         -4   -1    0    0    0  501 -0.00000000000E+00 -0.00000000000E+00 -0.73631961932E+02  0.73642913562E+02  0.12700000000E+01 0.  1.
         25    2    1    2    0    0 -0.32758591442E+02 -0.10933636919E+02 -0.53825096508E+01  0.12979862203E+03  0.12500416450E+03 0.  0.
    9000005    1    3    3    0    0  0.14060123578E+02  0.24267710526E+02  0.44663254226E+02  0.52748603084E+02  0.10000000000E+01 0.  0.
    9000005    1    3    3    0    0 -0.46818715019E+02 -0.35201347445E+02 -0.50045763877E+02  0.77050018949E+02  0.10000000000E+01 0.  0.
         21    1    1    2  502  501  0.32758591442E+02  0.10933636919E+02  0.43229402455E+02  0.55330380137E+02  0.00000000000E+00 0. -1.
<mgrwt>
<rscale>  1 0.12968697E+03</rscale>
<asrwt>0</asrwt>
<pdfrwt beam="1">  1        4 0.17151992E-01 0.12968697E+03</pdfrwt>
<pdfrwt beam="2">  1       -4 0.11329393E-01 0.12968697E+03</pdfrwt>
<totfact> 0.29563622E+03</totfact>
</mgrwt>
</event>
<event>
 6    4  0.1195577E-003  0.1296739E+03  0.7818608E-02  0.1227940E+00
         -4   -1    0    0    0  501 -0.00000000000E+00  0.00000000000E+00  0.23735084305E+03  0.23735424074E+03  0.12700000000E+01 0.  1.
          4   -1    0    0  502    0  0.00000000000E+00 -0.00000000000E+00 -0.68594489391E+02  0.68606245159E+02  0.12700000000E+01 0.  1.
         25    2    1    2    0    0 -0.61330025398E+00 -0.34494074942E+02  0.21329693042E+03  0.24962150897E+03  0.12500039949E+03 0.  0.
    9000005    1    3    3    0    0 -0.30150265614E+02 -0.47006599191E+02  0.21006728146E+03  0.21736587043E+03  0.10000000000E+01 0.  0.
    9000005    1    3    3    0    0  0.29536965360E+02  0.12512524250E+02  0.32296489582E+01  0.32255638549E+02  0.10000000000E+01 0.  0.
         21    1    1    2  502  501  0.61330025398E+00  0.34494074942E+02 -0.44540576759E+02  0.56338976928E+02  0.00000000000E+00 0.  1.
<mgrwt>
<rscale>  1 0.12967389E+03</rscale>
<asrwt>0</asrwt>
<pdfrwt beam="2">  1        4 0.10554164E-01 0.12967389E+03</pdfrwt>
<pdfrwt beam="1">  1       -4 0.36516680E-01 0.12967389E+03</pdfrwt>
<totfact> 0.82515518E+02</totfact>
</mgrwt>
</event>
<event>
 6    4  0.1195577E-003  0.1291985E+03  0.7818608E-02  0.1228650E+00
          4   -1    0    0  502    0  0.00000000000E+00  0.00000000000E+00  0.17196053247E+02  0.17242886860E+02  0.12700000000E+01 0. -1.
         -4   -1    0    0    0  501 -0.00000000000E+00 -0.00000000000E+00 -0.53004248718E+03  0.53004400866E+03  0.12700000000E+01 0. -1.
         25    2    1    2    0    0  0.32623914986E+02 -0.10858067163E+01 -0.49170732946E+03  0.50839781552E+03  0.12500696850E+03 0.  0.
    9000005    1    3    3    0    0  0.57486940752E+02 -0.27687220743E+02 -0.12956186187E+03  0.14442508993E+03  0.10000000000E+01 0.  0.
    9000005    1    3    3    0    0 -0.24863025766E+02  0.26601414026E+02 -0.36214546759E+03  0.36397272559E+03  0.10000000000E+01 0.  0.
         21    1    1    2  502  501 -0.32623914986E+02  0.10858067163E+01 -0.21139104471E+02  0.38889079998E+02  0.00000000000E+00 0. -1.
<mgrwt>
<rscale>  1 0.12919846E+03</rscale>
<asrwt>0</asrwt>
<pdfrwt beam="1">  1        4 0.26492667E-02 0.12919846E+03</pdfrwt>
<pdfrwt beam="2">  1       -4 0.81548705E-01 0.12919846E+03</pdfrwt>
<totfact> 0.14585808E+03</totfact>
</mgrwt>
</event>
<event>
 6    4  0.1195577E-003  0.1289625E+03  0.7818608E-02  0.1229003E+00
         -4   -1    0    0    0  501 -0.00000000000E+00  0.00000000000E+00  0.17381227306E+03  0.17381691277E+03  0.12700000000E+01 0.  1.
          4   -1    0    0  502    0  0.00000000000E+00 -0.00000000000E+00 -0.39265702427E+02  0.39286235338E+02  0.12700000000E+01 0.  1.
         25    2    1    2    0    0  0.66668996002E+01  0.31073956530E+02  0.12575901255E+03  0.18012952984E+03  0.12498511895E+03 0.  0.
    9000005    1    3    3    0    0 -0.34284394620E+02  0.44251671888E+02  0.10319651834E+02  0.56930882597E+02  0.10000000000E+01 0.  0.
    9000005    1    3    3    0    0  0.40951294221E+02 -0.13177715358E+02  0.11543936072E+03  0.12319864725E+03  0.10000000000E+01 0.  0.
         21    1    1    2  502  501 -0.66668996002E+01 -0.31073956530E+02  0.87875580818E+01  0.32973618269E+02  0.00000000000E+00 0.  1.
<mgrwt>
<rscale>  1 0.12896247E+03</rscale>
<asrwt>0</asrwt>
<pdfrwt beam="2">  1        4 0.60428137E-02 0.12896247E+03</pdfrwt>
<pdfrwt beam="1">  1       -4 0.26742286E-01 0.12896247E+03</pdfrwt>
<totfact> 0.37485710E+03</totfact>
</mgrwt>
</event>
<event>
 6    4  0.1195577E-003  0.1275111E+03  0.7818608E-02  0.1231196E+00
         -4   -1    0    0    0  501 -0.00000000000E+00  0.00000000000E+00  0.17986417168E+02  0.18031198034E+02  0.12700000000E+01 0.  1.
          4   -1    0    0  502    0  0.00000000000E+00 -0.00000000000E+00 -0.32369604741E+03  0.32369853878E+03  0.12700000000E+01 0.  1.
         25    2    1    2    0    0 -0.20975252639E+02  0.13964998608E+02 -0.25467424321E+03  0.28481231296E+03  0.12499640414E+03 0.  0.
    9000005    1    3    3    0    0  0.29763084134E+02  0.54578662435E+02 -0.13487970538E+03  0.14852005418E+03  0.10000000000E+01 0.  0.
    9000005    1    3    3    0    0 -0.50738336773E+02 -0.40613663827E+02 -0.11979453783E+03  0.13629225878E+03  0.10000000000E+01 0.  0.
         21    1    1    2  502  501  0.20975252639E+02 -0.13964998608E+02 -0.51035387032E+02  0.56917423860E+02  0.00000000000E+00 0.  1.
<mgrwt>
<rscale>  1 0.12751111E+03</rscale>
<asrwt>0</asrwt>
<pdfrwt beam="2">  1        4 0.49803024E-01 0.12751111E+03</pdfrwt>
<pdfrwt beam="1">  1       -4 0.27707777E-02 0.12751111E+03</pdfrwt>
<totfact> 0.38594037E+03</totfact>
</mgrwt>
</event>
<event>
 6    4  0.1195577E-003  0.1268478E+03  0.7818608E-02  0.1232209E+00
         -4   -1    0    0    0  501 -0.00000000000E+00  0.00000000000E+00  0.20515070247E+02  0.20554342783E+02  0.12700000000E+01 0. -1.
          4   -1    0    0  502    0  0.00000000000E+00 -0.00000000000E+00 -0.26938028926E+03  0.26938328297E+03  0.12700000000E+01 0. -1.
         25    2    1    2    0    0 -0.20831087108E+02 -0.56727391614E+01 -0.21904112157E+03  0.25311927506E+03  0.12499696119E+03 0.  0.
    9000005    1    3    3    0    0  0.11168123247E+02 -0.47568378880E+02 -0.18259332210E+03  0.18902063095E+03  0.10000000000E+01 0.  0.
    9000005    1    3    3    0    0 -0.31999210355E+02  0.41895639718E+02 -0.36447799469E+02  0.64098644111E+02  0.10000000000E+01 0.  0.
         21    1    1    2  502  501  0.20831087108E+02  0.56727391614E+01 -0.29824097445E+02  0.36818350698E+02  0.00000000000E+00 0.  1.
<mgrwt>
<rscale>  1 0.12684776E+03</rscale>
<asrwt>0</asrwt>
<pdfrwt beam="2">  1        4 0.41446370E-01 0.12684776E+03</pdfrwt>
<pdfrwt beam="1">  1       -4 0.31594161E-02 0.12684776E+03</pdfrwt>
<totfact> 0.45360252E+03</totfact>
</mgrwt>
</event>
<event>
 6    4  0.1195577E-003  0.1278585E+03  0.7818608E-02  0.1230668E+00
         -4   -1    0    0    0  501 -0.00000000000E+00  0.00000000000E+00  0.95220327102E+01  0.96063524260E+01  0.12700000000E+01 0.  1.
          4   -1    0    0  502    0  0.00000000000E+00 -0.00000000000E+00 -0.78701417822E+03  0.78701520292E+03  0.12700000000E+01 0.  1.
         25    2    1    2    0    0  0.20780950390E+02  0.17055671897E+02 -0.44387456836E+03  0.46192253887E+03  0.12500022255E+03 0.  0.
    9000005    1    3    3    0    0  0.53260188631E+02  0.30460387250E+02 -0.40455138175E+03  0.40917881587E+03  0.10000000000E+01 0.  0.
    9000005    1    3    3    0    0 -0.32479238241E+02 -0.13404715354E+02 -0.39323186613E+02  0.52743722999E+02  0.10000000000E+01 0.  0.
         21    1    1    2  502  501 -0.20780950390E+02 -0.17055671897E+02 -0.33361757715E+03  0.33469901647E+03  0.00000000000E+00 0.  1.
<mgrwt>
<rscale>  1 0.12785851E+03</rscale>
<asrwt>0</asrwt>
<pdfrwt beam="2">  1        4 0.12108562E+00 0.12785851E+03</pdfrwt>
<pdfrwt beam="1">  1       -4 0.14714937E-02 0.12785851E+03</pdfrwt>
<totfact> 0.14452304E+03</totfact>
</mgrwt>
</event>
<event>
 6    4  0.1195577E-003  0.1272736E+03  0.7818608E-02  0.1231558E+00
         -4   -1    0    0    0  501 -0.00000000000E+00  0.00000000000E+00  0.75057687532E+01  0.76124545698E+01  0.12700000000E+01 0. -1.
          4   -1    0    0  502    0  0.00000000000E+00 -0.00000000000E+00 -0.78784612542E+03  0.78784714903E+03  0.12700000000E+01 0. -1.
         25    2    1    2    0    0  0.15847324474E+02  0.17985944436E+02 -0.70504376877E+03  0.71643930216E+03  0.12499570359E+03 0.  0.
    9000005    1    3    3    0    0 -0.42705575554E+01  0.56545624641E+02 -0.16172262843E+03  0.17137926909E+03  0.10000000000E+01 0.  0.
    9000005    1    3    3    0    0  0.20117882030E+02 -0.38559680205E+02 -0.54332114034E+03  0.54506003308E+03  0.10000000000E+01 0.  0.
         21    1    1    2  502  501 -0.15847324474E+02 -0.17985944436E+02 -0.75296587896E+02  0.79020301436E+02  0.00000000000E+00 0. -1.
<mgrwt>
<rscale>  1 0.12727356E+03</rscale>
<asrwt>0</asrwt>
<pdfrwt beam="2">  1        4 0.12121532E+00 0.12727356E+03</pdfrwt>
<pdfrwt beam="1">  1       -4 0.11630196E-02 0.12727356E+03</pdfrwt>
<totfact> 0.20571596E+03</totfact>
</mgrwt>
</event>
<event>
 6    4  0.1195577E-003  0.1312750E+03  0.7818608E-02  0.1225576E+00
         -4   -1    0    0    0  501 -0.00000000000E+00  0.00000000000E+00  0.14254828461E+03  0.14255394188E+03  0.12700000000E+01 0.  1.
          4   -1    0    0  502    0  0.00000000000E+00 -0.00000000000E+00 -0.53713302264E+02  0.53728314138E+02  0.12700000000E+01 0.  1.
         25    2    1    2    0    0 -0.10234596589E+02  0.38791053189E+02  0.84056624831E+02  0.15588020811E+03  0.12499452119E+03 0.  0.
    9000005    1    3    3    0    0  0.41963167157E+02 -0.13892788846E+02  0.58699464290E+00  0.44218339436E+02  0.10000000000E+01 0.  0.
    9000005    1    3    3    0    0 -0.52197763746E+02  0.52683842035E+02  0.83469630188E+02  0.11166186867E+03  0.10000000000E+01 0.  0.
         21    1    1    2  502  501  0.10234596589E+02 -0.38791053189E+02  0.47783575171E+01  0.40402047911E+02  0.00000000000E+00 0.  1.
<mgrwt>
<rscale>  1 0.13127499E+03</rscale>
<asrwt>0</asrwt>
<pdfrwt beam="2">  1        4 0.82651751E-02 0.13127499E+03</pdfrwt>
<pdfrwt beam="1">  1       -4 0.21932095E-01 0.13127499E+03</pdfrwt>
<totfact> 0.32415636E+03</totfact>
</mgrwt>
</event>
<event>
 6    4  0.1195577E-003  0.1273631E+03  0.7818608E-02  0.1231422E+00
          4   -1    0    0  502    0  0.00000000000E+00  0.00000000000E+00  0.89333124303E+02  0.89342151293E+02  0.12700000000E+01 0. -1.
         -4   -1    0    0    0  501 -0.00000000000E+00 -0.00000000000E+00 -0.64604927889E+02  0.64617409477E+02  0.12700000000E+01 0. -1.
         25    2    1    2    0    0 -0.10667091045E+02  0.21977133693E+02  0.23396307409E+02  0.12949417369E+03  0.12499829032E+03 0.  0.
    9000005    1    3    3    0    0  0.13603578131E+02  0.58107794210E+02 -0.24720623974E+02  0.64604042718E+02  0.10000000000E+01 0.  0.
    9000005    1    3    3    0    0 -0.24270669177E+02 -0.36130660517E+02  0.48116931382E+02  0.64890130970E+02  0.10000000000E+01 0.  0.
         21    1    1    2  502  501  0.10667091045E+02 -0.21977133693E+02  0.13318890051E+01  0.24465387082E+02  0.00000000000E+00 0.  1.
<mgrwt>
<rscale>  1 0.12736308E+03</rscale>
<asrwt>0</asrwt>
<pdfrwt beam="1">  1        4 0.13745212E-01 0.12736308E+03</pdfrwt>
<pdfrwt beam="2">  1       -4 0.99408742E-02 0.12736308E+03</pdfrwt>
<totfact> 0.54068626E+03</totfact>
</mgrwt>
</event>
<event>
 6    4  0.1195577E-003  0.1303866E+03  0.7818608E-02  0.1226883E+00
          4   -1    0    0  502    0  0.00000000000E+00  0.00000000000E+00  0.63684064411E+02  0.63696726445E+02  0.12700000000E+01 0. -1.
         -4   -1    0    0    0  501 -0.00000000000E+00 -0.00000000000E+00 -0.11894923492E+03  0.11895601451E+03  0.12700000000E+01 0. -1.
         25    2    1    2    0    0  0.36850861319E+02  0.42306003068E+01 -0.62926110991E+02  0.14477697075E+03  0.12499916743E+03 0.  0.
    9000005    1    3    3    0    0  0.57299083906E+02  0.52350928931E+02 -0.31510912181E+02  0.83771966450E+02  0.10000000000E+01 0.  0.
    9000005    1    3    3    0    0 -0.20448222587E+02 -0.48120328624E+02 -0.31415198809E+02  0.61005004303E+02  0.10000000000E+01 0.  0.
         21    1    1    2  502  501 -0.36850861319E+02 -0.42306003068E+01  0.76609404862E+01  0.37875770197E+02  0.00000000000E+00 0. -1.
<mgrwt>
<rscale>  1 0.13038664E+03</rscale>
<asrwt>0</asrwt>
<pdfrwt beam="1">  1        4 0.97990439E-02 0.13038664E+03</pdfrwt>
<pdfrwt beam="2">  1       -4 0.18301378E-01 0.13038664E+03</pdfrwt>
<totfact> 0.33721032E+03</totfact>
</mgrwt>
</event>
<event>
 6    4  0.1195577E-003  0.1599029E+03  0.7818608E-02  0.1188806E+00
         -4   -1    0    0    0  501 -0.00000000000E+00  0.00000000000E+00  0.90684430545E+02  0.90693323036E+02  0.12700000000E+01 0. -1.
          4   -1    0    0  502    0  0.00000000000E+00 -0.00000000000E+00 -0.36680416112E+03  0.36680635970E+03  0.12700000000E+01 0. -1.
         25    2    1    2    0    0 -0.92822115034E+01 -0.99283934755E+02  0.42146041083E+01  0.15995842786E+03  0.12500190640E+03 0.  0.
    9000005    1    3    3    0    0 -0.56793575275E+02 -0.90245186700E+01  0.68344169576E+01  0.57919438748E+02  0.10000000000E+01 0.  0.
    9000005    1    3    3    0    0  0.47511363771E+02 -0.90259416085E+02 -0.26198128493E+01  0.10203898911E+03  0.10000000000E+01 0.  0.
         21    1    1    2  502  501  0.92822115034E+01  0.99283934755E+02 -0.28033433469E+03  0.29754125488E+03  0.00000000000E+00 0. -1.
<mgrwt>
<rscale>  1 0.15990289E+03</rscale>
<asrwt>0</asrwt>
<pdfrwt beam="2">  1        4 0.56432262E-01 0.15990289E+03</pdfrwt>
<pdfrwt beam="1">  1       -4 0.13952304E-01 0.15990289E+03</pdfrwt>
<totfact> 0.22173002E+02</totfact>
</mgrwt>
</event>
<event>
 6    4  0.1195577E-003  0.1853194E+03  0.7818608E-02  0.1162752E+00
         -4   -1    0    0    0  501 -0.00000000000E+00  0.00000000000E+00  0.51962241920E+03  0.51962397119E+03  0.12700000000E+01 0. -1.
          4   -1    0    0  502    0  0.00000000000E+00 -0.00000000000E+00 -0.10739487054E+03  0.10740237949E+03  0.12700000000E+01 0. -1.
         25    2    1    2    0    0 -0.42667947005E+02  0.12999076011E+03  0.44867490235E+03  0.48544047213E+03  0.12500053024E+03 0.  0.
    9000005    1    3    3    0    0 -0.70913385769E+02  0.13375446934E+03  0.32515147708E+03  0.35866899698E+03  0.10000000000E+01 0.  0.
    9000005    1    3    3    0    0  0.28245438764E+02 -0.37637092333E+01  0.12352342527E+03  0.12677147514E+03  0.10000000000E+01 0.  0.
         21    1    1    2  502  501  0.42667947005E+02 -0.12999076011E+03 -0.36447353693E+02  0.14158587855E+03  0.00000000000E+00 0. -1.
<mgrwt>
<rscale>  1 0.18531941E+03</rscale>
<asrwt>0</asrwt>
<pdfrwt beam="2">  1        4 0.16522985E-01 0.18531941E+03</pdfrwt>
<pdfrwt beam="1">  1       -4 0.79942607E-01 0.18531941E+03</pdfrwt>
<totfact> 0.79546421E+01</totfact>
</mgrwt>
</event>
<event>
 6    4  0.1195577E-003  0.1304535E+03  0.7818608E-02  0.1226784E+00
         -4   -1    0    0    0  501 -0.00000000000E+00  0.00000000000E+00  0.25392924928E+02  0.25424663939E+02  0.12700000000E+01 0.  1.
          4   -1    0    0  502    0  0.00000000000E+00 -0.00000000000E+00 -0.29438908082E+03  0.29439182021E+03  0.12700000000E+01 0.  1.
         25    2    1    2    0    0 -0.35110833599E+02 -0.12567228931E+02 -0.17183024686E+03  0.21573997500E+03  0.12500958842E+03 0.  0.
    9000005    1    3    3    0    0  0.96452051467E+01  0.13540842218E+02 -0.16217030848E+03  0.16302329080E+03  0.10000000000E+01 0.  0.
    9000005    1    3    3    0    0 -0.44756038746E+02 -0.26108071149E+02 -0.96599383785E+01  0.52716684198E+02  0.10000000000E+01 0.  0.
         21    1    1    2  502  501  0.35110833599E+02  0.12567228931E+02 -0.97165909027E+02  0.10407650915E+03  0.00000000000E+00 0.  1.
<mgrwt>
<rscale>  1 0.13045345E+03</rscale>
<asrwt>0</asrwt>
<pdfrwt beam="2">  1        4 0.45293278E-01 0.13045345E+03</pdfrwt>
<pdfrwt beam="1">  1       -4 0.39092562E-02 0.13045345E+03</pdfrwt>
<totfact> 0.27362951E+03</totfact>
</mgrwt>
</event>
<event>
 6    4  0.1195577E-003  0.1282231E+03  0.7818608E-02  0.1230116E+00
         -4   -1    0    0    0  501 -0.00000000000E+00  0.00000000000E+00  0.14300066606E+02  0.14356350683E+02  0.12700000000E+01 0.  1.
          4   -1    0    0  502    0  0.00000000000E+00 -0.00000000000E+00 -0.42914060847E+03  0.42914248768E+03  0.12700000000E+01 0.  1.
         25    2    1    2    0    0 -0.20451912840E+02  0.19918512831E+02 -0.33416391146E+03  0.35791994737E+03  0.12500456435E+03 0.  0.
    9000005    1    3    3    0    0 -0.12850783401E+02  0.52455328312E+02 -0.56186709084E+02  0.77940043495E+02  0.10000000000E+01 0.  0.
    9000005    1    3    3    0    0 -0.76011294388E+01 -0.32536815481E+02 -0.27797720238E+03  0.27997990387E+03  0.10000000000E+01 0.  0.
         21    1    1    2  502  501  0.20451912840E+02 -0.19918512831E+02 -0.80676630396E+02  0.85578890997E+02  0.00000000000E+00 0.  1.
<mgrwt>
<rscale>  1 0.12822312E+03</rscale>
<asrwt>0</asrwt>
<pdfrwt beam="2">  1        4 0.66026096E-01 0.12822312E+03</pdfrwt>
<pdfrwt beam="1">  1       -4 0.22044847E-02 0.12822312E+03</pdfrwt>
<totfact> 0.30637382E+03</totfact>
</mgrwt>
</event>
<event>
 6    4  0.1195577E-003  0.1268022E+03  0.7818608E-02  0.1232279E+00
         -4   -1    0    0    0  501 -0.00000000000E+00  0.00000000000E+00  0.19181505266E+02  0.19223502393E+02  0.12700000000E+01 0. -1.
          4   -1    0    0  502    0  0.00000000000E+00 -0.00000000000E+00 -0.30182034915E+03  0.30182302110E+03  0.12700000000E+01 0. -1.
         25    2    1    2    0    0  0.20560326854E+02 -0.55713504051E+01 -0.26344426365E+03  0.29237251267E+03  0.12500015653E+03 0.  0.
    9000005    1    3    3    0    0  0.20928090889E+02 -0.45264613339E+02 -0.24231095230E+03  0.24739132526E+03  0.10000000000E+01 0.  0.
    9000005    1    3    3    0    0 -0.36776403565E+00  0.39693262933E+02 -0.21133311350E+02  0.44981187416E+02  0.10000000000E+01 0.  0.
         21    1    1    2  502  501 -0.20560326854E+02  0.55713504051E+01 -0.19194580239E+02  0.28674010815E+02  0.00000000000E+00 0.  1.
<mgrwt>
<rscale>  1 0.12680223E+03</rscale>
<asrwt>0</asrwt>
<pdfrwt beam="2">  1        4 0.46437333E-01 0.12680223E+03</pdfrwt>
<pdfrwt beam="1">  1       -4 0.29544371E-02 0.12680223E+03</pdfrwt>
<totfact> 0.40164919E+03</totfact>
</mgrwt>
</event>
<event>
 6    4  0.1195577E-003  0.1446434E+03  0.7818608E-02  0.1207214E+00
         -4   -1    0    0    0  501 -0.00000000000E+00  0.00000000000E+00  0.15001459792E+03  0.15001997363E+03  0.12700000000E+01 0.  1.
          4   -1    0    0  502    0  0.00000000000E+00 -0.00000000000E+00 -0.81103584727E+02  0.81113527574E+02  0.12700000000E+01 0.  1.
         25    2    1    2    0    0  0.58327828750E+02 -0.43543490039E+02  0.64028301841E+02  0.15818137991E+03  0.12499421740E+03 0.  0.
    9000005    1    3    3    0    0  0.59770730800E+02 -0.80196356534E+02  0.68474965727E+02  0.12121805473E+03  0.10000000000E+01 0.  0.
    9000005    1    3    3    0    0 -0.14429020502E+01  0.36652866494E+02 -0.44466638864E+01  0.36963325179E+02  0.10000000000E+01 0.  0.
         21    1    1    2  502  501 -0.58327828750E+02  0.43543490039E+02  0.48827113515E+01  0.72952121296E+02  0.00000000000E+00 0. -1.
<mgrwt>
<rscale>  1 0.14464344E+03</rscale>
<asrwt>0</asrwt>
<pdfrwt beam="2">  1        4 0.12478653E-01 0.14464344E+03</pdfrwt>
<pdfrwt beam="1">  1       -4 0.23080347E-01 0.14464344E+03</pdfrwt>
<totfact> 0.15056271E+03</totfact>
</mgrwt>
</event>
<event>
 6    4  0.1195577E-003  0.1560358E+03  0.7818608E-02  0.1193246E+00
          4   -1    0    0  502    0  0.00000000000E+00  0.00000000000E+00  0.80567363263E+02  0.80577372278E+02  0.12700000000E+01 0. -1.
         -4   -1    0    0    0  501 -0.00000000000E+00 -0.00000000000E+00 -0.21463625094E+03  0.21464000820E+03  0.12700000000E+01 0. -1.
         25    2    1    2    0    0 -0.58387224651E+02  0.72889926335E+02 -0.12766328076E+03  0.20160626381E+03  0.12500065195E+03 0.  0.
    9000005    1    3    3    0    0 -0.69905823404E+02 -0.82995138407E+01 -0.80731977580E+02  0.10711843109E+03  0.10000000000E+01 0.  0.
    9000005    1    3    3    0    0  0.11518598752E+02  0.81189440176E+02 -0.46931303178E+02  0.94487832716E+02  0.10000000000E+01 0.  0.
         21    1    1    2  502  501  0.58387224651E+02 -0.72889926335E+02 -0.64056069223E+01  0.93611116667E+02  0.00000000000E+00 0. -1.
<mgrwt>
<rscale>  1 0.15603580E+03</rscale>
<asrwt>0</asrwt>
<pdfrwt beam="1">  1        4 0.12396038E-01 0.15603580E+03</pdfrwt>
<pdfrwt beam="2">  1       -4 0.33022021E-01 0.15603580E+03</pdfrwt>
<totfact> 0.79046997E+02</totfact>
</mgrwt>
</event>
<event>
 6    4  0.1195577E-003  0.1430345E+03  0.7818608E-02  0.1209303E+00
          4   -1    0    0  502    0  0.00000000000E+00  0.00000000000E+00  0.14712538529E+03  0.14713086657E+03  0.12700000000E+01 0.  1.
         -4   -1    0    0    0  501 -0.00000000000E+00 -0.00000000000E+00 -0.86239387383E+02  0.86248738172E+02  0.12700000000E+01 0.  1.
         25    2    1    2    0    0 -0.27029205753E+02 -0.64062462875E+02  0.32582098245E+01  0.14307158144E+03  0.12499713745E+03 0.  0.
    9000005    1    3    3    0    0  0.48110578447E+02 -0.21900676801E+02  0.17594323811E+02  0.55720980189E+02  0.10000000000E+01 0.  0.
    9000005    1    3    3    0    0 -0.75139784200E+02 -0.42161786074E+02 -0.14336113986E+02  0.87350601251E+02  0.10000000000E+01 0.  0.
         21    1    1    2  502  501  0.27029205753E+02  0.64062462875E+02  0.57627788086E+02  0.90308023303E+02  0.00000000000E+00 0.  1.
<mgrwt>
<rscale>  1 0.14303448E+03</rscale>
<asrwt>0</asrwt>
<pdfrwt beam="1">  1        4 0.22635815E-01 0.14303448E+03</pdfrwt>
<pdfrwt beam="2">  1       -4 0.13268739E-01 0.14303448E+03</pdfrwt>
<totfact> 0.14001978E+03</totfact>
</mgrwt>
</event>
<event>
 6    4  0.1195577E-003  0.1271137E+03  0.7818608E-02  0.1231802E+00
         -4   -1    0    0    0  501 -0.00000000000E+00  0.00000000000E+00  0.19469782609E+03  0.19470196811E+03  0.12700000000E+01 0. -1.
          4   -1    0    0  502    0  0.00000000000E+00 -0.00000000000E+00 -0.33989342318E+02  0.34013060597E+02  0.12700000000E+01 0. -1.
         25    2    1    2    0    0  0.21526884088E+02  0.84088451837E+01  0.16158089588E+03  0.20558763113E+03  0.12499509088E+03 0.  0.
    9000005    1    3    3    0    0  0.26099138305E+02  0.11047538026E+02  0.18214183306E+03  0.18433627008E+03  0.10000000000E+01 0.  0.
    9000005    1    3    3    0    0 -0.45722542175E+01 -0.26386928423E+01 -0.20560937181E+02  0.21251361046E+02  0.10000000000E+01 0.  0.
         21    1    1    2  502  501 -0.21526884088E+02 -0.84088451837E+01 -0.87241210548E+00  0.23127397578E+02  0.00000000000E+00 0.  1.
<mgrwt>
<rscale>  1 0.12711368E+03</rscale>
<asrwt>0</asrwt>
<pdfrwt beam="2">  1        4 0.52312726E-02 0.12711368E+03</pdfrwt>
<pdfrwt beam="1">  1       -4 0.29955655E-01 0.12711368E+03</pdfrwt>
<totfact> 0.38129805E+03</totfact>
</mgrwt>
</event>
<event>
 6    4  0.1195577E-003  0.1450936E+03  0.7818608E-02  0.1206635E+00
          4   -1    0    0  502    0  0.00000000000E+00  0.00000000000E+00  0.25649681407E+03  0.25649995814E+03  0.12700000000E+01 0. -1.
         -4   -1    0    0    0  501 -0.00000000000E+00 -0.00000000000E+00 -0.57550830668E+02  0.57564841792E+02  0.12700000000E+01 0. -1.
         25    2    1    2    0    0  0.50882786555E+02 -0.53282532756E+02  0.60431953034E+02  0.15717559421E+03  0.12499624076E+03 0.  0.
    9000005    1    3    3    0    0  0.40601052432E+02  0.65682149276E+01  0.82795330344E+02  0.92453521473E+02  0.10000000000E+01 0.  0.
    9000005    1    3    3    0    0  0.10281734123E+02 -0.59850747684E+02 -0.22363377309E+02  0.64722072738E+02  0.10000000000E+01 0.  0.
         21    1    1    2  502  501 -0.50882786555E+02  0.53282532756E+02  0.13851403037E+03  0.15688920572E+03  0.00000000000E+00 0. -1.
<mgrwt>
<rscale>  1 0.14509358E+03</rscale>
<asrwt>0</asrwt>
<pdfrwt beam="1">  1        4 0.39462368E-01 0.14509358E+03</pdfrwt>
<pdfrwt beam="2">  1       -4 0.88552936E-02 0.14509358E+03</pdfrwt>
<totfact> 0.97469248E+02</totfact>
</mgrwt>
</event>
<event>
 6    4  0.1195577E-003  0.1268779E+03  0.7818608E-02  0.1232163E+00
         -4   -1    0    0    0  501 -0.00000000000E+00  0.00000000000E+00  0.32510474719E+02  0.32535271114E+02  0.12700000000E+01 0. -1.
          4   -1    0    0  502    0  0.00000000000E+00 -0.00000000000E+00 -0.20045185254E+03  0.20045587566E+03  0.12700000000E+01 0. -1.
         25    2    1    2    0    0  0.12381033366E+02 -0.17888807803E+02 -0.99692138041E+02  0.16135834589E+03  0.12499877587E+03 0.  0.
    9000005    1    3    3    0    0  0.51486872808E+02  0.12384336031E+02 -0.33629027101E+01  0.53071451507E+02  0.10000000000E+01 0.  0.
    9000005    1    3    3    0    0 -0.39105839442E+02 -0.30273143834E+02 -0.96329235331E+02  0.10828689438E+03  0.10000000000E+01 0.  0.
         21    1    1    2  502  501 -0.12381033366E+02  0.17888807803E+02 -0.68249239784E+02  0.71632800887E+02  0.00000000000E+00 0.  1.
<mgrwt>
<rscale>  1 0.12687787E+03</rscale>
<asrwt>0</asrwt>
<pdfrwt beam="2">  1        4 0.30840963E-01 0.12687787E+03</pdfrwt>
<pdfrwt beam="1">  1       -4 0.50038285E-02 0.12687787E+03</pdfrwt>
<totfact> 0.38742329E+03</totfact>
</mgrwt>
</event>
<event>
 6    4  0.1195577E-003  0.1328251E+03  0.7818608E-02  0.1223323E+00
         -4   -1    0    0    0  501 -0.00000000000E+00  0.00000000000E+00  0.52048484187E+03  0.52048639128E+03  0.12700000000E+01 0.  1.
          4   -1    0    0  502    0  0.00000000000E+00 -0.00000000000E+00 -0.34962364241E+02  0.34985422869E+02  0.12700000000E+01 0.  1.
         25    2    1    2    0    0  0.44758320061E+02 -0.37994814568E+01  0.49242577830E+03  0.51002515493E+03  0.12499907305E+03 0.  0.
    9000005    1    3    3    0    0 -0.30718132372E+02  0.63718473310E+00  0.32339570383E+03  0.32485349146E+03  0.10000000000E+01 0.  0.
    9000005    1    3    3    0    0  0.75476452433E+02 -0.44366661899E+01  0.16903007447E+03  0.18517166347E+03  0.10000000000E+01 0.  0.
         21    1    1    2  502  501 -0.44758320061E+02  0.37994814568E+01 -0.69033006695E+01  0.45446659219E+02  0.00000000000E+00 0.  1.
<mgrwt>
<rscale>  1 0.13282512E+03</rscale>
<asrwt>0</asrwt>
<pdfrwt beam="2">  1        4 0.53807181E-02 0.13282512E+03</pdfrwt>
<pdfrwt beam="1">  1       -4 0.80076485E-01 0.13282512E+03</pdfrwt>
<totfact> 0.49746973E+02</totfact>
</mgrwt>
</event>
<event>
 6    4  0.1195577E-003  0.1295115E+03  0.7818608E-02  0.1228182E+00
         -4   -1    0    0    0  501 -0.00000000000E+00  0.00000000000E+00  0.14379902502E+03  0.14380463308E+03  0.12700000000E+01 0.  1.
          4   -1    0    0  502    0  0.00000000000E+00 -0.00000000000E+00 -0.47761183648E+02  0.47778065715E+02  0.12700000000E+01 0.  1.
         25    2    1    2    0    0  0.22561210210E+02  0.25267049901E+02  0.88554849214E+02  0.15689225071E+03  0.12500313995E+03 0.  0.
    9000005    1    3    3    0    0  0.48312989332E+02 -0.26318449064E+02  0.82146005196E+02  0.98872503099E+02  0.10000000000E+01 0.  0.
    9000005    1    3    3    0    0 -0.25751779122E+02  0.51585498965E+02  0.64088440178E+01  0.58019747613E+02  0.10000000000E+01 0.  0.
         21    1    1    2  502  501 -0.22561210210E+02 -0.25267049901E+02  0.74829921578E+01  0.34690448087E+02  0.00000000000E+00 0.  1.
<mgrwt>
<rscale>  1 0.12951146E+03</rscale>
<asrwt>0</asrwt>
<pdfrwt beam="2">  1        4 0.73496046E-02 0.12951146E+03</pdfrwt>
<pdfrwt beam="1">  1       -4 0.22124656E-01 0.12951146E+03</pdfrwt>
<totfact> 0.38606990E+03</totfact>
</mgrwt>
</event>
<event>
 6    4  0.1195577E-003  0.1433520E+03  0.7818608E-02  0.1208888E+00
          4   -1    0    0  502    0  0.00000000000E+00  0.00000000000E+00  0.33065559084E+03  0.33065802978E+03  0.12700000000E+01 0.  1.
         -4   -1    0    0    0  501 -0.00000000000E+00 -0.00000000000E+00 -0.36973646516E+02  0.36995451567E+02  0.12700000000E+01 0.  1.
         25    2    1    2    0    0  0.41191712007E+02 -0.56816903104E+02  0.14851495110E+03  0.20641336990E+03  0.12499948382E+03 0.  0.
    9000005    1    3    3    0    0  0.10296874503E+02 -0.94209153599E+02  0.10107984421E+03  0.13856235113E+03  0.10000000000E+01 0.  0.
    9000005    1    3    3    0    0  0.30894837504E+02  0.37392250495E+02  0.47435106891E+02  0.67851018764E+02  0.10000000000E+01 0.  0.
         21    1    1    2  502  501 -0.41191712007E+02  0.56816903104E+02  0.14516699323E+03  0.16124011145E+03  0.00000000000E+00 0.  1.
<mgrwt>
<rscale>  1 0.14335197E+03</rscale>
<asrwt>0</asrwt>
<pdfrwt beam="1">  1        4 0.50871954E-01 0.14335197E+03</pdfrwt>
<pdfrwt beam="2">  1       -4 0.56901184E-02 0.14335197E+03</pdfrwt>
<totfact> 0.12098685E+03</totfact>
</mgrwt>
</event>
<event>
 6    4  0.1195577E-003  0.1266841E+03  0.7818608E-02  0.1232460E+00
          4   -1    0    0  502    0  0.00000000000E+00  0.00000000000E+00  0.10732521205E+03  0.10733272586E+03  0.12700000000E+01 0. -1.
         -4   -1    0    0    0  501 -0.00000000000E+00 -0.00000000000E+00 -0.52244410302E+02  0.52259844123E+02  0.12700000000E+01 0. -1.
         25    2    1    2    0    0 -0.98122055605E+01 -0.18109697126E+02  0.36460703416E+02  0.13182660936E+03  0.12499852612E+03 0.  0.
    9000005    1    3    3    0    0 -0.22786670851E+01 -0.37782677913E+02  0.77181111598E+02  0.85968872631E+02  0.10000000000E+01 0.  0.
    9000005    1    3    3    0    0 -0.75335384753E+01  0.19672980787E+02 -0.40720408182E+02  0.45857736724E+02  0.10000000000E+01 0.  0.
         21    1    1    2  502  501  0.98122055605E+01  0.18109697126E+02  0.18620098331E+02  0.27765960632E+02  0.00000000000E+00 0. -1.
<mgrwt>
<rscale>  1 0.12668414E+03</rscale>
<asrwt>0</asrwt>
<pdfrwt beam="1">  1        4 0.16513336E-01 0.12668414E+03</pdfrwt>
<pdfrwt beam="2">  1       -4 0.80393668E-02 0.12668414E+03</pdfrwt>
<totfact> 0.55866490E+03</totfact>
</mgrwt>
</event>
<event>
 6    4  0.1195577E-003  0.1270002E+03  0.7818608E-02  0.1231976E+00
          4   -1    0    0  502    0  0.00000000000E+00  0.00000000000E+00  0.49080978723E+03  0.49081143033E+03  0.12700000000E+01 0.  1.
         -4   -1    0    0    0  501 -0.00000000000E+00 -0.00000000000E+00 -0.11402017638E+02  0.11472528327E+02  0.12700000000E+01 0.  1.
         25    2    1    2    0    0  0.20514842718E+02 -0.90888175336E+01  0.41994076953E+03  0.43872462046E+03  0.12500230920E+03 0.  0.
    9000005    1    3    3    0    0 -0.37595723177E+02  0.12594738743E+02  0.51008967096E+02  0.64614089558E+02  0.10000000000E+01 0.  0.
    9000005    1    3    3    0    0  0.58110565896E+02 -0.21683556277E+02  0.36893180243E+03  0.37411053090E+03  0.10000000000E+01 0.  0.
         21    1    1    2  502  501 -0.20514842718E+02  0.90888175336E+01  0.59467000063E+02  0.63559338200E+02  0.00000000000E+00 0.  1.
<mgrwt>
<rscale>  1 0.12700017E+03</rscale>
<asrwt>0</asrwt>
<pdfrwt beam="1">  1        4 0.75514741E-01 0.12700017E+03</pdfrwt>
<pdfrwt beam="2">  1       -4 0.17597070E-02 0.12700017E+03</pdfrwt>
<totfact> 0.32350116E+03</totfact>
</mgrwt>
</event>
<event>
 6    4  0.1195577E-003  0.1278243E+03  0.7818608E-02  0.1230720E+00
          4   -1    0    0  502    0  0.00000000000E+00  0.00000000000E+00  0.27191808409E+02  0.27221450082E+02  0.12700000000E+01 0. -1.
         -4   -1    0    0    0  501 -0.00000000000E+00 -0.00000000000E+00 -0.10460111961E+04  0.10460119671E+04  0.12700000000E+01 0. -1.
         25    2    1    2    0    0 -0.17153536902E+02 -0.20493135611E+02 -0.10344204502E+04  0.10422882142E+04  0.12499936460E+03 0.  0.
    9000005    1    3    3    0    0  0.42171623231E+02 -0.46187942055E+02 -0.55973406064E+03  0.56321842160E+03  0.10000000000E+01 0.  0.
    9000005    1    3    3    0    0 -0.59325160133E+02  0.25694806444E+02 -0.47468638959E+03  0.47906979258E+03  0.10000000000E+01 0.  0.
         21    1    1    2  502  501  0.17153536902E+02  0.20493135611E+02  0.15601062528E+02  0.30945202979E+02  0.00000000000E+00 0. -1.
<mgrwt>
<rscale>  1 0.12782431E+03</rscale>
<asrwt>0</asrwt>
<pdfrwt beam="1">  1        4 0.41856954E-02 0.12782431E+03</pdfrwt>
<pdfrwt beam="2">  1       -4 0.16092711E+00 0.12782431E+03</pdfrwt>
<totfact> 0.14012126E+02</totfact>
</mgrwt>
</event>
<event>
 6    4  0.1195577E-003  0.1271194E+03  0.7818608E-02  0.1231794E+00
          4   -1    0    0  502    0  0.00000000000E+00  0.00000000000E+00  0.34789558957E+02  0.34812732044E+02  0.12700000000E+01 0. -1.
         -4   -1    0    0    0  501 -0.00000000000E+00 -0.00000000000E+00 -0.18354949266E+03  0.18355388625E+03  0.12700000000E+01 0. -1.
         25    2    1    2    0    0  0.18053985481E+02  0.14385431662E+02 -0.14823456774E+03  0.19527629466E+03  0.12500582846E+03 0.  0.
    9000005    1    3    3    0    0  0.41195674409E+02  0.43952428933E+02 -0.22931777375E+02  0.64465231037E+02  0.10000000000E+01 0.  0.
    9000005    1    3    3    0    0 -0.23141688928E+02 -0.29566997271E+02 -0.12530279036E+03  0.13081106363E+03  0.10000000000E+01 0.  0.
         21    1    1    2  502  501 -0.18053985481E+02 -0.14385431662E+02 -0.52536596637E+00  0.23090323628E+02  0.00000000000E+00 0. -1.
<mgrwt>
<rscale>  1 0.12711941E+03</rscale>
<asrwt>0</asrwt>
<pdfrwt beam="1">  1        4 0.53543605E-02 0.12711941E+03</pdfrwt>
<pdfrwt beam="2">  1       -4 0.28240503E-01 0.12711941E+03</pdfrwt>
<totfact> 0.41032887E+03</totfact>
</mgrwt>
</event>
<event>
 6    4  0.1195577E-003  0.1288574E+03  0.7818608E-02  0.1229161E+00
          4   -1    0    0  502    0  0.00000000000E+00  0.00000000000E+00  0.52722714383E+03  0.52722867343E+03  0.12700000000E+01 0. -1.
         -4   -1    0    0    0  501 -0.00000000000E+00 -0.00000000000E+00 -0.13054506877E+02  0.13116137000E+02  0.12700000000E+01 0. -1.
         25    2    1    2    0    0 -0.27994556158E+02  0.13958199678E+02  0.34445069608E+03  0.36776420977E+03  0.12500282174E+03 0.  0.
    9000005    1    3    3    0    0  0.23036304885E+02  0.11295319328E+02  0.72051794280E+01  0.26667774411E+02  0.10000000000E+01 0.  0.
    9000005    1    3    3    0    0 -0.51030861043E+02  0.26628803503E+01  0.33724551665E+03  0.34109643536E+03  0.10000000000E+01 0.  0.
         21    1    1    2  502  501  0.27994556158E+02 -0.13958199678E+02  0.16972194087E+03  0.17258060066E+03  0.00000000000E+00 0.  1.
<mgrwt>
<rscale>  1 0.12885741E+03</rscale>
<asrwt>0</asrwt>
<pdfrwt beam="1">  1        4 0.81116726E-01 0.12885741E+03</pdfrwt>
<pdfrwt beam="2">  1       -4 0.20132441E-02 0.12885741E+03</pdfrwt>
<totfact> 0.22557853E+03</totfact>
</mgrwt>
</event>
<event>
 6    4  0.1195577E-003  0.1469253E+03  0.7818608E-02  0.1204303E+00
          4   -1    0    0  502    0  0.00000000000E+00  0.00000000000E+00  0.21379884608E+03  0.21380261805E+03  0.12700000000E+01 0.  1.
         -4   -1    0    0    0  501 -0.00000000000E+00 -0.00000000000E+00 -0.80501614653E+02  0.80511631841E+02  0.12700000000E+01 0.  1.
         25    2    1    2    0    0  0.77233450111E+02  0.35909804176E+00  0.80218914375E+01  0.14714412528E+03  0.12498763177E+03 0.  0.
    9000005    1    3    3    0    0  0.47640150781E+02  0.55109663857E+02 -0.24567168437E+02  0.76884359800E+02  0.10000000000E+01 0.  0.
    9000005    1    3    3    0    0  0.29593299331E+02 -0.54750565815E+02  0.32589059874E+02  0.70259765484E+02  0.10000000000E+01 0.  0.
         21    1    1    2  502  501 -0.77233450111E+02 -0.35909804176E+00  0.12527533999E+03  0.14717012461E+03  0.00000000000E+00 0.  1.
<mgrwt>
<rscale>  1 0.14692530E+03</rscale>
<asrwt>0</asrwt>
<pdfrwt beam="1">  1        4 0.32893190E-01 0.14692530E+03</pdfrwt>
<pdfrwt beam="2">  1       -4 0.12385925E-01 0.14692530E+03</pdfrwt>
<totfact> 0.78810266E+02</totfact>
</mgrwt>
</event>
<event>
 6    4  0.1195577E-003  0.1277169E+03  0.7818608E-02  0.1230883E+00
          4   -1    0    0  502    0  0.00000000000E+00  0.00000000000E+00  0.40445183822E+02  0.40465118243E+02  0.12700000000E+01 0. -1.
         -4   -1    0    0    0  501 -0.00000000000E+00 -0.00000000000E+00 -0.14638615010E+03  0.14639165906E+03  0.12700000000E+01 0. -1.
         25    2    1    2    0    0  0.25337215722E+02  0.66879222868E+01 -0.87879735381E+02  0.15503051666E+03  0.12499964160E+03 0.  0.
    9000005    1    3    3    0    0  0.70339550256E+02 -0.18198965072E+02 -0.32968275070E+02  0.79791990957E+02  0.10000000000E+01 0.  0.
    9000005    1    3    3    0    0 -0.45002334534E+02  0.24886887359E+02 -0.54911460311E+02  0.75238525699E+02  0.10000000000E+01 0.  0.
         21    1    1    2  502  501 -0.25337215722E+02 -0.66879222868E+01 -0.18061230901E+02  0.31826260646E+02  0.00000000000E+00 0.  1.
<mgrwt>
<rscale>  1 0.12771693E+03</rscale>
<asrwt>0</asrwt>
<pdfrwt beam="1">  1        4 0.62242932E-02 0.12771693E+03</pdfrwt>
<pdfrwt beam="2">  1       -4 0.22522903E-01 0.12771693E+03</pdfrwt>
<totfact> 0.48881266E+03</totfact>
</mgrwt>
</event>
<event>
 6    4  0.1195577E-003  0.1381800E+03  0.7818608E-02  0.1215799E+00
          4   -1    0    0  502    0  0.00000000000E+00  0.00000000000E+00  0.10984176588E+03  0.10984910756E+03  0.12700000000E+01 0.  1.
         -4   -1    0    0    0  501 -0.00000000000E+00 -0.00000000000E+00 -0.11836628974E+03  0.11837310272E+03  0.12700000000E+01 0.  1.
         25    2    1    2    0    0 -0.54139525047E+01  0.58645650047E+02 -0.59390036755E+02  0.15040239562E+03  0.12500032397E+03 0.  0.
    9000005    1    3    3    0    0  0.47693824422E+02  0.66144050235E+02 -0.20339258823E+02  0.84050114330E+02  0.10000000000E+01 0.  0.
    9000005    1    3    3    0    0 -0.53107776927E+02 -0.74984001879E+01 -0.39050777932E+02  0.66352281292E+02  0.10000000000E+01 0.  0.
         21    1    1    2  502  501  0.54139525047E+01 -0.58645650047E+02  0.50865512892E+02  0.77819814655E+02  0.00000000000E+00 0.  1.
<mgrwt>
<rscale>  1 0.13817997E+03</rscale>
<asrwt>0</asrwt>
<pdfrwt beam="1">  1        4 0.16899822E-01 0.13817997E+03</pdfrwt>
<pdfrwt beam="2">  1       -4 0.18211287E-01 0.13817997E+03</pdfrwt>
<totfact> 0.13483988E+03</totfact>
</mgrwt>
</event>
<event>
 6    4  0.1195577E-003  0.1378381E+03  0.7818608E-02  0.1216268E+00
          4   -1    0    0  502    0  0.00000000000E+00  0.00000000000E+00  0.38484741277E+02  0.38505690634E+02  0.12700000000E+01 0. -1.
         -4   -1    0    0    0  501 -0.00000000000E+00 -0.00000000000E+00 -0.32304803519E+03  0.32305053156E+03  0.12700000000E+01 0. -1.
         25    2    1    2    0    0  0.15236707890E+02 -0.56060641026E+02 -0.10630194021E+03  0.17406738796E+03  0.12499760125E+03 0.  0.
    9000005    1    3    3    0    0 -0.50484939340E+02 -0.78803127011E+01 -0.65052205579E+02  0.82726161999E+02  0.10000000000E+01 0.  0.
    9000005    1    3    3    0    0  0.65721647230E+02 -0.48180328325E+02 -0.41249734632E+02  0.91341225957E+02  0.10000000000E+01 0.  0.
         21    1    1    2  502  501 -0.15236707890E+02  0.56060641026E+02 -0.17826135370E+03  0.18748883424E+03  0.00000000000E+00 0. -1.
<mgrwt>
<rscale>  1 0.13783814E+03</rscale>
<asrwt>0</asrwt>
<pdfrwt beam="1">  1        4 0.59225332E-02 0.13783814E+03</pdfrwt>
<pdfrwt beam="2">  1       -4 0.49701499E-01 0.13783814E+03</pdfrwt>
<totfact> 0.11792242E+03</totfact>
</mgrwt>
</event>
<event>
 6    4  0.1195577E-003  0.1267427E+03  0.7818608E-02  0.1232371E+00
         -4   -1    0    0    0  501 -0.00000000000E+00  0.00000000000E+00  0.83845395861E+02  0.83855013607E+02  0.12700000000E+01 0. -1.
          4   -1    0    0  502    0  0.00000000000E+00 -0.00000000000E+00 -0.65195629210E+02  0.65207997731E+02  0.12700000000E+01 0. -1.
         25    2    1    2    0    0  0.54222468453E+01  0.20237874198E+02  0.18676503633E+02  0.12811132816E+03  0.12499891321E+03 0.  0.
    9000005    1    3    3    0    0 -0.51321300335E+02 -0.16512176603E+02  0.26439964724E+02  0.60054971308E+02  0.10000000000E+01 0.  0.
    9000005    1    3    3    0    0  0.56743547180E+02  0.36750050802E+02 -0.77634610917E+01  0.68056356857E+02  0.10000000000E+01 0.  0.
         21    1    1    2  502  501 -0.54222468453E+01 -0.20237874198E+02 -0.26736981130E-01  0.20951683173E+02  0.00000000000E+00 0.  1.
<mgrwt>
<rscale>  1 0.12674266E+03</rscale>
<asrwt>0</asrwt>
<pdfrwt beam="2">  1        4 0.10031788E-01 0.12674266E+03</pdfrwt>
<pdfrwt beam="1">  1       -4 0.12900983E-01 0.12674266E+03</pdfrwt>
<totfact> 0.59322696E+03</totfact>
</mgrwt>
</event>
<event>
 6    4  0.1195577E-003  0.1273895E+03  0.7818608E-02  0.1231381E+00
         -4   -1    0    0    0  501 -0.00000000000E+00  0.00000000000E+00  0.84051656810E+03  0.84051752757E+03  0.12700000000E+01 0.  1.
          4   -1    0    0  502    0  0.00000000000E+00 -0.00000000000E+00 -0.71490154869E+01  0.72609450096E+01  0.12700000000E+01 0.  1.
         25    2    1    2    0    0 -0.95307610529E+01  0.22601943258E+02  0.75468586343E+03  0.76536189987E+03  0.12500560810E+03 0.  0.
    9000005    1    3    3    0    0  0.26668989937E+01 -0.16314196715E+02  0.68048058244E+03  0.68068207589E+03  0.10000000000E+01 0.  0.
    9000005    1    3    3    0    0 -0.12197660047E+02  0.38916139973E+02  0.74205280995E+02  0.84679823976E+02  0.10000000000E+01 0.  0.
         21    1    1    2  502  501  0.95307610529E+01 -0.22601943258E+02  0.78681689181E+02  0.82416572712E+02  0.00000000000E+00 0.  1.
<mgrwt>
<rscale>  1 0.12738950E+03</rscale>
<asrwt>0</asrwt>
<pdfrwt beam="2">  1        4 0.11085330E-02 0.12738950E+03</pdfrwt>
<pdfrwt beam="1">  1       -4 0.12931884E+00 0.12738950E+03</pdfrwt>
<totfact> 0.18907966E+03</totfact>
</mgrwt>
</event>
<event>
 6    4  0.1195577E-003  0.1333828E+03  0.7818608E-02  0.1222521E+00
          4   -1    0    0  502    0  0.00000000000E+00  0.00000000000E+00  0.26423014699E+02  0.26453517834E+02  0.12700000000E+01 0.  1.
         -4   -1    0    0    0  501 -0.00000000000E+00 -0.00000000000E+00 -0.35804311925E+03  0.35804537162E+03  0.12700000000E+01 0.  1.
         25    2    1    2    0    0 -0.46194680792E+02  0.56386797897E+01 -0.29977195829E+03  0.32810697813E+03  0.12500087550E+03 0.  0.
    9000005    1    3    3    0    0 -0.22375596771E+02 -0.33734314949E+02 -0.21102123845E+02  0.45661482309E+02  0.10000000000E+01 0.  0.
    9000005    1    3    3    0    0 -0.23819084021E+02  0.39372994738E+02 -0.27866983445E+03  0.28244549582E+03  0.10000000000E+01 0.  0.
         21    1    1    2  502  501  0.46194680792E+02 -0.56386797897E+01 -0.31848146258E+02  0.56391911329E+02  0.00000000000E+00 0.  1.
<mgrwt>
<rscale>  1 0.13338277E+03</rscale>
<asrwt>0</asrwt>
<pdfrwt beam="1">  1        4 0.40675991E-02 0.13338277E+03</pdfrwt>
<pdfrwt beam="2">  1       -4 0.55086073E-01 0.13338277E+03</pdfrwt>
<totfact> 0.17336634E+03</totfact>
</mgrwt>
</event>
