<event>
 5    1  0.3316199E-002  0.1249958E+03  0.7818608E-02  0.1235076E+00
         -4   -1    0    0    0  501 -0.00000000000E+00  0.00000000000E+00  0.15959570328E+02  0.16010021395E+02  0.12700000000E+01 0.  1.
          4   -1    0    0  501    0  0.00000000000E+00 -0.00000000000E+00 -0.24430415416E+03  0.24430745515E+03  0.12700000000E+01 0.  1.
         25    2    1    2    0    0  0.00000000000E+00  0.00000000000E+00 -0.22834458383E+03  0.26031747654E+03  0.12499575844E+03 0.  0.
    9000005    1    3    3    0    0  0.21707604159E+02 -0.30715861742E+02 -0.21810062029E+03  0.22132230979E+03  0.10000000000E+01 0.  0.
    9000005    1    3    3    0    0 -0.21707604159E+02  0.30715861742E+02 -0.10243963545E+02  0.38995166751E+02  0.10000000000E+01 0.  0.
<mgrwt>
<rscale>  0 0.12499576E+03</rscale>
<asrwt>0</asrwt>
<pdfrwt beam="2">  1        4 0.37589387E-01 0.12499576E+03</pdfrwt>
<pdfrwt beam="1">  1       -4 0.24594535E-02 0.12499576E+03</pdfrwt>
<totfact> 0.80869164E+03</totfact>
</mgrwt>
</event>
<event>
 5    1  0.3316199E-002  0.1250044E+03  0.7818608E-02  0.1235062E+00
         -4   -1    0    0    0  501 -0.00000000000E+00  0.00000000000E+00  0.14053945888E+03  0.14054519701E+03  0.12700000000E+01 0.  1.
          4   -1    0    0  501    0  0.00000000000E+00 -0.00000000000E+00 -0.27775806168E+02  0.27804825270E+02  0.12700000000E+01 0.  1.
         25    2    1    2    0    0  0.00000000000E+00  0.00000000000E+00  0.11276365271E+03  0.16835002228E+03  0.12500435444E+03 0.  0.
    9000005    1    3    3    0    0  0.36868589886E+02 -0.50455951051E+02  0.55502570197E+02  0.83586070700E+02  0.10000000000E+01 0.  0.
    9000005    1    3    3    0    0 -0.36868589886E+02  0.50455951051E+02  0.57261082517E+02  0.84763951581E+02  0.10000000000E+01 0.  0.
<mgrwt>
<rscale>  0 0.12500435E+03</rscale>
<asrwt>0</asrwt>
<pdfrwt beam="2">  1        4 0.42758745E-02 0.12500435E+03</pdfrwt>
<pdfrwt beam="1">  1       -4 0.21624129E-01 0.12500435E+03</pdfrwt>
<totfact> 0.95747322E+03</totfact>
</mgrwt>
</event>
<event>
 5    1  0.3316199E-002  0.1249978E+03  0.7818608E-02  0.1235073E+00
          4   -1    0    0  501    0  0.00000000000E+00  0.00000000000E+00  0.73209520738E+03  0.73209630894E+03  0.12700000000E+01 0.  1.
         -4   -1    0    0    0  501 -0.00000000000E+00 -0.00000000000E+00 -0.52588328414E+01  0.54100113543E+01  0.12700000000E+01 0.  1.
         25    2    1    2    0    0  0.00000000000E+00  0.00000000000E+00  0.72683637454E+03  0.73750632030E+03  0.12499782849E+03 0.  0.
    9000005    1    3    3    0    0 -0.10593907279E+02 -0.60034891868E+02  0.44446644223E+03  0.44862884145E+03  0.10000000000E+01 0.  0.
    9000005    1    3    3    0    0  0.10593907279E+02  0.60034891868E+02  0.28236993230E+03  0.28887747884E+03  0.10000000000E+01 0.  0.
<mgrwt>
<rscale>  0 0.12499783E+03</rscale>
<asrwt>0</asrwt>
<pdfrwt beam="1">  1        4 0.11264167E+00 0.12499783E+03</pdfrwt>
<pdfrwt beam="2">  1       -4 0.82076563E-03 0.12499783E+03</pdfrwt>
<totfact> 0.41180937E+03</totfact>
</mgrwt>
</event>
<event>
 5    1  0.3316199E-002  0.1249963E+03  0.7818608E-02  0.1235075E+00
          4   -1    0    0  501    0  0.00000000000E+00  0.00000000000E+00  0.77802913515E+02  0.77813278117E+02  0.12700000000E+01 0.  1.
         -4   -1    0    0    0  501 -0.00000000000E+00 -0.00000000000E+00 -0.50182284404E+02  0.50198352244E+02  0.12700000000E+01 0.  1.
         25    2    1    2    0    0  0.00000000000E+00  0.00000000000E+00  0.27620629111E+02  0.12801163036E+03  0.12499631337E+03 0.  0.
    9000005    1    3    3    0    0  0.26010256133E+01  0.56998379713E+02 -0.12288536896E+02  0.58374555786E+02  0.10000000000E+01 0.  0.
    9000005    1    3    3    0    0 -0.26010256133E+01 -0.56998379713E+02  0.39909166007E+02  0.69637074576E+02  0.10000000000E+01 0.  0.
<mgrwt>
<rscale>  0 0.12499631E+03</rscale>
<asrwt>0</asrwt>
<pdfrwt beam="1">  1        4 0.11971712E-01 0.12499631E+03</pdfrwt>
<pdfrwt beam="2">  1       -4 0.77223847E-02 0.12499631E+03</pdfrwt>
<totfact> 0.10388101E+04</totfact>
</mgrwt>
</event>
<event>
 5    1  0.3316199E-002  0.1249934E+03  0.7818608E-02  0.1235080E+00
          4   -1    0    0  501    0  0.00000000000E+00  0.00000000000E+00  0.19555001961E+02  0.19596198654E+02  0.12700000000E+01 0. -1.
         -4   -1    0    0    0  501 -0.00000000000E+00 -0.00000000000E+00 -0.19948243155E+03  0.19948647422E+03  0.12700000000E+01 0. -1.
         25    2    1    2    0    0  0.00000000000E+00  0.00000000000E+00 -0.17992742959E+03  0.21908267288E+03  0.12499335037E+03 0.  0.
    9000005    1    3    3    0    0  0.18348932409E+01  0.52028816570E+02 -0.15054084743E+03  0.15929190605E+03  0.10000000000E+01 0.  0.
    9000005    1    3    3    0    0 -0.18348932409E+01 -0.52028816570E+02 -0.29386582158E+02  0.59790766827E+02  0.10000000000E+01 0.  0.
<mgrwt>
<rscale>  0 0.12499335E+03</rscale>
<asrwt>0</asrwt>
<pdfrwt beam="1">  1        4 0.30119419E-02 0.12499335E+03</pdfrwt>
<pdfrwt beam="2">  1       -4 0.30693083E-01 0.12499335E+03</pdfrwt>
<totfact> 0.87026640E+03</totfact>
</mgrwt>
</event>
<event>
 5    1  0.3316199E-002  0.1250005E+03  0.7818608E-02  0.1235069E+00
         -4   -1    0    0    0  501 -0.00000000000E+00  0.00000000000E+00  0.32961374629E+03  0.32961619293E+03  0.12700000000E+01 0. -1.
          4   -1    0    0  501    0  0.00000000000E+00 -0.00000000000E+00 -0.11814559300E+02  0.11882622246E+02  0.12700000000E+01 0. -1.
         25    2    1    2    0    0  0.00000000000E+00  0.00000000000E+00  0.31779918699E+03  0.34149881518E+03  0.12500047007E+03 0.  0.
    9000005    1    3    3    0    0 -0.42274276144E+02  0.29842950392E+02  0.25461888984E+03  0.25982589396E+03  0.10000000000E+01 0.  0.
    9000005    1    3    3    0    0  0.42274276144E+02 -0.29842950392E+02  0.63180297154E+02  0.81672921217E+02  0.10000000000E+01 0.  0.
<mgrwt>
<rscale>  0 0.12500047E+03</rscale>
<asrwt>0</asrwt>
<pdfrwt beam="2">  1        4 0.18230482E-02 0.12500047E+03</pdfrwt>
<pdfrwt beam="1">  1       -4 0.50715235E-01 0.12500047E+03</pdfrwt>
<totfact> 0.70669288E+03</totfact>
</mgrwt>
</event>
<event>
 5    1  0.3316199E-002  0.1249994E+03  0.7818608E-02  0.1235070E+00
          4   -1    0    0  501    0  0.00000000000E+00  0.00000000000E+00  0.19419223234E+03  0.19419638514E+03  0.12700000000E+01 0.  1.
         -4   -1    0    0    0  501 -0.00000000000E+00 -0.00000000000E+00 -0.20090770145E+02  0.20130870449E+02  0.12700000000E+01 0.  1.
         25    2    1    2    0    0  0.00000000000E+00  0.00000000000E+00  0.17410146220E+03  0.21432725559E+03  0.12499941340E+03 0.  0.
    9000005    1    3    3    0    0  0.39166075807E+02 -0.12764815870E+02  0.16762522951E+03  0.17261558327E+03  0.10000000000E+01 0.  0.
    9000005    1    3    3    0    0 -0.39166075807E+02  0.12764815870E+02  0.64762326887E+01  0.41711672325E+02  0.10000000000E+01 0.  0.
<mgrwt>
<rscale>  0 0.12499941E+03</rscale>
<asrwt>0</asrwt>
<pdfrwt beam="1">  1        4 0.29879133E-01 0.12499941E+03</pdfrwt>
<pdfrwt beam="2">  1       -4 0.30942917E-02 0.12499941E+03</pdfrwt>
<totfact> 0.87775173E+03</totfact>
</mgrwt>
</event>
<event>
 5    1  0.3316199E-002  0.1250002E+03  0.7818608E-02  0.1235069E+00
          4   -1    0    0  501    0  0.00000000000E+00  0.00000000000E+00  0.83659275288E+02  0.83668914429E+02  0.12700000000E+01 0.  1.
         -4   -1    0    0    0  501 -0.00000000000E+00 -0.00000000000E+00 -0.46671555744E+02  0.46688831808E+02  0.12700000000E+01 0.  1.
         25    2    1    2    0    0  0.00000000000E+00  0.00000000000E+00  0.36987719543E+02  0.13035774624E+03  0.12500020243E+03 0.  0.
    9000005    1    3    3    0    0 -0.16296977175E+02 -0.23967728323E+02 -0.39243496562E+02  0.48796470040E+02  0.10000000000E+01 0.  0.
    9000005    1    3    3    0    0  0.16296977175E+02  0.23967728323E+02  0.76231216105E+02  0.81561276197E+02  0.10000000000E+01 0.  0.
<mgrwt>
<rscale>  0 0.12500020E+03</rscale>
<asrwt>0</asrwt>
<pdfrwt beam="1">  1        4 0.12872728E-01 0.12500020E+03</pdfrwt>
<pdfrwt beam="2">  1       -4 0.71823097E-02 0.12500020E+03</pdfrwt>
<totfact> 0.10336813E+04</totfact>
</mgrwt>
</event>
<event>
 5    1  0.3316199E-002  0.1250001E+03  0.7818608E-02  0.1235069E+00
          4   -1    0    0  501    0  0.00000000000E+00  0.00000000000E+00  0.80417239150E+02  0.80427266847E+02  0.12700000000E+01 0.  1.
         -4   -1    0    0    0  501 -0.00000000000E+00 -0.00000000000E+00 -0.48553507829E+02  0.48570114499E+02  0.12700000000E+01 0.  1.
         25    2    1    2    0    0  0.00000000000E+00  0.00000000000E+00  0.31863731321E+02  0.12899738135E+03  0.12500010808E+03 0.  0.
    9000005    1    3    3    0    0 -0.52986049261E+02 -0.16388699578E+02 -0.13783835028E+02  0.57158595139E+02  0.10000000000E+01 0.  0.
    9000005    1    3    3    0    0  0.52986049261E+02  0.16388699578E+02  0.45647566349E+02  0.71838786207E+02  0.10000000000E+01 0.  0.
<mgrwt>
<rscale>  0 0.12500011E+03</rscale>
<asrwt>0</asrwt>
<pdfrwt beam="1">  1        4 0.12373932E-01 0.12500011E+03</pdfrwt>
<pdfrwt beam="2">  1       -4 0.74718193E-02 0.12500011E+03</pdfrwt>
<totfact> 0.10365978E+04</totfact>
</mgrwt>
</event>
<event>
 5    1  0.3316199E-002  0.1249985E+03  0.7818608E-02  0.1235072E+00
          4   -1    0    0  501    0  0.00000000000E+00  0.00000000000E+00  0.31345775715E+03  0.31346032990E+03  0.12700000000E+01 0.  1.
         -4   -1    0    0    0  501 -0.00000000000E+00 -0.00000000000E+00 -0.12426516673E+02  0.12491245599E+02  0.12700000000E+01 0.  1.
         25    2    1    2    0    0  0.00000000000E+00  0.00000000000E+00  0.30103124048E+03  0.32595157549E+03  0.12499848729E+03 0.  0.
    9000005    1    3    3    0    0  0.59143873746E+02 -0.19880138985E+02  0.14150594429E+03  0.15465493848E+03  0.10000000000E+01 0.  0.
    9000005    1    3    3    0    0 -0.59143873746E+02  0.19880138985E+02  0.15952529619E+03  0.17129663701E+03  0.10000000000E+01 0.  0.
<mgrwt>
<rscale>  0 0.12499849E+03</rscale>
<asrwt>0</asrwt>
<pdfrwt beam="1">  1        4 0.48229447E-01 0.12499849E+03</pdfrwt>
<pdfrwt beam="2">  1       -4 0.19169489E-02 0.12499849E+03</pdfrwt>
<totfact> 0.72456239E+03</totfact>
</mgrwt>
</event>
<event>
 5    1  0.3316199E-002  0.1249997E+03  0.7818608E-02  0.1235070E+00
          4   -1    0    0  501    0  0.00000000000E+00  0.00000000000E+00  0.73078911700E+02  0.73089946199E+02  0.12700000000E+01 0. -1.
         -4   -1    0    0    0  501 -0.00000000000E+00 -0.00000000000E+00 -0.53429607127E+02  0.53444698687E+02  0.12700000000E+01 0. -1.
         25    2    1    2    0    0  0.00000000000E+00  0.00000000000E+00  0.19649304573E+02  0.12653464489E+03  0.12499968474E+03 0.  0.
    9000005    1    3    3    0    0 -0.28675696946E+01 -0.56424839950E+02 -0.17209940542E+02  0.59069176165E+02  0.10000000000E+01 0.  0.
    9000005    1    3    3    0    0  0.28675696946E+01  0.56424839950E+02  0.36859245115E+02  0.67465468721E+02  0.10000000000E+01 0.  0.
<mgrwt>
<rscale>  0 0.12499968E+03</rscale>
<asrwt>0</asrwt>
<pdfrwt beam="1">  1        4 0.11244919E-01 0.12499968E+03</pdfrwt>
<pdfrwt beam="2">  1       -4 0.82219493E-02 0.12499968E+03</pdfrwt>
<totfact> 0.10419347E+04</totfact>
</mgrwt>
</event>
<event>
 5    1  0.3316199E-002  0.1250007E+03  0.7818608E-02  0.1235068E+00
         -4   -1    0    0    0  501 -0.00000000000E+00  0.00000000000E+00  0.37424753005E+02  0.37446295378E+02  0.12700000000E+01 0. -1.
          4   -1    0    0  501    0  0.00000000000E+00 -0.00000000000E+00 -0.10432187113E+03  0.10432960125E+03  0.12700000000E+01 0. -1.
         25    2    1    2    0    0  0.00000000000E+00  0.00000000000E+00 -0.66897118128E+02  0.14177589663E+03  0.12500072180E+03 0.  0.
    9000005    1    3    3    0    0 -0.49083038492E+02  0.19440251118E+02  0.44789992459E+01  0.52991786773E+02  0.10000000000E+01 0.  0.
    9000005    1    3    3    0    0  0.49083038492E+02 -0.19440251118E+02 -0.71376117374E+02  0.88784109854E+02  0.10000000000E+01 0.  0.
<mgrwt>
<rscale>  0 0.12500072E+03</rscale>
<asrwt>0</asrwt>
<pdfrwt beam="2">  1        4 0.16051770E-01 0.12500072E+03</pdfrwt>
<pdfrwt beam="1">  1       -4 0.57599061E-02 0.12500072E+03</pdfrwt>
<totfact> 0.10096747E+04</totfact>
</mgrwt>
</event>
<event>
 5    1  0.3316199E-002  0.1249987E+03  0.7818608E-02  0.1235071E+00
          4   -1    0    0  501    0  0.00000000000E+00  0.00000000000E+00  0.30255050746E+02  0.30281694068E+02  0.12700000000E+01 0. -1.
         -4   -1    0    0    0  501 -0.00000000000E+00 -0.00000000000E+00 -0.12902130958E+03  0.12902755995E+03  0.12700000000E+01 0. -1.
         25    2    1    2    0    0  0.00000000000E+00  0.00000000000E+00 -0.98766258834E+02  0.15930925401E+03  0.12499865812E+03 0.  0.
    9000005    1    3    3    0    0  0.52239063960E+02 -0.19991563041E+02 -0.84899599764E+02  0.10167361721E+03  0.10000000000E+01 0.  0.
    9000005    1    3    3    0    0 -0.52239063960E+02  0.19991563041E+02 -0.13866659070E+02  0.57635636806E+02  0.10000000000E+01 0.  0.
<mgrwt>
<rscale>  0 0.12499866E+03</rscale>
<asrwt>0</asrwt>
<pdfrwt beam="1">  1        4 0.46571535E-02 0.12499866E+03</pdfrwt>
<pdfrwt beam="2">  1       -4 0.19851962E-01 0.12499866E+03</pdfrwt>
<totfact> 0.97479061E+03</totfact>
</mgrwt>
</event>
<event>
 5    1  0.3316199E-002  0.1250041E+03  0.7818608E-02  0.1235063E+00
          4   -1    0    0  501    0  0.00000000000E+00  0.00000000000E+00  0.59142790681E+02  0.59156424753E+02  0.12700000000E+01 0. -1.
         -4   -1    0    0    0  501 -0.00000000000E+00 -0.00000000000E+00 -0.66024799895E+02  0.66037013116E+02  0.12700000000E+01 0. -1.
         25    2    1    2    0    0  0.00000000000E+00  0.00000000000E+00 -0.68820092144E+01  0.12519343787E+03  0.12500413927E+03 0.  0.
    9000005    1    3    3    0    0 -0.61736959220E+02 -0.90062725501E+00  0.62299865306E+01  0.62065094823E+02  0.10000000000E+01 0.  0.
    9000005    1    3    3    0    0  0.61736959220E+02  0.90062725501E+00 -0.13111995745E+02  0.63128343045E+02  0.10000000000E+01 0.  0.
<mgrwt>
<rscale>  0 0.12500414E+03</rscale>
<asrwt>0</asrwt>
<pdfrwt beam="1">  1        4 0.91008791E-02 0.12500414E+03</pdfrwt>
<pdfrwt beam="2">  1       -4 0.10159650E-01 0.12500414E+03</pdfrwt>
<totfact> 0.10447685E+04</totfact>
</mgrwt>
</event>
<event>
 5    1  0.3316199E-002  0.1250030E+03  0.7818608E-02  0.1235065E+00
          4   -1    0    0  501    0  0.00000000000E+00  0.00000000000E+00  0.17787916826E+04  0.17787921360E+04  0.12700000000E+01 0.  1.
         -4   -1    0    0    0  501 -0.00000000000E+00 -0.00000000000E+00 -0.20120178529E+01  0.23793099505E+01  0.12700000000E+01 0.  1.
         25    2    1    2    0    0  0.00000000000E+00  0.00000000000E+00  0.17767796648E+04  0.17811714459E+04  0.12500297077E+03 0.  0.
    9000005    1    3    3    0    0 -0.36506973878E+01 -0.67276281607E+01  0.17721569781E+04  0.17721737905E+04  0.10000000000E+01 0.  0.
    9000005    1    3    3    0    0  0.36506973878E+01  0.67276281607E+01  0.46226866680E+01  0.89976554789E+01  0.10000000000E+01 0.  0.
<mgrwt>
<rscale>  0 0.12500297E+03</rscale>
<asrwt>0</asrwt>
<pdfrwt beam="1">  1        4 0.27368853E+00 0.12500297E+03</pdfrwt>
<pdfrwt beam="2">  1       -4 0.33782934E-03 0.12500297E+03</pdfrwt>
<totfact> 0.12994968E+03</totfact>
</mgrwt>
</event>
<event>
 5    1  0.3316199E-002  0.1249989E+03  0.7818608E-02  0.1235071E+00
          4   -1    0    0  501    0  0.00000000000E+00  0.00000000000E+00  0.23414888987E+03  0.23415233402E+03  0.12700000000E+01 0.  1.
         -4   -1    0    0    0  501 -0.00000000000E+00 -0.00000000000E+00 -0.16654718208E+02  0.16703069736E+02  0.12700000000E+01 0.  1.
         25    2    1    2    0    0  0.00000000000E+00  0.00000000000E+00  0.21749417166E+03  0.25085540376E+03  0.12499887554E+03 0.  0.
    9000005    1    3    3    0    0  0.27108153959E+02  0.20092062646E+02  0.31885339559E+01  0.33907370014E+02  0.10000000000E+01 0.  0.
    9000005    1    3    3    0    0 -0.27108153959E+02 -0.20092062646E+02  0.21430563771E+03  0.21694803374E+03  0.10000000000E+01 0.  0.
<mgrwt>
<rscale>  0 0.12499888E+03</rscale>
<asrwt>0</asrwt>
<pdfrwt beam="1">  1        4 0.36026886E-01 0.12499888E+03</pdfrwt>
<pdfrwt beam="2">  1       -4 0.25662489E-02 0.12499888E+03</pdfrwt>
<totfact> 0.82208814E+03</totfact>
</mgrwt>
</event>
<event>
 5    1  0.3316199E-002  0.1250028E+03  0.7818608E-02  0.1235065E+00
          4   -1    0    0  501    0  0.00000000000E+00  0.00000000000E+00  0.99811184660E+02  0.99819264088E+02  0.12700000000E+01 0. -1.
         -4   -1    0    0    0  501 -0.00000000000E+00 -0.00000000000E+00 -0.39118161085E+02  0.39138771400E+02  0.12700000000E+01 0. -1.
         25    2    1    2    0    0  0.00000000000E+00  0.00000000000E+00  0.60693023574E+02  0.13895803549E+03  0.12500277003E+03 0.  0.
    9000005    1    3    3    0    0  0.44415482098E+02 -0.66029083704E+01 -0.17969415215E+02  0.48375958203E+02  0.10000000000E+01 0.  0.
    9000005    1    3    3    0    0 -0.44415482098E+02  0.66029083704E+01  0.78662438789E+02  0.90582077285E+02  0.10000000000E+01 0.  0.
<mgrwt>
<rscale>  0 0.12500277E+03</rscale>
<asrwt>0</asrwt>
<pdfrwt beam="1">  1        4 0.15357774E-01 0.12500277E+03</pdfrwt>
<pdfrwt beam="2">  1       -4 0.60203856E-02 0.12500277E+03</pdfrwt>
<totfact> 0.10154593E+04</totfact>
</mgrwt>
</event>
<event>
 5    1  0.3316199E-002  0.1250078E+03  0.7818608E-02  0.1235057E+00
          4   -1    0    0  501    0  0.00000000000E+00  0.00000000000E+00  0.18276084165E+03  0.18276525419E+03  0.12700000000E+01 0.  1.
         -4   -1    0    0    0  501 -0.00000000000E+00 -0.00000000000E+00 -0.21352701423E+02  0.21390436135E+02  0.12700000000E+01 0.  1.
         25    2    1    2    0    0  0.00000000000E+00  0.00000000000E+00  0.16140814022E+03  0.20415569032E+03  0.12500783240E+03 0.  0.
    9000005    1    3    3    0    0 -0.58803806808E+02  0.10577750287E+02  0.50769707271E+02  0.78411349132E+02  0.10000000000E+01 0.  0.
    9000005    1    3    3    0    0  0.58803806808E+02 -0.10577750287E+02  0.11063843295E+03  0.12574434119E+03  0.10000000000E+01 0.  0.
<mgrwt>
<rscale>  0 0.12500783E+03</rscale>
<asrwt>0</asrwt>
<pdfrwt beam="1">  1        4 0.28120296E-01 0.12500783E+03</pdfrwt>
<pdfrwt beam="2">  1       -4 0.32882729E-02 0.12500783E+03</pdfrwt>
<totfact> 0.89423648E+03</totfact>
</mgrwt>
</event>
<event>
 5    1  0.3316199E-002  0.1250011E+03  0.7818608E-02  0.1235067E+00
          4   -1    0    0  501    0  0.00000000000E+00  0.00000000000E+00  0.18487619766E+03  0.18488055971E+03  0.12700000000E+01 0. -1.
         -4   -1    0    0    0  501 -0.00000000000E+00 -0.00000000000E+00 -0.21105693733E+02  0.21143869276E+02  0.12700000000E+01 0. -1.
         25    2    1    2    0    0  0.00000000000E+00  0.00000000000E+00  0.16377050392E+03  0.20602442899E+03  0.12500114953E+03 0.  0.
    9000005    1    3    3    0    0  0.98477195931E+01 -0.29093535024E+02  0.17158488716E+03  0.17431518827E+03  0.10000000000E+01 0.  0.
    9000005    1    3    3    0    0 -0.98477195931E+01  0.29093535024E+02 -0.78143832364E+01  0.31709240715E+02  0.10000000000E+01 0.  0.
<mgrwt>
<rscale>  0 0.12500115E+03</rscale>
<asrwt>0</asrwt>
<pdfrwt beam="1">  1        4 0.28445763E-01 0.12500115E+03</pdfrwt>
<pdfrwt beam="2">  1       -4 0.32503020E-02 0.12500115E+03</pdfrwt>
<totfact> 0.89126996E+03</totfact>
</mgrwt>
</event>
<event>
 5    1  0.3316199E-002  0.1250000E+03  0.7818608E-02  0.1235069E+00
          4   -1    0    0  501    0  0.00000000000E+00  0.00000000000E+00  0.43450591641E+01  0.45268575347E+01  0.12700000000E+01 0.  1.
         -4   -1    0    0    0  501 -0.00000000000E+00 -0.00000000000E+00 -0.88040534799E+03  0.88040626398E+03  0.12700000000E+01 0.  1.
         25    2    1    2    0    0  0.00000000000E+00  0.00000000000E+00 -0.87606028882E+03  0.88493312152E+03  0.12499999964E+03 0.  0.
    9000005    1    3    3    0    0  0.21875486318E+02 -0.16315720754E+02 -0.83602645460E+03  0.83647233812E+03  0.10000000000E+01 0.  0.
    9000005    1    3    3    0    0 -0.21875486318E+02  0.16315720754E+02 -0.40033834225E+02  0.48460783404E+02  0.10000000000E+01 0.  0.
<mgrwt>
<rscale>  0 0.12500000E+03</rscale>
<asrwt>0</asrwt>
<pdfrwt beam="1">  1        4 0.68252629E-03 0.12500000E+03</pdfrwt>
<pdfrwt beam="2">  1       -4 0.13546089E+00 0.12500000E+03</pdfrwt>
<totfact> 0.34738899E+03</totfact>
</mgrwt>
</event>
<event>
 5    1  0.3316199E-002  0.1249999E+03  0.7818608E-02  0.1235069E+00
          4   -1    0    0  501    0  0.00000000000E+00  0.00000000000E+00  0.50981300246E+03  0.50981458431E+03  0.12700000000E+01 0.  1.
         -4   -1    0    0    0  501 -0.00000000000E+00 -0.00000000000E+00 -0.76078808317E+01  0.77131543969E+01  0.12700000000E+01 0.  1.
         25    2    1    2    0    0  0.00000000000E+00  0.00000000000E+00  0.50220512163E+03  0.51752773871E+03  0.12499990457E+03 0.  0.
    9000005    1    3    3    0    0 -0.62472611261E+01  0.74917868939E+01 -0.44566303843E+01  0.10771104717E+02  0.10000000000E+01 0.  0.
    9000005    1    3    3    0    0  0.62472611261E+01 -0.74917868939E+01  0.50666175202E+03  0.50675663399E+03  0.10000000000E+01 0.  0.
<mgrwt>
<rscale>  0 0.12499990E+03</rscale>
<asrwt>0</asrwt>
<pdfrwt beam="1">  1        4 0.78441015E-01 0.12499990E+03</pdfrwt>
<pdfrwt beam="2">  1       -4 0.11786625E-02 0.12499990E+03</pdfrwt>
<totfact> 0.54529722E+03</totfact>
</mgrwt>
</event>
<event>
 5    1  0.3316199E-002  0.1250023E+03  0.7818608E-02  0.1235066E+00
         -4   -1    0    0    0  501 -0.00000000000E+00  0.00000000000E+00  0.12604476841E+02  0.12668296509E+02  0.12700000000E+01 0. -1.
          4   -1    0    0  501    0  0.00000000000E+00 -0.00000000000E+00 -0.30907339129E+03  0.30907600053E+03  0.12700000000E+01 0. -1.
         25    2    1    2    0    0  0.00000000000E+00  0.00000000000E+00 -0.29646891445E+03  0.32174429704E+03  0.12500230175E+03 0.  0.
    9000005    1    3    3    0    0 -0.27886737430E+02 -0.54553370674E+02 -0.11653739269E+03  0.13166512170E+03  0.10000000000E+01 0.  0.
    9000005    1    3    3    0    0  0.27886737430E+02  0.54553370674E+02 -0.17993152175E+03  0.19007917534E+03  0.10000000000E+01 0.  0.
<mgrwt>
<rscale>  0 0.12500230E+03</rscale>
<asrwt>0</asrwt>
<pdfrwt beam="2">  1        4 0.47554857E-01 0.12500230E+03</pdfrwt>
<pdfrwt beam="1">  1       -4 0.19442604E-02 0.12500230E+03</pdfrwt>
<totfact> 0.72945424E+03</totfact>
</mgrwt>
</event>
<event>
 5    1  0.3316199E-002  0.1249973E+03  0.7818608E-02  0.1235074E+00
         -4   -1    0    0    0  501 -0.00000000000E+00  0.00000000000E+00  0.43804435741E+02  0.43822842110E+02  0.12700000000E+01 0. -1.
          4   -1    0    0  501    0  0.00000000000E+00 -0.00000000000E+00 -0.89129236903E+02  0.89138284541E+02  0.12700000000E+01 0. -1.
         25    2    1    2    0    0  0.00000000000E+00  0.00000000000E+00 -0.45324801162E+02  0.13296112665E+03  0.12499729437E+03 0.  0.
    9000005    1    3    3    0    0 -0.13067715716E+02  0.10221716845E+02  0.41424216758E+02  0.44634229279E+02  0.10000000000E+01 0.  0.
    9000005    1    3    3    0    0  0.13067715716E+02 -0.10221716845E+02 -0.86749017921E+02  0.88326897373E+02  0.10000000000E+01 0.  0.
<mgrwt>
<rscale>  0 0.12499729E+03</rscale>
<asrwt>0</asrwt>
<pdfrwt beam="2">  1        4 0.13714302E-01 0.12499729E+03</pdfrwt>
<pdfrwt beam="1">  1       -4 0.67412558E-02 0.12499729E+03</pdfrwt>
<totfact> 0.10281854E+04</totfact>
</mgrwt>
</event>
<event>
 5    1  0.3316199E-002  0.1250021E+03  0.7818608E-02  0.1235066E+00
          4   -1    0    0  501    0  0.00000000000E+00  0.00000000000E+00  0.69065990753E+02  0.69077666280E+02  0.12700000000E+01 0.  1.
         -4   -1    0    0    0  501 -0.00000000000E+00 -0.00000000000E+00 -0.56536508016E+02  0.56550770451E+02  0.12700000000E+01 0.  1.
         25    2    1    2    0    0  0.00000000000E+00  0.00000000000E+00  0.12529482737E+02  0.12562843673E+03  0.12500206469E+03 0.  0.
    9000005    1    3    3    0    0 -0.26214982816E+02 -0.22108014033E+02  0.58770087078E+02  0.68050810015E+02  0.10000000000E+01 0.  0.
    9000005    1    3    3    0    0  0.26214982816E+02  0.22108014033E+02 -0.46240604341E+02  0.57577626717E+02  0.10000000000E+01 0.  0.
<mgrwt>
<rscale>  0 0.12500206E+03</rscale>
<asrwt>0</asrwt>
<pdfrwt beam="1">  1        4 0.10627532E-01 0.12500206E+03</pdfrwt>
<pdfrwt beam="2">  1       -4 0.86999195E-02 0.12500206E+03</pdfrwt>
<totfact> 0.10438634E+04</totfact>
</mgrwt>
</event>
<event>
 5    1  0.3316199E-002  0.1250004E+03  0.7818608E-02  0.1235069E+00
          4   -1    0    0  501    0  0.00000000000E+00  0.00000000000E+00  0.28761206157E+03  0.28761486551E+03  0.12700000000E+01 0.  1.
         -4   -1    0    0    0  501 -0.00000000000E+00 -0.00000000000E+00 -0.13549192565E+02  0.13608582555E+02  0.12700000000E+01 0.  1.
         25    2    1    2    0    0  0.00000000000E+00  0.00000000000E+00  0.27406286901E+03  0.30122344806E+03  0.12500043798E+03 0.  0.
    9000005    1    3    3    0    0  0.48810450879E+02 -0.37480380519E+02  0.16321258808E+03  0.17443218724E+03  0.10000000000E+01 0.  0.
    9000005    1    3    3    0    0 -0.48810450879E+02  0.37480380519E+02  0.11085028093E+03  0.12679126082E+03  0.10000000000E+01 0.  0.
<mgrwt>
<rscale>  0 0.12500044E+03</rscale>
<asrwt>0</asrwt>
<pdfrwt beam="1">  1        4 0.44252792E-01 0.12500044E+03</pdfrwt>
<pdfrwt beam="2">  1       -4 0.20892754E-02 0.12500044E+03</pdfrwt>
<totfact> 0.75444893E+03</totfact>
</mgrwt>
</event>
<event>
 5    1  0.3316199E-002  0.1249936E+03  0.7818608E-02  0.1235079E+00
         -4   -1    0    0    0  501 -0.00000000000E+00  0.00000000000E+00  0.36061288204E+02  0.36083644590E+02  0.12700000000E+01 0.  1.
          4   -1    0    0  501    0  0.00000000000E+00 -0.00000000000E+00 -0.10825175846E+03  0.10825920796E+03  0.12700000000E+01 0.  1.
         25    2    1    2    0    0  0.00000000000E+00  0.00000000000E+00 -0.72190470253E+02  0.14434285255E+03  0.12499358019E+03 0.  0.
    9000005    1    3    3    0    0  0.12380135602E+02  0.23770535653E+01  0.34583283972E+02  0.36822841708E+02  0.10000000000E+01 0.  0.
    9000005    1    3    3    0    0 -0.12380135602E+02 -0.23770535653E+01 -0.10677375423E+03  0.10752001085E+03  0.10000000000E+01 0.  0.
<mgrwt>
<rscale>  0 0.12499358E+03</rscale>
<asrwt>0</asrwt>
<pdfrwt beam="2">  1        4 0.16656409E-01 0.12499358E+03</pdfrwt>
<pdfrwt beam="1">  1       -4 0.55501833E-02 0.12499358E+03</pdfrwt>
<totfact> 0.10045810E+04</totfact>
</mgrwt>
</event>
<event>
 5    1  0.3316199E-002  0.1249988E+03  0.7818608E-02  0.1235071E+00
         -4   -1    0    0    0  501 -0.00000000000E+00  0.00000000000E+00  0.25510367513E+02  0.25541960587E+02  0.12700000000E+01 0. -1.
          4   -1    0    0  501    0  0.00000000000E+00 -0.00000000000E+00 -0.15299204107E+03  0.15299731217E+03  0.12700000000E+01 0. -1.
         25    2    1    2    0    0  0.00000000000E+00  0.00000000000E+00 -0.12748167356E+03  0.17853927276E+03  0.12499877929E+03 0.  0.
    9000005    1    3    3    0    0  0.26392742481E+02 -0.56111117054E+02 -0.74817463241E+02  0.97178635093E+02  0.10000000000E+01 0.  0.
    9000005    1    3    3    0    0 -0.26392742481E+02  0.56111117054E+02 -0.52664210319E+02  0.81360637665E+02  0.10000000000E+01 0.  0.
<mgrwt>
<rscale>  0 0.12499878E+03</rscale>
<asrwt>0</asrwt>
<pdfrwt beam="2">  1        4 0.23540072E-01 0.12499878E+03</pdfrwt>
<pdfrwt beam="1">  1       -4 0.39275077E-02 0.12499878E+03</pdfrwt>
<totfact> 0.93883172E+03</totfact>
</mgrwt>
</event>
<event>
 5    1  0.3316199E-002  0.1250004E+03  0.7818608E-02  0.1235069E+00
         -4   -1    0    0    0  501 -0.00000000000E+00  0.00000000000E+00  0.59708737425E+03  0.59708872489E+03  0.12700000000E+01 0. -1.
          4   -1    0    0  501    0  0.00000000000E+00 -0.00000000000E+00 -0.64792113953E+01  0.66025056081E+01  0.12700000000E+01 0. -1.
         25    2    1    2    0    0  0.00000000000E+00  0.00000000000E+00  0.59060816286E+03  0.60369123050E+03  0.12500039899E+03 0.  0.
    9000005    1    3    3    0    0  0.55023021079E+02 -0.29374442932E+02  0.27667179808E+03  0.28361712677E+03  0.10000000000E+01 0.  0.
    9000005    1    3    3    0    0 -0.55023021079E+02  0.29374442932E+02  0.31393636478E+03  0.32007410373E+03  0.10000000000E+01 0.  0.
<mgrwt>
<rscale>  0 0.12500040E+03</rscale>
<asrwt>0</asrwt>
<pdfrwt beam="2">  1        4 0.10063893E-02 0.12500040E+03</pdfrwt>
<pdfrwt beam="1">  1       -4 0.91869231E-01 0.12500040E+03</pdfrwt>
<totfact> 0.48634990E+03</totfact>
</mgrwt>
</event>
<event>
 5    1  0.3316199E-002  0.1249990E+03  0.7818608E-02  0.1235071E+00
         -4   -1    0    0    0  501 -0.00000000000E+00  0.00000000000E+00  0.11256273878E+03  0.11256990301E+03  0.12700000000E+01 0. -1.
          4   -1    0    0  501    0  0.00000000000E+00 -0.00000000000E+00 -0.34682395186E+02  0.34705639827E+02  0.12700000000E+01 0. -1.
         25    2    1    2    0    0  0.00000000000E+00  0.00000000000E+00  0.77880343599E+02  0.14727554283E+03  0.12499895039E+03 0.  0.
    9000005    1    3    3    0    0  0.35871258266E+02 -0.50550049152E+02  0.48301583316E+02  0.78588151713E+02  0.10000000000E+01 0.  0.
    9000005    1    3    3    0    0 -0.35871258266E+02  0.50550049152E+02  0.29578760283E+02  0.68687391119E+02  0.10000000000E+01 0.  0.
<mgrwt>
<rscale>  0 0.12499895E+03</rscale>
<asrwt>0</asrwt>
<pdfrwt beam="2">  1        4 0.53380921E-02 0.12499895E+03</pdfrwt>
<pdfrwt beam="1">  1       -4 0.17319684E-01 0.12499895E+03</pdfrwt>
<totfact> 0.99851935E+03</totfact>
</mgrwt>
</event>
<event>
 5    1  0.3316199E-002  0.1250040E+03  0.7818608E-02  0.1235063E+00
          4   -1    0    0  501    0  0.00000000000E+00  0.00000000000E+00  0.86347604011E+01  0.87276564543E+01  0.12700000000E+01 0. -1.
         -4   -1    0    0    0  501 -0.00000000000E+00 -0.00000000000E+00 -0.44990144333E+03  0.44990323583E+03  0.12700000000E+01 0. -1.
         25    2    1    2    0    0  0.00000000000E+00  0.00000000000E+00 -0.44126668293E+03  0.45863089228E+03  0.12500403951E+03 0.  0.
    9000005    1    3    3    0    0 -0.71369744516E+01 -0.28542816539E+02 -0.18346782660E+02  0.34687652187E+02  0.10000000000E+01 0.  0.
    9000005    1    3    3    0    0  0.71369744516E+01  0.28542816539E+02 -0.42291990027E+03  0.42394324010E+03  0.10000000000E+01 0.  0.
<mgrwt>
<rscale>  0 0.12500404E+03</rscale>
<asrwt>0</asrwt>
<pdfrwt beam="1">  1        4 0.13357088E-02 0.12500404E+03</pdfrwt>
<pdfrwt beam="2">  1       -4 0.69222872E-01 0.12500404E+03</pdfrwt>
<totfact> 0.59218067E+03</totfact>
</mgrwt>
</event>
<event>
 5    1  0.3316199E-002  0.1250017E+03  0.7818608E-02  0.1235067E+00
         -4   -1    0    0    0  501 -0.00000000000E+00  0.00000000000E+00  0.25567258520E+02  0.25598781382E+02  0.12700000000E+01 0.  1.
          4   -1    0    0  501    0  0.00000000000E+00 -0.00000000000E+00 -0.15265905864E+03  0.15266434124E+03  0.12700000000E+01 0.  1.
         25    2    1    2    0    0  0.00000000000E+00  0.00000000000E+00 -0.12709180012E+03  0.17826312262E+03  0.12500166090E+03 0.  0.
    9000005    1    3    3    0    0 -0.38450018221E+02 -0.39172701693E+02 -0.20943161751E+02  0.58758152483E+02  0.10000000000E+01 0.  0.
    9000005    1    3    3    0    0  0.38450018221E+02  0.39172701693E+02 -0.10614863837E+03  0.11950497014E+03  0.10000000000E+01 0.  0.
<mgrwt>
<rscale>  0 0.12500166E+03</rscale>
<asrwt>0</asrwt>
<pdfrwt beam="2">  1        4 0.23488840E-01 0.12500166E+03</pdfrwt>
<pdfrwt beam="1">  1       -4 0.39362557E-02 0.12500166E+03</pdfrwt>
<totfact> 0.93927086E+03</totfact>
</mgrwt>
</event>
<event>
 5    1  0.3316199E-002  0.1249991E+03  0.7818608E-02  0.1235071E+00
         -4   -1    0    0    0  501 -0.00000000000E+00  0.00000000000E+00  0.42330185105E+03  0.42330375619E+03  0.12700000000E+01 0.  1.
          4   -1    0    0  501    0  0.00000000000E+00 -0.00000000000E+00 -0.91822888792E+01  0.92696995129E+01  0.12700000000E+01 0.  1.
         25    2    1    2    0    0  0.00000000000E+00  0.00000000000E+00  0.41411956217E+03  0.43257345570E+03  0.12499913121E+03 0.  0.
    9000005    1    3    3    0    0 -0.46346585548E+01  0.53728308153E+02  0.31632881021E+03  0.32089426191E+03  0.10000000000E+01 0.  0.
    9000005    1    3    3    0    0  0.46346585548E+01 -0.53728308153E+02  0.97790751959E+02  0.11167919379E+03  0.10000000000E+01 0.  0.
<mgrwt>
<rscale>  0 0.12499913E+03</rscale>
<asrwt>0</asrwt>
<pdfrwt beam="2">  1        4 0.14195301E-02 0.12499913E+03</pdfrwt>
<pdfrwt beam="1">  1       -4 0.65130241E-01 0.12499913E+03</pdfrwt>
<totfact> 0.61504585E+03</totfact>
</mgrwt>
</event>
<event>
 4    1  0.3316199E-002  0.1249263E+03  0.7818608E-02  0.1235185E+00
         -4   -1    0    0    0  501 -0.00000000000E+00  0.00000000000E+00  0.14153777496E+02  0.14210640992E+02  0.12700000000E+01 0. -1.
          4   -1    0    0  501    0  0.00000000000E+00 -0.00000000000E+00 -0.27504993837E+03  0.27505287036E+03  0.12700000000E+01 0. -1.
    9000005    1    1    2    0    0  0.30920205905E+01  0.40650270581E+02 -0.20893176293E+02  0.45820627508E+02  0.10000000000E+01 0.  0.
    9000005    1    1    2    0    0 -0.30920205905E+01 -0.40650270581E+02 -0.24000298458E+03  0.24344288385E+03  0.10000000000E+01 0.  0.
<mgrwt>
<rscale>  0 0.12492627E+03</rscale>
<asrwt>0</asrwt>
<pdfrwt beam="2">  1        4 0.42319971E-01 0.12492627E+03</pdfrwt>
<pdfrwt beam="1">  1       -4 0.21821041E-02 0.12492627E+03</pdfrwt>
<totfact> 0.77091851E+03</totfact>
</mgrwt>
</event>
<event>
 5    1  0.3316199E-002  0.1249993E+03  0.7818608E-02  0.1235070E+00
          4   -1    0    0  501    0  0.00000000000E+00  0.00000000000E+00  0.49615949952E+03  0.49616112491E+03  0.12700000000E+01 0.  1.
         -4   -1    0    0    0  501 -0.00000000000E+00 -0.00000000000E+00 -0.78200182999E+01  0.79224734907E+01  0.12700000000E+01 0.  1.
         25    2    1    2    0    0  0.00000000000E+00  0.00000000000E+00  0.48833948122E+03  0.50408359840E+03  0.12499930100E+03 0.  0.
    9000005    1    3    3    0    0  0.48342229069E+02 -0.21413211475E+02  0.37850797905E+03  0.38218423168E+03  0.10000000000E+01 0.  0.
    9000005    1    3    3    0    0 -0.48342229069E+02  0.21413211475E+02  0.10983150217E+03  0.12189936672E+03  0.10000000000E+01 0.  0.
<mgrwt>
<rscale>  0 0.12499930E+03</rscale>
<asrwt>0</asrwt>
<pdfrwt beam="1">  1        4 0.76340251E-01 0.12499930E+03</pdfrwt>
<pdfrwt beam="2">  1       -4 0.12110857E-02 0.12499930E+03</pdfrwt>
<totfact> 0.55549761E+03</totfact>
</mgrwt>
</event>
<event>
 5    1  0.3316199E-002  0.1250018E+03  0.7818608E-02  0.1235066E+00
          4   -1    0    0  501    0  0.00000000000E+00  0.00000000000E+00  0.61672975848E+02  0.61686050692E+02  0.12700000000E+01 0.  1.
         -4   -1    0    0    0  501 -0.00000000000E+00 -0.00000000000E+00 -0.63313829433E+02  0.63326565495E+02  0.12700000000E+01 0.  1.
         25    2    1    2    0    0  0.00000000000E+00  0.00000000000E+00 -0.16408535849E+01  0.12501261619E+03  0.12500184721E+03 0.  0.
    9000005    1    3    3    0    0  0.14532673572E+02  0.40143713828E+02  0.44819555114E+02  0.61907260332E+02  0.10000000000E+01 0.  0.
    9000005    1    3    3    0    0 -0.14532673572E+02 -0.40143713828E+02 -0.46460408699E+02  0.63105355855E+02  0.10000000000E+01 0.  0.
<mgrwt>
<rscale>  0 0.12500185E+03</rscale>
<asrwt>0</asrwt>
<pdfrwt beam="1">  1        4 0.94901356E-02 0.12500185E+03</pdfrwt>
<pdfrwt beam="2">  1       -4 0.97425745E-02 0.12500185E+03</pdfrwt>
<totfact> 0.10452152E+04</totfact>
</mgrwt>
</event>
<event>
 5    1  0.3316199E-002  0.1249945E+03  0.7818608E-02  0.1235078E+00
         -4   -1    0    0    0  501 -0.00000000000E+00  0.00000000000E+00  0.13358916280E+03  0.13359519946E+03  0.12700000000E+01 0. -1.
          4   -1    0    0  501    0  0.00000000000E+00 -0.00000000000E+00 -0.29217684883E+02  0.29245273292E+02  0.12700000000E+01 0. -1.
         25    2    1    2    0    0  0.00000000000E+00  0.00000000000E+00  0.10437147792E+03  0.16284047275E+03  0.12499445653E+03 0.  0.
    9000005    1    3    3    0    0 -0.19628606472E+02  0.52239325560E+02  0.88818562130E+02  0.10489979173E+03  0.10000000000E+01 0.  0.
    9000005    1    3    3    0    0  0.19628606472E+02 -0.52239325560E+02  0.15552915788E+02  0.57940681015E+02  0.10000000000E+01 0.  0.
<mgrwt>
<rscale>  0 0.12499446E+03</rscale>
<asrwt>0</asrwt>
<pdfrwt beam="2">  1        4 0.44976151E-02 0.12499446E+03</pdfrwt>
<pdfrwt beam="1">  1       -4 0.20554765E-01 0.12499446E+03</pdfrwt>
<totfact> 0.96810001E+03</totfact>
</mgrwt>
</event>
<event>
 5    1  0.3316199E-002  0.1250158E+03  0.7818608E-02  0.1235045E+00
         -4   -1    0    0    0  501 -0.00000000000E+00  0.00000000000E+00  0.33352261736E+03  0.33352503532E+03  0.12700000000E+01 0. -1.
          4   -1    0    0  501    0  0.00000000000E+00 -0.00000000000E+00 -0.11678170381E+02  0.11747023599E+02  0.12700000000E+01 0. -1.
         25    2    1    2    0    0  0.00000000000E+00  0.00000000000E+00  0.32184444698E+03  0.34527205892E+03  0.12501578550E+03 0.  0.
    9000005    1    3    3    0    0 -0.54951556363E+02  0.39195269938E+01  0.24244061805E+03  0.24862318782E+03  0.10000000000E+01 0.  0.
    9000005    1    3    3    0    0  0.54951556363E+02 -0.39195269938E+01  0.79403828923E+02  0.96648871106E+02  0.10000000000E+01 0.  0.
<mgrwt>
<rscale>  0 0.12501579E+03</rscale>
<asrwt>0</asrwt>
<pdfrwt beam="2">  1        4 0.18021239E-02 0.12501579E+03</pdfrwt>
<pdfrwt beam="1">  1       -4 0.51316656E-01 0.12501579E+03</pdfrwt>
<totfact> 0.70223294E+03</totfact>
</mgrwt>
</event>
<event>
 5    1  0.3316199E-002  0.1250065E+03  0.7818608E-02  0.1235059E+00
         -4   -1    0    0    0  501 -0.00000000000E+00  0.00000000000E+00  0.23271135015E+02  0.23305763770E+02  0.12700000000E+01 0.  1.
          4   -1    0    0  501    0  0.00000000000E+00 -0.00000000000E+00 -0.16771370848E+03  0.16771851691E+03  0.12700000000E+01 0.  1.
         25    2    1    2    0    0  0.00000000000E+00  0.00000000000E+00 -0.14444257347E+03  0.19102428068E+03  0.12500647494E+03 0.  0.
    9000005    1    3    3    0    0 -0.40084696119E+02  0.17339561741E+02 -0.39124666495E+01  0.43860582072E+02  0.10000000000E+01 0.  0.
    9000005    1    3    3    0    0  0.40084696119E+02 -0.17339561741E+02 -0.14053010682E+03  0.14716369860E+03  0.10000000000E+01 0.  0.
<mgrwt>
<rscale>  0 0.12500647E+03</rscale>
<asrwt>0</asrwt>
<pdfrwt beam="2">  1        4 0.25805142E-01 0.12500647E+03</pdfrwt>
<pdfrwt beam="1">  1       -4 0.35832084E-02 0.12500647E+03</pdfrwt>
<totfact> 0.91656106E+03</totfact>
</mgrwt>
</event>
<event>
 5    1  0.3316199E-002  0.1249999E+03  0.7818608E-02  0.1235069E+00
         -4   -1    0    0    0  501 -0.00000000000E+00  0.00000000000E+00  0.54216184611E+02  0.54231057281E+02  0.12700000000E+01 0.  1.
          4   -1    0    0  501    0  0.00000000000E+00 -0.00000000000E+00 -0.72019024867E+02  0.72030221732E+02  0.12700000000E+01 0.  1.
         25    2    1    2    0    0  0.00000000000E+00  0.00000000000E+00 -0.17802840255E+02  0.12626127901E+03  0.12499987783E+03 0.  0.
    9000005    1    3    3    0    0  0.23293966925E+01  0.16475351609E+02 -0.69745303060E+02  0.71709626959E+02  0.10000000000E+01 0.  0.
    9000005    1    3    3    0    0 -0.23293966925E+01 -0.16475351609E+02  0.51942462805E+02  0.54551652054E+02  0.10000000000E+01 0.  0.
<mgrwt>
<rscale>  0 0.12499988E+03</rscale>
<asrwt>0</asrwt>
<pdfrwt beam="2">  1        4 0.11081855E-01 0.12499988E+03</pdfrwt>
<pdfrwt beam="1">  1       -4 0.83429568E-02 0.12499988E+03</pdfrwt>
<totfact> 0.10425268E+04</totfact>
</mgrwt>
</event>
<event>
 5    1  0.3316199E-002  0.1249974E+03  0.7818608E-02  0.1235073E+00
         -4   -1    0    0    0  501 -0.00000000000E+00  0.00000000000E+00  0.45319585523E+03  0.45319763470E+03  0.12700000000E+01 0.  1.
          4   -1    0    0  501    0  0.00000000000E+00 -0.00000000000E+00 -0.85703878260E+01  0.86639741163E+01  0.12700000000E+01 0.  1.
         25    2    1    2    0    0  0.00000000000E+00  0.00000000000E+00  0.44462546740E+03  0.46186160882E+03  0.12499735771E+03 0.  0.
    9000005    1    3    3    0    0  0.78919338725E+01  0.47363316089E+02  0.37008933323E+03  0.37319255204E+03  0.10000000000E+01 0.  0.
    9000005    1    3    3    0    0 -0.78919338725E+01 -0.47363316089E+02  0.74536134178E+02  0.88669056775E+02  0.10000000000E+01 0.  0.
<mgrwt>
<rscale>  0 0.12499736E+03</rscale>
<asrwt>0</asrwt>
<pdfrwt beam="2">  1        4 0.13258573E-02 0.12499736E+03</pdfrwt>
<pdfrwt beam="1">  1       -4 0.69729762E-01 0.12499736E+03</pdfrwt>
<totfact> 0.58953259E+03</totfact>
</mgrwt>
</event>
<event>
 5    1  0.3316199E-002  0.1250010E+03  0.7818608E-02  0.1235068E+00
         -4   -1    0    0    0  501 -0.00000000000E+00  0.00000000000E+00  0.31003248845E+02  0.31029249732E+02  0.12700000000E+01 0. -1.
          4   -1    0    0  501    0  0.00000000000E+00 -0.00000000000E+00 -0.12591480882E+03  0.12592121338E+03  0.12700000000E+01 0. -1.
         25    2    1    2    0    0  0.00000000000E+00  0.00000000000E+00 -0.94911559975E+02  0.15695046312E+03  0.12500097462E+03 0.  0.
    9000005    1    3    3    0    0  0.61567400426E+02  0.61929196174E+01 -0.36480002690E+02  0.71837926229E+02  0.10000000000E+01 0.  0.
    9000005    1    3    3    0    0 -0.61567400426E+02 -0.61929196174E+01 -0.58431557285E+02  0.85112536887E+02  0.10000000000E+01 0.  0.
<mgrwt>
<rscale>  0 0.12500097E+03</rscale>
<asrwt>0</asrwt>
<pdfrwt beam="2">  1        4 0.19374001E-01 0.12500097E+03</pdfrwt>
<pdfrwt beam="1">  1       -4 0.47722234E-02 0.12500097E+03</pdfrwt>
<totfact> 0.97931808E+03</totfact>
</mgrwt>
</event>
<event>
 5    1  0.3316199E-002  0.1250040E+03  0.7818608E-02  0.1235063E+00
         -4   -1    0    0    0  501 -0.00000000000E+00  0.00000000000E+00  0.12100050249E+02  0.12166516183E+02  0.12700000000E+01 0.  1.
          4   -1    0    0  501    0  0.00000000000E+00 -0.00000000000E+00 -0.32189777545E+03  0.32190028074E+03  0.12700000000E+01 0.  1.
         25    2    1    2    0    0  0.00000000000E+00  0.00000000000E+00 -0.30979772520E+03  0.33406679692E+03  0.12500397700E+03 0.  0.
    9000005    1    3    3    0    0  0.21038581512E+02 -0.77058014267E+01  0.10104966035E+01  0.22450443003E+02  0.10000000000E+01 0.  0.
    9000005    1    3    3    0    0 -0.21038581512E+02  0.77058014267E+01 -0.31080822180E+03  0.31161635391E+03  0.10000000000E+01 0.  0.
<mgrwt>
<rscale>  0 0.12500398E+03</rscale>
<asrwt>0</asrwt>
<pdfrwt beam="2">  1        4 0.49528034E-01 0.12500398E+03</pdfrwt>
<pdfrwt beam="1">  1       -4 0.18668519E-02 0.12500398E+03</pdfrwt>
<totfact> 0.71507424E+03</totfact>
</mgrwt>
</event>
<event>
 5    1  0.3316199E-002  0.1250025E+03  0.7818608E-02  0.1235065E+00
          4   -1    0    0  501    0  0.00000000000E+00  0.00000000000E+00  0.88276099662E+02  0.88285234732E+02  0.12700000000E+01 0.  1.
         -4   -1    0    0    0  501 -0.00000000000E+00 -0.00000000000E+00 -0.44231565162E+02  0.44249793860E+02  0.12700000000E+01 0.  1.
         25    2    1    2    0    0  0.00000000000E+00  0.00000000000E+00  0.44044534501E+02  0.13253502859E+03  0.12500245111E+03 0.  0.
    9000005    1    3    3    0    0 -0.53182750705E+02 -0.21353389121E+02  0.48444455695E+02  0.75048234404E+02  0.10000000000E+01 0.  0.
    9000005    1    3    3    0    0  0.53182750705E+02  0.21353389121E+02 -0.43999211946E+01  0.57486794188E+02  0.10000000000E+01 0.  0.
<mgrwt>
<rscale>  0 0.12500245E+03</rscale>
<asrwt>0</asrwt>
<pdfrwt beam="1">  1        4 0.13583043E-01 0.12500245E+03</pdfrwt>
<pdfrwt beam="2">  1       -4 0.68069611E-02 0.12500245E+03</pdfrwt>
<totfact> 0.10289723E+04</totfact>
</mgrwt>
</event>
<event>
 5    1  0.3316199E-002  0.1249986E+03  0.7818608E-02  0.1235071E+00
         -4   -1    0    0    0  501 -0.00000000000E+00  0.00000000000E+00  0.50664941792E+03  0.50665100965E+03  0.12700000000E+01 0.  1.
          4   -1    0    0  501    0  0.00000000000E+00 -0.00000000000E+00 -0.76558811679E+01  0.77605036214E+01  0.12700000000E+01 0.  1.
         25    2    1    2    0    0  0.00000000000E+00  0.00000000000E+00  0.49899353675E+03  0.51441151327E+03  0.12499862105E+03 0.  0.
    9000005    1    3    3    0    0 -0.48880623519E+02 -0.55404284303E+01  0.40809229265E+03  0.41104784517E+03  0.10000000000E+01 0.  0.
    9000005    1    3    3    0    0  0.48880623519E+02  0.55404284303E+01  0.90901244100E+02  0.10336366809E+03  0.10000000000E+01 0.  0.
<mgrwt>
<rscale>  0 0.12499862E+03</rscale>
<asrwt>0</asrwt>
<pdfrwt beam="2">  1        4 0.11859976E-02 0.12499862E+03</pdfrwt>
<pdfrwt beam="1">  1       -4 0.77954271E-01 0.12499862E+03</pdfrwt>
<totfact> 0.54764936E+03</totfact>
</mgrwt>
</event>
<event>
 5    1  0.3316199E-002  0.1250031E+03  0.7818608E-02  0.1235064E+00
          4   -1    0    0  501    0  0.00000000000E+00  0.00000000000E+00  0.65827730345E+02  0.65839980121E+02  0.12700000000E+01 0.  1.
         -4   -1    0    0    0  501 -0.00000000000E+00 -0.00000000000E+00 -0.59318898630E+02  0.59332492233E+02  0.12700000000E+01 0.  1.
         25    2    1    2    0    0  0.00000000000E+00  0.00000000000E+00  0.65088317150E+01  0.12517247235E+03  0.12500313174E+03 0.  0.
    9000005    1    3    3    0    0 -0.32390299947E+02 -0.51644987182E+02  0.17024754326E+02  0.63302278723E+02  0.10000000000E+01 0.  0.
    9000005    1    3    3    0    0  0.32390299947E+02  0.51644987182E+02 -0.10515922611E+02  0.61870193632E+02  0.10000000000E+01 0.  0.
<mgrwt>
<rscale>  0 0.12500313E+03</rscale>
<asrwt>0</asrwt>
<pdfrwt beam="1">  1        4 0.10129331E-01 0.12500313E+03</pdfrwt>
<pdfrwt beam="2">  1       -4 0.91279723E-02 0.12500313E+03</pdfrwt>
<totfact> 0.10448378E+04</totfact>
</mgrwt>
</event>
<event>
 5    1  0.3316199E-002  0.1250004E+03  0.7818608E-02  0.1235069E+00
          4   -1    0    0  501    0  0.00000000000E+00  0.00000000000E+00  0.90508323672E+01  0.91395003440E+01  0.12700000000E+01 0.  1.
         -4   -1    0    0    0  501 -0.00000000000E+00 -0.00000000000E+00 -0.42939960246E+03  0.42940148055E+03  0.12700000000E+01 0.  1.
         25    2    1    2    0    0  0.00000000000E+00  0.00000000000E+00 -0.42034877009E+03  0.43854098089E+03  0.12500041360E+03 0.  0.
    9000005    1    3    3    0    0 -0.50596540834E+02  0.36670213687E+02 -0.21280289270E+03  0.22178995843E+03  0.10000000000E+01 0.  0.
    9000005    1    3    3    0    0  0.50596540834E+02 -0.36670213687E+02 -0.20754587739E+03  0.21675102246E+03  0.10000000000E+01 0.  0.
<mgrwt>
<rscale>  0 0.12500041E+03</rscale>
<asrwt>0</asrwt>
<pdfrwt beam="1">  1        4 0.13994012E-02 0.12500041E+03</pdfrwt>
<pdfrwt beam="2">  1       -4 0.66068427E-01 0.12500041E+03</pdfrwt>
<totfact> 0.60968812E+03</totfact>
</mgrwt>
</event>
<event>
 5    1  0.3316199E-002  0.1250238E+03  0.7818608E-02  0.1235032E+00
         -4   -1    0    0    0  501 -0.00000000000E+00  0.00000000000E+00  0.43569298475E+03  0.43569483571E+03  0.12700000000E+01 0. -1.
          4   -1    0    0  501    0  0.00000000000E+00 -0.00000000000E+00 -0.89221818992E+01  0.90121157251E+01  0.12700000000E+01 0. -1.
         25    2    1    2    0    0  0.00000000000E+00  0.00000000000E+00  0.42677080285E+03  0.44470695143E+03  0.12502381567E+03 0.  0.
    9000005    1    3    3    0    0 -0.13805143411E+02 -0.17482499440E+02  0.56591442476E+01  0.23005340356E+02  0.10000000000E+01 0.  0.
    9000005    1    3    3    0    0  0.13805143411E+02  0.17482499440E+02  0.42111165860E+03  0.42170161108E+03  0.10000000000E+01 0.  0.
<mgrwt>
<rscale>  0 0.12502382E+03</rscale>
<asrwt>0</asrwt>
<pdfrwt beam="2">  1        4 0.13797039E-02 0.12502382E+03</pdfrwt>
<pdfrwt beam="1">  1       -4 0.67036744E-01 0.12502382E+03</pdfrwt>
<totfact> 0.60393398E+03</totfact>
</mgrwt>
</event>
<event>
 5    1  0.3316199E-002  0.1250009E+03  0.7818608E-02  0.1235068E+00
          4   -1    0    0  501    0  0.00000000000E+00  0.00000000000E+00  0.79516023112E+02  0.79526164446E+02  0.12700000000E+01 0.  1.
         -4   -1    0    0    0  501 -0.00000000000E+00 -0.00000000000E+00 -0.49104562099E+02  0.49120982472E+02  0.12700000000E+01 0.  1.
         25    2    1    2    0    0  0.00000000000E+00  0.00000000000E+00  0.30411461013E+02  0.12864714692E+03  0.12500092579E+03 0.  0.
    9000005    1    3    3    0    0  0.11274408906E+02  0.44337695440E+02  0.59019405508E+02  0.74680879478E+02  0.10000000000E+01 0.  0.
    9000005    1    3    3    0    0 -0.11274408906E+02 -0.44337695440E+02 -0.28607944495E+02  0.53966267440E+02  0.10000000000E+01 0.  0.
<mgrwt>
<rscale>  0 0.12500093E+03</rscale>
<asrwt>0</asrwt>
<pdfrwt beam="1">  1        4 0.12235278E-01 0.12500093E+03</pdfrwt>
<pdfrwt beam="2">  1       -4 0.75565912E-02 0.12500093E+03</pdfrwt>
<totfact> 0.10373318E+04</totfact>
</mgrwt>
</event>
<event>
 5    1  0.3316199E-002  0.1250021E+03  0.7818608E-02  0.1235066E+00
          4   -1    0    0  501    0  0.00000000000E+00  0.00000000000E+00  0.48967968036E+01  0.50588060781E+01  0.12700000000E+01 0. -1.
         -4   -1    0    0    0  501 -0.00000000000E+00 -0.00000000000E+00 -0.78459782540E+03  0.78459885325E+03  0.12700000000E+01 0. -1.
         25    2    1    2    0    0  0.00000000000E+00  0.00000000000E+00 -0.77970102860E+03  0.78965765933E+03  0.12500209975E+03 0.  0.
    9000005    1    3    3    0    0  0.61214188532E+02  0.56475806361E+01 -0.46084735456E+03  0.46493048539E+03  0.10000000000E+01 0.  0.
    9000005    1    3    3    0    0 -0.61214188532E+02 -0.56475806361E+01 -0.31885367404E+03  0.32472717394E+03  0.10000000000E+01 0.  0.
<mgrwt>
<rscale>  0 0.12500210E+03</rscale>
<asrwt>0</asrwt>
<pdfrwt beam="1">  1        4 0.76589529E-03 0.12500210E+03</pdfrwt>
<pdfrwt beam="2">  1       -4 0.12071980E+00 0.12500210E+03</pdfrwt>
<totfact> 0.38728879E+03</totfact>
</mgrwt>
</event>
<event>
 5    1  0.3316199E-002  0.1250024E+03  0.7818608E-02  0.1235065E+00
          4   -1    0    0  501    0  0.00000000000E+00  0.00000000000E+00  0.61620444846E+01  0.62915572182E+01  0.12700000000E+01 0. -1.
         -4   -1    0    0    0  501 -0.00000000000E+00 -0.00000000000E+00 -0.62722280999E+03  0.62722409573E+03  0.12700000000E+01 0. -1.
         25    2    1    2    0    0  0.00000000000E+00  0.00000000000E+00 -0.62106076550E+03  0.63351565295E+03  0.12500243233E+03 0.  0.
    9000005    1    3    3    0    0 -0.46794713097E+02  0.18686800274E+01 -0.52023677988E+03  0.52234140587E+03  0.10000000000E+01 0.  0.
    9000005    1    3    3    0    0  0.46794713097E+02 -0.18686800274E+01 -0.10082398562E+03  0.11117424709E+03  0.10000000000E+01 0.  0.
<mgrwt>
<rscale>  0 0.12500243E+03</rscale>
<asrwt>0</asrwt>
<pdfrwt beam="1">  1        4 0.95806876E-03 0.12500243E+03</pdfrwt>
<pdfrwt beam="2">  1       -4 0.96505828E-01 0.12500243E+03</pdfrwt>
<totfact> 0.46815642E+03</totfact>
</mgrwt>
</event>
<event>
 5    1  0.3316199E-002  0.1249981E+03  0.7818608E-02  0.1235072E+00
          4   -1    0    0  501    0  0.00000000000E+00  0.00000000000E+00  0.41876424381E+01  0.43759855106E+01  0.12700000000E+01 0. -1.
         -4   -1    0    0    0  501 -0.00000000000E+00 -0.00000000000E+00 -0.91207161835E+03  0.91207250255E+03  0.12700000000E+01 0. -1.
         25    2    1    2    0    0  0.00000000000E+00  0.00000000000E+00 -0.90788397592E+03  0.91644848806E+03  0.12499807016E+03 0.  0.
    9000005    1    3    3    0    0 -0.16406630133E+01  0.42281210564E+01 -0.91089937426E+03  0.91091121346E+03  0.10000000000E+01 0.  0.
    9000005    1    3    3    0    0  0.16406630133E+01 -0.42281210564E+01  0.30153983450E+01  0.55372745976E+01  0.10000000000E+01 0.  0.
<mgrwt>
<rscale>  0 0.12499807E+03</rscale>
<asrwt>0</asrwt>
<pdfrwt beam="1">  1        4 0.65880935E-03 0.12499807E+03</pdfrwt>
<pdfrwt beam="2">  1       -4 0.14033311E+00 0.12499807E+03</pdfrwt>
<totfact> 0.33539323E+03</totfact>
</mgrwt>
</event>
<event>
 5    1  0.3316199E-002  0.1249958E+03  0.7818608E-02  0.1235076E+00
          4   -1    0    0  501    0  0.00000000000E+00  0.00000000000E+00  0.10518768230E+02  0.10595158568E+02  0.12700000000E+01 0.  1.
         -4   -1    0    0    0  501 -0.00000000000E+00 -0.00000000000E+00 -0.36991427724E+03  0.36991645733E+03  0.12700000000E+01 0.  1.
         25    2    1    2    0    0  0.00000000000E+00  0.00000000000E+00 -0.35939550901E+03  0.38051161590E+03  0.12499583169E+03 0.  0.
    9000005    1    3    3    0    0 -0.56180952349E+02 -0.52644836793E+01 -0.26143736776E+03  0.26745936412E+03  0.10000000000E+01 0.  0.
    9000005    1    3    3    0    0  0.56180952349E+02  0.52644836793E+01 -0.97958141250E+02  0.11305225178E+03  0.10000000000E+01 0.  0.
<mgrwt>
<rscale>  0 0.12499583E+03</rscale>
<asrwt>0</asrwt>
<pdfrwt beam="1">  1        4 0.16243162E-02 0.12499583E+03</pdfrwt>
<pdfrwt beam="2">  1       -4 0.56915923E-01 0.12499583E+03</pdfrwt>
<totfact> 0.66499506E+03</totfact>
</mgrwt>
</event>
<event>
 5    1  0.3316199E-002  0.1250004E+03  0.7818608E-02  0.1235069E+00
         -4   -1    0    0    0  501 -0.00000000000E+00  0.00000000000E+00  0.24564871420E+02  0.24597678912E+02  0.12700000000E+01 0.  1.
          4   -1    0    0  501    0  0.00000000000E+00 -0.00000000000E+00 -0.15887720032E+03  0.15888227617E+03  0.12700000000E+01 0.  1.
         25    2    1    2    0    0  0.00000000000E+00  0.00000000000E+00 -0.13431232890E+03  0.18347995508E+03  0.12500036889E+03 0.  0.
    9000005    1    3    3    0    0  0.84395676431E+00  0.55564446753E+02 -0.10911554165E+03  0.12245538549E+03  0.10000000000E+01 0.  0.
    9000005    1    3    3    0    0 -0.84395676431E+00 -0.55564446753E+02 -0.25196787246E+02  0.61024569589E+02  0.10000000000E+01 0.  0.
<mgrwt>
<rscale>  0 0.12500037E+03</rscale>
<asrwt>0</asrwt>
<pdfrwt beam="2">  1        4 0.24445560E-01 0.12500037E+03</pdfrwt>
<pdfrwt beam="1">  1       -4 0.37821252E-02 0.12500037E+03</pdfrwt>
<totfact> 0.92993555E+03</totfact>
</mgrwt>
</event>
<event>
 5    1  0.3316199E-002  0.1249854E+03  0.7818608E-02  0.1235092E+00
          4   -1    0    0  501    0  0.00000000000E+00  0.00000000000E+00  0.18932447862E+03  0.18932873819E+03  0.12700000000E+01 0. -1.
         -4   -1    0    0    0  501 -0.00000000000E+00 -0.00000000000E+00 -0.20603710874E+02  0.20642814774E+02  0.12700000000E+01 0. -1.
         25    2    1    2    0    0  0.00000000000E+00  0.00000000000E+00  0.16872076775E+03  0.20997155297E+03  0.12498542149E+03 0.  0.
    9000005    1    3    3    0    0 -0.62463515923E+02  0.21375318715E+00  0.81650274419E+02  0.10280809221E+03  0.10000000000E+01 0.  0.
    9000005    1    3    3    0    0  0.62463515923E+02 -0.21375318715E+00  0.87070493328E+02  0.10716346075E+03  0.10000000000E+01 0.  0.
<mgrwt>
<rscale>  0 0.12498542E+03</rscale>
<asrwt>0</asrwt>
<pdfrwt beam="1">  1        4 0.29130180E-01 0.12498542E+03</pdfrwt>
<pdfrwt beam="2">  1       -4 0.31731372E-02 0.12498542E+03</pdfrwt>
<totfact> 0.88509370E+03</totfact>
</mgrwt>
</event>
<event>
 5    1  0.3316199E-002  0.1249717E+03  0.7818608E-02  0.1235114E+00
         -4   -1    0    0    0  501 -0.00000000000E+00  0.00000000000E+00  0.37418942778E+02  0.37440488493E+02  0.12700000000E+01 0.  1.
          4   -1    0    0  501    0  0.00000000000E+00 -0.00000000000E+00 -0.10428953730E+03  0.10429726981E+03  0.12700000000E+01 0.  1.
         25    2    1    2    0    0  0.00000000000E+00  0.00000000000E+00 -0.66870594522E+02  0.14173775830E+03  0.12497165966E+03 0.  0.
    9000005    1    3    3    0    0 -0.15326229745E+01  0.11070254840E+02  0.36281640305E+02  0.37977057530E+02  0.10000000000E+01 0.  0.
    9000005    1    3    3    0    0  0.15326229745E+01 -0.11070254840E+02 -0.10315223483E+03  0.10376070077E+03  0.10000000000E+01 0.  0.
<mgrwt>
<rscale>  0 0.12497166E+03</rscale>
<asrwt>0</asrwt>
<pdfrwt beam="2">  1        4 0.16046796E-01 0.12497166E+03</pdfrwt>
<pdfrwt beam="1">  1       -4 0.57590126E-02 0.12497166E+03</pdfrwt>
<totfact> 0.10104145E+04</totfact>
</mgrwt>
</event>
<event>
 5    1  0.3316199E-002  0.1250049E+03  0.7818608E-02  0.1235062E+00
          4   -1    0    0  501    0  0.00000000000E+00  0.00000000000E+00  0.19293848771E+02  0.19335601889E+02  0.12700000000E+01 0. -1.
         -4   -1    0    0    0  501 -0.00000000000E+00 -0.00000000000E+00 -0.20221404486E+03  0.20221803292E+03  0.12700000000E+01 0. -1.
         25    2    1    2    0    0  0.00000000000E+00  0.00000000000E+00 -0.18292019609E+03  0.22155363481E+03  0.12500485975E+03 0.  0.
    9000005    1    3    3    0    0 -0.28993309922E+02 -0.43569437095E+02 -0.30923012817E+02  0.60795892876E+02  0.10000000000E+01 0.  0.
    9000005    1    3    3    0    0  0.28993309922E+02  0.43569437095E+02 -0.15199718327E+03  0.16075774194E+03  0.10000000000E+01 0.  0.
<mgrwt>
<rscale>  0 0.12500486E+03</rscale>
<asrwt>0</asrwt>
<pdfrwt beam="1">  1        4 0.29718031E-02 0.12500486E+03</pdfrwt>
<pdfrwt beam="2">  1       -4 0.31113370E-01 0.12500486E+03</pdfrwt>
<totfact> 0.86613702E+03</totfact>
</mgrwt>
</event>
<event>
 5    1  0.3316199E-002  0.1250090E+03  0.7818608E-02  0.1235055E+00
          4   -1    0    0  501    0  0.00000000000E+00  0.00000000000E+00  0.91220560812E+01  0.92100383902E+01  0.12700000000E+01 0. -1.
         -4   -1    0    0    0  501 -0.00000000000E+00 -0.00000000000E+00 -0.42613782796E+03  0.42613972042E+03  0.12700000000E+01 0. -1.
         25    2    1    2    0    0  0.00000000000E+00  0.00000000000E+00 -0.41701577188E+03  0.43534975881E+03  0.12500903367E+03 0.  0.
    9000005    1    3    3    0    0  0.20237931706E+02 -0.35827043282E+02 -0.37232324464E+03  0.37459144332E+03  0.10000000000E+01 0.  0.
    9000005    1    3    3    0    0 -0.20237931706E+02  0.35827043282E+02 -0.44692527243E+02  0.60758315492E+02  0.10000000000E+01 0.  0.
<mgrwt>
<rscale>  0 0.12500903E+03</rscale>
<asrwt>0</asrwt>
<pdfrwt beam="1">  1        4 0.14103070E-02 0.12500903E+03</pdfrwt>
<pdfrwt beam="2">  1       -4 0.65566564E-01 0.12500903E+03</pdfrwt>
<totfact> 0.61241855E+03</totfact>
</mgrwt>
</event>
<event>
 5    1  0.3316199E-002  0.1249985E+03  0.7818608E-02  0.1235072E+00
         -4   -1    0    0    0  501 -0.00000000000E+00  0.00000000000E+00  0.44665138966E+03  0.44665319521E+03  0.12700000000E+01 0.  1.
          4   -1    0    0  501    0  0.00000000000E+00 -0.00000000000E+00 -0.86974818603E+01  0.87897150529E+01  0.12700000000E+01 0.  1.
         25    2    1    2    0    0  0.00000000000E+00  0.00000000000E+00  0.43795390780E+03  0.45544291026E+03  0.12499847657E+03 0.  0.
    9000005    1    3    3    0    0 -0.36004478707E+02 -0.41536816245E+02  0.32727950716E+03  0.33186519160E+03  0.10000000000E+01 0.  0.
    9000005    1    3    3    0    0  0.36004478707E+02  0.41536816245E+02  0.11067440065E+03  0.12357771866E+03  0.10000000000E+01 0.  0.
<mgrwt>
<rscale>  0 0.12499848E+03</rscale>
<asrwt>0</asrwt>
<pdfrwt beam="2">  1        4 0.13453079E-02 0.12499848E+03</pdfrwt>
<pdfrwt beam="1">  1       -4 0.68722829E-01 0.12499848E+03</pdfrwt>
<totfact> 0.59497155E+03</totfact>
</mgrwt>
</event>
<event>
 5    1  0.3316199E-002  0.1250004E+03  0.7818608E-02  0.1235069E+00
         -4   -1    0    0    0  501 -0.00000000000E+00  0.00000000000E+00  0.20329086197E+03  0.20329482891E+03  0.12700000000E+01 0. -1.
          4   -1    0    0  501    0  0.00000000000E+00 -0.00000000000E+00 -0.19190071538E+02  0.19232049959E+02  0.12700000000E+01 0. -1.
         25    2    1    2    0    0  0.00000000000E+00  0.00000000000E+00  0.18410079043E+03  0.22252687887E+03  0.12500044312E+03 0.  0.
    9000005    1    3    3    0    0 -0.31138225757E+00 -0.58412402053E+02  0.13158433894E+03  0.14397063564E+03  0.10000000000E+01 0.  0.
    9000005    1    3    3    0    0  0.31138225757E+00  0.58412402053E+02  0.52516451490E+02  0.78556243225E+02  0.10000000000E+01 0.  0.
<mgrwt>
<rscale>  0 0.12500044E+03</rscale>
<asrwt>0</asrwt>
<pdfrwt beam="2">  1        4 0.29558531E-02 0.12500044E+03</pdfrwt>
<pdfrwt beam="1">  1       -4 0.31279050E-01 0.12500044E+03</pdfrwt>
<totfact> 0.86469222E+03</totfact>
</mgrwt>
</event>
<event>
 4    1  0.3316199E-002  0.1251353E+03  0.7818608E-02  0.1234858E+00
         -4   -1    0    0    0  501 -0.00000000000E+00  0.00000000000E+00  0.26258310949E+02  0.26289005190E+02  0.12700000000E+01 0. -1.
          4   -1    0    0  501    0  0.00000000000E+00 -0.00000000000E+00 -0.14896426839E+03  0.14896968201E+03  0.12700000000E+01 0. -1.
    9000005    1    1    2    0    0 -0.14542526019E+02  0.51555639326E+02 -0.10661153731E+03  0.11931675866E+03  0.10000000000E+01 0.  0.
    9000005    1    1    2    0    0  0.14542526019E+02 -0.51555639326E+02 -0.16094420135E+02  0.55941928541E+02  0.10000000000E+01 0.  0.
<mgrwt>
<rscale>  0 0.12513535E+03</rscale>
<asrwt>0</asrwt>
<pdfrwt beam="2">  1        4 0.22920357E-01 0.12513535E+03</pdfrwt>
<pdfrwt beam="1">  1       -4 0.40425178E-02 0.12513535E+03</pdfrwt>
<totfact> 0.94191200E+03</totfact>
</mgrwt>
</event>
<event>
 5    1  0.3316199E-002  0.1250001E+03  0.7818608E-02  0.1235069E+00
         -4   -1    0    0    0  501 -0.00000000000E+00  0.00000000000E+00  0.77997563351E+01  0.79024742256E+01  0.12700000000E+01 0. -1.
          4   -1    0    0  501    0  0.00000000000E+00 -0.00000000000E+00 -0.49743813378E+03  0.49743975499E+03  0.12700000000E+01 0. -1.
         25    2    1    2    0    0  0.00000000000E+00  0.00000000000E+00 -0.48963837745E+03  0.50534222921E+03  0.12500011182E+03 0.  0.
    9000005    1    3    3    0    0 -0.20448228446E+02 -0.48284430572E+02 -0.10738164170E+03  0.11950453237E+03  0.10000000000E+01 0.  0.
    9000005    1    3    3    0    0  0.20448228446E+02  0.48284430572E+02 -0.38225673574E+03  0.38583769684E+03  0.10000000000E+01 0.  0.
<mgrwt>
<rscale>  0 0.12500011E+03</rscale>
<asrwt>0</asrwt>
<pdfrwt beam="2">  1        4 0.76536945E-01 0.12500011E+03</pdfrwt>
<pdfrwt beam="1">  1       -4 0.12079890E-02 0.12500011E+03</pdfrwt>
<totfact> 0.55452119E+03</totfact>
</mgrwt>
</event>
<event>
 5    1  0.3316199E-002  0.1250012E+03  0.7818608E-02  0.1235067E+00
         -4   -1    0    0    0  501 -0.00000000000E+00  0.00000000000E+00  0.40366335144E+02  0.40386308483E+02  0.12700000000E+01 0.  1.
          4   -1    0    0  501    0  0.00000000000E+00 -0.00000000000E+00 -0.96723699589E+02  0.96732036897E+02  0.12700000000E+01 0.  1.
         25    2    1    2    0    0  0.00000000000E+00  0.00000000000E+00 -0.56357364446E+02  0.13711834538E+03  0.12500115245E+03 0.  0.
    9000005    1    3    3    0    0 -0.52379092256E+02 -0.31158563376E+01 -0.65410660337E+02  0.83861983950E+02  0.10000000000E+01 0.  0.
    9000005    1    3    3    0    0  0.52379092256E+02  0.31158563376E+01  0.90532958911E+01  0.53256361430E+02  0.10000000000E+01 0.  0.
<mgrwt>
<rscale>  0 0.12500115E+03</rscale>
<asrwt>0</asrwt>
<pdfrwt beam="2">  1        4 0.14882747E-01 0.12500115E+03</pdfrwt>
<pdfrwt beam="1">  1       -4 0.62123832E-02 0.12500115E+03</pdfrwt>
<totfact> 0.10193347E+04</totfact>
</mgrwt>
</event>
<event>
 5    1  0.3316199E-002  0.1249999E+03  0.7818608E-02  0.1235069E+00
         -4   -1    0    0    0  501 -0.00000000000E+00  0.00000000000E+00  0.27835457290E+03  0.27835747009E+03  0.12700000000E+01 0. -1.
          4   -1    0    0  501    0  0.00000000000E+00 -0.00000000000E+00 -0.14001637611E+02  0.14059116465E+02  0.12700000000E+01 0. -1.
         25    2    1    2    0    0  0.00000000000E+00  0.00000000000E+00  0.26435293529E+03  0.29241658656E+03  0.12499994278E+03 0.  0.
    9000005    1    3    3    0    0 -0.48412811226E+02  0.35100954794E+02  0.17463193435E+03  0.18458924620E+03  0.10000000000E+01 0.  0.
    9000005    1    3    3    0    0  0.48412811226E+02 -0.35100954794E+02  0.89721000941E+02  0.10782734036E+03  0.10000000000E+01 0.  0.
<mgrwt>
<rscale>  0 0.12499994E+03</rscale>
<asrwt>0</asrwt>
<pdfrwt beam="2">  1        4 0.21587422E-02 0.12499994E+03</pdfrwt>
<pdfrwt beam="1">  1       -4 0.42828428E-01 0.12499994E+03</pdfrwt>
<totfact> 0.76560135E+03</totfact>
</mgrwt>
</event>
<event>
 5    1  0.3316199E-002  0.1250009E+03  0.7818608E-02  0.1235068E+00
          4   -1    0    0  501    0  0.00000000000E+00  0.00000000000E+00  0.12239362252E+04  0.12239368840E+04  0.12700000000E+01 0. -1.
         -4   -1    0    0    0  501 -0.00000000000E+00 -0.00000000000E+00 -0.30645671758E+01  0.33172988974E+01  0.12700000000E+01 0. -1.
         25    2    1    2    0    0  0.00000000000E+00  0.00000000000E+00  0.12208716580E+04  0.12272541829E+04  0.12500089725E+03 0.  0.
    9000005    1    3    3    0    0 -0.12264477573E+02  0.99550556367E+01  0.16811426106E+02  0.23089924006E+02  0.10000000000E+01 0.  0.
    9000005    1    3    3    0    0  0.12264477573E+02 -0.99550556367E+01  0.12040602319E+04  0.12041642589E+04  0.10000000000E+01 0.  0.
<mgrwt>
<rscale>  0 0.12500090E+03</rscale>
<asrwt>0</asrwt>
<pdfrwt beam="1">  1        4 0.18831707E+00 0.12500090E+03</pdfrwt>
<pdfrwt beam="2">  1       -4 0.49096424E-03 0.12500090E+03</pdfrwt>
<totfact> 0.24009898E+03</totfact>
</mgrwt>
</event>
<event>
 5    1  0.3316199E-002  0.1250083E+03  0.7818608E-02  0.1235056E+00
          4   -1    0    0  501    0  0.00000000000E+00  0.00000000000E+00  0.88450560485E+02  0.88459677538E+02  0.12700000000E+01 0.  1.
         -4   -1    0    0    0  501 -0.00000000000E+00 -0.00000000000E+00 -0.44148418964E+02  0.44166681978E+02  0.12700000000E+01 0.  1.
         25    2    1    2    0    0  0.00000000000E+00  0.00000000000E+00  0.44302141521E+02  0.13262635952E+03  0.12500828571E+03 0.  0.
    9000005    1    3    3    0    0  0.50276290615E+02  0.35264926553E+02  0.98493092497E+01  0.62203933441E+02  0.10000000000E+01 0.  0.
    9000005    1    3    3    0    0 -0.50276290615E+02 -0.35264926553E+02  0.34452832272E+02  0.70422426075E+02  0.10000000000E+01 0.  0.
<mgrwt>
<rscale>  0 0.12500829E+03</rscale>
<asrwt>0</asrwt>
<pdfrwt beam="1">  1        4 0.13609885E-01 0.12500829E+03</pdfrwt>
<pdfrwt beam="2">  1       -4 0.67941706E-02 0.12500829E+03</pdfrwt>
<totfact> 0.10286425E+04</totfact>
</mgrwt>
</event>
<event>
 5    1  0.3316199E-002  0.1249995E+03  0.7818608E-02  0.1235070E+00
          4   -1    0    0  501    0  0.00000000000E+00  0.00000000000E+00  0.52902816949E+01  0.54405864032E+01  0.12700000000E+01 0.  1.
         -4   -1    0    0    0  501 -0.00000000000E+00 -0.00000000000E+00 -0.72788281846E+03  0.72788392640E+03  0.12700000000E+01 0.  1.
         25    2    1    2    0    0  0.00000000000E+00  0.00000000000E+00 -0.72259253677E+03  0.73332451281E+03  0.12499946755E+03 0.  0.
    9000005    1    3    3    0    0  0.36631205060E+02  0.35762873625E+02 -0.57154637655E+03  0.57383541966E+03  0.10000000000E+01 0.  0.
    9000005    1    3    3    0    0 -0.36631205060E+02 -0.35762873625E+02 -0.15104616022E+03  0.15948909314E+03  0.10000000000E+01 0.  0.
<mgrwt>
<rscale>  0 0.12499947E+03</rscale>
<asrwt>0</asrwt>
<pdfrwt beam="1">  1        4 0.82553720E-03 0.12499947E+03</pdfrwt>
<pdfrwt beam="2">  1       -4 0.11199354E+00 0.12499947E+03</pdfrwt>
<totfact> 0.41385214E+03</totfact>
</mgrwt>
</event>
<event>
 5    1  0.3316199E-002  0.1249989E+03  0.7818608E-02  0.1235071E+00
         -4   -1    0    0    0  501 -0.00000000000E+00  0.00000000000E+00  0.19348492367E+04  0.19348496535E+04  0.12700000000E+01 0. -1.
          4   -1    0    0  501    0  0.00000000000E+00 -0.00000000000E+00 -0.18186677581E+01  0.22182092810E+01  0.12700000000E+01 0. -1.
         25    2    1    2    0    0  0.00000000000E+00  0.00000000000E+00  0.19330305690E+04  0.19370678628E+04  0.12499889825E+03 0.  0.
    9000005    1    3    3    0    0  0.49009409690E+02  0.37460271790E+02  0.81155860895E+03  0.81390022114E+03  0.10000000000E+01 0.  0.
    9000005    1    3    3    0    0 -0.49009409690E+02 -0.37460271790E+02  0.11214719600E+04  0.11231676417E+04  0.10000000000E+01 0.  0.
<mgrwt>
<rscale>  0 0.12499890E+03</rscale>
<asrwt>0</asrwt>
<pdfrwt beam="2">  1        4 0.31056036E-03 0.12499890E+03</pdfrwt>
<pdfrwt beam="1">  1       -4 0.29770056E+00 0.12499890E+03</pdfrwt>
<totfact> 0.10705291E+03</totfact>
</mgrwt>
</event>
<event>
 5    1  0.3316199E-002  0.1249740E+03  0.7818608E-02  0.1235110E+00
         -4   -1    0    0    0  501 -0.00000000000E+00  0.00000000000E+00  0.33458718164E+02  0.33482812325E+02  0.12700000000E+01 0.  1.
          4   -1    0    0  501    0  0.00000000000E+00 -0.00000000000E+00 -0.11663027185E+03  0.11663718623E+03  0.12700000000E+01 0.  1.
         25    2    1    2    0    0  0.00000000000E+00  0.00000000000E+00 -0.83171553690E+02  0.15011999856E+03  0.12497402380E+03 0.  0.
    9000005    1    3    3    0    0  0.48256711069E+02  0.35602781196E+02 -0.20526600220E+02  0.63392503569E+02  0.10000000000E+01 0.  0.
    9000005    1    3    3    0    0 -0.48256711069E+02 -0.35602781196E+02 -0.62644953470E+02  0.86727494991E+02  0.10000000000E+01 0.  0.
<mgrwt>
<rscale>  0 0.12497402E+03</rscale>
<asrwt>0</asrwt>
<pdfrwt beam="2">  1        4 0.17945504E-01 0.12497402E+03</pdfrwt>
<pdfrwt beam="1">  1       -4 0.51498804E-02 0.12497402E+03</pdfrwt>
<totfact> 0.99337845E+03</totfact>
</mgrwt>
</event>
<event>
 5    1  0.3316199E-002  0.1249998E+03  0.7818608E-02  0.1235070E+00
         -4   -1    0    0    0  501 -0.00000000000E+00  0.00000000000E+00  0.35715094909E+02  0.35737667864E+02  0.12700000000E+01 0. -1.
          4   -1    0    0  501    0  0.00000000000E+00 -0.00000000000E+00 -0.10931139415E+03  0.10931877144E+03  0.12700000000E+01 0. -1.
         25    2    1    2    0    0  0.00000000000E+00  0.00000000000E+00 -0.73596299237E+02  0.14505643931E+03  0.12499982129E+03 0.  0.
    9000005    1    3    3    0    0 -0.20598578390E+02 -0.47238303555E+02  0.42215322913E+01  0.51716342575E+02  0.10000000000E+01 0.  0.
    9000005    1    3    3    0    0  0.20598578390E+02  0.47238303555E+02 -0.77817831528E+02  0.93340096733E+02  0.10000000000E+01 0.  0.
<mgrwt>
<rscale>  0 0.12499982E+03</rscale>
<asrwt>0</asrwt>
<pdfrwt beam="2">  1        4 0.16819441E-01 0.12499982E+03</pdfrwt>
<pdfrwt beam="1">  1       -4 0.54969339E-02 0.12499982E+03</pdfrwt>
<totfact> 0.10029882E+04</totfact>
</mgrwt>
</event>
<event>
 5    1  0.3316199E-002  0.1249992E+03  0.7818608E-02  0.1235071E+00
         -4   -1    0    0    0  501 -0.00000000000E+00  0.00000000000E+00  0.17721383138E+03  0.17721838204E+03  0.12700000000E+01 0. -1.
          4   -1    0    0  501    0  0.00000000000E+00 -0.00000000000E+00 -0.22019154884E+02  0.22055749405E+02  0.12700000000E+01 0. -1.
         25    2    1    2    0    0  0.00000000000E+00  0.00000000000E+00  0.15519467650E+03  0.19927413145E+03  0.12499916740E+03 0.  0.
    9000005    1    3    3    0    0  0.34948193491E+02 -0.51096470885E+02  0.63979031518E+02  0.89031129607E+02  0.10000000000E+01 0.  0.
    9000005    1    3    3    0    0 -0.34948193491E+02  0.51096470885E+02  0.91215644981E+02  0.11024300184E+03  0.10000000000E+01 0.  0.
<mgrwt>
<rscale>  0 0.12499917E+03</rscale>
<asrwt>0</asrwt>
<pdfrwt beam="2">  1        4 0.33907275E-02 0.12499917E+03</pdfrwt>
<pdfrwt beam="1">  1       -4 0.27266830E-01 0.12499917E+03</pdfrwt>
<totfact> 0.90259757E+03</totfact>
</mgrwt>
</event>
<event>
 5    1  0.3316199E-002  0.1249972E+03  0.7818608E-02  0.1235074E+00
          4   -1    0    0  501    0  0.00000000000E+00  0.00000000000E+00  0.38599373313E+02  0.38620260488E+02  0.12700000000E+01 0. -1.
         -4   -1    0    0    0  501 -0.00000000000E+00 -0.00000000000E+00 -0.10114300761E+03  0.10115098066E+03  0.12700000000E+01 0. -1.
         25    2    1    2    0    0  0.00000000000E+00  0.00000000000E+00 -0.62543634298E+02  0.13977124115E+03  0.12499717461E+03 0.  0.
    9000005    1    3    3    0    0 -0.43182205922E+02 -0.41728988692E+02 -0.50609224630E+02  0.78538557558E+02  0.10000000000E+01 0.  0.
    9000005    1    3    3    0    0  0.43182205922E+02  0.41728988692E+02 -0.11934409668E+02  0.61232683591E+02  0.10000000000E+01 0.  0.
<mgrwt>
<rscale>  0 0.12499717E+03</rscale>
<asrwt>0</asrwt>
<pdfrwt beam="1">  1        4 0.59405852E-02 0.12499717E+03</pdfrwt>
<pdfrwt beam="2">  1       -4 0.15562683E-01 0.12499717E+03</pdfrwt>
<totfact> 0.10138974E+04</totfact>
</mgrwt>
</event>
<event>
 5    1  0.3316199E-002  0.1250061E+03  0.7818608E-02  0.1235060E+00
         -4   -1    0    0    0  501 -0.00000000000E+00  0.00000000000E+00  0.43677882874E+02  0.43696342551E+02  0.12700000000E+01 0.  1.
          4   -1    0    0  501    0  0.00000000000E+00 -0.00000000000E+00 -0.89400023081E+02  0.89409043317E+02  0.12700000000E+01 0.  1.
         25    2    1    2    0    0  0.00000000000E+00  0.00000000000E+00 -0.45722140207E+02  0.13310538587E+03  0.12500611842E+03 0.  0.
    9000005    1    3    3    0    0  0.80291204788E+01  0.61547994683E+02 -0.15108544648E+02  0.63889674803E+02  0.10000000000E+01 0.  0.
    9000005    1    3    3    0    0 -0.80291204788E+01 -0.61547994683E+02 -0.30613595559E+02  0.69215711064E+02  0.10000000000E+01 0.  0.
<mgrwt>
<rscale>  0 0.12500612E+03</rscale>
<asrwt>0</asrwt>
<pdfrwt beam="2">  1        4 0.13755964E-01 0.12500612E+03</pdfrwt>
<pdfrwt beam="1">  1       -4 0.67217881E-02 0.12500612E+03</pdfrwt>
<totfact> 0.10276742E+04</totfact>
</mgrwt>
</event>
<event>
 5    1  0.3316199E-002  0.1250027E+03  0.7818608E-02  0.1235065E+00
          4   -1    0    0  501    0  0.00000000000E+00  0.00000000000E+00  0.48967246043E+02  0.48983712446E+02  0.12700000000E+01 0. -1.
         -4   -1    0    0    0  501 -0.00000000000E+00 -0.00000000000E+00 -0.79741222644E+02  0.79751335341E+02  0.12700000000E+01 0. -1.
         25    2    1    2    0    0  0.00000000000E+00  0.00000000000E+00 -0.30773976601E+02  0.12873504779E+03  0.12500269954E+03 0.  0.
    9000005    1    3    3    0    0 -0.50577835496E+02  0.25222633839E+02 -0.42850044133E+02  0.70932538255E+02  0.10000000000E+01 0.  0.
    9000005    1    3    3    0    0  0.50577835496E+02 -0.25222633839E+02  0.12076067532E+02  0.57802509532E+02  0.10000000000E+01 0.  0.
<mgrwt>
<rscale>  0 0.12500270E+03</rscale>
<asrwt>0</asrwt>
<pdfrwt beam="1">  1        4 0.75354670E-02 0.12500270E+03</pdfrwt>
<pdfrwt beam="2">  1       -4 0.12269925E-01 0.12500270E+03</pdfrwt>
<totfact> 0.10371012E+04</totfact>
</mgrwt>
</event>
<event>
 5    1  0.3316199E-002  0.1250116E+03  0.7818608E-02  0.1235051E+00
         -4   -1    0    0    0  501 -0.00000000000E+00  0.00000000000E+00  0.29736921630E+01  0.32335344563E+01  0.12700000000E+01 0.  1.
          4   -1    0    0  501    0  0.00000000000E+00 -0.00000000000E+00 -0.12585863281E+04  0.12585869688E+04  0.12700000000E+01 0.  1.
         25    2    1    2    0    0  0.00000000000E+00  0.00000000000E+00 -0.12556126359E+04  0.12618205033E+04  0.12501156371E+03 0.  0.
    9000005    1    3    3    0    0  0.47909107258E+02  0.42879227021E+01 -0.22503329430E+03  0.23011877886E+03  0.10000000000E+01 0.  0.
    9000005    1    3    3    0    0 -0.47909107258E+02 -0.42879227021E+01 -0.10305793416E+04  0.10317017244E+04  0.10000000000E+01 0.  0.
<mgrwt>
<rscale>  0 0.12501156E+03</rscale>
<asrwt>0</asrwt>
<pdfrwt beam="2">  1        4 0.19364829E+00 0.12501156E+03</pdfrwt>
<pdfrwt beam="1">  1       -4 0.47752927E-03 0.12501156E+03</pdfrwt>
<totfact> 0.23142159E+03</totfact>
</mgrwt>
</event>
<event>
 5    1  0.3316199E-002  0.1249993E+03  0.7818608E-02  0.1235070E+00
          4   -1    0    0  501    0  0.00000000000E+00  0.00000000000E+00  0.39426986717E+02  0.39447435678E+02  0.12700000000E+01 0.  1.
         -4   -1    0    0    0  501 -0.00000000000E+00 -0.00000000000E+00 -0.99024279391E+02  0.99032423019E+02  0.12700000000E+01 0.  1.
         25    2    1    2    0    0  0.00000000000E+00  0.00000000000E+00 -0.59597292675E+02  0.13847985870E+03  0.12499933588E+03 0.  0.
    9000005    1    3    3    0    0  0.47668345804E+02 -0.11587440704E+02 -0.72686241864E+02  0.87697375845E+02  0.10000000000E+01 0.  0.
    9000005    1    3    3    0    0 -0.47668345804E+02  0.11587440704E+02  0.13088949189E+02  0.50782482852E+02  0.10000000000E+01 0.  0.
<mgrwt>
<rscale>  0 0.12499934E+03</rscale>
<asrwt>0</asrwt>
<pdfrwt beam="1">  1        4 0.60678897E-02 0.12499934E+03</pdfrwt>
<pdfrwt beam="2">  1       -4 0.15236704E-01 0.12499934E+03</pdfrwt>
<totfact> 0.10165341E+04</totfact>
</mgrwt>
</event>
<event>
 5    1  0.3316199E-002  0.1249928E+03  0.7818608E-02  0.1235081E+00
          4   -1    0    0  501    0  0.00000000000E+00  0.00000000000E+00  0.66905329342E+03  0.66905449878E+03  0.12700000000E+01 0.  1.
         -4   -1    0    0    0  501 -0.00000000000E+00 -0.00000000000E+00 -0.57675015546E+01  0.59056730508E+01  0.12700000000E+01 0.  1.
         25    2    1    2    0    0  0.00000000000E+00  0.00000000000E+00  0.66328579187E+03  0.67496017183E+03  0.12499276725E+03 0.  0.
    9000005    1    3    3    0    0  0.44591013972E+02 -0.42398711880E+02  0.39049754493E+03  0.39531676146E+03  0.10000000000E+01 0.  0.
    9000005    1    3    3    0    0 -0.44591013972E+02  0.42398711880E+02  0.27278824694E+03  0.27964341038E+03  0.10000000000E+01 0.  0.
<mgrwt>
<rscale>  0 0.12499277E+03</rscale>
<asrwt>0</asrwt>
<pdfrwt beam="1">  1        4 0.10294192E+00 0.12499277E+03</pdfrwt>
<pdfrwt beam="2">  1       -4 0.89802991E-03 0.12499277E+03</pdfrwt>
<totfact> 0.44448948E+03</totfact>
</mgrwt>
</event>
<event>
 5    1  0.3316199E-002  0.1249979E+03  0.7818608E-02  0.1235073E+00
         -4   -1    0    0    0  501 -0.00000000000E+00  0.00000000000E+00  0.81100140213E+02  0.81110083482E+02  0.12700000000E+01 0.  1.
          4   -1    0    0  501    0  0.00000000000E+00 -0.00000000000E+00 -0.48142883239E+02  0.48159631503E+02  0.12700000000E+01 0.  1.
         25    2    1    2    0    0  0.00000000000E+00  0.00000000000E+00  0.32957256974E+02  0.12926971499E+03  0.12499791368E+03 0.  0.
    9000005    1    3    3    0    0 -0.55990361070E+02  0.27726440198E+02  0.17721183398E+02  0.64951646321E+02  0.10000000000E+01 0.  0.
    9000005    1    3    3    0    0  0.55990361070E+02 -0.27726440198E+02  0.15236073576E+02  0.64318068665E+02  0.10000000000E+01 0.  0.
<mgrwt>
<rscale>  0 0.12499791E+03</rscale>
<asrwt>0</asrwt>
<pdfrwt beam="2">  1        4 0.74086507E-02 0.12499791E+03</pdfrwt>
<pdfrwt beam="1">  1       -4 0.12478998E-01 0.12499791E+03</pdfrwt>
<totfact> 0.10360643E+04</totfact>
</mgrwt>
</event>
<event>
 4    1  0.3316199E-002  0.1246176E+03  0.7818608E-02  0.1235668E+00
          4   -1    0    0  501    0  0.00000000000E+00  0.00000000000E+00  0.87074508497E+02  0.87083769613E+02  0.12700000000E+01 0. -1.
         -4   -1    0    0    0  501 -0.00000000000E+00 -0.00000000000E+00 -0.44566303507E+02  0.44584395345E+02  0.12700000000E+01 0. -1.
    9000005    1    1    2    0    0  0.56391033431E+02 -0.15495254296E+02  0.43948091523E+02  0.73160688253E+02  0.10000000000E+01 0.  0.
    9000005    1    1    2    0    0 -0.56391033431E+02  0.15495254296E+02 -0.14398865334E+01  0.58507476705E+02  0.10000000000E+01 0.  0.
<mgrwt>
<rscale>  0 0.12461765E+03</rscale>
<asrwt>0</asrwt>
<pdfrwt beam="1">  1        4 0.13398182E-01 0.12461765E+03</pdfrwt>
<pdfrwt beam="2">  1       -4 0.68584586E-02 0.12461765E+03</pdfrwt>
<totfact> 0.10398213E+04</totfact>
</mgrwt>
</event>
<event>
 5    1  0.3316199E-002  0.1250019E+03  0.7818608E-02  0.1235066E+00
          4   -1    0    0  501    0  0.00000000000E+00  0.00000000000E+00  0.11281784145E+03  0.11282498948E+03  0.12700000000E+01 0.  1.
         -4   -1    0    0    0  501 -0.00000000000E+00 -0.00000000000E+00 -0.34605580590E+02  0.34628876794E+02  0.12700000000E+01 0.  1.
         25    2    1    2    0    0  0.00000000000E+00  0.00000000000E+00  0.78212260863E+02  0.14745386627E+03  0.12500193970E+03 0.  0.
    9000005    1    3    3    0    0 -0.28238930323E+02  0.11641192872E+02  0.10341846229E+03  0.10783938473E+03  0.10000000000E+01 0.  0.
    9000005    1    3    3    0    0  0.28238930323E+02 -0.11641192872E+02 -0.25206201425E+02  0.39614481538E+02  0.10000000000E+01 0.  0.
<mgrwt>
<rscale>  0 0.12500194E+03</rscale>
<asrwt>0</asrwt>
<pdfrwt beam="1">  1        4 0.17358933E-01 0.12500194E+03</pdfrwt>
<pdfrwt beam="2">  1       -4 0.53262772E-02 0.12500194E+03</pdfrwt>
<totfact> 0.99809315E+03</totfact>
</mgrwt>
</event>
<event>
 4    1  0.3316199E-002  0.1250708E+03  0.7818608E-02  0.1234959E+00
          4   -1    0    0  501    0  0.00000000000E+00  0.00000000000E+00  0.22656095660E+02  0.22691663019E+02  0.12700000000E+01 0.  1.
         -4   -1    0    0    0  501 -0.00000000000E+00 -0.00000000000E+00 -0.17243712146E+03  0.17244179818E+03  0.12700000000E+01 0.  1.
    9000005    1    1    2    0    0 -0.19919249940E+02 -0.56028895508E+02 -0.10504948630E+03  0.12071623015E+03  0.10000000000E+01 0.  0.
    9000005    1    1    2    0    0  0.19919249940E+02  0.56028895508E+02 -0.44731539504E+02  0.74417231045E+02  0.10000000000E+01 0.  0.
<mgrwt>
<rscale>  0 0.12507083E+03</rscale>
<asrwt>0</asrwt>
<pdfrwt beam="1">  1        4 0.34886490E-02 0.12507083E+03</pdfrwt>
<pdfrwt beam="2">  1       -4 0.26531883E-01 0.12507083E+03</pdfrwt>
<totfact> 0.90817610E+03</totfact>
</mgrwt>
</event>
<event>
 5    1  0.3316199E-002  0.1249931E+03  0.7818608E-02  0.1235080E+00
         -4   -1    0    0    0  501 -0.00000000000E+00  0.00000000000E+00  0.79334029461E+02  0.79344194057E+02  0.12700000000E+01 0.  1.
          4   -1    0    0  501    0  0.00000000000E+00 -0.00000000000E+00 -0.49211050409E+02  0.49227435261E+02  0.12700000000E+01 0.  1.
         25    2    1    2    0    0  0.00000000000E+00  0.00000000000E+00  0.30122979052E+02  0.12857162932E+03  0.12499307980E+03 0.  0.
    9000005    1    3    3    0    0 -0.38555176308E+02  0.26408791892E+02 -0.27609816419E+02  0.54288376951E+02  0.10000000000E+01 0.  0.
    9000005    1    3    3    0    0  0.38555176308E+02 -0.26408791892E+02  0.57732795471E+02  0.74283252367E+02  0.10000000000E+01 0.  0.
<mgrwt>
<rscale>  0 0.12499308E+03</rscale>
<asrwt>0</asrwt>
<pdfrwt beam="2">  1        4 0.75729731E-02 0.12499308E+03</pdfrwt>
<pdfrwt beam="1">  1       -4 0.12207278E-01 0.12499308E+03</pdfrwt>
<totfact> 0.10376782E+04</totfact>
</mgrwt>
</event>
<event>
 5    1  0.3316199E-002  0.1250021E+03  0.7818608E-02  0.1235066E+00
         -4   -1    0    0    0  501 -0.00000000000E+00  0.00000000000E+00  0.11746626301E+02  0.11815080595E+02  0.12700000000E+01 0.  1.
          4   -1    0    0  501    0  0.00000000000E+00 -0.00000000000E+00 -0.33151737930E+03  0.33151981189E+03  0.12700000000E+01 0.  1.
         25    2    1    2    0    0  0.00000000000E+00  0.00000000000E+00 -0.31977075300E+03  0.34333489249E+03  0.12500205569E+03 0.  0.
    9000005    1    3    3    0    0  0.36225084394E+02  0.72592271915E+01 -0.29832295910E+03  0.30060362780E+03  0.10000000000E+01 0.  0.
    9000005    1    3    3    0    0 -0.36225084394E+02 -0.72592271915E+01 -0.21447793895E+02  0.42731264687E+02  0.10000000000E+01 0.  0.
<mgrwt>
<rscale>  0 0.12500206E+03</rscale>
<asrwt>0</asrwt>
<pdfrwt beam="2">  1        4 0.51008120E-01 0.12500206E+03</pdfrwt>
<pdfrwt beam="1">  1       -4 0.18126264E-02 0.12500206E+03</pdfrwt>
<totfact> 0.70460873E+03</totfact>
</mgrwt>
</event>
<event>
 5    1  0.3316199E-002  0.1250410E+03  0.7818608E-02  0.1235005E+00
         -4   -1    0    0    0  501 -0.00000000000E+00  0.00000000000E+00  0.54284206927E+03  0.54284355487E+03  0.12700000000E+01 0.  1.
          4   -1    0    0  501    0  0.00000000000E+00 -0.00000000000E+00 -0.71431379650E+01  0.72551581642E+01  0.12700000000E+01 0.  1.
         25    2    1    2    0    0  0.00000000000E+00  0.00000000000E+00  0.53569893130E+03  0.55009871304E+03  0.12504098962E+03 0.  0.
    9000005    1    3    3    0    0 -0.48335556464E+02 -0.37302676897E+02  0.20882659662E+03  0.21757151279E+03  0.10000000000E+01 0.  0.
    9000005    1    3    3    0    0  0.48335556464E+02  0.37302676897E+02  0.32687233468E+03  0.33252720025E+03  0.10000000000E+01 0.  0.
<mgrwt>
<rscale>  0 0.12504099E+03</rscale>
<asrwt>0</asrwt>
<pdfrwt beam="2">  1        4 0.11076751E-02 0.12504099E+03</pdfrwt>
<pdfrwt beam="1">  1       -4 0.83522928E-01 0.12504099E+03</pdfrwt>
<totfact> 0.52130106E+03</totfact>
</mgrwt>
</event>
<event>
 5    1  0.3316199E-002  0.1249995E+03  0.7818608E-02  0.1235070E+00
          4   -1    0    0  501    0  0.00000000000E+00  0.00000000000E+00  0.20742750369E+02  0.20781592645E+02  0.12700000000E+01 0.  1.
         -4   -1    0    0    0  501 -0.00000000000E+00 -0.00000000000E+00 -0.18810030755E+03  0.18810459484E+03  0.12700000000E+01 0.  1.
         25    2    1    2    0    0  0.00000000000E+00  0.00000000000E+00 -0.16735755718E+03  0.20888618748E+03  0.12499954951E+03 0.  0.
    9000005    1    3    3    0    0 -0.54438496064E+02  0.81387909740E+01 -0.13312265386E+03  0.14405703989E+03  0.10000000000E+01 0.  0.
    9000005    1    3    3    0    0  0.54438496064E+02 -0.81387909740E+01 -0.34234903320E+02  0.64829147592E+02  0.10000000000E+01 0.  0.
<mgrwt>
<rscale>  0 0.12499955E+03</rscale>
<asrwt>0</asrwt>
<pdfrwt beam="1">  1        4 0.31945102E-02 0.12499955E+03</pdfrwt>
<pdfrwt beam="2">  1       -4 0.28941825E-01 0.12499955E+03</pdfrwt>
<totfact> 0.88658998E+03</totfact>
</mgrwt>
</event>
<event>
 5    1  0.3316199E-002  0.1250139E+03  0.7818608E-02  0.1235048E+00
          4   -1    0    0  501    0  0.00000000000E+00  0.00000000000E+00  0.26289079862E+02  0.26319738221E+02  0.12700000000E+01 0. -1.
         -4   -1    0    0    0  501 -0.00000000000E+00 -0.00000000000E+00 -0.14850137083E+03  0.14850680132E+03  0.12700000000E+01 0. -1.
         25    2    1    2    0    0  0.00000000000E+00  0.00000000000E+00 -0.12221229096E+03  0.17482653954E+03  0.12501389868E+03 0.  0.
    9000005    1    3    3    0    0 -0.23892222405E+02  0.23764248658E+01 -0.14180126099E+03  0.14382309726E+03  0.10000000000E+01 0.  0.
    9000005    1    3    3    0    0  0.23892222405E+02 -0.23764248658E+01  0.19588970025E+02  0.31003442280E+02  0.10000000000E+01 0.  0.
<mgrwt>
<rscale>  0 0.12501390E+03</rscale>
<asrwt>0</asrwt>
<pdfrwt beam="1">  1        4 0.40472500E-02 0.12501390E+03</pdfrwt>
<pdfrwt beam="2">  1       -4 0.22849140E-01 0.12501390E+03</pdfrwt>
<totfact> 0.94527142E+03</totfact>
</mgrwt>
</event>
<event>
 5    1  0.3316199E-002  0.1249991E+03  0.7818608E-02  0.1235071E+00
          4   -1    0    0  501    0  0.00000000000E+00  0.00000000000E+00  0.66746335921E+03  0.66746456744E+03  0.12700000000E+01 0. -1.
         -4   -1    0    0    0  501 -0.00000000000E+00 -0.00000000000E+00 -0.57821715867E+01  0.59200006975E+01  0.12700000000E+01 0. -1.
         25    2    1    2    0    0  0.00000000000E+00  0.00000000000E+00  0.66168118762E+03  0.67338456814E+03  0.12499913020E+03 0.  0.
    9000005    1    3    3    0    0  0.36924715311E+02 -0.48017144744E+02  0.41361914431E+03  0.41803214868E+03  0.10000000000E+01 0.  0.
    9000005    1    3    3    0    0 -0.36924715311E+02  0.48017144744E+02  0.24806204332E+03  0.25535241946E+03  0.10000000000E+01 0.  0.
<mgrwt>
<rscale>  0 0.12499913E+03</rscale>
<asrwt>0</asrwt>
<pdfrwt beam="1">  1        4 0.10269732E+00 0.12499913E+03</pdfrwt>
<pdfrwt beam="2">  1       -4 0.90026042E-03 0.12499913E+03</pdfrwt>
<totfact> 0.44530278E+03</totfact>
</mgrwt>
</event>
<event>
 5    1  0.3316199E-002  0.1250006E+03  0.7818608E-02  0.1235068E+00
         -4   -1    0    0    0  501 -0.00000000000E+00  0.00000000000E+00  0.12853301120E+02  0.12915891362E+02  0.12700000000E+01 0.  1.
          4   -1    0    0  501    0  0.00000000000E+00 -0.00000000000E+00 -0.30311113917E+03  0.30311379973E+03  0.12700000000E+01 0.  1.
         25    2    1    2    0    0  0.00000000000E+00  0.00000000000E+00 -0.29025783805E+03  0.31602969110E+03  0.12500061242E+03 0.  0.
    9000005    1    3    3    0    0  0.51250135519E+01 -0.19993927788E+02 -0.29425703210E+03  0.29498173477E+03  0.10000000000E+01 0.  0.
    9000005    1    3    3    0    0 -0.51250135519E+01  0.19993927788E+02  0.39991940467E+01  0.21047956321E+02  0.10000000000E+01 0.  0.
<mgrwt>
<rscale>  0 0.12500061E+03</rscale>
<asrwt>0</asrwt>
<pdfrwt beam="2">  1        4 0.46637497E-01 0.12500061E+03</pdfrwt>
<pdfrwt beam="1">  1       -4 0.19824505E-02 0.12500061E+03</pdfrwt>
<totfact> 0.73629844E+03</totfact>
</mgrwt>
</event>
<event>
 5    1  0.3316199E-002  0.1249912E+03  0.7818608E-02  0.1235083E+00
         -4   -1    0    0    0  501 -0.00000000000E+00  0.00000000000E+00  0.42640587756E+02  0.42659496295E+02  0.12700000000E+01 0.  1.
          4   -1    0    0  501    0  0.00000000000E+00 -0.00000000000E+00 -0.91552241951E+02  0.91561050159E+02  0.12700000000E+01 0.  1.
         25    2    1    2    0    0  0.00000000000E+00  0.00000000000E+00 -0.48911654195E+02  0.13422054645E+03  0.12499122039E+03 0.  0.
    9000005    1    3    3    0    0  0.32800226500E+02  0.44904098324E+02  0.61527210707E+01  0.55956133545E+02  0.10000000000E+01 0.  0.
    9000005    1    3    3    0    0 -0.32800226500E+02 -0.44904098324E+02 -0.55064375266E+02  0.78264412910E+02  0.10000000000E+01 0.  0.
<mgrwt>
<rscale>  0 0.12499122E+03</rscale>
<asrwt>0</asrwt>
<pdfrwt beam="2">  1        4 0.14087092E-01 0.12499122E+03</pdfrwt>
<pdfrwt beam="1">  1       -4 0.65622225E-02 0.12499122E+03</pdfrwt>
<totfact> 0.10256557E+04</totfact>
</mgrwt>
</event>
<event>
 5    1  0.3316199E-002  0.1249992E+03  0.7818608E-02  0.1235071E+00
         -4   -1    0    0    0  501 -0.00000000000E+00  0.00000000000E+00  0.21516513539E+02  0.21553961466E+02  0.12700000000E+01 0.  1.
          4   -1    0    0  501    0  0.00000000000E+00 -0.00000000000E+00 -0.18134677457E+03  0.18135122152E+03  0.12700000000E+01 0.  1.
         25    2    1    2    0    0  0.00000000000E+00  0.00000000000E+00 -0.15983026103E+03  0.20290518298E+03  0.12499920376E+03 0.  0.
    9000005    1    3    3    0    0 -0.18440941188E+02  0.49879409374E+02 -0.13319084931E+03  0.14341836051E+03  0.10000000000E+01 0.  0.
    9000005    1    3    3    0    0  0.18440941188E+02 -0.49879409374E+02 -0.26639411717E+02  0.59486822473E+02  0.10000000000E+01 0.  0.
<mgrwt>
<rscale>  0 0.12499920E+03</rscale>
<asrwt>0</asrwt>
<pdfrwt beam="2">  1        4 0.27902725E-01 0.12499920E+03</pdfrwt>
<pdfrwt beam="1">  1       -4 0.33134557E-02 0.12499920E+03</pdfrwt>
<totfact> 0.89649424E+03</totfact>
</mgrwt>
</event>
<event>
 5    1  0.3316199E-002  0.1250006E+03  0.7818608E-02  0.1235068E+00
         -4   -1    0    0    0  501 -0.00000000000E+00  0.00000000000E+00  0.93256393213E+03  0.93256479689E+03  0.12700000000E+01 0.  1.
          4   -1    0    0  501    0  0.00000000000E+00 -0.00000000000E+00 -0.40916093393E+01  0.42841763485E+01  0.12700000000E+01 0.  1.
         25    2    1    2    0    0  0.00000000000E+00  0.00000000000E+00  0.92847232279E+03  0.93684897324E+03  0.12500057792E+03 0.  0.
    9000005    1    3    3    0    0 -0.24902376085E+02 -0.43277052475E+01  0.89258161246E+03  0.89293997126E+03  0.10000000000E+01 0.  0.
    9000005    1    3    3    0    0  0.24902376085E+02  0.43277052475E+01  0.35890710324E+02  0.43909001981E+02  0.10000000000E+01 0.  0.
<mgrwt>
<rscale>  0 0.12500058E+03</rscale>
<asrwt>0</asrwt>
<pdfrwt beam="2">  1        4 0.64435750E-03 0.12500058E+03</pdfrwt>
<pdfrwt beam="1">  1       -4 0.14348630E+00 0.12500058E+03</pdfrwt>
<totfact> 0.32787110E+03</totfact>
</mgrwt>
</event>
<event>
 5    1  0.3316199E-002  0.1250000E+03  0.7818608E-02  0.1235069E+00
         -4   -1    0    0    0  501 -0.00000000000E+00  0.00000000000E+00  0.17848053996E+03  0.17848505833E+03  0.12700000000E+01 0. -1.
          4   -1    0    0  501    0  0.00000000000E+00 -0.00000000000E+00 -0.21862900532E+02  0.21899756155E+02  0.12700000000E+01 0. -1.
         25    2    1    2    0    0  0.00000000000E+00  0.00000000000E+00  0.15661763943E+03  0.20038481448E+03  0.12499995557E+03 0.  0.
    9000005    1    3    3    0    0 -0.46998123199E+02 -0.26215880722E+02  0.12923405881E+03  0.13999477827E+03  0.10000000000E+01 0.  0.
    9000005    1    3    3    0    0  0.46998123199E+02  0.26215880722E+02  0.27383580625E+02  0.60390036215E+02  0.10000000000E+01 0.  0.
<mgrwt>
<rscale>  0 0.12499996E+03</rscale>
<asrwt>0</asrwt>
<pdfrwt beam="2">  1        4 0.33667058E-02 0.12499996E+03</pdfrwt>
<pdfrwt beam="1">  1       -4 0.27461727E-01 0.12499996E+03</pdfrwt>
<totfact> 0.90070734E+03</totfact>
</mgrwt>
</event>
<event>
 5    1  0.3316199E-002  0.1250011E+03  0.7818608E-02  0.1235068E+00
         -4   -1    0    0    0  501 -0.00000000000E+00  0.00000000000E+00  0.11100376494E+03  0.11101102977E+03  0.12700000000E+01 0. -1.
          4   -1    0    0  501    0  0.00000000000E+00 -0.00000000000E+00 -0.35170984928E+02  0.35193906870E+02  0.12700000000E+01 0. -1.
         25    2    1    2    0    0  0.00000000000E+00  0.00000000000E+00  0.75832780016E+02  0.14620493665E+03  0.12500109189E+03 0.  0.
    9000005    1    3    3    0    0  0.12351701354E+02  0.38389331772E+02  0.93753331858E+02  0.10206366912E+03  0.10000000000E+01 0.  0.
    9000005    1    3    3    0    0 -0.12351701354E+02 -0.38389331772E+02 -0.17920551842E+02  0.44141267523E+02  0.10000000000E+01 0.  0.
<mgrwt>
<rscale>  0 0.12500109E+03</rscale>
<asrwt>0</asrwt>
<pdfrwt beam="2">  1        4 0.54132428E-02 0.12500109E+03</pdfrwt>
<pdfrwt beam="1">  1       -4 0.17079824E-01 0.12500109E+03</pdfrwt>
<totfact> 0.10006318E+04</totfact>
</mgrwt>
</event>
<event>
 5    1  0.3316199E-002  0.1249991E+03  0.7818608E-02  0.1235071E+00
          4   -1    0    0  501    0  0.00000000000E+00  0.00000000000E+00  0.15733735456E+03  0.15734248008E+03  0.12700000000E+01 0.  1.
         -4   -1    0    0    0  501 -0.00000000000E+00 -0.00000000000E+00 -0.24805106345E+02  0.24837596518E+02  0.12700000000E+01 0.  1.
         25    2    1    2    0    0  0.00000000000E+00  0.00000000000E+00  0.13253224821E+03  0.18218007660E+03  0.12499913398E+03 0.  0.
    9000005    1    3    3    0    0  0.49238077023E+02 -0.38341631757E+02  0.61492685132E+02  0.87617459901E+02  0.10000000000E+01 0.  0.
    9000005    1    3    3    0    0 -0.49238077023E+02  0.38341631757E+02  0.71039563079E+02  0.94562616700E+02  0.10000000000E+01 0.  0.
<mgrwt>
<rscale>  0 0.12499913E+03</rscale>
<asrwt>0</asrwt>
<pdfrwt beam="1">  1        4 0.24208640E-01 0.12499913E+03</pdfrwt>
<pdfrwt beam="2">  1       -4 0.38190638E-02 0.12499913E+03</pdfrwt>
<totfact> 0.93227858E+03</totfact>
</mgrwt>
</event>
<event>
 5    1  0.3316199E-002  0.1250016E+03  0.7818608E-02  0.1235067E+00
          4   -1    0    0  501    0  0.00000000000E+00  0.00000000000E+00  0.49744476349E+01  0.51340071360E+01  0.12700000000E+01 0. -1.
         -4   -1    0    0    0  501 -0.00000000000E+00 -0.00000000000E+00 -0.77272731131E+03  0.77272835495E+03  0.12700000000E+01 0. -1.
         25    2    1    2    0    0  0.00000000000E+00  0.00000000000E+00 -0.76775286368E+03  0.77786236209E+03  0.12500157867E+03 0.  0.
    9000005    1    3    3    0    0  0.19748521084E+02  0.17806524948E+02 -0.73579726351E+03  0.73627826900E+03  0.10000000000E+01 0.  0.
    9000005    1    3    3    0    0 -0.19748521084E+02 -0.17806524948E+02 -0.31955600165E+02  0.41584093085E+02  0.10000000000E+01 0.  0.
<mgrwt>
<rscale>  0 0.12500158E+03</rscale>
<asrwt>0</asrwt>
<pdfrwt beam="1">  1        4 0.77765434E-03 0.12500158E+03</pdfrwt>
<pdfrwt beam="2">  1       -4 0.11889338E+00 0.12500158E+03</pdfrwt>
<totfact> 0.39270980E+03</totfact>
</mgrwt>
</event>
<event>
 5    1  0.3316199E-002  0.1250030E+03  0.7818608E-02  0.1235065E+00
          4   -1    0    0  501    0  0.00000000000E+00  0.00000000000E+00  0.88335309763E+01  0.89243582127E+01  0.12700000000E+01 0. -1.
         -4   -1    0    0    0  501 -0.00000000000E+00 -0.00000000000E+00 -0.43987487094E+03  0.43987670430E+03  0.12700000000E+01 0. -1.
         25    2    1    2    0    0  0.00000000000E+00  0.00000000000E+00 -0.43104133996E+03  0.44880106251E+03  0.12500302778E+03 0.  0.
    9000005    1    3    3    0    0  0.43189524981E+02  0.13149294863E+02 -0.37066245653E+03  0.37340312761E+03  0.10000000000E+01 0.  0.
    9000005    1    3    3    0    0 -0.43189524981E+02 -0.13149294863E+02 -0.60378883428E+02  0.75397934902E+02  0.10000000000E+01 0.  0.
<mgrwt>
<rscale>  0 0.12500303E+03</rscale>
<asrwt>0</asrwt>
<pdfrwt beam="1">  1        4 0.13661328E-02 0.12500303E+03</pdfrwt>
<pdfrwt beam="2">  1       -4 0.67680168E-01 0.12500303E+03</pdfrwt>
<totfact> 0.60063801E+03</totfact>
</mgrwt>
</event>
<event>
 5    1  0.3316199E-002  0.1249906E+03  0.7818608E-02  0.1235084E+00
          4   -1    0    0  501    0  0.00000000000E+00  0.00000000000E+00  0.15175208026E+04  0.15175213340E+04  0.12700000000E+01 0.  1.
         -4   -1    0    0    0  501 -0.00000000000E+00 -0.00000000000E+00 -0.24164790424E+01  0.27298847892E+01  0.12700000000E+01 0.  1.
         25    2    1    2    0    0  0.00000000000E+00  0.00000000000E+00  0.15151043235E+04  0.15202512188E+04  0.12499062783E+03 0.  0.
    9000005    1    3    3    0    0 -0.21241437416E+02 -0.25065142684E+02  0.11106063992E+03  0.11582282064E+03  0.10000000000E+01 0.  0.
    9000005    1    3    3    0    0  0.21241437416E+02  0.25065142684E+02  0.14040436836E+04  0.14044283982E+04  0.10000000000E+01 0.  0.
<mgrwt>
<rscale>  0 0.12499063E+03</rscale>
<asrwt>0</asrwt>
<pdfrwt beam="1">  1        4 0.23348818E+00 0.12499063E+03</pdfrwt>
<pdfrwt beam="2">  1       -4 0.39591623E-03 0.12499063E+03</pdfrwt>
<totfact> 0.17539412E+03</totfact>
</mgrwt>
</event>
<event>
 5    1  0.3316199E-002  0.1250002E+03  0.7818608E-02  0.1235069E+00
         -4   -1    0    0    0  501 -0.00000000000E+00  0.00000000000E+00  0.61439460173E+02  0.61452584701E+02  0.12700000000E+01 0. -1.
          4   -1    0    0  501    0  0.00000000000E+00 -0.00000000000E+00 -0.63552757742E+02  0.63565445932E+02  0.12700000000E+01 0. -1.
         25    2    1    2    0    0  0.00000000000E+00  0.00000000000E+00 -0.21132975683E+01  0.12501803063E+03  0.12500016783E+03 0.  0.
    9000005    1    3    3    0    0 -0.24599382993E+02 -0.56458005584E+02 -0.11670632101E+02  0.62688433477E+02  0.10000000000E+01 0.  0.
    9000005    1    3    3    0    0  0.24599382993E+02  0.56458005584E+02  0.95573345324E+01  0.62329597156E+02  0.10000000000E+01 0.  0.
<mgrwt>
<rscale>  0 0.12500017E+03</rscale>
<asrwt>0</asrwt>
<pdfrwt beam="2">  1        4 0.97793329E-02 0.12500017E+03</pdfrwt>
<pdfrwt beam="1">  1       -4 0.94542102E-02 0.12500017E+03</pdfrwt>
<totfact> 0.10452431E+04</totfact>
</mgrwt>
</event>
<event>
 5    1  0.3316199E-002  0.1250034E+03  0.7818608E-02  0.1235064E+00
          4   -1    0    0  501    0  0.00000000000E+00  0.00000000000E+00  0.35858272480E+02  0.35880755360E+02  0.12700000000E+01 0. -1.
         -4   -1    0    0    0  501 -0.00000000000E+00 -0.00000000000E+00 -0.10888140995E+03  0.10888881638E+03  0.12700000000E+01 0. -1.
         25    2    1    2    0    0  0.00000000000E+00  0.00000000000E+00 -0.73023137473E+02  0.14476957174E+03  0.12500340114E+03 0.  0.
    9000005    1    3    3    0    0  0.99791077774E+01  0.44581894280E+02 -0.85896263236E+02  0.97294891580E+02  0.10000000000E+01 0.  0.
    9000005    1    3    3    0    0 -0.99791077774E+01 -0.44581894280E+02  0.12873125763E+02  0.47474680163E+02  0.10000000000E+01 0.  0.
<mgrwt>
<rscale>  0 0.12500340E+03</rscale>
<asrwt>0</asrwt>
<pdfrwt beam="1">  1        4 0.55189565E-02 0.12500340E+03</pdfrwt>
<pdfrwt beam="2">  1       -4 0.16753285E-01 0.12500340E+03</pdfrwt>
<totfact> 0.10034904E+04</totfact>
</mgrwt>
</event>
<event>
 5    1  0.3316199E-002  0.1249983E+03  0.7818608E-02  0.1235072E+00
         -4   -1    0    0    0  501 -0.00000000000E+00  0.00000000000E+00  0.11596033714E+03  0.11596729147E+03  0.12700000000E+01 0.  1.
          4   -1    0    0  501    0  0.00000000000E+00 -0.00000000000E+00 -0.33665242651E+02  0.33689189108E+02  0.12700000000E+01 0.  1.
         25    2    1    2    0    0  0.00000000000E+00  0.00000000000E+00  0.82295094493E+02  0.14965648058E+03  0.12499831839E+03 0.  0.
    9000005    1    3    3    0    0 -0.44087205659E+02 -0.47862750560E+00 -0.11874449252E+02  0.45671800185E+02  0.10000000000E+01 0.  0.
    9000005    1    3    3    0    0  0.44087205659E+02  0.47862750560E+00  0.94169543745E+02  0.10398468039E+03  0.10000000000E+01 0.  0.
<mgrwt>
<rscale>  0 0.12499832E+03</rscale>
<asrwt>0</asrwt>
<pdfrwt beam="2">  1        4 0.51816451E-02 0.12499832E+03</pdfrwt>
<pdfrwt beam="1">  1       -4 0.17842429E-01 0.12499832E+03</pdfrwt>
<totfact> 0.99375978E+03</totfact>
</mgrwt>
</event>
<event>
 5    1  0.3316199E-002  0.1250038E+03  0.7818608E-02  0.1235063E+00
         -4   -1    0    0    0  501 -0.00000000000E+00  0.00000000000E+00  0.35743048074E+02  0.35765603387E+02  0.12700000000E+01 0.  1.
          4   -1    0    0  501    0  0.00000000000E+00 -0.00000000000E+00 -0.10923292609E+03  0.10924030868E+03  0.12700000000E+01 0.  1.
         25    2    1    2    0    0  0.00000000000E+00  0.00000000000E+00 -0.73489878012E+02  0.14500591207E+03  0.12500380940E+03 0.  0.
    9000005    1    3    3    0    0 -0.52619990625E+02  0.14957931361E+02 -0.71793524003E+02  0.90265792041E+02  0.10000000000E+01 0.  0.
    9000005    1    3    3    0    0  0.52619990625E+02 -0.14957931361E+02 -0.16963540092E+01  0.54740120030E+02  0.10000000000E+01 0.  0.
<mgrwt>
<rscale>  0 0.12500381E+03</rscale>
<asrwt>0</asrwt>
<pdfrwt beam="2">  1        4 0.16807368E-01 0.12500381E+03</pdfrwt>
<pdfrwt beam="1">  1       -4 0.55012334E-02 0.12500381E+03</pdfrwt>
<totfact> 0.10030008E+04</totfact>
</mgrwt>
</event>
<event>
 5    1  0.3316199E-002  0.1249992E+03  0.7818608E-02  0.1235071E+00
         -4   -1    0    0    0  501 -0.00000000000E+00  0.00000000000E+00  0.47920224941E+01  0.49574569674E+01  0.12700000000E+01 0. -1.
          4   -1    0    0  501    0  0.00000000000E+00 -0.00000000000E+00 -0.80114810995E+03  0.80114911657E+03  0.12700000000E+01 0. -1.
         25    2    1    2    0    0  0.00000000000E+00  0.00000000000E+00 -0.79635608746E+03  0.80610657354E+03  0.12499915947E+03 0.  0.
    9000005    1    3    3    0    0 -0.60405574044E+02 -0.69679343338E+01 -0.49114329827E+03  0.49489405424E+03  0.10000000000E+01 0.  0.
    9000005    1    3    3    0    0  0.60405574044E+02  0.69679343338E+01 -0.30521278919E+03  0.31121251930E+03  0.10000000000E+01 0.  0.
<mgrwt>
<rscale>  0 0.12499916E+03</rscale>
<asrwt>0</asrwt>
<pdfrwt beam="2">  1        4 0.12326625E+00 0.12499916E+03</pdfrwt>
<pdfrwt beam="1">  1       -4 0.75003803E-03 0.12499916E+03</pdfrwt>
<totfact> 0.37994288E+03</totfact>
</mgrwt>
</event>
<event>
 5    1  0.3316199E-002  0.1250031E+03  0.7818608E-02  0.1235064E+00
          4   -1    0    0  501    0  0.00000000000E+00  0.00000000000E+00  0.14860276718E+03  0.14860819397E+03  0.12700000000E+01 0.  1.
         -4   -1    0    0    0  501 -0.00000000000E+00 -0.00000000000E+00 -0.26266597189E+02  0.26297281758E+02  0.12700000000E+01 0.  1.
         25    2    1    2    0    0  0.00000000000E+00  0.00000000000E+00  0.12233616999E+03  0.17490547573E+03  0.12500314776E+03 0.  0.
    9000005    1    3    3    0    0 -0.10432346684E+02 -0.45273471902E+02  0.11964974130E+03  0.12835724252E+03  0.10000000000E+01 0.  0.
    9000005    1    3    3    0    0  0.10432346684E+02  0.45273471902E+02  0.26864286983E+01  0.46548233205E+02  0.10000000000E+01 0.  0.
<mgrwt>
<rscale>  0 0.12500315E+03</rscale>
<asrwt>0</asrwt>
<pdfrwt beam="1">  1        4 0.22864742E-01 0.12500315E+03</pdfrwt>
<pdfrwt beam="2">  1       -4 0.40437927E-02 0.12500315E+03</pdfrwt>
<totfact> 0.94535479E+03</totfact>
</mgrwt>
</event>
<event>
 5    1  0.3316199E-002  0.1249992E+03  0.7818608E-02  0.1235071E+00
         -4   -1    0    0    0  501 -0.00000000000E+00  0.00000000000E+00  0.70186860767E+02  0.70198349869E+02  0.12700000000E+01 0.  1.
          4   -1    0    0  501    0  0.00000000000E+00 -0.00000000000E+00 -0.55630979448E+02  0.55645473979E+02  0.12700000000E+01 0.  1.
         25    2    1    2    0    0  0.00000000000E+00  0.00000000000E+00  0.14555881318E+02  0.12584382385E+03  0.12499917728E+03 0.  0.
    9000005    1    3    3    0    0 -0.22927035236E+02  0.26772334454E+02  0.59228873756E+02  0.68930880766E+02  0.10000000000E+01 0.  0.
    9000005    1    3    3    0    0  0.22927035236E+02 -0.26772334454E+02 -0.44672992438E+02  0.56912943081E+02  0.10000000000E+01 0.  0.
<mgrwt>
<rscale>  0 0.12499918E+03</rscale>
<asrwt>0</asrwt>
<pdfrwt beam="2">  1        4 0.85606110E-02 0.12499918E+03</pdfrwt>
<pdfrwt beam="1">  1       -4 0.10799977E-01 0.12499918E+03</pdfrwt>
<totfact> 0.10434576E+04</totfact>
</mgrwt>
</event>
<event>
 5    1  0.3316199E-002  0.1249986E+03  0.7818608E-02  0.1235072E+00
          4   -1    0    0  501    0  0.00000000000E+00  0.00000000000E+00  0.21744500300E+03  0.21744871172E+03  0.12700000000E+01 0. -1.
         -4   -1    0    0    0  501 -0.00000000000E+00 -0.00000000000E+00 -0.17937587187E+02  0.17982489652E+02  0.12700000000E+01 0. -1.
         25    2    1    2    0    0  0.00000000000E+00  0.00000000000E+00  0.19950741581E+03  0.23543120137E+03  0.12499856646E+03 0.  0.
    9000005    1    3    3    0    0 -0.21341231395E+01 -0.59770159896E+01 -0.17338248142E+02  0.18490377236E+02  0.10000000000E+01 0.  0.
    9000005    1    3    3    0    0  0.21341231395E+01  0.59770159896E+01  0.21684566395E+03  0.21694082414E+03  0.10000000000E+01 0.  0.
<mgrwt>
<rscale>  0 0.12499857E+03</rscale>
<asrwt>0</asrwt>
<pdfrwt beam="1">  1        4 0.33456814E-01 0.12499857E+03</pdfrwt>
<pdfrwt beam="2">  1       -4 0.27633683E-02 0.12499857E+03</pdfrwt>
<totfact> 0.84485251E+03</totfact>
</mgrwt>
</event>
<event>
 5    1  0.3316199E-002  0.1250005E+03  0.7818608E-02  0.1235069E+00
          4   -1    0    0  501    0  0.00000000000E+00  0.00000000000E+00  0.57678505831E+03  0.57678645649E+03  0.12700000000E+01 0.  1.
         -4   -1    0    0    0  501 -0.00000000000E+00 -0.00000000000E+00 -0.67115482674E+01  0.68306500529E+01  0.12700000000E+01 0.  1.
         25    2    1    2    0    0  0.00000000000E+00  0.00000000000E+00  0.57007351004E+03  0.58361710654E+03  0.12500048079E+03 0.  0.
    9000005    1    3    3    0    0 -0.42359953446E+02  0.27943997160E+02  0.11476214607E+03  0.12548538880E+03  0.10000000000E+01 0.  0.
    9000005    1    3    3    0    0  0.42359953446E+02 -0.27943997160E+02  0.45531136398E+03  0.45813171774E+03  0.10000000000E+01 0.  0.
<mgrwt>
<rscale>  0 0.12500048E+03</rscale>
<asrwt>0</asrwt>
<pdfrwt beam="1">  1        4 0.88745424E-01 0.12500048E+03</pdfrwt>
<pdfrwt beam="2">  1       -4 0.10418152E-02 0.12500048E+03</pdfrwt>
<totfact> 0.49917825E+03</totfact>
</mgrwt>
</event>
<event>
 5    1  0.3316199E-002  0.1249967E+03  0.7818608E-02  0.1235074E+00
         -4   -1    0    0    0  501 -0.00000000000E+00  0.00000000000E+00  0.84570340714E+03  0.84570436073E+03  0.12700000000E+01 0. -1.
          4   -1    0    0  501    0  0.00000000000E+00 -0.00000000000E+00 -0.45304150159E+01  0.47050568771E+01  0.12700000000E+01 0. -1.
         25    2    1    2    0    0  0.00000000000E+00  0.00000000000E+00  0.84117299213E+03  0.85040941761E+03  0.12499669942E+03 0.  0.
    9000005    1    3    3    0    0  0.36235226590E+02 -0.47688611340E+02  0.29929243324E+03  0.30522803916E+03  0.10000000000E+01 0.  0.
    9000005    1    3    3    0    0 -0.36235226590E+02  0.47688611340E+02  0.54188055889E+03  0.54518137844E+03  0.10000000000E+01 0.  0.
<mgrwt>
<rscale>  0 0.12499670E+03</rscale>
<asrwt>0</asrwt>
<pdfrwt beam="2">  1        4 0.71049453E-03 0.12499670E+03</pdfrwt>
<pdfrwt beam="1">  1       -4 0.13012168E+00 0.12499670E+03</pdfrwt>
<totfact> 0.36113189E+03</totfact>
</mgrwt>
</event>
<event>
 5    1  0.3316199E-002  0.1249995E+03  0.7818608E-02  0.1235070E+00
          4   -1    0    0  501    0  0.00000000000E+00  0.00000000000E+00  0.81610866855E+02  0.81620747906E+02  0.12700000000E+01 0. -1.
         -4   -1    0    0    0  501 -0.00000000000E+00 -0.00000000000E+00 -0.47842762481E+02  0.47859615772E+02  0.12700000000E+01 0. -1.
         25    2    1    2    0    0  0.00000000000E+00  0.00000000000E+00  0.33768104374E+02  0.12948036368E+03  0.12499951882E+03 0.  0.
    9000005    1    3    3    0    0 -0.15712013366E+02  0.40818300691E+02 -0.29350227547E+02  0.52682415400E+02  0.10000000000E+01 0.  0.
    9000005    1    3    3    0    0  0.15712013366E+02 -0.40818300691E+02  0.63118331921E+02  0.76797948278E+02  0.10000000000E+01 0.  0.
<mgrwt>
<rscale>  0 0.12499952E+03</rscale>
<asrwt>0</asrwt>
<pdfrwt beam="1">  1        4 0.12557574E-01 0.12499952E+03</pdfrwt>
<pdfrwt beam="2">  1       -4 0.73624816E-02 0.12499952E+03</pdfrwt>
<totfact> 0.10355749E+04</totfact>
</mgrwt>
</event>
<event>
 5    1  0.3316199E-002  0.1250008E+03  0.7818608E-02  0.1235068E+00
          4   -1    0    0  501    0  0.00000000000E+00  0.00000000000E+00  0.22063035251E+03  0.22063400768E+03  0.12700000000E+01 0. -1.
         -4   -1    0    0    0  501 -0.00000000000E+00 -0.00000000000E+00 -0.17678600645E+02  0.17724159240E+02  0.12700000000E+01 0. -1.
         25    2    1    2    0    0  0.00000000000E+00  0.00000000000E+00  0.20295175186E+03  0.23835816693E+03  0.12500080862E+03 0.  0.
    9000005    1    3    3    0    0 -0.14566597729E+01 -0.49794381940E+02  0.17342511144E+03  0.18044077036E+03  0.10000000000E+01 0.  0.
    9000005    1    3    3    0    0  0.14566597729E+01  0.49794381940E+02  0.29526640426E+02  0.57917396569E+02  0.10000000000E+01 0.  0.
<mgrwt>
<rscale>  0 0.12500081E+03</rscale>
<asrwt>0</asrwt>
<pdfrwt beam="1">  1        4 0.33946917E-01 0.12500081E+03</pdfrwt>
<pdfrwt beam="2">  1       -4 0.27235704E-02 0.12500081E+03</pdfrwt>
<totfact> 0.84040982E+03</totfact>
</mgrwt>
</event>
<event>
 5    1  0.3316199E-002  0.1249994E+03  0.7818608E-02  0.1235070E+00
         -4   -1    0    0    0  501 -0.00000000000E+00  0.00000000000E+00  0.26933819857E+02  0.26963745142E+02  0.12700000000E+01 0.  1.
          4   -1    0    0  501    0  0.00000000000E+00 -0.00000000000E+00 -0.14491676637E+03  0.14492233118E+03  0.12700000000E+01 0.  1.
         25    2    1    2    0    0  0.00000000000E+00  0.00000000000E+00 -0.11798294652E+03  0.17188607633E+03  0.12499939026E+03 0.  0.
    9000005    1    3    3    0    0  0.11219574182E+02 -0.59024544589E+02 -0.35355981369E+02  0.69719589265E+02  0.10000000000E+01 0.  0.
    9000005    1    3    3    0    0 -0.11219574182E+02  0.59024544589E+02 -0.82626965147E+02  0.10216648706E+03  0.10000000000E+01 0.  0.
<mgrwt>
<rscale>  0 0.12499939E+03</rscale>
<asrwt>0</asrwt>
<pdfrwt beam="2">  1        4 0.22297617E-01 0.12499939E+03</pdfrwt>
<pdfrwt beam="1">  1       -4 0.41463947E-02 0.12499939E+03</pdfrwt>
<totfact> 0.95099563E+03</totfact>
</mgrwt>
</event>
<event>
 5    1  0.3316199E-002  0.1250015E+03  0.7818608E-02  0.1235067E+00
          4   -1    0    0  501    0  0.00000000000E+00  0.00000000000E+00  0.18400359103E+03  0.18400797377E+03  0.12700000000E+01 0. -1.
         -4   -1    0    0    0  501 -0.00000000000E+00 -0.00000000000E+00 -0.21206069527E+02  0.21244064696E+02  0.12700000000E+01 0. -1.
         25    2    1    2    0    0  0.00000000000E+00  0.00000000000E+00  0.16279752150E+03  0.20525203847E+03  0.12500146514E+03 0.  0.
    9000005    1    3    3    0    0  0.30514888276E+02 -0.54007117140E+02  0.93840555472E+02  0.11249434190E+03  0.10000000000E+01 0.  0.
    9000005    1    3    3    0    0 -0.30514888276E+02  0.54007117140E+02  0.68956966028E+02  0.92757696565E+02  0.10000000000E+01 0.  0.
<mgrwt>
<rscale>  0 0.12500147E+03</rscale>
<asrwt>0</asrwt>
<pdfrwt beam="1">  1        4 0.28311504E-01 0.12500147E+03</pdfrwt>
<pdfrwt beam="2">  1       -4 0.32657321E-02 0.12500147E+03</pdfrwt>
<totfact> 0.89254278E+03</totfact>
</mgrwt>
</event>
<event>
 5    1  0.3316199E-002  0.1250013E+03  0.7818608E-02  0.1235067E+00
         -4   -1    0    0    0  501 -0.00000000000E+00  0.00000000000E+00  0.15078016223E+02  0.15131406849E+02  0.12700000000E+01 0. -1.
          4   -1    0    0  501    0  0.00000000000E+00 -0.00000000000E+00 -0.25856183808E+03  0.25856495705E+03  0.12700000000E+01 0. -1.
         25    2    1    2    0    0  0.00000000000E+00  0.00000000000E+00 -0.24348382186E+03  0.27369636389E+03  0.12500131240E+03 0.  0.
    9000005    1    3    3    0    0  0.20525675584E+02  0.38585471305E+02 -0.21954365343E+03  0.22385387581E+03  0.10000000000E+01 0.  0.
    9000005    1    3    3    0    0 -0.20525675584E+02 -0.38585471305E+02 -0.23940168428E+02  0.49842488084E+02  0.10000000000E+01 0.  0.
<mgrwt>
<rscale>  0 0.12500131E+03</rscale>
<asrwt>0</asrwt>
<pdfrwt beam="2">  1        4 0.39783088E-01 0.12500131E+03</pdfrwt>
<pdfrwt beam="1">  1       -4 0.23240419E-02 0.12500131E+03</pdfrwt>
<totfact> 0.79019110E+03</totfact>
</mgrwt>
</event>
<event>
 5    1  0.3316199E-002  0.1249948E+03  0.7818608E-02  0.1235077E+00
          4   -1    0    0  501    0  0.00000000000E+00  0.00000000000E+00  0.16160840531E+02  0.16210665214E+02  0.12700000000E+01 0. -1.
         -4   -1    0    0    0  501 -0.00000000000E+00 -0.00000000000E+00 -0.24126734954E+03  0.24127069207E+03  0.12700000000E+01 0. -1.
         25    2    1    2    0    0  0.00000000000E+00  0.00000000000E+00 -0.22510650900E+03  0.25748135728E+03  0.12499483570E+03 0.  0.
    9000005    1    3    3    0    0  0.43195572672E+02 -0.15740709725E+02 -0.19973746881E+03  0.20496264023E+03  0.10000000000E+01 0.  0.
    9000005    1    3    3    0    0 -0.43195572672E+02  0.15740709725E+02 -0.25369040193E+02  0.52518717058E+02  0.10000000000E+01 0.  0.
<mgrwt>
<rscale>  0 0.12499484E+03</rscale>
<asrwt>0</asrwt>
<pdfrwt beam="1">  1        4 0.24903731E-02 0.12499484E+03</pdfrwt>
<pdfrwt beam="2">  1       -4 0.37122141E-01 0.12499484E+03</pdfrwt>
<totfact> 0.81270166E+03</totfact>
</mgrwt>
</event>
<event>
 5    1  0.3316199E-002  0.1250096E+03  0.7818608E-02  0.1235054E+00
          4   -1    0    0  501    0  0.00000000000E+00  0.00000000000E+00  0.32903221962E+02  0.32927722598E+02  0.12700000000E+01 0. -1.
         -4   -1    0    0    0  501 -0.00000000000E+00 -0.00000000000E+00 -0.11866547396E+03  0.11867226976E+03  0.12700000000E+01 0. -1.
         25    2    1    2    0    0  0.00000000000E+00  0.00000000000E+00 -0.85762252000E+02  0.15159999236E+03  0.12500957490E+03 0.  0.
    9000005    1    3    3    0    0  0.21655767536E+02 -0.54935987024E+02 -0.67702058158E+02  0.89841547275E+02  0.10000000000E+01 0.  0.
    9000005    1    3    3    0    0 -0.21655767536E+02  0.54935987024E+02 -0.18060193842E+02  0.61758445086E+02  0.10000000000E+01 0.  0.
<mgrwt>
<rscale>  0 0.12500957E+03</rscale>
<asrwt>0</asrwt>
<pdfrwt beam="1">  1        4 0.50644416E-02 0.12500957E+03</pdfrwt>
<pdfrwt beam="2">  1       -4 0.18258634E-01 0.12500957E+03</pdfrwt>
<totfact> 0.98964392E+03</totfact>
</mgrwt>
</event>
<event>
 5    1  0.3316199E-002  0.1249952E+03  0.7818608E-02  0.1235077E+00
          4   -1    0    0  501    0  0.00000000000E+00  0.00000000000E+00  0.24184260738E+02  0.24217583848E+02  0.12700000000E+01 0. -1.
         -4   -1    0    0    0  501 -0.00000000000E+00 -0.00000000000E+00 -0.16136100864E+03  0.16136600636E+03  0.12700000000E+01 0. -1.
         25    2    1    2    0    0  0.00000000000E+00  0.00000000000E+00 -0.13717674790E+03  0.18558359021E+03  0.12499523507E+03 0.  0.
    9000005    1    3    3    0    0  0.22666395646E+02  0.44022198589E+01  0.17625563319E+02  0.29065538247E+02  0.10000000000E+01 0.  0.
    9000005    1    3    3    0    0 -0.22666395646E+02 -0.44022198589E+01 -0.15480231122E+03  0.15651805196E+03  0.10000000000E+01 0.  0.
<mgrwt>
<rscale>  0 0.12499524E+03</rscale>
<asrwt>0</asrwt>
<pdfrwt beam="1">  1        4 0.37236034E-02 0.12499524E+03</pdfrwt>
<pdfrwt beam="2">  1       -4 0.24827718E-01 0.12499524E+03</pdfrwt>
<totfact> 0.92631376E+03</totfact>
</mgrwt>
</event>
<event>
 5    1  0.3316199E-002  0.1249902E+03  0.7818608E-02  0.1235085E+00
         -4   -1    0    0    0  501 -0.00000000000E+00  0.00000000000E+00  0.46364863639E+03  0.46365037575E+03  0.12700000000E+01 0. -1.
          4   -1    0    0  501    0  0.00000000000E+00 -0.00000000000E+00 -0.83740711717E+01  0.84698269161E+01  0.12700000000E+01 0. -1.
         25    2    1    2    0    0  0.00000000000E+00  0.00000000000E+00  0.45527456522E+03  0.47212020266E+03  0.12499022371E+03 0.  0.
    9000005    1    3    3    0    0 -0.10294604934E+02  0.58781454364E+02  0.29763391588E+03  0.30355919711E+03  0.10000000000E+01 0.  0.
    9000005    1    3    3    0    0  0.10294604934E+02 -0.58781454364E+02  0.15764064934E+03  0.16856100555E+03  0.10000000000E+01 0.  0.
<mgrwt>
<rscale>  0 0.12499022E+03</rscale>
<asrwt>0</asrwt>
<pdfrwt beam="2">  1        4 0.12958183E-02 0.12499022E+03</pdfrwt>
<pdfrwt beam="1">  1       -4 0.71338056E-01 0.12499022E+03</pdfrwt>
<totfact> 0.58106799E+03</totfact>
</mgrwt>
</event>
<event>
 5    1  0.3316199E-002  0.1249977E+03  0.7818608E-02  0.1235073E+00
          4   -1    0    0  501    0  0.00000000000E+00  0.00000000000E+00  0.29544697085E+03  0.29544970043E+03  0.12700000000E+01 0. -1.
         -4   -1    0    0    0  501 -0.00000000000E+00 -0.00000000000E+00 -0.13187719259E+02  0.13248729722E+02  0.12700000000E+01 0. -1.
         25    2    1    2    0    0  0.00000000000E+00  0.00000000000E+00  0.28225925159E+03  0.30869843015E+03  0.12499774266E+03 0.  0.
    9000005    1    3    3    0    0  0.21361128956E+02  0.43899893451E+02  0.23746460119E+03  0.24243336259E+03  0.10000000000E+01 0.  0.
    9000005    1    3    3    0    0 -0.21361128956E+02 -0.43899893451E+02  0.44794650396E+02  0.66265067565E+02  0.10000000000E+01 0.  0.
<mgrwt>
<rscale>  0 0.12499774E+03</rscale>
<asrwt>0</asrwt>
<pdfrwt beam="1">  1        4 0.45458283E-01 0.12499774E+03</pdfrwt>
<pdfrwt beam="2">  1       -4 0.20337830E-02 0.12499774E+03</pdfrwt>
<totfact> 0.74524251E+03</totfact>
</mgrwt>
</event>
<event>
 5    1  0.3316199E-002  0.1250003E+03  0.7818608E-02  0.1235069E+00
          4   -1    0    0  501    0  0.00000000000E+00  0.00000000000E+00  0.43843705747E+01  0.45646035245E+01  0.12700000000E+01 0. -1.
         -4   -1    0    0    0  501 -0.00000000000E+00 -0.00000000000E+00 -0.87282862004E+03  0.87282954399E+03  0.12700000000E+01 0. -1.
         25    2    1    2    0    0  0.00000000000E+00  0.00000000000E+00 -0.86844424947E+03  0.87739414752E+03  0.12500030265E+03 0.  0.
    9000005    1    3    3    0    0  0.39025264570E+02 -0.48540063786E+02 -0.39832155999E+03  0.40316271432E+03  0.10000000000E+01 0.  0.
    9000005    1    3    3    0    0 -0.39025264570E+02  0.48540063786E+02 -0.47012268948E+03  0.47423143320E+03  0.10000000000E+01 0.  0.
<mgrwt>
<rscale>  0 0.12500030E+03</rscale>
<asrwt>0</asrwt>
<pdfrwt beam="1">  1        4 0.68845439E-03 0.12500030E+03</pdfrwt>
<pdfrwt beam="2">  1       -4 0.13429513E+00 0.12500030E+03</pdfrwt>
<totfact> 0.35031596E+03</totfact>
</mgrwt>
</event>
<event>
 5    1  0.3316199E-002  0.1250156E+03  0.7818608E-02  0.1235045E+00
          4   -1    0    0  501    0  0.00000000000E+00  0.00000000000E+00  0.29510159092E+02  0.29537474327E+02  0.12700000000E+01 0.  1.
         -4   -1    0    0    0  501 -0.00000000000E+00 -0.00000000000E+00 -0.13231108027E+03  0.13231717523E+03  0.12700000000E+01 0.  1.
         25    2    1    2    0    0  0.00000000000E+00  0.00000000000E+00 -0.10280092118E+03  0.16185464956E+03  0.12501559179E+03 0.  0.
    9000005    1    3    3    0    0  0.23830273423E+01 -0.33832866942E+02 -0.11936640786E+03  0.12409545129E+03  0.10000000000E+01 0.  0.
    9000005    1    3    3    0    0 -0.23830273423E+01  0.33832866942E+02  0.16565486687E+02  0.37759198270E+02  0.10000000000E+01 0.  0.
<mgrwt>
<rscale>  0 0.12501559E+03</rscale>
<asrwt>0</asrwt>
<pdfrwt beam="1">  1        4 0.45425946E-02 0.12501559E+03</pdfrwt>
<pdfrwt beam="2">  1       -4 0.20358121E-01 0.12501559E+03</pdfrwt>
<totfact> 0.96952435E+03</totfact>
</mgrwt>
</event>
<event>
 5    1  0.3316199E-002  0.1250013E+03  0.7818608E-02  0.1235067E+00
         -4   -1    0    0    0  501 -0.00000000000E+00  0.00000000000E+00  0.11478932852E+04  0.11478939877E+04  0.12700000000E+01 0. -1.
          4   -1    0    0  501    0  0.00000000000E+00 -0.00000000000E+00 -0.32838247652E+01  0.35208528922E+01  0.12700000000E+01 0. -1.
         25    2    1    2    0    0  0.00000000000E+00  0.00000000000E+00  0.11446094604E+04  0.11514148406E+04  0.12500127331E+03 0.  0.
    9000005    1    3    3    0    0 -0.37101073233E+02 -0.25316706883E+02  0.17207681774E+03  0.17784503503E+03  0.10000000000E+01 0.  0.
    9000005    1    3    3    0    0  0.37101073233E+02  0.25316706883E+02  0.97253264265E+03  0.97356980556E+03  0.10000000000E+01 0.  0.
<mgrwt>
<rscale>  0 0.12500127E+03</rscale>
<asrwt>0</asrwt>
<pdfrwt beam="2">  1        4 0.52349058E-03 0.12500127E+03</pdfrwt>
<pdfrwt beam="1">  1       -4 0.17661732E+00 0.12500127E+03</pdfrwt>
<totfact> 0.26020272E+03</totfact>
</mgrwt>
</event>
<event>
 5    1  0.3316199E-002  0.1250014E+03  0.7818608E-02  0.1235067E+00
          4   -1    0    0  501    0  0.00000000000E+00  0.00000000000E+00  0.92986559373E+01  0.93849828045E+01  0.12700000000E+01 0. -1.
         -4   -1    0    0    0  501 -0.00000000000E+00 -0.00000000000E+00 -0.41806847769E+03  0.41807040668E+03  0.12700000000E+01 0. -1.
         25    2    1    2    0    0  0.00000000000E+00  0.00000000000E+00 -0.40876982175E+03  0.42745538948E+03  0.12500137127E+03 0.  0.
    9000005    1    3    3    0    0 -0.40579412522E+02  0.33227791784E+02 -0.32057910575E+03  0.32484263561E+03  0.10000000000E+01 0.  0.
    9000005    1    3    3    0    0  0.40579412522E+02 -0.33227791784E+02 -0.88190716005E+02  0.10261275387E+03  0.10000000000E+01 0.  0.
<mgrwt>
<rscale>  0 0.12500137E+03</rscale>
<asrwt>0</asrwt>
<pdfrwt beam="1">  1        4 0.14373517E-02 0.12500137E+03</pdfrwt>
<pdfrwt beam="2">  1       -4 0.64325002E-01 0.12500137E+03</pdfrwt>
<totfact> 0.61965457E+03</totfact>
</mgrwt>
</event>
<event>
 5    1  0.3316199E-002  0.1249978E+03  0.7818608E-02  0.1235073E+00
          4   -1    0    0  501    0  0.00000000000E+00  0.00000000000E+00  0.26525880798E+03  0.26526184820E+03  0.12700000000E+01 0. -1.
         -4   -1    0    0    0  501 -0.00000000000E+00 -0.00000000000E+00 -0.14695148413E+02  0.14749924979E+02  0.12700000000E+01 0. -1.
         25    2    1    2    0    0  0.00000000000E+00  0.00000000000E+00  0.25056365956E+03  0.28001177318E+03  0.12499778247E+03 0.  0.
    9000005    1    3    3    0    0  0.38002849917E+02 -0.49593278992E+02  0.12793379546E+03  0.14237895190E+03  0.10000000000E+01 0.  0.
    9000005    1    3    3    0    0 -0.38002849917E+02  0.49593278992E+02  0.12262986411E+03  0.13763282128E+03  0.10000000000E+01 0.  0.
<mgrwt>
<rscale>  0 0.12499778E+03</rscale>
<asrwt>0</asrwt>
<pdfrwt beam="1">  1        4 0.40813495E-01 0.12499778E+03</pdfrwt>
<pdfrwt beam="2">  1       -4 0.22652395E-02 0.12499778E+03</pdfrwt>
<totfact> 0.78180396E+03</totfact>
</mgrwt>
</event>
<event>
 5    1  0.3316199E-002  0.1249999E+03  0.7818608E-02  0.1235069E+00
         -4   -1    0    0    0  501 -0.00000000000E+00  0.00000000000E+00  0.53563171074E+01  0.55048190665E+01  0.12700000000E+01 0. -1.
          4   -1    0    0  501    0  0.00000000000E+00 -0.00000000000E+00 -0.71915723601E+03  0.71915835740E+03  0.12700000000E+01 0. -1.
         25    2    1    2    0    0  0.00000000000E+00  0.00000000000E+00 -0.71380091891E+03  0.72466317646E+03  0.12499986995E+03 0.  0.
    9000005    1    3    3    0    0 -0.87476860886E+00  0.25523907831E+02 -0.26250010706E+02  0.36637387368E+02  0.10000000000E+01 0.  0.
    9000005    1    3    3    0    0  0.87476860886E+00 -0.25523907831E+02 -0.68755090820E+03  0.68802578909E+03  0.10000000000E+01 0.  0.
<mgrwt>
<rscale>  0 0.12499987E+03</rscale>
<asrwt>0</asrwt>
<pdfrwt beam="2">  1        4 0.11065101E+00 0.12499987E+03</pdfrwt>
<pdfrwt beam="1">  1       -4 0.83555884E-03 0.12499987E+03</pdfrwt>
<totfact> 0.41816425E+03</totfact>
</mgrwt>
</event>
<event>
 4    1  0.3316199E-002  0.1249228E+03  0.7818608E-02  0.1235190E+00
          4   -1    0    0  501    0  0.00000000000E+00  0.00000000000E+00  0.27011493618E+02  0.27041332946E+02  0.12700000000E+01 0.  1.
         -4   -1    0    0    0  501 -0.00000000000E+00 -0.00000000000E+00 -0.14432353250E+03  0.14432912018E+03  0.12700000000E+01 0.  1.
    9000005    1    1    2    0    0 -0.18050246627E+02 -0.30532300938E+02 -0.12917289716E+03  0.13395771782E+03  0.10000000000E+01 0.  0.
    9000005    1    1    2    0    0  0.18050246627E+02  0.30532300938E+02  0.11860858280E+02  0.37412735305E+02  0.10000000000E+01 0.  0.
<mgrwt>
<rscale>  0 0.12492285E+03</rscale>
<asrwt>0</asrwt>
<pdfrwt beam="1">  1        4 0.41583396E-02 0.12492285E+03</pdfrwt>
<pdfrwt beam="2">  1       -4 0.22206345E-01 0.12492285E+03</pdfrwt>
<totfact> 0.95358829E+03</totfact>
</mgrwt>
</event>
<event>
 5    1  0.3316199E-002  0.1250135E+03  0.7818608E-02  0.1235048E+00
         -4   -1    0    0    0  501 -0.00000000000E+00  0.00000000000E+00  0.22530213227E+03  0.22530571166E+03  0.12700000000E+01 0.  1.
          4   -1    0    0  501    0  0.00000000000E+00 -0.00000000000E+00 -0.17314590764E+02  0.17361104611E+02  0.12700000000E+01 0.  1.
         25    2    1    2    0    0  0.00000000000E+00  0.00000000000E+00  0.20798754151E+03  0.24266681627E+03  0.12501346446E+03 0.  0.
    9000005    1    3    3    0    0  0.54036237136E+02 -0.13394722161E+02  0.15912850179E+03  0.16858888927E+03  0.10000000000E+01 0.  0.
    9000005    1    3    3    0    0 -0.54036237136E+02  0.13394722161E+02  0.48859039720E+02  0.74077926995E+02  0.10000000000E+01 0.  0.
<mgrwt>
<rscale>  0 0.12501346E+03</rscale>
<asrwt>0</asrwt>
<pdfrwt beam="2">  1        4 0.26676369E-02 0.12501346E+03</pdfrwt>
<pdfrwt beam="1">  1       -4 0.34665715E-01 0.12501346E+03</pdfrwt>
<totfact> 0.83376767E+03</totfact>
</mgrwt>
</event>
<event>
 5    1  0.3316199E-002  0.1250036E+03  0.7818608E-02  0.1235064E+00
         -4   -1    0    0    0  501 -0.00000000000E+00  0.00000000000E+00  0.67823716474E+02  0.67835605815E+02  0.12700000000E+01 0.  1.
          4   -1    0    0  501    0  0.00000000000E+00 -0.00000000000E+00 -0.57573546778E+02  0.57587552375E+02  0.12700000000E+01 0.  1.
         25    2    1    2    0    0  0.00000000000E+00  0.00000000000E+00  0.10250169696E+02  0.12542315819E+03  0.12500361047E+03 0.  0.
    9000005    1    3    3    0    0 -0.21108797930E+02 -0.57437090399E+02 -0.76011341849E+01  0.61671532691E+02  0.10000000000E+01 0.  0.
    9000005    1    3    3    0    0  0.21108797930E+02  0.57437090399E+02  0.17851303881E+02  0.63751625500E+02  0.10000000000E+01 0.  0.
<mgrwt>
<rscale>  0 0.12500361E+03</rscale>
<asrwt>0</asrwt>
<pdfrwt beam="2">  1        4 0.88594607E-02 0.12500361E+03</pdfrwt>
<pdfrwt beam="1">  1       -4 0.10436410E-01 0.12500361E+03</pdfrwt>
<totfact> 0.10442804E+04</totfact>
</mgrwt>
</event>
<event>
 5    1  0.3316199E-002  0.1250032E+03  0.7818608E-02  0.1235064E+00
         -4   -1    0    0    0  501 -0.00000000000E+00  0.00000000000E+00  0.30357366114E+02  0.30383919717E+02  0.12700000000E+01 0.  1.
          4   -1    0    0  501    0  0.00000000000E+00 -0.00000000000E+00 -0.12859609110E+03  0.12860236213E+03  0.12700000000E+01 0.  1.
         25    2    1    2    0    0  0.00000000000E+00  0.00000000000E+00 -0.98238724984E+02  0.15898628185E+03  0.12500316288E+03 0.  0.
    9000005    1    3    3    0    0  0.45282694881E+02  0.28360049597E+02 -0.78940333929E+01  0.54019724472E+02  0.10000000000E+01 0.  0.
    9000005    1    3    3    0    0 -0.45282694881E+02 -0.28360049597E+02 -0.90344691591E+02  0.10496655738E+03  0.10000000000E+01 0.  0.
<mgrwt>
<rscale>  0 0.12500316E+03</rscale>
<asrwt>0</asrwt>
<pdfrwt beam="2">  1        4 0.19786539E-01 0.12500316E+03</pdfrwt>
<pdfrwt beam="1">  1       -4 0.46728891E-02 0.12500316E+03</pdfrwt>
<totfact> 0.97531644E+03</totfact>
</mgrwt>
</event>
<event>
 5    1  0.3316199E-002  0.1250054E+03  0.7818608E-02  0.1235061E+00
          4   -1    0    0  501    0  0.00000000000E+00  0.00000000000E+00  0.45304420404E+03  0.45304598410E+03  0.12700000000E+01 0. -1.
         -4   -1    0    0    0  501 -0.00000000000E+00 -0.00000000000E+00 -0.85743971862E+01  0.86679401882E+01  0.12700000000E+01 0. -1.
         25    2    1    2    0    0  0.00000000000E+00  0.00000000000E+00  0.44446980685E+03  0.46171392429E+03  0.12500535461E+03 0.  0.
    9000005    1    3    3    0    0 -0.15555588431E+02  0.59838389781E+02  0.18859000998E+03  0.19846864006E+03  0.10000000000E+01 0.  0.
    9000005    1    3    3    0    0  0.15555588431E+02 -0.59838389781E+02  0.25587979688E+03  0.26324528423E+03  0.10000000000E+01 0.  0.
<mgrwt>
<rscale>  0 0.12500535E+03</rscale>
<asrwt>0</asrwt>
<pdfrwt beam="1">  1        4 0.69706439E-01 0.12500535E+03</pdfrwt>
<pdfrwt beam="2">  1       -4 0.13264706E-02 0.12500535E+03</pdfrwt>
<totfact> 0.58955332E+03</totfact>
</mgrwt>
</event>
<event>
 5    1  0.3316199E-002  0.1250037E+03  0.7818608E-02  0.1235063E+00
         -4   -1    0    0    0  501 -0.00000000000E+00  0.00000000000E+00  0.44674335988E+03  0.44674516505E+03  0.12700000000E+01 0.  1.
          4   -1    0    0  501    0  0.00000000000E+00 -0.00000000000E+00 -0.86964100038E+01  0.87886544451E+01  0.12700000000E+01 0.  1.
         25    2    1    2    0    0  0.00000000000E+00  0.00000000000E+00  0.43804694988E+03  0.45553381950E+03  0.12500372158E+03 0.  0.
    9000005    1    3    3    0    0 -0.57338165789E+02 -0.61292628096E+01  0.13124155738E+03  0.14335473310E+03  0.10000000000E+01 0.  0.
    9000005    1    3    3    0    0  0.57338165789E+02  0.61292628096E+01  0.30680539250E+03  0.31217908640E+03  0.10000000000E+01 0.  0.
<mgrwt>
<rscale>  0 0.12500372E+03</rscale>
<asrwt>0</asrwt>
<pdfrwt beam="2">  1        4 0.13451435E-02 0.12500372E+03</pdfrwt>
<pdfrwt beam="1">  1       -4 0.68736997E-01 0.12500372E+03</pdfrwt>
<totfact> 0.59482496E+03</totfact>
</mgrwt>
</event>
<event>
 5    1  0.3316199E-002  0.1250055E+03  0.7818608E-02  0.1235061E+00
          4   -1    0    0  501    0  0.00000000000E+00  0.00000000000E+00  0.67138990666E+01  0.68329598767E+01  0.12700000000E+01 0. -1.
         -4   -1    0    0    0  501 -0.00000000000E+00 -0.00000000000E+00 -0.57663298273E+03  0.57663438128E+03  0.12700000000E+01 0. -1.
         25    2    1    2    0    0  0.00000000000E+00  0.00000000000E+00 -0.56991908366E+03  0.58346734115E+03  0.12500550496E+03 0.  0.
    9000005    1    3    3    0    0 -0.36140939293E+02 -0.41279937929E+01 -0.47768647378E+02  0.60050407975E+02  0.10000000000E+01 0.  0.
    9000005    1    3    3    0    0  0.36140939293E+02  0.41279937929E+01 -0.52215043628E+03  0.52341693318E+03  0.10000000000E+01 0.  0.
<mgrwt>
<rscale>  0 0.12500550E+03</rscale>
<asrwt>0</asrwt>
<pdfrwt beam="1">  1        4 0.10421741E-02 0.12500550E+03</pdfrwt>
<pdfrwt beam="2">  1       -4 0.88721994E-01 0.12500550E+03</pdfrwt>
<totfact> 0.49922097E+03</totfact>
</mgrwt>
</event>
<event>
 5    1  0.3316199E-002  0.1250085E+03  0.7818608E-02  0.1235056E+00
         -4   -1    0    0    0  501 -0.00000000000E+00  0.00000000000E+00  0.17606654401E+02  0.17652398681E+02  0.12700000000E+01 0. -1.
          4   -1    0    0  501    0  0.00000000000E+00 -0.00000000000E+00 -0.22155689675E+03  0.22156053665E+03  0.12700000000E+01 0. -1.
         25    2    1    2    0    0  0.00000000000E+00  0.00000000000E+00 -0.20395024235E+03  0.23921293533E+03  0.12500850800E+03 0.  0.
    9000005    1    3    3    0    0 -0.10537867259E+02 -0.54781868351E+02 -0.15588500052E+03  0.16556942089E+03  0.10000000000E+01 0.  0.
    9000005    1    3    3    0    0  0.10537867259E+02  0.54781868351E+02 -0.48065241831E+02  0.73643514437E+02  0.10000000000E+01 0.  0.
<mgrwt>
<rscale>  0 0.12500851E+03</rscale>
<asrwt>0</asrwt>
<pdfrwt beam="2">  1        4 0.34089473E-01 0.12500851E+03</pdfrwt>
<pdfrwt beam="1">  1       -4 0.27125150E-02 0.12500851E+03</pdfrwt>
<totfact> 0.83898812E+03</totfact>
</mgrwt>
</event>
<event>
 5    1  0.3316199E-002  0.1249997E+03  0.7818608E-02  0.1235070E+00
         -4   -1    0    0    0  501 -0.00000000000E+00  0.00000000000E+00  0.33958293294E+01  0.36255422815E+01  0.12700000000E+01 0.  1.
          4   -1    0    0  501    0  0.00000000000E+00 -0.00000000000E+00 -0.11124390613E+04  0.11124397862E+04  0.12700000000E+01 0.  1.
         25    2    1    2    0    0  0.00000000000E+00  0.00000000000E+00 -0.11090432319E+04  0.11160653285E+04  0.12499970858E+03 0.  0.
    9000005    1    3    3    0    0 -0.61969494840E+02 -0.21119052315E+01 -0.62400000006E+03  0.62707390195E+03  0.10000000000E+01 0.  0.
    9000005    1    3    3    0    0  0.61969494840E+02  0.21119052315E+01 -0.48504323188E+03  0.48899142654E+03  0.10000000000E+01 0.  0.
<mgrwt>
<rscale>  0 0.12499971E+03</rscale>
<asrwt>0</asrwt>
<pdfrwt beam="2">  1        4 0.17116192E+00 0.12499971E+03</pdfrwt>
<pdfrwt beam="1">  1       -4 0.54016216E-03 0.12499971E+03</pdfrwt>
<totfact> 0.27018129E+03</totfact>
</mgrwt>
</event>
<event>
 5    1  0.3316199E-002  0.1249997E+03  0.7818608E-02  0.1235070E+00
          4   -1    0    0  501    0  0.00000000000E+00  0.00000000000E+00  0.15219990142E+03  0.15220519995E+03  0.12700000000E+01 0.  1.
         -4   -1    0    0    0  501 -0.00000000000E+00 -0.00000000000E+00 -0.25643665855E+02  0.25675094907E+02  0.12700000000E+01 0.  1.
         25    2    1    2    0    0  0.00000000000E+00  0.00000000000E+00  0.12655623557E+03  0.17788029486E+03  0.12499967415E+03 0.  0.
    9000005    1    3    3    0    0  0.13614581219E+02 -0.37535810044E+02 -0.51308280203E+01  0.40269333910E+02  0.10000000000E+01 0.  0.
    9000005    1    3    3    0    0 -0.13614581219E+02  0.37535810044E+02  0.13168706359E+03  0.13761096095E+03  0.10000000000E+01 0.  0.
<mgrwt>
<rscale>  0 0.12499967E+03</rscale>
<asrwt>0</asrwt>
<pdfrwt beam="1">  1        4 0.23418194E-01 0.12499967E+03</pdfrwt>
<pdfrwt beam="2">  1       -4 0.39480046E-02 0.12499967E+03</pdfrwt>
<totfact> 0.94000641E+03</totfact>
</mgrwt>
</event>
<event>
 4    1  0.3316199E-002  0.1250670E+03  0.7818608E-02  0.1234965E+00
          4   -1    0    0  501    0  0.00000000000E+00  0.00000000000E+00  0.39401972473E+02  0.39422434410E+02  0.12700000000E+01 0.  1.
         -4   -1    0    0    0  501 -0.00000000000E+00 -0.00000000000E+00 -0.99194396881E+02  0.99202526544E+02  0.12700000000E+01 0.  1.
    9000005    1    1    2    0    0  0.46074375202E+02 -0.40780231599E+02 -0.42217035213E+02  0.74626760628E+02  0.10000000000E+01 0.  0.
    9000005    1    1    2    0    0 -0.46074375202E+02  0.40780231599E+02 -0.17575389195E+02  0.63998200326E+02  0.10000000000E+01 0.  0.
<mgrwt>
<rscale>  0 0.12506697E+03</rscale>
<asrwt>0</asrwt>
<pdfrwt beam="1">  1        4 0.60640413E-02 0.12506697E+03</pdfrwt>
<pdfrwt beam="2">  1       -4 0.15262876E-01 0.12506697E+03</pdfrwt>
<totfact> 0.10146845E+04</totfact>
</mgrwt>
</event>
<event>
 5    1  0.3316199E-002  0.1250011E+03  0.7818608E-02  0.1235068E+00
          4   -1    0    0  501    0  0.00000000000E+00  0.00000000000E+00  0.29509913514E+02  0.29537228977E+02  0.12700000000E+01 0. -1.
         -4   -1    0    0    0  501 -0.00000000000E+00 -0.00000000000E+00 -0.13228149414E+03  0.13228759047E+03  0.12700000000E+01 0. -1.
         25    2    1    2    0    0  0.00000000000E+00  0.00000000000E+00 -0.10277158063E+03  0.16182481945E+03  0.12500109761E+03 0.  0.
    9000005    1    3    3    0    0 -0.27216953103E+02 -0.33259964048E+02  0.73481174597E+01  0.43611725200E+02  0.10000000000E+01 0.  0.
    9000005    1    3    3    0    0  0.27216953103E+02  0.33259964048E+02 -0.11011969809E+03  0.11821309425E+03  0.10000000000E+01 0.  0.
<mgrwt>
<rscale>  0 0.12500110E+03</rscale>
<asrwt>0</asrwt>
<pdfrwt beam="1">  1        4 0.45425569E-02 0.12500110E+03</pdfrwt>
<pdfrwt beam="2">  1       -4 0.20353569E-01 0.12500110E+03</pdfrwt>
<totfact> 0.96989731E+03</totfact>
</mgrwt>
</event>
<event>
 5    1  0.3316199E-002  0.1250009E+03  0.7818608E-02  0.1235068E+00
         -4   -1    0    0    0  501 -0.00000000000E+00  0.00000000000E+00  0.30672929860E+03  0.30673192778E+03  0.12700000000E+01 0. -1.
          4   -1    0    0  501    0  0.00000000000E+00 -0.00000000000E+00 -0.12700999390E+02  0.12764336469E+02  0.12700000000E+01 0. -1.
         25    2    1    2    0    0  0.00000000000E+00  0.00000000000E+00  0.29402829921E+03  0.31949626425E+03  0.12500088853E+03 0.  0.
    9000005    1    3    3    0    0 -0.43565771319E+01  0.50231057536E+02  0.24138267246E+03  0.24659426893E+03  0.10000000000E+01 0.  0.
    9000005    1    3    3    0    0  0.43565771319E+01 -0.50231057536E+02  0.52645626751E+02  0.72901995319E+02  0.10000000000E+01 0.  0.
<mgrwt>
<rscale>  0 0.12500089E+03</rscale>
<asrwt>0</asrwt>
<pdfrwt beam="2">  1        4 0.19590742E-02 0.12500089E+03</pdfrwt>
<pdfrwt beam="1">  1       -4 0.47194197E-01 0.12500089E+03</pdfrwt>
<totfact> 0.73214634E+03</totfact>
</mgrwt>
</event>
<event>
 5    1  0.3316199E-002  0.1249881E+03  0.7818608E-02  0.1235088E+00
          4   -1    0    0  501    0  0.00000000000E+00  0.00000000000E+00  0.29979157273E+02  0.30006045570E+02  0.12700000000E+01 0. -1.
         -4   -1    0    0    0  501 -0.00000000000E+00 -0.00000000000E+00 -0.13018568046E+03  0.13019187492E+03  0.12700000000E+01 0. -1.
         25    2    1    2    0    0  0.00000000000E+00  0.00000000000E+00 -0.10020652318E+03  0.16019792049E+03  0.12498810520E+03 0.  0.
    9000005    1    3    3    0    0  0.75613588386E-01 -0.21881955312E+02 -0.12512059883E+03  0.12702358024E+03  0.10000000000E+01 0.  0.
    9000005    1    3    3    0    0 -0.75613588386E-01  0.21881955312E+02  0.24914075648E+02  0.33174340251E+02  0.10000000000E+01 0.  0.
<mgrwt>
<rscale>  0 0.12498811E+03</rscale>
<asrwt>0</asrwt>
<pdfrwt beam="1">  1        4 0.46147230E-02 0.12498811E+03</pdfrwt>
<pdfrwt beam="2">  1       -4 0.20031111E-01 0.12498811E+03</pdfrwt>
<totfact> 0.97330661E+03</totfact>
</mgrwt>
</event>
<event>
 5    1  0.3316199E-002  0.1249919E+03  0.7818608E-02  0.1235082E+00
         -4   -1    0    0    0  501 -0.00000000000E+00  0.00000000000E+00  0.30153775166E+01  0.32719109963E+01  0.12700000000E+01 0. -1.
          4   -1    0    0  501    0  0.00000000000E+00 -0.00000000000E+00 -0.12421694228E+04  0.12421700720E+04  0.12700000000E+01 0. -1.
         25    2    1    2    0    0  0.00000000000E+00  0.00000000000E+00 -0.12391540453E+04  0.12454419830E+04  0.12499194028E+03 0.  0.
    9000005    1    3    3    0    0  0.32099566916E+01  0.41110701624E+02 -0.15175352581E+03  0.15725942327E+03  0.10000000000E+01 0.  0.
    9000005    1    3    3    0    0 -0.32099566916E+01 -0.41110701624E+02 -0.10874005195E+04  0.10881825598E+04  0.10000000000E+01 0.  0.
<mgrwt>
<rscale>  0 0.12499194E+03</rscale>
<asrwt>0</asrwt>
<pdfrwt beam="2">  1        4 0.19112238E+00 0.12499194E+03</pdfrwt>
<pdfrwt beam="1">  1       -4 0.48368851E-03 0.12499194E+03</pdfrwt>
<totfact> 0.23557513E+03</totfact>
</mgrwt>
</event>
<event>
 5    1  0.3316199E-002  0.1250004E+03  0.7818608E-02  0.1235069E+00
          4   -1    0    0  501    0  0.00000000000E+00  0.00000000000E+00  0.53378760905E+01  0.54868771771E+01  0.12700000000E+01 0. -1.
         -4   -1    0    0    0  501 -0.00000000000E+00 -0.00000000000E+00 -0.72158068610E+03  0.72158180371E+03  0.12700000000E+01 0. -1.
         25    2    1    2    0    0  0.00000000000E+00  0.00000000000E+00 -0.71624281001E+03  0.72706868089E+03  0.12500041537E+03 0.  0.
    9000005    1    3    3    0    0 -0.43114063474E+02  0.12484140459E+02 -0.61103010946E+03  0.61267729753E+03  0.10000000000E+01 0.  0.
    9000005    1    3    3    0    0  0.43114063474E+02 -0.12484140459E+02 -0.10521270054E+03  0.11439138336E+03  0.10000000000E+01 0.  0.
<mgrwt>
<rscale>  0 0.12500042E+03</rscale>
<asrwt>0</asrwt>
<pdfrwt beam="1">  1        4 0.83275987E-03 0.12500042E+03</pdfrwt>
<pdfrwt beam="2">  1       -4 0.11102388E+00 0.12500042E+03</pdfrwt>
<totfact> 0.41695325E+03</totfact>
</mgrwt>
</event>
<event>
 5    1  0.3316199E-002  0.1250043E+03  0.7818608E-02  0.1235063E+00
          4   -1    0    0  501    0  0.00000000000E+00  0.00000000000E+00  0.10053480825E+03  0.10054282953E+03  0.12700000000E+01 0. -1.
         -4   -1    0    0    0  501 -0.00000000000E+00 -0.00000000000E+00 -0.38837422688E+02  0.38858181906E+02  0.12700000000E+01 0. -1.
         25    2    1    2    0    0  0.00000000000E+00  0.00000000000E+00  0.61697385561E+02  0.13940101144E+03  0.12500429834E+03 0.  0.
    9000005    1    3    3    0    0 -0.18168647195E+02 -0.58576214634E+02  0.44242154830E+02  0.75628307701E+02  0.10000000000E+01 0.  0.
    9000005    1    3    3    0    0  0.18168647195E+02  0.58576214634E+02  0.17455230732E+02  0.63772703735E+02  0.10000000000E+01 0.  0.
<mgrwt>
<rscale>  0 0.12500430E+03</rscale>
<asrwt>0</asrwt>
<pdfrwt beam="1">  1        4 0.15469107E-01 0.12500430E+03</pdfrwt>
<pdfrwt beam="2">  1       -4 0.59772021E-02 0.12500430E+03</pdfrwt>
<totfact> 0.10145033E+04</totfact>
</mgrwt>
</event>
<event>
 5    1  0.3316199E-002  0.1250000E+03  0.7818608E-02  0.1235069E+00
         -4   -1    0    0    0  501 -0.00000000000E+00  0.00000000000E+00  0.98097637984E+02  0.98105858531E+02  0.12700000000E+01 0.  1.
          4   -1    0    0  501    0  0.00000000000E+00 -0.00000000000E+00 -0.39800000286E+02  0.39820257693E+02  0.12700000000E+01 0.  1.
         25    2    1    2    0    0  0.00000000000E+00  0.00000000000E+00  0.58297637699E+02  0.13792611622E+03  0.12499999590E+03 0.  0.
    9000005    1    3    3    0    0 -0.11992779212E+02  0.29366357613E+02 -0.30261736871E+02  0.43851823578E+02  0.10000000000E+01 0.  0.
    9000005    1    3    3    0    0  0.11992779212E+02 -0.29366357613E+02  0.88559374569E+02  0.94074292646E+02  0.10000000000E+01 0.  0.
<mgrwt>
<rscale>  0 0.12500000E+03</rscale>
<asrwt>0</asrwt>
<pdfrwt beam="2">  1        4 0.61252675E-02 0.12500000E+03</pdfrwt>
<pdfrwt beam="1">  1       -4 0.15094135E-01 0.12500000E+03</pdfrwt>
<totfact> 0.10176751E+04</totfact>
</mgrwt>
</event>
<event>
 5    1  0.3316199E-002  0.1249986E+03  0.7818608E-02  0.1235071E+00
         -4   -1    0    0    0  501 -0.00000000000E+00  0.00000000000E+00  0.30943057855E+02  0.30969109277E+02  0.12700000000E+01 0.  1.
          4   -1    0    0  501    0  0.00000000000E+00 -0.00000000000E+00 -0.12615473041E+03  0.12616112279E+03  0.12700000000E+01 0.  1.
         25    2    1    2    0    0  0.00000000000E+00  0.00000000000E+00 -0.95211672554E+02  0.15713023207E+03  0.12499858895E+03 0.  0.
    9000005    1    3    3    0    0  0.50823615807E+01 -0.37076146569E+02  0.15305903988E+02  0.40444304179E+02  0.10000000000E+01 0.  0.
    9000005    1    3    3    0    0 -0.50823615807E+01  0.37076146569E+02 -0.11051757654E+03  0.11668592789E+03  0.10000000000E+01 0.  0.
<mgrwt>
<rscale>  0 0.12499859E+03</rscale>
<asrwt>0</asrwt>
<pdfrwt beam="2">  1        4 0.19410915E-01 0.12499859E+03</pdfrwt>
<pdfrwt beam="1">  1       -4 0.47629662E-02 0.12499859E+03</pdfrwt>
<totfact> 0.97902030E+03</totfact>
</mgrwt>
</event>
<event>
 5    1  0.3316199E-002  0.1249997E+03  0.7818608E-02  0.1235070E+00
          4   -1    0    0  501    0  0.00000000000E+00  0.00000000000E+00  0.77239954271E+03  0.77240058679E+03  0.12700000000E+01 0.  1.
         -4   -1    0    0    0  501 -0.00000000000E+00 -0.00000000000E+00 -0.49764698218E+01  0.51359664998E+01  0.12700000000E+01 0.  1.
         25    2    1    2    0    0  0.00000000000E+00  0.00000000000E+00  0.76742307288E+03  0.77753655329E+03  0.12499967562E+03 0.  0.
    9000005    1    3    3    0    0  0.18084453486E+02 -0.39763185657E+02  0.66168844332E+03  0.66312951557E+03  0.10000000000E+01 0.  0.
    9000005    1    3    3    0    0 -0.18084453486E+02  0.39763185657E+02  0.10573462956E+03  0.11440703772E+03  0.10000000000E+01 0.  0.
<mgrwt>
<rscale>  0 0.12499968E+03</rscale>
<asrwt>0</asrwt>
<pdfrwt beam="1">  1        4 0.11884308E+00 0.12499968E+03</pdfrwt>
<pdfrwt beam="2">  1       -4 0.77795984E-03 0.12499968E+03</pdfrwt>
<totfact> 0.39287696E+03</totfact>
</mgrwt>
</event>
<event>
 5    1  0.3316199E-002  0.1249984E+03  0.7818608E-02  0.1235072E+00
         -4   -1    0    0    0  501 -0.00000000000E+00  0.00000000000E+00  0.84462905627E+01  0.85412366943E+01  0.12700000000E+01 0.  1.
          4   -1    0    0  501    0  0.00000000000E+00 -0.00000000000E+00 -0.45978878989E+03  0.45979054384E+03  0.12700000000E+01 0.  1.
         25    2    1    2    0    0  0.00000000000E+00  0.00000000000E+00 -0.45134249932E+03  0.46833178053E+03  0.12499841984E+03 0.  0.
    9000005    1    3    3    0    0 -0.22951245332E+02 -0.42536342775E+02 -0.77259715844E+02  0.91138157822E+02  0.10000000000E+01 0.  0.
    9000005    1    3    3    0    0  0.22951245332E+02  0.42536342775E+02 -0.37408278348E+03  0.37719362271E+03  0.10000000000E+01 0.  0.
<mgrwt>
<rscale>  0 0.12499842E+03</rscale>
<asrwt>0</asrwt>
<pdfrwt beam="2">  1        4 0.70744156E-01 0.12499842E+03</pdfrwt>
<pdfrwt beam="1">  1       -4 0.13068681E-02 0.12499842E+03</pdfrwt>
<totfact> 0.58410010E+03</totfact>
</mgrwt>
</event>
<event>
 5    1  0.3316199E-002  0.1250219E+03  0.7818608E-02  0.1235035E+00
         -4   -1    0    0    0  501 -0.00000000000E+00  0.00000000000E+00  0.22447476760E+03  0.22447836018E+03  0.12700000000E+01 0.  1.
          4   -1    0    0  501    0  0.00000000000E+00 -0.00000000000E+00 -0.17380930415E+02  0.17427267201E+02  0.12700000000E+01 0.  1.
         25    2    1    2    0    0  0.00000000000E+00  0.00000000000E+00  0.20709383718E+03  0.24190562738E+03  0.12502189872E+03 0.  0.
    9000005    1    3    3    0    0 -0.60111961881E+02 -0.92539913105E+01  0.13142128500E+03  0.14481587782E+03  0.10000000000E+01 0.  0.
    9000005    1    3    3    0    0  0.60111961881E+02  0.92539913105E+01  0.75672552181E+02  0.97089749562E+02  0.10000000000E+01 0.  0.
<mgrwt>
<rscale>  0 0.12502190E+03</rscale>
<asrwt>0</asrwt>
<pdfrwt beam="2">  1        4 0.26778302E-02 0.12502190E+03</pdfrwt>
<pdfrwt beam="1">  1       -4 0.34538418E-01 0.12502190E+03</pdfrwt>
<totfact> 0.83473623E+03</totfact>
</mgrwt>
</event>
<event>
 5    1  0.3316199E-002  0.1250012E+03  0.7818608E-02  0.1235067E+00
          4   -1    0    0  501    0  0.00000000000E+00  0.00000000000E+00  0.13794026542E+03  0.13794611167E+03  0.12700000000E+01 0. -1.
         -4   -1    0    0    0  501 -0.00000000000E+00 -0.00000000000E+00 -0.28298262737E+02  0.28326746617E+02  0.12700000000E+01 0. -1.
         25    2    1    2    0    0  0.00000000000E+00  0.00000000000E+00  0.10964200268E+03  0.16627285828E+03  0.12500117859E+03 0.  0.
    9000005    1    3    3    0    0 -0.45940504239E+02 -0.25619400852E+01 -0.14285375550E+01  0.46044914879E+02  0.10000000000E+01 0.  0.
    9000005    1    3    3    0    0  0.45940504239E+02  0.25619400852E+01  0.11107054024E+03  0.12022794341E+03  0.10000000000E+01 0.  0.
<mgrwt>
<rscale>  0 0.12500118E+03</rscale>
<asrwt>0</asrwt>
<pdfrwt beam="1">  1        4 0.21224220E-01 0.12500118E+03</pdfrwt>
<pdfrwt beam="2">  1       -4 0.43562197E-02 0.12500118E+03</pdfrwt>
<totfact> 0.96144330E+03</totfact>
</mgrwt>
</event>
<event>
 5    1  0.3316199E-002  0.1249943E+03  0.7818608E-02  0.1235078E+00
         -4   -1    0    0    0  501 -0.00000000000E+00  0.00000000000E+00  0.20402961134E+02  0.20442449047E+02  0.12700000000E+01 0. -1.
          4   -1    0    0  501    0  0.00000000000E+00 -0.00000000000E+00 -0.19121086590E+03  0.19121508345E+03  0.12700000000E+01 0. -1.
         25    2    1    2    0    0  0.00000000000E+00  0.00000000000E+00 -0.17080790477E+03  0.21165753250E+03  0.12499428280E+03 0.  0.
    9000005    1    3    3    0    0 -0.98351671130E+01 -0.34644084751E+02  0.10715659460E+01  0.36042910176E+02  0.10000000000E+01 0.  0.
    9000005    1    3    3    0    0  0.98351671130E+01  0.34644084751E+02 -0.17187947071E+03  0.17561462232E+03  0.10000000000E+01 0.  0.
<mgrwt>
<rscale>  0 0.12499428E+03</rscale>
<asrwt>0</asrwt>
<pdfrwt beam="2">  1        4 0.29420417E-01 0.12499428E+03</pdfrwt>
<pdfrwt beam="1">  1       -4 0.31422792E-02 0.12499428E+03</pdfrwt>
<totfact> 0.88217172E+03</totfact>
</mgrwt>
</event>
<event>
 5    1  0.3316199E-002  0.1249999E+03  0.7818608E-02  0.1235069E+00
         -4   -1    0    0    0  501 -0.00000000000E+00  0.00000000000E+00  0.11265526211E+03  0.11266242044E+03  0.12700000000E+01 0.  1.
          4   -1    0    0  501    0  0.00000000000E+00 -0.00000000000E+00 -0.34654401271E+02  0.34677664677E+02  0.12700000000E+01 0.  1.
         25    2    1    2    0    0  0.00000000000E+00  0.00000000000E+00  0.78000860836E+02  0.14734008512E+03  0.12499986557E+03 0.  0.
    9000005    1    3    3    0    0  0.44314077426E+02 -0.44760284259E+01  0.90669197260E+02  0.10102314398E+03  0.10000000000E+01 0.  0.
    9000005    1    3    3    0    0 -0.44314077426E+02  0.44760284259E+01 -0.12668336424E+02  0.46316941137E+02  0.10000000000E+01 0.  0.
<mgrwt>
<rscale>  0 0.12499987E+03</rscale>
<asrwt>0</asrwt>
<pdfrwt beam="2">  1        4 0.53337865E-02 0.12499987E+03</pdfrwt>
<pdfrwt beam="1">  1       -4 0.17333919E-01 0.12499987E+03</pdfrwt>
<totfact> 0.99836881E+03</totfact>
</mgrwt>
</event>
<event>
 5    1  0.3316199E-002  0.1249779E+03  0.7818608E-02  0.1235104E+00
         -4   -1    0    0    0  501 -0.00000000000E+00  0.00000000000E+00  0.10151794485E+02  0.10230925240E+02  0.12700000000E+01 0.  1.
          4   -1    0    0  501    0  0.00000000000E+00 -0.00000000000E+00 -0.38307446971E+03  0.38307657491E+03  0.12700000000E+01 0.  1.
         25    2    1    2    0    0  0.00000000000E+00  0.00000000000E+00 -0.37292267523E+03  0.39330750015E+03  0.12497786995E+03 0.  0.
    9000005    1    3    3    0    0 -0.20497429551E+02 -0.55885391626E+02 -0.24621700158E+03  0.25331232398E+03  0.10000000000E+01 0.  0.
    9000005    1    3    3    0    0  0.20497429551E+02  0.55885391626E+02 -0.12670567365E+03  0.13999517617E+03  0.10000000000E+01 0.  0.
<mgrwt>
<rscale>  0 0.12497787E+03</rscale>
<asrwt>0</asrwt>
<pdfrwt beam="2">  1        4 0.58940772E-01 0.12497787E+03</pdfrwt>
<pdfrwt beam="1">  1       -4 0.15680637E-02 0.12497787E+03</pdfrwt>
<totfact> 0.65240823E+03</totfact>
</mgrwt>
</event>
<event>
 5    1  0.3316199E-002  0.1250007E+03  0.7818608E-02  0.1235068E+00
          4   -1    0    0  501    0  0.00000000000E+00  0.00000000000E+00  0.16413119839E+02  0.16462180987E+02  0.12700000000E+01 0.  1.
         -4   -1    0    0    0  501 -0.00000000000E+00 -0.00000000000E+00 -0.23759245305E+03  0.23759584728E+03  0.12700000000E+01 0.  1.
         25    2    1    2    0    0  0.00000000000E+00  0.00000000000E+00 -0.22117933321E+03  0.25405802827E+03  0.12500073715E+03 0.  0.
    9000005    1    3    3    0    0  0.16238850847E+02 -0.43299426501E+02 -0.25160027802E+02  0.52655176489E+02  0.10000000000E+01 0.  0.
    9000005    1    3    3    0    0 -0.16238850847E+02  0.43299426501E+02 -0.19601930541E+03  0.20140285178E+03  0.10000000000E+01 0.  0.
<mgrwt>
<rscale>  0 0.12500074E+03</rscale>
<asrwt>0</asrwt>
<pdfrwt beam="1">  1        4 0.25291306E-02 0.12500074E+03</pdfrwt>
<pdfrwt beam="2">  1       -4 0.36556718E-01 0.12500074E+03</pdfrwt>
<totfact> 0.81745891E+03</totfact>
</mgrwt>
</event>
<event>
 5    1  0.3316199E-002  0.1250137E+03  0.7818608E-02  0.1235048E+00
         -4   -1    0    0    0  501 -0.00000000000E+00  0.00000000000E+00  0.17225775554E+02  0.17272528577E+02  0.12700000000E+01 0. -1.
          4   -1    0    0  501    0  0.00000000000E+00 -0.00000000000E+00 -0.22646166579E+03  0.22646522685E+03  0.12700000000E+01 0. -1.
         25    2    1    2    0    0  0.00000000000E+00  0.00000000000E+00 -0.20923589023E+03  0.24373775542E+03  0.12501374187E+03 0.  0.
    9000005    1    3    3    0    0  0.29365433885E+02  0.44435898739E+02 -0.16837097743E+03  0.17659746273E+03  0.10000000000E+01 0.  0.
    9000005    1    3    3    0    0 -0.29365433885E+02 -0.44435898739E+02 -0.40864912806E+02  0.67140292691E+02  0.10000000000E+01 0.  0.
<mgrwt>
<rscale>  0 0.12501374E+03</rscale>
<asrwt>0</asrwt>
<pdfrwt beam="2">  1        4 0.34844125E-01 0.12501374E+03</pdfrwt>
<pdfrwt beam="1">  1       -4 0.26539898E-02 0.12501374E+03</pdfrwt>
<totfact> 0.83218337E+03</totfact>
</mgrwt>
</event>
<event>
 5    1  0.3316199E-002  0.1250011E+03  0.7818608E-02  0.1235068E+00
         -4   -1    0    0    0  501 -0.00000000000E+00  0.00000000000E+00  0.81213276336E+03  0.81213375636E+03  0.12700000000E+01 0.  1.
          4   -1    0    0  501    0  0.00000000000E+00 -0.00000000000E+00 -0.47251068865E+01  0.48928044196E+01  0.12700000000E+01 0.  1.
         25    2    1    2    0    0  0.00000000000E+00  0.00000000000E+00  0.80740765648E+03  0.81702656078E+03  0.12500110916E+03 0.  0.
    9000005    1    3    3    0    0  0.32445410168E+02  0.28201182842E+02  0.70016782740E+03  0.70148699052E+03  0.10000000000E+01 0.  0.
    9000005    1    3    3    0    0 -0.32445410168E+02 -0.28201182842E+02  0.10723982908E+03  0.11553957026E+03  0.10000000000E+01 0.  0.
<mgrwt>
<rscale>  0 0.12500111E+03</rscale>
<asrwt>0</asrwt>
<pdfrwt beam="2">  1        4 0.73991618E-03 0.12500111E+03</pdfrwt>
<pdfrwt beam="1">  1       -4 0.12495640E+00 0.12500111E+03</pdfrwt>
<totfact> 0.37514941E+03</totfact>
</mgrwt>
</event>
<event>
 5    1  0.3316199E-002  0.1250014E+03  0.7818608E-02  0.1235067E+00
          4   -1    0    0  501    0  0.00000000000E+00  0.00000000000E+00  0.42034967326E+02  0.42054148167E+02  0.12700000000E+01 0. -1.
         -4   -1    0    0    0  501 -0.00000000000E+00 -0.00000000000E+00 -0.92885883424E+02  0.92894565177E+02  0.12700000000E+01 0. -1.
         25    2    1    2    0    0  0.00000000000E+00  0.00000000000E+00 -0.50850916098E+02  0.13494871334E+03  0.12500135825E+03 0.  0.
    9000005    1    3    3    0    0  0.45338424594E+01  0.60122637660E+02 -0.43166298118E+02  0.74159399808E+02  0.10000000000E+01 0.  0.
    9000005    1    3    3    0    0 -0.45338424594E+01 -0.60122637660E+02 -0.76846179795E+01  0.60789313536E+02  0.10000000000E+01 0.  0.
<mgrwt>
<rscale>  0 0.12500136E+03</rscale>
<asrwt>0</asrwt>
<pdfrwt beam="1">  1        4 0.64690613E-02 0.12500136E+03</pdfrwt>
<pdfrwt beam="2">  1       -4 0.14292279E-01 0.12500136E+03</pdfrwt>
<totfact> 0.10238838E+04</totfact>
</mgrwt>
</event>
<event>
 5    1  0.3316199E-002  0.1250012E+03  0.7818608E-02  0.1235067E+00
          4   -1    0    0  501    0  0.00000000000E+00  0.00000000000E+00  0.18187291988E+03  0.18187735396E+03  0.12700000000E+01 0. -1.
         -4   -1    0    0    0  501 -0.00000000000E+00 -0.00000000000E+00 -0.21454843908E+02  0.21492399287E+02  0.12700000000E+01 0. -1.
         25    2    1    2    0    0  0.00000000000E+00  0.00000000000E+00  0.16041807597E+03  0.20336975325E+03  0.12500118975E+03 0.  0.
    9000005    1    3    3    0    0 -0.36725399949E+01  0.54635540699E+02  0.31216870430E+02  0.63039851340E+02  0.10000000000E+01 0.  0.
    9000005    1    3    3    0    0  0.36725399949E+01 -0.54635540699E+02  0.12920120554E+03  0.14032990191E+03  0.10000000000E+01 0.  0.
<mgrwt>
<rscale>  0 0.12500119E+03</rscale>
<asrwt>0</asrwt>
<pdfrwt beam="1">  1        4 0.27983680E-01 0.12500119E+03</pdfrwt>
<pdfrwt beam="2">  1       -4 0.33039750E-02 0.12500119E+03</pdfrwt>
<totfact> 0.89567881E+03</totfact>
</mgrwt>
</event>
<event>
 5    1  0.3316199E-002  0.1250036E+03  0.7818608E-02  0.1235064E+00
          4   -1    0    0  501    0  0.00000000000E+00  0.00000000000E+00  0.56505303127E+03  0.56505445848E+03  0.12700000000E+01 0. -1.
         -4   -1    0    0    0  501 -0.00000000000E+00 -0.00000000000E+00 -0.68536891544E+01  0.69703626179E+01  0.12700000000E+01 0. -1.
         25    2    1    2    0    0  0.00000000000E+00  0.00000000000E+00  0.55819934212E+03  0.57202482110E+03  0.12500356160E+03 0.  0.
    9000005    1    3    3    0    0 -0.61160403377E+02  0.12577417316E+02  0.29093235677E+03  0.29755910771E+03  0.10000000000E+01 0.  0.
    9000005    1    3    3    0    0  0.61160403377E+02 -0.12577417316E+02  0.26726698535E+03  0.27446571339E+03  0.10000000000E+01 0.  0.
<mgrwt>
<rscale>  0 0.12500356E+03</rscale>
<asrwt>0</asrwt>
<pdfrwt beam="1">  1        4 0.86940348E-01 0.12500356E+03</pdfrwt>
<pdfrwt beam="2">  1       -4 0.10634980E-02 0.12500356E+03</pdfrwt>
<totfact> 0.50678505E+03</totfact>
</mgrwt>
</event>
<event>
 5    1  0.3316199E-002  0.1249978E+03  0.7818608E-02  0.1235073E+00
         -4   -1    0    0    0  501 -0.00000000000E+00  0.00000000000E+00  0.14269462058E+02  0.14325866376E+02  0.12700000000E+01 0.  1.
          4   -1    0    0  501    0  0.00000000000E+00 -0.00000000000E+00 -0.27314127297E+03  0.27314422546E+03  0.12700000000E+01 0.  1.
         25    2    1    2    0    0  0.00000000000E+00  0.00000000000E+00 -0.25887181091E+03  0.28747009183E+03  0.12499775683E+03 0.  0.
    9000005    1    3    3    0    0  0.31511961938E+02 -0.47470741830E+02 -0.18845774777E+03  0.19688524010E+03  0.10000000000E+01 0.  0.
    9000005    1    3    3    0    0 -0.31511961938E+02  0.47470741830E+02 -0.70414063144E+02  0.90584851733E+02  0.10000000000E+01 0.  0.
<mgrwt>
<rscale>  0 0.12499776E+03</rscale>
<asrwt>0</asrwt>
<pdfrwt beam="2">  1        4 0.42026296E-01 0.12499776E+03</pdfrwt>
<pdfrwt beam="1">  1       -4 0.21998680E-02 0.12499776E+03</pdfrwt>
<totfact> 0.77201787E+03</totfact>
</mgrwt>
</event>
<event>
 5    1  0.3316199E-002  0.1249986E+03  0.7818608E-02  0.1235071E+00
          4   -1    0    0  501    0  0.00000000000E+00  0.00000000000E+00  0.69262322480E+02  0.69273964917E+02  0.12700000000E+01 0. -1.
         -4   -1    0    0    0  501 -0.00000000000E+00 -0.00000000000E+00 -0.56373123800E+02  0.56387427561E+02  0.12700000000E+01 0. -1.
         25    2    1    2    0    0  0.00000000000E+00  0.00000000000E+00  0.12889198680E+02  0.12566139248E+03  0.12499861646E+03 0.  0.
    9000005    1    3    3    0    0 -0.35856515332E+02  0.39080466522E+02  0.39668143036E+02  0.66238464107E+02  0.10000000000E+01 0.  0.
    9000005    1    3    3    0    0  0.35856515332E+02 -0.39080466522E+02 -0.26778944356E+02  0.59422928371E+02  0.10000000000E+01 0.  0.
<mgrwt>
<rscale>  0 0.12499862E+03</rscale>
<asrwt>0</asrwt>
<pdfrwt beam="1">  1        4 0.10657738E-01 0.12499862E+03</pdfrwt>
<pdfrwt beam="2">  1       -4 0.86747841E-02 0.12499862E+03</pdfrwt>
<totfact> 0.10438720E+04</totfact>
</mgrwt>
</event>
<event>
 5    1  0.3316199E-002  0.1250052E+03  0.7818608E-02  0.1235061E+00
         -4   -1    0    0    0  501 -0.00000000000E+00  0.00000000000E+00  0.45882810143E+02  0.45900383077E+02  0.12700000000E+01 0.  1.
          4   -1    0    0  501    0  0.00000000000E+00 -0.00000000000E+00 -0.85103887611E+02  0.85113363148E+02  0.12700000000E+01 0.  1.
         25    2    1    2    0    0  0.00000000000E+00  0.00000000000E+00 -0.39221077467E+02  0.13101374623E+03  0.12500523502E+03 0.  0.
    9000005    1    3    3    0    0  0.52136846732E+02 -0.34262993732E+02 -0.15777758234E+02  0.64359468469E+02  0.10000000000E+01 0.  0.
    9000005    1    3    3    0    0 -0.52136846732E+02  0.34262993732E+02 -0.23443319233E+02  0.66654277757E+02  0.10000000000E+01 0.  0.
<mgrwt>
<rscale>  0 0.12500524E+03</rscale>
<asrwt>0</asrwt>
<pdfrwt beam="2">  1        4 0.13094986E-01 0.12500524E+03</pdfrwt>
<pdfrwt beam="1">  1       -4 0.70609745E-02 0.12500524E+03</pdfrwt>
<totfact> 0.10321576E+04</totfact>
</mgrwt>
</event>
<event>
 5    1  0.3316199E-002  0.1249967E+03  0.7818608E-02  0.1235074E+00
         -4   -1    0    0    0  501 -0.00000000000E+00  0.00000000000E+00  0.13653066116E+03  0.13653656776E+03  0.12700000000E+01 0. -1.
          4   -1    0    0  501    0  0.00000000000E+00 -0.00000000000E+00 -0.28588660771E+02  0.28616855604E+02  0.12700000000E+01 0. -1.
         25    2    1    2    0    0  0.00000000000E+00  0.00000000000E+00  0.10794200039E+03  0.16515342337E+03  0.12499671117E+03 0.  0.
    9000005    1    3    3    0    0  0.26834926235E+02  0.40875355926E+02  0.25581710263E+01  0.48973995417E+02  0.10000000000E+01 0.  0.
    9000005    1    3    3    0    0 -0.26834926235E+02 -0.40875355926E+02  0.10538382936E+03  0.11617942795E+03  0.10000000000E+01 0.  0.
<mgrwt>
<rscale>  0 0.12499671E+03</rscale>
<asrwt>0</asrwt>
<pdfrwt beam="2">  1        4 0.44008786E-02 0.12499671E+03</pdfrwt>
<pdfrwt beam="1">  1       -4 0.21007341E-01 0.12499671E+03</pdfrwt>
<totfact> 0.96365463E+03</totfact>
</mgrwt>
</event>
<event>
 5    1  0.3316199E-002  0.1250017E+03  0.7818608E-02  0.1235067E+00
          4   -1    0    0  501    0  0.00000000000E+00  0.00000000000E+00  0.32146564168E+02  0.32171641049E+02  0.12700000000E+01 0.  1.
         -4   -1    0    0    0  501 -0.00000000000E+00 -0.00000000000E+00 -0.12144129411E+03  0.12144793459E+03  0.12700000000E+01 0.  1.
         25    2    1    2    0    0  0.00000000000E+00  0.00000000000E+00 -0.89294729944E+02  0.15361957564E+03  0.12500170088E+03 0.  0.
    9000005    1    3    3    0    0  0.50630554648E+02 -0.36624578094E+02 -0.45553387353E+02  0.77336433094E+02  0.10000000000E+01 0.  0.
    9000005    1    3    3    0    0 -0.50630554648E+02  0.36624578094E+02 -0.43741342591E+02  0.76283142542E+02  0.10000000000E+01 0.  0.
<mgrwt>
<rscale>  0 0.12500170E+03</rscale>
<asrwt>0</asrwt>
<pdfrwt beam="1">  1        4 0.49480651E-02 0.12500170E+03</pdfrwt>
<pdfrwt beam="2">  1       -4 0.18685716E-01 0.12500170E+03</pdfrwt>
<totfact> 0.98583249E+03</totfact>
</mgrwt>
</event>
<event>
 5    1  0.3316199E-002  0.1249994E+03  0.7818608E-02  0.1235070E+00
         -4   -1    0    0    0  501 -0.00000000000E+00  0.00000000000E+00  0.45315065456E+02  0.45332858472E+02  0.12700000000E+01 0.  1.
          4   -1    0    0  501    0  0.00000000000E+00 -0.00000000000E+00 -0.86161825969E+02  0.86171185174E+02  0.12700000000E+01 0.  1.
         25    2    1    2    0    0  0.00000000000E+00  0.00000000000E+00 -0.40846760513E+02  0.13150404365E+03  0.12499942260E+03 0.  0.
    9000005    1    3    3    0    0 -0.41966039838E+02 -0.38726843139E+02  0.62804873531E+01  0.57457474714E+02  0.10000000000E+01 0.  0.
    9000005    1    3    3    0    0  0.41966039838E+02  0.38726843139E+02 -0.47127247866E+02  0.74046568932E+02  0.10000000000E+01 0.  0.
<mgrwt>
<rscale>  0 0.12499942E+03</rscale>
<asrwt>0</asrwt>
<pdfrwt beam="2">  1        4 0.13257754E-01 0.12499942E+03</pdfrwt>
<pdfrwt beam="1">  1       -4 0.69736372E-02 0.12499942E+03</pdfrwt>
<totfact> 0.10312430E+04</totfact>
</mgrwt>
</event>
<event>
 5    1  0.3316199E-002  0.1250013E+03  0.7818608E-02  0.1235067E+00
          4   -1    0    0  501    0  0.00000000000E+00  0.00000000000E+00  0.60353072148E+02  0.60366432872E+02  0.12700000000E+01 0. -1.
         -4   -1    0    0    0  501 -0.00000000000E+00 -0.00000000000E+00 -0.64697930863E+02  0.64710394512E+02  0.12700000000E+01 0. -1.
         25    2    1    2    0    0  0.00000000000E+00  0.00000000000E+00 -0.43448587145E+01  0.12507682738E+03  0.12500133980E+03 0.  0.
    9000005    1    3    3    0    0 -0.13079131583E+01 -0.46411507724E+02  0.39680991417E+02  0.61084529677E+02  0.10000000000E+01 0.  0.
    9000005    1    3    3    0    0  0.13079131583E+01  0.46411507724E+02 -0.44025850132E+02  0.63992297707E+02  0.10000000000E+01 0.  0.
<mgrwt>
<rscale>  0 0.12500134E+03</rscale>
<asrwt>0</asrwt>
<pdfrwt beam="1">  1        4 0.92870746E-02 0.12500134E+03</pdfrwt>
<pdfrwt beam="2">  1       -4 0.99555142E-02 0.12500134E+03</pdfrwt>
<totfact> 0.10450878E+04</totfact>
</mgrwt>
</event>
<event>
 5    1  0.3316199E-002  0.1249983E+03  0.7818608E-02  0.1235072E+00
          4   -1    0    0  501    0  0.00000000000E+00  0.00000000000E+00  0.13860564346E+03  0.13861146164E+03  0.12700000000E+01 0.  1.
         -4   -1    0    0    0  501 -0.00000000000E+00 -0.00000000000E+00 -0.28161004580E+02  0.28189627152E+02  0.12700000000E+01 0.  1.
         25    2    1    2    0    0  0.00000000000E+00  0.00000000000E+00  0.11044463888E+03  0.16680108879E+03  0.12499833985E+03 0.  0.
    9000005    1    3    3    0    0  0.96888853752E+01  0.15985486819E+01 -0.27131539316E+02  0.28871270899E+02  0.10000000000E+01 0.  0.
    9000005    1    3    3    0    0 -0.96888853752E+01 -0.15985486819E+01  0.13757617820E+03  0.13792981790E+03  0.10000000000E+01 0.  0.
<mgrwt>
<rscale>  0 0.12499834E+03</rscale>
<asrwt>0</asrwt>
<pdfrwt beam="1">  1        4 0.21326594E-01 0.12499834E+03</pdfrwt>
<pdfrwt beam="2">  1       -4 0.43351115E-02 0.12499834E+03</pdfrwt>
<totfact> 0.96050959E+03</totfact>
</mgrwt>
</event>
<event>
 5    1  0.3316199E-002  0.1250047E+03  0.7818608E-02  0.1235062E+00
          4   -1    0    0  501    0  0.00000000000E+00  0.00000000000E+00  0.20584959429E+03  0.20585351191E+03  0.12700000000E+01 0.  1.
         -4   -1    0    0    0  501 -0.00000000000E+00 -0.00000000000E+00 -0.18952318261E+02  0.18994822122E+02  0.12700000000E+01 0.  1.
         25    2    1    2    0    0  0.00000000000E+00  0.00000000000E+00  0.18689727603E+03  0.22484833404E+03  0.12500472605E+03 0.  0.
    9000005    1    3    3    0    0 -0.26819983031E+02 -0.12521847220E+02 -0.55534196389E+01  0.30132185736E+02  0.10000000000E+01 0.  0.
    9000005    1    3    3    0    0  0.26819983031E+02  0.12521847220E+02  0.19245069566E+03  0.19471614830E+03  0.10000000000E+01 0.  0.
<mgrwt>
<rscale>  0 0.12500473E+03</rscale>
<asrwt>0</asrwt>
<pdfrwt beam="1">  1        4 0.31672738E-01 0.12500473E+03</pdfrwt>
<pdfrwt beam="2">  1       -4 0.29193122E-02 0.12500473E+03</pdfrwt>
<totfact> 0.86097845E+03</totfact>
</mgrwt>
</event>
<event>
 5    1  0.3316199E-002  0.1249997E+03  0.7818608E-02  0.1235070E+00
         -4   -1    0    0    0  501 -0.00000000000E+00  0.00000000000E+00  0.20881417579E+02  0.20920002393E+02  0.12700000000E+01 0.  1.
          4   -1    0    0  501    0  0.00000000000E+00 -0.00000000000E+00 -0.18685397393E+03  0.18685828981E+03  0.12700000000E+01 0.  1.
         25    2    1    2    0    0  0.00000000000E+00  0.00000000000E+00 -0.16597255635E+03  0.20777829221E+03  0.12499971701E+03 0.  0.
    9000005    1    3    3    0    0  0.53805545649E+02  0.31660480000E+02 -0.87631483191E+02  0.10759971925E+03  0.10000000000E+01 0.  0.
    9000005    1    3    3    0    0 -0.53805545649E+02 -0.31660480000E+02 -0.78341073157E+02  0.10017857296E+03  0.10000000000E+01 0.  0.
<mgrwt>
<rscale>  0 0.12499972E+03</rscale>
<asrwt>0</asrwt>
<pdfrwt beam="2">  1        4 0.28750064E-01 0.12499972E+03</pdfrwt>
<pdfrwt beam="1">  1       -4 0.32158259E-02 0.12499972E+03</pdfrwt>
<totfact> 0.88840568E+03</totfact>
</mgrwt>
</event>
<event>
 5    1  0.3316199E-002  0.1250027E+03  0.7818608E-02  0.1235065E+00
          4   -1    0    0  501    0  0.00000000000E+00  0.00000000000E+00  0.17746405052E+03  0.17746859477E+03  0.12700000000E+01 0. -1.
         -4   -1    0    0    0  501 -0.00000000000E+00 -0.00000000000E+00 -0.21989320245E+02  0.22025964334E+02  0.12700000000E+01 0. -1.
         25    2    1    2    0    0  0.00000000000E+00  0.00000000000E+00  0.15547473028E+03  0.19949455910E+03  0.12500274939E+03 0.  0.
    9000005    1    3    3    0    0 -0.10939989976E+02  0.44583377687E+02  0.14541009374E+03  0.15248756116E+03  0.10000000000E+01 0.  0.
    9000005    1    3    3    0    0  0.10939989976E+02 -0.44583377687E+02  0.10064636535E+02  0.47006997939E+02  0.10000000000E+01 0.  0.
<mgrwt>
<rscale>  0 0.12500275E+03</rscale>
<asrwt>0</asrwt>
<pdfrwt beam="1">  1        4 0.27305329E-01 0.12500275E+03</pdfrwt>
<pdfrwt beam="2">  1       -4 0.33861408E-02 0.12500275E+03</pdfrwt>
<totfact> 0.90215273E+03</totfact>
</mgrwt>
</event>
<event>
 5    1  0.3316199E-002  0.1249963E+03  0.7818608E-02  0.1235075E+00
          4   -1    0    0  501    0  0.00000000000E+00  0.00000000000E+00  0.10369497972E+02  0.10446979860E+02  0.12700000000E+01 0. -1.
         -4   -1    0    0    0  501 -0.00000000000E+00 -0.00000000000E+00 -0.37520280262E+03  0.37520495199E+03  0.12700000000E+01 0. -1.
         25    2    1    2    0    0  0.00000000000E+00  0.00000000000E+00 -0.36483330465E+03  0.38565193185E+03  0.12499628936E+03 0.  0.
    9000005    1    3    3    0    0 -0.59038966470E+02  0.16212220961E+02 -0.14380931157E+03  0.15630276314E+03  0.10000000000E+01 0.  0.
    9000005    1    3    3    0    0  0.59038966470E+02 -0.16212220961E+02 -0.22102399307E+03  0.22934916870E+03  0.10000000000E+01 0.  0.
<mgrwt>
<rscale>  0 0.12499629E+03</rscale>
<asrwt>0</asrwt>
<pdfrwt beam="1">  1        4 0.16014332E-02 0.12499629E+03</pdfrwt>
<pdfrwt beam="2">  1       -4 0.57729623E-01 0.12499629E+03</pdfrwt>
<totfact> 0.65978017E+03</totfact>
</mgrwt>
</event>
<event>
 5    1  0.3316199E-002  0.1250010E+03  0.7818608E-02  0.1235068E+00
         -4   -1    0    0    0  501 -0.00000000000E+00  0.00000000000E+00  0.80471396847E+03  0.80471497062E+03  0.12700000000E+01 0. -1.
          4   -1    0    0  501    0  0.00000000000E+00 -0.00000000000E+00 -0.47702005406E+01  0.49363663962E+01  0.12700000000E+01 0. -1.
         25    2    1    2    0    0  0.00000000000E+00  0.00000000000E+00  0.79994376793E+03  0.80965133702E+03  0.12500102277E+03 0.  0.
    9000005    1    3    3    0    0  0.25850453398E+02 -0.52222400421E+02  0.25371300514E+03  0.26032040647E+03  0.10000000000E+01 0.  0.
    9000005    1    3    3    0    0 -0.25850453398E+02  0.52222400421E+02  0.54623076278E+03  0.54933093055E+03  0.10000000000E+01 0.  0.
<mgrwt>
<rscale>  0 0.12500102E+03</rscale>
<asrwt>0</asrwt>
<pdfrwt beam="2">  1        4 0.74673601E-03 0.12500102E+03</pdfrwt>
<pdfrwt beam="1">  1       -4 0.12381502E+00 0.12500102E+03</pdfrwt>
<totfact> 0.37836631E+03</totfact>
</mgrwt>
</event>
<event>
 5    1  0.3316199E-002  0.1250103E+03  0.7818608E-02  0.1235053E+00
         -4   -1    0    0    0  501 -0.00000000000E+00  0.00000000000E+00  0.76586786132E+01  0.77632633666E+01  0.12700000000E+01 0. -1.
          4   -1    0    0  501    0  0.00000000000E+00 -0.00000000000E+00 -0.50656174027E+03  0.50656333227E+03  0.12700000000E+01 0. -1.
         25    2    1    2    0    0  0.00000000000E+00  0.00000000000E+00 -0.49890306165E+03  0.51432659564E+03  0.12501032779E+03 0.  0.
    9000005    1    3    3    0    0 -0.31457643664E+02  0.11291141743E+02 -0.32179657752E+02  0.46406934824E+02  0.10000000000E+01 0.  0.
    9000005    1    3    3    0    0  0.31457643664E+02 -0.11291141743E+02 -0.46672340390E+03  0.46791966081E+03  0.10000000000E+01 0.  0.
<mgrwt>
<rscale>  0 0.12501033E+03</rscale>
<asrwt>0</asrwt>
<pdfrwt beam="2">  1        4 0.77940717E-01 0.12501033E+03</pdfrwt>
<pdfrwt beam="1">  1       -4 0.11864261E-02 0.12501033E+03</pdfrwt>
<totfact> 0.54757265E+03</totfact>
</mgrwt>
</event>
<event>
 5    1  0.3316199E-002  0.1249976E+03  0.7818608E-02  0.1235073E+00
         -4   -1    0    0    0  501 -0.00000000000E+00  0.00000000000E+00  0.13680561963E+04  0.13680567858E+04  0.12700000000E+01 0. -1.
          4   -1    0    0  501    0  0.00000000000E+00 -0.00000000000E+00 -0.27133765289E+01  0.29958825390E+01  0.12700000000E+01 0. -1.
         25    2    1    2    0    0  0.00000000000E+00  0.00000000000E+00  0.13653428197E+04  0.13710526683E+04  0.12499761526E+03 0.  0.
    9000005    1    3    3    0    0 -0.37616618283E+02  0.32295990616E+02  0.26542205262E+03  0.27001464219E+03  0.10000000000E+01 0.  0.
    9000005    1    3    3    0    0  0.37616618283E+02 -0.32295990616E+02  0.10999207671E+04  0.11010380261E+04  0.10000000000E+01 0.  0.
<mgrwt>
<rscale>  0 0.12499762E+03</rscale>
<asrwt>0</asrwt>
<pdfrwt beam="2">  1        4 0.43921825E-03 0.12499762E+03</pdfrwt>
<pdfrwt beam="1">  1       -4 0.21049238E+00 0.12499762E+03</pdfrwt>
<totfact> 0.20611756E+03</totfact>
</mgrwt>
</event>
<event>
 5    1  0.3316199E-002  0.1250065E+03  0.7818608E-02  0.1235059E+00
          4   -1    0    0  501    0  0.00000000000E+00  0.00000000000E+00  0.11801076736E+04  0.11801083570E+04  0.12700000000E+01 0. -1.
         -4   -1    0    0    0  501 -0.00000000000E+00 -0.00000000000E+00 -0.31879109326E+01  0.34315705025E+01  0.12700000000E+01 0. -1.
         25    2    1    2    0    0  0.00000000000E+00  0.00000000000E+00  0.11769197627E+04  0.11835399275E+04  0.12500652848E+03 0.  0.
    9000005    1    3    3    0    0  0.59707371964E+02  0.10579783107E+02  0.73165770950E+03  0.73416681071E+03  0.10000000000E+01 0.  0.
    9000005    1    3    3    0    0 -0.59707371964E+02 -0.10579783107E+02  0.44526205315E+03  0.44937311675E+03  0.10000000000E+01 0.  0.
<mgrwt>
<rscale>  0 0.12500653E+03</rscale>
<asrwt>0</asrwt>
<pdfrwt beam="1">  1        4 0.18157409E+00 0.12500653E+03</pdfrwt>
<pdfrwt beam="2">  1       -4 0.50924268E-03 0.12500653E+03</pdfrwt>
<totfact> 0.25144072E+03</totfact>
</mgrwt>
</event>
<event>
 5    1  0.3316199E-002  0.1250030E+03  0.7818608E-02  0.1235065E+00
          4   -1    0    0  501    0  0.00000000000E+00  0.00000000000E+00  0.42357255688E+02  0.42376290652E+02  0.12700000000E+01 0. -1.
         -4   -1    0    0    0  501 -0.00000000000E+00 -0.00000000000E+00 -0.92181768970E+02  0.92190517031E+02  0.12700000000E+01 0. -1.
         25    2    1    2    0    0  0.00000000000E+00  0.00000000000E+00 -0.49824513282E+02  0.13456680768E+03  0.12500297439E+03 0.  0.
    9000005    1    3    3    0    0 -0.46452673049E+02  0.41478594160E+02 -0.19307035756E+02  0.65208022793E+02  0.10000000000E+01 0.  0.
    9000005    1    3    3    0    0  0.46452673049E+02 -0.41478594160E+02 -0.30517477526E+02  0.69358784890E+02  0.10000000000E+01 0.  0.
<mgrwt>
<rscale>  0 0.12500297E+03</rscale>
<asrwt>0</asrwt>
<pdfrwt beam="1">  1        4 0.65186380E-02 0.12500297E+03</pdfrwt>
<pdfrwt beam="2">  1       -4 0.14183948E-01 0.12500297E+03</pdfrwt>
<totfact> 0.10246522E+04</totfact>
</mgrwt>
</event>
<event>
 5    1  0.3316199E-002  0.1250002E+03  0.7818608E-02  0.1235069E+00
         -4   -1    0    0    0  501 -0.00000000000E+00  0.00000000000E+00  0.62697341851E+02  0.62710203118E+02  0.12700000000E+01 0. -1.
          4   -1    0    0  501    0  0.00000000000E+00 -0.00000000000E+00 -0.62277765210E+02  0.62290713108E+02  0.12700000000E+01 0. -1.
         25    2    1    2    0    0  0.00000000000E+00  0.00000000000E+00  0.41957664121E+00  0.12500091623E+03  0.12500021205E+03 0.  0.
    9000005    1    3    3    0    0  0.97786195722E+01  0.12153489978E+02 -0.60304472744E+02  0.62297336639E+02  0.10000000000E+01 0.  0.
    9000005    1    3    3    0    0 -0.97786195722E+01 -0.12153489978E+02  0.60724049385E+02  0.62703579588E+02  0.10000000000E+01 0.  0.
<mgrwt>
<rscale>  0 0.12500021E+03</rscale>
<asrwt>0</asrwt>
<pdfrwt beam="2">  1        4 0.95831800E-02 0.12500021E+03</pdfrwt>
<pdfrwt beam="1">  1       -4 0.96477302E-02 0.12500021E+03</pdfrwt>
<totfact> 0.10452793E+04</totfact>
</mgrwt>
</event>
<event>
 5    1  0.3316199E-002  0.1250010E+03  0.7818608E-02  0.1235068E+00
          4   -1    0    0  501    0  0.00000000000E+00  0.00000000000E+00  0.15586181009E+02  0.15637836757E+02  0.12700000000E+01 0. -1.
         -4   -1    0    0    0  501 -0.00000000000E+00 -0.00000000000E+00 -0.25015856449E+03  0.25016178822E+03  0.12700000000E+01 0. -1.
         25    2    1    2    0    0  0.00000000000E+00  0.00000000000E+00 -0.23457238348E+03  0.26579962498E+03  0.12500095019E+03 0.  0.
    9000005    1    3    3    0    0  0.14585436899E+02 -0.55418288400E+02 -0.17029186873E+03  0.17967816287E+03  0.10000000000E+01 0.  0.
    9000005    1    3    3    0    0 -0.14585436899E+02  0.55418288400E+02 -0.64280514752E+02  0.86121462107E+02  0.10000000000E+01 0.  0.
<mgrwt>
<rscale>  0 0.12500095E+03</rscale>
<asrwt>0</asrwt>
<pdfrwt beam="1">  1        4 0.24020957E-02 0.12500095E+03</pdfrwt>
<pdfrwt beam="2">  1       -4 0.38490152E-01 0.12500095E+03</pdfrwt>
<totfact> 0.80097301E+03</totfact>
</mgrwt>
</event>
<event>
 5    1  0.3316199E-002  0.1250016E+03  0.7818608E-02  0.1235067E+00
          4   -1    0    0  501    0  0.00000000000E+00  0.00000000000E+00  0.13781777026E+03  0.13782362170E+03  0.12700000000E+01 0.  1.
         -4   -1    0    0    0  501 -0.00000000000E+00 -0.00000000000E+00 -0.28323617359E+02  0.28352075767E+02  0.12700000000E+01 0.  1.
         25    2    1    2    0    0  0.00000000000E+00  0.00000000000E+00  0.10949415290E+03  0.16617569747E+03  0.12500157163E+03 0.  0.
    9000005    1    3    3    0    0 -0.15164532088E+02 -0.56026374635E+02  0.85537012306E+02  0.10337552013E+03  0.10000000000E+01 0.  0.
    9000005    1    3    3    0    0  0.15164532088E+02  0.56026374635E+02  0.23957140593E+02  0.62800177338E+02  0.10000000000E+01 0.  0.
<mgrwt>
<rscale>  0 0.12500157E+03</rscale>
<asrwt>0</asrwt>
<pdfrwt beam="1">  1        4 0.21205373E-01 0.12500157E+03</pdfrwt>
<pdfrwt beam="2">  1       -4 0.43601188E-02 0.12500157E+03</pdfrwt>
<totfact> 0.96161801E+03</totfact>
</mgrwt>
</event>
<event>
 5    1  0.3316199E-002  0.1249948E+03  0.7818608E-02  0.1235077E+00
         -4   -1    0    0    0  501 -0.00000000000E+00  0.00000000000E+00  0.48319995507E+02  0.48336682404E+02  0.12700000000E+01 0. -1.
          4   -1    0    0  501    0  0.00000000000E+00 -0.00000000000E+00 -0.80798960782E+02  0.80808941111E+02  0.12700000000E+01 0. -1.
         25    2    1    2    0    0  0.00000000000E+00  0.00000000000E+00 -0.32478965275E+02  0.12914562351E+03  0.12499483544E+03 0.  0.
    9000005    1    3    3    0    0 -0.55777576945E+02  0.26894766963E+02 -0.75666508647E+01  0.62391672402E+02  0.10000000000E+01 0.  0.
    9000005    1    3    3    0    0  0.55777576945E+02 -0.26894766963E+02 -0.24912314410E+02  0.66753951112E+02  0.10000000000E+01 0.  0.
<mgrwt>
<rscale>  0 0.12499484E+03</rscale>
<asrwt>0</asrwt>
<pdfrwt beam="2">  1        4 0.12432661E-01 0.12499484E+03</pdfrwt>
<pdfrwt beam="1">  1       -4 0.74358968E-02 0.12499484E+03</pdfrwt>
<totfact> 0.10364027E+04</totfact>
</mgrwt>
</event>
<event>
 5    1  0.3316199E-002  0.1249979E+03  0.7818608E-02  0.1235073E+00
         -4   -1    0    0    0  501 -0.00000000000E+00  0.00000000000E+00  0.87547402166E+02  0.87556613263E+02  0.12700000000E+01 0.  1.
          4   -1    0    0  501    0  0.00000000000E+00 -0.00000000000E+00 -0.44596601040E+02  0.44614680592E+02  0.12700000000E+01 0.  1.
         25    2    1    2    0    0  0.00000000000E+00  0.00000000000E+00  0.42950801126E+02  0.13217129386E+03  0.12499791839E+03 0.  0.
    9000005    1    3    3    0    0  0.32221124397E+02  0.50012450903E+02  0.41695406643E+02  0.72656403970E+02  0.10000000000E+01 0.  0.
    9000005    1    3    3    0    0 -0.32221124397E+02 -0.50012450903E+02  0.12553944831E+01  0.59514889885E+02  0.10000000000E+01 0.  0.
<mgrwt>
<rscale>  0 0.12499792E+03</rscale>
<asrwt>0</asrwt>
<pdfrwt beam="2">  1        4 0.68631149E-02 0.12499792E+03</pdfrwt>
<pdfrwt beam="1">  1       -4 0.13470930E-01 0.12499792E+03</pdfrwt>
<totfact> 0.10298527E+04</totfact>
</mgrwt>
</event>
<event>
 5    1  0.3316199E-002  0.1249999E+03  0.7818608E-02  0.1235069E+00
         -4   -1    0    0    0  501 -0.00000000000E+00  0.00000000000E+00  0.36103807656E+02  0.36126137730E+02  0.12700000000E+01 0.  1.
          4   -1    0    0  501    0  0.00000000000E+00 -0.00000000000E+00 -0.10813523503E+03  0.10814269257E+03  0.12700000000E+01 0.  1.
         25    2    1    2    0    0  0.00000000000E+00  0.00000000000E+00 -0.72031427378E+02  0.14426883030E+03  0.12499987546E+03 0.  0.
    9000005    1    3    3    0    0  0.39480416444E+02  0.16635116224E+02 -0.88524062792E+02  0.98351106082E+02  0.10000000000E+01 0.  0.
    9000005    1    3    3    0    0 -0.39480416444E+02 -0.16635116224E+02  0.16492635413E+02  0.45917724216E+02  0.10000000000E+01 0.  0.
<mgrwt>
<rscale>  0 0.12499988E+03</rscale>
<asrwt>0</asrwt>
<pdfrwt beam="2">  1        4 0.16638481E-01 0.12499988E+03</pdfrwt>
<pdfrwt beam="1">  1       -4 0.55567233E-02 0.12499988E+03</pdfrwt>
<totfact> 0.10045893E+04</totfact>
</mgrwt>
</event>
<event>
 5    1  0.3316199E-002  0.1250005E+03  0.7818608E-02  0.1235069E+00
          4   -1    0    0  501    0  0.00000000000E+00  0.00000000000E+00  0.51390643621E+03  0.51390800547E+03  0.12700000000E+01 0.  1.
         -4   -1    0    0    0  501 -0.00000000000E+00 -0.00000000000E+00 -0.75465093526E+01  0.76526272227E+01  0.12700000000E+01 0.  1.
         25    2    1    2    0    0  0.00000000000E+00  0.00000000000E+00  0.50635992686E+03  0.52156063269E+03  0.12500047216E+03 0.  0.
    9000005    1    3    3    0    0 -0.34796493264E+02 -0.42311934212E+02  0.12771527617E+03  0.13897225438E+03  0.10000000000E+01 0.  0.
    9000005    1    3    3    0    0  0.34796493264E+02  0.42311934212E+02  0.37864465069E+03  0.38258837830E+03  0.10000000000E+01 0.  0.
<mgrwt>
<rscale>  0 0.12500047E+03</rscale>
<asrwt>0</asrwt>
<pdfrwt beam="1">  1        4 0.79070783E-01 0.12500047E+03</pdfrwt>
<pdfrwt beam="2">  1       -4 0.11692855E-02 0.12500047E+03</pdfrwt>
<totfact> 0.54228940E+03</totfact>
</mgrwt>
</event>
<event>
 5    1  0.3316199E-002  0.1250018E+03  0.7818608E-02  0.1235067E+00
          4   -1    0    0  501    0  0.00000000000E+00  0.00000000000E+00  0.57402236855E+02  0.57416284240E+02  0.12700000000E+01 0.  1.
         -4   -1    0    0    0  501 -0.00000000000E+00 -0.00000000000E+00 -0.68024107351E+02  0.68035961674E+02  0.12700000000E+01 0.  1.
         25    2    1    2    0    0  0.00000000000E+00  0.00000000000E+00 -0.10621870496E+02  0.12545224591E+03  0.12500176748E+03 0.  0.
    9000005    1    3    3    0    0 -0.42343314744E+01  0.54689344668E+02  0.24738686147E+02  0.60181862513E+02  0.10000000000E+01 0.  0.
    9000005    1    3    3    0    0  0.42343314744E+01 -0.54689344668E+02 -0.35360556643E+02  0.65270383402E+02  0.10000000000E+01 0.  0.
<mgrwt>
<rscale>  0 0.12500177E+03</rscale>
<asrwt>0</asrwt>
<pdfrwt beam="1">  1        4 0.88331058E-02 0.12500177E+03</pdfrwt>
<pdfrwt beam="2">  1       -4 0.10467240E-01 0.12500177E+03</pdfrwt>
<totfact> 0.10442594E+04</totfact>
</mgrwt>
</event>
<event>
 4    1  0.3316199E-002  0.1250972E+03  0.7818608E-02  0.1234917E+00
          4   -1    0    0  501    0  0.00000000000E+00  0.00000000000E+00  0.96571288384E+02  0.96579638849E+02  0.12700000000E+01 0. -1.
         -4   -1    0    0    0  501 -0.00000000000E+00 -0.00000000000E+00 -0.40492258311E+02  0.40512169568E+02  0.12700000000E+01 0. -1.
    9000005    1    1    2    0    0  0.44038820163E+02  0.42175358631E+02  0.12809192749E+02  0.62315760253E+02  0.10000000000E+01 0.  0.
    9000005    1    1    2    0    0 -0.44038820163E+02 -0.42175358631E+02  0.43269837324E+02  0.74776048164E+02  0.10000000000E+01 0.  0.
<mgrwt>
<rscale>  0 0.12509719E+03</rscale>
<asrwt>0</asrwt>
<pdfrwt beam="1">  1        4 0.14859295E-01 0.12509719E+03</pdfrwt>
<pdfrwt beam="2">  1       -4 0.62317521E-02 0.12509719E+03</pdfrwt>
<totfact> 0.10171860E+04</totfact>
</mgrwt>
</event>
<event>
 5    1  0.3316199E-002  0.1250026E+03  0.7818608E-02  0.1235065E+00
         -4   -1    0    0    0  501 -0.00000000000E+00  0.00000000000E+00  0.44400403273E+02  0.44418562682E+02  0.12700000000E+01 0.  1.
          4   -1    0    0  501    0  0.00000000000E+00 -0.00000000000E+00 -0.87940684192E+02  0.87949854100E+02  0.12700000000E+01 0.  1.
         25    2    1    2    0    0  0.00000000000E+00  0.00000000000E+00 -0.43540280920E+02  0.13236841678E+03  0.12500256677E+03 0.  0.
    9000005    1    3    3    0    0  0.31792560919E+02 -0.50243306181E+02 -0.42145962312E+02  0.72886479439E+02  0.10000000000E+01 0.  0.
    9000005    1    3    3    0    0 -0.31792560919E+02  0.50243306181E+02 -0.13943186073E+01  0.59481937343E+02  0.10000000000E+01 0.  0.
<mgrwt>
<rscale>  0 0.12500257E+03</rscale>
<asrwt>0</asrwt>
<pdfrwt beam="2">  1        4 0.13531438E-01 0.12500257E+03</pdfrwt>
<pdfrwt beam="1">  1       -4 0.68329335E-02 0.12500257E+03</pdfrwt>
<totfact> 0.10293245E+04</totfact>
</mgrwt>
</event>
<event>
 5    1  0.3316199E-002  0.1249992E+03  0.7818608E-02  0.1235071E+00
         -4   -1    0    0    0  501 -0.00000000000E+00  0.00000000000E+00  0.29755428204E+03  0.29755699229E+03  0.12700000000E+01 0.  1.
          4   -1    0    0  501    0  0.00000000000E+00 -0.00000000000E+00 -0.13094192708E+02  0.13155636916E+02  0.12700000000E+01 0.  1.
         25    2    1    2    0    0  0.00000000000E+00  0.00000000000E+00  0.28446008933E+03  0.31071262920E+03  0.12499918210E+03 0.  0.
    9000005    1    3    3    0    0 -0.49807608147E+02  0.34380920639E+02  0.10353313832E+03  0.11992896340E+03  0.10000000000E+01 0.  0.
    9000005    1    3    3    0    0  0.49807608147E+02 -0.34380920639E+02  0.18092695101E+03  0.19078366580E+03  0.10000000000E+01 0.  0.
<mgrwt>
<rscale>  0 0.12499918E+03</rscale>
<asrwt>0</asrwt>
<pdfrwt beam="2">  1        4 0.20194262E-02 0.12499918E+03</pdfrwt>
<pdfrwt beam="1">  1       -4 0.45782515E-01 0.12499918E+03</pdfrwt>
<totfact> 0.74275767E+03</totfact>
</mgrwt>
</event>
<event>
 5    1  0.3316199E-002  0.1250090E+03  0.7818608E-02  0.1235055E+00
         -4   -1    0    0    0  501 -0.00000000000E+00  0.00000000000E+00  0.15356979814E+02  0.15409403915E+02  0.12700000000E+01 0.  1.
          4   -1    0    0  501    0  0.00000000000E+00 -0.00000000000E+00 -0.25391211858E+03  0.25391529466E+03  0.12700000000E+01 0.  1.
         25    2    1    2    0    0  0.00000000000E+00  0.00000000000E+00 -0.23855513876E+03  0.26932469857E+03  0.12500895580E+03 0.  0.
    9000005    1    3    3    0    0  0.17950661796E+02 -0.59861878875E+02 -0.12008067765E+03  0.13537370478E+03  0.10000000000E+01 0.  0.
    9000005    1    3    3    0    0 -0.17950661796E+02  0.59861878875E+02 -0.11847446111E+03  0.13395099379E+03  0.10000000000E+01 0.  0.
<mgrwt>
<rscale>  0 0.12500896E+03</rscale>
<asrwt>0</asrwt>
<pdfrwt beam="2">  1        4 0.39067677E-01 0.12500896E+03</pdfrwt>
<pdfrwt beam="1">  1       -4 0.23668894E-02 0.12500896E+03</pdfrwt>
<totfact> 0.79599165E+03</totfact>
</mgrwt>
</event>
<event>
 5    1  0.3316199E-002  0.1250003E+03  0.7818608E-02  0.1235069E+00
          4   -1    0    0  501    0  0.00000000000E+00  0.00000000000E+00  0.13742006991E+03  0.13742593829E+03  0.12700000000E+01 0.  1.
         -4   -1    0    0    0  501 -0.00000000000E+00 -0.00000000000E+00 -0.28405090650E+02  0.28433467513E+02  0.12700000000E+01 0.  1.
         25    2    1    2    0    0  0.00000000000E+00  0.00000000000E+00  0.10901497926E+03  0.16585940580E+03  0.12500030716E+03 0.  0.
    9000005    1    3    3    0    0 -0.57719786558E+02 -0.23849799220E+02  0.51575578641E+02  0.81002635731E+02  0.10000000000E+01 0.  0.
    9000005    1    3    3    0    0  0.57719786558E+02  0.23849799220E+02  0.57439400620E+02  0.84856770070E+02  0.10000000000E+01 0.  0.
<mgrwt>
<rscale>  0 0.12500031E+03</rscale>
<asrwt>0</asrwt>
<pdfrwt beam="1">  1        4 0.21144183E-01 0.12500031E+03</pdfrwt>
<pdfrwt beam="2">  1       -4 0.43726482E-02 0.12500031E+03</pdfrwt>
<totfact> 0.96224218E+03</totfact>
</mgrwt>
</event>
<event>
 5    1  0.3316199E-002  0.1250113E+03  0.7818608E-02  0.1235052E+00
          4   -1    0    0  501    0  0.00000000000E+00  0.00000000000E+00  0.13197874296E+04  0.13197880407E+04  0.12700000000E+01 0.  1.
         -4   -1    0    0    0  501 -0.00000000000E+00 -0.00000000000E+00 -0.28234412360E+01  0.30959199623E+01  0.12700000000E+01 0.  1.
         25    2    1    2    0    0  0.00000000000E+00  0.00000000000E+00  0.13169639884E+04  0.13228839606E+04  0.12501130583E+03 0.  0.
    9000005    1    3    3    0    0  0.12160960387E+02  0.47338393113E+02  0.24630296360E+03  0.25110747161E+03  0.10000000000E+01 0.  0.
    9000005    1    3    3    0    0 -0.12160960387E+02 -0.47338393113E+02  0.10706610248E+04  0.10717764890E+04  0.10000000000E+01 0.  0.
<mgrwt>
<rscale>  0 0.12501131E+03</rscale>
<asrwt>0</asrwt>
<pdfrwt beam="1">  1        4 0.20306516E+00 0.12501131E+03</pdfrwt>
<pdfrwt beam="2">  1       -4 0.45538263E-03 0.12501131E+03</pdfrwt>
<totfact> 0.21689437E+03</totfact>
</mgrwt>
</event>
<event>
 5    1  0.3316199E-002  0.1249987E+03  0.7818608E-02  0.1235071E+00
          4   -1    0    0  501    0  0.00000000000E+00  0.00000000000E+00  0.57682772433E+02  0.57696751517E+02  0.12700000000E+01 0.  1.
         -4   -1    0    0    0  501 -0.00000000000E+00 -0.00000000000E+00 -0.67690027649E+02  0.67701940468E+02  0.12700000000E+01 0.  1.
         25    2    1    2    0    0  0.00000000000E+00  0.00000000000E+00 -0.10007255216E+02  0.12539869198E+03  0.12499874717E+03 0.  0.
    9000005    1    3    3    0    0 -0.14874770591E+02 -0.60358359596E+02  0.14028308505E+01  0.62188088149E+02  0.10000000000E+01 0.  0.
    9000005    1    3    3    0    0  0.14874770591E+02  0.60358359596E+02 -0.11410086066E+02  0.63210603836E+02  0.10000000000E+01 0.  0.
<mgrwt>
<rscale>  0 0.12499875E+03</rscale>
<asrwt>0</asrwt>
<pdfrwt beam="1">  1        4 0.88762644E-02 0.12499875E+03</pdfrwt>
<pdfrwt beam="2">  1       -4 0.10415842E-01 0.12499875E+03</pdfrwt>
<totfact> 0.10444491E+04</totfact>
</mgrwt>
</event>
<event>
 5    1  0.3316199E-002  0.1250013E+03  0.7818608E-02  0.1235067E+00
          4   -1    0    0  501    0  0.00000000000E+00  0.00000000000E+00  0.72396529318E+03  0.72396640711E+03  0.12700000000E+01 0.  1.
         -4   -1    0    0    0  501 -0.00000000000E+00 -0.00000000000E+00 -0.53198777174E+01  0.54693691527E+01  0.12700000000E+01 0.  1.
         25    2    1    2    0    0  0.00000000000E+00  0.00000000000E+00  0.71864541546E+03  0.72943577627E+03  0.12500127412E+03 0.  0.
    9000005    1    3    3    0    0  0.48857814800E+02  0.92028807777E+01  0.58026513785E+03  0.58239197220E+03  0.10000000000E+01 0.  0.
    9000005    1    3    3    0    0 -0.48857814800E+02 -0.92028807777E+01  0.13838027762E+03  0.14704380407E+03  0.10000000000E+01 0.  0.
<mgrwt>
<rscale>  0 0.12500127E+03</rscale>
<asrwt>0</asrwt>
<pdfrwt beam="1">  1        4 0.11139087E+00 0.12500127E+03</pdfrwt>
<pdfrwt beam="2">  1       -4 0.83002768E-03 0.12500127E+03</pdfrwt>
<totfact> 0.41576399E+03</totfact>
</mgrwt>
</event>
<event>
 5    1  0.3316199E-002  0.1249875E+03  0.7818608E-02  0.1235089E+00
         -4   -1    0    0    0  501 -0.00000000000E+00  0.00000000000E+00  0.47670082553E+02  0.47686996871E+02  0.12700000000E+01 0. -1.
          4   -1    0    0  501    0  0.00000000000E+00 -0.00000000000E+00 -0.81890692206E+02  0.81900539498E+02  0.12700000000E+01 0. -1.
         25    2    1    2    0    0  0.00000000000E+00  0.00000000000E+00 -0.34220609654E+02  0.12958753637E+03  0.12498751720E+03 0.  0.
    9000005    1    3    3    0    0 -0.40161539366E+02  0.24030972579E+02  0.25814287470E+02  0.53458529019E+02  0.10000000000E+01 0.  0.
    9000005    1    3    3    0    0  0.40161539366E+02 -0.24030972579E+02 -0.60034897123E+02  0.76129007349E+02  0.10000000000E+01 0.  0.
<mgrwt>
<rscale>  0 0.12498752E+03</rscale>
<asrwt>0</asrwt>
<pdfrwt beam="2">  1        4 0.12600627E-01 0.12498752E+03</pdfrwt>
<pdfrwt beam="1">  1       -4 0.73359174E-02 0.12498752E+03</pdfrwt>
<totfact> 0.10356257E+04</totfact>
</mgrwt>
</event>
<event>
 5    1  0.3316199E-002  0.1249972E+03  0.7818608E-02  0.1235074E+00
          4   -1    0    0  501    0  0.00000000000E+00  0.00000000000E+00  0.17351503837E+03  0.17351968603E+03  0.12700000000E+01 0.  1.
         -4   -1    0    0    0  501 -0.00000000000E+00 -0.00000000000E+00 -0.22488596165E+02  0.22524428017E+02  0.12700000000E+01 0.  1.
         25    2    1    2    0    0  0.00000000000E+00  0.00000000000E+00  0.15102644220E+03  0.19604411404E+03  0.12499723360E+03 0.  0.
    9000005    1    3    3    0    0 -0.58963186159E+02  0.31922362957E+01  0.43438662420E+02  0.73312789385E+02  0.10000000000E+01 0.  0.
    9000005    1    3    3    0    0  0.58963186159E+02 -0.31922362957E+01  0.10758777978E+03  0.12273132466E+03  0.10000000000E+01 0.  0.
<mgrwt>
<rscale>  0 0.12499723E+03</rscale>
<asrwt>0</asrwt>
<pdfrwt beam="1">  1        4 0.26697734E-01 0.12499723E+03</pdfrwt>
<pdfrwt beam="2">  1       -4 0.34628979E-02 0.12499723E+03</pdfrwt>
<totfact> 0.90811788E+03</totfact>
</mgrwt>
</event>
<event>
 5    1  0.3316199E-002  0.1249982E+03  0.7818608E-02  0.1235072E+00
         -4   -1    0    0    0  501 -0.00000000000E+00  0.00000000000E+00  0.11171499095E+03  0.11172220953E+03  0.12700000000E+01 0.  1.
          4   -1    0    0  501    0  0.00000000000E+00 -0.00000000000E+00 -0.34945305547E+02  0.34968375424E+02  0.12700000000E+01 0.  1.
         25    2    1    2    0    0  0.00000000000E+00  0.00000000000E+00  0.76769685400E+02  0.14669058495E+03  0.12499817246E+03 0.  0.
    9000005    1    3    3    0    0  0.50207594398E+02  0.36190736979E+02  0.48518415610E+02  0.78648640368E+02  0.10000000000E+01 0.  0.
    9000005    1    3    3    0    0 -0.50207594398E+02 -0.36190736979E+02  0.28251269790E+02  0.68041944586E+02  0.10000000000E+01 0.  0.
<mgrwt>
<rscale>  0 0.12499817E+03</rscale>
<asrwt>0</asrwt>
<pdfrwt beam="2">  1        4 0.53785307E-02 0.12499817E+03</pdfrwt>
<pdfrwt beam="1">  1       -4 0.17189252E-01 0.12499817E+03</pdfrwt>
<totfact> 0.99971633E+03</totfact>
</mgrwt>
</event>
<event>
 5    1  0.3316199E-002  0.1250038E+03  0.7818608E-02  0.1235063E+00
          4   -1    0    0  501    0  0.00000000000E+00  0.00000000000E+00  0.18109055992E+01  0.22118496986E+01  0.12700000000E+01 0.  1.
         -4   -1    0    0    0  501 -0.00000000000E+00 -0.00000000000E+00 -0.19417925604E+04  0.19417929757E+04  0.12700000000E+01 0.  1.
         25    2    1    2    0    0  0.00000000000E+00  0.00000000000E+00 -0.19399816548E+04  0.19440048254E+04  0.12500376097E+03 0.  0.
    9000005    1    3    3    0    0 -0.18983293407E+02 -0.52965721100E+02 -0.54701325547E+03  0.54990020431E+03  0.10000000000E+01 0.  0.
    9000005    1    3    3    0    0  0.18983293407E+02  0.52965721100E+02 -0.13929683993E+04  0.13941046211E+04  0.10000000000E+01 0.  0.
<mgrwt>
<rscale>  0 0.12500376E+03</rscale>
<asrwt>0</asrwt>
<pdfrwt beam="1">  1        4 0.30947622E-03 0.12500376E+03</pdfrwt>
<pdfrwt beam="2">  1       -4 0.29876669E+00 0.12500376E+03</pdfrwt>
<totfact> 0.10609131E+03</totfact>
</mgrwt>
</event>
<event>
 5    1  0.3316199E-002  0.1249998E+03  0.7818608E-02  0.1235070E+00
          4   -1    0    0  501    0  0.00000000000E+00  0.00000000000E+00  0.26736567082E+02  0.26766712897E+02  0.12700000000E+01 0. -1.
         -4   -1    0    0    0  501 -0.00000000000E+00 -0.00000000000E+00 -0.14598562006E+03  0.14599114413E+03  0.12700000000E+01 0. -1.
         25    2    1    2    0    0  0.00000000000E+00  0.00000000000E+00 -0.11924905297E+03  0.17275785702E+03  0.12499976211E+03 0.  0.
    9000005    1    3    3    0    0 -0.59702818848E-01 -0.55340832339E+02 -0.99743101039E+02  0.11407145784E+03  0.10000000000E+01 0.  0.
    9000005    1    3    3    0    0  0.59702818848E-01  0.55340832339E+02 -0.19505951936E+02  0.58686399185E+02  0.10000000000E+01 0.  0.
<mgrwt>
<rscale>  0 0.12499976E+03</rscale>
<asrwt>0</asrwt>
<pdfrwt beam="1">  1        4 0.41160619E-02 0.12499976E+03</pdfrwt>
<pdfrwt beam="2">  1       -4 0.22462070E-01 0.12499976E+03</pdfrwt>
<totfact> 0.94937602E+03</totfact>
</mgrwt>
</event>
<event>
 5    1  0.3316199E-002  0.1250148E+03  0.7818608E-02  0.1235046E+00
          4   -1    0    0  501    0  0.00000000000E+00  0.00000000000E+00  0.50280383153E+03  0.50280543543E+03  0.12700000000E+01 0. -1.
         -4   -1    0    0    0  501 -0.00000000000E+00 -0.00000000000E+00 -0.77172603268E+01  0.78210617535E+01  0.12700000000E+01 0. -1.
         25    2    1    2    0    0  0.00000000000E+00  0.00000000000E+00  0.49508657120E+03  0.51062649719E+03  0.12501482569E+03 0.  0.
    9000005    1    3    3    0    0  0.20356279702E+02 -0.21050867003E+02  0.22017455081E+02  0.36650858832E+02  0.10000000000E+01 0.  0.
    9000005    1    3    3    0    0 -0.20356279702E+02  0.21050867003E+02  0.47306911612E+03  0.47397563835E+03  0.10000000000E+01 0.  0.
<mgrwt>
<rscale>  0 0.12501483E+03</rscale>
<asrwt>0</asrwt>
<pdfrwt beam="1">  1        4 0.77362520E-01 0.12501483E+03</pdfrwt>
<pdfrwt beam="2">  1       -4 0.11953793E-02 0.12501483E+03</pdfrwt>
<totfact> 0.55031280E+03</totfact>
</mgrwt>
</event>
<event>
 5    1  0.3316199E-002  0.1250046E+03  0.7818608E-02  0.1235062E+00
         -4   -1    0    0    0  501 -0.00000000000E+00  0.00000000000E+00  0.24343780319E+02  0.24376885367E+02  0.12700000000E+01 0.  1.
          4   -1    0    0  501    0  0.00000000000E+00 -0.00000000000E+00 -0.16032907389E+03  0.16033410378E+03  0.12700000000E+01 0.  1.
         25    2    1    2    0    0  0.00000000000E+00  0.00000000000E+00 -0.13598529357E+03  0.18471098915E+03  0.12500459769E+03 0.  0.
    9000005    1    3    3    0    0 -0.11730486022E+02 -0.54702735787E+01 -0.15833407005E+03  0.15886537046E+03  0.10000000000E+01 0.  0.
    9000005    1    3    3    0    0  0.11730486022E+02  0.54702735787E+01  0.22348776473E+02  0.25845618684E+02  0.10000000000E+01 0.  0.
<mgrwt>
<rscale>  0 0.12500460E+03</rscale>
<asrwt>0</asrwt>
<pdfrwt beam="2">  1        4 0.24668944E-01 0.12500460E+03</pdfrwt>
<pdfrwt beam="1">  1       -4 0.37481305E-02 0.12500460E+03</pdfrwt>
<totfact> 0.92766259E+03</totfact>
</mgrwt>
</event>
<event>
 5    1  0.3316199E-002  0.1249985E+03  0.7818608E-02  0.1235072E+00
         -4   -1    0    0    0  501 -0.00000000000E+00  0.00000000000E+00  0.40784886163E+02  0.40804654628E+02  0.12700000000E+01 0. -1.
          4   -1    0    0  501    0  0.00000000000E+00 -0.00000000000E+00 -0.95727356106E+02  0.95735780182E+02  0.12700000000E+01 0. -1.
         25    2    1    2    0    0  0.00000000000E+00  0.00000000000E+00 -0.54942469943E+02  0.13654043481E+03  0.12499846133E+03 0.  0.
    9000005    1    3    3    0    0  0.62369802725E+02  0.38438963615E+01 -0.28149894105E+02  0.68543302877E+02  0.10000000000E+01 0.  0.
    9000005    1    3    3    0    0 -0.62369802725E+02 -0.38438963615E+01 -0.26792575838E+02  0.67997131933E+02  0.10000000000E+01 0.  0.
<mgrwt>
<rscale>  0 0.12499846E+03</rscale>
<asrwt>0</asrwt>
<pdfrwt beam="2">  1        4 0.14729454E-01 0.12499846E+03</pdfrwt>
<pdfrwt beam="1">  1       -4 0.62767666E-02 0.12499846E+03</pdfrwt>
<totfact> 0.10206058E+04</totfact>
</mgrwt>
</event>
<event>
 5    1  0.3316199E-002  0.1249977E+03  0.7818608E-02  0.1235073E+00
          4   -1    0    0  501    0  0.00000000000E+00  0.00000000000E+00  0.58531064407E+02  0.58544840940E+02  0.12700000000E+01 0. -1.
         -4   -1    0    0    0  501 -0.00000000000E+00 -0.00000000000E+00 -0.66707913852E+02  0.66720002027E+02  0.12700000000E+01 0. -1.
         25    2    1    2    0    0  0.00000000000E+00  0.00000000000E+00 -0.81768494452E+01  0.12526484297E+03  0.12499768005E+03 0.  0.
    9000005    1    3    3    0    0  0.54615986933E+02 -0.26754266171E+02 -0.18486045720E+02  0.63572247667E+02  0.10000000000E+01 0.  0.
    9000005    1    3    3    0    0 -0.54615986933E+02  0.26754266171E+02  0.10309196275E+02  0.61692595300E+02  0.10000000000E+01 0.  0.
<mgrwt>
<rscale>  0 0.12499768E+03</rscale>
<asrwt>0</asrwt>
<pdfrwt beam="1">  1        4 0.90067688E-02 0.12499768E+03</pdfrwt>
<pdfrwt beam="2">  1       -4 0.10264746E-01 0.12499768E+03</pdfrwt>
<totfact> 0.10447661E+04</totfact>
</mgrwt>
</event>
<event>
 5    1  0.3316199E-002  0.1249990E+03  0.7818608E-02  0.1235071E+00
         -4   -1    0    0    0  501 -0.00000000000E+00  0.00000000000E+00  0.13634506630E+03  0.13635098094E+03  0.12700000000E+01 0. -1.
          4   -1    0    0  501    0  0.00000000000E+00 -0.00000000000E+00 -0.28628674425E+02  0.28656829889E+02  0.12700000000E+01 0. -1.
         25    2    1    2    0    0  0.00000000000E+00  0.00000000000E+00  0.10771639187E+03  0.16500781083E+03  0.12499902622E+03 0.  0.
    9000005    1    3    3    0    0  0.26321042030E+02 -0.49888008088E+02  0.18349010478E+02  0.59323661301E+02  0.10000000000E+01 0.  0.
    9000005    1    3    3    0    0 -0.26321042030E+02  0.49888008088E+02  0.89367381394E+02  0.10568414953E+03  0.10000000000E+01 0.  0.
<mgrwt>
<rscale>  0 0.12499903E+03</rscale>
<asrwt>0</asrwt>
<pdfrwt beam="2">  1        4 0.44070321E-02 0.12499903E+03</pdfrwt>
<pdfrwt beam="1">  1       -4 0.20978785E-01 0.12499903E+03</pdfrwt>
<totfact> 0.96388021E+03</totfact>
</mgrwt>
</event>
<event>
 5    1  0.3316199E-002  0.1249992E+03  0.7818608E-02  0.1235070E+00
          4   -1    0    0  501    0  0.00000000000E+00  0.00000000000E+00  0.60112899604E+02  0.60126313698E+02  0.12700000000E+01 0.  1.
         -4   -1    0    0    0  501 -0.00000000000E+00 -0.00000000000E+00 -0.64954224277E+02  0.64966638758E+02  0.12700000000E+01 0.  1.
         25    2    1    2    0    0  0.00000000000E+00  0.00000000000E+00 -0.48413246728E+01  0.12509295246E+03  0.12499923331E+03 0.  0.
    9000005    1    3    3    0    0  0.24597923916E+02 -0.23662696295E+02  0.49965705829E+02  0.60519028544E+02  0.10000000000E+01 0.  0.
    9000005    1    3    3    0    0 -0.24597923916E+02  0.23662696295E+02 -0.54807030502E+02  0.64573923911E+02  0.10000000000E+01 0.  0.
<mgrwt>
<rscale>  0 0.12499923E+03</rscale>
<asrwt>0</asrwt>
<pdfrwt beam="1">  1        4 0.92501252E-02 0.12499923E+03</pdfrwt>
<pdfrwt beam="2">  1       -4 0.99949444E-02 0.12499923E+03</pdfrwt>
<totfact> 0.10451025E+04</totfact>
</mgrwt>
</event>
<event>
 5    1  0.3316199E-002  0.1249969E+03  0.7818608E-02  0.1235074E+00
         -4   -1    0    0    0  501 -0.00000000000E+00  0.00000000000E+00  0.27194404782E+03  0.27194701330E+03  0.12700000000E+01 0.  1.
          4   -1    0    0  501    0  0.00000000000E+00 -0.00000000000E+00 -0.14332325447E+02  0.14388483336E+02  0.12700000000E+01 0.  1.
         25    2    1    2    0    0  0.00000000000E+00  0.00000000000E+00  0.25761172237E+03  0.28633549664E+03  0.12499686849E+03 0.  0.
    9000005    1    3    3    0    0  0.30068896670E+02  0.47033414046E+02  0.64470126035E+02  0.85285858938E+02  0.10000000000E+01 0.  0.
    9000005    1    3    3    0    0 -0.30068896670E+02 -0.47033414046E+02  0.19314159633E+03  0.20104963770E+03  0.10000000000E+01 0.  0.
<mgrwt>
<rscale>  0 0.12499687E+03</rscale>
<asrwt>0</asrwt>
<pdfrwt beam="2">  1        4 0.22095211E-02 0.12499687E+03</pdfrwt>
<pdfrwt beam="1">  1       -4 0.41842093E-01 0.12499687E+03</pdfrwt>
<totfact> 0.77350875E+03</totfact>
</mgrwt>
</event>
<event>
 5    1  0.3316199E-002  0.1249978E+03  0.7818608E-02  0.1235073E+00
          4   -1    0    0  501    0  0.00000000000E+00  0.00000000000E+00  0.53310372615E+03  0.53310523889E+03  0.12700000000E+01 0.  1.
         -4   -1    0    0    0  501 -0.00000000000E+00 -0.00000000000E+00 -0.72705518047E+01  0.73806384239E+01  0.12700000000E+01 0.  1.
         25    2    1    2    0    0  0.00000000000E+00  0.00000000000E+00  0.52583317434E+03  0.54048587731E+03  0.12499782533E+03 0.  0.
    9000005    1    3    3    0    0 -0.60101380604E+02 -0.31062712856E+00  0.33691089493E+03  0.34223124282E+03  0.10000000000E+01 0.  0.
    9000005    1    3    3    0    0  0.60101380604E+02  0.31062712856E+00  0.18892227941E+03  0.19825463449E+03  0.10000000000E+01 0.  0.
<mgrwt>
<rscale>  0 0.12499783E+03</rscale>
<asrwt>0</asrwt>
<pdfrwt beam="1">  1        4 0.82024565E-01 0.12499783E+03</pdfrwt>
<pdfrwt beam="2">  1       -4 0.11271307E-02 0.12499783E+03</pdfrwt>
<totfact> 0.52857037E+03</totfact>
</mgrwt>
</event>
<event>
 5    1  0.3316199E-002  0.1249829E+03  0.7818608E-02  0.1235096E+00
         -4   -1    0    0    0  501 -0.00000000000E+00  0.00000000000E+00  0.95894661005E+01  0.96731980282E+01  0.12700000000E+01 0.  1.
          4   -1    0    0  501    0  0.00000000000E+00 -0.00000000000E+00 -0.40538188825E+03  0.40538387761E+03  0.12700000000E+01 0.  1.
         25    2    1    2    0    0  0.00000000000E+00  0.00000000000E+00 -0.39579242215E+03  0.41505707564E+03  0.12498293724E+03 0.  0.
    9000005    1    3    3    0    0 -0.11624120803E+01 -0.49936764564E+02 -0.73233658663E+02  0.88652131493E+02  0.10000000000E+01 0.  0.
    9000005    1    3    3    0    0  0.11624120803E+01  0.49936764564E+02 -0.32255876349E+03  0.32640494414E+03  0.10000000000E+01 0.  0.
<mgrwt>
<rscale>  0 0.12498294E+03</rscale>
<asrwt>0</asrwt>
<pdfrwt beam="2">  1        4 0.62373025E-01 0.12498294E+03</pdfrwt>
<pdfrwt beam="1">  1       -4 0.14818967E-02 0.12498294E+03</pdfrwt>
<totfact> 0.63138006E+03</totfact>
</mgrwt>
</event>
<event>
 5    1  0.3316199E-002  0.1250000E+03  0.7818608E-02  0.1235069E+00
          4   -1    0    0  501    0  0.00000000000E+00  0.00000000000E+00  0.53349672771E+02  0.53364786937E+02  0.12700000000E+01 0.  1.
         -4   -1    0    0    0  501 -0.00000000000E+00 -0.00000000000E+00 -0.73188788252E+02  0.73199806187E+02  0.12700000000E+01 0.  1.
         25    2    1    2    0    0  0.00000000000E+00  0.00000000000E+00 -0.19839115481E+02  0.12656459312E+03  0.12500002292E+03 0.  0.
    9000005    1    3    3    0    0 -0.46853511166E+02  0.41202425698E+02 -0.13479246927E+02  0.63840281091E+02  0.10000000000E+01 0.  0.
    9000005    1    3    3    0    0  0.46853511166E+02 -0.41202425698E+02 -0.63598685534E+01  0.62724312033E+02  0.10000000000E+01 0.  0.
<mgrwt>
<rscale>  0 0.12500002E+03</rscale>
<asrwt>0</asrwt>
<pdfrwt beam="1">  1        4 0.82096521E-02 0.12500002E+03</pdfrwt>
<pdfrwt beam="2">  1       -4 0.11261824E-01 0.12500002E+03</pdfrwt>
<totfact> 0.10418614E+04</totfact>
</mgrwt>
</event>
<event>
 5    1  0.3316199E-002  0.1250001E+03  0.7818608E-02  0.1235069E+00
          4   -1    0    0  501    0  0.00000000000E+00  0.00000000000E+00  0.35518526702E+02  0.35541224502E+02  0.12700000000E+01 0.  1.
         -4   -1    0    0    0  501 -0.00000000000E+00 -0.00000000000E+00 -0.10991649393E+03  0.10992383062E+03  0.12700000000E+01 0.  1.
         25    2    1    2    0    0  0.00000000000E+00  0.00000000000E+00 -0.74397967229E+02  0.14546505512E+03  0.12500009893E+03 0.  0.
    9000005    1    3    3    0    0  0.30147062651E+02 -0.32881806687E+02  0.13728839392E+02  0.46685539823E+02  0.10000000000E+01 0.  0.
    9000005    1    3    3    0    0 -0.30147062651E+02  0.32881806687E+02 -0.88126806621E+02  0.98779515299E+02  0.10000000000E+01 0.  0.
<mgrwt>
<rscale>  0 0.12500010E+03</rscale>
<asrwt>0</asrwt>
<pdfrwt beam="1">  1        4 0.54666991E-02 0.12500010E+03</pdfrwt>
<pdfrwt beam="2">  1       -4 0.16912540E-01 0.12500010E+03</pdfrwt>
<totfact> 0.10021526E+04</totfact>
</mgrwt>
</event>
<event>
 5    1  0.3316199E-002  0.1249999E+03  0.7818608E-02  0.1235069E+00
         -4   -1    0    0    0  501 -0.00000000000E+00  0.00000000000E+00  0.15874066881E+02  0.15924788832E+02  0.12700000000E+01 0.  1.
          4   -1    0    0  501    0  0.00000000000E+00 -0.00000000000E+00 -0.24563211329E+03  0.24563539642E+03  0.12700000000E+01 0.  1.
         25    2    1    2    0    0  0.00000000000E+00  0.00000000000E+00 -0.22975804640E+03  0.26156018526E+03  0.12499988250E+03 0.  0.
    9000005    1    3    3    0    0 -0.42571589648E+02  0.39115888186E+02 -0.16452204986E+03  0.17438720665E+03  0.10000000000E+01 0.  0.
    9000005    1    3    3    0    0  0.42571589648E+02 -0.39115888186E+02 -0.65235996542E+02  0.87172978604E+02  0.10000000000E+01 0.  0.
<mgrwt>
<rscale>  0 0.12499988E+03</rscale>
<asrwt>0</asrwt>
<pdfrwt beam="2">  1        4 0.37793707E-01 0.12499988E+03</pdfrwt>
<pdfrwt beam="1">  1       -4 0.24463186E-02 0.12499988E+03</pdfrwt>
<totfact> 0.80687821E+03</totfact>
</mgrwt>
</event>
<event>
 5    1  0.3316199E-002  0.1249999E+03  0.7818608E-02  0.1235069E+00
         -4   -1    0    0    0  501 -0.00000000000E+00  0.00000000000E+00  0.58060378155E+02  0.58074266344E+02  0.12700000000E+01 0.  1.
          4   -1    0    0  501    0  0.00000000000E+00 -0.00000000000E+00 -0.67251094298E+02  0.67263084856E+02  0.12700000000E+01 0.  1.
         25    2    1    2    0    0  0.00000000000E+00  0.00000000000E+00 -0.91907161437E+01  0.12533735120E+03  0.12499992937E+03 0.  0.
    9000005    1    3    3    0    0 -0.44315087871E+02  0.41564081937E+02  0.10067578992E+02  0.61593474225E+02  0.10000000000E+01 0.  0.
    9000005    1    3    3    0    0  0.44315087871E+02 -0.41564081937E+02 -0.19258295136E+02  0.63743876975E+02  0.10000000000E+01 0.  0.
<mgrwt>
<rscale>  0 0.12499993E+03</rscale>
<asrwt>0</asrwt>
<pdfrwt beam="2">  1        4 0.10348313E-01 0.12499993E+03</pdfrwt>
<pdfrwt beam="1">  1       -4 0.89343566E-02 0.12499993E+03</pdfrwt>
<totfact> 0.10445556E+04</totfact>
</mgrwt>
</event>
<event>
 5    1  0.3316199E-002  0.1250003E+03  0.7818608E-02  0.1235069E+00
         -4   -1    0    0    0  501 -0.00000000000E+00  0.00000000000E+00  0.10261355199E+03  0.10262141078E+03  0.12700000000E+01 0. -1.
          4   -1    0    0  501    0  0.00000000000E+00 -0.00000000000E+00 -0.38047836480E+02  0.38069026265E+02  0.12700000000E+01 0. -1.
         25    2    1    2    0    0  0.00000000000E+00  0.00000000000E+00  0.64565715507E+02  0.14069043705E+03  0.12500026983E+03 0.  0.
    9000005    1    3    3    0    0 -0.26499874681E+02 -0.33069323435E+02 -0.19410835571E+02  0.46621926688E+02  0.10000000000E+01 0.  0.
    9000005    1    3    3    0    0  0.26499874681E+02  0.33069323435E+02  0.83976551078E+02  0.94068510361E+02  0.10000000000E+01 0.  0.
<mgrwt>
<rscale>  0 0.12500027E+03</rscale>
<asrwt>0</asrwt>
<pdfrwt beam="2">  1        4 0.58557478E-02 0.12500027E+03</pdfrwt>
<pdfrwt beam="1">  1       -4 0.15788935E-01 0.12500027E+03</pdfrwt>
<totfact> 0.10119235E+04</totfact>
</mgrwt>
</event>
<event>
 5    1  0.3316199E-002  0.1249906E+03  0.7818608E-02  0.1235084E+00
          4   -1    0    0  501    0  0.00000000000E+00  0.00000000000E+00  0.69029720171E+02  0.69041401832E+02  0.12700000000E+01 0. -1.
         -4   -1    0    0    0  501 -0.00000000000E+00 -0.00000000000E+00 -0.56555803837E+02  0.56570061408E+02  0.12700000000E+01 0. -1.
         25    2    1    2    0    0  0.00000000000E+00  0.00000000000E+00  0.12473916334E+02  0.12561146324E+03  0.12499056408E+03 0.  0.
    9000005    1    3    3    0    0 -0.61012745330E+02  0.76117906665E+01  0.17435283743E+02  0.63917787580E+02  0.10000000000E+01 0.  0.
    9000005    1    3    3    0    0  0.61012745330E+02 -0.76117906665E+01 -0.49613674089E+01  0.61693675660E+02  0.10000000000E+01 0.  0.
<mgrwt>
<rscale>  0 0.12499056E+03</rscale>
<asrwt>0</asrwt>
<pdfrwt beam="1">  1        4 0.10621952E-01 0.12499056E+03</pdfrwt>
<pdfrwt beam="2">  1       -4 0.87028883E-02 0.12499056E+03</pdfrwt>
<totfact> 0.10441717E+04</totfact>
</mgrwt>
</event>
<event>
 5    1  0.3316199E-002  0.1250003E+03  0.7818608E-02  0.1235069E+00
         -4   -1    0    0    0  501 -0.00000000000E+00  0.00000000000E+00  0.11290418910E+02  0.11361622206E+02  0.12700000000E+01 0.  1.
          4   -1    0    0  501    0  0.00000000000E+00 -0.00000000000E+00 -0.34482111280E+03  0.34482345154E+03  0.12700000000E+01 0.  1.
         25    2    1    2    0    0  0.00000000000E+00  0.00000000000E+00 -0.33353069389E+03  0.35618507375E+03  0.12500033197E+03 0.  0.
    9000005    1    3    3    0    0 -0.45337425292E+01  0.98435630682E+01 -0.34213693193E+03  0.34230999218E+03  0.10000000000E+01 0.  0.
    9000005    1    3    3    0    0  0.45337425292E+01 -0.98435630682E+01  0.86062380427E+01  0.13875081565E+02  0.10000000000E+01 0.  0.
<mgrwt>
<rscale>  0 0.12500033E+03</rscale>
<asrwt>0</asrwt>
<pdfrwt beam="2">  1        4 0.53055051E-01 0.12500033E+03</pdfrwt>
<pdfrwt beam="1">  1       -4 0.17426449E-02 0.12500033E+03</pdfrwt>
<totfact> 0.69048936E+03</totfact>
</mgrwt>
</event>
<event>
 5    1  0.3316199E-002  0.1250029E+03  0.7818608E-02  0.1235065E+00
          4   -1    0    0  501    0  0.00000000000E+00  0.00000000000E+00  0.57534686848E+02  0.57548701903E+02  0.12700000000E+01 0. -1.
         -4   -1    0    0    0  501 -0.00000000000E+00 -0.00000000000E+00 -0.67868792928E+02  0.67880674374E+02  0.12700000000E+01 0. -1.
         25    2    1    2    0    0  0.00000000000E+00  0.00000000000E+00 -0.10334106080E+02  0.12542937628E+03  0.12500293870E+03 0.  0.
    9000005    1    3    3    0    0  0.58852194610E+02  0.20889184385E+02 -0.75191565502E+01  0.62908477567E+02  0.10000000000E+01 0.  0.
    9000005    1    3    3    0    0 -0.58852194610E+02 -0.20889184385E+02 -0.28149495298E+01  0.62520898710E+02  0.10000000000E+01 0.  0.
<mgrwt>
<rscale>  0 0.12500294E+03</rscale>
<asrwt>0</asrwt>
<pdfrwt beam="1">  1        4 0.88534823E-02 0.12500294E+03</pdfrwt>
<pdfrwt beam="2">  1       -4 0.10443345E-01 0.12500294E+03</pdfrwt>
<totfact> 0.10442824E+04</totfact>
</mgrwt>
</event>
<event>
 5    1  0.3316199E-002  0.1249996E+03  0.7818608E-02  0.1235070E+00
          4   -1    0    0  501    0  0.00000000000E+00  0.00000000000E+00  0.23159650327E+02  0.23194445526E+02  0.12700000000E+01 0. -1.
         -4   -1    0    0    0  501 -0.00000000000E+00 -0.00000000000E+00 -0.16850134908E+03  0.16850613503E+03  0.12700000000E+01 0. -1.
         25    2    1    2    0    0  0.00000000000E+00  0.00000000000E+00 -0.14534169875E+03  0.19170058055E+03  0.12499961275E+03 0.  0.
    9000005    1    3    3    0    0 -0.26718434484E+02  0.22086883772E+02  0.70697698375E+01  0.35393316059E+02  0.10000000000E+01 0.  0.
    9000005    1    3    3    0    0  0.26718434484E+02 -0.22086883772E+02 -0.15241146859E+03  0.15630726450E+03  0.10000000000E+01 0.  0.
<mgrwt>
<rscale>  0 0.12499961E+03</rscale>
<asrwt>0</asrwt>
<pdfrwt beam="1">  1        4 0.35660679E-02 0.12499961E+03</pdfrwt>
<pdfrwt beam="2">  1       -4 0.25926328E-01 0.12499961E+03</pdfrwt>
<totfact> 0.91553053E+03</totfact>
</mgrwt>
</event>
<event>
 5    1  0.3316199E-002  0.1249915E+03  0.7818608E-02  0.1235083E+00
          4   -1    0    0  501    0  0.00000000000E+00  0.00000000000E+00  0.11435573620E+03  0.11436278810E+03  0.12700000000E+01 0. -1.
         -4   -1    0    0    0  501 -0.00000000000E+00 -0.00000000000E+00 -0.34134183942E+02  0.34157801648E+02  0.12700000000E+01 0. -1.
         25    2    1    2    0    0  0.00000000000E+00  0.00000000000E+00  0.80221552258E+02  0.14852058975E+03  0.12499147224E+03 0.  0.
    9000005    1    3    3    0    0 -0.20273365507E+01 -0.43701357414E+02 -0.12906805305E+02  0.45623506622E+02  0.10000000000E+01 0.  0.
    9000005    1    3    3    0    0  0.20273365507E+01  0.43701357414E+02  0.93128357563E+02  0.10289708313E+03  0.10000000000E+01 0.  0.
<mgrwt>
<rscale>  0 0.12499147E+03</rscale>
<asrwt>0</asrwt>
<pdfrwt beam="1">  1        4 0.17595550E-01 0.12499147E+03</pdfrwt>
<pdfrwt beam="2">  1       -4 0.52537721E-02 0.12499147E+03</pdfrwt>
<totfact> 0.99618538E+03</totfact>
</mgrwt>
</event>
<event>
 5    1  0.3316199E-002  0.1249953E+03  0.7818608E-02  0.1235077E+00
          4   -1    0    0  501    0  0.00000000000E+00  0.00000000000E+00  0.19939778995E+03  0.19940183434E+03  0.12700000000E+01 0. -1.
         -4   -1    0    0    0  501 -0.00000000000E+00 -0.00000000000E+00 -0.19563944998E+02  0.19605122899E+02  0.12700000000E+01 0. -1.
         25    2    1    2    0    0  0.00000000000E+00  0.00000000000E+00  0.17983384495E+03  0.21900695723E+03  0.12499534202E+03 0.  0.
    9000005    1    3    3    0    0  0.36367680743E+01 -0.61831075455E+02  0.10443426838E+03  0.12142415075E+03  0.10000000000E+01 0.  0.
    9000005    1    3    3    0    0 -0.36367680743E+01  0.61831075455E+02  0.75399576568E+02  0.97582806480E+02  0.10000000000E+01 0.  0.
<mgrwt>
<rscale>  0 0.12499534E+03</rscale>
<asrwt>0</asrwt>
<pdfrwt beam="1">  1        4 0.30680060E-01 0.12499534E+03</pdfrwt>
<pdfrwt beam="2">  1       -4 0.30133165E-02 0.12499534E+03</pdfrwt>
<totfact> 0.87034786E+03</totfact>
</mgrwt>
</event>
<event>
 5    1  0.3316199E-002  0.1250038E+03  0.7818608E-02  0.1235063E+00
         -4   -1    0    0    0  501 -0.00000000000E+00  0.00000000000E+00  0.40148285777E+02  0.40168367540E+02  0.12700000000E+01 0. -1.
          4   -1    0    0  501    0  0.00000000000E+00 -0.00000000000E+00 -0.97252946474E+02  0.97261238414E+02  0.12700000000E+01 0. -1.
         25    2    1    2    0    0  0.00000000000E+00  0.00000000000E+00 -0.57104660696E+02  0.13742960595E+03  0.12500381722E+03 0.  0.
    9000005    1    3    3    0    0 -0.57837096703E+02 -0.17668640250E+02 -0.11232698919E+02  0.61518160963E+02  0.10000000000E+01 0.  0.
    9000005    1    3    3    0    0  0.57837096703E+02  0.17668640250E+02 -0.45871961777E+02  0.75911444991E+02  0.10000000000E+01 0.  0.
<mgrwt>
<rscale>  0 0.12500382E+03</rscale>
<asrwt>0</asrwt>
<pdfrwt beam="2">  1        4 0.14964174E-01 0.12500382E+03</pdfrwt>
<pdfrwt beam="1">  1       -4 0.61788420E-02 0.12500382E+03</pdfrwt>
<totfact> 0.10186234E+04</totfact>
</mgrwt>
</event>
<event>
 5    1  0.3316199E-002  0.1249921E+03  0.7818608E-02  0.1235082E+00
          4   -1    0    0  501    0  0.00000000000E+00  0.00000000000E+00  0.14870568453E+03  0.14871110756E+03  0.12700000000E+01 0. -1.
         -4   -1    0    0    0  501 -0.00000000000E+00 -0.00000000000E+00 -0.26243750358E+02  0.26274461609E+02  0.12700000000E+01 0. -1.
         25    2    1    2    0    0  0.00000000000E+00  0.00000000000E+00  0.12246193417E+03  0.17498556917E+03  0.12499209614E+03 0.  0.
    9000005    1    3    3    0    0 -0.12352978716E+02 -0.39634583504E+02 -0.41533171830E+01  0.41734234584E+02  0.10000000000E+01 0.  0.
    9000005    1    3    3    0    0  0.12352978716E+02  0.39634583504E+02  0.12661525136E+03  0.13325133459E+03  0.10000000000E+01 0.  0.
<mgrwt>
<rscale>  0 0.12499210E+03</rscale>
<asrwt>0</asrwt>
<pdfrwt beam="1">  1        4 0.22880577E-01 0.12499210E+03</pdfrwt>
<pdfrwt beam="2">  1       -4 0.40402797E-02 0.12499210E+03</pdfrwt>
<totfact> 0.94544246E+03</totfact>
</mgrwt>
</event>
<event>
 5    1  0.3316199E-002  0.1249995E+03  0.7818608E-02  0.1235070E+00
          4   -1    0    0  501    0  0.00000000000E+00  0.00000000000E+00  0.10710877513E+04  0.10710885042E+04  0.12700000000E+01 0. -1.
         -4   -1    0    0    0  501 -0.00000000000E+00 -0.00000000000E+00 -0.35356251486E+01  0.37567998605E+01  0.12700000000E+01 0. -1.
         25    2    1    2    0    0  0.00000000000E+00  0.00000000000E+00  0.10675521261E+04  0.10748453041E+04  0.12499954266E+03 0.  0.
    9000005    1    3    3    0    0  0.61067492890E+02  0.11131641462E+02  0.59582414408E+03  0.59904971646E+03  0.10000000000E+01 0.  0.
    9000005    1    3    3    0    0 -0.61067492890E+02 -0.11131641462E+02  0.47172798205E+03  0.47579558760E+03  0.10000000000E+01 0.  0.
<mgrwt>
<rscale>  0 0.12499954E+03</rscale>
<asrwt>0</asrwt>
<pdfrwt beam="1">  1        4 0.16479992E+00 0.12499954E+03</pdfrwt>
<pdfrwt beam="2">  1       -4 0.56101328E-03 0.12499954E+03</pdfrwt>
<totfact> 0.28231767E+03</totfact>
</mgrwt>
</event>
<event>
 5    1  0.3316199E-002  0.1250027E+03  0.7818608E-02  0.1235065E+00
          4   -1    0    0  501    0  0.00000000000E+00  0.00000000000E+00  0.20055206340E+03  0.20055608451E+03  0.12700000000E+01 0.  1.
         -4   -1    0    0    0  501 -0.00000000000E+00 -0.00000000000E+00 -0.19453412285E+02  0.19494823660E+02  0.12700000000E+01 0.  1.
         25    2    1    2    0    0  0.00000000000E+00  0.00000000000E+00  0.18109865111E+03  0.22005090817E+03  0.12500272297E+03 0.  0.
    9000005    1    3    3    0    0  0.39167934797E+02 -0.23107640213E+02  0.16600593366E+03  0.17212512938E+03  0.10000000000E+01 0.  0.
    9000005    1    3    3    0    0 -0.39167934797E+02  0.23107640213E+02  0.15092717450E+02  0.47925778789E+02  0.10000000000E+01 0.  0.
<mgrwt>
<rscale>  0 0.12500272E+03</rscale>
<asrwt>0</asrwt>
<pdfrwt beam="1">  1        4 0.30857660E-01 0.12500272E+03</pdfrwt>
<pdfrwt beam="2">  1       -4 0.29963273E-02 0.12500272E+03</pdfrwt>
<totfact> 0.86855009E+03</totfact>
</mgrwt>
</event>
<event>
 5    1  0.3316199E-002  0.1249950E+03  0.7818608E-02  0.1235077E+00
          4   -1    0    0  501    0  0.00000000000E+00  0.00000000000E+00  0.39554569741E+02  0.39574952778E+02  0.12700000000E+01 0.  1.
         -4   -1    0    0    0  501 -0.00000000000E+00 -0.00000000000E+00 -0.98698154700E+02  0.98706325234E+02  0.12700000000E+01 0.  1.
         25    2    1    2    0    0  0.00000000000E+00  0.00000000000E+00 -0.59143584959E+02  0.13828127801E+03  0.12499499273E+03 0.  0.
    9000005    1    3    3    0    0 -0.91452564867E+00 -0.62203387540E+02 -0.23041910810E+02  0.66347776394E+02  0.10000000000E+01 0.  0.
    9000005    1    3    3    0    0  0.91452564867E+00  0.62203387540E+02 -0.36101674149E+02  0.71933501618E+02  0.10000000000E+01 0.  0.
<mgrwt>
<rscale>  0 0.12499499E+03</rscale>
<asrwt>0</asrwt>
<pdfrwt beam="1">  1        4 0.60875149E-02 0.12499499E+03</pdfrwt>
<pdfrwt beam="2">  1       -4 0.15186528E-01 0.12499499E+03</pdfrwt>
<totfact> 0.10170479E+04</totfact>
</mgrwt>
</event>
<event>
 5    1  0.3316199E-002  0.1250015E+03  0.7818608E-02  0.1235067E+00
          4   -1    0    0  501    0  0.00000000000E+00  0.00000000000E+00  0.25618354524E+03  0.25618669315E+03  0.12700000000E+01 0.  1.
         -4   -1    0    0    0  501 -0.00000000000E+00 -0.00000000000E+00 -0.15218541824E+02  0.15271441164E+02  0.12700000000E+01 0.  1.
         25    2    1    2    0    0  0.00000000000E+00  0.00000000000E+00  0.24096500341E+03  0.27145813432E+03  0.12500154326E+03 0.  0.
    9000005    1    3    3    0    0 -0.56557227124E+02 -0.23630179629E+02  0.94041869393E+02  0.11225853432E+03  0.10000000000E+01 0.  0.
    9000005    1    3    3    0    0  0.56557227124E+02  0.23630179629E+02  0.14692313402E+03  0.15919960000E+03  0.10000000000E+01 0.  0.
<mgrwt>
<rscale>  0 0.12500154E+03</rscale>
<asrwt>0</asrwt>
<pdfrwt beam="1">  1        4 0.39417163E-01 0.12500154E+03</pdfrwt>
<pdfrwt beam="2">  1       -4 0.23456255E-02 0.12500154E+03</pdfrwt>
<totfact> 0.79321765E+03</totfact>
</mgrwt>
</event>
<event>
 4    1  0.3316199E-002  0.1248617E+03  0.7818608E-02  0.1235286E+00
         -4   -1    0    0    0  501 -0.00000000000E+00  0.00000000000E+00  0.21693899115E+02  0.21731041365E+02  0.12700000000E+01 0. -1.
          4   -1    0    0  501    0  0.00000000000E+00 -0.00000000000E+00 -0.17947073608E+03  0.17947522951E+03  0.12700000000E+01 0. -1.
    9000005    1    1    2    0    0 -0.34038725989E+02 -0.33965803053E+01  0.52530578724E+01  0.34623203805E+02  0.10000000000E+01 0.  0.
    9000005    1    1    2    0    0  0.34038725989E+02  0.33965803053E+01 -0.16302989484E+03  0.16658306707E+03  0.10000000000E+01 0.  0.
<mgrwt>
<rscale>  0 0.12486166E+03</rscale>
<asrwt>0</asrwt>
<pdfrwt beam="2">  1        4 0.27614084E-01 0.12486166E+03</pdfrwt>
<pdfrwt beam="1">  1       -4 0.33407258E-02 0.12486166E+03</pdfrwt>
<totfact> 0.90211403E+03</totfact>
</mgrwt>
</event>
<event>
 5    1  0.3316199E-002  0.1249938E+03  0.7818608E-02  0.1235079E+00
         -4   -1    0    0    0  501 -0.00000000000E+00  0.00000000000E+00  0.51091546904E+03  0.51091704748E+03  0.12700000000E+01 0.  1.
          4   -1    0    0  501    0  0.00000000000E+00 -0.00000000000E+00 -0.75904892849E+01  0.76960007526E+01  0.12700000000E+01 0.  1.
         25    2    1    2    0    0  0.00000000000E+00  0.00000000000E+00  0.50332497975E+03  0.51861304823E+03  0.12499383405E+03 0.  0.
    9000005    1    3    3    0    0 -0.49289936563E+02 -0.36499530761E+02  0.20202016509E+03  0.21112759340E+03  0.10000000000E+01 0.  0.
    9000005    1    3    3    0    0  0.49289936563E+02  0.36499530761E+02  0.30130481466E+03  0.30748545483E+03  0.10000000000E+01 0.  0.
<mgrwt>
<rscale>  0 0.12499383E+03</rscale>
<asrwt>0</asrwt>
<pdfrwt beam="2">  1        4 0.11760054E-02 0.12499383E+03</pdfrwt>
<pdfrwt beam="1">  1       -4 0.78610608E-01 0.12499383E+03</pdfrwt>
<totfact> 0.54455981E+03</totfact>
</mgrwt>
</event>
<event>
 5    1  0.3316199E-002  0.1249991E+03  0.7818608E-02  0.1235071E+00
          4   -1    0    0  501    0  0.00000000000E+00  0.00000000000E+00  0.84329110641E+01  0.85280061570E+01  0.12700000000E+01 0.  1.
         -4   -1    0    0    0  501 -0.00000000000E+00 -0.00000000000E+00 -0.46051508212E+03  0.46051683331E+03  0.12700000000E+01 0.  1.
         25    2    1    2    0    0  0.00000000000E+00  0.00000000000E+00 -0.45208217106E+03  0.46904483947E+03  0.12499908817E+03 0.  0.
    9000005    1    3    3    0    0  0.32881589683E+01  0.49303865954E+02 -0.36959179329E+03  0.37288171965E+03  0.10000000000E+01 0.  0.
    9000005    1    3    3    0    0 -0.32881589683E+01 -0.49303865954E+02 -0.82490377774E+02  0.96163119816E+02  0.10000000000E+01 0.  0.
<mgrwt>
<rscale>  0 0.12499909E+03</rscale>
<asrwt>0</asrwt>
<pdfrwt beam="1">  1        4 0.13048210E-02 0.12499909E+03</pdfrwt>
<pdfrwt beam="2">  1       -4 0.70855905E-01 0.12499909E+03</pdfrwt>
<totfact> 0.58349908E+03</totfact>
</mgrwt>
</event>
<event>
 5    1  0.3316199E-002  0.1249978E+03  0.7818608E-02  0.1235073E+00
          4   -1    0    0  501    0  0.00000000000E+00  0.00000000000E+00  0.14155087013E+02  0.14211945269E+02  0.12700000000E+01 0.  1.
         -4   -1    0    0    0  501 -0.00000000000E+00 -0.00000000000E+00 -0.27533972652E+03  0.27534265543E+03  0.12700000000E+01 0.  1.
         25    2    1    2    0    0  0.00000000000E+00  0.00000000000E+00 -0.26118463951E+03  0.28955460070E+03  0.12499780347E+03 0.  0.
    9000005    1    3    3    0    0 -0.28553367568E+02 -0.48956486671E+02 -0.69607762445E+02  0.89767883896E+02  0.10000000000E+01 0.  0.
    9000005    1    3    3    0    0  0.28553367568E+02  0.48956486671E+02 -0.19157687706E+03  0.19978671680E+03  0.10000000000E+01 0.  0.
<mgrwt>
<rscale>  0 0.12499780E+03</rscale>
<asrwt>0</asrwt>
<pdfrwt beam="1">  1        4 0.21823049E-02 0.12499780E+03</pdfrwt>
<pdfrwt beam="2">  1       -4 0.42364553E-01 0.12499780E+03</pdfrwt>
<totfact> 0.76931809E+03</totfact>
</mgrwt>
</event>
<event>
 5    1  0.3316199E-002  0.1250015E+03  0.7818608E-02  0.1235067E+00
          4   -1    0    0  501    0  0.00000000000E+00  0.00000000000E+00  0.13435171140E+03  0.13435771379E+03  0.12700000000E+01 0.  1.
         -4   -1    0    0    0  501 -0.00000000000E+00 -0.00000000000E+00 -0.29055002004E+02  0.29082744737E+02  0.12700000000E+01 0.  1.
         25    2    1    2    0    0  0.00000000000E+00  0.00000000000E+00  0.10529670939E+03  0.16344045853E+03  0.12500154589E+03 0.  0.
    9000005    1    3    3    0    0  0.49494217504E+02 -0.37961361024E+02  0.47651670430E+02  0.78501109495E+02  0.10000000000E+01 0.  0.
    9000005    1    3    3    0    0 -0.49494217504E+02  0.37961361024E+02  0.57645038962E+02  0.84939349032E+02  0.10000000000E+01 0.  0.
<mgrwt>
<rscale>  0 0.12500155E+03</rscale>
<asrwt>0</asrwt>
<pdfrwt beam="1">  1        4 0.20672090E-01 0.12500155E+03</pdfrwt>
<pdfrwt beam="2">  1       -4 0.44725961E-02 0.12500155E+03</pdfrwt>
<totfact> 0.96680204E+03</totfact>
</mgrwt>
</event>
<event>
 5    1  0.3316199E-002  0.1250026E+03  0.7818608E-02  0.1235065E+00
          4   -1    0    0  501    0  0.00000000000E+00  0.00000000000E+00  0.74276564756E+02  0.74287421358E+02  0.12700000000E+01 0.  1.
         -4   -1    0    0    0  501 -0.00000000000E+00 -0.00000000000E+00 -0.52570410121E+02  0.52585748262E+02  0.12700000000E+01 0.  1.
         25    2    1    2    0    0  0.00000000000E+00  0.00000000000E+00  0.21706154635E+02  0.12687316962E+03  0.12500257606E+03 0.  0.
    9000005    1    3    3    0    0  0.21290175140E+01  0.31349151323E+02 -0.43974818875E+02  0.54056328948E+02  0.10000000000E+01 0.  0.
    9000005    1    3    3    0    0 -0.21290175140E+01 -0.31349151323E+02  0.65680973510E+02  0.72816840672E+02  0.10000000000E+01 0.  0.
<mgrwt>
<rscale>  0 0.12500258E+03</rscale>
<asrwt>0</asrwt>
<pdfrwt beam="1">  1        4 0.11429179E-01 0.12500258E+03</pdfrwt>
<pdfrwt beam="2">  1       -4 0.80897704E-02 0.12500258E+03</pdfrwt>
<totfact> 0.10411297E+04</totfact>
</mgrwt>
</event>
<event>
 5    1  0.3316199E-002  0.1249996E+03  0.7818608E-02  0.1235070E+00
          4   -1    0    0  501    0  0.00000000000E+00  0.00000000000E+00  0.33441165245E+02  0.33465272043E+02  0.12700000000E+01 0.  1.
         -4   -1    0    0    0  501 -0.00000000000E+00 -0.00000000000E+00 -0.11673919458E+03  0.11674610251E+03  0.12700000000E+01 0.  1.
         25    2    1    2    0    0  0.00000000000E+00  0.00000000000E+00 -0.83298029339E+02  0.15021137456E+03  0.12499958142E+03 0.  0.
    9000005    1    3    3    0    0  0.36332464617E+02 -0.17122731220E+02 -0.99179816182E+02  0.10700874659E+03  0.10000000000E+01 0.  0.
    9000005    1    3    3    0    0 -0.36332464617E+02  0.17122731220E+02  0.15881786843E+02  0.43202627963E+02  0.10000000000E+01 0.  0.
<mgrwt>
<rscale>  0 0.12499958E+03</rscale>
<asrwt>0</asrwt>
<pdfrwt beam="1">  1        4 0.51471805E-02 0.12499958E+03</pdfrwt>
<pdfrwt beam="2">  1       -4 0.17962262E-01 0.12499958E+03</pdfrwt>
<totfact> 0.99262516E+03</totfact>
</mgrwt>
</event>
<event>
 5    1  0.3316199E-002  0.1249993E+03  0.7818608E-02  0.1235070E+00
          4   -1    0    0  501    0  0.00000000000E+00  0.00000000000E+00  0.91829409269E+01  0.92703454125E+01  0.12700000000E+01 0.  1.
         -4   -1    0    0    0  501 -0.00000000000E+00 -0.00000000000E+00 -0.42327313438E+03  0.42327503965E+03  0.12700000000E+01 0.  1.
         25    2    1    2    0    0  0.00000000000E+00  0.00000000000E+00 -0.41409019346E+03  0.43254538506E+03  0.12499928729E+03 0.  0.
    9000005    1    3    3    0    0  0.13406005237E+02  0.39764918747E+02 -0.36728121251E+03  0.36967209632E+03  0.10000000000E+01 0.  0.
    9000005    1    3    3    0    0 -0.13406005237E+02 -0.39764918747E+02 -0.46808980950E+02  0.62873288740E+02  0.10000000000E+01 0.  0.
<mgrwt>
<rscale>  0 0.12499929E+03</rscale>
<asrwt>0</asrwt>
<pdfrwt beam="1">  1        4 0.14196305E-02 0.12499929E+03</pdfrwt>
<pdfrwt beam="2">  1       -4 0.65125799E-01 0.12499929E+03</pdfrwt>
<totfact> 0.61506917E+03</totfact>
</mgrwt>
</event>
<event>
 5    1  0.3316199E-002  0.1250004E+03  0.7818608E-02  0.1235069E+00
         -4   -1    0    0    0  501 -0.00000000000E+00  0.00000000000E+00  0.61833867771E+03  0.61833998193E+03  0.12700000000E+01 0.  1.
          4   -1    0    0  501    0  0.00000000000E+00 -0.00000000000E+00 -0.62522161147E+01  0.63798986155E+01  0.12700000000E+01 0.  1.
         25    2    1    2    0    0  0.00000000000E+00  0.00000000000E+00  0.61208646159E+03  0.62471988054E+03  0.12500037072E+03 0.  0.
    9000005    1    3    3    0    0 -0.47023826766E+01 -0.59433516460E+02  0.39965164558E+03  0.40407535571E+03  0.10000000000E+01 0.  0.
    9000005    1    3    3    0    0  0.47023826766E+01  0.59433516460E+02  0.21243481601E+03  0.22064452483E+03  0.10000000000E+01 0.  0.
<mgrwt>
<rscale>  0 0.12500037E+03</rscale>
<asrwt>0</asrwt>
<pdfrwt beam="2">  1        4 0.97180107E-03 0.12500037E+03</pdfrwt>
<pdfrwt beam="1">  1       -4 0.95138987E-01 0.12500037E+03</pdfrwt>
<totfact> 0.47343096E+03</totfact>
</mgrwt>
</event>
<event>
 5    1  0.3316199E-002  0.1250111E+03  0.7818608E-02  0.1235052E+00
         -4   -1    0    0    0  501 -0.00000000000E+00  0.00000000000E+00  0.61116321014E+02  0.61129514919E+02  0.12700000000E+01 0.  1.
          4   -1    0    0  501    0  0.00000000000E+00 -0.00000000000E+00 -0.63900001614E+02  0.63912620869E+02  0.12700000000E+01 0.  1.
         25    2    1    2    0    0  0.00000000000E+00  0.00000000000E+00 -0.27836806006E+01  0.12504213579E+03  0.12501114688E+03 0.  0.
    9000005    1    3    3    0    0 -0.16843065972E+02 -0.35416283735E+02  0.47281754259E+02  0.61437499223E+02  0.10000000000E+01 0.  0.
    9000005    1    3    3    0    0  0.16843065972E+02  0.35416283735E+02 -0.50065434859E+02  0.63604636565E+02  0.10000000000E+01 0.  0.
<mgrwt>
<rscale>  0 0.12501115E+03</rscale>
<asrwt>0</asrwt>
<pdfrwt beam="2">  1        4 0.98327551E-02 0.12501115E+03</pdfrwt>
<pdfrwt beam="1">  1       -4 0.94044965E-02 0.12501115E+03</pdfrwt>
<totfact> 0.10449315E+04</totfact>
</mgrwt>
</event>
<event>
 5    1  0.3316199E-002  0.1249929E+03  0.7818608E-02  0.1235080E+00
         -4   -1    0    0    0  501 -0.00000000000E+00  0.00000000000E+00  0.79316122525E+02  0.79326289416E+02  0.12700000000E+01 0.  1.
          4   -1    0    0  501    0  0.00000000000E+00 -0.00000000000E+00 -0.49221982917E+02  0.49238364131E+02  0.12700000000E+01 0.  1.
         25    2    1    2    0    0  0.00000000000E+00  0.00000000000E+00  0.30094139608E+02  0.12856465355E+03  0.12499285141E+03 0.  0.
    9000005    1    3    3    0    0 -0.36183380383E+02  0.48106334961E+02 -0.22056415677E+01  0.60243848931E+02  0.10000000000E+01 0.  0.
    9000005    1    3    3    0    0  0.36183380383E+02 -0.48106334961E+02  0.32299781176E+02  0.68320804616E+02  0.10000000000E+01 0.  0.
<mgrwt>
<rscale>  0 0.12499285E+03</rscale>
<asrwt>0</asrwt>
<pdfrwt beam="2">  1        4 0.75746550E-02 0.12499285E+03</pdfrwt>
<pdfrwt beam="1">  1       -4 0.12204522E-01 0.12499285E+03</pdfrwt>
<totfact> 0.10376986E+04</totfact>
</mgrwt>
</event>
<event>
 5    1  0.3316199E-002  0.1249808E+03  0.7818608E-02  0.1235099E+00
         -4   -1    0    0    0  501 -0.00000000000E+00  0.00000000000E+00  0.56431274740E+02  0.56445563765E+02  0.12700000000E+01 0.  1.
          4   -1    0    0  501    0  0.00000000000E+00 -0.00000000000E+00 -0.69171218697E+02  0.69182876465E+02  0.12700000000E+01 0.  1.
         25    2    1    2    0    0  0.00000000000E+00  0.00000000000E+00 -0.12739943957E+02  0.12562844023E+03  0.12498079382E+03 0.  0.
    9000005    1    3    3    0    0  0.52909801639E+02  0.14431842870E+02  0.23723848408E+02  0.59762414454E+02  0.10000000000E+01 0.  0.
    9000005    1    3    3    0    0 -0.52909801639E+02 -0.14431842870E+02 -0.36463792365E+02  0.65866025777E+02  0.10000000000E+01 0.  0.
<mgrwt>
<rscale>  0 0.12498079E+03</rscale>
<asrwt>0</asrwt>
<pdfrwt beam="2">  1        4 0.10643722E-01 0.12498079E+03</pdfrwt>
<pdfrwt beam="1">  1       -4 0.86837304E-02 0.12498079E+03</pdfrwt>
<totfact> 0.10443644E+04</totfact>
</mgrwt>
</event>
<event>
 5    1  0.3316199E-002  0.1250022E+03  0.7818608E-02  0.1235066E+00
          4   -1    0    0  501    0  0.00000000000E+00  0.00000000000E+00  0.97585921535E+02  0.97594185184E+02  0.12700000000E+01 0. -1.
         -4   -1    0    0    0  501 -0.00000000000E+00 -0.00000000000E+00 -0.40010183529E+02  0.40030334573E+02  0.12700000000E+01 0. -1.
         25    2    1    2    0    0  0.00000000000E+00  0.00000000000E+00  0.57575738006E+02  0.13762451976E+03  0.12500217131E+03 0.  0.
    9000005    1    3    3    0    0 -0.61811312426E+02 -0.46012749151E+01  0.37566435574E+02  0.72484806383E+02  0.10000000000E+01 0.  0.
    9000005    1    3    3    0    0  0.61811312426E+02  0.46012749151E+01  0.20009302431E+02  0.65139713374E+02  0.10000000000E+01 0.  0.
<mgrwt>
<rscale>  0 0.12500217E+03</rscale>
<asrwt>0</asrwt>
<pdfrwt beam="1">  1        4 0.15015404E-01 0.12500217E+03</pdfrwt>
<pdfrwt beam="2">  1       -4 0.61575987E-02 0.12500217E+03</pdfrwt>
<totfact> 0.10182545E+04</totfact>
</mgrwt>
</event>
<event>
 5    1  0.3316199E-002  0.1249999E+03  0.7818608E-02  0.1235069E+00
         -4   -1    0    0    0  501 -0.00000000000E+00  0.00000000000E+00  0.95457325696E+02  0.95465773600E+02  0.12700000000E+01 0. -1.
          4   -1    0    0  501    0  0.00000000000E+00 -0.00000000000E+00 -0.40901239264E+02  0.40920951521E+02  0.12700000000E+01 0. -1.
         25    2    1    2    0    0  0.00000000000E+00  0.00000000000E+00  0.54556086432E+02  0.13638672512E+03  0.12499988889E+03 0.  0.
    9000005    1    3    3    0    0  0.21055027721E+02 -0.58822887479E+02  0.25815499205E+02  0.67608329982E+02  0.10000000000E+01 0.  0.
    9000005    1    3    3    0    0 -0.21055027721E+02  0.58822887479E+02  0.28740587227E+02  0.68778395139E+02  0.10000000000E+01 0.  0.
<mgrwt>
<rscale>  0 0.12499989E+03</rscale>
<asrwt>0</asrwt>
<pdfrwt beam="2">  1        4 0.62946647E-02 0.12499989E+03</pdfrwt>
<pdfrwt beam="1">  1       -4 0.14687908E-01 0.12499989E+03</pdfrwt>
<totfact> 0.10208950E+04</totfact>
</mgrwt>
</event>
<event>
 5    1  0.3316199E-002  0.1249990E+03  0.7818608E-02  0.1235071E+00
          4   -1    0    0  501    0  0.00000000000E+00  0.00000000000E+00  0.19236656758E+01  0.23050790946E+01  0.12700000000E+01 0.  1.
         -4   -1    0    0    0  501 -0.00000000000E+00 -0.00000000000E+00 -0.18470633125E+04  0.18470637491E+04  0.12700000000E+01 0.  1.
         25    2    1    2    0    0  0.00000000000E+00  0.00000000000E+00 -0.18451396468E+04  0.18493688282E+04  0.12499898583E+03 0.  0.
    9000005    1    3    3    0    0  0.58107944029E+02 -0.24556085393E+01 -0.58434032089E+03  0.58722838300E+03  0.10000000000E+01 0.  0.
    9000005    1    3    3    0    0 -0.58107944029E+02  0.24556085393E+01 -0.12607993259E+04  0.12621404452E+04  0.10000000000E+01 0.  0.
<mgrwt>
<rscale>  0 0.12499899E+03</rscale>
<asrwt>0</asrwt>
<pdfrwt beam="1">  1        4 0.32532312E-03 0.12499899E+03</pdfrwt>
<pdfrwt beam="2">  1       -4 0.28419167E+00 0.12499899E+03</pdfrwt>
<totfact> 0.11958437E+03</totfact>
</mgrwt>
</event>
<event>
 5    1  0.3316199E-002  0.1250006E+03  0.7818608E-02  0.1235068E+00
         -4   -1    0    0    0  501 -0.00000000000E+00  0.00000000000E+00  0.38111695854E+01  0.40172022116E+01  0.12700000000E+01 0.  1.
          4   -1    0    0  501    0  0.00000000000E+00 -0.00000000000E+00 -0.99777505571E+03  0.99777586396E+03  0.12700000000E+01 0.  1.
         25    2    1    2    0    0  0.00000000000E+00  0.00000000000E+00 -0.99396388612E+03  0.10017930662E+04  0.12500056202E+03 0.  0.
    9000005    1    3    3    0    0  0.17845210728E+02  0.67076202547E+01 -0.97394046347E+03  0.97412754304E+03  0.10000000000E+01 0.  0.
    9000005    1    3    3    0    0 -0.17845210728E+02 -0.67076202547E+01 -0.20023422649E+02  0.27665523129E+02  0.10000000000E+01 0.  0.
<mgrwt>
<rscale>  0 0.12500056E+03</rscale>
<asrwt>0</asrwt>
<pdfrwt beam="2">  1        4 0.15351956E+00 0.12500056E+03</pdfrwt>
<pdfrwt beam="1">  1       -4 0.60224541E-03 0.12500056E+03</pdfrwt>
<totfact> 0.30545020E+03</totfact>
</mgrwt>
</event>
<event>
 5    1  0.3316199E-002  0.1249996E+03  0.7818608E-02  0.1235070E+00
         -4   -1    0    0    0  501 -0.00000000000E+00  0.00000000000E+00  0.80905625320E+01  0.81896338187E+01  0.12700000000E+01 0. -1.
          4   -1    0    0  501    0  0.00000000000E+00 -0.00000000000E+00 -0.47977461520E+03  0.47977629609E+03  0.12700000000E+01 0. -1.
         25    2    1    2    0    0  0.00000000000E+00  0.00000000000E+00 -0.47168405266E+03  0.48796592991E+03  0.12499961284E+03 0.  0.
    9000005    1    3    3    0    0  0.33763497272E+02 -0.51566324384E+02 -0.19561906335E+03  0.20510211482E+03  0.10000000000E+01 0.  0.
    9000005    1    3    3    0    0 -0.33763497272E+02  0.51566324384E+02 -0.27606498931E+03  0.28286381508E+03  0.10000000000E+01 0.  0.
<mgrwt>
<rscale>  0 0.12499961E+03</rscale>
<asrwt>0</asrwt>
<pdfrwt beam="2">  1        4 0.73819207E-01 0.12499961E+03</pdfrwt>
<pdfrwt beam="1">  1       -4 0.12524525E-02 0.12499961E+03</pdfrwt>
<totfact> 0.56810796E+03</totfact>
</mgrwt>
</event>
<event>
 5    1  0.3316199E-002  0.1249991E+03  0.7818608E-02  0.1235071E+00
          4   -1    0    0  501    0  0.00000000000E+00  0.00000000000E+00  0.40282436114E+02  0.40302451033E+02  0.12700000000E+01 0.  1.
         -4   -1    0    0    0  501 -0.00000000000E+00 -0.00000000000E+00 -0.96921916540E+02  0.96930236798E+02  0.12700000000E+01 0.  1.
         25    2    1    2    0    0  0.00000000000E+00  0.00000000000E+00 -0.56639480426E+02  0.13723268783E+03  0.12499911946E+03 0.  0.
    9000005    1    3    3    0    0 -0.37169382819E+02 -0.74900284147E+01  0.26216094114E+02  0.46107994268E+02  0.10000000000E+01 0.  0.
    9000005    1    3    3    0    0  0.37169382819E+02  0.74900284147E+01 -0.82855574539E+02  0.91124693564E+02  0.10000000000E+01 0.  0.
<mgrwt>
<rscale>  0 0.12499912E+03</rscale>
<asrwt>0</asrwt>
<pdfrwt beam="1">  1        4 0.61994775E-02 0.12499912E+03</pdfrwt>
<pdfrwt beam="2">  1       -4 0.14913244E-01 0.12499912E+03</pdfrwt>
<totfact> 0.10191425E+04</totfact>
</mgrwt>
</event>
<event>
 5    1  0.3316199E-002  0.1250086E+03  0.7818608E-02  0.1235056E+00
          4   -1    0    0  501    0  0.00000000000E+00  0.00000000000E+00  0.39303704263E+01  0.41304614376E+01  0.12700000000E+01 0. -1.
         -4   -1    0    0    0  501 -0.00000000000E+00 -0.00000000000E+00 -0.96912623810E+03  0.96912707024E+03  0.12700000000E+01 0. -1.
         25    2    1    2    0    0  0.00000000000E+00  0.00000000000E+00 -0.96519586767E+03  0.97325753167E+03  0.12500863968E+03 0.  0.
    9000005    1    3    3    0    0 -0.37298787298E+02 -0.11607001579E+02 -0.86240599384E+03  0.86329080861E+03  0.10000000000E+01 0.  0.
    9000005    1    3    3    0    0  0.37298787298E+02  0.11607001579E+02 -0.10278987383E+03  0.10996672306E+03  0.10000000000E+01 0.  0.
<mgrwt>
<rscale>  0 0.12500864E+03</rscale>
<asrwt>0</asrwt>
<pdfrwt beam="1">  1        4 0.62012877E-03 0.12500864E+03</pdfrwt>
<pdfrwt beam="2">  1       -4 0.14911161E+00 0.12500864E+03</pdfrwt>
<totfact> 0.31498466E+03</totfact>
</mgrwt>
</event>
<event>
 5    1  0.3316199E-002  0.1249998E+03  0.7818608E-02  0.1235070E+00
         -4   -1    0    0    0  501 -0.00000000000E+00  0.00000000000E+00  0.54868569481E+02  0.54883265362E+02  0.12700000000E+01 0. -1.
          4   -1    0    0  501    0  0.00000000000E+00 -0.00000000000E+00 -0.71162702059E+02  0.71174033639E+02  0.12700000000E+01 0. -1.
         25    2    1    2    0    0  0.00000000000E+00  0.00000000000E+00 -0.16294132579E+02  0.12605729900E+03  0.12499977550E+03 0.  0.
    9000005    1    3    3    0    0  0.28539468697E+02  0.48924081174E+02 -0.34774406727E+02  0.66470492367E+02  0.10000000000E+01 0.  0.
    9000005    1    3    3    0    0 -0.28539468697E+02 -0.48924081174E+02  0.18480274148E+02  0.59586806634E+02  0.10000000000E+01 0.  0.
<mgrwt>
<rscale>  0 0.12499978E+03</rscale>
<asrwt>0</asrwt>
<pdfrwt beam="2">  1        4 0.10950110E-01 0.12499978E+03</pdfrwt>
<pdfrwt beam="1">  1       -4 0.84433205E-02 0.12499978E+03</pdfrwt>
<totfact> 0.10429754E+04</totfact>
</mgrwt>
</event>
<event>
 5    1  0.3316199E-002  0.1250012E+03  0.7818608E-02  0.1235067E+00
          4   -1    0    0  501    0  0.00000000000E+00  0.00000000000E+00  0.11386922939E+02  0.11457526523E+02  0.12700000000E+01 0. -1.
         -4   -1    0    0    0  501 -0.00000000000E+00 -0.00000000000E+00 -0.34192162683E+03  0.34192398541E+03  0.12700000000E+01 0. -1.
         25    2    1    2    0    0  0.00000000000E+00  0.00000000000E+00 -0.33053470389E+03  0.35338151193E+03  0.12500120998E+03 0.  0.
    9000005    1    3    3    0    0 -0.17777156686E+02  0.55913494696E+02 -0.22609632127E+03  0.23358701308E+03  0.10000000000E+01 0.  0.
    9000005    1    3    3    0    0  0.17777156686E+02 -0.55913494696E+02 -0.10443838262E+03  0.11979449885E+03  0.10000000000E+01 0.  0.
<mgrwt>
<rscale>  0 0.12500121E+03</rscale>
<asrwt>0</asrwt>
<pdfrwt beam="1">  1        4 0.17574470E-02 0.12500121E+03</pdfrwt>
<pdfrwt beam="2">  1       -4 0.52608932E-01 0.12500121E+03</pdfrwt>
<totfact> 0.69352290E+03</totfact>
</mgrwt>
</event>
<event>
 4    1  0.3316199E-002  0.1249132E+03  0.7818608E-02  0.1235205E+00
          4   -1    0    0  501    0  0.00000000000E+00  0.00000000000E+00  0.50482190947E+02  0.50498163360E+02  0.12700000000E+01 0. -1.
         -4   -1    0    0    0  501 -0.00000000000E+00 -0.00000000000E+00 -0.77237906890E+02  0.77248347301E+02  0.12700000000E+01 0. -1.
    9000005    1    1    2    0    0  0.84177829013E+01 -0.23850937922E+02 -0.71770240816E+02  0.76103178485E+02  0.10000000000E+01 0.  0.
    9000005    1    1    2    0    0 -0.84177829013E+01  0.23850937922E+02  0.45014524873E+02  0.51643332176E+02  0.10000000000E+01 0.  0.
<mgrwt>
<rscale>  0 0.12491318E+03</rscale>
<asrwt>0</asrwt>
<pdfrwt beam="1">  1        4 0.77685227E-02 0.12491318E+03</pdfrwt>
<pdfrwt beam="2">  1       -4 0.11884787E-01 0.12491318E+03</pdfrwt>
<totfact> 0.10413361E+04</totfact>
</mgrwt>
</event>
<event>
 5    1  0.3316199E-002  0.1249989E+03  0.7818608E-02  0.1235071E+00
          4   -1    0    0  501    0  0.00000000000E+00  0.00000000000E+00  0.55858866433E+03  0.55859010806E+03  0.12700000000E+01 0. -1.
         -4   -1    0    0    0  501 -0.00000000000E+00 -0.00000000000E+00 -0.69338245482E+01  0.70491717858E+01  0.12700000000E+01 0. -1.
         25    2    1    2    0    0  0.00000000000E+00  0.00000000000E+00  0.55165483979E+03  0.56563927985E+03  0.12499893058E+03 0.  0.
    9000005    1    3    3    0    0 -0.24492602597E+02  0.53892181420E+02  0.18521939729E+03  0.19445174191E+03  0.10000000000E+01 0.  0.
    9000005    1    3    3    0    0  0.24492602597E+02 -0.53892181420E+02  0.36643544250E+03  0.37118753793E+03  0.10000000000E+01 0.  0.
<mgrwt>
<rscale>  0 0.12499893E+03</rscale>
<asrwt>0</asrwt>
<pdfrwt beam="1">  1        4 0.85945704E-01 0.12499893E+03</pdfrwt>
<pdfrwt beam="2">  1       -4 0.10757261E-02 0.12499893E+03</pdfrwt>
<totfact> 0.51112163E+03</totfact>
</mgrwt>
</event>
<event>
 5    1  0.3316199E-002  0.1250072E+03  0.7818608E-02  0.1235058E+00
         -4   -1    0    0    0  501 -0.00000000000E+00  0.00000000000E+00  0.40681550805E+03  0.40681749039E+03  0.12700000000E+01 0.  1.
          4   -1    0    0  501    0  0.00000000000E+00 -0.00000000000E+00 -0.95591180615E+01  0.96431135072E+01  0.12700000000E+01 0.  1.
         25    2    1    2    0    0  0.00000000000E+00  0.00000000000E+00  0.39725638998E+03  0.41646060390E+03  0.12500718065E+03 0.  0.
    9000005    1    3    3    0    0  0.21770565323E+02  0.56417842968E+02  0.14608258122E+03  0.15810771978E+03  0.10000000000E+01 0.  0.
    9000005    1    3    3    0    0 -0.21770565323E+02 -0.56417842968E+02  0.25117380877E+03  0.25835288411E+03  0.10000000000E+01 0.  0.
<mgrwt>
<rscale>  0 0.12500718E+03</rscale>
<asrwt>0</asrwt>
<pdfrwt beam="2">  1        4 0.14772473E-02 0.12500718E+03</pdfrwt>
<pdfrwt beam="1">  1       -4 0.62593613E-01 0.12500718E+03</pdfrwt>
<totfact> 0.62972752E+03</totfact>
</mgrwt>
</event>
<event>
 5    1  0.3316199E-002  0.1249981E+03  0.7818608E-02  0.1235072E+00
          4   -1    0    0  501    0  0.00000000000E+00  0.00000000000E+00  0.11192829365E+04  0.11192836570E+04  0.12700000000E+01 0.  1.
         -4   -1    0    0    0  501 -0.00000000000E+00 -0.00000000000E+00 -0.33735609655E+01  0.36046932724E+01  0.12700000000E+01 0.  1.
         25    2    1    2    0    0  0.00000000000E+00  0.00000000000E+00  0.11159093755E+04  0.11228883502E+04  0.12499805112E+03 0.  0.
    9000005    1    3    3    0    0  0.57512576645E+02  0.68693985003E+01  0.76867705285E+03  0.77085685876E+03  0.10000000000E+01 0.  0.
    9000005    1    3    3    0    0 -0.57512576645E+02 -0.68693985003E+01  0.34723232264E+03  0.35203149148E+03  0.10000000000E+01 0.  0.
<mgrwt>
<rscale>  0 0.12499805E+03</rscale>
<asrwt>0</asrwt>
<pdfrwt beam="1">  1        4 0.17221508E+00 0.12499805E+03</pdfrwt>
<pdfrwt beam="2">  1       -4 0.53684461E-03 0.12499805E+03</pdfrwt>
<totfact> 0.26824152E+03</totfact>
</mgrwt>
</event>
<event>
 5    1  0.3316199E-002  0.1250016E+03  0.7818608E-02  0.1235067E+00
          4   -1    0    0  501    0  0.00000000000E+00  0.00000000000E+00  0.12295357285E+02  0.12360773065E+02  0.12700000000E+01 0.  1.
         -4   -1    0    0    0  501 -0.00000000000E+00 -0.00000000000E+00 -0.31679960040E+03  0.31680214600E+03  0.12700000000E+01 0.  1.
         25    2    1    2    0    0  0.00000000000E+00  0.00000000000E+00 -0.30450424311E+03  0.32916291907E+03  0.12500157285E+03 0.  0.
    9000005    1    3    3    0    0 -0.49585064662E+02 -0.18562642774E+02 -0.23967105964E+03  0.24545155769E+03  0.10000000000E+01 0.  0.
    9000005    1    3    3    0    0  0.49585064662E+02  0.18562642774E+02 -0.64833183473E+02  0.83711361377E+02  0.10000000000E+01 0.  0.
<mgrwt>
<rscale>  0 0.12500157E+03</rscale>
<asrwt>0</asrwt>
<pdfrwt beam="1">  1        4 0.18968215E-02 0.12500157E+03</pdfrwt>
<pdfrwt beam="2">  1       -4 0.48743622E-01 0.12500157E+03</pdfrwt>
<totfact> 0.72076900E+03</totfact>
</mgrwt>
</event>
<event>
 5    1  0.3316199E-002  0.1249977E+03  0.7818608E-02  0.1235073E+00
         -4   -1    0    0    0  501 -0.00000000000E+00  0.00000000000E+00  0.38725940134E+02  0.38746759081E+02  0.12700000000E+01 0.  1.
          4   -1    0    0  501    0  0.00000000000E+00 -0.00000000000E+00 -0.10081348823E+03  0.10082148734E+03  0.12700000000E+01 0.  1.
         25    2    1    2    0    0  0.00000000000E+00  0.00000000000E+00 -0.62087548099E+02  0.13956824642E+03  0.12499772710E+03 0.  0.
    9000005    1    3    3    0    0 -0.12285010149E+02 -0.60807552037E+02 -0.22641430258E+02  0.66046303630E+02  0.10000000000E+01 0.  0.
    9000005    1    3    3    0    0  0.12285010149E+02  0.60807552037E+02 -0.39446117841E+02  0.73521942792E+02  0.10000000000E+01 0.  0.
<mgrwt>
<rscale>  0 0.12499773E+03</rscale>
<asrwt>0</asrwt>
<pdfrwt beam="2">  1        4 0.15511984E-01 0.12499773E+03</pdfrwt>
<pdfrwt beam="1">  1       -4 0.59600538E-02 0.12499773E+03</pdfrwt>
<totfact> 0.10143061E+04</totfact>
</mgrwt>
</event>
<event>
 5    1  0.3316199E-002  0.1250050E+03  0.7818608E-02  0.1235061E+00
         -4   -1    0    0    0  501 -0.00000000000E+00  0.00000000000E+00  0.66114782127E+02  0.66126978728E+02  0.12700000000E+01 0.  1.
          4   -1    0    0  501    0  0.00000000000E+00 -0.00000000000E+00 -0.59063107493E+02  0.59076759954E+02  0.12700000000E+01 0.  1.
         25    2    1    2    0    0  0.00000000000E+00  0.00000000000E+00  0.70516746342E+01  0.12520373868E+03  0.12500500016E+03 0.  0.
    9000005    1    3    3    0    0  0.97181314279E+01 -0.12362064545E+01  0.65345859799E+02  0.66083671794E+02  0.10000000000E+01 0.  0.
    9000005    1    3    3    0    0 -0.97181314279E+01  0.12362064545E+01 -0.58294185165E+02  0.59120066889E+02  0.10000000000E+01 0.  0.
<mgrwt>
<rscale>  0 0.12500500E+03</rscale>
<asrwt>0</asrwt>
<pdfrwt beam="2">  1        4 0.90886203E-02 0.12500500E+03</pdfrwt>
<pdfrwt beam="1">  1       -4 0.10173493E-01 0.12500500E+03</pdfrwt>
<totfact> 0.10447258E+04</totfact>
</mgrwt>
</event>
<event>
 5    1  0.3316199E-002  0.1249972E+03  0.7818608E-02  0.1235074E+00
          4   -1    0    0  501    0  0.00000000000E+00  0.00000000000E+00  0.23974474148E+02  0.24008088442E+02  0.12700000000E+01 0. -1.
         -4   -1    0    0    0  501 -0.00000000000E+00 -0.00000000000E+00 -0.16277605372E+03  0.16278100800E+03  0.12700000000E+01 0. -1.
         25    2    1    2    0    0  0.00000000000E+00  0.00000000000E+00 -0.13880157957E+03  0.18678909644E+03  0.12499715220E+03 0.  0.
    9000005    1    3    3    0    0  0.52552607594E+02  0.33062694574E+02 -0.79983643457E+02  0.10125858758E+03  0.10000000000E+01 0.  0.
    9000005    1    3    3    0    0 -0.52552607594E+02 -0.33062694574E+02 -0.58817936115E+02  0.85530508863E+02  0.10000000000E+01 0.  0.
<mgrwt>
<rscale>  0 0.12499715E+03</rscale>
<asrwt>0</asrwt>
<pdfrwt beam="1">  1        4 0.36913476E-02 0.12499715E+03</pdfrwt>
<pdfrwt beam="2">  1       -4 0.25045436E-01 0.12499715E+03</pdfrwt>
<totfact> 0.92414919E+03</totfact>
</mgrwt>
</event>
<event>
 5    1  0.3316199E-002  0.1249982E+03  0.7818608E-02  0.1235072E+00
         -4   -1    0    0    0  501 -0.00000000000E+00  0.00000000000E+00  0.56346028260E+03  0.56346171385E+03  0.12700000000E+01 0. -1.
          4   -1    0    0  501    0  0.00000000000E+00 -0.00000000000E+00 -0.68727961027E+01  0.69891506114E+01  0.12700000000E+01 0. -1.
         25    2    1    2    0    0  0.00000000000E+00  0.00000000000E+00  0.55658748650E+03  0.57045086446E+03  0.12499823452E+03 0.  0.
    9000005    1    3    3    0    0  0.60595581869E+02 -0.15095433872E+02  0.28894088958E+03  0.29561382637E+03  0.10000000000E+01 0.  0.
    9000005    1    3    3    0    0 -0.60595581869E+02  0.15095433872E+02  0.26764659692E+03  0.27483703809E+03  0.10000000000E+01 0.  0.
<mgrwt>
<rscale>  0 0.12499823E+03</rscale>
<asrwt>0</asrwt>
<pdfrwt beam="2">  1        4 0.10664134E-02 0.12499823E+03</pdfrwt>
<pdfrwt beam="1">  1       -4 0.86695277E-01 0.12499823E+03</pdfrwt>
<totfact> 0.50789548E+03</totfact>
</mgrwt>
</event>
<event>
 5    1  0.3316199E-002  0.1250039E+03  0.7818608E-02  0.1235063E+00
          4   -1    0    0  501    0  0.00000000000E+00  0.00000000000E+00  0.13608703453E+02  0.13667834857E+02  0.12700000000E+01 0. -1.
         -4   -1    0    0    0  501 -0.00000000000E+00 -0.00000000000E+00 -0.28637550691E+03  0.28637832295E+03  0.12700000000E+01 0. -1.
         25    2    1    2    0    0  0.00000000000E+00  0.00000000000E+00 -0.27276680346E+03  0.30004615781E+03  0.12500387094E+03 0.  0.
    9000005    1    3    3    0    0  0.44974559997E+02 -0.43377405866E+02 -0.13899250206E+03  0.15239496716E+03  0.10000000000E+01 0.  0.
    9000005    1    3    3    0    0 -0.44974559997E+02  0.43377405866E+02 -0.13377430140E+03  0.14765119066E+03  0.10000000000E+01 0.  0.
<mgrwt>
<rscale>  0 0.12500387E+03</rscale>
<asrwt>0</asrwt>
<pdfrwt beam="1">  1        4 0.20984121E-02 0.12500387E+03</pdfrwt>
<pdfrwt beam="2">  1       -4 0.44062531E-01 0.12500387E+03</pdfrwt>
<totfact> 0.75586556E+03</totfact>
</mgrwt>
</event>
<event>
 5    1  0.3316199E-002  0.1250023E+03  0.7818608E-02  0.1235066E+00
          4   -1    0    0  501    0  0.00000000000E+00  0.00000000000E+00  0.70702388449E+01  0.71833959465E+01  0.12700000000E+01 0.  1.
         -4   -1    0    0    0  501 -0.00000000000E+00 -0.00000000000E+00 -0.54801224148E+03  0.54801371307E+03  0.12700000000E+01 0.  1.
         25    2    1    2    0    0  0.00000000000E+00  0.00000000000E+00 -0.54094200264E+03  0.55519710902E+03  0.12500231856E+03 0.  0.
    9000005    1    3    3    0    0  0.57829437119E+02  0.77768088216E+01 -0.17108941261E+03  0.18076866338E+03  0.10000000000E+01 0.  0.
    9000005    1    3    3    0    0 -0.57829437119E+02 -0.77768088216E+01 -0.36985259002E+03  0.37442844563E+03  0.10000000000E+01 0.  0.
<mgrwt>
<rscale>  0 0.12500232E+03</rscale>
<asrwt>0</asrwt>
<pdfrwt beam="1">  1        4 0.10965471E-02 0.12500232E+03</pdfrwt>
<pdfrwt beam="2">  1       -4 0.84318360E-01 0.12500232E+03</pdfrwt>
<totfact> 0.51820975E+03</totfact>
</mgrwt>
</event>
<event>
 5    1  0.3316199E-002  0.1249987E+03  0.7818608E-02  0.1235071E+00
         -4   -1    0    0    0  501 -0.00000000000E+00  0.00000000000E+00  0.11635591139E+02  0.11704694834E+02  0.12700000000E+01 0.  1.
          4   -1    0    0  501    0  0.00000000000E+00 -0.00000000000E+00 -0.33464440216E+03  0.33464681202E+03  0.12700000000E+01 0.  1.
         25    2    1    2    0    0  0.00000000000E+00  0.00000000000E+00 -0.32300881102E+03  0.34635150686E+03  0.12499869721E+03 0.  0.
    9000005    1    3    3    0    0 -0.18212396858E+02 -0.52614668722E+02 -0.24012863735E+03  0.24650102889E+03  0.10000000000E+01 0.  0.
    9000005    1    3    3    0    0  0.18212396858E+02  0.52614668722E+02 -0.82880173666E+02  0.99850477971E+02  0.10000000000E+01 0.  0.
<mgrwt>
<rscale>  0 0.12499870E+03</rscale>
<asrwt>0</asrwt>
<pdfrwt beam="2">  1        4 0.51489248E-01 0.12499870E+03</pdfrwt>
<pdfrwt beam="1">  1       -4 0.17955922E-02 0.12499870E+03</pdfrwt>
<totfact> 0.70129834E+03</totfact>
</mgrwt>
</event>
<event>
 5    1  0.3316199E-002  0.1249880E+03  0.7818608E-02  0.1235088E+00
          4   -1    0    0  501    0  0.00000000000E+00  0.00000000000E+00  0.18289490935E+03  0.18289931866E+03  0.12700000000E+01 0.  1.
         -4   -1    0    0    0  501 -0.00000000000E+00 -0.00000000000E+00 -0.21330232623E+02  0.21368007014E+02  0.12700000000E+01 0.  1.
         25    2    1    2    0    0  0.00000000000E+00  0.00000000000E+00  0.16156467673E+03  0.20426732567E+03  0.12498798171E+03 0.  0.
    9000005    1    3    3    0    0  0.25533295665E+02  0.54640469725E+02  0.54079287616E+02  0.81012958645E+02  0.10000000000E+01 0.  0.
    9000005    1    3    3    0    0 -0.25533295665E+02 -0.54640469725E+02  0.10748538911E+03  0.12325436703E+03  0.10000000000E+01 0.  0.
<mgrwt>
<rscale>  0 0.12498798E+03</rscale>
<asrwt>0</asrwt>
<pdfrwt beam="1">  1        4 0.28140924E-01 0.12498798E+03</pdfrwt>
<pdfrwt beam="2">  1       -4 0.32848190E-02 0.12498798E+03</pdfrwt>
<totfact> 0.89444786E+03</totfact>
</mgrwt>
</event>
<event>
 5    1  0.3316199E-002  0.1250089E+03  0.7818608E-02  0.1235055E+00
         -4   -1    0    0    0  501 -0.00000000000E+00  0.00000000000E+00  0.11108693380E+03  0.11109419319E+03  0.12700000000E+01 0. -1.
          4   -1    0    0  501    0  0.00000000000E+00 -0.00000000000E+00 -0.35149038772E+02  0.35171975017E+02  0.12700000000E+01 0. -1.
         25    2    1    2    0    0  0.00000000000E+00  0.00000000000E+00  0.75937895025E+02  0.14626616821E+03  0.12500891193E+03 0.  0.
    9000005    1    3    3    0    0 -0.13471882322E+02  0.43859860949E+02  0.87618450866E+02  0.98909918350E+02  0.10000000000E+01 0.  0.
    9000005    1    3    3    0    0  0.13471882322E+02 -0.43859860949E+02 -0.11680555842E+02  0.47356249857E+02  0.10000000000E+01 0.  0.
<mgrwt>
<rscale>  0 0.12500891E+03</rscale>
<asrwt>0</asrwt>
<pdfrwt beam="2">  1        4 0.54098671E-02 0.12500891E+03</pdfrwt>
<pdfrwt beam="1">  1       -4 0.17092620E-01 0.12500891E+03</pdfrwt>
<totfact> 0.10003319E+04</totfact>
</mgrwt>
</event>
<event>
 5    1  0.3316199E-002  0.1249951E+03  0.7818608E-02  0.1235077E+00
          4   -1    0    0  501    0  0.00000000000E+00  0.00000000000E+00  0.10882502105E+03  0.10883243132E+03  0.12700000000E+01 0. -1.
         -4   -1    0    0    0  501 -0.00000000000E+00 -0.00000000000E+00 -0.35872107129E+02  0.35894581344E+02  0.12700000000E+01 0. -1.
         25    2    1    2    0    0  0.00000000000E+00  0.00000000000E+00  0.72952913922E+02  0.14472701266E+03  0.12499512208E+03 0.  0.
    9000005    1    3    3    0    0  0.61006211660E+02  0.10887758753E+02  0.27167080537E+02  0.67670905245E+02  0.10000000000E+01 0.  0.
    9000005    1    3    3    0    0 -0.61006211660E+02 -0.10887758753E+02  0.45785833385E+02  0.77056107418E+02  0.10000000000E+01 0.  0.
<mgrwt>
<rscale>  0 0.12499512E+03</rscale>
<asrwt>0</asrwt>
<pdfrwt beam="1">  1        4 0.16744610E-01 0.12499512E+03</pdfrwt>
<pdfrwt beam="2">  1       -4 0.55210845E-02 0.12499512E+03</pdfrwt>
<totfact> 0.10037640E+04</totfact>
</mgrwt>
</event>
<event>
 5    1  0.3316199E-002  0.1250011E+03  0.7818608E-02  0.1235068E+00
          4   -1    0    0  501    0  0.00000000000E+00  0.00000000000E+00  0.23820463893E+02  0.23854295212E+02  0.12700000000E+01 0. -1.
         -4   -1    0    0    0  501 -0.00000000000E+00 -0.00000000000E+00 -0.16383739270E+03  0.16384231489E+03  0.12700000000E+01 0. -1.
         25    2    1    2    0    0  0.00000000000E+00  0.00000000000E+00 -0.14001692881E+03  0.18769661010E+03  0.12500110835E+03 0.  0.
    9000005    1    3    3    0    0 -0.10795793586E+02  0.15337598921E+02  0.19501718950E+02  0.27075969822E+02  0.10000000000E+01 0.  0.
    9000005    1    3    3    0    0  0.10795793586E+02 -0.15337598921E+02 -0.15951864776E+03  0.16062064028E+03  0.10000000000E+01 0.  0.
<mgrwt>
<rscale>  0 0.12500111E+03</rscale>
<asrwt>0</asrwt>
<pdfrwt beam="1">  1        4 0.36676679E-02 0.12500111E+03</pdfrwt>
<pdfrwt beam="2">  1       -4 0.25208733E-01 0.12500111E+03</pdfrwt>
<totfact> 0.92247358E+03</totfact>
</mgrwt>
</event>
<event>
 5    1  0.3316199E-002  0.1250008E+03  0.7818608E-02  0.1235068E+00
         -4   -1    0    0    0  501 -0.00000000000E+00  0.00000000000E+00  0.26255627671E+02  0.26286325046E+02  0.12700000000E+01 0.  1.
          4   -1    0    0  501    0  0.00000000000E+00 -0.00000000000E+00 -0.14865914214E+03  0.14866456687E+03  0.12700000000E+01 0.  1.
         25    2    1    2    0    0  0.00000000000E+00  0.00000000000E+00 -0.12240351447E+03  0.17495089192E+03  0.12500077691E+03 0.  0.
    9000005    1    3    3    0    0  0.10282520547E+02 -0.42738768855E+02 -0.12336923466E+03  0.13097060989E+03  0.10000000000E+01 0.  0.
    9000005    1    3    3    0    0 -0.10282520547E+02  0.42738768855E+02  0.96572019231E+00  0.43980282031E+02  0.10000000000E+01 0.  0.
<mgrwt>
<rscale>  0 0.12500078E+03</rscale>
<asrwt>0</asrwt>
<pdfrwt beam="2">  1        4 0.22873415E-01 0.12500078E+03</pdfrwt>
<pdfrwt beam="1">  1       -4 0.40421060E-02 0.12500078E+03</pdfrwt>
<totfact> 0.94532188E+03</totfact>
</mgrwt>
</event>
<event>
 5    1  0.3316199E-002  0.1250030E+03  0.7818608E-02  0.1235065E+00
          4   -1    0    0  501    0  0.00000000000E+00  0.00000000000E+00  0.63058722381E+03  0.63058850269E+03  0.12700000000E+01 0.  1.
         -4   -1    0    0    0  501 -0.00000000000E+00 -0.00000000000E+00 -0.61285278205E+01  0.62587341569E+01  0.12700000000E+01 0.  1.
         25    2    1    2    0    0  0.00000000000E+00  0.00000000000E+00  0.62445869599E+03  0.63684723685E+03  0.12500296033E+03 0.  0.
    9000005    1    3    3    0    0 -0.55398778894E+02  0.28694364412E+02  0.29382940200E+03  0.30038160519E+03  0.10000000000E+01 0.  0.
    9000005    1    3    3    0    0  0.55398778894E+02 -0.28694364412E+02  0.33062929398E+03  0.33646563167E+03  0.10000000000E+01 0.  0.
<mgrwt>
<rscale>  0 0.12500296E+03</rscale>
<asrwt>0</asrwt>
<pdfrwt beam="1">  1        4 0.97023509E-01 0.12500296E+03</pdfrwt>
<pdfrwt beam="2">  1       -4 0.95296492E-03 0.12500296E+03</pdfrwt>
<totfact> 0.46618329E+03</totfact>
</mgrwt>
</event>
<event>
 5    1  0.3316199E-002  0.1250017E+03  0.7818608E-02  0.1235067E+00
         -4   -1    0    0    0  501 -0.00000000000E+00  0.00000000000E+00  0.10800793373E+02  0.10875202871E+02  0.12700000000E+01 0.  1.
          4   -1    0    0  501    0  0.00000000000E+00 -0.00000000000E+00 -0.36035579208E+03  0.36035803000E+03  0.12700000000E+01 0.  1.
         25    2    1    2    0    0  0.00000000000E+00  0.00000000000E+00 -0.34955499871E+03  0.37123323287E+03  0.12500166426E+03 0.  0.
    9000005    1    3    3    0    0 -0.51794272736E+02 -0.34768865062E+02 -0.16373176108E+03  0.17521589611E+03  0.10000000000E+01 0.  0.
    9000005    1    3    3    0    0  0.51794272736E+02  0.34768865062E+02 -0.18582323763E+03  0.19601733676E+03  0.10000000000E+01 0.  0.
<mgrwt>
<rscale>  0 0.12500166E+03</rscale>
<asrwt>0</asrwt>
<pdfrwt beam="2">  1        4 0.55445239E-01 0.12500166E+03</pdfrwt>
<pdfrwt beam="1">  1       -4 0.16675568E-02 0.12500166E+03</pdfrwt>
<totfact> 0.67447638E+03</totfact>
</mgrwt>
</event>
<event>
 5    1  0.3316199E-002  0.1249994E+03  0.7818608E-02  0.1235070E+00
         -4   -1    0    0    0  501 -0.00000000000E+00  0.00000000000E+00  0.22166459159E+03  0.22166822972E+03  0.12700000000E+01 0.  1.
          4   -1    0    0  501    0  0.00000000000E+00 -0.00000000000E+00 -0.17595509097E+02  0.17641282277E+02  0.12700000000E+01 0.  1.
         25    2    1    2    0    0  0.00000000000E+00  0.00000000000E+00  0.20406908249E+03  0.23930951199E+03  0.12499940840E+03 0.  0.
    9000005    1    3    3    0    0 -0.37094010572E+02 -0.29559799904E+02  0.17992999087E+03  0.18607941585E+03  0.10000000000E+01 0.  0.
    9000005    1    3    3    0    0  0.37094010572E+02  0.29559799904E+02  0.24139091630E+02  0.53230096143E+02  0.10000000000E+01 0.  0.
<mgrwt>
<rscale>  0 0.12499941E+03</rscale>
<asrwt>0</asrwt>
<pdfrwt beam="2">  1        4 0.27108022E-02 0.12499941E+03</pdfrwt>
<pdfrwt beam="1">  1       -4 0.34106046E-01 0.12499941E+03</pdfrwt>
<totfact> 0.83901416E+03</totfact>
</mgrwt>
</event>
<event>
 5    1  0.3316199E-002  0.1249863E+03  0.7818608E-02  0.1235091E+00
         -4   -1    0    0    0  501 -0.00000000000E+00  0.00000000000E+00  0.10556215461E+02  0.10632336754E+02  0.12700000000E+01 0.  1.
          4   -1    0    0  501    0  0.00000000000E+00 -0.00000000000E+00 -0.36855543593E+03  0.36855762406E+03  0.12700000000E+01 0.  1.
         25    2    1    2    0    0  0.00000000000E+00  0.00000000000E+00 -0.35799922047E+03  0.37918996081E+03  0.12498633736E+03 0.  0.
    9000005    1    3    3    0    0 -0.50802048413E+02 -0.33037544900E+02 -0.13278252912E+03  0.14596070545E+03  0.10000000000E+01 0.  0.
    9000005    1    3    3    0    0  0.50802048413E+02  0.33037544900E+02 -0.22521669134E+03  0.23322925536E+03  0.10000000000E+01 0.  0.
<mgrwt>
<rscale>  0 0.12498634E+03</rscale>
<asrwt>0</asrwt>
<pdfrwt beam="2">  1        4 0.56706850E-01 0.12498634E+03</pdfrwt>
<pdfrwt beam="1">  1       -4 0.16300572E-02 0.12498634E+03</pdfrwt>
<totfact> 0.66648454E+03</totfact>
</mgrwt>
</event>
<event>
 5    1  0.3316199E-002  0.1250017E+03  0.7818608E-02  0.1235067E+00
         -4   -1    0    0    0  501 -0.00000000000E+00  0.00000000000E+00  0.11425649666E+03  0.11426355469E+03  0.12700000000E+01 0. -1.
          4   -1    0    0  501    0  0.00000000000E+00 -0.00000000000E+00 -0.34169449138E+02  0.34193042485E+02  0.12700000000E+01 0. -1.
         25    2    1    2    0    0  0.00000000000E+00  0.00000000000E+00  0.80087047525E+02  0.14845659717E+03  0.12500170424E+03 0.  0.
    9000005    1    3    3    0    0  0.49591866846E+02 -0.14273727053E+02 -0.18156366288E+01  0.51646772190E+02  0.10000000000E+01 0.  0.
    9000005    1    3    3    0    0 -0.49591866846E+02  0.14273727053E+02  0.81902684154E+02  0.96809824981E+02  0.10000000000E+01 0.  0.
<mgrwt>
<rscale>  0 0.12500170E+03</rscale>
<asrwt>0</asrwt>
<pdfrwt beam="2">  1        4 0.52591960E-02 0.12500170E+03</pdfrwt>
<pdfrwt beam="1">  1       -4 0.17580281E-01 0.12500170E+03</pdfrwt>
<totfact> 0.99608424E+03</totfact>
</mgrwt>
</event>
<event>
 5    1  0.3316199E-002  0.1250042E+03  0.7818608E-02  0.1235063E+00
         -4   -1    0    0    0  501 -0.00000000000E+00  0.00000000000E+00  0.10395275374E+04  0.10395283132E+04  0.12700000000E+01 0.  1.
          4   -1    0    0  501    0  0.00000000000E+00 -0.00000000000E+00 -0.36498717628E+01  0.38645134086E+01  0.12700000000E+01 0.  1.
         25    2    1    2    0    0  0.00000000000E+00  0.00000000000E+00  0.10358776656E+04  0.10433928266E+04  0.12500420961E+03 0.  0.
    9000005    1    3    3    0    0 -0.47391867207E+02 -0.39517304832E+02  0.43534848483E+03  0.43970093211E+03  0.10000000000E+01 0.  0.
    9000005    1    3    3    0    0  0.47391867207E+02  0.39517304832E+02  0.60052918081E+03  0.60369189449E+03  0.10000000000E+01 0.  0.
<mgrwt>
<rscale>  0 0.12500421E+03</rscale>
<asrwt>0</asrwt>
<pdfrwt beam="2">  1        4 0.57808830E-03 0.12500421E+03</pdfrwt>
<pdfrwt beam="1">  1       -4 0.15994416E+00 0.12500421E+03</pdfrwt>
<totfact> 0.29199230E+03</totfact>
</mgrwt>
</event>
<event>
 5    1  0.3316199E-002  0.1249993E+03  0.7818608E-02  0.1235070E+00
         -4   -1    0    0    0  501 -0.00000000000E+00  0.00000000000E+00  0.29067123050E+02  0.29094854226E+02  0.12700000000E+01 0.  1.
          4   -1    0    0  501    0  0.00000000000E+00 -0.00000000000E+00 -0.13429087230E+03  0.13429687741E+03  0.12700000000E+01 0.  1.
         25    2    1    2    0    0  0.00000000000E+00  0.00000000000E+00 -0.10522374925E+03  0.16339173164E+03  0.12499928224E+03 0.  0.
    9000005    1    3    3    0    0 -0.50076326915E+02 -0.17625731140E+02 -0.95705932989E+02  0.10944830069E+03  0.10000000000E+01 0.  0.
    9000005    1    3    3    0    0  0.50076326915E+02  0.17625731140E+02 -0.95178162567E+01  0.53943430942E+02  0.10000000000E+01 0.  0.
<mgrwt>
<rscale>  0 0.12499928E+03</rscale>
<asrwt>0</asrwt>
<pdfrwt beam="2">  1        4 0.20662729E-01 0.12499928E+03</pdfrwt>
<pdfrwt beam="1">  1       -4 0.44744602E-02 0.12499928E+03</pdfrwt>
<totfact> 0.96694402E+03</totfact>
</mgrwt>
</event>
<event>
 5    1  0.3316199E-002  0.1249999E+03  0.7818608E-02  0.1235069E+00
          4   -1    0    0  501    0  0.00000000000E+00  0.00000000000E+00  0.80261777033E+03  0.80261877511E+03  0.12700000000E+01 0.  1.
         -4   -1    0    0    0  501 -0.00000000000E+00 -0.00000000000E+00 -0.47830062371E+01  0.49487421295E+01  0.12700000000E+01 0.  1.
         25    2    1    2    0    0  0.00000000000E+00  0.00000000000E+00  0.79783476409E+03  0.80756751723E+03  0.12499993638E+03 0.  0.
    9000005    1    3    3    0    0  0.72377874283E+01 -0.26618633489E+02  0.36647986736E+02  0.45880411370E+02  0.10000000000E+01 0.  0.
    9000005    1    3    3    0    0 -0.72377874283E+01  0.26618633489E+02  0.76118677736E+03  0.76168710587E+03  0.10000000000E+01 0.  0.
<mgrwt>
<rscale>  0 0.12499994E+03</rscale>
<asrwt>0</asrwt>
<pdfrwt beam="1">  1        4 0.12349250E+00 0.12499994E+03</pdfrwt>
<pdfrwt beam="2">  1       -4 0.74867322E-03 0.12499994E+03</pdfrwt>
<totfact> 0.37929164E+03</totfact>
</mgrwt>
</event>
<event>
 5    1  0.3316199E-002  0.1250079E+03  0.7818608E-02  0.1235057E+00
          4   -1    0    0  501    0  0.00000000000E+00  0.00000000000E+00  0.73193188935E+03  0.73193299116E+03  0.12700000000E+01 0. -1.
         -4   -1    0    0    0  501 -0.00000000000E+00 -0.00000000000E+00 -0.52609109258E+01  0.54120313903E+01  0.12700000000E+01 0. -1.
         25    2    1    2    0    0  0.00000000000E+00  0.00000000000E+00  0.72667097842E+03  0.73734502255E+03  0.12500788533E+03 0.  0.
    9000005    1    3    3    0    0 -0.44442732127E+02 -0.26125645896E+02  0.57171119366E+03  0.57403170188E+03  0.10000000000E+01 0.  0.
    9000005    1    3    3    0    0  0.44442732127E+02  0.26125645896E+02  0.15495978476E+03  0.16331332066E+03  0.10000000000E+01 0.  0.
<mgrwt>
<rscale>  0 0.12500789E+03</rscale>
<asrwt>0</asrwt>
<pdfrwt beam="1">  1        4 0.11261667E+00 0.12500789E+03</pdfrwt>
<pdfrwt beam="2">  1       -4 0.82107996E-03 0.12500789E+03</pdfrwt>
<totfact> 0.41179746E+03</totfact>
</mgrwt>
</event>
<event>
 5    1  0.3316199E-002  0.1249988E+03  0.7818608E-02  0.1235071E+00
         -4   -1    0    0    0  501 -0.00000000000E+00  0.00000000000E+00  0.12226849643E+03  0.12227509198E+03  0.12700000000E+01 0. -1.
          4   -1    0    0  501    0  0.00000000000E+00 -0.00000000000E+00 -0.31927458583E+02  0.31952707421E+02  0.12700000000E+01 0. -1.
         25    2    1    2    0    0  0.00000000000E+00  0.00000000000E+00  0.90341037847E+02  0.15422779940E+03  0.12499884395E+03 0.  0.
    9000005    1    3    3    0    0  0.28004314189E+02 -0.53612025014E+02  0.25791592393E+02  0.65762429073E+02  0.10000000000E+01 0.  0.
    9000005    1    3    3    0    0 -0.28004314189E+02  0.53612025014E+02  0.64549445454E+02  0.88465370331E+02  0.10000000000E+01 0.  0.
<mgrwt>
<rscale>  0 0.12499884E+03</rscale>
<asrwt>0</asrwt>
<pdfrwt beam="2">  1        4 0.49143662E-02 0.12499884E+03</pdfrwt>
<pdfrwt beam="1">  1       -4 0.18812988E-01 0.12499884E+03</pdfrwt>
<totfact> 0.98469865E+03</totfact>
</mgrwt>
</event>
<event>
 5    1  0.3316199E-002  0.1250008E+03  0.7818608E-02  0.1235068E+00
         -4   -1    0    0    0  501 -0.00000000000E+00  0.00000000000E+00  0.11270804018E+02  0.11342130453E+02  0.12700000000E+01 0.  1.
          4   -1    0    0  501    0  0.00000000000E+00 -0.00000000000E+00 -0.34542004670E+03  0.34542238138E+03  0.12700000000E+01 0.  1.
         25    2    1    2    0    0  0.00000000000E+00  0.00000000000E+00 -0.33414924268E+03  0.35676451183E+03  0.12500080209E+03 0.  0.
    9000005    1    3    3    0    0 -0.55411586475E+02 -0.26969632881E+02 -0.13748337780E+03  0.15066679854E+03  0.10000000000E+01 0.  0.
    9000005    1    3    3    0    0  0.55411586475E+02  0.26969632881E+02 -0.19666586488E+03  0.20609771329E+03  0.10000000000E+01 0.  0.
<mgrwt>
<rscale>  0 0.12500080E+03</rscale>
<asrwt>0</asrwt>
<pdfrwt beam="2">  1        4 0.53147204E-01 0.12500080E+03</pdfrwt>
<pdfrwt beam="1">  1       -4 0.17396364E-02 0.12500080E+03</pdfrwt>
<totfact> 0.68985512E+03</totfact>
</mgrwt>
</event>
<event>
 5    1  0.3316199E-002  0.1250029E+03  0.7818608E-02  0.1235065E+00
         -4   -1    0    0    0  501 -0.00000000000E+00  0.00000000000E+00  0.83698474400E+02  0.83708109027E+02  0.12700000000E+01 0.  1.
          4   -1    0    0  501    0  0.00000000000E+00 -0.00000000000E+00 -0.46651690931E+02  0.46668974348E+02  0.12700000000E+01 0.  1.
         25    2    1    2    0    0  0.00000000000E+00  0.00000000000E+00  0.37046783469E+02  0.13037708337E+03  0.12500287878E+03 0.  0.
    9000005    1    3    3    0    0 -0.57916603705E+02 -0.19736457189E+02  0.31780858051E+02  0.68955664492E+02  0.10000000000E+01 0.  0.
    9000005    1    3    3    0    0  0.57916603705E+02  0.19736457189E+02  0.52659254172E+01  0.61421418883E+02  0.10000000000E+01 0.  0.
<mgrwt>
<rscale>  0 0.12500288E+03</rscale>
<asrwt>0</asrwt>
<pdfrwt beam="2">  1        4 0.71792538E-02 0.12500288E+03</pdfrwt>
<pdfrwt beam="1">  1       -4 0.12878759E-01 0.12500288E+03</pdfrwt>
<totfact> 0.10335776E+04</totfact>
</mgrwt>
</event>
<event>
 5    1  0.3316199E-002  0.1249908E+03  0.7818608E-02  0.1235084E+00
         -4   -1    0    0    0  501 -0.00000000000E+00  0.00000000000E+00  0.22811616543E+02  0.22846941793E+02  0.12700000000E+01 0.  1.
          4   -1    0    0  501    0  0.00000000000E+00 -0.00000000000E+00 -0.17104408077E+03  0.17104879557E+03  0.12700000000E+01 0.  1.
         25    2    1    2    0    0  0.00000000000E+00  0.00000000000E+00 -0.14823246422E+03  0.19389573736E+03  0.12499077373E+03 0.  0.
    9000005    1    3    3    0    0 -0.19055853710E+02  0.11936221925E+02 -0.16455833299E+03  0.16609046906E+03  0.10000000000E+01 0.  0.
    9000005    1    3    3    0    0  0.19055853710E+02 -0.11936221925E+02  0.16325868768E+02  0.27805268305E+02  0.10000000000E+01 0.  0.
<mgrwt>
<rscale>  0 0.12499077E+03</rscale>
<asrwt>0</asrwt>
<pdfrwt beam="2">  1        4 0.26317553E-01 0.12499077E+03</pdfrwt>
<pdfrwt beam="1">  1       -4 0.35125596E-02 0.12499077E+03</pdfrwt>
<totfact> 0.91192692E+03</totfact>
</mgrwt>
</event>
<event>
 5    1  0.3316199E-002  0.1249801E+03  0.7818608E-02  0.1235100E+00
          4   -1    0    0  501    0  0.00000000000E+00  0.00000000000E+00  0.30469313970E+02  0.30495770097E+02  0.12700000000E+01 0. -1.
         -4   -1    0    0    0  501 -0.00000000000E+00 -0.00000000000E+00 -0.12807662767E+03  0.12808292414E+03  0.12700000000E+01 0. -1.
         25    2    1    2    0    0  0.00000000000E+00  0.00000000000E+00 -0.97607313703E+02  0.15857869424E+03  0.12498005672E+03 0.  0.
    9000005    1    3    3    0    0 -0.47185681895E+02  0.23287775524E+02 -0.60533462493E+01  0.52975957429E+02  0.10000000000E+01 0.  0.
    9000005    1    3    3    0    0  0.47185681895E+02 -0.23287775524E+02 -0.91553967454E+02  0.10560273681E+03  0.10000000000E+01 0.  0.
<mgrwt>
<rscale>  0 0.12498006E+03</rscale>
<asrwt>0</asrwt>
<pdfrwt beam="1">  1        4 0.46901063E-02 0.12498006E+03</pdfrwt>
<pdfrwt beam="2">  1       -4 0.19706616E-01 0.12498006E+03</pdfrwt>
<totfact> 0.97661282E+03</totfact>
</mgrwt>
</event>
<event>
 5    1  0.3316199E-002  0.1250049E+03  0.7818608E-02  0.1235062E+00
         -4   -1    0    0    0  501 -0.00000000000E+00  0.00000000000E+00  0.10433009251E+04  0.10433016981E+04  0.12700000000E+01 0.  1.
          4   -1    0    0  501    0  0.00000000000E+00 -0.00000000000E+00 -0.36359375696E+01  0.38513558664E+01  0.12700000000E+01 0.  1.
         25    2    1    2    0    0  0.00000000000E+00  0.00000000000E+00  0.10396649875E+04  0.10471530539E+04  0.12500492826E+03 0.  0.
    9000005    1    3    3    0    0  0.51828144619E+02  0.12620337014E+02  0.79258094421E+03  0.79437458583E+03  0.10000000000E+01 0.  0.
    9000005    1    3    3    0    0 -0.51828144619E+02 -0.12620337014E+02  0.24708404329E+03  0.25277846809E+03  0.10000000000E+01 0.  0.
<mgrwt>
<rscale>  0 0.12500493E+03</rscale>
<asrwt>0</asrwt>
<pdfrwt beam="2">  1        4 0.57600503E-03 0.12500493E+03</pdfrwt>
<pdfrwt beam="1">  1       -4 0.16052449E+00 0.12500493E+03</pdfrwt>
<totfact> 0.29080695E+03</totfact>
</mgrwt>
</event>
<event>
 5    1  0.3316199E-002  0.1249521E+03  0.7818608E-02  0.1235144E+00
          4   -1    0    0  501    0  0.00000000000E+00  0.00000000000E+00  0.49129019630E+03  0.49129183780E+03  0.12700000000E+01 0.  1.
         -4   -1    0    0    0  501 -0.00000000000E+00 -0.00000000000E+00 -0.78924938709E+01  0.79940202340E+01  0.12700000000E+01 0.  1.
         25    2    1    2    0    0  0.00000000000E+00  0.00000000000E+00  0.48339770243E+03  0.49928585803E+03  0.12495210807E+03 0.  0.
    9000005    1    3    3    0    0 -0.10318929442E+02  0.56541014293E+02  0.33948547942E+03  0.34431781444E+03  0.10000000000E+01 0.  0.
    9000005    1    3    3    0    0  0.10318929442E+02 -0.56541014293E+02  0.14391222301E+03  0.15496804359E+03  0.10000000000E+01 0.  0.
<mgrwt>
<rscale>  0 0.12495211E+03</rscale>
<asrwt>0</asrwt>
<pdfrwt beam="1">  1        4 0.75591044E-01 0.12495211E+03</pdfrwt>
<pdfrwt beam="2">  1       -4 0.12221658E-02 0.12495211E+03</pdfrwt>
<totfact> 0.55978745E+03</totfact>
</mgrwt>
</event>
<event>
 5    1  0.3316199E-002  0.1249996E+03  0.7818608E-02  0.1235070E+00
          4   -1    0    0  501    0  0.00000000000E+00  0.00000000000E+00  0.10935010647E+04  0.10935018021E+04  0.12700000000E+01 0. -1.
         -4   -1    0    0    0  501 -0.00000000000E+00 -0.00000000000E+00 -0.34585760334E+01  0.36843789407E+01  0.12700000000E+01 0. -1.
         25    2    1    2    0    0  0.00000000000E+00  0.00000000000E+00  0.10900424886E+04  0.10971861811E+04  0.12499955589E+03 0.  0.
    9000005    1    3    3    0    0 -0.56934480702E+02 -0.75340408475E+01  0.76126297476E+03  0.76342688818E+03  0.10000000000E+01 0.  0.
    9000005    1    3    3    0    0  0.56934480702E+02  0.75340408475E+01  0.32877951387E+03  0.33375929291E+03  0.10000000000E+01 0.  0.
<mgrwt>
<rscale>  0 0.12499956E+03</rscale>
<asrwt>0</asrwt>
<pdfrwt beam="1">  1        4 0.16824828E+00 0.12499956E+03</pdfrwt>
<pdfrwt beam="2">  1       -4 0.54951506E-03 0.12499956E+03</pdfrwt>
<totfact> 0.27566167E+03</totfact>
</mgrwt>
</event>
<event>
 5    1  0.3316199E-002  0.1249943E+03  0.7818608E-02  0.1235078E+00
         -4   -1    0    0    0  501 -0.00000000000E+00  0.00000000000E+00  0.17191548501E+02  0.17238394353E+02  0.12700000000E+01 0.  1.
          4   -1    0    0  501    0  0.00000000000E+00 -0.00000000000E+00 -0.22684056879E+03  0.22684412390E+03  0.12700000000E+01 0.  1.
         25    2    1    2    0    0  0.00000000000E+00  0.00000000000E+00 -0.20964902029E+03  0.24408251825E+03  0.12499425591E+03 0.  0.
    9000005    1    3    3    0    0 -0.37269426100E+02 -0.46531330644E+02 -0.14139447153E+03  0.15345217963E+03  0.10000000000E+01 0.  0.
    9000005    1    3    3    0    0  0.37269426100E+02  0.46531330644E+02 -0.68254548757E+02  0.90630338625E+02  0.10000000000E+01 0.  0.
<mgrwt>
<rscale>  0 0.12499426E+03</rscale>
<asrwt>0</asrwt>
<pdfrwt beam="2">  1        4 0.34902424E-01 0.12499426E+03</pdfrwt>
<pdfrwt beam="1">  1       -4 0.26487308E-02 0.12499426E+03</pdfrwt>
<totfact> 0.83203733E+03</totfact>
</mgrwt>
</event>
<event>
 5    1  0.3316199E-002  0.1249994E+03  0.7818608E-02  0.1235070E+00
          4   -1    0    0  501    0  0.00000000000E+00  0.00000000000E+00  0.98851207265E+02  0.98859365149E+02  0.12700000000E+01 0. -1.
         -4   -1    0    0    0  501 -0.00000000000E+00 -0.00000000000E+00 -0.39496082502E+02  0.39516495708E+02  0.12700000000E+01 0. -1.
         25    2    1    2    0    0  0.00000000000E+00  0.00000000000E+00  0.59355124763E+02  0.13837586086E+03  0.12499939213E+03 0.  0.
    9000005    1    3    3    0    0  0.41465498940E+02  0.18330869848E+02  0.77289433217E+02  0.89610629273E+02  0.10000000000E+01 0.  0.
    9000005    1    3    3    0    0 -0.41465498940E+02 -0.18330869848E+02 -0.17934308454E+02  0.48765231584E+02  0.10000000000E+01 0.  0.
<mgrwt>
<rscale>  0 0.12499939E+03</rscale>
<asrwt>0</asrwt>
<pdfrwt beam="1">  1        4 0.15210076E-01 0.12499939E+03</pdfrwt>
<pdfrwt beam="2">  1       -4 0.60785182E-02 0.12499939E+03</pdfrwt>
<totfact> 0.10167498E+04</totfact>
</mgrwt>
</event>
<event>
 5    1  0.3316199E-002  0.1250010E+03  0.7818608E-02  0.1235068E+00
         -4   -1    0    0    0  501 -0.00000000000E+00  0.00000000000E+00  0.61393160230E+02  0.61406294653E+02  0.12700000000E+01 0. -1.
          4   -1    0    0  501    0  0.00000000000E+00 -0.00000000000E+00 -0.63601483505E+02  0.63614161978E+02  0.12700000000E+01 0. -1.
         25    2    1    2    0    0  0.00000000000E+00  0.00000000000E+00 -0.22083232756E+01  0.12502045663E+03  0.12500095153E+03 0.  0.
    9000005    1    3    3    0    0  0.50788763030E+02 -0.18444477057E+02 -0.32503523098E+02  0.63064857075E+02  0.10000000000E+01 0.  0.
    9000005    1    3    3    0    0 -0.50788763030E+02  0.18444477057E+02  0.30295199823E+02  0.61955599556E+02  0.10000000000E+01 0.  0.
<mgrwt>
<rscale>  0 0.12500095E+03</rscale>
<asrwt>0</asrwt>
<pdfrwt beam="2">  1        4 0.97868292E-02 0.12500095E+03</pdfrwt>
<pdfrwt beam="1">  1       -4 0.94470872E-02 0.12500095E+03</pdfrwt>
<totfact> 0.10452193E+04</totfact>
</mgrwt>
</event>
<event>
 5    1  0.3316199E-002  0.1250019E+03  0.7818608E-02  0.1235066E+00
          4   -1    0    0  501    0  0.00000000000E+00  0.00000000000E+00  0.10277510250E+02  0.10355680419E+02  0.12700000000E+01 0.  1.
         -4   -1    0    0    0  501 -0.00000000000E+00 -0.00000000000E+00 -0.37856970491E+03  0.37857183516E+03  0.12700000000E+01 0.  1.
         25    2    1    2    0    0  0.00000000000E+00  0.00000000000E+00 -0.36829219466E+03  0.38892751558E+03  0.12500188689E+03 0.  0.
    9000005    1    3    3    0    0  0.54439078922E+02  0.63249711774E+01 -0.90714231570E+02  0.10598910502E+03  0.10000000000E+01 0.  0.
    9000005    1    3    3    0    0 -0.54439078922E+02 -0.63249711774E+01 -0.27757796309E+03  0.28293841055E+03  0.10000000000E+01 0.  0.
<mgrwt>
<rscale>  0 0.12500189E+03</rscale>
<asrwt>0</asrwt>
<pdfrwt beam="1">  1        4 0.15873327E-02 0.12500189E+03</pdfrwt>
<pdfrwt beam="2">  1       -4 0.58247659E-01 0.12500189E+03</pdfrwt>
<totfact> 0.65641392E+03</totfact>
</mgrwt>
</event>
<event>
 5    1  0.3316199E-002  0.1249976E+03  0.7818608E-02  0.1235073E+00
         -4   -1    0    0    0  501 -0.00000000000E+00  0.00000000000E+00  0.36379969339E+03  0.36380191013E+03  0.12700000000E+01 0.  1.
          4   -1    0    0  501    0  0.00000000000E+00 -0.00000000000E+00 -0.10697134923E+02  0.10772260467E+02  0.12700000000E+01 0.  1.
         25    2    1    2    0    0  0.00000000000E+00  0.00000000000E+00  0.35310255847E+03  0.37457417059E+03  0.12499756989E+03 0.  0.
    9000005    1    3    3    0    0 -0.48220316091E+02 -0.27596494404E+02  0.26227504049E+03  0.26809692698E+03  0.10000000000E+01 0.  0.
    9000005    1    3    3    0    0  0.48220316091E+02  0.27596494404E+02  0.90827517974E+02  0.10647724362E+03  0.10000000000E+01 0.  0.
<mgrwt>
<rscale>  0 0.12499757E+03</rscale>
<asrwt>0</asrwt>
<pdfrwt beam="2">  1        4 0.16516626E-02 0.12499757E+03</pdfrwt>
<pdfrwt beam="1">  1       -4 0.55975128E-01 0.12499757E+03</pdfrwt>
<totfact> 0.67106699E+03</totfact>
</mgrwt>
</event>
<event>
 5    1  0.3316199E-002  0.1249983E+03  0.7818608E-02  0.1235072E+00
         -4   -1    0    0    0  501 -0.00000000000E+00  0.00000000000E+00  0.24665781154E+02  0.24698454606E+02  0.12700000000E+01 0. -1.
          4   -1    0    0  501    0  0.00000000000E+00 -0.00000000000E+00 -0.15822282831E+03  0.15822792515E+03  0.12700000000E+01 0. -1.
         25    2    1    2    0    0  0.00000000000E+00  0.00000000000E+00 -0.13355704715E+03  0.18292637976E+03  0.12499830225E+03 0.  0.
    9000005    1    3    3    0    0  0.42994055648E+02 -0.26332044453E+02 -0.12744847026E+02  0.52012464966E+02  0.10000000000E+01 0.  0.
    9000005    1    3    3    0    0 -0.42994055648E+02  0.26332044453E+02 -0.12081220013E+03  0.13091391479E+03  0.10000000000E+01 0.  0.
<mgrwt>
<rscale>  0 0.12499830E+03</rscale>
<asrwt>0</asrwt>
<pdfrwt beam="2">  1        4 0.24344878E-01 0.12499830E+03</pdfrwt>
<pdfrwt beam="1">  1       -4 0.37976411E-02 0.12499830E+03</pdfrwt>
<totfact> 0.93096425E+03</totfact>
</mgrwt>
</event>
<event>
 5    1  0.3316199E-002  0.1250061E+03  0.7818608E-02  0.1235060E+00
          4   -1    0    0  501    0  0.00000000000E+00  0.00000000000E+00  0.10738543796E+03  0.10739294756E+03  0.12700000000E+01 0.  1.
         -4   -1    0    0    0  501 -0.00000000000E+00 -0.00000000000E+00 -0.36359647738E+02  0.36381820785E+02  0.12700000000E+01 0.  1.
         25    2    1    2    0    0  0.00000000000E+00  0.00000000000E+00  0.71025790217E+02  0.14377476834E+03  0.12500608440E+03 0.  0.
    9000005    1    3    3    0    0  0.42909637036E+02 -0.11754460909E+02  0.85991244225E+02  0.96824058917E+02  0.10000000000E+01 0.  0.
    9000005    1    3    3    0    0 -0.42909637036E+02  0.11754460909E+02 -0.14965454008E+02  0.46950709425E+02  0.10000000000E+01 0.  0.
<mgrwt>
<rscale>  0 0.12500608E+03</rscale>
<asrwt>0</asrwt>
<pdfrwt beam="1">  1        4 0.16523120E-01 0.12500608E+03</pdfrwt>
<pdfrwt beam="2">  1       -4 0.55960752E-02 0.12500608E+03</pdfrwt>
<totfact> 0.10054564E+04</totfact>
</mgrwt>
</event>
<event>
 5    1  0.3316199E-002  0.1249970E+03  0.7818608E-02  0.1235074E+00
         -4   -1    0    0    0  501 -0.00000000000E+00  0.00000000000E+00  0.43505643037E+03  0.43505828403E+03  0.12700000000E+01 0. -1.
          4   -1    0    0  501    0  0.00000000000E+00 -0.00000000000E+00 -0.89314984589E+01  0.90213394084E+01  0.12700000000E+01 0. -1.
         25    2    1    2    0    0  0.00000000000E+00  0.00000000000E+00  0.42612493191E+03  0.44407962344E+03  0.12499701740E+03 0.  0.
    9000005    1    3    3    0    0 -0.28615255466E+02 -0.18006492439E+02  0.26350223460E+02  0.42876577426E+02  0.10000000000E+01 0.  0.
    9000005    1    3    3    0    0  0.28615255466E+02  0.18006492439E+02  0.39977470845E+03  0.40120304601E+03  0.10000000000E+01 0.  0.
<mgrwt>
<rscale>  0 0.12499702E+03</rscale>
<asrwt>0</asrwt>
<pdfrwt beam="2">  1        4 0.13811301E-02 0.12499702E+03</pdfrwt>
<pdfrwt beam="1">  1       -4 0.66938811E-01 0.12499702E+03</pdfrwt>
<totfact> 0.60484104E+03</totfact>
</mgrwt>
</event>
<event>
 5    1  0.3316199E-002  0.1249929E+03  0.7818608E-02  0.1235080E+00
          4   -1    0    0  501    0  0.00000000000E+00  0.00000000000E+00  0.93670103672E+01  0.94527130084E+01  0.12700000000E+01 0. -1.
         -4   -1    0    0    0  501 -0.00000000000E+00 -0.00000000000E+00 -0.41498932822E+03  0.41499127151E+03  0.12700000000E+01 0. -1.
         25    2    1    2    0    0  0.00000000000E+00  0.00000000000E+00 -0.40562231785E+03  0.42444398452E+03  0.12499292484E+03 0.  0.
    9000005    1    3    3    0    0  0.23199509255E+02 -0.10739534470E+02 -0.91866478430E+01  0.27183622439E+02  0.10000000000E+01 0.  0.
    9000005    1    3    3    0    0 -0.23199509255E+02  0.10739534470E+02 -0.39643567001E+03  0.39726036208E+03  0.10000000000E+01 0.  0.
<mgrwt>
<rscale>  0 0.12499292E+03</rscale>
<asrwt>0</asrwt>
<pdfrwt beam="1">  1        4 0.14478208E-02 0.12499292E+03</pdfrwt>
<pdfrwt beam="2">  1       -4 0.63851240E-01 0.12499292E+03</pdfrwt>
<totfact> 0.62252578E+03</totfact>
</mgrwt>
</event>
<event>
 5    1  0.3316199E-002  0.1249819E+03  0.7818608E-02  0.1235098E+00
          4   -1    0    0  501    0  0.00000000000E+00  0.00000000000E+00  0.31898451538E+02  0.31923723319E+02  0.12700000000E+01 0. -1.
         -4   -1    0    0    0  501 -0.00000000000E+00 -0.00000000000E+00 -0.12234632570E+03  0.12235291706E+03  0.12700000000E+01 0. -1.
         25    2    1    2    0    0  0.00000000000E+00  0.00000000000E+00 -0.90447874161E+02  0.15427664038E+03  0.12498185398E+03 0.  0.
    9000005    1    3    3    0    0  0.10367197457E+01  0.23392922272E+02  0.26283636968E+02  0.35215524595E+02  0.10000000000E+01 0.  0.
    9000005    1    3    3    0    0 -0.10367197457E+01 -0.23392922272E+02 -0.11673151113E+03  0.11906111578E+03  0.10000000000E+01 0.  0.
<mgrwt>
<rscale>  0 0.12498185E+03</rscale>
<asrwt>0</asrwt>
<pdfrwt beam="1">  1        4 0.49099052E-02 0.12498185E+03</pdfrwt>
<pdfrwt beam="2">  1       -4 0.18824962E-01 0.12498185E+03</pdfrwt>
<totfact> 0.98497885E+03</totfact>
</mgrwt>
</event>
<event>
 5    1  0.3316199E-002  0.1249976E+03  0.7818608E-02  0.1235073E+00
          4   -1    0    0  501    0  0.00000000000E+00  0.00000000000E+00  0.29679333921E+03  0.29679605641E+03  0.12700000000E+01 0.  1.
         -4   -1    0    0    0  501 -0.00000000000E+00 -0.00000000000E+00 -0.13127579806E+02  0.13188868471E+02  0.12700000000E+01 0.  1.
         25    2    1    2    0    0  0.00000000000E+00  0.00000000000E+00  0.28366575940E+03  0.30998492488E+03  0.12499756235E+03 0.  0.
    9000005    1    3    3    0    0  0.52318498440E+02 -0.29473655685E+02  0.18472745761E+03  0.19424509068E+03  0.10000000000E+01 0.  0.
    9000005    1    3    3    0    0 -0.52318498440E+02  0.29473655685E+02  0.98938301793E+02  0.11573983420E+03  0.10000000000E+01 0.  0.
<mgrwt>
<rscale>  0 0.12499756E+03</rscale>
<asrwt>0</asrwt>
<pdfrwt beam="1">  1        4 0.45665432E-01 0.12499756E+03</pdfrwt>
<pdfrwt beam="2">  1       -4 0.20245514E-02 0.12499756E+03</pdfrwt>
<totfact> 0.74367202E+03</totfact>
</mgrwt>
</event>
<event>
 5    1  0.3316199E-002  0.1250198E+03  0.7818608E-02  0.1235038E+00
         -4   -1    0    0    0  501 -0.00000000000E+00  0.00000000000E+00  0.51642700420E+01  0.53181373681E+01  0.12700000000E+01 0. -1.
          4   -1    0    0  501    0  0.00000000000E+00 -0.00000000000E+00 -0.74537838811E+03  0.74537947004E+03  0.12700000000E+01 0. -1.
         25    2    1    2    0    0  0.00000000000E+00  0.00000000000E+00 -0.74021411807E+03  0.75069760741E+03  0.12501982717E+03 0.  0.
    9000005    1    3    3    0    0  0.52065412947E+02 -0.32146140616E+02 -0.29360806596E+03  0.29991811879E+03  0.10000000000E+01 0.  0.
    9000005    1    3    3    0    0 -0.52065412947E+02  0.32146140616E+02 -0.44660605211E+03  0.45077948863E+03  0.10000000000E+01 0.  0.
<mgrwt>
<rscale>  0 0.12501983E+03</rscale>
<asrwt>0</asrwt>
<pdfrwt beam="2">  1        4 0.11468543E+00 0.12501983E+03</pdfrwt>
<pdfrwt beam="1">  1       -4 0.80642285E-03 0.12501983E+03</pdfrwt>
<totfact> 0.40523248E+03</totfact>
</mgrwt>
</event>
<event>
 5    1  0.3316199E-002  0.1250005E+03  0.7818608E-02  0.1235069E+00
         -4   -1    0    0    0  501 -0.00000000000E+00  0.00000000000E+00  0.21390994972E+02  0.21428662252E+02  0.12700000000E+01 0.  1.
          4   -1    0    0  501    0  0.00000000000E+00 -0.00000000000E+00 -0.18241280816E+03  0.18241722913E+03  0.12700000000E+01 0.  1.
         25    2    1    2    0    0  0.00000000000E+00  0.00000000000E+00 -0.16102181319E+03  0.20384589138E+03  0.12500049243E+03 0.  0.
    9000005    1    3    3    0    0 -0.21910011261E+02 -0.51694826811E+02 -0.35765107114E+02  0.66577373029E+02  0.10000000000E+01 0.  0.
    9000005    1    3    3    0    0  0.21910011261E+02  0.51694826811E+02 -0.12525670608E+03  0.13726851835E+03  0.10000000000E+01 0.  0.
<mgrwt>
<rscale>  0 0.12500049E+03</rscale>
<asrwt>0</asrwt>
<pdfrwt beam="2">  1        4 0.28066746E-01 0.12500049E+03</pdfrwt>
<pdfrwt beam="1">  1       -4 0.32941600E-02 0.12500049E+03</pdfrwt>
<totfact> 0.89489909E+03</totfact>
</mgrwt>
</event>
<event>
 5    1  0.3316199E-002  0.1250003E+03  0.7818608E-02  0.1235069E+00
         -4   -1    0    0    0  501 -0.00000000000E+00  0.00000000000E+00  0.24977656269E+02  0.25009922285E+02  0.12700000000E+01 0. -1.
          4   -1    0    0  501    0  0.00000000000E+00 -0.00000000000E+00 -0.15625465756E+03  0.15625981860E+03  0.12700000000E+01 0. -1.
         25    2    1    2    0    0  0.00000000000E+00  0.00000000000E+00 -0.13127700129E+03  0.18126974088E+03  0.12500027157E+03 0.  0.
    9000005    1    3    3    0    0 -0.21938510003E+02 -0.49139335630E+02 -0.11170904025E+03  0.12399952501E+03  0.10000000000E+01 0.  0.
    9000005    1    3    3    0    0  0.21938510003E+02  0.49139335630E+02 -0.19567961033E+02  0.57270215875E+02  0.10000000000E+01 0.  0.
<mgrwt>
<rscale>  0 0.12500027E+03</rscale>
<asrwt>0</asrwt>
<pdfrwt beam="2">  1        4 0.24042057E-01 0.12500027E+03</pdfrwt>
<pdfrwt beam="1">  1       -4 0.38455954E-02 0.12500027E+03</pdfrwt>
<totfact> 0.93388375E+03</totfact>
</mgrwt>
</event>
<event>
 5    1  0.3316199E-002  0.1250000E+03  0.7818608E-02  0.1235069E+00
          4   -1    0    0  501    0  0.00000000000E+00  0.00000000000E+00  0.30289240209E+02  0.30315853484E+02  0.12700000000E+01 0.  1.
         -4   -1    0    0    0  501 -0.00000000000E+00 -0.00000000000E+00 -0.12887847740E+03  0.12888473469E+03  0.12700000000E+01 0.  1.
         25    2    1    2    0    0  0.00000000000E+00  0.00000000000E+00 -0.98589237186E+02  0.15920058817E+03  0.12499995834E+03 0.  0.
    9000005    1    3    3    0    0  0.28746243893E+02 -0.28495493467E+02 -0.10993357513E+03  0.11715259548E+03  0.10000000000E+01 0.  0.
    9000005    1    3    3    0    0 -0.28746243893E+02  0.28495493467E+02  0.11344337948E+02  0.42047992692E+02  0.10000000000E+01 0.  0.
<mgrwt>
<rscale>  0 0.12499996E+03</rscale>
<asrwt>0</asrwt>
<pdfrwt beam="1">  1        4 0.46624117E-02 0.12499996E+03</pdfrwt>
<pdfrwt beam="2">  1       -4 0.19829986E-01 0.12499996E+03</pdfrwt>
<totfact> 0.97497218E+03</totfact>
</mgrwt>
</event>
<event>
 5    1  0.3316199E-002  0.1250083E+03  0.7818608E-02  0.1235056E+00
          4   -1    0    0  501    0  0.00000000000E+00  0.00000000000E+00  0.51208445611E+02  0.51224191569E+02  0.12700000000E+01 0.  1.
         -4   -1    0    0    0  501 -0.00000000000E+00 -0.00000000000E+00 -0.76258733293E+02  0.76269307742E+02  0.12700000000E+01 0.  1.
         25    2    1    2    0    0  0.00000000000E+00  0.00000000000E+00 -0.25050287682E+02  0.12749349931E+03  0.12500830154E+03 0.  0.
    9000005    1    3    3    0    0 -0.45707664287E+02 -0.13331561164E+01  0.30922245903E+02  0.55210082155E+02  0.10000000000E+01 0.  0.
    9000005    1    3    3    0    0  0.45707664287E+02  0.13331561164E+01 -0.55972533586E+02  0.72283417156E+02  0.10000000000E+01 0.  0.
<mgrwt>
<rscale>  0 0.12500830E+03</rscale>
<asrwt>0</asrwt>
<pdfrwt beam="1">  1        4 0.78802470E-02 0.12500830E+03</pdfrwt>
<pdfrwt beam="2">  1       -4 0.11734137E-01 0.12500830E+03</pdfrwt>
<totfact> 0.10396493E+04</totfact>
</mgrwt>
</event>
<event>
 5    1  0.3316199E-002  0.1250001E+03  0.7818608E-02  0.1235069E+00
         -4   -1    0    0    0  501 -0.00000000000E+00  0.00000000000E+00  0.10815848116E+03  0.10816593709E+03  0.12700000000E+01 0.  1.
          4   -1    0    0  501    0  0.00000000000E+00 -0.00000000000E+00 -0.36096151820E+02  0.36118486626E+02  0.12700000000E+01 0.  1.
         25    2    1    2    0    0  0.00000000000E+00  0.00000000000E+00  0.72062329338E+02  0.14428442372E+03  0.12500006247E+03 0.  0.
    9000005    1    3    3    0    0  0.51467920121E+01  0.62275100732E+02  0.35154930067E+02  0.71704579681E+02  0.10000000000E+01 0.  0.
    9000005    1    3    3    0    0 -0.51467920121E+01 -0.62275100732E+02  0.36907399271E+02  0.72579844035E+02  0.10000000000E+01 0.  0.
<mgrwt>
<rscale>  0 0.12500006E+03</rscale>
<asrwt>0</asrwt>
<pdfrwt beam="2">  1        4 0.55555458E-02 0.12500006E+03</pdfrwt>
<pdfrwt beam="1">  1       -4 0.16642058E-01 0.12500006E+03</pdfrwt>
<totfact> 0.10045533E+04</totfact>
</mgrwt>
</event>
<event>
 5    1  0.3316199E-002  0.1250065E+03  0.7818608E-02  0.1235059E+00
         -4   -1    0    0    0  501 -0.00000000000E+00  0.00000000000E+00  0.24586207202E+03  0.24586535209E+03  0.12700000000E+01 0.  1.
          4   -1    0    0  501    0  0.00000000000E+00 -0.00000000000E+00 -0.15860863989E+02  0.15911628028E+02  0.12700000000E+01 0.  1.
         25    2    1    2    0    0  0.00000000000E+00  0.00000000000E+00  0.23000120803E+03  0.26177698012E+03  0.12500652632E+03 0.  0.
    9000005    1    3    3    0    0  0.38394086330E+00 -0.56750518665E+02  0.60197027491E+02  0.82737240092E+02  0.10000000000E+01 0.  0.
    9000005    1    3    3    0    0 -0.38394086330E+00  0.56750518665E+02  0.16980418054E+03  0.17903974003E+03  0.10000000000E+01 0.  0.
<mgrwt>
<rscale>  0 0.12500653E+03</rscale>
<asrwt>0</asrwt>
<pdfrwt beam="2">  1        4 0.24442902E-02 0.12500653E+03</pdfrwt>
<pdfrwt beam="1">  1       -4 0.37829090E-01 0.12500653E+03</pdfrwt>
<totfact> 0.80645617E+03</totfact>
</mgrwt>
</event>
<event>
 5    1  0.3316199E-002  0.1249972E+03  0.7818608E-02  0.1235074E+00
         -4   -1    0    0    0  501 -0.00000000000E+00  0.00000000000E+00  0.22814648636E+02  0.22849969199E+02  0.12700000000E+01 0.  1.
          4   -1    0    0  501    0  0.00000000000E+00 -0.00000000000E+00 -0.17103887436E+03  0.17104358930E+03  0.12700000000E+01 0.  1.
         25    2    1    2    0    0  0.00000000000E+00  0.00000000000E+00 -0.14822422572E+03  0.19389355850E+03  0.12499716372E+03 0.  0.
    9000005    1    3    3    0    0  0.49402208033E+02  0.36854070152E+02 -0.90103010071E+02  0.10917120989E+03  0.10000000000E+01 0.  0.
    9000005    1    3    3    0    0 -0.49402208033E+02 -0.36854070152E+02 -0.58121215651E+02  0.84722348611E+02  0.10000000000E+01 0.  0.
<mgrwt>
<rscale>  0 0.12499716E+03</rscale>
<asrwt>0</asrwt>
<pdfrwt beam="2">  1        4 0.26316752E-01 0.12499716E+03</pdfrwt>
<pdfrwt beam="1">  1       -4 0.35130257E-02 0.12499716E+03</pdfrwt>
<totfact> 0.91180018E+03</totfact>
</mgrwt>
</event>
<event>
 4    1  0.3316199E-002  0.1250642E+03  0.7818608E-02  0.1234969E+00
         -4   -1    0    0    0  501 -0.00000000000E+00  0.00000000000E+00  0.17108973766E+04  0.17108978479E+04  0.12700000000E+01 0. -1.
          4   -1    0    0  501    0  0.00000000000E+00 -0.00000000000E+00 -0.21085706687E+01  0.24614975655E+01  0.12700000000E+01 0. -1.
    9000005    1    1    2    0    0 -0.37979917473E+02  0.10001948274E+02  0.18790727411E+03  0.19197045805E+03  0.10000000000E+01 0.  0.
    9000005    1    1    2    0    0  0.37979917473E+02 -0.10001948274E+02  0.15208815318E+04  0.15213888874E+04  0.10000000000E+01 0.  0.
<mgrwt>
<rscale>  0 0.12506424E+03</rscale>
<asrwt>0</asrwt>
<pdfrwt beam="2">  1        4 0.35158051E-03 0.12506424E+03</pdfrwt>
<pdfrwt beam="1">  1       -4 0.26324176E+00 0.12506424E+03</pdfrwt>
<totfact> 0.14066467E+03</totfact>
</mgrwt>
</event>
<event>
 5    1  0.3316199E-002  0.1250118E+03  0.7818608E-02  0.1235051E+00
          4   -1    0    0  501    0  0.00000000000E+00  0.00000000000E+00  0.48616586233E+02  0.48633171364E+02  0.12700000000E+01 0.  1.
         -4   -1    0    0    0  501 -0.00000000000E+00 -0.00000000000E+00 -0.80327899206E+02  0.80337938054E+02  0.12700000000E+01 0.  1.
         25    2    1    2    0    0  0.00000000000E+00  0.00000000000E+00 -0.31711312973E+02  0.12897110942E+03  0.12501175822E+03 0.  0.
    9000005    1    3    3    0    0  0.54921388113E+02  0.27691615180E+02 -0.27288167799E+02  0.67296571424E+02  0.10000000000E+01 0.  0.
    9000005    1    3    3    0    0 -0.54921388113E+02 -0.27691615180E+02 -0.44231451735E+01  0.61674537994E+02  0.10000000000E+01 0.  0.
<mgrwt>
<rscale>  0 0.12501176E+03</rscale>
<asrwt>0</asrwt>
<pdfrwt beam="1">  1        4 0.74815228E-02 0.12501176E+03</pdfrwt>
<pdfrwt beam="2">  1       -4 0.12360186E-01 0.12501176E+03</pdfrwt>
<totfact> 0.10363816E+04</totfact>
</mgrwt>
</event>
<event>
 5    1  0.3316199E-002  0.1250123E+03  0.7818608E-02  0.1235050E+00
         -4   -1    0    0    0  501 -0.00000000000E+00  0.00000000000E+00  0.10152425861E+04  0.10152433804E+04  0.12700000000E+01 0. -1.
          4   -1    0    0  501    0  0.00000000000E+00 -0.00000000000E+00 -0.37427635069E+01  0.39523636812E+01  0.12700000000E+01 0. -1.
         25    2    1    2    0    0  0.00000000000E+00  0.00000000000E+00  0.10114998225E+04  0.10191957441E+04  0.12501229432E+03 0.  0.
    9000005    1    3    3    0    0  0.50908148319E+02 -0.33099410557E+02  0.38515295045E+03  0.38991153584E+03  0.10000000000E+01 0.  0.
    9000005    1    3    3    0    0 -0.50908148319E+02  0.33099410557E+02  0.62634687210E+03  0.62928420823E+03  0.10000000000E+01 0.  0.
<mgrwt>
<rscale>  0 0.12501229E+03</rscale>
<asrwt>0</asrwt>
<pdfrwt beam="2">  1        4 0.59199338E-03 0.12501229E+03</pdfrwt>
<pdfrwt beam="1">  1       -4 0.15620751E+00 0.12501229E+03</pdfrwt>
<totfact> 0.29968336E+03</totfact>
</mgrwt>
</event>
<event>
 5    1  0.3316199E-002  0.1250020E+03  0.7818608E-02  0.1235066E+00
          4   -1    0    0  501    0  0.00000000000E+00  0.00000000000E+00  0.73334209530E+02  0.73345205620E+02  0.12700000000E+01 0.  1.
         -4   -1    0    0    0  501 -0.00000000000E+00 -0.00000000000E+00 -0.53245525733E+02  0.53260669453E+02  0.12700000000E+01 0.  1.
         25    2    1    2    0    0  0.00000000000E+00  0.00000000000E+00  0.20088683797E+02  0.12660587507E+03  0.12500196953E+03 0.  0.
    9000005    1    3    3    0    0  0.18722183102E+02 -0.52606914065E+02 -0.18375732320E+02  0.58793495268E+02  0.10000000000E+01 0.  0.
    9000005    1    3    3    0    0 -0.18722183102E+02  0.52606914065E+02  0.38464416117E+02  0.67812379805E+02  0.10000000000E+01 0.  0.
<mgrwt>
<rscale>  0 0.12500197E+03</rscale>
<asrwt>0</asrwt>
<pdfrwt beam="1">  1        4 0.11284197E-01 0.12500197E+03</pdfrwt>
<pdfrwt beam="2">  1       -4 0.81936301E-02 0.12500197E+03</pdfrwt>
<totfact> 0.10417257E+04</totfact>
</mgrwt>
</event>
<event>
 5    1  0.3316199E-002  0.1249999E+03  0.7818608E-02  0.1235069E+00
          4   -1    0    0  501    0  0.00000000000E+00  0.00000000000E+00  0.42313938244E+01  0.44178720780E+01  0.12700000000E+01 0.  1.
         -4   -1    0    0    0  501 -0.00000000000E+00 -0.00000000000E+00 -0.90306734770E+03  0.90306824071E+03  0.12700000000E+01 0.  1.
         25    2    1    2    0    0  0.00000000000E+00  0.00000000000E+00 -0.89883595387E+03  0.90748611279E+03  0.12499989171E+03 0.  0.
    9000005    1    3    3    0    0  0.71807606012E+01  0.34973641771E+02 -0.77067847443E+02  0.84942168863E+02  0.10000000000E+01 0.  0.
    9000005    1    3    3    0    0 -0.71807606012E+01 -0.34973641771E+02 -0.82176810643E+03  0.82254394392E+03  0.10000000000E+01 0.  0.
<mgrwt>
<rscale>  0 0.12499989E+03</rscale>
<asrwt>0</asrwt>
<pdfrwt beam="1">  1        4 0.66539756E-03 0.12499989E+03</pdfrwt>
<pdfrwt beam="2">  1       -4 0.13894770E+00 0.12499989E+03</pdfrwt>
<totfact> 0.33875000E+03</totfact>
</mgrwt>
</event>
<event>
 5    1  0.3316199E-002  0.1249993E+03  0.7818608E-02  0.1235070E+00
          4   -1    0    0  501    0  0.00000000000E+00  0.00000000000E+00  0.10944837609E+02  0.11018274378E+02  0.12700000000E+01 0.  1.
         -4   -1    0    0    0  501 -0.00000000000E+00 -0.00000000000E+00 -0.35563170815E+03  0.35563397580E+03  0.12700000000E+01 0.  1.
         25    2    1    2    0    0  0.00000000000E+00  0.00000000000E+00 -0.34468687055E+03  0.36665225018E+03  0.12499933534E+03 0.  0.
    9000005    1    3    3    0    0 -0.18866883542E+02  0.59440936125E+02 -0.18408526752E+03  0.19436452840E+03  0.10000000000E+01 0.  0.
    9000005    1    3    3    0    0  0.18866883542E+02 -0.59440936125E+02 -0.16060160303E+03  0.17228772178E+03  0.10000000000E+01 0.  0.
<mgrwt>
<rscale>  0 0.12499934E+03</rscale>
<asrwt>0</asrwt>
<pdfrwt beam="1">  1        4 0.16896449E-02 0.12499934E+03</pdfrwt>
<pdfrwt beam="2">  1       -4 0.54718385E-01 0.12499934E+03</pdfrwt>
<totfact> 0.67931637E+03</totfact>
</mgrwt>
</event>
<event>
 5    1  0.3316199E-002  0.1249992E+03  0.7818608E-02  0.1235070E+00
         -4   -1    0    0    0  501 -0.00000000000E+00  0.00000000000E+00  0.21111505559E+01  0.24637079108E+01  0.12700000000E+01 0. -1.
          4   -1    0    0  501    0  0.00000000000E+00 -0.00000000000E+00 -0.17073293402E+04  0.17073298125E+04  0.12700000000E+01 0. -1.
         25    2    1    2    0    0  0.00000000000E+00  0.00000000000E+00 -0.17052181896E+04  0.17097935204E+04  0.12499923321E+03 0.  0.
    9000005    1    3    3    0    0 -0.45002861836E+02 -0.42505881139E+02 -0.73558487568E+03  0.73818569265E+03  0.10000000000E+01 0.  0.
    9000005    1    3    3    0    0  0.45002861836E+02  0.42505881139E+02 -0.96963331392E+03  0.97160782776E+03  0.10000000000E+01 0.  0.
<mgrwt>
<rscale>  0 0.12499923E+03</rscale>
<asrwt>0</asrwt>
<pdfrwt beam="2">  1        4 0.26269219E+00 0.12499923E+03</pdfrwt>
<pdfrwt beam="1">  1       -4 0.35194989E-03 0.12499923E+03</pdfrwt>
<totfact> 0.14145518E+03</totfact>
</mgrwt>
</event>
<event>
 5    1  0.3316199E-002  0.1249969E+03  0.7818608E-02  0.1235074E+00
         -4   -1    0    0    0  501 -0.00000000000E+00  0.00000000000E+00  0.16745245478E+02  0.16793336361E+02  0.12700000000E+01 0.  1.
          4   -1    0    0  501    0  0.00000000000E+00 -0.00000000000E+00 -0.23287935178E+03  0.23288281470E+03  0.12700000000E+01 0.  1.
         25    2    1    2    0    0  0.00000000000E+00  0.00000000000E+00 -0.21613410630E+03  0.24967615106E+03  0.12499691398E+03 0.  0.
    9000005    1    3    3    0    0 -0.26830953733E+02 -0.52512036449E+02 -0.66760544173E+02  0.89080774068E+02  0.10000000000E+01 0.  0.
    9000005    1    3    3    0    0  0.26830953733E+02  0.52512036449E+02 -0.14937356213E+03  0.16059537700E+03  0.10000000000E+01 0.  0.
<mgrwt>
<rscale>  0 0.12499691E+03</rscale>
<asrwt>0</asrwt>
<pdfrwt beam="2">  1        4 0.35831556E-01 0.12499691E+03</pdfrwt>
<pdfrwt beam="1">  1       -4 0.25801575E-02 0.12499691E+03</pdfrwt>
<totfact> 0.82382721E+03</totfact>
</mgrwt>
</event>
<event>
 5    1  0.3316199E-002  0.1250009E+03  0.7818608E-02  0.1235068E+00
          4   -1    0    0  501    0  0.00000000000E+00  0.00000000000E+00  0.41244320720E+02  0.41263869083E+02  0.12700000000E+01 0. -1.
         -4   -1    0    0    0  501 -0.00000000000E+00 -0.00000000000E+00 -0.94665067169E+02  0.94673585767E+02  0.12700000000E+01 0. -1.
         25    2    1    2    0    0  0.00000000000E+00  0.00000000000E+00 -0.53420746448E+02  0.13593745485E+03  0.12500086192E+03 0.  0.
    9000005    1    3    3    0    0  0.15505381844E+02 -0.10127622317E+02 -0.91617515116E+02  0.93475957743E+02  0.10000000000E+01 0.  0.
    9000005    1    3    3    0    0 -0.15505381844E+02  0.10127622317E+02  0.38196768668E+02  0.42461497107E+02  0.10000000000E+01 0.  0.
<mgrwt>
<rscale>  0 0.12500086E+03</rscale>
<asrwt>0</asrwt>
<pdfrwt beam="1">  1        4 0.63474391E-02 0.12500086E+03</pdfrwt>
<pdfrwt beam="2">  1       -4 0.14566015E-01 0.12500086E+03</pdfrwt>
<totfact> 0.10218151E+04</totfact>
</mgrwt>
</event>
<event>
 5    1  0.3316199E-002  0.1250005E+03  0.7818608E-02  0.1235069E+00
         -4   -1    0    0    0  501 -0.00000000000E+00  0.00000000000E+00  0.12496646462E+04  0.12496652916E+04  0.12700000000E+01 0.  1.
          4   -1    0    0  501    0  0.00000000000E+00 -0.00000000000E+00 -0.29961921032E+01  0.32542383317E+01  0.12700000000E+01 0.  1.
         25    2    1    2    0    0  0.00000000000E+00  0.00000000000E+00  0.12466684541E+04  0.12529195299E+04  0.12500045551E+03 0.  0.
    9000005    1    3    3    0    0  0.60469285222E+02  0.13225336991E+02  0.53720685818E+03  0.54076210340E+03  0.10000000000E+01 0.  0.
    9000005    1    3    3    0    0 -0.60469285222E+02 -0.13225336991E+02  0.70946159595E+03  0.71215742650E+03  0.10000000000E+01 0.  0.
<mgrwt>
<rscale>  0 0.12500046E+03</rscale>
<asrwt>0</asrwt>
<pdfrwt beam="2">  1        4 0.48085263E-03 0.12500046E+03</pdfrwt>
<pdfrwt beam="1">  1       -4 0.19227574E+00 0.12500046E+03</pdfrwt>
<totfact> 0.23367479E+03</totfact>
</mgrwt>
</event>
<event>
 5    1  0.3316199E-002  0.1250010E+03  0.7818608E-02  0.1235068E+00
          4   -1    0    0  501    0  0.00000000000E+00  0.00000000000E+00  0.20065408873E+02  0.20105559760E+02  0.12700000000E+01 0. -1.
         -4   -1    0    0    0  501 -0.00000000000E+00 -0.00000000000E+00 -0.19444213495E+03  0.19444628241E+03  0.12700000000E+01 0. -1.
         25    2    1    2    0    0  0.00000000000E+00  0.00000000000E+00 -0.17437672608E+03  0.21455184217E+03  0.12500100152E+03 0.  0.
    9000005    1    3    3    0    0  0.50893619454E+02  0.71209851384E+01 -0.26154831829E+02  0.57670999285E+02  0.10000000000E+01 0.  0.
    9000005    1    3    3    0    0 -0.50893619454E+02 -0.71209851384E+01 -0.14822189425E+03  0.15688084289E+03  0.10000000000E+01 0.  0.
<mgrwt>
<rscale>  0 0.12500100E+03</rscale>
<asrwt>0</asrwt>
<pdfrwt beam="1">  1        4 0.30903937E-02 0.12500100E+03</pdfrwt>
<pdfrwt beam="2">  1       -4 0.29917581E-01 0.12500100E+03</pdfrwt>
<totfact> 0.87735896E+03</totfact>
</mgrwt>
</event>
<event>
 5    1  0.3316199E-002  0.1250054E+03  0.7818608E-02  0.1235061E+00
         -4   -1    0    0    0  501 -0.00000000000E+00  0.00000000000E+00  0.11978260527E+04  0.11978267259E+04  0.12700000000E+01 0.  1.
          4   -1    0    0  501    0  0.00000000000E+00 -0.00000000000E+00 -0.31370636226E+01  0.33843859373E+01  0.12700000000E+01 0.  1.
         25    2    1    2    0    0  0.00000000000E+00  0.00000000000E+00  0.11946889890E+04  0.12012111119E+04  0.12500541878E+03 0.  0.
    9000005    1    3    3    0    0 -0.24783860292E+02  0.54277600179E+02  0.77590408219E+03  0.77819563246E+03  0.10000000000E+01 0.  0.
    9000005    1    3    3    0    0  0.24783860292E+02 -0.54277600179E+02  0.41878490685E+03  0.42301547940E+03  0.10000000000E+01 0.  0.
<mgrwt>
<rscale>  0 0.12500542E+03</rscale>
<asrwt>0</asrwt>
<pdfrwt beam="2">  1        4 0.50170203E-03 0.12500542E+03</pdfrwt>
<pdfrwt beam="1">  1       -4 0.18429991E+00 0.12500542E+03</pdfrwt>
<totfact> 0.24678168E+03</totfact>
</mgrwt>
</event>
<event>
 5    1  0.3316199E-002  0.1250081E+03  0.7818608E-02  0.1235057E+00
         -4   -1    0    0    0  501 -0.00000000000E+00  0.00000000000E+00  0.71071870429E+03  0.71071983899E+03  0.12700000000E+01 0.  1.
          4   -1    0    0  501    0  0.00000000000E+00 -0.00000000000E+00 -0.54224012039E+01  0.55691412997E+01  0.12700000000E+01 0.  1.
         25    2    1    2    0    0  0.00000000000E+00  0.00000000000E+00  0.70529630309E+03  0.71628898029E+03  0.12500811226E+03 0.  0.
    9000005    1    3    3    0    0  0.41337335999E+02 -0.46715521463E+02  0.37457349553E+03  0.37973335229E+03  0.10000000000E+01 0.  0.
    9000005    1    3    3    0    0 -0.41337335999E+02  0.46715521463E+02  0.33072280756E+03  0.33655562800E+03  0.10000000000E+01 0.  0.
<mgrwt>
<rscale>  0 0.12500811E+03</rscale>
<asrwt>0</asrwt>
<pdfrwt beam="2">  1        4 0.84559076E-03 0.12500811E+03</pdfrwt>
<pdfrwt beam="1">  1       -4 0.10935269E+00 0.12500811E+03</pdfrwt>
<totfact> 0.42233168E+03</totfact>
</mgrwt>
</event>
<event>
 5    1  0.3316199E-002  0.1249974E+03  0.7818608E-02  0.1235073E+00
         -4   -1    0    0    0  501 -0.00000000000E+00  0.00000000000E+00  0.29479382340E+03  0.29479655903E+03  0.12700000000E+01 0.  1.
          4   -1    0    0  501    0  0.00000000000E+00 -0.00000000000E+00 -0.13217000501E+02  0.13277876421E+02  0.12700000000E+01 0.  1.
         25    2    1    2    0    0  0.00000000000E+00  0.00000000000E+00  0.28157682290E+03  0.30807443545E+03  0.12499740231E+03 0.  0.
    9000005    1    3    3    0    0 -0.12375674506E+02 -0.29820905909E+02  0.27265608279E+03  0.27456289486E+03  0.10000000000E+01 0.  0.
    9000005    1    3    3    0    0  0.12375674506E+02  0.29820905909E+02  0.89207401051E+01  0.33511540590E+02  0.10000000000E+01 0.  0.
<mgrwt>
<rscale>  0 0.12499740E+03</rscale>
<asrwt>0</asrwt>
<pdfrwt beam="2">  1        4 0.20382780E-02 0.12499740E+03</pdfrwt>
<pdfrwt beam="1">  1       -4 0.45357786E-01 0.12499740E+03</pdfrwt>
<totfact> 0.74601332E+03</totfact>
</mgrwt>
</event>
<event>
 5    1  0.3316199E-002  0.1250014E+03  0.7818608E-02  0.1235067E+00
          4   -1    0    0  501    0  0.00000000000E+00  0.00000000000E+00  0.47076132817E+02  0.47093260462E+02  0.12700000000E+01 0.  1.
         -4   -1    0    0    0  501 -0.00000000000E+00 -0.00000000000E+00 -0.82942053944E+02  0.82951776427E+02  0.12700000000E+01 0.  1.
         25    2    1    2    0    0  0.00000000000E+00  0.00000000000E+00 -0.35865921127E+02  0.13004503689E+03  0.12500138928E+03 0.  0.
    9000005    1    3    3    0    0  0.34906446232E+02 -0.51831098946E+02 -0.18602369613E+02  0.65207138886E+02  0.10000000000E+01 0.  0.
    9000005    1    3    3    0    0 -0.34906446232E+02  0.51831098946E+02 -0.17263551514E+02  0.64837898003E+02  0.10000000000E+01 0.  0.
<mgrwt>
<rscale>  0 0.12500139E+03</rscale>
<asrwt>0</asrwt>
<pdfrwt beam="1">  1        4 0.72445474E-02 0.12500139E+03</pdfrwt>
<pdfrwt beam="2">  1       -4 0.12762381E-01 0.12500139E+03</pdfrwt>
<totfact> 0.10343220E+04</totfact>
</mgrwt>
</event>
<event>
 5    1  0.3316199E-002  0.1250008E+03  0.7818608E-02  0.1235068E+00
          4   -1    0    0  501    0  0.00000000000E+00  0.00000000000E+00  0.18775415025E+02  0.18818318452E+02  0.12700000000E+01 0. -1.
         -4   -1    0    0    0  501 -0.00000000000E+00 -0.00000000000E+00 -0.20777175328E+03  0.20777563467E+03  0.12700000000E+01 0. -1.
         25    2    1    2    0    0  0.00000000000E+00  0.00000000000E+00 -0.18899633826E+03  0.22659395312E+03  0.12500081486E+03 0.  0.
    9000005    1    3    3    0    0 -0.46357015046E+02  0.23196631711E+02 -0.31227463624E+02  0.60524466550E+02  0.10000000000E+01 0.  0.
    9000005    1    3    3    0    0  0.46357015046E+02 -0.23196631711E+02 -0.15776887464E+03  0.16606948657E+03  0.10000000000E+01 0.  0.
<mgrwt>
<rscale>  0 0.12500081E+03</rscale>
<asrwt>0</asrwt>
<pdfrwt beam="1">  1        4 0.28921244E-02 0.12500081E+03</pdfrwt>
<pdfrwt beam="2">  1       -4 0.31968482E-01 0.12500081E+03</pdfrwt>
<totfact> 0.85833797E+03</totfact>
</mgrwt>
</event>
<event>
 5    1  0.3316199E-002  0.1249992E+03  0.7818608E-02  0.1235071E+00
          4   -1    0    0  501    0  0.00000000000E+00  0.00000000000E+00  0.22815994822E+02  0.22851313304E+02  0.12700000000E+01 0.  1.
         -4   -1    0    0    0  501 -0.00000000000E+00 -0.00000000000E+00 -0.17103430317E+03  0.17103901824E+03  0.12700000000E+01 0.  1.
         25    2    1    2    0    0  0.00000000000E+00  0.00000000000E+00 -0.14821830834E+03  0.19389033154E+03  0.12499917495E+03 0.  0.
    9000005    1    3    3    0    0 -0.60247641328E+02 -0.55634366188E+01 -0.98361865765E+02  0.11548500660E+03  0.10000000000E+01 0.  0.
    9000005    1    3    3    0    0  0.60247641328E+02  0.55634366188E+01 -0.49856442578E+02  0.78405324941E+02  0.10000000000E+01 0.  0.
<mgrwt>
<rscale>  0 0.12499917E+03</rscale>
<asrwt>0</asrwt>
<pdfrwt beam="1">  1        4 0.35132327E-02 0.12499917E+03</pdfrwt>
<pdfrwt beam="2">  1       -4 0.26316048E-01 0.12499917E+03</pdfrwt>
<totfact> 0.91176466E+03</totfact>
</mgrwt>
</event>
<event>
 5    1  0.3316199E-002  0.1250153E+03  0.7818608E-02  0.1235045E+00
          4   -1    0    0  501    0  0.00000000000E+00  0.00000000000E+00  0.56615969125E+03  0.56616111567E+03  0.12700000000E+01 0.  1.
         -4   -1    0    0    0  501 -0.00000000000E+00 -0.00000000000E+00 -0.68413723071E+01  0.69582522981E+01  0.12700000000E+01 0.  1.
         25    2    1    2    0    0  0.00000000000E+00  0.00000000000E+00  0.55931831894E+03  0.57311936797E+03  0.12501531120E+03 0.  0.
    9000005    1    3    3    0    0 -0.35172154567E+02 -0.42490402043E+01  0.51570299201E+03  0.51691944320E+03  0.10000000000E+01 0.  0.
    9000005    1    3    3    0    0  0.35172154567E+02  0.42490402043E+01  0.43615326939E+02  0.56199924764E+02  0.10000000000E+01 0.  0.
<mgrwt>
<rscale>  0 0.12501531E+03</rscale>
<asrwt>0</asrwt>
<pdfrwt beam="1">  1        4 0.87110621E-01 0.12501531E+03</pdfrwt>
<pdfrwt beam="2">  1       -4 0.10616188E-02 0.12501531E+03</pdfrwt>
<totfact> 0.50592565E+03</totfact>
</mgrwt>
</event>
<event>
 5    1  0.3316199E-002  0.1249979E+03  0.7818608E-02  0.1235073E+00
          4   -1    0    0  501    0  0.00000000000E+00  0.00000000000E+00  0.35919120732E+03  0.35919345250E+03  0.12700000000E+01 0.  1.
         -4   -1    0    0    0  501 -0.00000000000E+00 -0.00000000000E+00 -0.10835396536E+02  0.10909570023E+02  0.12700000000E+01 0.  1.
         25    2    1    2    0    0  0.00000000000E+00  0.00000000000E+00  0.34835581079E+03  0.37010302252E+03  0.12499790547E+03 0.  0.
    9000005    1    3    3    0    0 -0.53352969846E+02  0.95467857538E+01  0.26627196085E+03  0.27173413044E+03  0.10000000000E+01 0.  0.
    9000005    1    3    3    0    0  0.53352969846E+02 -0.95467857538E+01  0.82083849940E+02  0.98368892088E+02  0.10000000000E+01 0.  0.
<mgrwt>
<rscale>  0 0.12499791E+03</rscale>
<asrwt>0</asrwt>
<pdfrwt beam="1">  1        4 0.55266049E-01 0.12499791E+03</pdfrwt>
<pdfrwt beam="2">  1       -4 0.16728629E-02 0.12499791E+03</pdfrwt>
<totfact> 0.67571297E+03</totfact>
</mgrwt>
</event>
<event>
 5    1  0.3316199E-002  0.1249950E+03  0.7818608E-02  0.1235077E+00
          4   -1    0    0  501    0  0.00000000000E+00  0.00000000000E+00  0.56956200287E+01  0.58354937675E+01  0.12700000000E+01 0. -1.
         -4   -1    0    0    0  501 -0.00000000000E+00 -0.00000000000E+00 -0.67732009021E+03  0.67732128086E+03  0.12700000000E+01 0. -1.
         25    2    1    2    0    0  0.00000000000E+00  0.00000000000E+00 -0.67162447018E+03  0.68315677463E+03  0.12499499898E+03 0.  0.
    9000005    1    3    3    0    0 -0.40081117835E+02  0.38926138449E+02 -0.18285736839E+03  0.19120553715E+03  0.10000000000E+01 0.  0.
    9000005    1    3    3    0    0  0.40081117835E+02 -0.38926138449E+02 -0.48876710179E+03  0.49195123748E+03  0.10000000000E+01 0.  0.
<mgrwt>
<rscale>  0 0.12499500E+03</rscale>
<asrwt>0</asrwt>
<pdfrwt beam="1">  1        4 0.88710088E-03 0.12499500E+03</pdfrwt>
<pdfrwt beam="2">  1       -4 0.10421388E+00 0.12499500E+03</pdfrwt>
<totfact> 0.43995703E+03</totfact>
</mgrwt>
</event>
<event>
 5    1  0.3316199E-002  0.1250003E+03  0.7818608E-02  0.1235069E+00
         -4   -1    0    0    0  501 -0.00000000000E+00  0.00000000000E+00  0.12093659014E+04  0.12093665682E+04  0.12700000000E+01 0.  1.
          4   -1    0    0  501    0  0.00000000000E+00 -0.00000000000E+00 -0.31044839421E+01  0.33542093773E+01  0.12700000000E+01 0.  1.
         25    2    1    2    0    0  0.00000000000E+00  0.00000000000E+00  0.12062614174E+04  0.12127207776E+04  0.12500030884E+03 0.  0.
    9000005    1    3    3    0    0  0.41085096394E+02  0.29517600328E+02  0.95906638837E+03  0.96040023489E+03  0.10000000000E+01 0.  0.
    9000005    1    3    3    0    0 -0.41085096394E+02 -0.29517600328E+02  0.24719502907E+03  0.25232054271E+03  0.10000000000E+01 0.  0.
<mgrwt>
<rscale>  0 0.12500031E+03</rscale>
<asrwt>0</asrwt>
<pdfrwt beam="2">  1        4 0.49687402E-03 0.12500031E+03</pdfrwt>
<pdfrwt beam="1">  1       -4 0.18607549E+00 0.12500031E+03</pdfrwt>
<totfact> 0.24382039E+03</totfact>
</mgrwt>
</event>
<event>
 5    1  0.3316199E-002  0.1250001E+03  0.7818608E-02  0.1235069E+00
          4   -1    0    0  501    0  0.00000000000E+00  0.00000000000E+00  0.11970209289E+02  0.12037392177E+02  0.12700000000E+01 0.  1.
         -4   -1    0    0    0  501 -0.00000000000E+00 -0.00000000000E+00 -0.32534995974E+03  0.32535243844E+03  0.12700000000E+01 0.  1.
         25    2    1    2    0    0  0.00000000000E+00  0.00000000000E+00 -0.31337975045E+03  0.33738983062E+03  0.12500011926E+03 0.  0.
    9000005    1    3    3    0    0 -0.60135769846E+02 -0.16025043540E+02 -0.14138690630E+03  0.15448097005E+03  0.10000000000E+01 0.  0.
    9000005    1    3    3    0    0  0.60135769846E+02  0.16025043540E+02 -0.17199284415E+03  0.18290886056E+03  0.10000000000E+01 0.  0.
<mgrwt>
<rscale>  0 0.12500012E+03</rscale>
<asrwt>0</asrwt>
<pdfrwt beam="1">  1        4 0.18469295E-02 0.12500012E+03</pdfrwt>
<pdfrwt beam="2">  1       -4 0.50059192E-01 0.12500012E+03</pdfrwt>
<totfact> 0.71134292E+03</totfact>
</mgrwt>
</event>
<event>
 5    1  0.3316199E-002  0.1250008E+03  0.7818608E-02  0.1235068E+00
         -4   -1    0    0    0  501 -0.00000000000E+00  0.00000000000E+00  0.11329431394E+02  0.11400391033E+02  0.12700000000E+01 0.  1.
          4   -1    0    0  501    0  0.00000000000E+00 -0.00000000000E+00 -0.34364373128E+03  0.34364607803E+03  0.12700000000E+01 0.  1.
         25    2    1    2    0    0  0.00000000000E+00  0.00000000000E+00 -0.33231429988E+03  0.35504646907E+03  0.12500080515E+03 0.  0.
    9000005    1    3    3    0    0 -0.85977484494E+01 -0.29870874019E+02 -0.12171481529E+02  0.33396636892E+02  0.10000000000E+01 0.  0.
    9000005    1    3    3    0    0  0.85977484494E+01  0.29870874019E+02 -0.32014281836E+03  0.32164983217E+03  0.10000000000E+01 0.  0.
<mgrwt>
<rscale>  0 0.12500081E+03</rscale>
<asrwt>0</asrwt>
<pdfrwt beam="2">  1        4 0.52873897E-01 0.12500081E+03</pdfrwt>
<pdfrwt beam="1">  1       -4 0.17486287E-02 0.12500081E+03</pdfrwt>
<totfact> 0.69171699E+03</totfact>
</mgrwt>
</event>
<event>
 5    1  0.3316199E-002  0.1249975E+03  0.7818608E-02  0.1235073E+00
          4   -1    0    0  501    0  0.00000000000E+00  0.00000000000E+00  0.64220102737E+03  0.64220228313E+03  0.12700000000E+01 0. -1.
         -4   -1    0    0    0  501 -0.00000000000E+00 -0.00000000000E+00 -0.60147830563E+01  0.61473990610E+01  0.12700000000E+01 0. -1.
         25    2    1    2    0    0  0.00000000000E+00  0.00000000000E+00  0.63618624432E+03  0.64834968219E+03  0.12499749174E+03 0.  0.
    9000005    1    3    3    0    0 -0.33223833228E+02  0.37558759965E+02  0.12466900213E+03  0.13437947625E+03  0.10000000000E+01 0.  0.
    9000005    1    3    3    0    0  0.33223833228E+02 -0.37558759965E+02  0.51151724218E+03  0.51397020594E+03  0.10000000000E+01 0.  0.
<mgrwt>
<rscale>  0 0.12499749E+03</rscale>
<asrwt>0</asrwt>
<pdfrwt beam="1">  1        4 0.98810436E-01 0.12499749E+03</pdfrwt>
<pdfrwt beam="2">  1       -4 0.93564925E-03 0.12499749E+03</pdfrwt>
<totfact> 0.45953636E+03</totfact>
</mgrwt>
</event>
<event>
 5    1  0.3316199E-002  0.1249975E+03  0.7818608E-02  0.1235073E+00
         -4   -1    0    0    0  501 -0.00000000000E+00  0.00000000000E+00  0.34193396314E+02  0.34216973149E+02  0.12700000000E+01 0. -1.
          4   -1    0    0  501    0  0.00000000000E+00 -0.00000000000E+00 -0.11416885571E+03  0.11417591915E+03  0.12700000000E+01 0. -1.
         25    2    1    2    0    0  0.00000000000E+00  0.00000000000E+00 -0.79975459397E+02  0.14839289230E+03  0.12499750549E+03 0.  0.
    9000005    1    3    3    0    0  0.15414922408E+02 -0.50490255233E+02 -0.28931843890E+00  0.52801225473E+02  0.10000000000E+01 0.  0.
    9000005    1    3    3    0    0 -0.15414922408E+02  0.50490255233E+02 -0.79686140958E+02  0.95591666829E+02  0.10000000000E+01 0.  0.
<mgrwt>
<rscale>  0 0.12499751E+03</rscale>
<asrwt>0</asrwt>
<pdfrwt beam="2">  1        4 0.17566796E-01 0.12499751E+03</pdfrwt>
<pdfrwt beam="1">  1       -4 0.52628795E-02 0.12499751E+03</pdfrwt>
<totfact> 0.99630614E+03</totfact>
</mgrwt>
</event>
<event>
 5    1  0.3316199E-002  0.1249999E+03  0.7818608E-02  0.1235069E+00
          4   -1    0    0  501    0  0.00000000000E+00  0.00000000000E+00  0.16645016853E+02  0.16693396479E+02  0.12700000000E+01 0. -1.
         -4   -1    0    0    0  501 -0.00000000000E+00 -0.00000000000E+00 -0.23428899220E+03  0.23429243429E+03  0.12700000000E+01 0. -1.
         25    2    1    2    0    0  0.00000000000E+00  0.00000000000E+00 -0.21764397535E+03  0.25098583077E+03  0.12499994897E+03 0.  0.
    9000005    1    3    3    0    0  0.42923016330E+02  0.65207066672E+01 -0.19907294145E+03  0.20375460967E+03  0.10000000000E+01 0.  0.
    9000005    1    3    3    0    0 -0.42923016330E+02 -0.65207066672E+01 -0.18571033901E+02  0.47231221099E+02  0.10000000000E+01 0.  0.
<mgrwt>
<rscale>  0 0.12499995E+03</rscale>
<asrwt>0</asrwt>
<pdfrwt beam="1">  1        4 0.25647583E-02 0.12499995E+03</pdfrwt>
<pdfrwt beam="2">  1       -4 0.36048444E-01 0.12499995E+03</pdfrwt>
<totfact> 0.82188048E+03</totfact>
</mgrwt>
</event>
<event>
 5    1  0.3316199E-002  0.1250013E+03  0.7818608E-02  0.1235067E+00
          4   -1    0    0  501    0  0.00000000000E+00  0.00000000000E+00  0.17437241919E+02  0.17483429461E+02  0.12700000000E+01 0.  1.
         -4   -1    0    0    0  501 -0.00000000000E+00 -0.00000000000E+00 -0.22367797546E+03  0.22368158083E+03  0.12700000000E+01 0.  1.
         25    2    1    2    0    0  0.00000000000E+00  0.00000000000E+00 -0.20624073354E+03  0.24116501029E+03  0.12500128808E+03 0.  0.
    9000005    1    3    3    0    0 -0.22358978752E+02  0.56259306629E+02 -0.73213289221E+02  0.95006416792E+02  0.10000000000E+01 0.  0.
    9000005    1    3    3    0    0  0.22358978752E+02 -0.56259306629E+02 -0.13302744432E+03  0.14615859350E+03  0.10000000000E+01 0.  0.
<mgrwt>
<rscale>  0 0.12500129E+03</rscale>
<asrwt>0</asrwt>
<pdfrwt beam="1">  1        4 0.26864830E-02 0.12500129E+03</pdfrwt>
<pdfrwt beam="2">  1       -4 0.34415824E-01 0.12500129E+03</pdfrwt>
<totfact> 0.83621765E+03</totfact>
</mgrwt>
</event>
<event>
 5    1  0.3316199E-002  0.1250012E+03  0.7818608E-02  0.1235067E+00
         -4   -1    0    0    0  501 -0.00000000000E+00  0.00000000000E+00  0.42868603804E+02  0.42887411814E+02  0.12700000000E+01 0.  1.
          4   -1    0    0  501    0  0.00000000000E+00 -0.00000000000E+00 -0.91079995386E+02  0.91088849260E+02  0.12700000000E+01 0.  1.
         25    2    1    2    0    0  0.00000000000E+00  0.00000000000E+00 -0.48211391581E+02  0.13397626107E+03  0.12500120101E+03 0.  0.
    9000005    1    3    3    0    0  0.24836022531E+02 -0.26762458647E+02 -0.78464733892E+02  0.86549244207E+02  0.10000000000E+01 0.  0.
    9000005    1    3    3    0    0 -0.24836022531E+02  0.26762458647E+02  0.30253342311E+02  0.47427016868E+02  0.10000000000E+01 0.  0.
<mgrwt>
<rscale>  0 0.12500120E+03</rscale>
<asrwt>0</asrwt>
<pdfrwt beam="2">  1        4 0.14014435E-01 0.12500120E+03</pdfrwt>
<pdfrwt beam="1">  1       -4 0.65972977E-02 0.12500120E+03</pdfrwt>
<totfact> 0.10259416E+04</totfact>
</mgrwt>
</event>
<event>
 5    1  0.3316199E-002  0.1249976E+03  0.7818608E-02  0.1235073E+00
         -4   -1    0    0    0  501 -0.00000000000E+00  0.00000000000E+00  0.63080273603E+01  0.64346024880E+01  0.12700000000E+01 0. -1.
          4   -1    0    0  501    0  0.00000000000E+00 -0.00000000000E+00 -0.61294827727E+03  0.61294959295E+03  0.12700000000E+01 0. -1.
         25    2    1    2    0    0  0.00000000000E+00  0.00000000000E+00 -0.60664024991E+03  0.61938419544E+03  0.12499755501E+03 0.  0.
    9000005    1    3    3    0    0 -0.72485831255E+01 -0.47812858699E+02 -0.49944009990E+03  0.50177686754E+03  0.10000000000E+01 0.  0.
    9000005    1    3    3    0    0  0.72485831255E+01  0.47812858699E+02 -0.10720015001E+03  0.11760732790E+03  0.10000000000E+01 0.  0.
<mgrwt>
<rscale>  0 0.12499756E+03</rscale>
<asrwt>0</asrwt>
<pdfrwt beam="2">  1        4 0.94309527E-01 0.12499756E+03</pdfrwt>
<pdfrwt beam="1">  1       -4 0.98030398E-03 0.12499756E+03</pdfrwt>
<totfact> 0.47669019E+03</totfact>
</mgrwt>
</event>
<event>
 5    1  0.3316199E-002  0.1250114E+03  0.7818608E-02  0.1235052E+00
          4   -1    0    0  501    0  0.00000000000E+00  0.00000000000E+00  0.54415673001E+03  0.54415821202E+03  0.12700000000E+01 0.  1.
         -4   -1    0    0    0  501 -0.00000000000E+00 -0.00000000000E+00 -0.71221793084E+01  0.72345240411E+01  0.12700000000E+01 0.  1.
         25    2    1    2    0    0  0.00000000000E+00  0.00000000000E+00  0.53703455070E+03  0.55139273606E+03  0.12501136244E+03 0.  0.
    9000005    1    3    3    0    0 -0.60126608970E+02 -0.42193368306E+01  0.19564677870E+03  0.20472340835E+03  0.10000000000E+01 0.  0.
    9000005    1    3    3    0    0  0.60126608970E+02  0.42193368306E+01  0.34138777200E+03  0.34666932771E+03  0.10000000000E+01 0.  0.
<mgrwt>
<rscale>  0 0.12501136E+03</rscale>
<asrwt>0</asrwt>
<pdfrwt beam="1">  1        4 0.83725199E-01 0.12501136E+03</pdfrwt>
<pdfrwt beam="2">  1       -4 0.11044755E-02 0.12501136E+03</pdfrwt>
<totfact> 0.52073990E+03</totfact>
</mgrwt>
</event>
<event>
 5    1  0.3316199E-002  0.1250197E+03  0.7818608E-02  0.1235038E+00
          4   -1    0    0  501    0  0.00000000000E+00  0.00000000000E+00  0.15819632733E+02  0.15870528655E+02  0.12700000000E+01 0. -1.
         -4   -1    0    0    0  501 -0.00000000000E+00 -0.00000000000E+00 -0.24655294754E+03  0.24655621841E+03  0.12700000000E+01 0. -1.
         25    2    1    2    0    0  0.00000000000E+00  0.00000000000E+00 -0.23073331480E+03  0.26242674707E+03  0.12501973851E+03 0.  0.
    9000005    1    3    3    0    0 -0.79610414855E+01  0.50702619633E+02 -0.19024096115E+03  0.19704506367E+03  0.10000000000E+01 0.  0.
    9000005    1    3    3    0    0  0.79610414855E+01 -0.50702619633E+02 -0.40492353653E+02  0.65381683395E+02  0.10000000000E+01 0.  0.
<mgrwt>
<rscale>  0 0.12501974E+03</rscale>
<asrwt>0</asrwt>
<pdfrwt beam="1">  1        4 0.24379565E-02 0.12501974E+03</pdfrwt>
<pdfrwt beam="2">  1       -4 0.37935386E-01 0.12501974E+03</pdfrwt>
<totfact> 0.80531322E+03</totfact>
</mgrwt>
</event>
<event>
 5    1  0.3316199E-002  0.1249952E+03  0.7818608E-02  0.1235077E+00
         -4   -1    0    0    0  501 -0.00000000000E+00  0.00000000000E+00  0.35097855310E+03  0.35098085081E+03  0.12700000000E+01 0. -1.
          4   -1    0    0  501    0  0.00000000000E+00 -0.00000000000E+00 -0.11090167847E+02  0.11162648560E+02  0.12700000000E+01 0. -1.
         25    2    1    2    0    0  0.00000000000E+00  0.00000000000E+00  0.33988838526E+03  0.36214349937E+03  0.12499519874E+03 0.  0.
    9000005    1    3    3    0    0  0.38940600699E+02  0.30647790763E+02  0.59646766077E+02  0.77552525200E+02  0.10000000000E+01 0.  0.
    9000005    1    3    3    0    0 -0.38940600699E+02 -0.30647790763E+02  0.28024161918E+03  0.28459097417E+03  0.10000000000E+01 0.  0.
<mgrwt>
<rscale>  0 0.12499520E+03</rscale>
<asrwt>0</asrwt>
<pdfrwt beam="2">  1        4 0.17119320E-02 0.12499520E+03</pdfrwt>
<pdfrwt beam="1">  1       -4 0.54002449E-01 0.12499520E+03</pdfrwt>
<totfact> 0.68416228E+03</totfact>
</mgrwt>
</event>
<event>
 5    1  0.3316199E-002  0.1250022E+03  0.7818608E-02  0.1235066E+00
         -4   -1    0    0    0  501 -0.00000000000E+00  0.00000000000E+00  0.13567381086E+02  0.13626691804E+02  0.12700000000E+01 0. -1.
          4   -1    0    0  501    0  0.00000000000E+00 -0.00000000000E+00 -0.28723634850E+03  0.28723915610E+03  0.12700000000E+01 0. -1.
         25    2    1    2    0    0  0.00000000000E+00  0.00000000000E+00 -0.27366896741E+03  0.30086584791E+03  0.12500221883E+03 0.  0.
    9000005    1    3    3    0    0 -0.11763663060E+02  0.35792849773E+02 -0.25683827654E+03  0.25958892919E+03  0.10000000000E+01 0.  0.
    9000005    1    3    3    0    0  0.11763663060E+02 -0.35792849773E+02 -0.16830690875E+02  0.41276918717E+02  0.10000000000E+01 0.  0.
<mgrwt>
<rscale>  0 0.12500222E+03</rscale>
<asrwt>0</asrwt>
<pdfrwt beam="2">  1        4 0.44194981E-01 0.12500222E+03</pdfrwt>
<pdfrwt beam="1">  1       -4 0.20920679E-02 0.12500222E+03</pdfrwt>
<totfact> 0.75486640E+03</totfact>
</mgrwt>
</event>
<event>
 5    1  0.3316199E-002  0.1249883E+03  0.7818608E-02  0.1235088E+00
         -4   -1    0    0    0  501 -0.00000000000E+00  0.00000000000E+00  0.14354057696E+02  0.14410130893E+02  0.12700000000E+01 0.  1.
          4   -1    0    0  501    0  0.00000000000E+00 -0.00000000000E+00 -0.27149675620E+03  0.27149972657E+03  0.12700000000E+01 0.  1.
         25    2    1    2    0    0  0.00000000000E+00  0.00000000000E+00 -0.25714269850E+03  0.28590985746E+03  0.12498831626E+03 0.  0.
    9000005    1    3    3    0    0  0.32387631645E+02  0.78088150112E+01 -0.76457471213E+01  0.34196399291E+02  0.10000000000E+01 0.  0.
    9000005    1    3    3    0    0 -0.32387631645E+02 -0.78088150112E+01 -0.24949695138E+03  0.25171345817E+03  0.10000000000E+01 0.  0.
<mgrwt>
<rscale>  0 0.12498832E+03</rscale>
<asrwt>0</asrwt>
<pdfrwt beam="2">  1        4 0.41773270E-01 0.12498832E+03</pdfrwt>
<pdfrwt beam="1">  1       -4 0.22128586E-02 0.12498832E+03</pdfrwt>
<totfact> 0.77421069E+03</totfact>
</mgrwt>
</event>
<event>
 5    1  0.3316199E-002  0.1249986E+03  0.7818608E-02  0.1235071E+00
          4   -1    0    0  501    0  0.00000000000E+00  0.00000000000E+00  0.46231872726E+01  0.47944510173E+01  0.12700000000E+01 0.  1.
         -4   -1    0    0    0  501 -0.00000000000E+00 -0.00000000000E+00 -0.82937024262E+03  0.82937121498E+03  0.12700000000E+01 0.  1.
         25    2    1    2    0    0  0.00000000000E+00  0.00000000000E+00 -0.82474705535E+03  0.83416566600E+03  0.12499861212E+03 0.  0.
    9000005    1    3    3    0    0  0.41789033794E+02  0.44156137078E+02 -0.31587989400E+03  0.32167871428E+03  0.10000000000E+01 0.  0.
    9000005    1    3    3    0    0 -0.41789033794E+02 -0.44156137078E+02 -0.50886716134E+03  0.51248695172E+03  0.10000000000E+01 0.  0.
<mgrwt>
<rscale>  0 0.12499861E+03</rscale>
<asrwt>0</asrwt>
<pdfrwt beam="1">  1        4 0.72450917E-03 0.12499861E+03</pdfrwt>
<pdfrwt beam="2">  1       -4 0.12760856E+00 0.12499861E+03</pdfrwt>
<totfact> 0.36785329E+03</totfact>
</mgrwt>
</event>
<event>
 5    1  0.3316199E-002  0.1249981E+03  0.7818608E-02  0.1235072E+00
         -4   -1    0    0    0  501 -0.00000000000E+00  0.00000000000E+00  0.44285112267E+03  0.44285294371E+03  0.12700000000E+01 0. -1.
          4   -1    0    0  501    0  0.00000000000E+00 -0.00000000000E+00 -0.87728565513E+01  0.88643055041E+01  0.12700000000E+01 0. -1.
         25    2    1    2    0    0  0.00000000000E+00  0.00000000000E+00  0.43407826612E+03  0.45171724921E+03  0.12499812846E+03 0.  0.
    9000005    1    3    3    0    0  0.31555142845E+02 -0.53216599671E+02  0.24883218850E+03  0.25641020173E+03  0.10000000000E+01 0.  0.
    9000005    1    3    3    0    0 -0.31555142845E+02  0.53216599671E+02  0.18524607762E+03  0.19530704748E+03  0.10000000000E+01 0.  0.
<mgrwt>
<rscale>  0 0.12499813E+03</rscale>
<asrwt>0</asrwt>
<pdfrwt beam="2">  1        4 0.13568451E-02 0.12499813E+03</pdfrwt>
<pdfrwt beam="1">  1       -4 0.68138103E-01 0.12499813E+03</pdfrwt>
<totfact> 0.59817789E+03</totfact>
</mgrwt>
</event>
<event>
 5    1  0.3316199E-002  0.1250007E+03  0.7818608E-02  0.1235068E+00
          4   -1    0    0  501    0  0.00000000000E+00  0.00000000000E+00  0.72999066680E+02  0.73010113246E+02  0.12700000000E+01 0. -1.
         -4   -1    0    0    0  501 -0.00000000000E+00 -0.00000000000E+00 -0.53488889504E+02  0.53503964343E+02  0.12700000000E+01 0. -1.
         25    2    1    2    0    0  0.00000000000E+00  0.00000000000E+00  0.19510177176E+02  0.12651407759E+03  0.12500065926E+03 0.  0.
    9000005    1    3    3    0    0  0.52034506286E+02  0.18146847487E+02  0.39580385675E+02  0.67856501886E+02  0.10000000000E+01 0.  0.
    9000005    1    3    3    0    0 -0.52034506286E+02 -0.18146847487E+02 -0.20070208499E+02  0.58657575702E+02  0.10000000000E+01 0.  0.
<mgrwt>
<rscale>  0 0.12500066E+03</rscale>
<asrwt>0</asrwt>
<pdfrwt beam="1">  1        4 0.11232635E-01 0.12500066E+03</pdfrwt>
<pdfrwt beam="2">  1       -4 0.82310693E-02 0.12500066E+03</pdfrwt>
<totfact> 0.10419566E+04</totfact>
</mgrwt>
</event>
<event>
 5    1  0.3316199E-002  0.1249978E+03  0.7818608E-02  0.1235073E+00
         -4   -1    0    0    0  501 -0.00000000000E+00  0.00000000000E+00  0.78035639224E+01  0.79062323449E+01  0.12700000000E+01 0. -1.
          4   -1    0    0  501    0  0.00000000000E+00 -0.00000000000E+00 -0.49718028933E+03  0.49718191137E+03  0.12700000000E+01 0. -1.
         25    2    1    2    0    0  0.00000000000E+00  0.00000000000E+00 -0.48937672540E+03  0.50508814372E+03  0.12499781420E+03 0.  0.
    9000005    1    3    3    0    0 -0.25658632197E+02  0.55851506673E+02 -0.29028958471E+03  0.29672680903E+03  0.10000000000E+01 0.  0.
    9000005    1    3    3    0    0  0.25658632197E+02 -0.55851506673E+02 -0.19908714069E+03  0.20836133469E+03  0.10000000000E+01 0.  0.
<mgrwt>
<rscale>  0 0.12499781E+03</rscale>
<asrwt>0</asrwt>
<pdfrwt beam="2">  1        4 0.76497273E-01 0.12499781E+03</pdfrwt>
<pdfrwt beam="1">  1       -4 0.12085710E-02 0.12499781E+03</pdfrwt>
<totfact> 0.55474416E+03</totfact>
</mgrwt>
</event>
<event>
 5    1  0.3316199E-002  0.1249952E+03  0.7818608E-02  0.1235077E+00
          4   -1    0    0  501    0  0.00000000000E+00  0.00000000000E+00  0.16062684648E+03  0.16063186704E+03  0.12700000000E+01 0. -1.
         -4   -1    0    0    0  501 -0.00000000000E+00 -0.00000000000E+00 -0.24294947759E+02  0.24328119257E+02  0.12700000000E+01 0. -1.
         25    2    1    2    0    0  0.00000000000E+00  0.00000000000E+00  0.13633189872E+03  0.18495998630E+03  0.12499523960E+03 0.  0.
    9000005    1    3    3    0    0 -0.55998975948E+02  0.24311911144E+02  0.87907990639E+02  0.10703162686E+03  0.10000000000E+01 0.  0.
    9000005    1    3    3    0    0  0.55998975948E+02 -0.24311911144E+02  0.48423908080E+02  0.77928359436E+02  0.10000000000E+01 0.  0.
<mgrwt>
<rscale>  0 0.12499524E+03</rscale>
<asrwt>0</asrwt>
<pdfrwt beam="1">  1        4 0.24714761E-01 0.12499524E+03</pdfrwt>
<pdfrwt beam="2">  1       -4 0.37406220E-02 0.12499524E+03</pdfrwt>
<totfact> 0.92741625E+03</totfact>
</mgrwt>
</event>
<event>
 5    1  0.3316199E-002  0.1250065E+03  0.7818608E-02  0.1235059E+00
         -4   -1    0    0    0  501 -0.00000000000E+00  0.00000000000E+00  0.50675799383E+02  0.50691710793E+02  0.12700000000E+01 0. -1.
          4   -1    0    0  501    0  0.00000000000E+00 -0.00000000000E+00 -0.77057924668E+02  0.77068389462E+02  0.12700000000E+01 0. -1.
         25    2    1    2    0    0  0.00000000000E+00  0.00000000000E+00 -0.26382125285E+02  0.12776010025E+03  0.12500650656E+03 0.  0.
    9000005    1    3    3    0    0  0.29389609859E+02  0.49764386578E+02 -0.37493265822E+02  0.68898391282E+02  0.10000000000E+01 0.  0.
    9000005    1    3    3    0    0 -0.29389609859E+02 -0.49764386578E+02  0.11111140537E+02  0.58861708973E+02  0.10000000000E+01 0.  0.
<mgrwt>
<rscale>  0 0.12500651E+03</rscale>
<asrwt>0</asrwt>
<pdfrwt beam="2">  1        4 0.11857094E-01 0.12500651E+03</pdfrwt>
<pdfrwt beam="1">  1       -4 0.77983058E-02 0.12500651E+03</pdfrwt>
<totfact> 0.10391145E+04</totfact>
</mgrwt>
</event>
<event>
 5    1  0.3316199E-002  0.1249880E+03  0.7818608E-02  0.1235088E+00
         -4   -1    0    0    0  501 -0.00000000000E+00  0.00000000000E+00  0.30208652009E+02  0.30235336218E+02  0.12700000000E+01 0. -1.
          4   -1    0    0  501    0  0.00000000000E+00 -0.00000000000E+00 -0.12919736258E+03  0.12920360443E+03  0.12700000000E+01 0. -1.
         25    2    1    2    0    0  0.00000000000E+00  0.00000000000E+00 -0.98988710567E+02  0.15943894064E+03  0.12498804332E+03 0.  0.
    9000005    1    3    3    0    0  0.12073998740E+02  0.49917895772E+02 -0.40895957044E+01  0.51529627952E+02  0.10000000000E+01 0.  0.
    9000005    1    3    3    0    0 -0.12073998740E+02 -0.49917895772E+02 -0.94899114863E+02  0.10790931269E+03  0.10000000000E+01 0.  0.
<mgrwt>
<rscale>  0 0.12498804E+03</rscale>
<asrwt>0</asrwt>
<pdfrwt beam="2">  1        4 0.19879050E-01 0.12498804E+03</pdfrwt>
<pdfrwt beam="1">  1       -4 0.46500178E-02 0.12498804E+03</pdfrwt>
<totfact> 0.97477259E+03</totfact>
</mgrwt>
</event>
<event>
 5    1  0.3316199E-002  0.1249812E+03  0.7818608E-02  0.1235099E+00
         -4   -1    0    0    0  501 -0.00000000000E+00  0.00000000000E+00  0.51229735099E+03  0.51229892517E+03  0.12700000000E+01 0.  1.
          4   -1    0    0  501    0  0.00000000000E+00 -0.00000000000E+00 -0.75681836966E+01  0.76740018546E+01  0.12700000000E+01 0.  1.
         25    2    1    2    0    0  0.00000000000E+00  0.00000000000E+00  0.50472916729E+03  0.51997292703E+03  0.12498124869E+03 0.  0.
    9000005    1    3    3    0    0  0.51643060670E+02  0.15187817293E+02  0.12038044197E+03  0.13187162818E+03  0.10000000000E+01 0.  0.
    9000005    1    3    3    0    0 -0.51643060670E+02 -0.15187817293E+02  0.38434872532E+03  0.38810129885E+03  0.10000000000E+01 0.  0.
<mgrwt>
<rscale>  0 0.12498125E+03</rscale>
<asrwt>0</asrwt>
<pdfrwt beam="2">  1        4 0.11725968E-02 0.12498125E+03</pdfrwt>
<pdfrwt beam="1">  1       -4 0.78823247E-01 0.12498125E+03</pdfrwt>
<totfact> 0.54369737E+03</totfact>
</mgrwt>
</event>
<event>
 5    1  0.3316199E-002  0.1250041E+03  0.7818608E-02  0.1235063E+00
          4   -1    0    0  501    0  0.00000000000E+00  0.00000000000E+00  0.15607450211E+02  0.15659035797E+02  0.12700000000E+01 0. -1.
         -4   -1    0    0    0  501 -0.00000000000E+00 -0.00000000000E+00 -0.24983132639E+03  0.24983455435E+03  0.12700000000E+01 0. -1.
         25    2    1    2    0    0  0.00000000000E+00  0.00000000000E+00 -0.23422387618E+03  0.26549359014E+03  0.12500408887E+03 0.  0.
    9000005    1    3    3    0    0 -0.37899606754E+01  0.54455654758E+02 -0.52491418260E+02  0.75737250597E+02  0.10000000000E+01 0.  0.
    9000005    1    3    3    0    0  0.37899606754E+01 -0.54455654758E+02 -0.18173245792E+03  0.18975633954E+03  0.10000000000E+01 0.  0.
<mgrwt>
<rscale>  0 0.12500409E+03</rscale>
<asrwt>0</asrwt>
<pdfrwt beam="1">  1        4 0.24053628E-02 0.12500409E+03</pdfrwt>
<pdfrwt beam="2">  1       -4 0.38439802E-01 0.12500409E+03</pdfrwt>
<totfact> 0.80133952E+03</totfact>
</mgrwt>
</event>
<event>
 5    1  0.3316199E-002  0.1250235E+03  0.7818608E-02  0.1235033E+00
          4   -1    0    0  501    0  0.00000000000E+00  0.00000000000E+00  0.53350591094E+01  0.54841367325E+01  0.12700000000E+01 0.  1.
         -4   -1    0    0    0  501 -0.00000000000E+00 -0.00000000000E+00 -0.72221781669E+03  0.72221893332E+03  0.12700000000E+01 0.  1.
         25    2    1    2    0    0  0.00000000000E+00  0.00000000000E+00 -0.71688275758E+03  0.72770307005E+03  0.12502347798E+03 0.  0.
    9000005    1    3    3    0    0 -0.24331247974E+02  0.12736386491E+02 -0.31635657408E+02  0.41905130813E+02  0.10000000000E+01 0.  0.
    9000005    1    3    3    0    0  0.24331247974E+02 -0.12736386491E+02 -0.68524710018E+03  0.68579793924E+03  0.10000000000E+01 0.  0.
<mgrwt>
<rscale>  0 0.12502348E+03</rscale>
<asrwt>0</asrwt>
<pdfrwt beam="1">  1        4 0.83233230E-03 0.12502348E+03</pdfrwt>
<pdfrwt beam="2">  1       -4 0.11112191E+00 0.12502348E+03</pdfrwt>
<totfact> 0.41642608E+03</totfact>
</mgrwt>
</event>
<event>
 5    1  0.3316199E-002  0.1249981E+03  0.7818608E-02  0.1235072E+00
         -4   -1    0    0    0  501 -0.00000000000E+00  0.00000000000E+00  0.24203123046E+02  0.24236420222E+02  0.12700000000E+01 0.  1.
          4   -1    0    0  501    0  0.00000000000E+00 -0.00000000000E+00 -0.16124278147E+03  0.16124778286E+03  0.12700000000E+01 0.  1.
         25    2    1    2    0    0  0.00000000000E+00  0.00000000000E+00 -0.13703965843E+03  0.18548420308E+03  0.12499808643E+03 0.  0.
    9000005    1    3    3    0    0  0.23714269399E+02 -0.33509971647E+02 -0.13843395814E+03  0.14439614101E+03  0.10000000000E+01 0.  0.
    9000005    1    3    3    0    0 -0.23714269399E+02  0.33509971647E+02  0.13942997129E+01  0.41088062069E+02  0.10000000000E+01 0.  0.
<mgrwt>
<rscale>  0 0.12499809E+03</rscale>
<asrwt>0</asrwt>
<pdfrwt beam="2">  1        4 0.24809527E-01 0.12499809E+03</pdfrwt>
<pdfrwt beam="1">  1       -4 0.37265035E-02 0.12499809E+03</pdfrwt>
<totfact> 0.92643013E+03</totfact>
</mgrwt>
</event>
<event>
 5    1  0.3316199E-002  0.1249895E+03  0.7818608E-02  0.1235086E+00
          4   -1    0    0  501    0  0.00000000000E+00  0.00000000000E+00  0.17086345082E+04  0.17086349802E+04  0.12700000000E+01 0. -1.
         -4   -1    0    0    0  501 -0.00000000000E+00 -0.00000000000E+00 -0.21088835139E+01  0.24617655606E+01  0.12700000000E+01 0. -1.
         25    2    1    2    0    0  0.00000000000E+00  0.00000000000E+00  0.17065256247E+04  0.17110967457E+04  0.12498946192E+03 0.  0.
    9000005    1    3    3    0    0  0.46255098251E+02  0.24921131638E+02  0.13162970786E+04  0.13173456631E+04  0.10000000000E+01 0.  0.
    9000005    1    3    3    0    0 -0.46255098251E+02 -0.24921131638E+02  0.39022854607E+03  0.39375108264E+03  0.10000000000E+01 0.  0.
<mgrwt>
<rscale>  0 0.12498946E+03</rscale>
<asrwt>0</asrwt>
<pdfrwt beam="1">  1        4 0.26289392E+00 0.12498946E+03</pdfrwt>
<pdfrwt beam="2">  1       -4 0.35162485E-03 0.12498946E+03</pdfrwt>
<totfact> 0.14126886E+03</totfact>
</mgrwt>
</event>
<event>
 5    1  0.3316199E-002  0.1250008E+03  0.7818608E-02  0.1235068E+00
          4   -1    0    0  501    0  0.00000000000E+00  0.00000000000E+00  0.32185443271E+02  0.32210489883E+02  0.12700000000E+01 0. -1.
         -4   -1    0    0    0  501 -0.00000000000E+00 -0.00000000000E+00 -0.12129289543E+03  0.12129954403E+03  0.12700000000E+01 0. -1.
         25    2    1    2    0    0  0.00000000000E+00  0.00000000000E+00 -0.89107452162E+02  0.15351003392E+03  0.12500076993E+03 0.  0.
    9000005    1    3    3    0    0  0.23644725435E+02 -0.56874856505E+02 -0.57519974383E+02  0.84281491422E+02  0.10000000000E+01 0.  0.
    9000005    1    3    3    0    0 -0.23644725435E+02  0.56874856505E+02 -0.31587477779E+02  0.69228542493E+02  0.10000000000E+01 0.  0.
<mgrwt>
<rscale>  0 0.12500077E+03</rscale>
<asrwt>0</asrwt>
<pdfrwt beam="1">  1        4 0.49540448E-02 0.12500077E+03</pdfrwt>
<pdfrwt beam="2">  1       -4 0.18662883E-01 0.12500077E+03</pdfrwt>
<totfact> 0.98606863E+03</totfact>
</mgrwt>
</event>
<event>
 5    1  0.3316199E-002  0.1249987E+03  0.7818608E-02  0.1235071E+00
          4   -1    0    0  501    0  0.00000000000E+00  0.00000000000E+00  0.11494601360E+02  0.11564547567E+02  0.12700000000E+01 0.  1.
         -4   -1    0    0    0  501 -0.00000000000E+00 -0.00000000000E+00 -0.33872422336E+03  0.33872660419E+03  0.12700000000E+01 0.  1.
         25    2    1    2    0    0  0.00000000000E+00  0.00000000000E+00 -0.32722962200E+03  0.35029115176E+03  0.12499866195E+03 0.  0.
    9000005    1    3    3    0    0  0.89040696898E+01 -0.32726044462E+02 -0.31070236602E+03  0.31254957477E+03  0.10000000000E+01 0.  0.
    9000005    1    3    3    0    0 -0.89040696898E+01  0.32726044462E+02 -0.16527255979E+02  0.37741576985E+02  0.10000000000E+01 0.  0.
<mgrwt>
<rscale>  0 0.12499866E+03</rscale>
<asrwt>0</asrwt>
<pdfrwt beam="1">  1        4 0.17739641E-02 0.12499866E+03</pdfrwt>
<pdfrwt beam="2">  1       -4 0.52116975E-01 0.12499866E+03</pdfrwt>
<totfact> 0.69694605E+03</totfact>
</mgrwt>
</event>
<event>
 5    1  0.3316199E-002  0.1250001E+03  0.7818608E-02  0.1235069E+00
          4   -1    0    0  501    0  0.00000000000E+00  0.00000000000E+00  0.14949661691E+02  0.15003509079E+02  0.12700000000E+01 0. -1.
         -4   -1    0    0    0  501 -0.00000000000E+00 -0.00000000000E+00 -0.26076901998E+03  0.26077211254E+03  0.12700000000E+01 0. -1.
         25    2    1    2    0    0  0.00000000000E+00  0.00000000000E+00 -0.24581935829E+03  0.27577562162E+03  0.12500014629E+03 0.  0.
    9000005    1    3    3    0    0  0.17085058593E+02  0.57837015874E+02 -0.15904290412E+03  0.17009604635E+03  0.10000000000E+01 0.  0.
    9000005    1    3    3    0    0 -0.17085058593E+02 -0.57837015874E+02 -0.86776454164E+02  0.10567957527E+03  0.10000000000E+01 0.  0.
<mgrwt>
<rscale>  0 0.12500015E+03</rscale>
<asrwt>0</asrwt>
<pdfrwt beam="1">  1        4 0.23043281E-02 0.12500015E+03</pdfrwt>
<pdfrwt beam="2">  1       -4 0.40122687E-01 0.12500015E+03</pdfrwt>
<totfact> 0.78741327E+03</totfact>
</mgrwt>
</event>
<event>
 5    1  0.3316199E-002  0.1250011E+03  0.7818608E-02  0.1235068E+00
         -4   -1    0    0    0  501 -0.00000000000E+00  0.00000000000E+00  0.19918859885E+03  0.19919264749E+03  0.12700000000E+01 0.  1.
          4   -1    0    0  501    0  0.00000000000E+00 -0.00000000000E+00 -0.19586352144E+02  0.19627483036E+02  0.12700000000E+01 0.  1.
         25    2    1    2    0    0  0.00000000000E+00  0.00000000000E+00  0.17960224671E+03  0.21882013052E+03  0.12500112999E+03 0.  0.
    9000005    1    3    3    0    0  0.40871769303E+02  0.38313720870E+02  0.41324044437E+02  0.69621256679E+02  0.10000000000E+01 0.  0.
    9000005    1    3    3    0    0 -0.40871769303E+02 -0.38313720870E+02  0.13827820227E+03  0.14919887384E+03  0.10000000000E+01 0.  0.
<mgrwt>
<rscale>  0 0.12500113E+03</rscale>
<asrwt>0</asrwt>
<pdfrwt beam="2">  1        4 0.30167603E-02 0.12500113E+03</pdfrwt>
<pdfrwt beam="1">  1       -4 0.30647875E-01 0.12500113E+03</pdfrwt>
<totfact> 0.87053195E+03</totfact>
</mgrwt>
</event>
<event>
 5    1  0.3316199E-002  0.1249910E+03  0.7818608E-02  0.1235083E+00
          4   -1    0    0  501    0  0.00000000000E+00  0.00000000000E+00  0.47437696807E+03  0.47437866808E+03  0.12700000000E+01 0.  1.
         -4   -1    0    0    0  501 -0.00000000000E+00 -0.00000000000E+00 -0.81825999868E+01  0.82805701823E+01  0.12700000000E+01 0.  1.
         25    2    1    2    0    0  0.00000000000E+00  0.00000000000E+00  0.46619436808E+03  0.48265923826E+03  0.12499100549E+03 0.  0.
    9000005    1    3    3    0    0 -0.29818895877E+02  0.41673740486E+02  0.37118860049E+03  0.37471034725E+03  0.10000000000E+01 0.  0.
    9000005    1    3    3    0    0  0.29818895877E+02 -0.41673740486E+02  0.95005767585E+02  0.10794889102E+03  0.10000000000E+01 0.  0.
<mgrwt>
<rscale>  0 0.12499101E+03</rscale>
<asrwt>0</asrwt>
<pdfrwt beam="1">  1        4 0.72988763E-01 0.12499101E+03</pdfrwt>
<pdfrwt beam="2">  1       -4 0.12665281E-02 0.12499101E+03</pdfrwt>
<totfact> 0.57246666E+03</totfact>
</mgrwt>
</event>
<event>
 5    1  0.3316199E-002  0.1250019E+03  0.7818608E-02  0.1235066E+00
          4   -1    0    0  501    0  0.00000000000E+00  0.00000000000E+00  0.41642171045E+03  0.41642364706E+03  0.12700000000E+01 0.  1.
         -4   -1    0    0    0  501 -0.00000000000E+00 -0.00000000000E+00 -0.93358479368E+01  0.94218340412E+01  0.12700000000E+01 0.  1.
         25    2    1    2    0    0  0.00000000000E+00  0.00000000000E+00  0.40708586251E+03  0.42584548111E+03  0.12500189726E+03 0.  0.
    9000005    1    3    3    0    0  0.22710441436E+02 -0.37463460003E+02  0.51720726594E+02  0.67788705143E+02  0.10000000000E+01 0.  0.
    9000005    1    3    3    0    0 -0.22710441436E+02  0.37463460003E+02  0.35536513592E+03  0.35805677596E+03  0.10000000000E+01 0.  0.
<mgrwt>
<rscale>  0 0.12500190E+03</rscale>
<asrwt>0</asrwt>
<pdfrwt beam="1">  1        4 0.64071637E-01 0.12500190E+03</pdfrwt>
<pdfrwt beam="2">  1       -4 0.14430477E-02 0.12500190E+03</pdfrwt>
<totfact> 0.62111789E+03</totfact>
</mgrwt>
</event>
<event>
 5    1  0.3316199E-002  0.1250031E+03  0.7818608E-02  0.1235064E+00
          4   -1    0    0  501    0  0.00000000000E+00  0.00000000000E+00  0.49877143784E+01  0.51468626095E+01  0.12700000000E+01 0. -1.
         -4   -1    0    0    0  501 -0.00000000000E+00 -0.00000000000E+00 -0.77075473144E+03  0.77075577775E+03  0.12700000000E+01 0. -1.
         25    2    1    2    0    0  0.00000000000E+00  0.00000000000E+00 -0.76576701706E+03  0.77590264036E+03  0.12500313156E+03 0.  0.
    9000005    1    3    3    0    0 -0.13114004597E+02 -0.53379426206E+02 -0.56744384556E+03  0.57010074384E+03  0.10000000000E+01 0.  0.
    9000005    1    3    3    0    0  0.13114004597E+02  0.53379426206E+02 -0.19832317150E+03  0.20580189652E+03  0.10000000000E+01 0.  0.
<mgrwt>
<rscale>  0 0.12500313E+03</rscale>
<asrwt>0</asrwt>
<pdfrwt beam="1">  1        4 0.77966394E-03 0.12500313E+03</pdfrwt>
<pdfrwt beam="2">  1       -4 0.11858988E+00 0.12500313E+03</pdfrwt>
<totfact> 0.39360712E+03</totfact>
</mgrwt>
</event>
<event>
 5    1  0.3316199E-002  0.1249984E+03  0.7818608E-02  0.1235072E+00
         -4   -1    0    0    0  501 -0.00000000000E+00  0.00000000000E+00  0.76429267478E+03  0.76429372993E+03  0.12700000000E+01 0.  1.
          4   -1    0    0  501    0  0.00000000000E+00 -0.00000000000E+00 -0.50308289640E+01  0.51886549380E+01  0.12700000000E+01 0.  1.
         25    2    1    2    0    0  0.00000000000E+00  0.00000000000E+00  0.75926184581E+03  0.76948238487E+03  0.12499836048E+03 0.  0.
    9000005    1    3    3    0    0 -0.82465075240E+01 -0.60342806121E+02  0.46578953971E+03  0.46975541981E+03  0.10000000000E+01 0.  0.
    9000005    1    3    3    0    0  0.82465075240E+01  0.60342806121E+02  0.29347230610E+03  0.29972696506E+03  0.10000000000E+01 0.  0.
<mgrwt>
<rscale>  0 0.12499836E+03</rscale>
<asrwt>0</asrwt>
<pdfrwt beam="2">  1        4 0.78619536E-03 0.12499836E+03</pdfrwt>
<pdfrwt beam="1">  1       -4 0.11759570E+00 0.12499836E+03</pdfrwt>
<totfact> 0.39660593E+03</totfact>
</mgrwt>
</event>
<event>
 5    1  0.3316199E-002  0.1249974E+03  0.7818608E-02  0.1235073E+00
         -4   -1    0    0    0  501 -0.00000000000E+00  0.00000000000E+00  0.94702228296E+02  0.94710743552E+02  0.12700000000E+01 0.  1.
          4   -1    0    0  501    0  0.00000000000E+00 -0.00000000000E+00 -0.41225840613E+02  0.41245397734E+02  0.12700000000E+01 0.  1.
         25    2    1    2    0    0  0.00000000000E+00  0.00000000000E+00  0.53476387683E+02  0.13595614129E+03  0.12499739323E+03 0.  0.
    9000005    1    3    3    0    0  0.42832368235E+02  0.39727112084E+02  0.26067814961E+01  0.58486327573E+02  0.10000000000E+01 0.  0.
    9000005    1    3    3    0    0 -0.42832368235E+02 -0.39727112084E+02  0.50869606187E+02  0.77469813713E+02  0.10000000000E+01 0.  0.
<mgrwt>
<rscale>  0 0.12499739E+03</rscale>
<asrwt>0</asrwt>
<pdfrwt beam="2">  1        4 0.63445965E-02 0.12499739E+03</pdfrwt>
<pdfrwt beam="1">  1       -4 0.14571733E-01 0.12499739E+03</pdfrwt>
<totfact> 0.10218558E+04</totfact>
</mgrwt>
</event>
<event>
 5    1  0.3316199E-002  0.1249995E+03  0.7818608E-02  0.1235070E+00
         -4   -1    0    0    0  501 -0.00000000000E+00  0.00000000000E+00  0.25514214729E+02  0.25545803045E+02  0.12700000000E+01 0.  1.
          4   -1    0    0  501    0  0.00000000000E+00 -0.00000000000E+00 -0.15297083554E+03  0.15297610737E+03  0.12700000000E+01 0.  1.
         25    2    1    2    0    0  0.00000000000E+00  0.00000000000E+00 -0.12745662081E+03  0.17852191042E+03  0.12499952924E+03 0.  0.
    9000005    1    3    3    0    0  0.61731020958E+02 -0.68800286542E+01 -0.73536785963E+02  0.96263765938E+02  0.10000000000E+01 0.  0.
    9000005    1    3    3    0    0 -0.61731020958E+02  0.68800286542E+01 -0.53919834851E+02  0.82258144479E+02  0.10000000000E+01 0.  0.
<mgrwt>
<rscale>  0 0.12499953E+03</rscale>
<asrwt>0</asrwt>
<pdfrwt beam="2">  1        4 0.23536810E-01 0.12499953E+03</pdfrwt>
<pdfrwt beam="1">  1       -4 0.39280993E-02 0.12499953E+03</pdfrwt>
<totfact> 0.93884734E+03</totfact>
</mgrwt>
</event>
<event>
 5    1  0.3316199E-002  0.1250054E+03  0.7818608E-02  0.1235061E+00
         -4   -1    0    0    0  501 -0.00000000000E+00  0.00000000000E+00  0.16508121028E+03  0.16508609538E+03  0.12700000000E+01 0. -1.
          4   -1    0    0  501    0  0.00000000000E+00 -0.00000000000E+00 -0.23642366618E+02  0.23676452422E+02  0.12700000000E+01 0. -1.
         25    2    1    2    0    0  0.00000000000E+00  0.00000000000E+00  0.14143884366E+03  0.18876254780E+03  0.12500541171E+03 0.  0.
    9000005    1    3    3    0    0  0.20402227209E+01 -0.62347630513E+02  0.76409409173E+02  0.98644753279E+02  0.10000000000E+01 0.  0.
    9000005    1    3    3    0    0 -0.20402227209E+01  0.62347630513E+02  0.65029434488E+02  0.90117794520E+02  0.10000000000E+01 0.  0.
<mgrwt>
<rscale>  0 0.12500541E+03</rscale>
<asrwt>0</asrwt>
<pdfrwt beam="2">  1        4 0.36402849E-02 0.12500541E+03</pdfrwt>
<pdfrwt beam="1">  1       -4 0.25400107E-01 0.12500541E+03</pdfrwt>
<totfact> 0.92051913E+03</totfact>
</mgrwt>
</event>
<event>
 5    1  0.3316199E-002  0.1250000E+03  0.7818608E-02  0.1235069E+00
          4   -1    0    0  501    0  0.00000000000E+00  0.00000000000E+00  0.12191991473E+03  0.12192652914E+03  0.12700000000E+01 0. -1.
         -4   -1    0    0    0  501 -0.00000000000E+00 -0.00000000000E+00 -0.32019379452E+02  0.32044555863E+02  0.12700000000E+01 0. -1.
         25    2    1    2    0    0  0.00000000000E+00  0.00000000000E+00  0.89900535279E+02  0.15397108500E+03  0.12499995509E+03 0.  0.
    9000005    1    3    3    0    0 -0.57705099089E+02  0.17677447268E+02  0.24979016643E+02  0.65324741678E+02  0.10000000000E+01 0.  0.
    9000005    1    3    3    0    0  0.57705099089E+02 -0.17677447268E+02  0.64921518635E+02  0.88646343324E+02  0.10000000000E+01 0.  0.
<mgrwt>
<rscale>  0 0.12499996E+03</rscale>
<asrwt>0</asrwt>
<pdfrwt beam="1">  1        4 0.18759355E-01 0.12499996E+03</pdfrwt>
<pdfrwt beam="2">  1       -4 0.49285038E-02 0.12499996E+03</pdfrwt>
<totfact> 0.98517966E+03</totfact>
</mgrwt>
</event>
<event>
 5    1  0.3316199E-002  0.1250283E+03  0.7818608E-02  0.1235025E+00
         -4   -1    0    0    0  501 -0.00000000000E+00  0.00000000000E+00  0.89164423284E+02  0.89173467352E+02  0.12700000000E+01 0.  1.
          4   -1    0    0  501    0  0.00000000000E+00 -0.00000000000E+00 -0.43808877383E+02  0.43827281887E+02  0.12700000000E+01 0.  1.
         25    2    1    2    0    0  0.00000000000E+00  0.00000000000E+00  0.45355545901E+02  0.13300074924E+03  0.12502829182E+03 0.  0.
    9000005    1    3    3    0    0  0.35494032692E+02  0.60215902804E+01 -0.31677742012E+02  0.47964207959E+02  0.10000000000E+01 0.  0.
    9000005    1    3    3    0    0 -0.35494032692E+02 -0.60215902804E+01  0.77033287913E+02  0.85036541280E+02  0.10000000000E+01 0.  0.
<mgrwt>
<rscale>  0 0.12502829E+03</rscale>
<asrwt>0</asrwt>
<pdfrwt beam="2">  1        4 0.67419387E-02 0.12502829E+03</pdfrwt>
<pdfrwt beam="1">  1       -4 0.13719715E-01 0.12502829E+03</pdfrwt>
<totfact> 0.10273826E+04</totfact>
</mgrwt>
</event>
<event>
 5    1  0.3316199E-002  0.1249819E+03  0.7818608E-02  0.1235098E+00
         -4   -1    0    0    0  501 -0.00000000000E+00  0.00000000000E+00  0.33029617454E+03  0.33029861613E+03  0.12700000000E+01 0. -1.
          4   -1    0    0  501    0  0.00000000000E+00 -0.00000000000E+00 -0.11786488701E+02  0.11854712814E+02  0.12700000000E+01 0. -1.
         25    2    1    2    0    0  0.00000000000E+00  0.00000000000E+00  0.31850968584E+03  0.34215332895E+03  0.12498192083E+03 0.  0.
    9000005    1    3    3    0    0 -0.42410691607E+02  0.53749624481E+01  0.34503236656E+02  0.54945703414E+02  0.10000000000E+01 0.  0.
    9000005    1    3    3    0    0  0.42410691607E+02 -0.53749624481E+01  0.28400644919E+03  0.28720762553E+03  0.10000000000E+01 0.  0.
<mgrwt>
<rscale>  0 0.12498192E+03</rscale>
<asrwt>0</asrwt>
<pdfrwt beam="2">  1        4 0.18187417E-02 0.12498192E+03</pdfrwt>
<pdfrwt beam="1">  1       -4 0.50820234E-01 0.12498192E+03</pdfrwt>
<totfact> 0.70624762E+03</totfact>
</mgrwt>
</event>
<event>
 4    1  0.3316199E-002  0.1250737E+03  0.7818608E-02  0.1234954E+00
          4   -1    0    0  501    0  0.00000000000E+00  0.00000000000E+00  0.63690241321E+02  0.63702902128E+02  0.12700000000E+01 0. -1.
         -4   -1    0    0    0  501 -0.00000000000E+00 -0.00000000000E+00 -0.61378985222E+02  0.61392122677E+02  0.12700000000E+01 0. -1.
    9000005    1    1    2    0    0 -0.61824875065E+02  0.83683785182E+01 -0.30296885811E+01  0.62470184478E+02  0.10000000000E+01 0.  0.
    9000005    1    1    2    0    0  0.61824875065E+02 -0.83683785182E+01  0.53409446802E+01  0.62624840327E+02  0.10000000000E+01 0.  0.
<mgrwt>
<rscale>  0 0.12507367E+03</rscale>
<asrwt>0</asrwt>
<pdfrwt beam="1">  1        4 0.98004832E-02 0.12507367E+03</pdfrwt>
<pdfrwt beam="2">  1       -4 0.94449053E-02 0.12507367E+03</pdfrwt>
<totfact> 0.10433417E+04</totfact>
</mgrwt>
</event>
<event>
 5    1  0.3316199E-002  0.1250007E+03  0.7818608E-02  0.1235068E+00
          4   -1    0    0  501    0  0.00000000000E+00  0.00000000000E+00  0.14986913001E+02  0.15040627025E+02  0.12700000000E+01 0.  1.
         -4   -1    0    0    0  501 -0.00000000000E+00 -0.00000000000E+00 -0.26012551191E+03  0.26012861212E+03  0.12700000000E+01 0.  1.
         25    2    1    2    0    0  0.00000000000E+00  0.00000000000E+00 -0.24513859891E+03  0.27516923915E+03  0.12500071000E+03 0.  0.
    9000005    1    3    3    0    0  0.47487706939E+02  0.29164370762E+02 -0.60319523465E+02  0.82128483142E+02  0.10000000000E+01 0.  0.
    9000005    1    3    3    0    0 -0.47487706939E+02 -0.29164370762E+02 -0.18481907544E+03  0.19304075601E+03  0.10000000000E+01 0.  0.
<mgrwt>
<rscale>  0 0.12500071E+03</rscale>
<asrwt>0</asrwt>
<pdfrwt beam="1">  1        4 0.23100494E-02 0.12500071E+03</pdfrwt>
<pdfrwt beam="2">  1       -4 0.40023676E-01 0.12500071E+03</pdfrwt>
<totfact> 0.78821777E+03</totfact>
</mgrwt>
</event>
<event>
 5    1  0.3316199E-002  0.1249997E+03  0.7818608E-02  0.1235070E+00
         -4   -1    0    0    0  501 -0.00000000000E+00  0.00000000000E+00  0.35418534622E+03  0.35418762313E+03  0.12700000000E+01 0.  1.
          4   -1    0    0  501    0  0.00000000000E+00 -0.00000000000E+00 -0.10989901866E+02  0.11063039502E+02  0.12700000000E+01 0.  1.
         25    2    1    2    0    0  0.00000000000E+00  0.00000000000E+00  0.34319544436E+03  0.36525066263E+03  0.12499973410E+03 0.  0.
    9000005    1    3    3    0    0  0.40436119335E+02 -0.18730062697E+02  0.43583654426E+02  0.62341237786E+02  0.10000000000E+01 0.  0.
    9000005    1    3    3    0    0 -0.40436119335E+02  0.18730062697E+02  0.29961178993E+03  0.30290942485E+03  0.10000000000E+01 0.  0.
<mgrwt>
<rscale>  0 0.12499973E+03</rscale>
<asrwt>0</asrwt>
<pdfrwt beam="2">  1        4 0.16965552E-02 0.12499973E+03</pdfrwt>
<pdfrwt beam="1">  1       -4 0.54495857E-01 0.12499973E+03</pdfrwt>
<totfact> 0.68079148E+03</totfact>
</mgrwt>
</event>
<event>
 5    1  0.3316199E-002  0.1250022E+03  0.7818608E-02  0.1235066E+00
          4   -1    0    0  501    0  0.00000000000E+00  0.00000000000E+00  0.17092937429E+03  0.17093409225E+03  0.12700000000E+01 0. -1.
         -4   -1    0    0    0  501 -0.00000000000E+00 -0.00000000000E+00 -0.22831133843E+02  0.22866428942E+02  0.12700000000E+01 0. -1.
         25    2    1    2    0    0  0.00000000000E+00  0.00000000000E+00  0.14809824045E+03  0.19380052120E+03  0.12500221275E+03 0.  0.
    9000005    1    3    3    0    0  0.37822999619E+01 -0.11545201068E+02 -0.20990248170E+02  0.24273194659E+02  0.10000000000E+01 0.  0.
    9000005    1    3    3    0    0 -0.37822999619E+01  0.11545201068E+02  0.16908848861E+03  0.16952732654E+03  0.10000000000E+01 0.  0.
<mgrwt>
<rscale>  0 0.12500221E+03</rscale>
<asrwt>0</asrwt>
<pdfrwt beam="1">  1        4 0.26299904E-01 0.12500221E+03</pdfrwt>
<pdfrwt beam="2">  1       -4 0.35155602E-02 0.12500221E+03</pdfrwt>
<totfact> 0.91185692E+03</totfact>
</mgrwt>
</event>
<event>
 5    1  0.3316199E-002  0.1250003E+03  0.7818608E-02  0.1235069E+00
          4   -1    0    0  501    0  0.00000000000E+00  0.00000000000E+00  0.31136216951E+02  0.31162106893E+02  0.12700000000E+01 0. -1.
         -4   -1    0    0    0  501 -0.00000000000E+00 -0.00000000000E+00 -0.12537615328E+03  0.12538258536E+03  0.12700000000E+01 0. -1.
         25    2    1    2    0    0  0.00000000000E+00  0.00000000000E+00 -0.94239936328E+02  0.15654469225E+03  0.12500030029E+03 0.  0.
    9000005    1    3    3    0    0  0.54075226344E+02 -0.28158503224E+02 -0.64302224849E+02  0.88616068117E+02  0.10000000000E+01 0.  0.
    9000005    1    3    3    0    0 -0.54075226344E+02  0.28158503224E+02 -0.29937711479E+02  0.67928624133E+02  0.10000000000E+01 0.  0.
<mgrwt>
<rscale>  0 0.12500030E+03</rscale>
<asrwt>0</asrwt>
<pdfrwt beam="1">  1        4 0.47926736E-02 0.12500030E+03</pdfrwt>
<pdfrwt beam="2">  1       -4 0.19291125E-01 0.12500030E+03</pdfrwt>
<totfact> 0.98012446E+03</totfact>
</mgrwt>
</event>
<event>
 5    1  0.3316199E-002  0.1249983E+03  0.7818608E-02  0.1235072E+00
          4   -1    0    0  501    0  0.00000000000E+00  0.00000000000E+00  0.10873900112E+04  0.10873907529E+04  0.12700000000E+01 0.  1.
         -4   -1    0    0    0  501 -0.00000000000E+00 -0.00000000000E+00 -0.34792043044E+01  0.37037498015E+01  0.12700000000E+01 0.  1.
         25    2    1    2    0    0  0.00000000000E+00  0.00000000000E+00  0.10839108069E+04  0.10910945027E+04  0.12499830553E+03 0.  0.
    9000005    1    3    3    0    0  0.13324340937E+02  0.36309121608E+02  0.11350603082E+03  0.11991876169E+03  0.10000000000E+01 0.  0.
    9000005    1    3    3    0    0 -0.13324340937E+02 -0.36309121608E+02  0.97040477610E+03  0.97117574097E+03  0.10000000000E+01 0.  0.
<mgrwt>
<rscale>  0 0.12499831E+03</rscale>
<asrwt>0</asrwt>
<pdfrwt beam="1">  1        4 0.16730832E+00 0.12499831E+03</pdfrwt>
<pdfrwt beam="2">  1       -4 0.55259126E-03 0.12499831E+03</pdfrwt>
<totfact> 0.27746479E+03</totfact>
</mgrwt>
</event>
<event>
 5    1  0.3316199E-002  0.1250371E+03  0.7818608E-02  0.1235011E+00
          4   -1    0    0  501    0  0.00000000000E+00  0.00000000000E+00  0.96910108425E+02  0.96918429697E+02  0.12700000000E+01 0.  1.
         -4   -1    0    0    0  501 -0.00000000000E+00 -0.00000000000E+00 -0.40311840962E+02  0.40331841289E+02  0.12700000000E+01 0.  1.
         25    2    1    2    0    0  0.00000000000E+00  0.00000000000E+00  0.56598267463E+02  0.13725027099E+03  0.12503708652E+03 0.  0.
    9000005    1    3    3    0    0  0.47232198905E+02  0.30968798025E+02 -0.11059209312E+01  0.56499293142E+02  0.10000000000E+01 0.  0.
    9000005    1    3    3    0    0 -0.47232198905E+02 -0.30968798025E+02  0.57704188394E+02  0.80750977844E+02  0.10000000000E+01 0.  0.
<mgrwt>
<rscale>  0 0.12503709E+03</rscale>
<asrwt>0</asrwt>
<pdfrwt beam="1">  1        4 0.14911426E-01 0.12503709E+03</pdfrwt>
<pdfrwt beam="2">  1       -4 0.62040003E-02 0.12503709E+03</pdfrwt>
<totfact> 0.10182339E+04</totfact>
</mgrwt>
</event>
<event>
 4    1  0.3316199E-002  0.1248870E+03  0.7818608E-02  0.1235246E+00
         -4   -1    0    0    0  501 -0.00000000000E+00  0.00000000000E+00  0.17193215577E+03  0.17193684622E+03  0.12700000000E+01 0.  1.
          4   -1    0    0  501    0  0.00000000000E+00 -0.00000000000E+00 -0.22655877837E+02  0.22691445537E+02  0.12700000000E+01 0.  1.
    9000005    1    1    2    0    0 -0.42655638427E+02  0.34536278640E+02  0.28251896907E+02  0.61736761421E+02  0.10000000000E+01 0.  0.
    9000005    1    1    2    0    0  0.42655638427E+02 -0.34536278640E+02  0.12102438102E+03  0.13289153033E+03  0.10000000000E+01 0.  0.
<mgrwt>
<rscale>  0 0.12488701E+03</rscale>
<asrwt>0</asrwt>
<pdfrwt beam="2">  1        4 0.34886164E-02 0.12488701E+03</pdfrwt>
<pdfrwt beam="1">  1       -4 0.26454198E-01 0.12488701E+03</pdfrwt>
<totfact> 0.91278908E+03</totfact>
</mgrwt>
</event>
<event>
 5    1  0.3316199E-002  0.1250053E+03  0.7818608E-02  0.1235061E+00
          4   -1    0    0  501    0  0.00000000000E+00  0.00000000000E+00  0.69061455883E+02  0.69073132176E+02  0.12700000000E+01 0.  1.
         -4   -1    0    0    0  501 -0.00000000000E+00 -0.00000000000E+00 -0.56543166979E+02  0.56557427735E+02  0.12700000000E+01 0.  1.
         25    2    1    2    0    0  0.00000000000E+00  0.00000000000E+00  0.12518288904E+02  0.12563055991E+03  0.12500531999E+03 0.  0.
    9000005    1    3    3    0    0 -0.39550561456E+01 -0.51809600474E+02 -0.28637799079E+02  0.59338020750E+02  0.10000000000E+01 0.  0.
    9000005    1    3    3    0    0  0.39550561456E+01  0.51809600474E+02  0.41156087983E+02  0.66292539162E+02  0.10000000000E+01 0.  0.
<mgrwt>
<rscale>  0 0.12500532E+03</rscale>
<asrwt>0</asrwt>
<pdfrwt beam="1">  1        4 0.10626835E-01 0.12500532E+03</pdfrwt>
<pdfrwt beam="2">  1       -4 0.87009439E-02 0.12500532E+03</pdfrwt>
<totfact> 0.10437821E+04</totfact>
</mgrwt>
</event>
<event>
 5    1  0.3316199E-002  0.1250438E+03  0.7818608E-02  0.1235001E+00
         -4   -1    0    0    0  501 -0.00000000000E+00  0.00000000000E+00  0.29262885649E+02  0.29290431484E+02  0.12700000000E+01 0.  1.
          4   -1    0    0  501    0  0.00000000000E+00 -0.00000000000E+00 -0.13348828381E+03  0.13349432503E+03  0.12700000000E+01 0.  1.
         25    2    1    2    0    0  0.00000000000E+00  0.00000000000E+00 -0.10422539816E+03  0.16278475651E+03  0.12504376566E+03 0.  0.
    9000005    1    3    3    0    0 -0.54894294696E+02  0.18497301807E+02 -0.21514279728E+02  0.61801278275E+02  0.10000000000E+01 0.  0.
    9000005    1    3    3    0    0  0.54894294696E+02 -0.18497301807E+02 -0.82711118432E+02  0.10098347824E+03  0.10000000000E+01 0.  0.
<mgrwt>
<rscale>  0 0.12504377E+03</rscale>
<asrwt>0</asrwt>
<pdfrwt beam="2">  1        4 0.20539242E-01 0.12504377E+03</pdfrwt>
<pdfrwt beam="1">  1       -4 0.45045661E-02 0.12504377E+03</pdfrwt>
<totfact> 0.96713434E+03</totfact>
</mgrwt>
</event>
<event>
 5    1  0.3316199E-002  0.1249982E+03  0.7818608E-02  0.1235072E+00
          4   -1    0    0  501    0  0.00000000000E+00  0.00000000000E+00  0.42863249046E+02  0.42882059405E+02  0.12700000000E+01 0.  1.
         -4   -1    0    0    0  501 -0.00000000000E+00 -0.00000000000E+00 -0.91087033913E+02  0.91095887103E+02  0.12700000000E+01 0.  1.
         25    2    1    2    0    0  0.00000000000E+00  0.00000000000E+00 -0.48223784867E+02  0.13397794651E+03  0.12499822688E+03 0.  0.
    9000005    1    3    3    0    0  0.28023809137E+02 -0.54215607033E+02 -0.38511010469E+02  0.72171766307E+02  0.10000000000E+01 0.  0.
    9000005    1    3    3    0    0 -0.28023809137E+02  0.54215607033E+02 -0.97127743980E+01  0.61806180201E+02  0.10000000000E+01 0.  0.
<mgrwt>
<rscale>  0 0.12499823E+03</rscale>
<asrwt>0</asrwt>
<pdfrwt beam="1">  1        4 0.65964740E-02 0.12499823E+03</pdfrwt>
<pdfrwt beam="2">  1       -4 0.14015518E-01 0.12499823E+03</pdfrwt>
<totfact> 0.10260069E+04</totfact>
</mgrwt>
</event>
<event>
 5    1  0.3316199E-002  0.1250003E+03  0.7818608E-02  0.1235069E+00
          4   -1    0    0  501    0  0.00000000000E+00  0.00000000000E+00  0.45289368823E+02  0.45307171931E+02  0.12700000000E+01 0. -1.
         -4   -1    0    0    0  501 -0.00000000000E+00 -0.00000000000E+00 -0.86211847070E+02  0.86221200846E+02  0.12700000000E+01 0. -1.
         25    2    1    2    0    0  0.00000000000E+00  0.00000000000E+00 -0.40922478247E+02  0.13152837278E+03  0.12500025448E+03 0.  0.
    9000005    1    3    3    0    0  0.27626469148E+02  0.54904677854E+02 -0.32343483505E+02  0.69461114108E+02  0.10000000000E+01 0.  0.
    9000005    1    3    3    0    0 -0.27626469148E+02 -0.54904677854E+02 -0.85789947415E+01  0.62067258669E+02  0.10000000000E+01 0.  0.
<mgrwt>
<rscale>  0 0.12500025E+03</rscale>
<asrwt>0</asrwt>
<pdfrwt beam="1">  1        4 0.69696842E-02 0.12500025E+03</pdfrwt>
<pdfrwt beam="2">  1       -4 0.13265450E-01 0.12500025E+03</pdfrwt>
<totfact> 0.10311716E+04</totfact>
</mgrwt>
</event>
<event>
 5    1  0.3316199E-002  0.1249986E+03  0.7818608E-02  0.1235071E+00
          4   -1    0    0  501    0  0.00000000000E+00  0.00000000000E+00  0.44691934006E+02  0.44709975007E+02  0.12700000000E+01 0. -1.
         -4   -1    0    0    0  501 -0.00000000000E+00 -0.00000000000E+00 -0.87361679641E+02  0.87370910317E+02  0.12700000000E+01 0. -1.
         25    2    1    2    0    0  0.00000000000E+00  0.00000000000E+00 -0.42669745635E+02  0.13208088532E+03  0.12499861229E+03 0.  0.
    9000005    1    3    3    0    0 -0.42632099607E+01 -0.61434568866E+02 -0.10113272733E+02  0.62415218467E+02  0.10000000000E+01 0.  0.
    9000005    1    3    3    0    0  0.42632099607E+01  0.61434568866E+02 -0.32556472902E+02  0.69665666857E+02  0.10000000000E+01 0.  0.
<mgrwt>
<rscale>  0 0.12499861E+03</rscale>
<asrwt>0</asrwt>
<pdfrwt beam="1">  1        4 0.68777800E-02 0.12499861E+03</pdfrwt>
<pdfrwt beam="2">  1       -4 0.13442356E-01 0.12499861E+03</pdfrwt>
<totfact> 0.10300295E+04</totfact>
</mgrwt>
</event>
<event>
 5    1  0.3316199E-002  0.1250100E+03  0.7818608E-02  0.1235054E+00
          4   -1    0    0  501    0  0.00000000000E+00  0.00000000000E+00  0.22465627131E+02  0.22501495559E+02  0.12700000000E+01 0.  1.
         -4   -1    0    0    0  501 -0.00000000000E+00 -0.00000000000E+00 -0.17372772810E+03  0.17373237007E+03  0.12700000000E+01 0.  1.
         25    2    1    2    0    0  0.00000000000E+00  0.00000000000E+00 -0.15126210097E+03  0.19623386563E+03  0.12501002692E+03 0.  0.
    9000005    1    3    3    0    0 -0.23177398269E+02  0.28272924552E+02 -0.15519911089E+03  0.15945003630E+03  0.10000000000E+01 0.  0.
    9000005    1    3    3    0    0  0.23177398269E+02 -0.28272924552E+02  0.39370099242E+01  0.36783829333E+02  0.10000000000E+01 0.  0.
<mgrwt>
<rscale>  0 0.12501003E+03</rscale>
<asrwt>0</asrwt>
<pdfrwt beam="1">  1        4 0.34593666E-02 0.12501003E+03</pdfrwt>
<pdfrwt beam="2">  1       -4 0.26730458E-01 0.12501003E+03</pdfrwt>
<totfact> 0.90753441E+03</totfact>
</mgrwt>
</event>
<event>
 5    1  0.3316199E-002  0.1250017E+03  0.7818608E-02  0.1235067E+00
          4   -1    0    0  501    0  0.00000000000E+00  0.00000000000E+00  0.30264786046E+02  0.30291420806E+02  0.12700000000E+01 0.  1.
         -4   -1    0    0    0  501 -0.00000000000E+00 -0.00000000000E+00 -0.12898621288E+03  0.12899246495E+03  0.12700000000E+01 0.  1.
         25    2    1    2    0    0  0.00000000000E+00  0.00000000000E+00 -0.98721426832E+02  0.15928388575E+03  0.12500174457E+03 0.  0.
    9000005    1    3    3    0    0  0.43749367488E+02 -0.37173859436E+02 -0.80818413365E+02  0.99138887022E+02  0.10000000000E+01 0.  0.
    9000005    1    3    3    0    0 -0.43749367488E+02  0.37173859436E+02 -0.17903013467E+02  0.60144998730E+02  0.10000000000E+01 0.  0.
<mgrwt>
<rscale>  0 0.12500174E+03</rscale>
<asrwt>0</asrwt>
<pdfrwt beam="1">  1        4 0.46586507E-02 0.12500174E+03</pdfrwt>
<pdfrwt beam="2">  1       -4 0.19846562E-01 0.12500174E+03</pdfrwt>
<totfact> 0.97477201E+03</totfact>
</mgrwt>
</event>
<event>
 5    1  0.3316199E-002  0.1250107E+03  0.7818608E-02  0.1235053E+00
         -4   -1    0    0    0  501 -0.00000000000E+00  0.00000000000E+00  0.92393713724E+03  0.92393801008E+03  0.12700000000E+01 0.  1.
          4   -1    0    0  501    0  0.00000000000E+00 -0.00000000000E+00 -0.41323018696E+01  0.43230566434E+01  0.12700000000E+01 0.  1.
         25    2    1    2    0    0  0.00000000000E+00  0.00000000000E+00  0.91980483537E+03  0.92826106672E+03  0.12501069084E+03 0.  0.
    9000005    1    3    3    0    0  0.51295218508E+01  0.55571877221E+02  0.25101441115E+03  0.25714544549E+03  0.10000000000E+01 0.  0.
    9000005    1    3    3    0    0 -0.51295218508E+01 -0.55571877221E+02  0.66879042422E+03  0.67111562123E+03  0.10000000000E+01 0.  0.
<mgrwt>
<rscale>  0 0.12501069E+03</rscale>
<asrwt>0</asrwt>
<pdfrwt beam="2">  1        4 0.65047971E-03 0.12501069E+03</pdfrwt>
<pdfrwt beam="1">  1       -4 0.14215883E+00 0.12501069E+03</pdfrwt>
<totfact> 0.33092876E+03</totfact>
</mgrwt>
</event>
<event>
 5    1  0.3316199E-002  0.1250015E+03  0.7818608E-02  0.1235067E+00
          4   -1    0    0  501    0  0.00000000000E+00  0.00000000000E+00  0.74795209705E+01  0.75865759040E+01  0.12700000000E+01 0. -1.
         -4   -1    0    0    0  501 -0.00000000000E+00 -0.00000000000E+00 -0.51845324807E+03  0.51845480356E+03  0.12700000000E+01 0. -1.
         25    2    1    2    0    0  0.00000000000E+00  0.00000000000E+00 -0.51097372710E+03  0.52604137947E+03  0.12500153248E+03 0.  0.
    9000005    1    3    3    0    0  0.19571484864E+02 -0.20089037845E+02 -0.20472887193E+02  0.34738330002E+02  0.10000000000E+01 0.  0.
    9000005    1    3    3    0    0 -0.19571484864E+02  0.20089037845E+02 -0.49050083991E+03  0.49130304947E+03  0.10000000000E+01 0.  0.
<mgrwt>
<rscale>  0 0.12500153E+03</rscale>
<asrwt>0</asrwt>
<pdfrwt beam="1">  1        4 0.11590506E-02 0.12500153E+03</pdfrwt>
<pdfrwt beam="2">  1       -4 0.79770365E-01 0.12500153E+03</pdfrwt>
<totfact> 0.53897207E+03</totfact>
</mgrwt>
</event>
<event>
 5    1  0.3316199E-002  0.1249974E+03  0.7818608E-02  0.1235073E+00
          4   -1    0    0  501    0  0.00000000000E+00  0.00000000000E+00  0.35473521249E+03  0.35473748586E+03  0.12700000000E+01 0. -1.
         -4   -1    0    0    0  501 -0.00000000000E+00 -0.00000000000E+00 -0.10972336338E+02  0.11045590284E+02  0.12700000000E+01 0. -1.
         25    2    1    2    0    0  0.00000000000E+00  0.00000000000E+00  0.34376287615E+03  0.36578307615E+03  0.12499737509E+03 0.  0.
    9000005    1    3    3    0    0 -0.40900674583E+02 -0.47052142206E+02  0.15935735151E+03  0.17112140354E+03  0.10000000000E+01 0.  0.
    9000005    1    3    3    0    0  0.40900674583E+02  0.47052142206E+02  0.18440552464E+03  0.19466167261E+03  0.10000000000E+01 0.  0.
<mgrwt>
<rscale>  0 0.12499738E+03</rscale>
<asrwt>0</asrwt>
<pdfrwt beam="1">  1        4 0.54580455E-01 0.12499738E+03</pdfrwt>
<pdfrwt beam="2">  1       -4 0.16938616E-02 0.12499738E+03</pdfrwt>
<totfact> 0.68026374E+03</totfact>
</mgrwt>
</event>
<event>
 5    1  0.3316199E-002  0.1249990E+03  0.7818608E-02  0.1235071E+00
          4   -1    0    0  501    0  0.00000000000E+00  0.00000000000E+00  0.38378322790E+02  0.38399330205E+02  0.12700000000E+01 0. -1.
         -4   -1    0    0    0  501 -0.00000000000E+00 -0.00000000000E+00 -0.10172825698E+03  0.10173618416E+03  0.12700000000E+01 0. -1.
         25    2    1    2    0    0  0.00000000000E+00  0.00000000000E+00 -0.63349934191E+02  0.14013551437E+03  0.12499899290E+03 0.  0.
    9000005    1    3    3    0    0 -0.51425425677E+02  0.22201347094E+02 -0.61213140747E+00  0.56025431044E+02  0.10000000000E+01 0.  0.
    9000005    1    3    3    0    0  0.51425425677E+02 -0.22201347094E+02 -0.62737802784E+02  0.84110083325E+02  0.10000000000E+01 0.  0.
<mgrwt>
<rscale>  0 0.12499899E+03</rscale>
<asrwt>0</asrwt>
<pdfrwt beam="1">  1        4 0.59065831E-02 0.12499899E+03</pdfrwt>
<pdfrwt beam="2">  1       -4 0.15652727E-01 0.12499899E+03</pdfrwt>
<totfact> 0.10131008E+04</totfact>
</mgrwt>
</event>
<event>
 5    1  0.3316199E-002  0.1249987E+03  0.7818608E-02  0.1235071E+00
         -4   -1    0    0    0  501 -0.00000000000E+00  0.00000000000E+00  0.21670377822E+01  0.25117628768E+01  0.12700000000E+01 0. -1.
          4   -1    0    0  501    0  0.00000000000E+00 -0.00000000000E+00 -0.16693859466E+04  0.16693864297E+04  0.12700000000E+01 0. -1.
         25    2    1    2    0    0  0.00000000000E+00  0.00000000000E+00 -0.16672189088E+04  0.16718981926E+04  0.12499870544E+03 0.  0.
    9000005    1    3    3    0    0 -0.15785039663E+02  0.55113888670E+02 -0.50098020702E+03  0.50425080667E+03  0.10000000000E+01 0.  0.
    9000005    1    3    3    0    0  0.15785039663E+02 -0.55113888670E+02 -0.11662387018E+04  0.11676473859E+04  0.10000000000E+01 0.  0.
<mgrwt>
<rscale>  0 0.12499871E+03</rscale>
<asrwt>0</asrwt>
<pdfrwt beam="2">  1        4 0.25685421E+00 0.12499871E+03</pdfrwt>
<pdfrwt beam="1">  1       -4 0.35994624E-03 0.12499871E+03</pdfrwt>
<totfact> 0.14782716E+03</totfact>
</mgrwt>
</event>
<event>
 5    1  0.3316199E-002  0.1250016E+03  0.7818608E-02  0.1235067E+00
         -4   -1    0    0    0  501 -0.00000000000E+00  0.00000000000E+00  0.80476197234E+02  0.80486217585E+02  0.12700000000E+01 0. -1.
          4   -1    0    0  501    0  0.00000000000E+00 -0.00000000000E+00 -0.48519091390E+02  0.48535709836E+02  0.12700000000E+01 0. -1.
         25    2    1    2    0    0  0.00000000000E+00  0.00000000000E+00  0.31957105844E+02  0.12902192742E+03  0.12500160456E+03 0.  0.
    9000005    1    3    3    0    0  0.24909711281E+02  0.57160596756E+02  0.11657903368E+02  0.63440793253E+02  0.10000000000E+01 0.  0.
    9000005    1    3    3    0    0 -0.24909711281E+02 -0.57160596756E+02  0.20299202476E+02  0.65581134168E+02  0.10000000000E+01 0.  0.
<mgrwt>
<rscale>  0 0.12500160E+03</rscale>
<asrwt>0</asrwt>
<pdfrwt beam="2">  1        4 0.74665247E-02 0.12500160E+03</pdfrwt>
<pdfrwt beam="1">  1       -4 0.12383003E-01 0.12500160E+03</pdfrwt>
<totfact> 0.10365100E+04</totfact>
</mgrwt>
</event>
<event>
 5    1  0.3316199E-002  0.1249927E+03  0.7818608E-02  0.1235081E+00
         -4   -1    0    0    0  501 -0.00000000000E+00  0.00000000000E+00  0.90186292739E+02  0.90195234342E+02  0.12700000000E+01 0.  1.
          4   -1    0    0  501    0  0.00000000000E+00 -0.00000000000E+00 -0.43287631449E+02  0.43306257474E+02  0.12700000000E+01 0.  1.
         25    2    1    2    0    0  0.00000000000E+00  0.00000000000E+00  0.46898661290E+02  0.13350149182E+03  0.12499265533E+03 0.  0.
    9000005    1    3    3    0    0  0.39661788278E+02  0.35420367704E+02 -0.11604533726E+02  0.54436431741E+02  0.10000000000E+01 0.  0.
    9000005    1    3    3    0    0 -0.39661788278E+02 -0.35420367704E+02  0.58503195016E+02  0.79065060076E+02  0.10000000000E+01 0.  0.
<mgrwt>
<rscale>  0 0.12499266E+03</rscale>
<asrwt>0</asrwt>
<pdfrwt beam="2">  1        4 0.66617563E-02 0.12499266E+03</pdfrwt>
<pdfrwt beam="1">  1       -4 0.13876935E-01 0.12499266E+03</pdfrwt>
<totfact> 0.10271455E+04</totfact>
</mgrwt>
</event>
<event>
 5    1  0.3316199E-002  0.1249996E+03  0.7818608E-02  0.1235070E+00
          4   -1    0    0  501    0  0.00000000000E+00  0.00000000000E+00  0.13780059622E+03  0.13780644840E+03  0.12700000000E+01 0. -1.
         -4   -1    0    0    0  501 -0.00000000000E+00 -0.00000000000E+00 -0.28326253650E+02  0.28354709413E+02  0.12700000000E+01 0. -1.
         25    2    1    2    0    0  0.00000000000E+00  0.00000000000E+00  0.10947434257E+03  0.16616115781E+03  0.12499959473E+03 0.  0.
    9000005    1    3    3    0    0 -0.23648100008E+02  0.39929938195E+02 -0.89645773529E+00  0.46426675896E+02  0.10000000000E+01 0.  0.
    9000005    1    3    3    0    0  0.23648100008E+02 -0.39929938195E+02  0.11037080031E+03  0.11973448191E+03  0.10000000000E+01 0.  0.
<mgrwt>
<rscale>  0 0.12499959E+03</rscale>
<asrwt>0</asrwt>
<pdfrwt beam="1">  1        4 0.21202731E-01 0.12499959E+03</pdfrwt>
<pdfrwt beam="2">  1       -4 0.43605241E-02 0.12499959E+03</pdfrwt>
<totfact> 0.96168813E+03</totfact>
</mgrwt>
</event>
<event>
 5    1  0.3316199E-002  0.1249990E+03  0.7818608E-02  0.1235071E+00
         -4   -1    0    0    0  501 -0.00000000000E+00  0.00000000000E+00  0.88960972427E+02  0.88970037176E+02  0.12700000000E+01 0. -1.
          4   -1    0    0  501    0  0.00000000000E+00 -0.00000000000E+00 -0.43888496346E+02  0.43906867476E+02  0.12700000000E+01 0. -1.
         25    2    1    2    0    0  0.00000000000E+00  0.00000000000E+00  0.45072476081E+02  0.13287690465E+03  0.12499897476E+03 0.  0.
    9000005    1    3    3    0    0 -0.53072008205E+01 -0.46411185660E+02 -0.21589134592E+02  0.51470916713E+02  0.10000000000E+01 0.  0.
    9000005    1    3    3    0    0  0.53072008205E+01  0.46411185660E+02  0.66661610672E+02  0.81405987939E+02  0.10000000000E+01 0.  0.
<mgrwt>
<rscale>  0 0.12499897E+03</rscale>
<asrwt>0</asrwt>
<pdfrwt beam="2">  1        4 0.67541868E-02 0.12499897E+03</pdfrwt>
<pdfrwt beam="1">  1       -4 0.13688414E-01 0.12499897E+03</pdfrwt>
<totfact> 0.10283255E+04</totfact>
</mgrwt>
</event>
<event>
 5    1  0.3316199E-002  0.1250023E+03  0.7818608E-02  0.1235066E+00
         -4   -1    0    0    0  501 -0.00000000000E+00  0.00000000000E+00  0.74245969611E+01  0.75324325443E+01  0.12700000000E+01 0. -1.
          4   -1    0    0  501    0  0.00000000000E+00 -0.00000000000E+00 -0.52224023802E+03  0.52224178223E+03  0.12700000000E+01 0. -1.
         25    2    1    2    0    0  0.00000000000E+00  0.00000000000E+00 -0.51481564106E+03  0.52977421478E+03  0.12500229742E+03 0.  0.
    9000005    1    3    3    0    0  0.71837070886E+01  0.39663652993E+02 -0.55014711301E+02  0.68208719939E+02  0.10000000000E+01 0.  0.
    9000005    1    3    3    0    0 -0.71837070886E+01 -0.39663652993E+02 -0.45980092976E+03  0.46156549484E+03  0.10000000000E+01 0.  0.
<mgrwt>
<rscale>  0 0.12500230E+03</rscale>
<asrwt>0</asrwt>
<pdfrwt beam="2">  1        4 0.80353037E-01 0.12500230E+03</pdfrwt>
<pdfrwt beam="1">  1       -4 0.11506599E-02 0.12500230E+03</pdfrwt>
<totfact> 0.53623364E+03</totfact>
</mgrwt>
</event>
<event>
 5    1  0.3316199E-002  0.1250546E+03  0.7818608E-02  0.1234984E+00
         -4   -1    0    0    0  501 -0.00000000000E+00  0.00000000000E+00  0.24810160868E+02  0.24842644430E+02  0.12700000000E+01 0. -1.
          4   -1    0    0  501    0  0.00000000000E+00 -0.00000000000E+00 -0.15744502786E+03  0.15745014988E+03  0.12700000000E+01 0. -1.
         25    2    1    2    0    0  0.00000000000E+00  0.00000000000E+00 -0.13263486700E+03  0.18229279432E+03  0.12505460774E+03 0.  0.
    9000005    1    3    3    0    0  0.76254968792E+01 -0.62022373430E+02 -0.69136773392E+02  0.93197727674E+02  0.10000000000E+01 0.  0.
    9000005    1    3    3    0    0 -0.76254968792E+01  0.62022373430E+02 -0.63498093604E+02  0.89095066641E+02  0.10000000000E+01 0.  0.
<mgrwt>
<rscale>  0 0.12505461E+03</rscale>
<asrwt>0</asrwt>
<pdfrwt beam="2">  1        4 0.24225204E-01 0.12505461E+03</pdfrwt>
<pdfrwt beam="1">  1       -4 0.38198407E-02 0.12505461E+03</pdfrwt>
<totfact> 0.93091909E+03</totfact>
</mgrwt>
</event>
<event>
 5    1  0.3316199E-002  0.1249993E+03  0.7818608E-02  0.1235070E+00
         -4   -1    0    0    0  501 -0.00000000000E+00  0.00000000000E+00  0.64743418067E+03  0.64743542628E+03  0.12700000000E+01 0.  1.
          4   -1    0    0  501    0  0.00000000000E+00 -0.00000000000E+00 -0.59652688307E+01  0.60989615692E+01  0.12700000000E+01 0.  1.
         25    2    1    2    0    0  0.00000000000E+00  0.00000000000E+00  0.64146891184E+03  0.65353438785E+03  0.12499932497E+03 0.  0.
    9000005    1    3    3    0    0 -0.28330245483E+02 -0.53281627105E+02  0.23583717448E+03  0.24343727624E+03  0.10000000000E+01 0.  0.
    9000005    1    3    3    0    0  0.28330245483E+02  0.53281627105E+02  0.40563173736E+03  0.41009711161E+03  0.10000000000E+01 0.  0.
<mgrwt>
<rscale>  0 0.12499932E+03</rscale>
<asrwt>0</asrwt>
<pdfrwt beam="2">  1        4 0.92811404E-03 0.12499932E+03</pdfrwt>
<pdfrwt beam="1">  1       -4 0.99615585E-01 0.12499932E+03</pdfrwt>
<totfact> 0.45654288E+03</totfact>
</mgrwt>
</event>
<event>
 4    1  0.3316199E-002  0.1250831E+03  0.7818608E-02  0.1234939E+00
         -4   -1    0    0    0  501 -0.00000000000E+00  0.00000000000E+00  0.21736740863E+03  0.21737111868E+03  0.12700000000E+01 0.  1.
          4   -1    0    0  501    0  0.00000000000E+00 -0.00000000000E+00 -0.17968363702E+02  0.18013189449E+02  0.12700000000E+01 0.  1.
    9000005    1    1    2    0    0 -0.60995587645E+02  0.77846989141E+01  0.78294245932E+02  0.99559289850E+02  0.10000000000E+01 0.  0.
    9000005    1    1    2    0    0  0.60995587645E+02 -0.77846989141E+01  0.12110479900E+03  0.13582501827E+03  0.10000000000E+01 0.  0.
<mgrwt>
<rscale>  0 0.12508315E+03</rscale>
<asrwt>0</asrwt>
<pdfrwt beam="2">  1        4 0.27680971E-02 0.12508315E+03</pdfrwt>
<pdfrwt beam="1">  1       -4 0.33444874E-01 0.12508315E+03</pdfrwt>
<totfact> 0.84333150E+03</totfact>
</mgrwt>
</event>
<event>
 5    1  0.3316199E-002  0.1250007E+03  0.7818608E-02  0.1235068E+00
          4   -1    0    0  501    0  0.00000000000E+00  0.00000000000E+00  0.19991998985E+03  0.19992402367E+03  0.12700000000E+01 0. -1.
         -4   -1    0    0    0  501 -0.00000000000E+00 -0.00000000000E+00 -0.19514400130E+02  0.19555682357E+02  0.12700000000E+01 0. -1.
         25    2    1    2    0    0  0.00000000000E+00  0.00000000000E+00  0.18040558972E+03  0.21947970603E+03  0.12500065823E+03 0.  0.
    9000005    1    3    3    0    0  0.12012328392E+02 -0.60957682858E+02  0.78403940706E+02  0.10004155662E+03  0.10000000000E+01 0.  0.
    9000005    1    3    3    0    0 -0.12012328392E+02  0.60957682858E+02  0.10200164902E+03  0.11943814941E+03  0.10000000000E+01 0.  0.
<mgrwt>
<rscale>  0 0.12500066E+03</rscale>
<asrwt>0</asrwt>
<pdfrwt beam="1">  1        4 0.30760408E-01 0.12500066E+03</pdfrwt>
<pdfrwt beam="2">  1       -4 0.30057012E-02 0.12500066E+03</pdfrwt>
<totfact> 0.86949467E+03</totfact>
</mgrwt>
</event>
<event>
 5    1  0.3316199E-002  0.1249955E+03  0.7818608E-02  0.1235076E+00
          4   -1    0    0  501    0  0.00000000000E+00  0.00000000000E+00  0.10370551055E+03  0.10371328661E+03  0.12700000000E+01 0.  1.
         -4   -1    0    0    0  501 -0.00000000000E+00 -0.00000000000E+00 -0.37644137910E+02  0.37665554808E+02  0.12700000000E+01 0.  1.
         25    2    1    2    0    0  0.00000000000E+00  0.00000000000E+00  0.66061372641E+02  0.14137884141E+03  0.12499548730E+03 0.  0.
    9000005    1    3    3    0    0 -0.99658065949E+01 -0.61610055563E+02  0.36580830334E+02  0.72348278456E+02  0.10000000000E+01 0.  0.
    9000005    1    3    3    0    0  0.99658065949E+01  0.61610055563E+02  0.29480542306E+02  0.69030562958E+02  0.10000000000E+01 0.  0.
<mgrwt>
<rscale>  0 0.12499549E+03</rscale>
<asrwt>0</asrwt>
<pdfrwt beam="1">  1        4 0.15956940E-01 0.12499549E+03</pdfrwt>
<pdfrwt beam="2">  1       -4 0.57936514E-02 0.12499549E+03</pdfrwt>
<totfact> 0.10106115E+04</totfact>
</mgrwt>
</event>
<event>
 5    1  0.3316199E-002  0.1250003E+03  0.7818608E-02  0.1235069E+00
          4   -1    0    0  501    0  0.00000000000E+00  0.00000000000E+00  0.23838974352E+02  0.23872779439E+02  0.12700000000E+01 0.  1.
         -4   -1    0    0    0  501 -0.00000000000E+00 -0.00000000000E+00 -0.16370830173E+03  0.16371322780E+03  0.12700000000E+01 0.  1.
         25    2    1    2    0    0  0.00000000000E+00  0.00000000000E+00 -0.13986932738E+03  0.18758600724E+03  0.12500032548E+03 0.  0.
    9000005    1    3    3    0    0  0.28117550949E+02 -0.47965912814E+02 -0.11274876114E+03  0.12571638160E+03  0.10000000000E+01 0.  0.
    9000005    1    3    3    0    0 -0.28117550949E+02  0.47965912814E+02 -0.27120566237E+02  0.61869625637E+02  0.10000000000E+01 0.  0.
<mgrwt>
<rscale>  0 0.12500033E+03</rscale>
<asrwt>0</asrwt>
<pdfrwt beam="1">  1        4 0.36705139E-02 0.12500033E+03</pdfrwt>
<pdfrwt beam="2">  1       -4 0.25188871E-01 0.12500033E+03</pdfrwt>
<totfact> 0.92268373E+03</totfact>
</mgrwt>
</event>
<event>
 5    1  0.3316199E-002  0.1249986E+03  0.7818608E-02  0.1235071E+00
         -4   -1    0    0    0  501 -0.00000000000E+00  0.00000000000E+00  0.33865729976E+02  0.33889534768E+02  0.12700000000E+01 0.  1.
          4   -1    0    0  501    0  0.00000000000E+00 -0.00000000000E+00 -0.11527480272E+03  0.11528179840E+03  0.12700000000E+01 0.  1.
         25    2    1    2    0    0  0.00000000000E+00  0.00000000000E+00 -0.81409072742E+02  0.14917133317E+03  0.12499859805E+03 0.  0.
    9000005    1    3    3    0    0 -0.18699869509E+02  0.52383364445E+02 -0.74699446015E+02  0.93138119077E+02  0.10000000000E+01 0.  0.
    9000005    1    3    3    0    0  0.18699869509E+02 -0.52383364445E+02 -0.67096267269E+01  0.56033214089E+02  0.10000000000E+01 0.  0.
<mgrwt>
<rscale>  0 0.12499860E+03</rscale>
<asrwt>0</asrwt>
<pdfrwt beam="2">  1        4 0.17736954E-01 0.12499860E+03</pdfrwt>
<pdfrwt beam="1">  1       -4 0.52124816E-02 0.12499860E+03</pdfrwt>
<totfact> 0.99472276E+03</totfact>
</mgrwt>
</event>
<event>
 5    1  0.3316199E-002  0.1250051E+03  0.7818608E-02  0.1235061E+00
          4   -1    0    0  501    0  0.00000000000E+00  0.00000000000E+00  0.24038887964E+02  0.24072412313E+02  0.12700000000E+01 0. -1.
         -4   -1    0    0    0  501 -0.00000000000E+00 -0.00000000000E+00 -0.16236117005E+03  0.16236613699E+03  0.12700000000E+01 0. -1.
         25    2    1    2    0    0  0.00000000000E+00  0.00000000000E+00 -0.13832228209E+03  0.18643854930E+03  0.12500511567E+03 0.  0.
    9000005    1    3    3    0    0 -0.36997356205E+02  0.49640481967E+02 -0.56454226648E+02  0.83791774791E+02  0.10000000000E+01 0.  0.
    9000005    1    3    3    0    0  0.36997356205E+02 -0.49640481967E+02 -0.81868055441E+02  0.10264677451E+03  0.10000000000E+01 0.  0.
<mgrwt>
<rscale>  0 0.12500512E+03</rscale>
<asrwt>0</asrwt>
<pdfrwt beam="1">  1        4 0.37012514E-02 0.12500512E+03</pdfrwt>
<pdfrwt beam="2">  1       -4 0.24981602E-01 0.12500512E+03</pdfrwt>
<totfact> 0.92460116E+03</totfact>
</mgrwt>
</event>
<event>
 5    1  0.3316199E-002  0.1249999E+03  0.7818608E-02  0.1235069E+00
         -4   -1    0    0    0  501 -0.00000000000E+00  0.00000000000E+00  0.30560444589E+01  0.33094271007E+01  0.12700000000E+01 0. -1.
          4   -1    0    0  501    0  0.00000000000E+00 -0.00000000000E+00 -0.12270697463E+04  0.12270704036E+04  0.12700000000E+01 0. -1.
         25    2    1    2    0    0  0.00000000000E+00  0.00000000000E+00 -0.12240137019E+04  0.12303798307E+04  0.12499994118E+03 0.  0.
    9000005    1    3    3    0    0 -0.55077464099E+01 -0.38131014838E+02 -0.10963142645E+04  0.10969914658E+04  0.10000000000E+01 0.  0.
    9000005    1    3    3    0    0  0.55077464099E+01  0.38131014838E+02 -0.12769943739E+03  0.13338836483E+03  0.10000000000E+01 0.  0.
<mgrwt>
<rscale>  0 0.12499994E+03</rscale>
<asrwt>0</asrwt>
<pdfrwt beam="2">  1        4 0.18879912E+00 0.12499994E+03</pdfrwt>
<pdfrwt beam="1">  1       -4 0.48970319E-03 0.12499994E+03</pdfrwt>
<totfact> 0.23931220E+03</totfact>
</mgrwt>
</event>
<event>
 5    1  0.3316199E-002  0.1250050E+03  0.7818608E-02  0.1235061E+00
         -4   -1    0    0    0  501 -0.00000000000E+00  0.00000000000E+00  0.19988379889E+03  0.19988783345E+03  0.12700000000E+01 0.  1.
          4   -1    0    0  501    0  0.00000000000E+00 -0.00000000000E+00 -0.19519309770E+02  0.19560581635E+02  0.12700000000E+01 0.  1.
         25    2    1    2    0    0  0.00000000000E+00  0.00000000000E+00  0.18036448912E+03  0.21944841508E+03  0.12500503168E+03 0.  0.
    9000005    1    3    3    0    0 -0.60390922430E+02 -0.45553184901E+01  0.63113677840E+02  0.87476572687E+02  0.10000000000E+01 0.  0.
    9000005    1    3    3    0    0  0.60390922430E+02  0.45553184901E+01  0.11725081128E+03  0.13197184239E+03  0.10000000000E+01 0.  0.
<mgrwt>
<rscale>  0 0.12500503E+03</rscale>
<asrwt>0</asrwt>
<pdfrwt beam="2">  1        4 0.30064558E-02 0.12500503E+03</pdfrwt>
<pdfrwt beam="1">  1       -4 0.30754839E-01 0.12500503E+03</pdfrwt>
<totfact> 0.86945933E+03</totfact>
</mgrwt>
</event>
<event>
 5    1  0.3316199E-002  0.1249976E+03  0.7818608E-02  0.1235073E+00
          4   -1    0    0  501    0  0.00000000000E+00  0.00000000000E+00  0.12841481254E+02  0.12904128828E+02  0.12700000000E+01 0.  1.
         -4   -1    0    0    0  501 -0.00000000000E+00 -0.00000000000E+00 -0.30337416458E+03  0.30337682284E+03  0.12700000000E+01 0.  1.
         25    2    1    2    0    0  0.00000000000E+00  0.00000000000E+00 -0.29053268333E+03  0.31628095167E+03  0.12499760120E+03 0.  0.
    9000005    1    3    3    0    0  0.40738251212E+02  0.18732261583E+02 -0.35130209660E+02  0.56970469250E+02  0.10000000000E+01 0.  0.
    9000005    1    3    3    0    0 -0.40738251212E+02 -0.18732261583E+02 -0.25540247367E+03  0.25931048242E+03  0.10000000000E+01 0.  0.
<mgrwt>
<rscale>  0 0.12499760E+03</rscale>
<asrwt>0</asrwt>
<pdfrwt beam="1">  1        4 0.19806363E-02 0.12499760E+03</pdfrwt>
<pdfrwt beam="2">  1       -4 0.46677967E-01 0.12499760E+03</pdfrwt>
<totfact> 0.73604568E+03</totfact>
</mgrwt>
</event>
<event>
 5    1  0.3316199E-002  0.1249996E+03  0.7818608E-02  0.1235070E+00
         -4   -1    0    0    0  501 -0.00000000000E+00  0.00000000000E+00  0.12131975169E+03  0.12132639881E+03  0.12700000000E+01 0. -1.
          4   -1    0    0  501    0  0.00000000000E+00 -0.00000000000E+00 -0.32177715145E+02  0.32202767769E+02  0.12700000000E+01 0. -1.
         25    2    1    2    0    0  0.00000000000E+00  0.00000000000E+00  0.89142036541E+02  0.15352916658E+03  0.12499960925E+03 0.  0.
    9000005    1    3    3    0    0 -0.32298503386E+02 -0.39281583424E+02 -0.35969769443E-01  0.50864893700E+02  0.10000000000E+01 0.  0.
    9000005    1    3    3    0    0  0.32298503386E+02  0.39281583424E+02  0.89178006311E+02  0.10266427288E+03  0.10000000000E+01 0.  0.
<mgrwt>
<rscale>  0 0.12499961E+03</rscale>
<asrwt>0</asrwt>
<pdfrwt beam="2">  1        4 0.49528561E-02 0.12499961E+03</pdfrwt>
<pdfrwt beam="1">  1       -4 0.18667016E-01 0.12499961E+03</pdfrwt>
<totfact> 0.98605673E+03</totfact>
</mgrwt>
</event>
<event>
 5    1  0.3316199E-002  0.1250075E+03  0.7818608E-02  0.1235058E+00
         -4   -1    0    0    0  501 -0.00000000000E+00  0.00000000000E+00  0.11667304657E+02  0.11736221622E+02  0.12700000000E+01 0.  1.
          4   -1    0    0  501    0  0.00000000000E+00 -0.00000000000E+00 -0.33378724866E+03  0.33378966472E+03  0.12700000000E+01 0.  1.
         25    2    1    2    0    0  0.00000000000E+00  0.00000000000E+00 -0.32211994401E+03  0.34552588634E+03  0.12500751898E+03 0.  0.
    9000005    1    3    3    0    0  0.14551100110E+02  0.38425748573E+02 -0.30901900347E+02  0.51421786364E+02  0.10000000000E+01 0.  0.
    9000005    1    3    3    0    0 -0.14551100110E+02 -0.38425748573E+02 -0.29121804366E+03  0.29410409997E+03  0.10000000000E+01 0.  0.
<mgrwt>
<rscale>  0 0.12500752E+03</rscale>
<asrwt>0</asrwt>
<pdfrwt beam="2">  1        4 0.51357364E-01 0.12500752E+03</pdfrwt>
<pdfrwt beam="1">  1       -4 0.18004574E-02 0.12500752E+03</pdfrwt>
<totfact> 0.70207901E+03</totfact>
</mgrwt>
</event>
<event>
 5    1  0.3316199E-002  0.1249960E+03  0.7818608E-02  0.1235076E+00
         -4   -1    0    0    0  501 -0.00000000000E+00  0.00000000000E+00  0.12228550121E+03  0.12229209585E+03  0.12700000000E+01 0.  1.
          4   -1    0    0  501    0  0.00000000000E+00 -0.00000000000E+00 -0.31921558357E+02  0.31946811858E+02  0.12700000000E+01 0.  1.
         25    2    1    2    0    0  0.00000000000E+00  0.00000000000E+00  0.90363942854E+02  0.15423890770E+03  0.12499599386E+03 0.  0.
    9000005    1    3    3    0    0 -0.21947390342E+02 -0.10413359747E+01  0.11736785429E+03  0.11941099424E+03  0.10000000000E+01 0.  0.
    9000005    1    3    3    0    0  0.21947390342E+02  0.10413359747E+01 -0.27003911439E+02  0.34827913467E+02  0.10000000000E+01 0.  0.
<mgrwt>
<rscale>  0 0.12499599E+03</rscale>
<asrwt>0</asrwt>
<pdfrwt beam="2">  1        4 0.49134588E-02 0.12499599E+03</pdfrwt>
<pdfrwt beam="1">  1       -4 0.18815604E-01 0.12499599E+03</pdfrwt>
<totfact> 0.98473991E+03</totfact>
</mgrwt>
</event>
<event>
 5    1  0.3316199E-002  0.1250032E+03  0.7818608E-02  0.1235064E+00
          4   -1    0    0  501    0  0.00000000000E+00  0.00000000000E+00  0.41778924899E+02  0.41798223237E+02  0.12700000000E+01 0.  1.
         -4   -1    0    0    0  501 -0.00000000000E+00 -0.00000000000E+00 -0.93457742675E+02  0.93466371310E+02  0.12700000000E+01 0.  1.
         25    2    1    2    0    0  0.00000000000E+00  0.00000000000E+00 -0.51678817776E+02  0.13526459455E+03  0.12500324128E+03 0.  0.
    9000005    1    3    3    0    0 -0.13994318609E+02  0.57626772347E+02 -0.45036835769E+01  0.59480828930E+02  0.10000000000E+01 0.  0.
    9000005    1    3    3    0    0  0.13994318609E+02 -0.57626772347E+02 -0.47175134199E+02  0.75783765617E+02  0.10000000000E+01 0.  0.
<mgrwt>
<rscale>  0 0.12500324E+03</rscale>
<asrwt>0</asrwt>
<pdfrwt beam="1">  1        4 0.64296751E-02 0.12500324E+03</pdfrwt>
<pdfrwt beam="2">  1       -4 0.14380262E-01 0.12500324E+03</pdfrwt>
<totfact> 0.10231749E+04</totfact>
</mgrwt>
</event>
<event>
 5    1  0.3316199E-002  0.1249972E+03  0.7818608E-02  0.1235074E+00
          4   -1    0    0  501    0  0.00000000000E+00  0.00000000000E+00  0.64153616723E+03  0.64153742429E+03  0.12700000000E+01 0.  1.
         -4   -1    0    0    0  501 -0.00000000000E+00 -0.00000000000E+00 -0.60211284225E+01  0.61536076800E+01  0.12700000000E+01 0.  1.
         25    2    1    2    0    0  0.00000000000E+00  0.00000000000E+00  0.63551503881E+03  0.64769103197E+03  0.12499723334E+03 0.  0.
    9000005    1    3    3    0    0 -0.54215560284E+02 -0.30783686044E+02  0.29570368823E+03  0.30220627646E+03  0.10000000000E+01 0.  0.
    9000005    1    3    3    0    0  0.54215560284E+02  0.30783686044E+02  0.33981135058E+03  0.34548475551E+03  0.10000000000E+01 0.  0.
<mgrwt>
<rscale>  0 0.12499723E+03</rscale>
<asrwt>0</asrwt>
<pdfrwt beam="1">  1        4 0.98708163E-01 0.12499723E+03</pdfrwt>
<pdfrwt beam="2">  1       -4 0.93661482E-03 0.12499723E+03</pdfrwt>
<totfact> 0.45991887E+03</totfact>
</mgrwt>
</event>
<event>
 5    1  0.3316199E-002  0.1249978E+03  0.7818608E-02  0.1235073E+00
          4   -1    0    0  501    0  0.00000000000E+00  0.00000000000E+00  0.89517454270E+01  0.90413851920E+01  0.12700000000E+01 0.  1.
         -4   -1    0    0    0  501 -0.00000000000E+00 -0.00000000000E+00 -0.43408766769E+03  0.43408952549E+03  0.12700000000E+01 0.  1.
         25    2    1    2    0    0  0.00000000000E+00  0.00000000000E+00 -0.42513592226E+03  0.44313091068E+03  0.12499780640E+03 0.  0.
    9000005    1    3    3    0    0 -0.53916435034E+02  0.29857035927E+02 -0.24918541410E+03  0.25669591964E+03  0.10000000000E+01 0.  0.
    9000005    1    3    3    0    0  0.53916435034E+02 -0.29857035927E+02 -0.17595050817E+03  0.18643499105E+03  0.10000000000E+01 0.  0.
<mgrwt>
<rscale>  0 0.12499781E+03</rscale>
<asrwt>0</asrwt>
<pdfrwt beam="1">  1        4 0.13842302E-02 0.12499781E+03</pdfrwt>
<pdfrwt beam="2">  1       -4 0.66789740E-01 0.12499781E+03</pdfrwt>
<totfact> 0.60566452E+03</totfact>
</mgrwt>
</event>
<event>
 5    1  0.3316199E-002  0.1249966E+03  0.7818608E-02  0.1235075E+00
         -4   -1    0    0    0  501 -0.00000000000E+00  0.00000000000E+00  0.22835237729E+01  0.26129257206E+01  0.12700000000E+01 0.  1.
          4   -1    0    0  501    0  0.00000000000E+00 -0.00000000000E+00 -0.15951282764E+04  0.15951287820E+04  0.12700000000E+01 0.  1.
         25    2    1    2    0    0  0.00000000000E+00  0.00000000000E+00 -0.15928447526E+04  0.15977417077E+04  0.12499663405E+03 0.  0.
    9000005    1    3    3    0    0 -0.59935029860E+01  0.56581957433E+02 -0.11266902290E+04  0.11281264610E+04  0.10000000000E+01 0.  0.
    9000005    1    3    3    0    0  0.59935029860E+01 -0.56581957433E+02 -0.46615452365E+03  0.46961524667E+03  0.10000000000E+01 0.  0.
<mgrwt>
<rscale>  0 0.12499663E+03</rscale>
<asrwt>0</asrwt>
<pdfrwt beam="2">  1        4 0.24542890E+00 0.12499663E+03</pdfrwt>
<pdfrwt beam="1">  1       -4 0.37669013E-03 0.12499663E+03</pdfrwt>
<totfact> 0.16088230E+03</totfact>
</mgrwt>
</event>
<event>
 5    1  0.3316199E-002  0.1250113E+03  0.7818608E-02  0.1235052E+00
         -4   -1    0    0    0  501 -0.00000000000E+00  0.00000000000E+00  0.19927147758E+04  0.19927151805E+04  0.12700000000E+01 0. -1.
          4   -1    0    0  501    0  0.00000000000E+00 -0.00000000000E+00 -0.17545120247E+01  0.21659206922E+01  0.12700000000E+01 0. -1.
         25    2    1    2    0    0  0.00000000000E+00  0.00000000000E+00  0.19909602638E+04  0.19948811012E+04  0.12501134332E+03 0.  0.
    9000005    1    3    3    0    0  0.17430785060E+02  0.28186372767E+02  0.18410304814E+04  0.18413290139E+04  0.10000000000E+01 0.  0.
    9000005    1    3    3    0    0 -0.17430785060E+02 -0.28186372767E+02  0.14992978240E+03  0.15355208734E+03  0.10000000000E+01 0.  0.
<mgrwt>
<rscale>  0 0.12501134E+03</rscale>
<asrwt>0</asrwt>
<pdfrwt beam="2">  1        4 0.30160567E-03 0.12501134E+03</pdfrwt>
<pdfrwt beam="1">  1       -4 0.30660035E+00 0.12501134E+03</pdfrwt>
<totfact> 0.99259407E+02</totfact>
</mgrwt>
</event>
<event>
 5    1  0.3316199E-002  0.1250067E+03  0.7818608E-02  0.1235059E+00
         -4   -1    0    0    0  501 -0.00000000000E+00  0.00000000000E+00  0.22601235334E+03  0.22601592148E+03  0.12700000000E+01 0.  1.
          4   -1    0    0  501    0  0.00000000000E+00 -0.00000000000E+00 -0.17258161686E+02  0.17304827210E+02  0.12700000000E+01 0.  1.
         25    2    1    2    0    0  0.00000000000E+00  0.00000000000E+00  0.20875419166E+03  0.24332074869E+03  0.12500669666E+03 0.  0.
    9000005    1    3    3    0    0  0.15513191455E+02 -0.53328995129E+02  0.16015019474E+03  0.16951025251E+03  0.10000000000E+01 0.  0.
    9000005    1    3    3    0    0 -0.15513191455E+02  0.53328995129E+02  0.48603996922E+02  0.73810496187E+02  0.10000000000E+01 0.  0.
<mgrwt>
<rscale>  0 0.12500670E+03</rscale>
<asrwt>0</asrwt>
<pdfrwt beam="2">  1        4 0.26589659E-02 0.12500670E+03</pdfrwt>
<pdfrwt beam="1">  1       -4 0.34774996E-01 0.12500670E+03</pdfrwt>
<totfact> 0.83292840E+03</totfact>
</mgrwt>
</event>
<event>
 5    1  0.3316199E-002  0.1250239E+03  0.7818608E-02  0.1235032E+00
         -4   -1    0    0    0  501 -0.00000000000E+00  0.00000000000E+00  0.53160704806E+01  0.54656660486E+01  0.12700000000E+01 0. -1.
          4   -1    0    0  501    0  0.00000000000E+00 -0.00000000000E+00 -0.72473212749E+03  0.72473324025E+03  0.12700000000E+01 0. -1.
         25    2    1    2    0    0  0.00000000000E+00  0.00000000000E+00 -0.71941605701E+03  0.73019890630E+03  0.12502391639E+03 0.  0.
    9000005    1    3    3    0    0 -0.14609013962E+02  0.60273485202E+02 -0.31430661423E+03  0.32036848168E+03  0.10000000000E+01 0.  0.
    9000005    1    3    3    0    0  0.14609013962E+02 -0.60273485202E+02 -0.40510944278E+03  0.40983042461E+03  0.10000000000E+01 0.  0.
<mgrwt>
<rscale>  0 0.12502392E+03</rscale>
<asrwt>0</asrwt>
<pdfrwt beam="2">  1        4 0.11150877E+00 0.12502392E+03</pdfrwt>
<pdfrwt beam="1">  1       -4 0.82945052E-03 0.12502392E+03</pdfrwt>
<totfact> 0.41517905E+03</totfact>
</mgrwt>
</event>
<event>
 5    1  0.3316199E-002  0.1250009E+03  0.7818608E-02  0.1235068E+00
         -4   -1    0    0    0  501 -0.00000000000E+00  0.00000000000E+00  0.18602901568E+02  0.18646201939E+02  0.12700000000E+01 0. -1.
          4   -1    0    0  501    0  0.00000000000E+00 -0.00000000000E+00 -0.20969441481E+03  0.20969826061E+03  0.12700000000E+01 0. -1.
         25    2    1    2    0    0  0.00000000000E+00  0.00000000000E+00 -0.19109151324E+03  0.22834446255E+03  0.12500090857E+03 0.  0.
    9000005    1    3    3    0    0 -0.33335285880E+02 -0.45920200816E+02 -0.14337016135E+03  0.15419438801E+03  0.10000000000E+01 0.  0.
    9000005    1    3    3    0    0  0.33335285880E+02  0.45920200816E+02 -0.47721351887E+02  0.74150074535E+02  0.10000000000E+01 0.  0.
<mgrwt>
<rscale>  0 0.12500091E+03</rscale>
<asrwt>0</asrwt>
<pdfrwt beam="2">  1        4 0.32264304E-01 0.12500091E+03</pdfrwt>
<pdfrwt beam="1">  1       -4 0.28656116E-02 0.12500091E+03</pdfrwt>
<totfact> 0.85562722E+03</totfact>
</mgrwt>
</event>
<event>
 5    1  0.3316199E-002  0.1250003E+03  0.7818608E-02  0.1235069E+00
          4   -1    0    0  501    0  0.00000000000E+00  0.00000000000E+00  0.16773682988E+02  0.16821692572E+02  0.12700000000E+01 0.  1.
         -4   -1    0    0    0  501 -0.00000000000E+00 -0.00000000000E+00 -0.23249838595E+03  0.23250185455E+03  0.12700000000E+01 0.  1.
         25    2    1    2    0    0  0.00000000000E+00  0.00000000000E+00 -0.21572470296E+03  0.24932354712E+03  0.12500033473E+03 0.  0.
    9000005    1    3    3    0    0  0.95701845038E+01  0.61079387502E+02 -0.89691830149E+02  0.10893991190E+03  0.10000000000E+01 0.  0.
    9000005    1    3    3    0    0 -0.95701845038E+01 -0.61079387502E+02 -0.12603287281E+03  0.14038363522E+03  0.10000000000E+01 0.  0.
<mgrwt>
<rscale>  0 0.12500033E+03</rscale>
<asrwt>0</asrwt>
<pdfrwt beam="1">  1        4 0.25845266E-02 0.12500033E+03</pdfrwt>
<pdfrwt beam="2">  1       -4 0.35772940E-01 0.12500033E+03</pdfrwt>
<totfact> 0.82427481E+03</totfact>
</mgrwt>
</event>
<event>
 5    1  0.3316199E-002  0.1250119E+03  0.7818608E-02  0.1235051E+00
         -4   -1    0    0    0  501 -0.00000000000E+00  0.00000000000E+00  0.43712644093E+03  0.43712828582E+03  0.12700000000E+01 0.  1.
          4   -1    0    0  501    0  0.00000000000E+00 -0.00000000000E+00 -0.88909227948E+01  0.89811696423E+01  0.12700000000E+01 0.  1.
         25    2    1    2    0    0  0.00000000000E+00  0.00000000000E+00  0.42823551813E+03  0.44610945546E+03  0.12501194845E+03 0.  0.
    9000005    1    3    3    0    0 -0.15129000573E+02  0.49616043263E+02  0.89711540698E+02  0.10363300122E+03  0.10000000000E+01 0.  0.
    9000005    1    3    3    0    0  0.15129000573E+02 -0.49616043263E+02  0.33852397744E+03  0.34247645424E+03  0.10000000000E+01 0.  0.
<mgrwt>
<rscale>  0 0.12501195E+03</rscale>
<asrwt>0</asrwt>
<pdfrwt beam="2">  1        4 0.13749185E-02 0.12501195E+03</pdfrwt>
<pdfrwt beam="1">  1       -4 0.67257294E-01 0.12501195E+03</pdfrwt>
<totfact> 0.60286454E+03</totfact>
</mgrwt>
</event>
<event>
 5    1  0.3316199E-002  0.1250015E+03  0.7818608E-02  0.1235067E+00
          4   -1    0    0  501    0  0.00000000000E+00  0.00000000000E+00  0.60383543750E+01  0.61704638041E+01  0.12700000000E+01 0.  1.
         -4   -1    0    0    0  501 -0.00000000000E+00 -0.00000000000E+00 -0.63978924313E+03  0.63979050362E+03  0.12700000000E+01 0.  1.
         25    2    1    2    0    0  0.00000000000E+00  0.00000000000E+00 -0.63375088875E+03  0.64596096742E+03  0.12500152975E+03 0.  0.
    9000005    1    3    3    0    0 -0.36096716181E+02 -0.48211028212E+02 -0.40304772502E+03  0.40752391930E+03  0.10000000000E+01 0.  0.
    9000005    1    3    3    0    0  0.36096716181E+02  0.48211028212E+02 -0.23070316373E+03  0.23843704812E+03  0.10000000000E+01 0.  0.
<mgrwt>
<rscale>  0 0.12500153E+03</rscale>
<asrwt>0</asrwt>
<pdfrwt beam="1">  1        4 0.93923733E-03 0.12500153E+03</pdfrwt>
<pdfrwt beam="2">  1       -4 0.98439321E-01 0.12500153E+03</pdfrwt>
<totfact> 0.46087603E+03</totfact>
</mgrwt>
</event>
<event>
 5    1  0.3316199E-002  0.1249980E+03  0.7818608E-02  0.1235072E+00
          4   -1    0    0  501    0  0.00000000000E+00  0.00000000000E+00  0.55060655122E+01  0.56506333649E+01  0.12700000000E+01 0. -1.
         -4   -1    0    0    0  501 -0.00000000000E+00 -0.00000000000E+00 -0.70008443225E+03  0.70008558418E+03  0.12700000000E+01 0. -1.
         25    2    1    2    0    0  0.00000000000E+00  0.00000000000E+00 -0.69457836674E+03  0.70573621755E+03  0.12499800485E+03 0.  0.
    9000005    1    3    3    0    0  0.19716306036E+02 -0.44025340076E+02 -0.12299649472E+03  0.13212153876E+03  0.10000000000E+01 0.  0.
    9000005    1    3    3    0    0 -0.19716306036E+02  0.44025340076E+02 -0.57158187202E+03  0.57361467878E+03  0.10000000000E+01 0.  0.
<mgrwt>
<rscale>  0 0.12499800E+03</rscale>
<asrwt>0</asrwt>
<pdfrwt beam="1">  1        4 0.85829677E-03 0.12499800E+03</pdfrwt>
<pdfrwt beam="2">  1       -4 0.10771644E+00 0.12499800E+03</pdfrwt>
<totfact> 0.42787503E+03</totfact>
</mgrwt>
</event>
<event>
 5    1  0.3316199E-002  0.1249575E+03  0.7818608E-02  0.1235136E+00
          4   -1    0    0  501    0  0.00000000000E+00  0.00000000000E+00  0.10762334305E+03  0.10763083605E+03  0.12700000000E+01 0. -1.
         -4   -1    0    0    0  501 -0.00000000000E+00 -0.00000000000E+00 -0.36251019428E+02  0.36273258877E+02  0.12700000000E+01 0. -1.
         25    2    1    2    0    0  0.00000000000E+00  0.00000000000E+00  0.71372323621E+02  0.14390409493E+03  0.12495751261E+03 0.  0.
    9000005    1    3    3    0    0 -0.52550106552E+02 -0.32016519539E+02  0.23281519018E+02  0.65799698706E+02  0.10000000000E+01 0.  0.
    9000005    1    3    3    0    0  0.52550106552E+02  0.32016519539E+02  0.48090804603E+02  0.78104396223E+02  0.10000000000E+01 0.  0.
<mgrwt>
<rscale>  0 0.12495751E+03</rscale>
<asrwt>0</asrwt>
<pdfrwt beam="1">  1        4 0.16559724E-01 0.12495751E+03</pdfrwt>
<pdfrwt beam="2">  1       -4 0.55793671E-02 0.12495751E+03</pdfrwt>
<totfact> 0.10062928E+04</totfact>
</mgrwt>
</event>
<event>
 5    1  0.3316199E-002  0.1249973E+03  0.7818608E-02  0.1235073E+00
          4   -1    0    0  501    0  0.00000000000E+00  0.00000000000E+00  0.13926738598E+02  0.13984525304E+02  0.12700000000E+01 0.  1.
         -4   -1    0    0    0  501 -0.00000000000E+00 -0.00000000000E+00 -0.27983363316E+03  0.27983651504E+03  0.12700000000E+01 0.  1.
         25    2    1    2    0    0  0.00000000000E+00  0.00000000000E+00 -0.26590689456E+03  0.29382104034E+03  0.12499730865E+03 0.  0.
    9000005    1    3    3    0    0  0.29179285225E+02 -0.45409172389E+02 -0.20697585835E+03  0.21390051324E+03  0.10000000000E+01 0.  0.
    9000005    1    3    3    0    0 -0.29179285225E+02  0.45409172389E+02 -0.58931036212E+02  0.79920527103E+02  0.10000000000E+01 0.  0.
<mgrwt>
<rscale>  0 0.12499731E+03</rscale>
<asrwt>0</asrwt>
<pdfrwt beam="1">  1        4 0.21472422E-02 0.12499731E+03</pdfrwt>
<pdfrwt beam="2">  1       -4 0.43055991E-01 0.12499731E+03</pdfrwt>
<totfact> 0.76385078E+03</totfact>
</mgrwt>
</event>
<event>
 5    1  0.3316199E-002  0.1249815E+03  0.7818608E-02  0.1235098E+00
          4   -1    0    0  501    0  0.00000000000E+00  0.00000000000E+00  0.23601712563E+01  0.26801694646E+01  0.12700000000E+01 0.  1.
         -4   -1    0    0    0  501 -0.00000000000E+00 -0.00000000000E+00 -0.15492160749E+04  0.15492165954E+04  0.12700000000E+01 0.  1.
         25    2    1    2    0    0  0.00000000000E+00  0.00000000000E+00 -0.15468559036E+04  0.15518967649E+04  0.12498152794E+03 0.  0.
    9000005    1    3    3    0    0 -0.29707435884E+02  0.50145882956E+02 -0.49385098726E+03  0.49727953803E+03  0.10000000000E+01 0.  0.
    9000005    1    3    3    0    0  0.29707435884E+02 -0.50145882956E+02 -0.10530049164E+04  0.10546172269E+04  0.10000000000E+01 0.  0.
<mgrwt>
<rscale>  0 0.12498153E+03</rscale>
<asrwt>0</asrwt>
<pdfrwt beam="1">  1        4 0.38775980E-03 0.12498153E+03</pdfrwt>
<pdfrwt beam="2">  1       -4 0.23836483E+00 0.12498153E+03</pdfrwt>
<totfact> 0.16939472E+03</totfact>
</mgrwt>
</event>
<event>
 5    1  0.3316199E-002  0.1250011E+03  0.7818608E-02  0.1235068E+00
          4   -1    0    0  501    0  0.00000000000E+00  0.00000000000E+00  0.15238397503E+02  0.15291228154E+02  0.12700000000E+01 0. -1.
         -4   -1    0    0    0  501 -0.00000000000E+00 -0.00000000000E+00 -0.25584898556E+03  0.25585213760E+03  0.12700000000E+01 0. -1.
         25    2    1    2    0    0  0.00000000000E+00  0.00000000000E+00 -0.24061058806E+03  0.27114336575E+03  0.12500107882E+03 0.  0.
    9000005    1    3    3    0    0 -0.46907814779E+02  0.38875926638E+02 -0.90121139128E+02  0.10878649032E+03  0.10000000000E+01 0.  0.
    9000005    1    3    3    0    0  0.46907814779E+02 -0.38875926638E+02 -0.15048944893E+03  0.16235687543E+03  0.10000000000E+01 0.  0.
<mgrwt>
<rscale>  0 0.12500108E+03</rscale>
<asrwt>0</asrwt>
<pdfrwt beam="1">  1        4 0.23486754E-02 0.12500108E+03</pdfrwt>
<pdfrwt beam="2">  1       -4 0.39365685E-01 0.12500108E+03</pdfrwt>
<totfact> 0.79365339E+03</totfact>
</mgrwt>
</event>
<event>
 5    1  0.3316199E-002  0.1249991E+03  0.7818608E-02  0.1235071E+00
         -4   -1    0    0    0  501 -0.00000000000E+00  0.00000000000E+00  0.67642048357E+02  0.67653969624E+02  0.12700000000E+01 0. -1.
          4   -1    0    0  501    0  0.00000000000E+00 -0.00000000000E+00 -0.57723972795E+02  0.57737941903E+02  0.12700000000E+01 0. -1.
         25    2    1    2    0    0  0.00000000000E+00  0.00000000000E+00  0.99180755621E+01  0.12539191153E+03  0.12499905301E+03 0.  0.
    9000005    1    3    3    0    0 -0.59267550601E+02 -0.28422707614E+01  0.24628563642E+02  0.64251748649E+02  0.10000000000E+01 0.  0.
    9000005    1    3    3    0    0  0.59267550601E+02  0.28422707614E+01 -0.14710488080E+02  0.61140162879E+02  0.10000000000E+01 0.  0.
<mgrwt>
<rscale>  0 0.12499905E+03</rscale>
<asrwt>0</asrwt>
<pdfrwt beam="2">  1        4 0.88826028E-02 0.12499905E+03</pdfrwt>
<pdfrwt beam="1">  1       -4 0.10408461E-01 0.12499905E+03</pdfrwt>
<totfact> 0.10444569E+04</totfact>
</mgrwt>
</event>
<event>
 5    1  0.3316199E-002  0.1250013E+03  0.7818608E-02  0.1235067E+00
          4   -1    0    0  501    0  0.00000000000E+00  0.00000000000E+00  0.43170469639E+02  0.43189146193E+02  0.12700000000E+01 0. -1.
         -4   -1    0    0    0  501 -0.00000000000E+00 -0.00000000000E+00 -0.90443548872E+02  0.90452465044E+02  0.12700000000E+01 0. -1.
         25    2    1    2    0    0  0.00000000000E+00  0.00000000000E+00 -0.47273079233E+02  0.13364161124E+03  0.12500134493E+03 0.  0.
    9000005    1    3    3    0    0 -0.16651987844E+02  0.51869657154E+02 -0.56373029950E+02  0.78400692205E+02  0.10000000000E+01 0.  0.
    9000005    1    3    3    0    0  0.16651987844E+02 -0.51869657154E+02  0.90999507165E+01  0.55240919032E+02  0.10000000000E+01 0.  0.
<mgrwt>
<rscale>  0 0.12500134E+03</rscale>
<asrwt>0</asrwt>
<pdfrwt beam="1">  1        4 0.66437333E-02 0.12500134E+03</pdfrwt>
<pdfrwt beam="2">  1       -4 0.13916515E-01 0.12500134E+03</pdfrwt>
<totfact> 0.10266471E+04</totfact>
</mgrwt>
</event>
<event>
 5    1  0.3316199E-002  0.1249970E+03  0.7818608E-02  0.1235074E+00
         -4   -1    0    0    0  501 -0.00000000000E+00  0.00000000000E+00  0.85624487387E+02  0.85633905320E+02  0.12700000000E+01 0. -1.
          4   -1    0    0  501    0  0.00000000000E+00 -0.00000000000E+00 -0.45597777209E+02  0.45615459950E+02  0.12700000000E+01 0. -1.
         25    2    1    2    0    0  0.00000000000E+00  0.00000000000E+00  0.40026710178E+02  0.13124936527E+03  0.12499703339E+03 0.  0.
    9000005    1    3    3    0    0 -0.42833432695E+02  0.25232197101E+02 -0.19744809274E+02  0.53499759067E+02  0.10000000000E+01 0.  0.
    9000005    1    3    3    0    0  0.42833432695E+02 -0.25232197101E+02  0.59771519452E+02  0.77749606202E+02  0.10000000000E+01 0.  0.
<mgrwt>
<rscale>  0 0.12499703E+03</rscale>
<asrwt>0</asrwt>
<pdfrwt beam="2">  1        4 0.70171274E-02 0.12499703E+03</pdfrwt>
<pdfrwt beam="1">  1       -4 0.13175083E-01 0.12499703E+03</pdfrwt>
<totfact> 0.10318437E+04</totfact>
</mgrwt>
</event>
<event>
 5    1  0.3316199E-002  0.1250118E+03  0.7818608E-02  0.1235051E+00
         -4   -1    0    0    0  501 -0.00000000000E+00  0.00000000000E+00  0.34796820546E+03  0.34797052305E+03  0.12700000000E+01 0.  1.
          4   -1    0    0  501    0  0.00000000000E+00 -0.00000000000E+00 -0.11189726583E+02  0.11261566543E+02  0.12700000000E+01 0.  1.
         25    2    1    2    0    0  0.00000000000E+00  0.00000000000E+00  0.33677847887E+03  0.35923208959E+03  0.12501180087E+03 0.  0.
    9000005    1    3    3    0    0 -0.13145491992E+01 -0.52177803404E+02  0.26717274092E+03  0.27222513605E+03  0.10000000000E+01 0.  0.
    9000005    1    3    3    0    0  0.13145491992E+01  0.52177803404E+02  0.69605737951E+02  0.87006953534E+02  0.10000000000E+01 0.  0.
<mgrwt>
<rscale>  0 0.12501180E+03</rscale>
<asrwt>0</asrwt>
<pdfrwt beam="2">  1        4 0.17272011E-02 0.12501180E+03</pdfrwt>
<pdfrwt beam="1">  1       -4 0.53539265E-01 0.12501180E+03</pdfrwt>
<totfact> 0.68702783E+03</totfact>
</mgrwt>
</event>
<event>
 5    1  0.3316199E-002  0.1249994E+03  0.7818608E-02  0.1235070E+00
         -4   -1    0    0    0  501 -0.00000000000E+00  0.00000000000E+00  0.68351982092E+03  0.68352100077E+03  0.12700000000E+01 0.  1.
          4   -1    0    0  501    0  0.00000000000E+00 -0.00000000000E+00 -0.56430966157E+01  0.57842406082E+01  0.12700000000E+01 0.  1.
         25    2    1    2    0    0  0.00000000000E+00  0.00000000000E+00  0.67787672430E+03  0.68930524137E+03  0.12499944974E+03 0.  0.
    9000005    1    3    3    0    0 -0.32457133719E+02  0.48837067867E+02  0.21980918628E+03  0.22749857824E+03  0.10000000000E+01 0.  0.
    9000005    1    3    3    0    0  0.32457133719E+02 -0.48837067867E+02  0.45806753802E+03  0.46180666314E+03  0.10000000000E+01 0.  0.
<mgrwt>
<rscale>  0 0.12499945E+03</rscale>
<asrwt>0</asrwt>
<pdfrwt beam="2">  1        4 0.87911742E-03 0.12499945E+03</pdfrwt>
<pdfrwt beam="1">  1       -4 0.10516776E+00 0.12499945E+03</pdfrwt>
<totfact> 0.43657852E+03</totfact>
</mgrwt>
</event>
<event>
 5    1  0.3316199E-002  0.1250019E+03  0.7818608E-02  0.1235066E+00
         -4   -1    0    0    0  501 -0.00000000000E+00  0.00000000000E+00  0.60879906035E+02  0.60893151165E+02  0.12700000000E+01 0. -1.
          4   -1    0    0  501    0  0.00000000000E+00 -0.00000000000E+00 -0.64138613097E+02  0.64151185414E+02  0.12700000000E+01 0. -1.
         25    2    1    2    0    0  0.00000000000E+00  0.00000000000E+00 -0.32587070620E+01  0.12504433658E+03  0.12500186774E+03 0.  0.
    9000005    1    3    3    0    0  0.21461366994E+02  0.56354084227E+02 -0.18035951664E+02  0.62949731014E+02  0.10000000000E+01 0.  0.
    9000005    1    3    3    0    0 -0.21461366994E+02 -0.56354084227E+02  0.14777244602E+02  0.62094605565E+02  0.10000000000E+01 0.  0.
<mgrwt>
<rscale>  0 0.12500187E+03</rscale>
<asrwt>0</asrwt>
<pdfrwt beam="2">  1        4 0.98694650E-02 0.12500187E+03</pdfrwt>
<pdfrwt beam="1">  1       -4 0.93681253E-02 0.12500187E+03</pdfrwt>
<totfact> 0.10451458E+04</totfact>
</mgrwt>
</event>
<event>
 5    1  0.3316199E-002  0.1249951E+03  0.7818608E-02  0.1235077E+00
         -4   -1    0    0    0  501 -0.00000000000E+00  0.00000000000E+00  0.15130104633E+03  0.15130637634E+03  0.12700000000E+01 0. -1.
          4   -1    0    0  501    0  0.00000000000E+00 -0.00000000000E+00 -0.25794297992E+02  0.25825543729E+02  0.12700000000E+01 0. -1.
         25    2    1    2    0    0  0.00000000000E+00  0.00000000000E+00  0.12550674834E+03  0.17713192007E+03  0.12499509282E+03 0.  0.
    9000005    1    3    3    0    0  0.50724040853E+02 -0.14830267249E+02  0.11001095903E+03  0.12205030214E+03  0.10000000000E+01 0.  0.
    9000005    1    3    3    0    0 -0.50724040853E+02  0.14830267249E+02  0.15495789315E+02  0.55081617928E+02  0.10000000000E+01 0.  0.
<mgrwt>
<rscale>  0 0.12499509E+03</rscale>
<asrwt>0</asrwt>
<pdfrwt beam="2">  1        4 0.39711672E-02 0.12499509E+03</pdfrwt>
<pdfrwt beam="1">  1       -4 0.23279897E-01 0.12499509E+03</pdfrwt>
<totfact> 0.94146191E+03</totfact>
</mgrwt>
</event>
<event>
 5    1  0.3316199E-002  0.1250010E+03  0.7818608E-02  0.1235068E+00
         -4   -1    0    0    0  501 -0.00000000000E+00  0.00000000000E+00  0.10860303067E+03  0.10861045608E+03  0.12700000000E+01 0. -1.
          4   -1    0    0  501    0  0.00000000000E+00 -0.00000000000E+00 -0.35948878610E+02  0.35971304860E+02  0.12700000000E+01 0. -1.
         25    2    1    2    0    0  0.00000000000E+00  0.00000000000E+00  0.72654152056E+02  0.14458176094E+03  0.12500103914E+03 0.  0.
    9000005    1    3    3    0    0  0.51398620110E+02  0.32453299836E+02  0.53099622425E+02  0.80719295841E+02  0.10000000000E+01 0.  0.
    9000005    1    3    3    0    0 -0.51398620110E+02 -0.32453299836E+02  0.19554529631E+02  0.63862465099E+02  0.10000000000E+01 0.  0.
<mgrwt>
<rscale>  0 0.12500104E+03</rscale>
<asrwt>0</asrwt>
<pdfrwt beam="2">  1        4 0.55328931E-02 0.12500104E+03</pdfrwt>
<pdfrwt beam="1">  1       -4 0.16710455E-01 0.12500104E+03</pdfrwt>
<totfact> 0.10039258E+04</totfact>
</mgrwt>
</event>
<event>
 5    1  0.3316199E-002  0.1250020E+03  0.7818608E-02  0.1235066E+00
         -4   -1    0    0    0  501 -0.00000000000E+00  0.00000000000E+00  0.30910145923E+03  0.30910406823E+03  0.12700000000E+01 0.  1.
          4   -1    0    0  501    0  0.00000000000E+00 -0.00000000000E+00 -0.12603261272E+02  0.12667087064E+02  0.12700000000E+01 0.  1.
         25    2    1    2    0    0  0.00000000000E+00  0.00000000000E+00  0.29649819796E+03  0.32177115530E+03  0.12500197994E+03 0.  0.
    9000005    1    3    3    0    0 -0.46042639020E+02  0.39591233429E+02  0.11024399687E+03  0.12586552037E+03  0.10000000000E+01 0.  0.
    9000005    1    3    3    0    0  0.46042639020E+02 -0.39591233429E+02  0.18625420109E+03  0.19590563493E+03  0.10000000000E+01 0.  0.
<mgrwt>
<rscale>  0 0.12500198E+03</rscale>
<asrwt>0</asrwt>
<pdfrwt beam="2">  1        4 0.19440737E-02 0.12500198E+03</pdfrwt>
<pdfrwt beam="1">  1       -4 0.47559180E-01 0.12500198E+03</pdfrwt>
<totfact> 0.72942761E+03</totfact>
</mgrwt>
</event>
<event>
 5    1  0.3316199E-002  0.1250009E+03  0.7818608E-02  0.1235068E+00
         -4   -1    0    0    0  501 -0.00000000000E+00  0.00000000000E+00  0.19057312917E+03  0.19057736084E+03  0.12700000000E+01 0. -1.
          4   -1    0    0  501    0  0.00000000000E+00 -0.00000000000E+00 -0.20473539960E+02  0.20512892008E+02  0.12700000000E+01 0. -1.
         25    2    1    2    0    0  0.00000000000E+00  0.00000000000E+00  0.17009958921E+03  0.21109025284E+03  0.12500089838E+03 0.  0.
    9000005    1    3    3    0    0  0.31908624740E+02 -0.47624230302E+02  0.12706707202E+03  0.13940325834E+03  0.10000000000E+01 0.  0.
    9000005    1    3    3    0    0 -0.31908624740E+02  0.47624230302E+02  0.43032517194E+02  0.71686994502E+02  0.10000000000E+01 0.  0.
<mgrwt>
<rscale>  0 0.12500090E+03</rscale>
<asrwt>0</asrwt>
<pdfrwt beam="2">  1        4 0.31531279E-02 0.12500090E+03</pdfrwt>
<pdfrwt beam="1">  1       -4 0.29322296E-01 0.12500090E+03</pdfrwt>
<totfact> 0.88296363E+03</totfact>
</mgrwt>
</event>
<event>
 5    1  0.3316199E-002  0.1250013E+03  0.7818608E-02  0.1235067E+00
          4   -1    0    0  501    0  0.00000000000E+00  0.00000000000E+00  0.54784817347E+03  0.54784964550E+03  0.12700000000E+01 0.  1.
         -4   -1    0    0    0  501 -0.00000000000E+00 -0.00000000000E+00 -0.70722748641E+01  0.71853999021E+01  0.12700000000E+01 0.  1.
         25    2    1    2    0    0  0.00000000000E+00  0.00000000000E+00  0.54077589861E+03  0.55503504540E+03  0.12500131644E+03 0.  0.
    9000005    1    3    3    0    0 -0.27635747150E+02 -0.50875266870E+01  0.22540376799E+02  0.36037286726E+02  0.10000000000E+01 0.  0.
    9000005    1    3    3    0    0  0.27635747150E+02  0.50875266870E+01  0.51823552181E+03  0.51899775868E+03  0.10000000000E+01 0.  0.
<mgrwt>
<rscale>  0 0.12500132E+03</rscale>
<asrwt>0</asrwt>
<pdfrwt beam="1">  1        4 0.84293132E-01 0.12500132E+03</pdfrwt>
<pdfrwt beam="2">  1       -4 0.10968577E-02 0.12500132E+03</pdfrwt>
<totfact> 0.51833286E+03</totfact>
</mgrwt>
</event>
<event>
 5    1  0.3316199E-002  0.1249992E+03  0.7818608E-02  0.1235071E+00
         -4   -1    0    0    0  501 -0.00000000000E+00  0.00000000000E+00  0.19796148516E+03  0.19796555889E+03  0.12700000000E+01 0.  1.
          4   -1    0    0  501    0  0.00000000000E+00 -0.00000000000E+00 -0.19707402104E+02  0.19748280880E+02  0.12700000000E+01 0.  1.
         25    2    1    2    0    0  0.00000000000E+00  0.00000000000E+00  0.17825408305E+03  0.21771383977E+03  0.12499919160E+03 0.  0.
    9000005    1    3    3    0    0 -0.66022504677E+01  0.27925446697E+02 -0.75625203293E+01  0.29691951741E+02  0.10000000000E+01 0.  0.
    9000005    1    3    3    0    0  0.66022504677E+01 -0.27925446697E+02  0.18581660338E+03  0.18802188803E+03  0.10000000000E+01 0.  0.
<mgrwt>
<rscale>  0 0.12499919E+03</rscale>
<asrwt>0</asrwt>
<pdfrwt beam="2">  1        4 0.30353661E-02 0.12499919E+03</pdfrwt>
<pdfrwt beam="1">  1       -4 0.30459069E-01 0.12499919E+03</pdfrwt>
<totfact> 0.87232978E+03</totfact>
</mgrwt>
</event>
<event>
 5    1  0.3316199E-002  0.1249989E+03  0.7818608E-02  0.1235071E+00
         -4   -1    0    0    0  501 -0.00000000000E+00  0.00000000000E+00  0.51040737598E+03  0.51040895599E+03  0.12700000000E+01 0. -1.
          4   -1    0    0  501    0  0.00000000000E+00 -0.00000000000E+00 -0.75987731278E+01  0.77041711460E+01  0.12700000000E+01 0. -1.
         25    2    1    2    0    0  0.00000000000E+00  0.00000000000E+00  0.50280860285E+03  0.51811312714E+03  0.12499888563E+03 0.  0.
    9000005    1    3    3    0    0 -0.64388356705E+01 -0.35671104122E+02  0.40407046145E+02  0.54291948318E+02  0.10000000000E+01 0.  0.
    9000005    1    3    3    0    0  0.64388356705E+01  0.35671104122E+02  0.46240155671E+03  0.46382117882E+03  0.10000000000E+01 0.  0.
<mgrwt>
<rscale>  0 0.12499889E+03</rscale>
<asrwt>0</asrwt>
<pdfrwt beam="2">  1        4 0.11772708E-02 0.12499889E+03</pdfrwt>
<pdfrwt beam="1">  1       -4 0.78532460E-01 0.12499889E+03</pdfrwt>
<totfact> 0.54487221E+03</totfact>
</mgrwt>
</event>
<event>
 5    1  0.3316199E-002  0.1250216E+03  0.7818608E-02  0.1235036E+00
         -4   -1    0    0    0  501 -0.00000000000E+00  0.00000000000E+00  0.68988420283E+01  0.70147645243E+01  0.12700000000E+01 0. -1.
          4   -1    0    0  501    0  0.00000000000E+00 -0.00000000000E+00 -0.56157801169E+03  0.56157944773E+03  0.12700000000E+01 0. -1.
         25    2    1    2    0    0  0.00000000000E+00  0.00000000000E+00 -0.55467916966E+03  0.56859421226E+03  0.12502158595E+03 0.  0.
    9000005    1    3    3    0    0 -0.43987090276E+02  0.26811199202E+02 -0.43832062202E+03  0.44133850071E+03  0.10000000000E+01 0.  0.
    9000005    1    3    3    0    0  0.43987090276E+02 -0.26811199202E+02 -0.11635854764E+03  0.12725571155E+03  0.10000000000E+01 0.  0.
<mgrwt>
<rscale>  0 0.12502159E+03</rscale>
<asrwt>0</asrwt>
<pdfrwt beam="2">  1        4 0.86405609E-01 0.12502159E+03</pdfrwt>
<pdfrwt beam="1">  1       -4 0.10703883E-02 0.12502159E+03</pdfrwt>
<totfact> 0.50887908E+03</totfact>
</mgrwt>
</event>
<event>
 5    1  0.3316199E-002  0.1249974E+03  0.7818608E-02  0.1235073E+00
         -4   -1    0    0    0  501 -0.00000000000E+00  0.00000000000E+00  0.78478738207E+01  0.79499700318E+01  0.12700000000E+01 0.  1.
          4   -1    0    0  501    0  0.00000000000E+00 -0.00000000000E+00 -0.49440640248E+03  0.49440803363E+03  0.12700000000E+01 0.  1.
         25    2    1    2    0    0  0.00000000000E+00  0.00000000000E+00 -0.48655852866E+03  0.50235800366E+03  0.12499744808E+03 0.  0.
    9000005    1    3    3    0    0  0.38407159039E+02 -0.79605984240E+01 -0.43879219348E+03  0.44054292646E+03  0.10000000000E+01 0.  0.
    9000005    1    3    3    0    0 -0.38407159039E+02  0.79605984240E+01 -0.47766335178E+02  0.61815077199E+02  0.10000000000E+01 0.  0.
<mgrwt>
<rscale>  0 0.12499745E+03</rscale>
<asrwt>0</asrwt>
<pdfrwt beam="2">  1        4 0.76070479E-01 0.12499745E+03</pdfrwt>
<pdfrwt beam="1">  1       -4 0.12153446E-02 0.12499745E+03</pdfrwt>
<totfact> 0.55685012E+03</totfact>
</mgrwt>
</event>
<event>
 5    1  0.3316199E-002  0.1250019E+03  0.7818608E-02  0.1235066E+00
          4   -1    0    0  501    0  0.00000000000E+00  0.00000000000E+00  0.17429469714E+02  0.17475677798E+02  0.12700000000E+01 0. -1.
         -4   -1    0    0    0  501 -0.00000000000E+00 -0.00000000000E+00 -0.22377960818E+03  0.22378321192E+03  0.12700000000E+01 0. -1.
         25    2    1    2    0    0  0.00000000000E+00  0.00000000000E+00 -0.20635013846E+03  0.24125888971E+03  0.12500188888E+03 0.  0.
    9000005    1    3    3    0    0 -0.60782886845E+02  0.14516853174E+02 -0.10368460183E+03  0.12106525107E+03  0.10000000000E+01 0.  0.
    9000005    1    3    3    0    0  0.60782886845E+02 -0.14516853174E+02 -0.10266553663E+03  0.12019363865E+03  0.10000000000E+01 0.  0.
<mgrwt>
<rscale>  0 0.12500189E+03</rscale>
<asrwt>0</asrwt>
<pdfrwt beam="1">  1        4 0.26852887E-02 0.12500189E+03</pdfrwt>
<pdfrwt beam="2">  1       -4 0.34431462E-01 0.12500189E+03</pdfrwt>
<totfact> 0.83606715E+03</totfact>
</mgrwt>
</event>
<event>
 5    1  0.3316199E-002  0.1250030E+03  0.7818608E-02  0.1235065E+00
          4   -1    0    0  501    0  0.00000000000E+00  0.00000000000E+00  0.30785612574E+02  0.30811797116E+02  0.12700000000E+01 0.  1.
         -4   -1    0    0    0  501 -0.00000000000E+00 -0.00000000000E+00 -0.12680838027E+03  0.12681473970E+03  0.12700000000E+01 0.  1.
         25    2    1    2    0    0  0.00000000000E+00  0.00000000000E+00 -0.96022767695E+02  0.15762653682E+03  0.12500301274E+03 0.  0.
    9000005    1    3    3    0    0 -0.24132249792E+02  0.47185735912E+02 -0.89768341077E+02  0.10425072764E+03  0.10000000000E+01 0.  0.
    9000005    1    3    3    0    0  0.24132249792E+02 -0.47185735912E+02 -0.62544266183E+01  0.53375809182E+02  0.10000000000E+01 0.  0.
<mgrwt>
<rscale>  0 0.12500301E+03</rscale>
<asrwt>0</asrwt>
<pdfrwt beam="1">  1        4 0.47387516E-02 0.12500301E+03</pdfrwt>
<pdfrwt beam="2">  1       -4 0.19511485E-01 0.12500301E+03</pdfrwt>
<totfact> 0.97795707E+03</totfact>
</mgrwt>
</event>
<event>
 5    1  0.3316199E-002  0.1250101E+03  0.7818608E-02  0.1235053E+00
          4   -1    0    0  501    0  0.00000000000E+00  0.00000000000E+00  0.17683441434E+02  0.17728987589E+02  0.12700000000E+01 0.  1.
         -4   -1    0    0    0  501 -0.00000000000E+00 -0.00000000000E+00 -0.22060303473E+03  0.22060669036E+03  0.12700000000E+01 0.  1.
         25    2    1    2    0    0  0.00000000000E+00  0.00000000000E+00 -0.20291959330E+03  0.23833567795E+03  0.12501013575E+03 0.  0.
    9000005    1    3    3    0    0 -0.53607860398E+02  0.28397601992E+02 -0.13009948263E+03  0.14355173937E+03  0.10000000000E+01 0.  0.
    9000005    1    3    3    0    0  0.53607860398E+02 -0.28397601992E+02 -0.72820110664E+02  0.94783938579E+02  0.10000000000E+01 0.  0.
<mgrwt>
<rscale>  0 0.12501014E+03</rscale>
<asrwt>0</asrwt>
<pdfrwt beam="1">  1        4 0.27243144E-02 0.12501014E+03</pdfrwt>
<pdfrwt beam="2">  1       -4 0.33942711E-01 0.12501014E+03</pdfrwt>
<totfact> 0.84026875E+03</totfact>
</mgrwt>
</event>
<event>
 5    1  0.3316199E-002  0.1249977E+03  0.7818608E-02  0.1235073E+00
          4   -1    0    0  501    0  0.00000000000E+00  0.00000000000E+00  0.34292603816E+02  0.34316112491E+02  0.12700000000E+01 0.  1.
         -4   -1    0    0    0  501 -0.00000000000E+00 -0.00000000000E+00 -0.11383909459E+03  0.11384617850E+03  0.12700000000E+01 0.  1.
         25    2    1    2    0    0  0.00000000000E+00  0.00000000000E+00 -0.79546490778E+02  0.14816229099E+03  0.12499768108E+03 0.  0.
    9000005    1    3    3    0    0  0.52024306043E+01 -0.55337903511E+02 -0.59187826999E+01  0.55905105651E+02  0.10000000000E+01 0.  0.
    9000005    1    3    3    0    0 -0.52024306043E+01  0.55337903511E+02 -0.73627708078E+02  0.92257185335E+02  0.10000000000E+01 0.  0.
<mgrwt>
<rscale>  0 0.12499768E+03</rscale>
<asrwt>0</asrwt>
<pdfrwt beam="1">  1        4 0.52781386E-02 0.12499768E+03</pdfrwt>
<pdfrwt beam="2">  1       -4 0.17516060E-01 0.12499768E+03</pdfrwt>
<totfact> 0.99676490E+03</totfact>
</mgrwt>
</event>
<event>
 5    1  0.3316199E-002  0.1249987E+03  0.7818608E-02  0.1235071E+00
          4   -1    0    0  501    0  0.00000000000E+00  0.00000000000E+00  0.52485663306E+02  0.52501026205E+02  0.12700000000E+01 0. -1.
         -4   -1    0    0    0  501 -0.00000000000E+00 -0.00000000000E+00 -0.74391862445E+02  0.74402702223E+02  0.12700000000E+01 0. -1.
         25    2    1    2    0    0  0.00000000000E+00  0.00000000000E+00 -0.21906199140E+02  0.12690372843E+03  0.12499869891E+03 0.  0.
    9000005    1    3    3    0    0 -0.44392680348E+02 -0.17353404016E+01  0.33664922123E+02  0.55749874048E+02  0.10000000000E+01 0.  0.
    9000005    1    3    3    0    0  0.44392680348E+02  0.17353404016E+01 -0.55571121263E+02  0.71153854380E+02  0.10000000000E+01 0.  0.
<mgrwt>
<rscale>  0 0.12499870E+03</rscale>
<asrwt>0</asrwt>
<pdfrwt beam="1">  1        4 0.80767330E-02 0.12499870E+03</pdfrwt>
<pdfrwt beam="2">  1       -4 0.11446917E-01 0.12499870E+03</pdfrwt>
<totfact> 0.10411544E+04</totfact>
</mgrwt>
</event>
<event>
 5    1  0.3316199E-002  0.1249995E+03  0.7818608E-02  0.1235070E+00
          4   -1    0    0  501    0  0.00000000000E+00  0.00000000000E+00  0.36384690664E+02  0.36406848459E+02  0.12700000000E+01 0.  1.
         -4   -1    0    0    0  501 -0.00000000000E+00 -0.00000000000E+00 -0.10730018853E+03  0.10730770410E+03  0.12700000000E+01 0.  1.
         25    2    1    2    0    0  0.00000000000E+00  0.00000000000E+00 -0.70915497868E+02  0.14371455256E+03  0.12499945912E+03 0.  0.
    9000005    1    3    3    0    0 -0.56639856060E+02  0.23235697078E+02 -0.49874965580E+02  0.78971406881E+02  0.10000000000E+01 0.  0.
    9000005    1    3    3    0    0  0.56639856060E+02 -0.23235697078E+02 -0.21040532288E+02  0.64743145677E+02  0.10000000000E+01 0.  0.
<mgrwt>
<rscale>  0 0.12499946E+03</rscale>
<asrwt>0</asrwt>
<pdfrwt beam="1">  1        4 0.55999273E-02 0.12499946E+03</pdfrwt>
<pdfrwt beam="2">  1       -4 0.16510004E-01 0.12499946E+03</pdfrwt>
<totfact> 0.10057294E+04</totfact>
</mgrwt>
</event>
<event>
 5    1  0.3316199E-002  0.1249936E+03  0.7818608E-02  0.1235079E+00
         -4   -1    0    0    0  501 -0.00000000000E+00  0.00000000000E+00  0.41365310967E+03  0.41365505925E+03  0.12700000000E+01 0. -1.
          4   -1    0    0  501    0  0.00000000000E+00 -0.00000000000E+00 -0.93976450674E+01  0.94830708535E+01  0.12700000000E+01 0. -1.
         25    2    1    2    0    0  0.00000000000E+00  0.00000000000E+00  0.40425546461E+03  0.42313813010E+03  0.12499358577E+03 0.  0.
    9000005    1    3    3    0    0 -0.50020663393E+02 -0.36711202535E+02  0.22724959443E+03  0.23556985657E+03  0.10000000000E+01 0.  0.
    9000005    1    3    3    0    0  0.50020663393E+02  0.36711202535E+02  0.17700587018E+03  0.18756827353E+03  0.10000000000E+01 0.  0.
<mgrwt>
<rscale>  0 0.12499359E+03</rscale>
<asrwt>0</asrwt>
<pdfrwt beam="2">  1        4 0.14525133E-02 0.12499359E+03</pdfrwt>
<pdfrwt beam="1">  1       -4 0.63645634E-01 0.12499359E+03</pdfrwt>
<totfact> 0.62371778E+03</totfact>
</mgrwt>
</event>
<event>
 5    1  0.3316199E-002  0.1249642E+03  0.7818608E-02  0.1235125E+00
          4   -1    0    0  501    0  0.00000000000E+00  0.00000000000E+00  0.28203711551E+03  0.28203997487E+03  0.12700000000E+01 0. -1.
         -4   -1    0    0    0  501 -0.00000000000E+00 -0.00000000000E+00 -0.13810126623E+02  0.13868399235E+02  0.12700000000E+01 0. -1.
         25    2    1    2    0    0  0.00000000000E+00  0.00000000000E+00  0.26822698889E+03  0.29590837411E+03  0.12496418806E+03 0.  0.
    9000005    1    3    3    0    0 -0.28752381125E+02 -0.52305061727E+02  0.17780790526E+03  0.18756111025E+03  0.10000000000E+01 0.  0.
    9000005    1    3    3    0    0  0.28752381125E+02  0.52305061727E+02  0.90419083622E+02  0.10834726386E+03  0.10000000000E+01 0.  0.
<mgrwt>
<rscale>  0 0.12496419E+03</rscale>
<asrwt>0</asrwt>
<pdfrwt beam="1">  1        4 0.43395029E-01 0.12496419E+03</pdfrwt>
<pdfrwt beam="2">  1       -4 0.21293373E-02 0.12496419E+03</pdfrwt>
<totfact> 0.76175524E+03</totfact>
</mgrwt>
</event>
<event>
 5    1  0.3316199E-002  0.1249990E+03  0.7818608E-02  0.1235071E+00
          4   -1    0    0  501    0  0.00000000000E+00  0.00000000000E+00  0.12325224433E+03  0.12325878724E+03  0.12700000000E+01 0. -1.
         -4   -1    0    0    0  501 -0.00000000000E+00 -0.00000000000E+00 -0.31672509238E+02  0.31697961155E+02  0.12700000000E+01 0. -1.
         25    2    1    2    0    0  0.00000000000E+00  0.00000000000E+00  0.91579735090E+02  0.15495674839E+03  0.12499898397E+03 0.  0.
    9000005    1    3    3    0    0  0.44499418493E+02  0.43820278910E+02  0.48497734438E+02  0.79078728718E+02  0.10000000000E+01 0.  0.
    9000005    1    3    3    0    0 -0.44499418493E+02 -0.43820278910E+02  0.43082000652E+02  0.75878019677E+02  0.10000000000E+01 0.  0.
<mgrwt>
<rscale>  0 0.12499898E+03</rscale>
<asrwt>0</asrwt>
<pdfrwt beam="1">  1        4 0.18964345E-01 0.12499898E+03</pdfrwt>
<pdfrwt beam="2">  1       -4 0.48751548E-02 0.12499898E+03</pdfrwt>
<totfact> 0.98326237E+03</totfact>
</mgrwt>
</event>
<event>
 5    1  0.3316199E-002  0.1249998E+03  0.7818608E-02  0.1235070E+00
         -4   -1    0    0    0  501 -0.00000000000E+00  0.00000000000E+00  0.13889513569E+04  0.13889519375E+04  0.12700000000E+01 0.  1.
          4   -1    0    0  501    0  0.00000000000E+00 -0.00000000000E+00 -0.26683759235E+01  0.29551869770E+01  0.12700000000E+01 0.  1.
         25    2    1    2    0    0  0.00000000000E+00  0.00000000000E+00  0.13862829810E+04  0.13919071245E+04  0.12499975950E+03 0.  0.
    9000005    1    3    3    0    0  0.91964783620E+01  0.57227124427E+02  0.95326788273E+03  0.95502888711E+03  0.10000000000E+01 0.  0.
    9000005    1    3    3    0    0 -0.91964783620E+01 -0.57227124427E+02  0.43301509826E+03  0.43687823739E+03  0.10000000000E+01 0.  0.
<mgrwt>
<rscale>  0 0.12499976E+03</rscale>
<asrwt>0</asrwt>
<pdfrwt beam="2">  1        4 0.43262520E-03 0.12499976E+03</pdfrwt>
<pdfrwt beam="1">  1       -4 0.21370754E+00 0.12499976E+03</pdfrwt>
<totfact> 0.20155282E+03</totfact>
</mgrwt>
</event>
<event>
 5    1  0.3316199E-002  0.1249962E+03  0.7818608E-02  0.1235075E+00
         -4   -1    0    0    0  501 -0.00000000000E+00  0.00000000000E+00  0.34748367935E+02  0.34771568474E+02  0.12700000000E+01 0. -1.
          4   -1    0    0  501    0  0.00000000000E+00 -0.00000000000E+00 -0.11234416899E+03  0.11235134714E+03  0.12700000000E+01 0. -1.
         25    2    1    2    0    0  0.00000000000E+00  0.00000000000E+00 -0.77595801050E+02  0.14712291562E+03  0.12499617578E+03 0.  0.
    9000005    1    3    3    0    0  0.42203082937E+02 -0.45795364444E+02 -0.44879273183E+02  0.76768905003E+02  0.10000000000E+01 0.  0.
    9000005    1    3    3    0    0 -0.42203082937E+02  0.45795364444E+02 -0.32716527868E+02  0.70354010615E+02  0.10000000000E+01 0.  0.
<mgrwt>
<rscale>  0 0.12499618E+03</rscale>
<asrwt>0</asrwt>
<pdfrwt beam="2">  1        4 0.17286055E-01 0.12499618E+03</pdfrwt>
<pdfrwt beam="1">  1       -4 0.53482396E-02 0.12499618E+03</pdfrwt>
<totfact> 0.99888924E+03</totfact>
</mgrwt>
</event>
<event>
 5    1  0.3316199E-002  0.1250008E+03  0.7818608E-02  0.1235068E+00
          4   -1    0    0  501    0  0.00000000000E+00  0.00000000000E+00  0.10695119057E+02  0.10770258662E+02  0.12700000000E+01 0. -1.
         -4   -1    0    0    0  501 -0.00000000000E+00 -0.00000000000E+00 -0.36388657057E+03  0.36388878677E+03  0.12700000000E+01 0. -1.
         25    2    1    2    0    0  0.00000000000E+00  0.00000000000E+00 -0.35319145151E+03  0.37465904543E+03  0.12500079562E+03 0.  0.
    9000005    1    3    3    0    0 -0.57497524238E+01  0.26386546889E+02 -0.34550870540E+03  0.34656395516E+03  0.10000000000E+01 0.  0.
    9000005    1    3    3    0    0  0.57497524238E+01 -0.26386546889E+02 -0.76827461102E+01  0.28095090274E+02  0.10000000000E+01 0.  0.
<mgrwt>
<rscale>  0 0.12500080E+03</rscale>
<asrwt>0</asrwt>
<pdfrwt beam="1">  1        4 0.16513537E-02 0.12500080E+03</pdfrwt>
<pdfrwt beam="2">  1       -4 0.55988490E-01 0.12500080E+03</pdfrwt>
<totfact> 0.67093139E+03</totfact>
</mgrwt>
</event>
<event>
 5    1  0.3316199E-002  0.1250005E+03  0.7818608E-02  0.1235068E+00
         -4   -1    0    0    0  501 -0.00000000000E+00  0.00000000000E+00  0.20056586393E+02  0.20096754906E+02  0.12700000000E+01 0. -1.
          4   -1    0    0  501    0  0.00000000000E+00 -0.00000000000E+00 -0.19452599535E+03  0.19453014102E+03  0.12700000000E+01 0. -1.
         25    2    1    2    0    0  0.00000000000E+00  0.00000000000E+00 -0.17446940895E+03  0.21462689593E+03  0.12500051918E+03 0.  0.
    9000005    1    3    3    0    0 -0.52020420150E+02  0.25772796817E+02 -0.47523115442E+02  0.75032044285E+02  0.10000000000E+01 0.  0.
    9000005    1    3    3    0    0  0.52020420150E+02 -0.25772796817E+02 -0.12694629351E+03  0.13959485164E+03  0.10000000000E+01 0.  0.
<mgrwt>
<rscale>  0 0.12500052E+03</rscale>
<asrwt>0</asrwt>
<pdfrwt beam="2">  1        4 0.29930484E-01 0.12500052E+03</pdfrwt>
<pdfrwt beam="1">  1       -4 0.30890376E-02 0.12500052E+03</pdfrwt>
<totfact> 0.87724762E+03</totfact>
</mgrwt>
</event>
<event>
 5    1  0.3316199E-002  0.1249908E+03  0.7818608E-02  0.1235084E+00
         -4   -1    0    0    0  501 -0.00000000000E+00  0.00000000000E+00  0.17993558834E+04  0.17993563316E+04  0.12700000000E+01 0. -1.
          4   -1    0    0  501    0  0.00000000000E+00 -0.00000000000E+00 -0.19843411142E+01  0.23559519642E+01  0.12700000000E+01 0. -1.
         25    2    1    2    0    0  0.00000000000E+00  0.00000000000E+00  0.17973715423E+04  0.18017122836E+04  0.12499076640E+03 0.  0.
    9000005    1    3    3    0    0  0.38109195918E+00  0.18015412659E+02  0.17611624479E+04  0.17612549129E+04  0.10000000000E+01 0.  0.
    9000005    1    3    3    0    0 -0.38109195918E+00 -0.18015412659E+02  0.36209094454E+02  0.40457370719E+02  0.10000000000E+01 0.  0.
<mgrwt>
<rscale>  0 0.12499077E+03</rscale>
<asrwt>0</asrwt>
<pdfrwt beam="2">  1        4 0.33390245E-03 0.12499077E+03</pdfrwt>
<pdfrwt beam="1">  1       -4 0.27685320E+00 0.12499077E+03</pdfrwt>
<totfact> 0.12679635E+03</totfact>
</mgrwt>
</event>
<event>
 5    1  0.3316199E-002  0.1250014E+03  0.7818608E-02  0.1235067E+00
          4   -1    0    0  501    0  0.00000000000E+00  0.00000000000E+00  0.13591391965E+03  0.13591985305E+03  0.12700000000E+01 0.  1.
         -4   -1    0    0    0  501 -0.00000000000E+00 -0.00000000000E+00 -0.28720683462E+02  0.28748748817E+02  0.12700000000E+01 0.  1.
         25    2    1    2    0    0  0.00000000000E+00  0.00000000000E+00  0.10719323619E+03  0.16466860187E+03  0.12500143422E+03 0.  0.
    9000005    1    3    3    0    0  0.58797934967E+02 -0.14236578970E+02  0.74235596840E+02  0.95769521119E+02  0.10000000000E+01 0.  0.
    9000005    1    3    3    0    0 -0.58797934967E+02  0.14236578970E+02  0.32957639346E+02  0.68899080752E+02  0.10000000000E+01 0.  0.
<mgrwt>
<rscale>  0 0.12500143E+03</rscale>
<asrwt>0</asrwt>
<pdfrwt beam="1">  1        4 0.20912449E-01 0.12500143E+03</pdfrwt>
<pdfrwt beam="2">  1       -4 0.44211819E-02 0.12500143E+03</pdfrwt>
<totfact> 0.96447083E+03</totfact>
</mgrwt>
</event>
<event>
 5    1  0.3316199E-002  0.1249997E+03  0.7818608E-02  0.1235070E+00
          4   -1    0    0  501    0  0.00000000000E+00  0.00000000000E+00  0.23761107374E+02  0.23795023086E+02  0.12700000000E+01 0. -1.
         -4   -1    0    0    0  501 -0.00000000000E+00 -0.00000000000E+00 -0.16424242384E+03  0.16424733389E+03  0.12700000000E+01 0. -1.
         25    2    1    2    0    0  0.00000000000E+00  0.00000000000E+00 -0.14048131647E+03  0.18804235698E+03  0.12499971096E+03 0.  0.
    9000005    1    3    3    0    0 -0.58769668028E+02 -0.21230839661E+02 -0.71415107663E+02  0.94898577625E+02  0.10000000000E+01 0.  0.
    9000005    1    3    3    0    0  0.58769668028E+02  0.21230839661E+02 -0.69066208806E+02  0.93143779350E+02  0.10000000000E+01 0.  0.
<mgrwt>
<rscale>  0 0.12499971E+03</rscale>
<asrwt>0</asrwt>
<pdfrwt beam="1">  1        4 0.36585417E-02 0.12499971E+03</pdfrwt>
<pdfrwt beam="2">  1       -4 0.25271051E-01 0.12499971E+03</pdfrwt>
<totfact> 0.92189655E+03</totfact>
</mgrwt>
</event>
<event>
 5    1  0.3316199E-002  0.1249991E+03  0.7818608E-02  0.1235071E+00
         -4   -1    0    0    0  501 -0.00000000000E+00  0.00000000000E+00  0.63555262189E+03  0.63555389078E+03  0.12700000000E+01 0.  1.
          4   -1    0    0  501    0  0.00000000000E+00 -0.00000000000E+00 -0.60792405074E+01  0.62104802670E+01  0.12700000000E+01 0.  1.
         25    2    1    2    0    0  0.00000000000E+00  0.00000000000E+00  0.62947338138E+03  0.64176437105E+03  0.12499908032E+03 0.  0.
    9000005    1    3    3    0    0 -0.56662904463E+02 -0.22307340187E+02  0.38677790135E+03  0.39154367207E+03  0.10000000000E+01 0.  0.
    9000005    1    3    3    0    0  0.56662904463E+02  0.22307340187E+02  0.24269548003E+03  0.25022069898E+03  0.10000000000E+01 0.  0.
<mgrwt>
<rscale>  0 0.12499908E+03</rscale>
<asrwt>0</asrwt>
<pdfrwt beam="2">  1        4 0.94546127E-03 0.12499908E+03</pdfrwt>
<pdfrwt beam="1">  1       -4 0.97787465E-01 0.12499908E+03</pdfrwt>
<totfact> 0.46334039E+03</totfact>
</mgrwt>
</event>
<event>
 5    1  0.3316199E-002  0.1250009E+03  0.7818608E-02  0.1235068E+00
          4   -1    0    0  501    0  0.00000000000E+00  0.00000000000E+00  0.59047519050E+03  0.59047655626E+03  0.12700000000E+01 0.  1.
         -4   -1    0    0    0  501 -0.00000000000E+00 -0.00000000000E+00 -0.65531967482E+01  0.66751245397E+01  0.12700000000E+01 0.  1.
         25    2    1    2    0    0  0.00000000000E+00  0.00000000000E+00  0.58392199375E+03  0.59715168080E+03  0.12500094039E+03 0.  0.
    9000005    1    3    3    0    0  0.19608334640E+02  0.18003453993E+02  0.21862505510E+02  0.34461286833E+02  0.10000000000E+01 0.  0.
    9000005    1    3    3    0    0 -0.19608334640E+02 -0.18003453993E+02  0.56205948824E+03  0.56269039397E+03  0.10000000000E+01 0.  0.
<mgrwt>
<rscale>  0 0.12500094E+03</rscale>
<asrwt>0</asrwt>
<pdfrwt beam="1">  1        4 0.90851776E-01 0.12500094E+03</pdfrwt>
<pdfrwt beam="2">  1       -4 0.10176687E-02 0.12500094E+03</pdfrwt>
<totfact> 0.49046906E+03</totfact>
</mgrwt>
</event>
<event>
 5    1  0.3316199E-002  0.1250005E+03  0.7818608E-02  0.1235068E+00
         -4   -1    0    0    0  501 -0.00000000000E+00  0.00000000000E+00  0.57020619098E+02  0.57034760474E+02  0.12700000000E+01 0.  1.
          4   -1    0    0  501    0  0.00000000000E+00 -0.00000000000E+00 -0.68477986188E+02  0.68489761952E+02  0.12700000000E+01 0.  1.
         25    2    1    2    0    0  0.00000000000E+00  0.00000000000E+00 -0.11457367089E+02  0.12552452243E+03  0.12500053788E+03 0.  0.
    9000005    1    3    3    0    0 -0.39362028679E+02  0.15750799355E+02 -0.51832209384E+02  0.66970403252E+02  0.10000000000E+01 0.  0.
    9000005    1    3    3    0    0  0.39362028679E+02 -0.15750799355E+02  0.40374842295E+02  0.58554119175E+02  0.10000000000E+01 0.  0.
<mgrwt>
<rscale>  0 0.12500054E+03</rscale>
<asrwt>0</asrwt>
<pdfrwt beam="2">  1        4 0.10537068E-01 0.12500054E+03</pdfrwt>
<pdfrwt beam="1">  1       -4 0.87743966E-02 0.12500054E+03</pdfrwt>
<totfact> 0.10441286E+04</totfact>
</mgrwt>
</event>
<event>
 5    1  0.3316199E-002  0.1250000E+03  0.7818608E-02  0.1235069E+00
          4   -1    0    0  501    0  0.00000000000E+00  0.00000000000E+00  0.41543189404E+02  0.41562597198E+02  0.12700000000E+01 0. -1.
         -4   -1    0    0    0  501 -0.00000000000E+00 -0.00000000000E+00 -0.93982953752E+02  0.93991534172E+02  0.12700000000E+01 0. -1.
         25    2    1    2    0    0  0.00000000000E+00  0.00000000000E+00 -0.52439764348E+02  0.13555413137E+03  0.12499997459E+03 0.  0.
    9000005    1    3    3    0    0  0.25230349237E+02  0.53713407910E+02 -0.47457828794E+02  0.75993066959E+02  0.10000000000E+01 0.  0.
    9000005    1    3    3    0    0 -0.25230349237E+02 -0.53713407910E+02 -0.49819355539E+01  0.59561064411E+02  0.10000000000E+01 0.  0.
<mgrwt>
<rscale>  0 0.12499997E+03</rscale>
<asrwt>0</asrwt>
<pdfrwt beam="1">  1        4 0.63934129E-02 0.12499997E+03</pdfrwt>
<pdfrwt beam="2">  1       -4 0.14461069E-01 0.12499997E+03</pdfrwt>
<totfact> 0.10226410E+04</totfact>
</mgrwt>
</event>
<event>
 5    1  0.3316199E-002  0.1250031E+03  0.7818608E-02  0.1235064E+00
          4   -1    0    0  501    0  0.00000000000E+00  0.00000000000E+00  0.16390660106E+03  0.16391152116E+03  0.12700000000E+01 0. -1.
         -4   -1    0    0    0  501 -0.00000000000E+00 -0.00000000000E+00 -0.23811149034E+02  0.23844993569E+02  0.12700000000E+01 0. -1.
         25    2    1    2    0    0  0.00000000000E+00  0.00000000000E+00  0.14009545202E+03  0.18775651473E+03  0.12500309255E+03 0.  0.
    9000005    1    3    3    0    0 -0.50974424996E+02 -0.41963881266E+00  0.12434666126E+03  0.13439367644E+03  0.10000000000E+01 0.  0.
    9000005    1    3    3    0    0  0.50974424996E+02  0.41963881266E+00  0.15748790766E+02  0.53362838296E+02  0.10000000000E+01 0.  0.
<mgrwt>
<rscale>  0 0.12500309E+03</rscale>
<asrwt>0</asrwt>
<pdfrwt beam="1">  1        4 0.25219383E-01 0.12500309E+03</pdfrwt>
<pdfrwt beam="2">  1       -4 0.36662355E-02 0.12500309E+03</pdfrwt>
<totfact> 0.92232753E+03</totfact>
</mgrwt>
</event>
<event>
 5    1  0.3316199E-002  0.1250029E+03  0.7818608E-02  0.1235065E+00
         -4   -1    0    0    0  501 -0.00000000000E+00  0.00000000000E+00  0.18151118246E+03  0.18151562538E+03  0.12700000000E+01 0.  1.
          4   -1    0    0  501    0  0.00000000000E+00 -0.00000000000E+00 -0.21498278560E+02  0.21535758195E+02  0.12700000000E+01 0.  1.
         25    2    1    2    0    0  0.00000000000E+00  0.00000000000E+00  0.16001290390E+03  0.20305138358E+03  0.12500293980E+03 0.  0.
    9000005    1    3    3    0    0  0.10558751177E+02  0.60307703920E+02  0.10035507666E+03  0.11756125123E+03  0.10000000000E+01 0.  0.
    9000005    1    3    3    0    0 -0.10558751177E+02 -0.60307703920E+02  0.59657827241E+02  0.85490132352E+02  0.10000000000E+01 0.  0.
<mgrwt>
<rscale>  0 0.12500294E+03</rscale>
<asrwt>0</asrwt>
<pdfrwt beam="2">  1        4 0.33106523E-02 0.12500294E+03</pdfrwt>
<pdfrwt beam="1">  1       -4 0.27928022E-01 0.12500294E+03</pdfrwt>
<totfact> 0.89617512E+03</totfact>
</mgrwt>
</event>
<event>
 5    1  0.3316199E-002  0.1250016E+03  0.7818608E-02  0.1235067E+00
         -4   -1    0    0    0  501 -0.00000000000E+00  0.00000000000E+00  0.11170178151E+03  0.11170900095E+03  0.12700000000E+01 0. -1.
          4   -1    0    0  501    0  0.00000000000E+00 -0.00000000000E+00 -0.34951348060E+02  0.34974413951E+02  0.12700000000E+01 0. -1.
         25    2    1    2    0    0  0.00000000000E+00  0.00000000000E+00  0.76750433451E+02  0.14668341490E+03  0.12500158068E+03 0.  0.
    9000005    1    3    3    0    0  0.48464676850E+01 -0.59955305224E+02  0.58262446762E+02  0.83747475044E+02  0.10000000000E+01 0.  0.
    9000005    1    3    3    0    0 -0.48464676850E+01  0.59955305224E+02  0.18487986689E+02  0.62935939855E+02  0.10000000000E+01 0.  0.
<mgrwt>
<rscale>  0 0.12500158E+03</rscale>
<asrwt>0</asrwt>
<pdfrwt beam="2">  1        4 0.53794601E-02 0.12500158E+03</pdfrwt>
<pdfrwt beam="1">  1       -4 0.17187219E-01 0.12500158E+03</pdfrwt>
<totfact> 0.99965409E+03</totfact>
</mgrwt>
</event>
<event>
 5    1  0.3316199E-002  0.1250034E+03  0.7818608E-02  0.1235064E+00
         -4   -1    0    0    0  501 -0.00000000000E+00  0.00000000000E+00  0.66272677124E+02  0.66284844672E+02  0.12700000000E+01 0. -1.
          4   -1    0    0  501    0  0.00000000000E+00 -0.00000000000E+00 -0.58920886472E+02  0.58934571879E+02  0.12700000000E+01 0. -1.
         25    2    1    2    0    0  0.00000000000E+00  0.00000000000E+00  0.73517906524E+01  0.12521941655E+03  0.12500341378E+03 0.  0.
    9000005    1    3    3    0    0  0.49819282765E+02 -0.34688281126E+02 -0.11189747189E+02  0.61736927562E+02  0.10000000000E+01 0.  0.
    9000005    1    3    3    0    0 -0.49819282765E+02  0.34688281126E+02  0.18541537841E+02  0.63482488989E+02  0.10000000000E+01 0.  0.
<mgrwt>
<rscale>  0 0.12500341E+03</rscale>
<asrwt>0</asrwt>
<pdfrwt beam="2">  1        4 0.90667405E-02 0.12500341E+03</pdfrwt>
<pdfrwt beam="1">  1       -4 0.10197785E-01 0.12500341E+03</pdfrwt>
<totfact> 0.10447293E+04</totfact>
</mgrwt>
</event>
<event>
 5    1  0.3316199E-002  0.1250112E+03  0.7818608E-02  0.1235052E+00
         -4   -1    0    0    0  501 -0.00000000000E+00  0.00000000000E+00  0.11052104447E+02  0.11124833154E+02  0.12700000000E+01 0.  1.
          4   -1    0    0  501    0  0.00000000000E+00 -0.00000000000E+00 -0.35226954166E+03  0.35227183095E+03  0.12700000000E+01 0.  1.
         25    2    1    2    0    0  0.00000000000E+00  0.00000000000E+00 -0.34121743721E+03  0.36339666410E+03  0.12501118359E+03 0.  0.
    9000005    1    3    3    0    0  0.12389025404E+02 -0.31159534928E+02 -0.17297099370E+02  0.37743797027E+02  0.10000000000E+01 0.  0.
    9000005    1    3    3    0    0 -0.12389025404E+02  0.31159534928E+02 -0.32392033784E+03  0.32565286707E+03  0.10000000000E+01 0.  0.
<mgrwt>
<rscale>  0 0.12501118E+03</rscale>
<asrwt>0</asrwt>
<pdfrwt beam="2">  1        4 0.54201076E-01 0.12501118E+03</pdfrwt>
<pdfrwt beam="1">  1       -4 0.17060946E-02 0.12501118E+03</pdfrwt>
<totfact> 0.68258595E+03</totfact>
</mgrwt>
</event>
<event>
 5    1  0.3316199E-002  0.1249961E+03  0.7818608E-02  0.1235075E+00
         -4   -1    0    0    0  501 -0.00000000000E+00  0.00000000000E+00  0.63542734371E+03  0.63542861285E+03  0.12700000000E+01 0. -1.
          4   -1    0    0  501    0  0.00000000000E+00 -0.00000000000E+00 -0.60801646455E+01  0.62113848791E+01  0.12700000000E+01 0. -1.
         25    2    1    2    0    0  0.00000000000E+00  0.00000000000E+00  0.62934717906E+03  0.64163999773E+03  0.12499605952E+03 0.  0.
    9000005    1    3    3    0    0 -0.37998316519E+02 -0.39738748203E+02  0.16222604747E+03  0.17129311324E+03  0.10000000000E+01 0.  0.
    9000005    1    3    3    0    0  0.37998316519E+02  0.39738748203E+02  0.46712113159E+03  0.47034688449E+03  0.10000000000E+01 0.  0.
<mgrwt>
<rscale>  0 0.12499606E+03</rscale>
<asrwt>0</asrwt>
<pdfrwt beam="2">  1        4 0.94560201E-03 0.12499606E+03</pdfrwt>
<pdfrwt beam="1">  1       -4 0.97768185E-01 0.12499606E+03</pdfrwt>
<totfact> 0.46344366E+03</totfact>
</mgrwt>
</event>
<event>
 5    1  0.3316199E-002  0.1250434E+03  0.7818608E-02  0.1235001E+00
          4   -1    0    0  501    0  0.00000000000E+00  0.00000000000E+00  0.25426123293E+02  0.25457820915E+02  0.12700000000E+01 0. -1.
         -4   -1    0    0    0  501 -0.00000000000E+00 -0.00000000000E+00 -0.15360794440E+03  0.15361319436E+03  0.12700000000E+01 0. -1.
         25    2    1    2    0    0  0.00000000000E+00  0.00000000000E+00 -0.12818182111E+03  0.17907101528E+03  0.12504338947E+03 0.  0.
    9000005    1    3    3    0    0  0.22072957527E+02  0.53390465448E+02 -0.98287287156E+02  0.11401380649E+03  0.10000000000E+01 0.  0.
    9000005    1    3    3    0    0 -0.22072957527E+02 -0.53390465448E+02 -0.29894533949E+02  0.65057208784E+02  0.10000000000E+01 0.  0.
<mgrwt>
<rscale>  0 0.12504339E+03</rscale>
<asrwt>0</asrwt>
<pdfrwt beam="1">  1        4 0.39145535E-02 0.12504339E+03</pdfrwt>
<pdfrwt beam="2">  1       -4 0.23634833E-01 0.12504339E+03</pdfrwt>
<totfact> 0.93693301E+03</totfact>
</mgrwt>
</event>
<event>
 5    1  0.3316199E-002  0.1249980E+03  0.7818608E-02  0.1235072E+00
          4   -1    0    0  501    0  0.00000000000E+00  0.00000000000E+00  0.11320873948E+03  0.11321586282E+03  0.12700000000E+01 0. -1.
         -4   -1    0    0    0  501 -0.00000000000E+00 -0.00000000000E+00 -0.34483843899E+02  0.34507222288E+02  0.12700000000E+01 0. -1.
         25    2    1    2    0    0  0.00000000000E+00  0.00000000000E+00  0.78724895581E+02  0.14772308511E+03  0.12499800275E+03 0.  0.
    9000005    1    3    3    0    0  0.46757548296E+02  0.41237949329E+02  0.44416421444E+02  0.76554916769E+02  0.10000000000E+01 0.  0.
    9000005    1    3    3    0    0 -0.46757548296E+02 -0.41237949329E+02  0.34308474137E+02  0.71168168342E+02  0.10000000000E+01 0.  0.
<mgrwt>
<rscale>  0 0.12499800E+03</rscale>
<asrwt>0</asrwt>
<pdfrwt beam="1">  1        4 0.17419075E-01 0.12499800E+03</pdfrwt>
<pdfrwt beam="2">  1       -4 0.53075531E-02 0.12499800E+03</pdfrwt>
<totfact> 0.99764004E+03</totfact>
</mgrwt>
</event>
<event>
 5    1  0.3316199E-002  0.1249986E+03  0.7818608E-02  0.1235072E+00
         -4   -1    0    0    0  501 -0.00000000000E+00  0.00000000000E+00  0.77143861192E+02  0.77154314329E+02  0.12700000000E+01 0. -1.
          4   -1    0    0  501    0  0.00000000000E+00 -0.00000000000E+00 -0.50612915032E+02  0.50628846205E+02  0.12700000000E+01 0. -1.
         25    2    1    2    0    0  0.00000000000E+00  0.00000000000E+00  0.26530946160E+02  0.12778316053E+03  0.12499858004E+03 0.  0.
    9000005    1    3    3    0    0 -0.30192522576E+02  0.53857360342E+02  0.34092408343E+01  0.61845182557E+02  0.10000000000E+01 0.  0.
    9000005    1    3    3    0    0  0.30192522576E+02 -0.53857360342E+02  0.23121705326E+02  0.65937977976E+02  0.10000000000E+01 0.  0.
<mgrwt>
<rscale>  0 0.12499858E+03</rscale>
<asrwt>0</asrwt>
<pdfrwt beam="2">  1        4 0.77886319E-02 0.12499858E+03</pdfrwt>
<pdfrwt beam="1">  1       -4 0.11870316E-01 0.12499858E+03</pdfrwt>
<totfact> 0.10392506E+04</totfact>
</mgrwt>
</event>
<event>
 5    1  0.3316199E-002  0.1249987E+03  0.7818608E-02  0.1235071E+00
         -4   -1    0    0    0  501 -0.00000000000E+00  0.00000000000E+00  0.10900313194E+03  0.10901053010E+03  0.12700000000E+01 0. -1.
          4   -1    0    0  501    0  0.00000000000E+00 -0.00000000000E+00 -0.35815509139E+02  0.35838018848E+02  0.12700000000E+01 0. -1.
         25    2    1    2    0    0  0.00000000000E+00  0.00000000000E+00  0.73187622805E+02  0.14484854895E+03  0.12499869600E+03 0.  0.
    9000005    1    3    3    0    0  0.12588195896E+01 -0.49464827154E+02 -0.76355665295E+01  0.50076497764E+02  0.10000000000E+01 0.  0.
    9000005    1    3    3    0    0 -0.12588195896E+01  0.49464827154E+02  0.80823189334E+02  0.94772051188E+02  0.10000000000E+01 0.  0.
<mgrwt>
<rscale>  0 0.12499870E+03</rscale>
<asrwt>0</asrwt>
<pdfrwt beam="2">  1        4 0.55123790E-02 0.12499870E+03</pdfrwt>
<pdfrwt beam="1">  1       -4 0.16772013E-01 0.12499870E+03</pdfrwt>
<totfact> 0.10034361E+04</totfact>
</mgrwt>
</event>
<event>
 5    1  0.3316199E-002  0.1249990E+03  0.7818608E-02  0.1235071E+00
          4   -1    0    0  501    0  0.00000000000E+00  0.00000000000E+00  0.99000689993E+03  0.99000771452E+03  0.12700000000E+01 0.  1.
         -4   -1    0    0    0  501 -0.00000000000E+00 -0.00000000000E+00 -0.38425803739E+01  0.40470141994E+01  0.12700000000E+01 0.  1.
         25    2    1    2    0    0  0.00000000000E+00  0.00000000000E+00  0.98616431955E+03  0.99405472872E+03  0.12499895409E+03 0.  0.
    9000005    1    3    3    0    0  0.44388564923E+02  0.21340395408E+02  0.79896192912E+03  0.80047918234E+03  0.10000000000E+01 0.  0.
    9000005    1    3    3    0    0 -0.44388564923E+02 -0.21340395408E+02  0.18720239043E+03  0.19357554637E+03  0.10000000000E+01 0.  0.
<mgrwt>
<rscale>  0 0.12499895E+03</rscale>
<asrwt>0</asrwt>
<pdfrwt beam="1">  1        4 0.15232463E+00 0.12499895E+03</pdfrwt>
<pdfrwt beam="2">  1       -4 0.60695419E-03 0.12499895E+03</pdfrwt>
<totfact> 0.30802281E+03</totfact>
</mgrwt>
</event>
<event>
 5    1  0.3316199E-002  0.1250010E+03  0.7818608E-02  0.1235068E+00
         -4   -1    0    0    0  501 -0.00000000000E+00  0.00000000000E+00  0.26029501207E+03  0.26029811027E+03  0.12700000000E+01 0. -1.
          4   -1    0    0  501    0  0.00000000000E+00 -0.00000000000E+00 -0.14977183675E+02  0.15030932467E+02  0.12700000000E+01 0. -1.
         25    2    1    2    0    0  0.00000000000E+00  0.00000000000E+00  0.24531782840E+03  0.27532904274E+03  0.12500097937E+03 0.  0.
    9000005    1    3    3    0    0 -0.42335505927E+02 -0.11855330344E+02  0.24835342803E+02  0.50503843139E+02  0.10000000000E+01 0.  0.
    9000005    1    3    3    0    0  0.42335505927E+02  0.11855330344E+02  0.22048248560E+03  0.22482519960E+03  0.10000000000E+01 0.  0.
<mgrwt>
<rscale>  0 0.12500098E+03</rscale>
<asrwt>0</asrwt>
<pdfrwt beam="2">  1        4 0.23085552E-02 0.12500098E+03</pdfrwt>
<pdfrwt beam="1">  1       -4 0.40049754E-01 0.12500098E+03</pdfrwt>
<totfact> 0.78799831E+03</totfact>
</mgrwt>
</event>
<event>
 5    1  0.3316199E-002  0.1249986E+03  0.7818608E-02  0.1235071E+00
         -4   -1    0    0    0  501 -0.00000000000E+00  0.00000000000E+00  0.66392067074E+02  0.66404212745E+02  0.12700000000E+01 0. -1.
          4   -1    0    0  501    0  0.00000000000E+00 -0.00000000000E+00 -0.58810408551E+02  0.58824119661E+02  0.12700000000E+01 0. -1.
         25    2    1    2    0    0  0.00000000000E+00  0.00000000000E+00  0.75816585229E+01  0.12522833241E+03  0.12499861476E+03 0.  0.
    9000005    1    3    3    0    0 -0.56640925050E+02 -0.19249016393E+02 -0.14310147415E+02  0.61518284613E+02  0.10000000000E+01 0.  0.
    9000005    1    3    3    0    0  0.56640925050E+02  0.19249016393E+02  0.21891805938E+02  0.63710047794E+02  0.10000000000E+01 0.  0.
<mgrwt>
<rscale>  0 0.12499861E+03</rscale>
<asrwt>0</asrwt>
<pdfrwt beam="2">  1        4 0.90497442E-02 0.12499861E+03</pdfrwt>
<pdfrwt beam="1">  1       -4 0.10216153E-01 0.12499861E+03</pdfrwt>
<totfact> 0.10448232E+04</totfact>
</mgrwt>
</event>
<event>
 5    1  0.3316199E-002  0.1250259E+03  0.7818608E-02  0.1235029E+00
         -4   -1    0    0    0  501 -0.00000000000E+00  0.00000000000E+00  0.86879209975E+01  0.87802546238E+01  0.12700000000E+01 0.  1.
          4   -1    0    0  501    0  0.00000000000E+00 -0.00000000000E+00 -0.44733387551E+03  0.44733567830E+03  0.12700000000E+01 0.  1.
         25    2    1    2    0    0  0.00000000000E+00  0.00000000000E+00 -0.43864595452E+03  0.45611593293E+03  0.12502588074E+03 0.  0.
    9000005    1    3    3    0    0 -0.60430990904E+02 -0.27089628107E+01 -0.16191500726E+03  0.17284881462E+03  0.10000000000E+01 0.  0.
    9000005    1    3    3    0    0  0.60430990904E+02  0.27089628107E+01 -0.27673094726E+03  0.28326711830E+03  0.10000000000E+01 0.  0.
<mgrwt>
<rscale>  0 0.12502588E+03</rscale>
<asrwt>0</asrwt>
<pdfrwt beam="2">  1        4 0.68827820E-01 0.12502588E+03</pdfrwt>
<pdfrwt beam="1">  1       -4 0.13438448E-02 0.12502588E+03</pdfrwt>
<totfact> 0.59403754E+03</totfact>
</mgrwt>
</event>
<event>
 5    1  0.3316199E-002  0.1249981E+03  0.7818608E-02  0.1235072E+00
          4   -1    0    0  501    0  0.00000000000E+00  0.00000000000E+00  0.21254086269E+03  0.21254465699E+03  0.12700000000E+01 0.  1.
         -4   -1    0    0    0  501 -0.00000000000E+00 -0.00000000000E+00 -0.18352351117E+02  0.18396241233E+02  0.12700000000E+01 0.  1.
         25    2    1    2    0    0  0.00000000000E+00  0.00000000000E+00  0.19418851158E+03  0.23094089822E+03  0.12499808176E+03 0.  0.
    9000005    1    3    3    0    0 -0.33549933678E+02 -0.26219472755E+02  0.18159990531E+03  0.18652770413E+03  0.10000000000E+01 0.  0.
    9000005    1    3    3    0    0  0.33549933678E+02  0.26219472755E+02  0.12588606269E+02  0.44413194089E+02  0.10000000000E+01 0.  0.
<mgrwt>
<rscale>  0 0.12499808E+03</rscale>
<asrwt>0</asrwt>
<pdfrwt beam="1">  1        4 0.32702263E-01 0.12499808E+03</pdfrwt>
<pdfrwt beam="2">  1       -4 0.28271066E-02 0.12499808E+03</pdfrwt>
<totfact> 0.85168973E+03</totfact>
</mgrwt>
</event>
<event>
 5    1  0.3316199E-002  0.1250010E+03  0.7818608E-02  0.1235068E+00
         -4   -1    0    0    0  501 -0.00000000000E+00  0.00000000000E+00  0.95405058333E+02  0.95413510865E+02  0.12700000000E+01 0. -1.
          4   -1    0    0  501    0  0.00000000000E+00 -0.00000000000E+00 -0.40924388062E+02  0.40944089173E+02  0.12700000000E+01 0. -1.
         25    2    1    2    0    0  0.00000000000E+00  0.00000000000E+00  0.54480670272E+02  0.13635760004E+03  0.12500100662E+03 0.  0.
    9000005    1    3    3    0    0 -0.20250226713E+02  0.21242998114E+02  0.87425086294E+02  0.92225172076E+02  0.10000000000E+01 0.  0.
    9000005    1    3    3    0    0  0.20250226713E+02 -0.21242998114E+02 -0.32944416022E+02  0.44132427963E+02  0.10000000000E+01 0.  0.
<mgrwt>
<rscale>  0 0.12500101E+03</rscale>
<asrwt>0</asrwt>
<pdfrwt beam="2">  1        4 0.62982254E-02 0.12500101E+03</pdfrwt>
<pdfrwt beam="1">  1       -4 0.14679867E-01 0.12500101E+03</pdfrwt>
<totfact> 0.10209303E+04</totfact>
</mgrwt>
</event>
<event>
 5    1  0.3316199E-002  0.1249822E+03  0.7818608E-02  0.1235097E+00
         -4   -1    0    0    0  501 -0.00000000000E+00  0.00000000000E+00  0.18870439101E+03  0.18870866458E+03  0.12700000000E+01 0. -1.
          4   -1    0    0  501    0  0.00000000000E+00 -0.00000000000E+00 -0.20670485910E+02  0.20709463725E+02  0.12700000000E+01 0. -1.
         25    2    1    2    0    0  0.00000000000E+00  0.00000000000E+00  0.16803390510E+03  0.20941812830E+03  0.12498223553E+03 0.  0.
    9000005    1    3    3    0    0  0.29375730602E+02  0.49842890071E+02  0.44475584287E+02  0.72981674664E+02  0.10000000000E+01 0.  0.
    9000005    1    3    3    0    0 -0.29375730602E+02 -0.49842890071E+02  0.12355832081E+03  0.13643645364E+03  0.10000000000E+01 0.  0.
<mgrwt>
<rscale>  0 0.12498224E+03</rscale>
<asrwt>0</asrwt>
<pdfrwt beam="2">  1        4 0.31834018E-02 0.12498224E+03</pdfrwt>
<pdfrwt beam="1">  1       -4 0.29034772E-01 0.12498224E+03</pdfrwt>
<totfact> 0.88606183E+03</totfact>
</mgrwt>
</event>
<event>
 5    1  0.3316199E-002  0.1250004E+03  0.7818608E-02  0.1235069E+00
          4   -1    0    0  501    0  0.00000000000E+00  0.00000000000E+00  0.31441027740E+03  0.31441284235E+03  0.12700000000E+01 0. -1.
         -4   -1    0    0    0  501 -0.00000000000E+00 -0.00000000000E+00 -0.12389050402E+02  0.12453974059E+02  0.12700000000E+01 0. -1.
         25    2    1    2    0    0  0.00000000000E+00  0.00000000000E+00  0.30202122700E+03  0.32686681641E+03  0.12500037645E+03 0.  0.
    9000005    1    3    3    0    0  0.29699704176E+01 -0.61676944818E+02  0.17614756514E+03  0.18665966610E+03  0.10000000000E+01 0.  0.
    9000005    1    3    3    0    0 -0.29699704176E+01  0.61676944818E+02  0.12587366186E+03  0.14020715031E+03  0.10000000000E+01 0.  0.
<mgrwt>
<rscale>  0 0.12500038E+03</rscale>
<asrwt>0</asrwt>
<pdfrwt beam="1">  1        4 0.48375998E-01 0.12500038E+03</pdfrwt>
<pdfrwt beam="2">  1       -4 0.19111994E-02 0.12500038E+03</pdfrwt>
<totfact> 0.72346183E+03</totfact>
</mgrwt>
</event>
<event>
 5    1  0.3316199E-002  0.1249998E+03  0.7818608E-02  0.1235070E+00
          4   -1    0    0  501    0  0.00000000000E+00  0.00000000000E+00  0.57697784230E+02  0.57711759678E+02  0.12700000000E+01 0.  1.
         -4   -1    0    0    0  501 -0.00000000000E+00 -0.00000000000E+00 -0.67673601531E+02  0.67685517241E+02  0.12700000000E+01 0.  1.
         25    2    1    2    0    0  0.00000000000E+00  0.00000000000E+00 -0.99758173003E+01  0.12539727692E+03  0.12499984051E+03 0.  0.
    9000005    1    3    3    0    0  0.12282873756E+02 -0.56353356510E+02  0.19144141883E+02  0.60778844560E+02  0.10000000000E+01 0.  0.
    9000005    1    3    3    0    0 -0.12282873756E+02  0.56353356510E+02 -0.29119959183E+02  0.64618432358E+02  0.10000000000E+01 0.  0.
<mgrwt>
<rscale>  0 0.12499984E+03</rscale>
<asrwt>0</asrwt>
<pdfrwt beam="1">  1        4 0.88785738E-02 0.12499984E+03</pdfrwt>
<pdfrwt beam="2">  1       -4 0.10413315E-01 0.12499984E+03</pdfrwt>
<totfact> 0.10444265E+04</totfact>
</mgrwt>
</event>
<event>
 5    1  0.3316199E-002  0.1250017E+03  0.7818608E-02  0.1235067E+00
         -4   -1    0    0    0  501 -0.00000000000E+00  0.00000000000E+00  0.96638344124E+02  0.96646688795E+02  0.12700000000E+01 0. -1.
          4   -1    0    0  501    0  0.00000000000E+00 -0.00000000000E+00 -0.40402369659E+02  0.40422325193E+02  0.12700000000E+01 0. -1.
         25    2    1    2    0    0  0.00000000000E+00  0.00000000000E+00  0.56235974465E+02  0.13706901399E+03  0.12500171907E+03 0.  0.
    9000005    1    3    3    0    0  0.57284513535E+02  0.24356041735E+02  0.34186225842E+02  0.71024152914E+02  0.10000000000E+01 0.  0.
    9000005    1    3    3    0    0 -0.57284513535E+02 -0.24356041735E+02  0.22049748624E+02  0.66044861074E+02  0.10000000000E+01 0.  0.
<mgrwt>
<rscale>  0 0.12500172E+03</rscale>
<asrwt>0</asrwt>
<pdfrwt beam="2">  1        4 0.62179262E-02 0.12500172E+03</pdfrwt>
<pdfrwt beam="1">  1       -4 0.14869614E-01 0.12500172E+03</pdfrwt>
<totfact> 0.10194248E+04</totfact>
</mgrwt>
</event>
<event>
 5    1  0.3316199E-002  0.1250021E+03  0.7818608E-02  0.1235066E+00
         -4   -1    0    0    0  501 -0.00000000000E+00  0.00000000000E+00  0.43458871029E+03  0.43459056594E+03  0.12700000000E+01 0.  1.
          4   -1    0    0  501    0  0.00000000000E+00 -0.00000000000E+00 -0.89419443135E+01  0.90316813554E+01  0.12700000000E+01 0.  1.
         25    2    1    2    0    0  0.00000000000E+00  0.00000000000E+00  0.42564676597E+03  0.44362224730E+03  0.12500211565E+03 0.  0.
    9000005    1    3    3    0    0  0.27535090536E+02 -0.55505215306E+02  0.18391067913E+03  0.19406995655E+03  0.10000000000E+01 0.  0.
    9000005    1    3    3    0    0 -0.27535090536E+02  0.55505215306E+02  0.24173608684E+03  0.24955229075E+03  0.10000000000E+01 0.  0.
<mgrwt>
<rscale>  0 0.12500212E+03</rscale>
<asrwt>0</asrwt>
<pdfrwt beam="2">  1        4 0.13827291E-02 0.12500212E+03</pdfrwt>
<pdfrwt beam="1">  1       -4 0.66866859E-01 0.12500212E+03</pdfrwt>
<totfact> 0.60517480E+03</totfact>
</mgrwt>
</event>
<event>
 5    1  0.3316199E-002  0.1250054E+03  0.7818608E-02  0.1235061E+00
         -4   -1    0    0    0  501 -0.00000000000E+00  0.00000000000E+00  0.11730103653E+02  0.11798653809E+02  0.12700000000E+01 0. -1.
          4   -1    0    0  501    0  0.00000000000E+00 -0.00000000000E+00 -0.33199933707E+03  0.33200176613E+03  0.12700000000E+01 0. -1.
         25    2    1    2    0    0  0.00000000000E+00  0.00000000000E+00 -0.32026923342E+03  0.34380041994E+03  0.12500538740E+03 0.  0.
    9000005    1    3    3    0    0  0.49134583216E+02  0.29522319825E+02 -0.22860577773E+03  0.23568490883E+03  0.10000000000E+01 0.  0.
    9000005    1    3    3    0    0 -0.49134583216E+02 -0.29522319825E+02 -0.91663455686E+02  0.10811551112E+03  0.10000000000E+01 0.  0.
<mgrwt>
<rscale>  0 0.12500539E+03</rscale>
<asrwt>0</asrwt>
<pdfrwt beam="2">  1        4 0.51082274E-01 0.12500539E+03</pdfrwt>
<pdfrwt beam="1">  1       -4 0.18100915E-02 0.12500539E+03</pdfrwt>
<totfact> 0.70403620E+03</totfact>
</mgrwt>
</event>
<event>
 5    1  0.3316199E-002  0.1250097E+03  0.7818608E-02  0.1235054E+00
         -4   -1    0    0    0  501 -0.00000000000E+00  0.00000000000E+00  0.51277448046E+02  0.51293172821E+02  0.12700000000E+01 0. -1.
          4   -1    0    0  501    0  0.00000000000E+00 -0.00000000000E+00 -0.76157810349E+02  0.76168398810E+02  0.12700000000E+01 0. -1.
         25    2    1    2    0    0  0.00000000000E+00  0.00000000000E+00 -0.24880362304E+02  0.12746157163E+03  0.12500967888E+03 0.  0.
    9000005    1    3    3    0    0 -0.21016083250E+02  0.34333617830E+02  0.36303129128E+02  0.54216143840E+02  0.10000000000E+01 0.  0.
    9000005    1    3    3    0    0  0.21016083250E+02 -0.34333617830E+02 -0.61183491431E+02  0.73245427790E+02  0.10000000000E+01 0.  0.
<mgrwt>
<rscale>  0 0.12500968E+03</rscale>
<asrwt>0</asrwt>
<pdfrwt beam="2">  1        4 0.11718610E-01 0.12500968E+03</pdfrwt>
<pdfrwt beam="1">  1       -4 0.78908623E-02 0.12500968E+03</pdfrwt>
<totfact> 0.10396861E+04</totfact>
</mgrwt>
</event>
<event>
 5    1  0.3316199E-002  0.1250031E+03  0.7818608E-02  0.1235064E+00
          4   -1    0    0  501    0  0.00000000000E+00  0.00000000000E+00  0.19279515053E+03  0.19279933343E+03  0.12700000000E+01 0. -1.
         -4   -1    0    0    0  501 -0.00000000000E+00 -0.00000000000E+00 -0.20237835308E+02  0.20277644783E+02  0.12700000000E+01 0. -1.
         25    2    1    2    0    0  0.00000000000E+00  0.00000000000E+00  0.17255731523E+03  0.21307697821E+03  0.12500308638E+03 0.  0.
    9000005    1    3    3    0    0  0.38045729102E+02  0.47970828816E+02  0.64936401844E+02  0.89254771327E+02  0.10000000000E+01 0.  0.
    9000005    1    3    3    0    0 -0.38045729102E+02 -0.47970828816E+02  0.10762091338E+03  0.12382220688E+03  0.10000000000E+01 0.  0.
<mgrwt>
<rscale>  0 0.12500309E+03</rscale>
<asrwt>0</asrwt>
<pdfrwt beam="1">  1        4 0.29664176E-01 0.12500309E+03</pdfrwt>
<pdfrwt beam="2">  1       -4 0.31168971E-02 0.12500309E+03</pdfrwt>
<totfact> 0.87969754E+03</totfact>
</mgrwt>
</event>
<event>
 5    1  0.3316199E-002  0.1249813E+03  0.7818608E-02  0.1235098E+00
         -4   -1    0    0    0  501 -0.00000000000E+00  0.00000000000E+00  0.15487858612E+02  0.15539841196E+02  0.12700000000E+01 0.  1.
          4   -1    0    0  501    0  0.00000000000E+00 -0.00000000000E+00 -0.25166239993E+03  0.25166560440E+03  0.12700000000E+01 0.  1.
         25    2    1    2    0    0  0.00000000000E+00  0.00000000000E+00 -0.23617454131E+03  0.26720544559E+03  0.12498134337E+03 0.  0.
    9000005    1    3    3    0    0  0.77996790790E+01 -0.60155249601E+02 -0.15012783503E+03  0.16192237616E+03  0.10000000000E+01 0.  0.
    9000005    1    3    3    0    0 -0.77996790790E+01  0.60155249601E+02 -0.86046706279E+02  0.10528306944E+03  0.10000000000E+01 0.  0.
<mgrwt>
<rscale>  0 0.12498134E+03</rscale>
<asrwt>0</asrwt>
<pdfrwt beam="2">  1        4 0.38721534E-01 0.12498134E+03</pdfrwt>
<pdfrwt beam="1">  1       -4 0.23869928E-02 0.12498134E+03</pdfrwt>
<totfact> 0.79938571E+03</totfact>
</mgrwt>
</event>
<event>
 5    1  0.3316199E-002  0.1250037E+03  0.7818608E-02  0.1235063E+00
          4   -1    0    0  501    0  0.00000000000E+00  0.00000000000E+00  0.49118535975E+03  0.49118700160E+03  0.12700000000E+01 0.  1.
         -4   -1    0    0    0  501 -0.00000000000E+00 -0.00000000000E+00 -0.79008077535E+01  0.80022286369E+01  0.12700000000E+01 0.  1.
         25    2    1    2    0    0  0.00000000000E+00  0.00000000000E+00  0.48328455200E+03  0.49918923023E+03  0.12500371746E+03 0.  0.
    9000005    1    3    3    0    0 -0.52458744823E+01  0.33784945403E+02  0.32739973303E+02  0.47348152941E+02  0.10000000000E+01 0.  0.
    9000005    1    3    3    0    0  0.52458744823E+01 -0.33784945403E+02  0.45054457870E+03  0.45184107729E+03  0.10000000000E+01 0.  0.
<mgrwt>
<rscale>  0 0.12500372E+03</rscale>
<asrwt>0</asrwt>
<pdfrwt beam="1">  1        4 0.75574941E-01 0.12500372E+03</pdfrwt>
<pdfrwt beam="2">  1       -4 0.12234362E-02 0.12500372E+03</pdfrwt>
<totfact> 0.55922737E+03</totfact>
</mgrwt>
</event>
<event>
 5    1  0.3316199E-002  0.1249898E+03  0.7818608E-02  0.1235085E+00
          4   -1    0    0  501    0  0.00000000000E+00  0.00000000000E+00  0.14623641751E+02  0.14678685161E+02  0.12700000000E+01 0.  1.
         -4   -1    0    0    0  501 -0.00000000000E+00 -0.00000000000E+00 -0.26651714572E+03  0.26652017159E+03  0.12700000000E+01 0.  1.
         25    2    1    2    0    0  0.00000000000E+00  0.00000000000E+00 -0.25189350397E+03  0.28119885675E+03  0.12498983836E+03 0.  0.
    9000005    1    3    3    0    0 -0.31318629708E+02  0.35389112686E+02 -0.33970645019E+02  0.58208681367E+02  0.10000000000E+01 0.  0.
    9000005    1    3    3    0    0  0.31318629708E+02 -0.35389112686E+02 -0.21792285895E+03  0.22299017538E+03  0.10000000000E+01 0.  0.
<mgrwt>
<rscale>  0 0.12498984E+03</rscale>
<asrwt>0</asrwt>
<pdfrwt beam="1">  1        4 0.22542581E-02 0.12498984E+03</pdfrwt>
<pdfrwt beam="2">  1       -4 0.41007101E-01 0.12498984E+03</pdfrwt>
<totfact> 0.78037039E+03</totfact>
</mgrwt>
</event>
<event>
 5    1  0.3316199E-002  0.1250012E+03  0.7818608E-02  0.1235067E+00
          4   -1    0    0  501    0  0.00000000000E+00  0.00000000000E+00  0.11470222060E+02  0.11540316031E+02  0.12700000000E+01 0.  1.
         -4   -1    0    0    0  501 -0.00000000000E+00 -0.00000000000E+00 -0.33945366273E+03  0.33945603845E+03  0.12700000000E+01 0.  1.
         25    2    1    2    0    0  0.00000000000E+00  0.00000000000E+00 -0.32798344067E+03  0.35099635448E+03  0.12500121402E+03 0.  0.
    9000005    1    3    3    0    0  0.53110561579E+02  0.30966955351E+01 -0.25605650393E+03  0.26152677583E+03  0.10000000000E+01 0.  0.
    9000005    1    3    3    0    0 -0.53110561579E+02 -0.30966955351E+01 -0.71926936745E+02  0.89469578651E+02  0.10000000000E+01 0.  0.
<mgrwt>
<rscale>  0 0.12500121E+03</rscale>
<asrwt>0</asrwt>
<pdfrwt beam="1">  1        4 0.17702244E-02 0.12500121E+03</pdfrwt>
<pdfrwt beam="2">  1       -4 0.52229207E-01 0.12500121E+03</pdfrwt>
<totfact> 0.69613217E+03</totfact>
</mgrwt>
</event>
<event>
 5    1  0.3316199E-002  0.1250024E+03  0.7818608E-02  0.1235066E+00
         -4   -1    0    0    0  501 -0.00000000000E+00  0.00000000000E+00  0.10788779482E+04  0.10788786957E+04  0.12700000000E+01 0. -1.
          4   -1    0    0  501    0  0.00000000000E+00 -0.00000000000E+00 -0.35086627782E+01  0.37314359824E+01  0.12700000000E+01 0. -1.
         25    2    1    2    0    0  0.00000000000E+00  0.00000000000E+00  0.10753692854E+04  0.10826101316E+04  0.12500238865E+03 0.  0.
    9000005    1    3    3    0    0 -0.89823375831E+01 -0.36626234147E+01  0.30089239833E+01  0.10205431018E+02  0.10000000000E+01 0.  0.
    9000005    1    3    3    0    0  0.89823375831E+01  0.36626234147E+01  0.10723603614E+04  0.10724047006E+04  0.10000000000E+01 0.  0.
<mgrwt>
<rscale>  0 0.12500239E+03</rscale>
<asrwt>0</asrwt>
<pdfrwt beam="2">  1        4 0.55698818E-03 0.12500239E+03</pdfrwt>
<pdfrwt beam="1">  1       -4 0.16599842E+00 0.12500239E+03</pdfrwt>
<totfact> 0.27996535E+03</totfact>
</mgrwt>
</event>
<event>
 5    1  0.3316199E-002  0.1249998E+03  0.7818608E-02  0.1235070E+00
         -4   -1    0    0    0  501 -0.00000000000E+00  0.00000000000E+00  0.25299432278E+03  0.25299751038E+03  0.12700000000E+01 0. -1.
          4   -1    0    0  501    0  0.00000000000E+00 -0.00000000000E+00 -0.15410606844E+02  0.15462849133E+02  0.12700000000E+01 0. -1.
         25    2    1    2    0    0  0.00000000000E+00  0.00000000000E+00  0.23758371594E+03  0.26846035952E+03  0.12499977021E+03 0.  0.
    9000005    1    3    3    0    0 -0.38034077538E+02 -0.30380899544E+02  0.20295393451E+03  0.20871245685E+03  0.10000000000E+01 0.  0.
    9000005    1    3    3    0    0  0.38034077538E+02  0.30380899544E+02  0.34629781429E+02  0.59747902667E+02  0.10000000000E+01 0.  0.
<mgrwt>
<rscale>  0 0.12499977E+03</rscale>
<asrwt>0</asrwt>
<pdfrwt beam="2">  1        4 0.23751264E-02 0.12499977E+03</pdfrwt>
<pdfrwt beam="1">  1       -4 0.38926467E-01 0.12499977E+03</pdfrwt>
<totfact> 0.79733644E+03</totfact>
</mgrwt>
</event>
<event>
 5    1  0.3316199E-002  0.1249923E+03  0.7818608E-02  0.1235081E+00
          4   -1    0    0  501    0  0.00000000000E+00  0.00000000000E+00  0.80254590024E+02  0.80264638042E+02  0.12700000000E+01 0.  1.
         -4   -1    0    0    0  501 -0.00000000000E+00 -0.00000000000E+00 -0.48645817686E+02  0.48662392855E+02  0.12700000000E+01 0.  1.
         25    2    1    2    0    0  0.00000000000E+00  0.00000000000E+00  0.31608772338E+02  0.12892703090E+03  0.12499225899E+03 0.  0.
    9000005    1    3    3    0    0 -0.93237313968E+00  0.45455886929E+02  0.60021801585E+02  0.75304207331E+02  0.10000000000E+01 0.  0.
    9000005    1    3    3    0    0  0.93237313968E+00 -0.45455886929E+02 -0.28413029247E+02  0.53622823566E+02  0.10000000000E+01 0.  0.
<mgrwt>
<rscale>  0 0.12499226E+03</rscale>
<asrwt>0</asrwt>
<pdfrwt beam="1">  1        4 0.12348908E-01 0.12499226E+03</pdfrwt>
<pdfrwt beam="2">  1       -4 0.74860200E-02 0.12499226E+03</pdfrwt>
<totfact> 0.10369327E+04</totfact>
</mgrwt>
</event>
<event>
 5    1  0.3316199E-002  0.1250009E+03  0.7818608E-02  0.1235068E+00
         -4   -1    0    0    0  501 -0.00000000000E+00  0.00000000000E+00  0.93327384831E+02  0.93336025517E+02  0.12700000000E+01 0. -1.
          4   -1    0    0  501    0  0.00000000000E+00 -0.00000000000E+00 -0.41835728184E+02  0.41855000331E+02  0.12700000000E+01 0. -1.
         25    2    1    2    0    0  0.00000000000E+00  0.00000000000E+00  0.51491656647E+02  0.13519102585E+03  0.12500089106E+03 0.  0.
    9000005    1    3    3    0    0 -0.33622572678E+02 -0.47773416363E+02  0.17436503148E+01  0.58453545837E+02  0.10000000000E+01 0.  0.
    9000005    1    3    3    0    0  0.33622572678E+02  0.47773416363E+02  0.49748006332E+02  0.76737480011E+02  0.10000000000E+01 0.  0.
<mgrwt>
<rscale>  0 0.12500089E+03</rscale>
<asrwt>0</asrwt>
<pdfrwt beam="2">  1        4 0.64384131E-02 0.12500089E+03</pdfrwt>
<pdfrwt beam="1">  1       -4 0.14360206E-01 0.12500089E+03</pdfrwt>
<totfact> 0.10233840E+04</totfact>
</mgrwt>
</event>
<event>
 5    1  0.3316199E-002  0.1250004E+03  0.7818608E-02  0.1235069E+00
          4   -1    0    0  501    0  0.00000000000E+00  0.00000000000E+00  0.17416994369E+02  0.17463235464E+02  0.12700000000E+01 0.  1.
         -4   -1    0    0    0  501 -0.00000000000E+00 -0.00000000000E+00 -0.22393427326E+03  0.22393787451E+03  0.12700000000E+01 0.  1.
         25    2    1    2    0    0  0.00000000000E+00  0.00000000000E+00 -0.20651727889E+03  0.24140110998E+03  0.12500043767E+03 0.  0.
    9000005    1    3    3    0    0  0.27466099971E+02  0.26992361214E+02 -0.82108599423E+01  0.39387719310E+02  0.10000000000E+01 0.  0.
    9000005    1    3    3    0    0 -0.27466099971E+02 -0.26992361214E+02 -0.19830641895E+03  0.20201339067E+03  0.10000000000E+01 0.  0.
<mgrwt>
<rscale>  0 0.12500044E+03</rscale>
<asrwt>0</asrwt>
<pdfrwt beam="1">  1        4 0.26833718E-02 0.12500044E+03</pdfrwt>
<pdfrwt beam="2">  1       -4 0.34455259E-01 0.12500044E+03</pdfrwt>
<totfact> 0.83588324E+03</totfact>
</mgrwt>
</event>
<event>
 5    1  0.3316199E-002  0.1249988E+03  0.7818608E-02  0.1235071E+00
          4   -1    0    0  501    0  0.00000000000E+00  0.00000000000E+00  0.15767891143E+03  0.15768402586E+03  0.12700000000E+01 0. -1.
         -4   -1    0    0    0  501 -0.00000000000E+00 -0.00000000000E+00 -0.24751168953E+02  0.24783729835E+02  0.12700000000E+01 0. -1.
         25    2    1    2    0    0  0.00000000000E+00  0.00000000000E+00  0.13292774248E+03  0.18246775569E+03  0.12499878858E+03 0.  0.
    9000005    1    3    3    0    0 -0.89605348055E+01  0.61777258520E+02  0.70708081280E+02  0.94325784453E+02  0.10000000000E+01 0.  0.
    9000005    1    3    3    0    0  0.89605348055E+01 -0.61777258520E+02  0.62219661200E+02  0.88141971240E+02  0.10000000000E+01 0.  0.
<mgrwt>
<rscale>  0 0.12499879E+03</rscale>
<asrwt>0</asrwt>
<pdfrwt beam="1">  1        4 0.24261192E-01 0.12499879E+03</pdfrwt>
<pdfrwt beam="2">  1       -4 0.38107702E-02 0.12499879E+03</pdfrwt>
<totfact> 0.93177206E+03</totfact>
</mgrwt>
</event>
<event>
 5    1  0.3316199E-002  0.1249958E+03  0.7818608E-02  0.1235076E+00
          4   -1    0    0  501    0  0.00000000000E+00  0.00000000000E+00  0.65474118837E+02  0.65486434759E+02  0.12700000000E+01 0. -1.
         -4   -1    0    0    0  501 -0.00000000000E+00 -0.00000000000E+00 -0.59632275420E+02  0.59645797604E+02  0.12700000000E+01 0. -1.
         25    2    1    2    0    0  0.00000000000E+00  0.00000000000E+00  0.58418434167E+01  0.12513223236E+03  0.12499579370E+03 0.  0.
    9000005    1    3    3    0    0 -0.53234546440E+02 -0.61376583106E+01  0.35102540116E+02  0.64068526648E+02  0.10000000000E+01 0.  0.
    9000005    1    3    3    0    0  0.53234546440E+02  0.61376583106E+01 -0.29260696700E+02  0.61063705715E+02  0.10000000000E+01 0.  0.
<mgrwt>
<rscale>  0 0.12499579E+03</rscale>
<asrwt>0</asrwt>
<pdfrwt beam="1">  1        4 0.10074929E-01 0.12499579E+03</pdfrwt>
<pdfrwt beam="2">  1       -4 0.91761837E-02 0.12499579E+03</pdfrwt>
<totfact> 0.10450985E+04</totfact>
</mgrwt>
</event>
<event>
 5    1  0.3316199E-002  0.1250019E+03  0.7818608E-02  0.1235066E+00
         -4   -1    0    0    0  501 -0.00000000000E+00  0.00000000000E+00  0.19501013713E+03  0.19501427251E+03  0.12700000000E+01 0. -1.
          4   -1    0    0  501    0  0.00000000000E+00 -0.00000000000E+00 -0.20007134943E+02  0.20047402540E+02  0.12700000000E+01 0. -1.
         25    2    1    2    0    0  0.00000000000E+00  0.00000000000E+00  0.17500300219E+03  0.21506167505E+03  0.12500189319E+03 0.  0.
    9000005    1    3    3    0    0  0.31925240037E+02 -0.16798561365E+02  0.17529517636E+03  0.17897153816E+03  0.10000000000E+01 0.  0.
    9000005    1    3    3    0    0 -0.31925240037E+02  0.16798561365E+02 -0.29217417253E+00  0.36090136895E+02  0.10000000000E+01 0.  0.
<mgrwt>
<rscale>  0 0.12500189E+03</rscale>
<asrwt>0</asrwt>
<pdfrwt beam="2">  1        4 0.30814363E-02 0.12500189E+03</pdfrwt>
<pdfrwt beam="1">  1       -4 0.30004976E-01 0.12500189E+03</pdfrwt>
<totfact> 0.87652148E+03</totfact>
</mgrwt>
</event>
<event>
 5    1  0.3316199E-002  0.1250018E+03  0.7818608E-02  0.1235066E+00
         -4   -1    0    0    0  501 -0.00000000000E+00  0.00000000000E+00  0.58904212172E+02  0.58917901453E+02  0.12700000000E+01 0.  1.
          4   -1    0    0  501    0  0.00000000000E+00 -0.00000000000E+00 -0.66289773969E+02  0.66301938379E+02  0.12700000000E+01 0.  1.
         25    2    1    2    0    0  0.00000000000E+00  0.00000000000E+00 -0.73855617963E+01  0.12521983983E+03  0.12500184704E+03 0.  0.
    9000005    1    3    3    0    0  0.26986766714E+02 -0.14059086579E+02  0.50986490637E+02  0.59384894717E+02  0.10000000000E+01 0.  0.
    9000005    1    3    3    0    0 -0.26986766714E+02  0.14059086579E+02 -0.58372052433E+02  0.65834945115E+02  0.10000000000E+01 0.  0.
<mgrwt>
<rscale>  0 0.12500185E+03</rscale>
<asrwt>0</asrwt>
<pdfrwt beam="2">  1        4 0.10200415E-01 0.12500185E+03</pdfrwt>
<pdfrwt beam="1">  1       -4 0.90641753E-02 0.12500185E+03</pdfrwt>
<totfact> 0.10447653E+04</totfact>
</mgrwt>
</event>
<event>
 5    1  0.3316199E-002  0.1249993E+03  0.7818608E-02  0.1235070E+00
         -4   -1    0    0    0  501 -0.00000000000E+00  0.00000000000E+00  0.72421068397E+02  0.72432203113E+02  0.12700000000E+01 0.  1.
          4   -1    0    0  501    0  0.00000000000E+00 -0.00000000000E+00 -0.53914675214E+02  0.53929631033E+02  0.12700000000E+01 0.  1.
         25    2    1    2    0    0  0.00000000000E+00  0.00000000000E+00  0.18506393183E+02  0.12636183415E+03  0.12499930616E+03 0.  0.
    9000005    1    3    3    0    0  0.42195689549E+02  0.42099582291E+01  0.55655685325E+02  0.69976819546E+02  0.10000000000E+01 0.  0.
    9000005    1    3    3    0    0 -0.42195689549E+02 -0.42099582291E+01 -0.37149292142E+02  0.56385014600E+02  0.10000000000E+01 0.  0.
<mgrwt>
<rscale>  0 0.12499931E+03</rscale>
<asrwt>0</asrwt>
<pdfrwt beam="2">  1        4 0.82965724E-02 0.12499931E+03</pdfrwt>
<pdfrwt beam="1">  1       -4 0.11143710E-01 0.12499931E+03</pdfrwt>
<totfact> 0.10423206E+04</totfact>
</mgrwt>
</event>
<event>
 5    1  0.3316199E-002  0.1250004E+03  0.7818608E-02  0.1235069E+00
          4   -1    0    0  501    0  0.00000000000E+00  0.00000000000E+00  0.55321597133E+01  0.56760629924E+01  0.12700000000E+01 0.  1.
         -4   -1    0    0    0  501 -0.00000000000E+00 -0.00000000000E+00 -0.69689319783E+03  0.69689435504E+03  0.12700000000E+01 0.  1.
         25    2    1    2    0    0  0.00000000000E+00  0.00000000000E+00 -0.69136103812E+03  0.70257041803E+03  0.12500042905E+03 0.  0.
    9000005    1    3    3    0    0  0.22397452202E+01 -0.47149209922E+02 -0.11549797631E+03  0.12477518578E+03  0.10000000000E+01 0.  0.
    9000005    1    3    3    0    0 -0.22397452202E+01  0.47149209922E+02 -0.57586306181E+03  0.57779523225E+03  0.10000000000E+01 0.  0.
<mgrwt>
<rscale>  0 0.12500043E+03</rscale>
<asrwt>0</asrwt>
<pdfrwt beam="1">  1        4 0.86226054E-03 0.12500043E+03</pdfrwt>
<pdfrwt beam="2">  1       -4 0.10722543E+00 0.12500043E+03</pdfrwt>
<totfact> 0.42950969E+03</totfact>
</mgrwt>
</event>
<event>
 5    1  0.3316199E-002  0.1250004E+03  0.7818608E-02  0.1235069E+00
         -4   -1    0    0    0  501 -0.00000000000E+00  0.00000000000E+00  0.10940446657E+03  0.10941183760E+03  0.12700000000E+01 0. -1.
          4   -1    0    0  501    0  0.00000000000E+00 -0.00000000000E+00 -0.35685043105E+02  0.35707635058E+02  0.12700000000E+01 0. -1.
         25    2    1    2    0    0  0.00000000000E+00  0.00000000000E+00  0.73719423469E+02  0.14511947265E+03  0.12500043179E+03 0.  0.
    9000005    1    3    3    0    0 -0.12441745385E+02 -0.55885323596E+02  0.77823178610E+01  0.57788674435E+02  0.10000000000E+01 0.  0.
    9000005    1    3    3    0    0  0.12441745385E+02  0.55885323596E+02  0.65937105608E+02  0.87330798219E+02  0.10000000000E+01 0.  0.
<mgrwt>
<rscale>  0 0.12500043E+03</rscale>
<asrwt>0</asrwt>
<pdfrwt beam="2">  1        4 0.54923115E-02 0.12500043E+03</pdfrwt>
<pdfrwt beam="1">  1       -4 0.16833761E-01 0.12500043E+03</pdfrwt>
<totfact> 0.10028464E+04</totfact>
</mgrwt>
</event>
<event>
 5    1  0.3316199E-002  0.1250007E+03  0.7818608E-02  0.1235068E+00
         -4   -1    0    0    0  501 -0.00000000000E+00  0.00000000000E+00  0.13474887701E+03  0.13475486171E+03  0.12700000000E+01 0.  1.
          4   -1    0    0  501    0  0.00000000000E+00 -0.00000000000E+00 -0.28968879924E+02  0.28996705055E+02  0.12700000000E+01 0.  1.
         25    2    1    2    0    0  0.00000000000E+00  0.00000000000E+00  0.10577999708E+03  0.16375156677E+03  0.12500067134E+03 0.  0.
    9000005    1    3    3    0    0 -0.49776271955E+01  0.34162032142E+02 -0.15349478581E+02  0.37794545972E+02  0.10000000000E+01 0.  0.
    9000005    1    3    3    0    0  0.49776271955E+01 -0.34162032142E+02  0.12112947566E+03  0.12595702079E+03  0.10000000000E+01 0.  0.
<mgrwt>
<rscale>  0 0.12500067E+03</rscale>
<asrwt>0</asrwt>
<pdfrwt beam="2">  1        4 0.44593516E-02 0.12500067E+03</pdfrwt>
<pdfrwt beam="1">  1       -4 0.20733197E-01 0.12500067E+03</pdfrwt>
<totfact> 0.96622892E+03</totfact>
</mgrwt>
</event>
<event>
 5    1  0.3316199E-002  0.1249914E+03  0.7818608E-02  0.1235083E+00
          4   -1    0    0  501    0  0.00000000000E+00  0.00000000000E+00  0.62595599246E+02  0.62608481413E+02  0.12700000000E+01 0.  1.
         -4   -1    0    0    0  501 -0.00000000000E+00 -0.00000000000E+00 -0.62370239103E+02  0.62383167808E+02  0.12700000000E+01 0.  1.
         25    2    1    2    0    0  0.00000000000E+00  0.00000000000E+00  0.22536014299E+00  0.12499164922E+03  0.12499144606E+03 0.  0.
    9000005    1    3    3    0    0  0.31139752341E+02 -0.19069949426E+02 -0.50596062854E+02  0.62404396666E+02  0.10000000000E+01 0.  0.
    9000005    1    3    3    0    0 -0.31139752341E+02  0.19069949426E+02  0.50821422997E+02  0.62587252555E+02  0.10000000000E+01 0.  0.
<mgrwt>
<rscale>  0 0.12499145E+03</rscale>
<asrwt>0</asrwt>
<pdfrwt beam="1">  1        4 0.96320776E-02 0.12499145E+03</pdfrwt>
<pdfrwt beam="2">  1       -4 0.95974069E-02 0.12499145E+03</pdfrwt>
<totfact> 0.10455065E+04</totfact>
</mgrwt>
</event>
<event>
 5    1  0.3316199E-002  0.1249997E+03  0.7818608E-02  0.1235070E+00
          4   -1    0    0  501    0  0.00000000000E+00  0.00000000000E+00  0.25829497358E+01  0.28782858332E+01  0.12700000000E+01 0.  1.
         -4   -1    0    0    0  501 -0.00000000000E+00 -0.00000000000E+00 -0.14302352328E+04  0.14302357967E+04  0.12700000000E+01 0.  1.
         25    2    1    2    0    0  0.00000000000E+00  0.00000000000E+00 -0.14276522831E+04  0.14331140825E+04  0.12499972839E+03 0.  0.
    9000005    1    3    3    0    0 -0.26427699420E+02 -0.20204770725E+02 -0.10731285093E+03  0.11235525814E+03  0.10000000000E+01 0.  0.
    9000005    1    3    3    0    0  0.26427699420E+02  0.20204770725E+02 -0.13203394321E+04  0.13207588244E+04  0.10000000000E+01 0.  0.
<mgrwt>
<rscale>  0 0.12499973E+03</rscale>
<asrwt>0</asrwt>
<pdfrwt beam="1">  1        4 0.42013956E-03 0.12499973E+03</pdfrwt>
<pdfrwt beam="2">  1       -4 0.22005835E+00 0.12499973E+03</pdfrwt>
<totfact> 0.19281476E+03</totfact>
</mgrwt>
</event>
<event>
 5    1  0.3316199E-002  0.1249797E+03  0.7818608E-02  0.1235101E+00
          4   -1    0    0  501    0  0.00000000000E+00  0.00000000000E+00  0.14360461430E+03  0.14361022995E+03  0.12700000000E+01 0.  1.
         -4   -1    0    0    0  501 -0.00000000000E+00 -0.00000000000E+00 -0.27171611364E+02  0.27201275046E+02  0.12700000000E+01 0.  1.
         25    2    1    2    0    0  0.00000000000E+00  0.00000000000E+00  0.11643300293E+03  0.17081150500E+03  0.12497970262E+03 0.  0.
    9000005    1    3    3    0    0  0.42456922582E+02 -0.10230050746E+02 -0.28549297775E+01  0.43776647170E+02  0.10000000000E+01 0.  0.
    9000005    1    3    3    0    0 -0.42456922582E+02  0.10230050746E+02  0.11928793271E+03  0.12703485783E+03  0.10000000000E+01 0.  0.
<mgrwt>
<rscale>  0 0.12497970E+03</rscale>
<asrwt>0</asrwt>
<pdfrwt beam="1">  1        4 0.22095731E-01 0.12497970E+03</pdfrwt>
<pdfrwt beam="2">  1       -4 0.41829617E-02 0.12497970E+03</pdfrwt>
<totfact> 0.95341023E+03</totfact>
</mgrwt>
</event>
<event>
 5    1  0.3316199E-002  0.1249998E+03  0.7818608E-02  0.1235070E+00
         -4   -1    0    0    0  501 -0.00000000000E+00  0.00000000000E+00  0.41711287197E+02  0.41730616814E+02  0.12700000000E+01 0.  1.
          4   -1    0    0  501    0  0.00000000000E+00 -0.00000000000E+00 -0.93604098752E+02  0.93612713897E+02  0.12700000000E+01 0.  1.
         25    2    1    2    0    0  0.00000000000E+00  0.00000000000E+00 -0.51892811555E+02  0.13534333071E+03  0.12499981311E+03 0.  0.
    9000005    1    3    3    0    0  0.38612379797E+02  0.21602311366E+02  0.21837798407E+02  0.49350432310E+02  0.10000000000E+01 0.  0.
    9000005    1    3    3    0    0 -0.38612379797E+02 -0.21602311366E+02 -0.73730609962E+02  0.85992898401E+02  0.10000000000E+01 0.  0.
<mgrwt>
<rscale>  0 0.12499981E+03</rscale>
<asrwt>0</asrwt>
<pdfrwt beam="2">  1        4 0.14402780E-01 0.12499981E+03</pdfrwt>
<pdfrwt beam="1">  1       -4 0.64192707E-02 0.12499981E+03</pdfrwt>
<totfact> 0.10230883E+04</totfact>
</mgrwt>
</event>
<event>
 5    1  0.3316199E-002  0.1249989E+03  0.7818608E-02  0.1235071E+00
         -4   -1    0    0    0  501 -0.00000000000E+00  0.00000000000E+00  0.61956475259E+02  0.61969490288E+02  0.12700000000E+01 0. -1.
          4   -1    0    0  501    0  0.00000000000E+00 -0.00000000000E+00 -0.63021174542E+02  0.63033969735E+02  0.12700000000E+01 0. -1.
         25    2    1    2    0    0  0.00000000000E+00  0.00000000000E+00 -0.10646992821E+01  0.12500346002E+03  0.12499892573E+03 0.  0.
    9000005    1    3    3    0    0 -0.32309191431E+02 -0.18347328624E+02  0.49715612572E+02  0.62073750104E+02  0.10000000000E+01 0.  0.
    9000005    1    3    3    0    0  0.32309191431E+02  0.18347328624E+02 -0.50780311854E+02  0.62929709920E+02  0.10000000000E+01 0.  0.
<mgrwt>
<rscale>  0 0.12499893E+03</rscale>
<asrwt>0</asrwt>
<pdfrwt beam="2">  1        4 0.96975507E-02 0.12499893E+03</pdfrwt>
<pdfrwt beam="1">  1       -4 0.95337508E-02 0.12499893E+03</pdfrwt>
<totfact> 0.10453041E+04</totfact>
</mgrwt>
</event>
<event>
 5    1  0.3316199E-002  0.1249964E+03  0.7818608E-02  0.1235075E+00
         -4   -1    0    0    0  501 -0.00000000000E+00  0.00000000000E+00  0.23909649273E+02  0.23943354576E+02  0.12700000000E+01 0.  1.
          4   -1    0    0  501    0  0.00000000000E+00 -0.00000000000E+00 -0.16321478016E+03  0.16321972112E+03  0.12700000000E+01 0.  1.
         25    2    1    2    0    0  0.00000000000E+00  0.00000000000E+00 -0.13930513088E+03  0.18716307569E+03  0.12499638960E+03 0.  0.
    9000005    1    3    3    0    0  0.42713996193E+02 -0.18257748459E+02 -0.70642579509E+01  0.46997176404E+02  0.10000000000E+01 0.  0.
    9000005    1    3    3    0    0 -0.42713996193E+02  0.18257748459E+02 -0.13224087293E+03  0.14016589929E+03  0.10000000000E+01 0.  0.
<mgrwt>
<rscale>  0 0.12499639E+03</rscale>
<asrwt>0</asrwt>
<pdfrwt beam="2">  1        4 0.25112938E-01 0.12499639E+03</pdfrwt>
<pdfrwt beam="1">  1       -4 0.36813805E-02 0.12499639E+03</pdfrwt>
<totfact> 0.92350757E+03</totfact>
</mgrwt>
</event>
<event>
 5    1  0.3316199E-002  0.1250018E+03  0.7818608E-02  0.1235067E+00
         -4   -1    0    0    0  501 -0.00000000000E+00  0.00000000000E+00  0.89155393766E+03  0.89155484220E+03  0.12700000000E+01 0. -1.
          4   -1    0    0  501    0  0.00000000000E+00 -0.00000000000E+00 -0.42885637718E+01  0.44726590776E+01  0.12700000000E+01 0. -1.
         25    2    1    2    0    0  0.00000000000E+00  0.00000000000E+00  0.88726537389E+03  0.89602750128E+03  0.12500175739E+03 0.  0.
    9000005    1    3    3    0    0 -0.57588120523E+02 -0.28944569386E+01  0.27091368478E+03  0.27698374340E+03  0.10000000000E+01 0.  0.
    9000005    1    3    3    0    0  0.57588120523E+02  0.28944569386E+01  0.61635168911E+03  0.61904375788E+03  0.10000000000E+01 0.  0.
<mgrwt>
<rscale>  0 0.12500176E+03</rscale>
<asrwt>0</asrwt>
<pdfrwt beam="2">  1        4 0.67400907E-03 0.12500176E+03</pdfrwt>
<pdfrwt beam="1">  1       -4 0.13717652E+00 0.12500176E+03</pdfrwt>
<totfact> 0.34311131E+03</totfact>
</mgrwt>
</event>
<event>
 4    1  0.3316199E-002  0.1250621E+03  0.7818608E-02  0.1234972E+00
         -4   -1    0    0    0  501 -0.00000000000E+00  0.00000000000E+00  0.15347119115E+02  0.15399576784E+02  0.12700000000E+01 0. -1.
          4   -1    0    0  501    0  0.00000000000E+00 -0.00000000000E+00 -0.25429063583E+03  0.25429380718E+03  0.12700000000E+01 0. -1.
    9000005    1    1    2    0    0 -0.23520551216E+02 -0.39567642004E+02 -0.21071683138E+03  0.21568819544E+03  0.10000000000E+01 0.  0.
    9000005    1    1    2    0    0  0.23520551216E+02  0.39567642004E+02 -0.28226685337E+02  0.54005188532E+02  0.10000000000E+01 0.  0.
<mgrwt>
<rscale>  0 0.12506205E+03</rscale>
<asrwt>0</asrwt>
<pdfrwt beam="2">  1        4 0.39125912E-01 0.12506205E+03</pdfrwt>
<pdfrwt beam="1">  1       -4 0.23653746E-02 0.12506205E+03</pdfrwt>
<totfact> 0.79454963E+03</totfact>
</mgrwt>
</event>
<event>
 5    1  0.3316199E-002  0.1249893E+03  0.7818608E-02  0.1235086E+00
          4   -1    0    0  501    0  0.00000000000E+00  0.00000000000E+00  0.28305889647E+02  0.28334365860E+02  0.12700000000E+01 0.  1.
         -4   -1    0    0    0  501 -0.00000000000E+00 -0.00000000000E+00 -0.13787693457E+03  0.13788278351E+03  0.12700000000E+01 0.  1.
         25    2    1    2    0    0  0.00000000000E+00  0.00000000000E+00 -0.10957104493E+03  0.16621714937E+03  0.12498930697E+03 0.  0.
    9000005    1    3    3    0    0  0.61924093786E+01  0.60461050829E+02 -0.74088853665E+02  0.95833411912E+02  0.10000000000E+01 0.  0.
    9000005    1    3    3    0    0 -0.61924093786E+01 -0.60461050829E+02 -0.35482191261E+02  0.70383737454E+02  0.10000000000E+01 0.  0.
<mgrwt>
<rscale>  0 0.12498931E+03</rscale>
<asrwt>0</asrwt>
<pdfrwt beam="1">  1        4 0.43573927E-02 0.12498931E+03</pdfrwt>
<pdfrwt beam="2">  1       -4 0.21214476E-01 0.12498931E+03</pdfrwt>
<totfact> 0.96180478E+03</totfact>
</mgrwt>
</event>
<event>
 5    1  0.3316199E-002  0.1250046E+03  0.7818608E-02  0.1235062E+00
          4   -1    0    0  501    0  0.00000000000E+00  0.00000000000E+00  0.42649582639E+02  0.42668487192E+02  0.12700000000E+01 0. -1.
         -4   -1    0    0    0  501 -0.00000000000E+00 -0.00000000000E+00 -0.91552586755E+02  0.91561394930E+02  0.12700000000E+01 0. -1.
         25    2    1    2    0    0  0.00000000000E+00  0.00000000000E+00 -0.48903004116E+02  0.13422988212E+03  0.12500462969E+03 0.  0.
    9000005    1    3    3    0    0 -0.48317695071E+02 -0.39632046238E+02 -0.23924776702E+02  0.66923043014E+02  0.10000000000E+01 0.  0.
    9000005    1    3    3    0    0  0.48317695071E+02  0.39632046238E+02 -0.24978227415E+02  0.67306839108E+02  0.10000000000E+01 0.  0.
<mgrwt>
<rscale>  0 0.12500463E+03</rscale>
<asrwt>0</asrwt>
<pdfrwt beam="1">  1        4 0.65636060E-02 0.12500463E+03</pdfrwt>
<pdfrwt beam="2">  1       -4 0.14087145E-01 0.12500463E+03</pdfrwt>
<totfact> 0.10253258E+04</totfact>
</mgrwt>
</event>
<event>
 5    1  0.3316199E-002  0.1250045E+03  0.7818608E-02  0.1235062E+00
         -4   -1    0    0    0  501 -0.00000000000E+00  0.00000000000E+00  0.50881262561E+01  0.52442281413E+01  0.12700000000E+01 0.  1.
          4   -1    0    0  501    0  0.00000000000E+00 -0.00000000000E+00 -0.75601773982E+03  0.75601880652E+03  0.12700000000E+01 0.  1.
         25    2    1    2    0    0  0.00000000000E+00  0.00000000000E+00 -0.75092961356E+03  0.76126303467E+03  0.12500449362E+03 0.  0.
    9000005    1    3    3    0    0  0.56795134162E+02 -0.16248636571E+02 -0.25128109847E+03  0.25813348466E+03  0.10000000000E+01 0.  0.
    9000005    1    3    3    0    0 -0.56795134162E+02  0.16248636571E+02 -0.49964851509E+03  0.50312955001E+03  0.10000000000E+01 0.  0.
<mgrwt>
<rscale>  0 0.12500449E+03</rscale>
<asrwt>0</asrwt>
<pdfrwt beam="2">  1        4 0.11632242E+00 0.12500449E+03</pdfrwt>
<pdfrwt beam="1">  1       -4 0.79487915E-03 0.12500449E+03</pdfrwt>
<totfact> 0.40037228E+03</totfact>
</mgrwt>
</event>
<event>
 5    1  0.3316199E-002  0.1249640E+03  0.7818608E-02  0.1235126E+00
         -4   -1    0    0    0  501 -0.00000000000E+00  0.00000000000E+00  0.86612290399E+01  0.87538442117E+01  0.12700000000E+01 0. -1.
          4   -1    0    0  501    0  0.00000000000E+00 -0.00000000000E+00 -0.44825361769E+03  0.44825541678E+03  0.12700000000E+01 0. -1.
         25    2    1    2    0    0  0.00000000000E+00  0.00000000000E+00 -0.43959238865E+03  0.45700926099E+03  0.12496398070E+03 0.  0.
    9000005    1    3    3    0    0  0.50196325992E+01 -0.61758689424E+01 -0.44641011980E+03  0.44648217560E+03  0.10000000000E+01 0.  0.
    9000005    1    3    3    0    0 -0.50196325992E+01  0.61758689424E+01  0.68177311550E+01  0.10527085386E+02  0.10000000000E+01 0.  0.
<mgrwt>
<rscale>  0 0.12496398E+03</rscale>
<asrwt>0</asrwt>
<pdfrwt beam="2">  1        4 0.68969340E-01 0.12496398E+03</pdfrwt>
<pdfrwt beam="1">  1       -4 0.13397598E-02 0.12496398E+03</pdfrwt>
<totfact> 0.59408474E+03</totfact>
</mgrwt>
</event>
<event>
 5    1  0.3316199E-002  0.1249989E+03  0.7818608E-02  0.1235071E+00
          4   -1    0    0  501    0  0.00000000000E+00  0.00000000000E+00  0.94172001997E+02  0.94180565193E+02  0.12700000000E+01 0. -1.
         -4   -1    0    0    0  501 -0.00000000000E+00 -0.00000000000E+00 -0.41459050291E+02  0.41478497454E+02  0.12700000000E+01 0. -1.
         25    2    1    2    0    0  0.00000000000E+00  0.00000000000E+00  0.52712951706E+02  0.13565906265E+03  0.12499890400E+03 0.  0.
    9000005    1    3    3    0    0  0.55270871157E+02  0.28758379542E+02  0.21121420545E+02  0.65795349366E+02  0.10000000000E+01 0.  0.
    9000005    1    3    3    0    0 -0.55270871157E+02 -0.28758379542E+02  0.31591531161E+02  0.69863713281E+02  0.10000000000E+01 0.  0.
<mgrwt>
<rscale>  0 0.12499890E+03</rscale>
<asrwt>0</asrwt>
<pdfrwt beam="1">  1        4 0.14490155E-01 0.12499890E+03</pdfrwt>
<pdfrwt beam="2">  1       -4 0.63804701E-02 0.12499890E+03</pdfrwt>
<totfact> 0.10224451E+04</totfact>
</mgrwt>
</event>
<event>
 5    1  0.3316199E-002  0.1249978E+03  0.7818608E-02  0.1235073E+00
         -4   -1    0    0    0  501 -0.00000000000E+00  0.00000000000E+00  0.15528039113E+03  0.15528558455E+03  0.12700000000E+01 0.  1.
          4   -1    0    0  501    0  0.00000000000E+00 -0.00000000000E+00 -0.25133568531E+02  0.25165634645E+02  0.12700000000E+01 0.  1.
         25    2    1    2    0    0  0.00000000000E+00  0.00000000000E+00  0.13014682260E+03  0.18045121919E+03  0.12499778829E+03 0.  0.
    9000005    1    3    3    0    0 -0.28383596470E+02 -0.23768326306E+02  0.13775223902E+03  0.14264375640E+03  0.10000000000E+01 0.  0.
    9000005    1    3    3    0    0  0.28383596470E+02  0.23768326306E+02 -0.76054164265E+01  0.37807462794E+02  0.10000000000E+01 0.  0.
<mgrwt>
<rscale>  0 0.12499779E+03</rscale>
<asrwt>0</asrwt>
<pdfrwt beam="2">  1        4 0.38695689E-02 0.12499779E+03</pdfrwt>
<pdfrwt beam="1">  1       -4 0.23892157E-01 0.12499779E+03</pdfrwt>
<totfact> 0.93540483E+03</totfact>
</mgrwt>
</event>
<event>
 5    1  0.3316199E-002  0.1249999E+03  0.7818608E-02  0.1235069E+00
          4   -1    0    0  501    0  0.00000000000E+00  0.00000000000E+00  0.20668814194E+02  0.20707795156E+02  0.12700000000E+01 0. -1.
         -4   -1    0    0    0  501 -0.00000000000E+00 -0.00000000000E+00 -0.18877303064E+03  0.18877730265E+03  0.12700000000E+01 0. -1.
         25    2    1    2    0    0  0.00000000000E+00  0.00000000000E+00 -0.16810421644E+03  0.20948509781E+03  0.12499991447E+03 0.  0.
    9000005    1    3    3    0    0  0.34263758785E+02  0.20826087485E+02 -0.37230897406E+01  0.40281416103E+02  0.10000000000E+01 0.  0.
    9000005    1    3    3    0    0 -0.34263758785E+02 -0.20826087485E+02 -0.16438112670E+03  0.16920368170E+03  0.10000000000E+01 0.  0.
<mgrwt>
<rscale>  0 0.12499991E+03</rscale>
<asrwt>0</asrwt>
<pdfrwt beam="1">  1        4 0.31831448E-02 0.12499991E+03</pdfrwt>
<pdfrwt beam="2">  1       -4 0.29045331E-01 0.12499991E+03</pdfrwt>
<totfact> 0.88560210E+03</totfact>
</mgrwt>
</event>
<event>
 5    1  0.3316199E-002  0.1249941E+03  0.7818608E-02  0.1235078E+00
          4   -1    0    0  501    0  0.00000000000E+00  0.00000000000E+00  0.19156986328E+03  0.19157407293E+03  0.12700000000E+01 0.  1.
         -4   -1    0    0    0  501 -0.00000000000E+00 -0.00000000000E+00 -0.20364597952E+02  0.20404160109E+02  0.12700000000E+01 0.  1.
         25    2    1    2    0    0  0.00000000000E+00  0.00000000000E+00  0.17120526533E+03  0.21197823304E+03  0.12499411348E+03 0.  0.
    9000005    1    3    3    0    0  0.48279092387E+02 -0.19191954761E+02  0.14448940812E+03  0.15354931112E+03  0.10000000000E+01 0.  0.
    9000005    1    3    3    0    0 -0.48279092387E+02  0.19191954761E+02  0.26715857218E+02  0.58428921914E+02  0.10000000000E+01 0.  0.
<mgrwt>
<rscale>  0 0.12499411E+03</rscale>
<asrwt>0</asrwt>
<pdfrwt beam="1">  1        4 0.29475653E-01 0.12499411E+03</pdfrwt>
<pdfrwt beam="2">  1       -4 0.31363822E-02 0.12499411E+03</pdfrwt>
<totfact> 0.88165425E+03</totfact>
</mgrwt>
</event>
<event>
 5    1  0.3316199E-002  0.1250020E+03  0.7818608E-02  0.1235066E+00
          4   -1    0    0  501    0  0.00000000000E+00  0.00000000000E+00  0.53231143801E+02  0.53246291612E+02  0.12700000000E+01 0. -1.
         -4   -1    0    0    0  501 -0.00000000000E+00 -0.00000000000E+00 -0.73354032579E+02  0.73365025697E+02  0.12700000000E+01 0. -1.
         25    2    1    2    0    0  0.00000000000E+00  0.00000000000E+00 -0.20122888778E+02  0.12661131731E+03  0.12500198006E+03 0.  0.
    9000005    1    3    3    0    0 -0.58618920654E+02  0.21371211757E+02 -0.64850931366E+01  0.62737253554E+02  0.10000000000E+01 0.  0.
    9000005    1    3    3    0    0  0.58618920654E+02 -0.21371211757E+02 -0.13637795641E+02  0.63874063755E+02  0.10000000000E+01 0.  0.
<mgrwt>
<rscale>  0 0.12500198E+03</rscale>
<asrwt>0</asrwt>
<pdfrwt beam="1">  1        4 0.81914176E-02 0.12500198E+03</pdfrwt>
<pdfrwt beam="2">  1       -4 0.11287247E-01 0.12500198E+03</pdfrwt>
<totfact> 0.10417136E+04</totfact>
</mgrwt>
</event>
<event>
 5    1  0.3316199E-002  0.1249712E+03  0.7818608E-02  0.1235114E+00
         -4   -1    0    0    0  501 -0.00000000000E+00  0.00000000000E+00  0.10200077916E+03  0.10200868517E+03  0.12700000000E+01 0.  1.
          4   -1    0    0  501    0  0.00000000000E+00 -0.00000000000E+00 -0.38258707257E+02  0.38279780315E+02  0.12700000000E+01 0.  1.
         25    2    1    2    0    0  0.00000000000E+00  0.00000000000E+00  0.63742071908E+02  0.14028846549E+03  0.12497120395E+03 0.  0.
    9000005    1    3    3    0    0 -0.33272987912E+02 -0.52652800135E+02  0.37375202869E+02  0.72645129749E+02  0.10000000000E+01 0.  0.
    9000005    1    3    3    0    0  0.33272987912E+02  0.52652800135E+02  0.26366869038E+02  0.67643335737E+02  0.10000000000E+01 0.  0.
<mgrwt>
<rscale>  0 0.12497120E+03</rscale>
<asrwt>0</asrwt>
<pdfrwt beam="2">  1        4 0.58881842E-02 0.12497120E+03</pdfrwt>
<pdfrwt beam="1">  1       -4 0.15694657E-01 0.12497120E+03</pdfrwt>
<totfact> 0.10134184E+04</totfact>
</mgrwt>
</event>
<event>
 5    1  0.3316199E-002  0.1250032E+03  0.7818608E-02  0.1235064E+00
          4   -1    0    0  501    0  0.00000000000E+00  0.00000000000E+00  0.18527663865E+03  0.18528099128E+03  0.12700000000E+01 0.  1.
         -4   -1    0    0    0  501 -0.00000000000E+00 -0.00000000000E+00 -0.21060688775E+02  0.21098945748E+02  0.12700000000E+01 0.  1.
         25    2    1    2    0    0  0.00000000000E+00  0.00000000000E+00  0.16421594987E+03  0.20637993703E+03  0.12500320081E+03 0.  0.
    9000005    1    3    3    0    0  0.22656788991E+02  0.24548255798E+01 -0.13963804351E+02  0.26745917220E+02  0.10000000000E+01 0.  0.
    9000005    1    3    3    0    0 -0.22656788991E+02 -0.24548255798E+01  0.17817975422E+03  0.17963401981E+03  0.10000000000E+01 0.  0.
<mgrwt>
<rscale>  0 0.12500320E+03</rscale>
<asrwt>0</asrwt>
<pdfrwt beam="1">  1        4 0.28507377E-01 0.12500320E+03</pdfrwt>
<pdfrwt beam="2">  1       -4 0.32433835E-02 0.12500320E+03</pdfrwt>
<totfact> 0.89064141E+03</totfact>
</mgrwt>
</event>
<event>
 5    1  0.3316199E-002  0.1250014E+03  0.7818608E-02  0.1235067E+00
          4   -1    0    0  501    0  0.00000000000E+00  0.00000000000E+00  0.98537135953E+03  0.98537217796E+03  0.12700000000E+01 0.  1.
         -4   -1    0    0    0  501 -0.00000000000E+00 -0.00000000000E+00 -0.38617783039E+01  0.40652468152E+01  0.12700000000E+01 0.  1.
         25    2    1    2    0    0  0.00000000000E+00  0.00000000000E+00  0.98150958123E+03  0.98943742477E+03  0.12500143796E+03 0.  0.
    9000005    1    3    3    0    0 -0.14978581250E+02  0.60441243773E+02  0.53251787413E+03  0.53614717020E+03  0.10000000000E+01 0.  0.
    9000005    1    3    3    0    0  0.14978581250E+02 -0.60441243773E+02  0.44899170710E+03  0.45329025457E+03  0.10000000000E+01 0.  0.
<mgrwt>
<rscale>  0 0.12500144E+03</rscale>
<asrwt>0</asrwt>
<pdfrwt beam="1">  1        4 0.15161138E+00 0.12500144E+03</pdfrwt>
<pdfrwt beam="2">  1       -4 0.60983382E-03 0.12500144E+03</pdfrwt>
<totfact> 0.30954836E+03</totfact>
</mgrwt>
</event>
<event>
 5    1  0.3316199E-002  0.1250226E+03  0.7818608E-02  0.1235034E+00
          4   -1    0    0  501    0  0.00000000000E+00  0.00000000000E+00  0.23278220056E+03  0.23278566493E+03  0.12700000000E+01 0. -1.
         -4   -1    0    0    0  501 -0.00000000000E+00 -0.00000000000E+00 -0.16759154721E+02  0.16807205804E+02  0.12700000000E+01 0. -1.
         25    2    1    2    0    0  0.00000000000E+00  0.00000000000E+00  0.21602304584E+03  0.24959287073E+03  0.12502257711E+03 0.  0.
    9000005    1    3    3    0    0 -0.25750965302E+02 -0.56948026273E+02  0.10664099997E+03  0.12361024547E+03  0.10000000000E+01 0.  0.
    9000005    1    3    3    0    0  0.25750965302E+02  0.56948026273E+02  0.10938204587E+03  0.12598262527E+03  0.10000000000E+01 0.  0.
<mgrwt>
<rscale>  0 0.12502258E+03</rscale>
<asrwt>0</asrwt>
<pdfrwt beam="1">  1        4 0.35816609E-01 0.12502258E+03</pdfrwt>
<pdfrwt beam="2">  1       -4 0.25822942E-02 0.12502258E+03</pdfrwt>
<totfact> 0.82347681E+03</totfact>
</mgrwt>
</event>
<event>
 5    1  0.3316199E-002  0.1250005E+03  0.7818608E-02  0.1235069E+00
          4   -1    0    0  501    0  0.00000000000E+00  0.00000000000E+00  0.10369007936E+02  0.10446493459E+02  0.12700000000E+01 0.  1.
         -4   -1    0    0    0  501 -0.00000000000E+00 -0.00000000000E+00 -0.37524543335E+03  0.37524758247E+03  0.12700000000E+01 0.  1.
         25    2    1    2    0    0  0.00000000000E+00  0.00000000000E+00 -0.36487642541E+03  0.38569407593E+03  0.12500045754E+03 0.  0.
    9000005    1    3    3    0    0  0.50398180734E+02  0.36446639264E+02 -0.16368368922E+03  0.17510478078E+03  0.10000000000E+01 0.  0.
    9000005    1    3    3    0    0 -0.50398180734E+02 -0.36446639264E+02 -0.20119273619E+03  0.21058929515E+03  0.10000000000E+01 0.  0.
<mgrwt>
<rscale>  0 0.12500046E+03</rscale>
<asrwt>0</asrwt>
<pdfrwt beam="1">  1        4 0.16013580E-02 0.12500046E+03</pdfrwt>
<pdfrwt beam="2">  1       -4 0.57736182E-01 0.12500046E+03</pdfrwt>
<totfact> 0.65967699E+03</totfact>
</mgrwt>
</event>
<event>
 5    1  0.3316199E-002  0.1249972E+03  0.7818608E-02  0.1235074E+00
          4   -1    0    0  501    0  0.00000000000E+00  0.00000000000E+00  0.16367511500E+01  0.20716791081E+01  0.12700000000E+01 0. -1.
         -4   -1    0    0    0  501 -0.00000000000E+00 -0.00000000000E+00 -0.21061567207E+04  0.21061571036E+04  0.12700000000E+01 0. -1.
         25    2    1    2    0    0  0.00000000000E+00  0.00000000000E+00 -0.21045199696E+04  0.21082287828E+04  0.12499719201E+03 0.  0.
    9000005    1    3    3    0    0  0.33732486930E+02  0.47653302477E+02 -0.14280232992E+04  0.14292166599E+04  0.10000000000E+01 0.  0.
    9000005    1    3    3    0    0 -0.33732486930E+02 -0.47653302477E+02 -0.67649667039E+03  0.67901212284E+03  0.10000000000E+01 0.  0.
<mgrwt>
<rscale>  0 0.12499719E+03</rscale>
<asrwt>0</asrwt>
<pdfrwt beam="1">  1        4 0.28529501E-03 0.12499719E+03</pdfrwt>
<pdfrwt beam="2">  1       -4 0.32405568E+00 0.12499719E+03</pdfrwt>
<totfact> 0.85146493E+02</totfact>
</mgrwt>
</event>
<event>
 5    1  0.3316199E-002  0.1249977E+03  0.7818608E-02  0.1235073E+00
         -4   -1    0    0    0  501 -0.00000000000E+00  0.00000000000E+00  0.14504787483E+04  0.14504793043E+04  0.12700000000E+01 0.  1.
          4   -1    0    0  501    0  0.00000000000E+00 -0.00000000000E+00 -0.25426577057E+01  0.28421837042E+01  0.12700000000E+01 0.  1.
         25    2    1    2    0    0  0.00000000000E+00  0.00000000000E+00  0.14479360906E+04  0.14533214880E+04  0.12499770004E+03 0.  0.
    9000005    1    3    3    0    0  0.36061334110E+02  0.47127184298E+02  0.95172100277E+03  0.95356974492E+03  0.10000000000E+01 0.  0.
    9000005    1    3    3    0    0 -0.36061334110E+02 -0.47127184298E+02  0.49621508784E+03  0.49975174308E+03  0.10000000000E+01 0.  0.
<mgrwt>
<rscale>  0 0.12499770E+03</rscale>
<asrwt>0</asrwt>
<pdfrwt beam="2">  1        4 0.41426059E-03 0.12499770E+03</pdfrwt>
<pdfrwt beam="1">  1       -4 0.22317406E+00 0.12499770E+03</pdfrwt>
<totfact> 0.18865699E+03</totfact>
</mgrwt>
</event>
<event>
 5    1  0.3316199E-002  0.1249861E+03  0.7818608E-02  0.1235091E+00
         -4   -1    0    0    0  501 -0.00000000000E+00  0.00000000000E+00  0.11518373069E+02  0.11588175791E+02  0.12700000000E+01 0.  1.
          4   -1    0    0  501    0  0.00000000000E+00 -0.00000000000E+00 -0.33796123385E+03  0.33796362006E+03  0.12700000000E+01 0.  1.
         25    2    1    2    0    0  0.00000000000E+00  0.00000000000E+00 -0.32644286078E+03  0.34955179586E+03  0.12498606574E+03 0.  0.
    9000005    1    3    3    0    0  0.18985823249E+02  0.54999533217E+02 -0.99509515812E+02  0.11527599002E+03  0.10000000000E+01 0.  0.
    9000005    1    3    3    0    0 -0.18985823249E+02 -0.54999533217E+02 -0.22693334497E+03  0.23427580583E+03  0.10000000000E+01 0.  0.
<mgrwt>
<rscale>  0 0.12498607E+03</rscale>
<asrwt>0</asrwt>
<pdfrwt beam="2">  1        4 0.51999581E-01 0.12498607E+03</pdfrwt>
<pdfrwt beam="1">  1       -4 0.17776106E-02 0.12498607E+03</pdfrwt>
<totfact> 0.69795416E+03</totfact>
</mgrwt>
</event>
<event>
 5    1  0.3316199E-002  0.1249841E+03  0.7818608E-02  0.1235094E+00
         -4   -1    0    0    0  501 -0.00000000000E+00  0.00000000000E+00  0.81450005252E+01  0.82434175896E+01  0.12700000000E+01 0.  1.
          4   -1    0    0  501    0  0.00000000000E+00 -0.00000000000E+00 -0.47648771569E+03  0.47648940818E+03  0.12700000000E+01 0.  1.
         25    2    1    2    0    0  0.00000000000E+00  0.00000000000E+00 -0.46834271516E+03  0.48473282577E+03  0.12498405309E+03 0.  0.
    9000005    1    3    3    0    0  0.50681351665E+02  0.32430205392E+02 -0.16881951036E+03  0.17922428604E+03  0.10000000000E+01 0.  0.
    9000005    1    3    3    0    0 -0.50681351665E+02 -0.32430205392E+02 -0.29952320481E+03  0.30550853973E+03  0.10000000000E+01 0.  0.
<mgrwt>
<rscale>  0 0.12498405E+03</rscale>
<asrwt>0</asrwt>
<pdfrwt beam="2">  1        4 0.73313482E-01 0.12498405E+03</pdfrwt>
<pdfrwt beam="1">  1       -4 0.12607781E-02 0.12498405E+03</pdfrwt>
<totfact> 0.57088713E+03</totfact>
</mgrwt>
</event>
<event>
 5    1  0.3316199E-002  0.1250019E+03  0.7818608E-02  0.1235066E+00
         -4   -1    0    0    0  501 -0.00000000000E+00  0.00000000000E+00  0.41347708401E+02  0.41367207907E+02  0.12700000000E+01 0.  1.
          4   -1    0    0  501    0  0.00000000000E+00 -0.00000000000E+00 -0.94430078828E+02  0.94438618623E+02  0.12700000000E+01 0.  1.
         25    2    1    2    0    0  0.00000000000E+00  0.00000000000E+00 -0.53082370427E+02  0.13580582653E+03  0.12500193786E+03 0.  0.
    9000005    1    3    3    0    0  0.19774644267E+02 -0.24948379339E+02  0.31883215157E+02  0.45066590688E+02  0.10000000000E+01 0.  0.
    9000005    1    3    3    0    0 -0.19774644267E+02  0.24948379339E+02 -0.84965585584E+02  0.90739235842E+02  0.10000000000E+01 0.  0.
<mgrwt>
<rscale>  0 0.12500194E+03</rscale>
<asrwt>0</asrwt>
<pdfrwt beam="2">  1        4 0.14529861E-01 0.12500194E+03</pdfrwt>
<pdfrwt beam="1">  1       -4 0.63633428E-02 0.12500194E+03</pdfrwt>
<totfact> 0.10220667E+04</totfact>
</mgrwt>
</event>
<event>
 5    1  0.3316199E-002  0.1249997E+03  0.7818608E-02  0.1235070E+00
         -4   -1    0    0    0  501 -0.00000000000E+00  0.00000000000E+00  0.54814817273E+01  0.56266812533E+01  0.12700000000E+01 0.  1.
          4   -1    0    0  501    0  0.00000000000E+00 -0.00000000000E+00 -0.70316280366E+03  0.70316395054E+03  0.12700000000E+01 0.  1.
         25    2    1    2    0    0  0.00000000000E+00  0.00000000000E+00 -0.69768132193E+03  0.70879063180E+03  0.12499973102E+03 0.  0.
    9000005    1    3    3    0    0  0.69604667100E+00 -0.55439754208E+02 -0.18536351407E+03  0.19348044650E+03  0.10000000000E+01 0.  0.
    9000005    1    3    3    0    0 -0.69604667100E+00  0.55439754208E+02 -0.51231780786E+03  0.51531018530E+03  0.10000000000E+01 0.  0.
<mgrwt>
<rscale>  0 0.12499973E+03</rscale>
<asrwt>0</asrwt>
<pdfrwt beam="2">  1        4 0.10819008E+00 0.12499973E+03</pdfrwt>
<pdfrwt beam="1">  1       -4 0.85456285E-03 0.12499973E+03</pdfrwt>
<totfact> 0.42626971E+03</totfact>
</mgrwt>
</event>
<event>
 5    1  0.3316199E-002  0.1250019E+03  0.7818608E-02  0.1235066E+00
          4   -1    0    0  501    0  0.00000000000E+00  0.00000000000E+00  0.15077914002E+03  0.15078448848E+03  0.12700000000E+01 0. -1.
         -4   -1    0    0    0  501 -0.00000000000E+00 -0.00000000000E+00 -0.25886502638E+02  0.25917637215E+02  0.12700000000E+01 0. -1.
         25    2    1    2    0    0  0.00000000000E+00  0.00000000000E+00  0.12489263738E+03  0.17670212569E+03  0.12500188139E+03 0.  0.
    9000005    1    3    3    0    0 -0.12097888770E+02  0.28828988581E+02 -0.14043424498E+02  0.34288296355E+02  0.10000000000E+01 0.  0.
    9000005    1    3    3    0    0  0.12097888770E+02 -0.28828988581E+02  0.13893606188E+03  0.14241382934E+03  0.10000000000E+01 0.  0.
<mgrwt>
<rscale>  0 0.12500188E+03</rscale>
<asrwt>0</asrwt>
<pdfrwt beam="1">  1        4 0.23199598E-01 0.12500188E+03</pdfrwt>
<pdfrwt beam="2">  1       -4 0.39853451E-02 0.12500188E+03</pdfrwt>
<totfact> 0.94210045E+03</totfact>
</mgrwt>
</event>
<event>
 5    1  0.3316199E-002  0.1249777E+03  0.7818608E-02  0.1235104E+00
         -4   -1    0    0    0  501 -0.00000000000E+00  0.00000000000E+00  0.22537399847E+02  0.22573154230E+02  0.12700000000E+01 0. -1.
          4   -1    0    0  501    0  0.00000000000E+00 -0.00000000000E+00 -0.17308584722E+03  0.17309050640E+03  0.12700000000E+01 0. -1.
         25    2    1    2    0    0  0.00000000000E+00  0.00000000000E+00 -0.15054844737E+03  0.19566366063E+03  0.12497773036E+03 0.  0.
    9000005    1    3    3    0    0 -0.36930583395E+02 -0.43886589319E+02 -0.36481817675E+02  0.67983996153E+02  0.10000000000E+01 0.  0.
    9000005    1    3    3    0    0  0.36930583395E+02  0.43886589319E+02 -0.11406662969E+03  0.12767966448E+03  0.10000000000E+01 0.  0.
<mgrwt>
<rscale>  0 0.12497773E+03</rscale>
<asrwt>0</asrwt>
<pdfrwt beam="2">  1        4 0.26631700E-01 0.12497773E+03</pdfrwt>
<pdfrwt beam="1">  1       -4 0.34704011E-02 0.12497773E+03</pdfrwt>
<totfact> 0.90916408E+03</totfact>
</mgrwt>
</event>
<event>
 5    1  0.3316199E-002  0.1250113E+03  0.7818608E-02  0.1235052E+00
          4   -1    0    0  501    0  0.00000000000E+00  0.00000000000E+00  0.30803203681E+02  0.30829373282E+02  0.12700000000E+01 0.  1.
         -4   -1    0    0    0  501 -0.00000000000E+00 -0.00000000000E+00 -0.12675284431E+03  0.12675920654E+03  0.12700000000E+01 0.  1.
         25    2    1    2    0    0  0.00000000000E+00  0.00000000000E+00 -0.95949640634E+02  0.15758857982E+03  0.12501130730E+03 0.  0.
    9000005    1    3    3    0    0  0.17095388177E+02 -0.55097069350E+02 -0.78282026059E+02  0.97247184801E+02  0.10000000000E+01 0.  0.
    9000005    1    3    3    0    0 -0.17095388177E+02  0.55097069350E+02 -0.17667614575E+02  0.60341395018E+02  0.10000000000E+01 0.  0.
<mgrwt>
<rscale>  0 0.12501131E+03</rscale>
<asrwt>0</asrwt>
<pdfrwt beam="1">  1        4 0.47414569E-02 0.12501131E+03</pdfrwt>
<pdfrwt beam="2">  1       -4 0.19502940E-01 0.12501131E+03</pdfrwt>
<totfact> 0.97784851E+03</totfact>
</mgrwt>
</event>
<event>
 5    1  0.3316199E-002  0.1249712E+03  0.7818608E-02  0.1235114E+00
         -4   -1    0    0    0  501 -0.00000000000E+00  0.00000000000E+00  0.21530447077E+03  0.21530821637E+03  0.12700000000E+01 0.  1.
          4   -1    0    0  501    0  0.00000000000E+00 -0.00000000000E+00 -0.18108415180E+02  0.18152895095E+02  0.12700000000E+01 0.  1.
         25    2    1    2    0    0  0.00000000000E+00  0.00000000000E+00  0.19719605559E+03  0.23346111146E+03  0.12497122158E+03 0.  0.
    9000005    1    3    3    0    0  0.45961934907E+02  0.30674483787E+02  0.44132566620E+02  0.70725574246E+02  0.10000000000E+01 0.  0.
    9000005    1    3    3    0    0 -0.45961934907E+02 -0.30674483787E+02  0.15306348897E+03  0.16273553722E+03  0.10000000000E+01 0.  0.
<mgrwt>
<rscale>  0 0.12497122E+03</rscale>
<asrwt>0</asrwt>
<pdfrwt beam="2">  1        4 0.27896198E-02 0.12497122E+03</pdfrwt>
<pdfrwt beam="1">  1       -4 0.33127473E-01 0.12497122E+03</pdfrwt>
<totfact> 0.84835404E+03</totfact>
</mgrwt>
</event>
<event>
 5    1  0.3316199E-002  0.1249972E+03  0.7818608E-02  0.1235074E+00
          4   -1    0    0  501    0  0.00000000000E+00  0.00000000000E+00  0.12678238365E+02  0.12741688587E+02  0.12700000000E+01 0. -1.
         -4   -1    0    0    0  501 -0.00000000000E+00 -0.00000000000E+00 -0.30725925296E+03  0.30726187761E+03  0.12700000000E+01 0. -1.
         25    2    1    2    0    0  0.00000000000E+00  0.00000000000E+00 -0.29458101460E+03  0.32000356620E+03  0.12499723283E+03 0.  0.
    9000005    1    3    3    0    0  0.39629978054E+02 -0.39572553751E+02 -0.76317719830E+02  0.94667399515E+02  0.10000000000E+01 0.  0.
    9000005    1    3    3    0    0 -0.39629978054E+02  0.39572553751E+02 -0.21826329477E+03  0.22533616668E+03  0.10000000000E+01 0.  0.
<mgrwt>
<rscale>  0 0.12499723E+03</rscale>
<asrwt>0</asrwt>
<pdfrwt beam="1">  1        4 0.19555811E-02 0.12499723E+03</pdfrwt>
<pdfrwt beam="2">  1       -4 0.47275731E-01 0.12499723E+03</pdfrwt>
<totfact> 0.73160191E+03</totfact>
</mgrwt>
</event>
<event>
 5    1  0.3316199E-002  0.1249993E+03  0.7818608E-02  0.1235070E+00
          4   -1    0    0  501    0  0.00000000000E+00  0.00000000000E+00  0.51264554925E+02  0.51280283654E+02  0.12700000000E+01 0.  1.
         -4   -1    0    0    0  501 -0.00000000000E+00 -0.00000000000E+00 -0.76164304736E+02  0.76174892294E+02  0.12700000000E+01 0.  1.
         25    2    1    2    0    0  0.00000000000E+00  0.00000000000E+00 -0.24899749811E+02  0.12745517595E+03  0.12499929734E+03 0.  0.
    9000005    1    3    3    0    0  0.60080077955E+02  0.15679143580E+02 -0.19642166406E+02  0.65132680059E+02  0.10000000000E+01 0.  0.
    9000005    1    3    3    0    0 -0.60080077955E+02 -0.15679143580E+02 -0.52575834055E+01  0.62322495889E+02  0.10000000000E+01 0.  0.
<mgrwt>
<rscale>  0 0.12499930E+03</rscale>
<asrwt>0</asrwt>
<pdfrwt beam="1">  1        4 0.78888790E-02 0.12499930E+03</pdfrwt>
<pdfrwt beam="2">  1       -4 0.11719610E-01 0.12499930E+03</pdfrwt>
<totfact> 0.10399436E+04</totfact>
</mgrwt>
</event>
<event>
 5    1  0.3316199E-002  0.1249968E+03  0.7818608E-02  0.1235074E+00
         -4   -1    0    0    0  501 -0.00000000000E+00  0.00000000000E+00  0.14681588916E+03  0.14682138199E+03  0.12700000000E+01 0. -1.
          4   -1    0    0  501    0  0.00000000000E+00 -0.00000000000E+00 -0.26583940803E+02  0.26614259498E+02  0.12700000000E+01 0. -1.
         25    2    1    2    0    0  0.00000000000E+00  0.00000000000E+00  0.12023194836E+03  0.17343564149E+03  0.12499680129E+03 0.  0.
    9000005    1    3    3    0    0 -0.34380425160E+02  0.35775465486E+02  0.11282628381E+03  0.12325854081E+03  0.10000000000E+01 0.  0.
    9000005    1    3    3    0    0  0.34380425160E+02 -0.35775465486E+02  0.74056645479E+01  0.50177100677E+02  0.10000000000E+01 0.  0.
<mgrwt>
<rscale>  0 0.12499680E+03</rscale>
<asrwt>0</asrwt>
<pdfrwt beam="2">  1        4 0.40925918E-02 0.12499680E+03</pdfrwt>
<pdfrwt beam="1">  1       -4 0.22589815E-01 0.12499680E+03</pdfrwt>
<totfact> 0.94818937E+03</totfact>
</mgrwt>
</event>
<event>
 5    1  0.3316199E-002  0.1250003E+03  0.7818608E-02  0.1235069E+00
         -4   -1    0    0    0  501 -0.00000000000E+00  0.00000000000E+00  0.48035448714E+03  0.48035616600E+03  0.12700000000E+01 0. -1.
          4   -1    0    0  501    0  0.00000000000E+00 -0.00000000000E+00 -0.80807595946E+01  0.81799496102E+01  0.12700000000E+01 0. -1.
         25    2    1    2    0    0  0.00000000000E+00  0.00000000000E+00  0.47227372754E+03  0.48853611561E+03  0.12500025011E+03 0.  0.
    9000005    1    3    3    0    0  0.26410427598E+02  0.45608013560E+02  0.36737971588E+03  0.37114209843E+03  0.10000000000E+01 0.  0.
    9000005    1    3    3    0    0 -0.26410427598E+02 -0.45608013560E+02  0.10489401166E+03  0.11739401718E+03  0.10000000000E+01 0.  0.
<mgrwt>
<rscale>  0 0.12500025E+03</rscale>
<asrwt>0</asrwt>
<pdfrwt beam="2">  1        4 0.12509525E-02 0.12500025E+03</pdfrwt>
<pdfrwt beam="1">  1       -4 0.73908474E-01 0.12500025E+03</pdfrwt>
<totfact> 0.56764597E+03</totfact>
</mgrwt>
</event>
<event>
 5    1  0.3316199E-002  0.1249996E+03  0.7818608E-02  0.1235070E+00
         -4   -1    0    0    0  501 -0.00000000000E+00  0.00000000000E+00  0.12122634293E+03  0.12123299518E+03  0.12700000000E+01 0. -1.
          4   -1    0    0  501    0  0.00000000000E+00 -0.00000000000E+00 -0.32202523623E+02  0.32227556961E+02  0.12700000000E+01 0. -1.
         25    2    1    2    0    0  0.00000000000E+00  0.00000000000E+00  0.89023819308E+02  0.15346055214E+03  0.12499960264E+03 0.  0.
    9000005    1    3    3    0    0 -0.11962282047E+01  0.23703428654E+02  0.11548399350E+03  0.11790180765E+03  0.10000000000E+01 0.  0.
    9000005    1    3    3    0    0  0.11962282047E+01 -0.23703428654E+02 -0.26460174191E+02  0.35558744495E+02  0.10000000000E+01 0.  0.
<mgrwt>
<rscale>  0 0.12499960E+03</rscale>
<asrwt>0</asrwt>
<pdfrwt beam="2">  1        4 0.49566719E-02 0.12499960E+03</pdfrwt>
<pdfrwt beam="1">  1       -4 0.18652643E-01 0.12499960E+03</pdfrwt>
<totfact> 0.98619190E+03</totfact>
</mgrwt>
</event>
<event>
 5    1  0.3316199E-002  0.1250017E+03  0.7818608E-02  0.1235067E+00
         -4   -1    0    0    0  501 -0.00000000000E+00  0.00000000000E+00  0.11293645978E+03  0.11294360030E+03  0.12700000000E+01 0. -1.
          4   -1    0    0  501    0  0.00000000000E+00 -0.00000000000E+00 -0.34569077873E+02  0.34592398660E+02  0.12700000000E+01 0. -1.
         25    2    1    2    0    0  0.00000000000E+00  0.00000000000E+00  0.78367381911E+02  0.14753599896E+03  0.12500169775E+03 0.  0.
    9000005    1    3    3    0    0  0.88843152937E+01  0.61834065701E+02  0.37148493063E+02  0.72686953961E+02  0.10000000000E+01 0.  0.
    9000005    1    3    3    0    0 -0.88843152937E+01 -0.61834065701E+02  0.41218888848E+02  0.74849044998E+02  0.10000000000E+01 0.  0.
<mgrwt>
<rscale>  0 0.12500170E+03</rscale>
<asrwt>0</asrwt>
<pdfrwt beam="2">  1        4 0.53206628E-02 0.12500170E+03</pdfrwt>
<pdfrwt beam="1">  1       -4 0.17377183E-01 0.12500170E+03</pdfrwt>
<totfact> 0.99793332E+03</totfact>
</mgrwt>
</event>
<event>
 5    1  0.3316199E-002  0.1249953E+03  0.7818608E-02  0.1235077E+00
         -4   -1    0    0    0  501 -0.00000000000E+00  0.00000000000E+00  0.21570842762E+02  0.21608196534E+02  0.12700000000E+01 0. -1.
          4   -1    0    0  501    0  0.00000000000E+00 -0.00000000000E+00 -0.18087955184E+03  0.18088401027E+03  0.12700000000E+01 0. -1.
         25    2    1    2    0    0  0.00000000000E+00  0.00000000000E+00 -0.15930870907E+03  0.20249220681E+03  0.12499531604E+03 0.  0.
    9000005    1    3    3    0    0 -0.46134012279E+02  0.37211827268E+02 -0.47584520703E+02  0.76015483871E+02  0.10000000000E+01 0.  0.
    9000005    1    3    3    0    0  0.46134012279E+02 -0.37211827268E+02 -0.11172418837E+03  0.12647672294E+03  0.10000000000E+01 0.  0.
<mgrwt>
<rscale>  0 0.12499532E+03</rscale>
<asrwt>0</asrwt>
<pdfrwt beam="2">  1        4 0.27830839E-01 0.12499532E+03</pdfrwt>
<pdfrwt beam="1">  1       -4 0.33218076E-02 0.12499532E+03</pdfrwt>
<totfact> 0.89726274E+03</totfact>
</mgrwt>
</event>
<event>
 5    1  0.3316199E-002  0.1249945E+03  0.7818608E-02  0.1235078E+00
          4   -1    0    0  501    0  0.00000000000E+00  0.00000000000E+00  0.19175992337E+01  0.23000188741E+01  0.12700000000E+01 0.  1.
         -4   -1    0    0    0  501 -0.00000000000E+00 -0.00000000000E+00 -0.18518027767E+04  0.18518032122E+04  0.12700000000E+01 0.  1.
         25    2    1    2    0    0  0.00000000000E+00  0.00000000000E+00 -0.18498851775E+04  0.18541032311E+04  0.12499448648E+03 0.  0.
    9000005    1    3    3    0    0  0.54283505043E+02  0.18970346081E+02 -0.56210327485E+03  0.56503775498E+03  0.10000000000E+01 0.  0.
    9000005    1    3    3    0    0 -0.54283505043E+02 -0.18970346081E+02 -0.12877819026E+04  0.12890654761E+04  0.10000000000E+01 0.  0.
<mgrwt>
<rscale>  0 0.12499449E+03</rscale>
<asrwt>0</asrwt>
<pdfrwt beam="1">  1        4 0.32446714E-03 0.12499449E+03</pdfrwt>
<pdfrwt beam="2">  1       -4 0.28492089E+00 0.12499449E+03</pdfrwt>
<totfact> 0.11889611E+03</totfact>
</mgrwt>
</event>
<event>
 5    1  0.3316199E-002  0.1250006E+03  0.7818608E-02  0.1235068E+00
          4   -1    0    0  501    0  0.00000000000E+00  0.00000000000E+00  0.29236625279E+03  0.29236901114E+03  0.12700000000E+01 0. -1.
         -4   -1    0    0    0  501 -0.00000000000E+00 -0.00000000000E+00 -0.13327925839E+02  0.13388297396E+02  0.12700000000E+01 0. -1.
         25    2    1    2    0    0  0.00000000000E+00  0.00000000000E+00  0.27903832695E+03  0.30575730853E+03  0.12500057524E+03 0.  0.
    9000005    1    3    3    0    0 -0.40820201347E+02 -0.47036066896E+02  0.15213600819E+03  0.16439296036E+03  0.10000000000E+01 0.  0.
    9000005    1    3    3    0    0  0.40820201347E+02  0.47036066896E+02  0.12690231876E+03  0.14136434817E+03  0.10000000000E+01 0.  0.
<mgrwt>
<rscale>  0 0.12500058E+03</rscale>
<asrwt>0</asrwt>
<pdfrwt beam="1">  1        4 0.44984276E-01 0.12500058E+03</pdfrwt>
<pdfrwt beam="2">  1       -4 0.20553064E-02 0.12500058E+03</pdfrwt>
<totfact> 0.74881327E+03</totfact>
</mgrwt>
</event>
<event>
 5    1  0.3316199E-002  0.1249998E+03  0.7818608E-02  0.1235070E+00
          4   -1    0    0  501    0  0.00000000000E+00  0.00000000000E+00  0.84078212573E+02  0.84087803691E+02  0.12700000000E+01 0. -1.
         -4   -1    0    0    0  501 -0.00000000000E+00 -0.00000000000E+00 -0.46438612197E+02  0.46455974888E+02  0.12700000000E+01 0. -1.
         25    2    1    2    0    0  0.00000000000E+00  0.00000000000E+00  0.37639600376E+02  0.13054377858E+03  0.12499975444E+03 0.  0.
    9000005    1    3    3    0    0 -0.19162428162E+02  0.50929174105E+02  0.50911425836E+02  0.74524846251E+02  0.10000000000E+01 0.  0.
    9000005    1    3    3    0    0  0.19162428162E+02 -0.50929174105E+02 -0.13271825460E+02  0.56018932328E+02  0.10000000000E+01 0.  0.
<mgrwt>
<rscale>  0 0.12499975E+03</rscale>
<asrwt>0</asrwt>
<pdfrwt beam="1">  1        4 0.12937183E-01 0.12499975E+03</pdfrwt>
<pdfrwt beam="2">  1       -4 0.71464753E-02 0.12499975E+03</pdfrwt>
<totfact> 0.10332937E+04</totfact>
</mgrwt>
</event>
<event>
 5    1  0.3316199E-002  0.1249881E+03  0.7818608E-02  0.1235088E+00
         -4   -1    0    0    0  501 -0.00000000000E+00  0.00000000000E+00  0.55367066149E+01  0.56804947091E+01  0.12700000000E+01 0. -1.
          4   -1    0    0  501    0  0.00000000000E+00 -0.00000000000E+00 -0.69619839609E+03  0.69619955445E+03  0.12700000000E+01 0. -1.
         25    2    1    2    0    0  0.00000000000E+00  0.00000000000E+00 -0.69066168948E+03  0.70188004916E+03  0.12498813584E+03 0.  0.
    9000005    1    3    3    0    0  0.41166499873E+02  0.10035093267E+02 -0.87434469769E+02  0.97165684850E+02  0.10000000000E+01 0.  0.
    9000005    1    3    3    0    0 -0.41166499873E+02 -0.10035093267E+02 -0.60322721971E+03  0.60471436431E+03  0.10000000000E+01 0.  0.
<mgrwt>
<rscale>  0 0.12498814E+03</rscale>
<asrwt>0</asrwt>
<pdfrwt beam="2">  1        4 0.10711853E+00 0.12498814E+03</pdfrwt>
<pdfrwt beam="1">  1       -4 0.86295130E-03 0.12498814E+03</pdfrwt>
<totfact> 0.42998814E+03</totfact>
</mgrwt>
</event>
<event>
 5    1  0.3316199E-002  0.1250005E+03  0.7818608E-02  0.1235068E+00
         -4   -1    0    0    0  501 -0.00000000000E+00  0.00000000000E+00  0.83901342177E+02  0.83910953511E+02  0.12700000000E+01 0. -1.
          4   -1    0    0  501    0  0.00000000000E+00 -0.00000000000E+00 -0.46537104040E+02  0.46554429998E+02  0.12700000000E+01 0. -1.
         25    2    1    2    0    0  0.00000000000E+00  0.00000000000E+00  0.37364238138E+02  0.13046538351E+03  0.12500052001E+03 0.  0.
    9000005    1    3    3    0    0  0.45898275955E+01 -0.51127169695E+02 -0.18516293106E+02  0.54579365229E+02  0.10000000000E+01 0.  0.
    9000005    1    3    3    0    0 -0.45898275955E+01  0.51127169695E+02  0.55880531243E+02  0.75886018280E+02  0.10000000000E+01 0.  0.
<mgrwt>
<rscale>  0 0.12500052E+03</rscale>
<asrwt>0</asrwt>
<pdfrwt beam="2">  1        4 0.71616267E-02 0.12500052E+03</pdfrwt>
<pdfrwt beam="1">  1       -4 0.12909971E-01 0.12500052E+03</pdfrwt>
<totfact> 0.10334441E+04</totfact>
</mgrwt>
</event>
<event>
 5    1  0.3316199E-002  0.1249994E+03  0.7818608E-02  0.1235070E+00
          4   -1    0    0  501    0  0.00000000000E+00  0.00000000000E+00  0.52898377200E+02  0.52913620273E+02  0.12700000000E+01 0. -1.
         -4   -1    0    0    0  501 -0.00000000000E+00 -0.00000000000E+00 -0.73812358187E+02  0.73823283056E+02  0.12700000000E+01 0. -1.
         25    2    1    2    0    0  0.00000000000E+00  0.00000000000E+00 -0.20913980987E+02  0.12673690333E+03  0.12499939226E+03 0.  0.
    9000005    1    3    3    0    0  0.60973903762E+02  0.58548129443E+01  0.20890250153E+01  0.61298122322E+02  0.10000000000E+01 0.  0.
    9000005    1    3    3    0    0 -0.60973903762E+02 -0.58548129443E+01 -0.23003006002E+02  0.65438781008E+02  0.10000000000E+01 0.  0.
<mgrwt>
<rscale>  0 0.12499939E+03</rscale>
<asrwt>0</asrwt>
<pdfrwt beam="1">  1        4 0.81402248E-02 0.12499939E+03</pdfrwt>
<pdfrwt beam="2">  1       -4 0.11357760E-01 0.12499939E+03</pdfrwt>
<totfact> 0.10415010E+04</totfact>
</mgrwt>
</event>
<event>
 5    1  0.3316199E-002  0.1250023E+03  0.7818608E-02  0.1235066E+00
         -4   -1    0    0    0  501 -0.00000000000E+00  0.00000000000E+00  0.14283769027E+01  0.19113242990E+01  0.12700000000E+01 0. -1.
          4   -1    0    0  501    0  0.00000000000E+00 -0.00000000000E+00 -0.23388827308E+04  0.23388830756E+04  0.12700000000E+01 0. -1.
         25    2    1    2    0    0  0.00000000000E+00  0.00000000000E+00 -0.23374543539E+04  0.23407943999E+04  0.12500226418E+03 0.  0.
    9000005    1    3    3    0    0 -0.26360440124E+02  0.92783881406E+00 -0.10782642303E+03  0.11101023013E+03  0.10000000000E+01 0.  0.
    9000005    1    3    3    0    0  0.26360440124E+02 -0.92783881406E+00 -0.22296279308E+04  0.22297841697E+04  0.10000000000E+01 0.  0.
<mgrwt>
<rscale>  0 0.12500226E+03</rscale>
<asrwt>0</asrwt>
<pdfrwt beam="2">  1        4 0.35986267E+00 0.12500226E+03</pdfrwt>
<pdfrwt beam="1">  1       -4 0.25692849E-03 0.12500226E+03</pdfrwt>
<totfact> 0.60433668E+02</totfact>
</mgrwt>
</event>
<event>
 5    1  0.3316199E-002  0.1250037E+03  0.7818608E-02  0.1235063E+00
         -4   -1    0    0    0  501 -0.00000000000E+00  0.00000000000E+00  0.33347228914E+02  0.33371403570E+02  0.12700000000E+01 0. -1.
          4   -1    0    0  501    0  0.00000000000E+00 -0.00000000000E+00 -0.11707558370E+03  0.11708247178E+03  0.12700000000E+01 0. -1.
         25    2    1    2    0    0  0.00000000000E+00  0.00000000000E+00 -0.83728354785E+02  0.15045387535E+03  0.12500372480E+03 0.  0.
    9000005    1    3    3    0    0 -0.40069858134E+02 -0.43255742663E+02 -0.16939875432E+02  0.61356435554E+02  0.10000000000E+01 0.  0.
    9000005    1    3    3    0    0  0.40069858134E+02  0.43255742663E+02 -0.66788479353E+02  0.89097439797E+02  0.10000000000E+01 0.  0.
<mgrwt>
<rscale>  0 0.12500372E+03</rscale>
<asrwt>0</asrwt>
<pdfrwt beam="2">  1        4 0.18014017E-01 0.12500372E+03</pdfrwt>
<pdfrwt beam="1">  1       -4 0.51327324E-02 0.12500372E+03</pdfrwt>
<totfact> 0.99204986E+03</totfact>
</mgrwt>
</event>
<event>
 5    1  0.3316199E-002  0.1250048E+03  0.7818608E-02  0.1235062E+00
          4   -1    0    0  501    0  0.00000000000E+00  0.00000000000E+00  0.89469090401E+01  0.90365967804E+01  0.12700000000E+01 0.  1.
         -4   -1    0    0    0  501 -0.00000000000E+00 -0.00000000000E+00 -0.43436885425E+03  0.43437071085E+03  0.12700000000E+01 0.  1.
         25    2    1    2    0    0  0.00000000000E+00  0.00000000000E+00 -0.42542194521E+03  0.44340730763E+03  0.12500483587E+03 0.  0.
    9000005    1    3    3    0    0 -0.48590136819E+02 -0.32159965148E+02 -0.13258312179E+03  0.14482592633E+03  0.10000000000E+01 0.  0.
    9000005    1    3    3    0    0  0.48590136819E+02  0.32159965148E+02 -0.29283882343E+03  0.29858138130E+03  0.10000000000E+01 0.  0.
<mgrwt>
<rscale>  0 0.12500484E+03</rscale>
<asrwt>0</asrwt>
<pdfrwt beam="1">  1        4 0.13834898E-02 0.12500484E+03</pdfrwt>
<pdfrwt beam="2">  1       -4 0.66833003E-01 0.12500484E+03</pdfrwt>
<totfact> 0.60532763E+03</totfact>
</mgrwt>
</event>
<event>
 5    1  0.3316199E-002  0.1249793E+03  0.7818608E-02  0.1235102E+00
          4   -1    0    0  501    0  0.00000000000E+00  0.00000000000E+00  0.11402204913E+03  0.11402912167E+03  0.12700000000E+01 0. -1.
         -4   -1    0    0    0  501 -0.00000000000E+00 -0.00000000000E+00 -0.34227465436E+02  0.34251018820E+02  0.12700000000E+01 0. -1.
         25    2    1    2    0    0  0.00000000000E+00  0.00000000000E+00  0.79794583697E+02  0.14828014049E+03  0.12497929619E+03 0.  0.
    9000005    1    3    3    0    0  0.37953143874E+02  0.47931927136E+02  0.55185559358E+02  0.82367206645E+02  0.10000000000E+01 0.  0.
    9000005    1    3    3    0    0 -0.37953143874E+02 -0.47931927136E+02  0.24609024339E+02  0.65912933843E+02  0.10000000000E+01 0.  0.
<mgrwt>
<rscale>  0 0.12497930E+03</rscale>
<asrwt>0</asrwt>
<pdfrwt beam="1">  1        4 0.17544210E-01 0.12497930E+03</pdfrwt>
<pdfrwt beam="2">  1       -4 0.52681197E-02 0.12497930E+03</pdfrwt>
<totfact> 0.99694091E+03</totfact>
</mgrwt>
</event>
<event>
 5    1  0.3316199E-002  0.1250025E+03  0.7818608E-02  0.1235065E+00
          4   -1    0    0  501    0  0.00000000000E+00  0.00000000000E+00  0.13143314629E+02  0.13204530262E+02  0.12700000000E+01 0.  1.
         -4   -1    0    0    0  501 -0.00000000000E+00 -0.00000000000E+00 -0.29646312658E+03  0.29646584681E+03  0.12700000000E+01 0.  1.
         25    2    1    2    0    0  0.00000000000E+00  0.00000000000E+00 -0.28331981195E+03  0.30967037707E+03  0.12500250633E+03 0.  0.
    9000005    1    3    3    0    0 -0.19015917582E+01  0.14596408874E+02  0.87996225155E+01  0.17178607617E+02  0.10000000000E+01 0.  0.
    9000005    1    3    3    0    0  0.19015917582E+01 -0.14596408874E+02 -0.29211943447E+03  0.29249176945E+03  0.10000000000E+01 0.  0.
<mgrwt>
<rscale>  0 0.12500251E+03</rscale>
<asrwt>0</asrwt>
<pdfrwt beam="1">  1        4 0.20269668E-02 0.12500251E+03</pdfrwt>
<pdfrwt beam="2">  1       -4 0.45614625E-01 0.12500251E+03</pdfrwt>
<totfact> 0.74397463E+03</totfact>
</mgrwt>
</event>
<event>
 5    1  0.3316199E-002  0.1249992E+03  0.7818608E-02  0.1235071E+00
          4   -1    0    0  501    0  0.00000000000E+00  0.00000000000E+00  0.80453694537E+02  0.80463717691E+02  0.12700000000E+01 0. -1.
         -4   -1    0    0    0  501 -0.00000000000E+00 -0.00000000000E+00 -0.48530764341E+02  0.48547378791E+02  0.12700000000E+01 0. -1.
         25    2    1    2    0    0  0.00000000000E+00  0.00000000000E+00  0.31922930196E+02  0.12901109648E+03  0.12499915817E+03 0.  0.
    9000005    1    3    3    0    0  0.34067938142E+02 -0.33290417820E+02 -0.25788319379E+02  0.54174844202E+02  0.10000000000E+01 0.  0.
    9000005    1    3    3    0    0 -0.34067938142E+02  0.33290417820E+02  0.57711249575E+02  0.74836252281E+02  0.10000000000E+01 0.  0.
<mgrwt>
<rscale>  0 0.12499916E+03</rscale>
<asrwt>0</asrwt>
<pdfrwt beam="1">  1        4 0.12379541E-01 0.12499916E+03</pdfrwt>
<pdfrwt beam="2">  1       -4 0.74683205E-02 0.12499916E+03</pdfrwt>
<totfact> 0.10365905E+04</totfact>
</mgrwt>
</event>
<event>
 5    1  0.3316199E-002  0.1249942E+03  0.7818608E-02  0.1235078E+00
          4   -1    0    0  501    0  0.00000000000E+00  0.00000000000E+00  0.52486514476E+03  0.52486668125E+03  0.12700000000E+01 0.  1.
         -4   -1    0    0    0  501 -0.00000000000E+00 -0.00000000000E+00 -0.73859503703E+01  0.74943420573E+01  0.12700000000E+01 0.  1.
         25    2    1    2    0    0  0.00000000000E+00  0.00000000000E+00  0.51747919439E+03  0.53236102331E+03  0.12499416990E+03 0.  0.
    9000005    1    3    3    0    0  0.37537158393E+02  0.37495115838E+02  0.39935163519E+03  0.40286182557E+03  0.10000000000E+01 0.  0.
    9000005    1    3    3    0    0 -0.37537158393E+02 -0.37495115838E+02  0.11812755921E+03  0.12949919774E+03  0.10000000000E+01 0.  0.
<mgrwt>
<rscale>  0 0.12499417E+03</rscale>
<asrwt>0</asrwt>
<pdfrwt beam="1">  1        4 0.80756939E-01 0.12499417E+03</pdfrwt>
<pdfrwt beam="2">  1       -4 0.11447561E-02 0.12499417E+03</pdfrwt>
<totfact> 0.53444998E+03</totfact>
</mgrwt>
</event>
<event>
 5    1  0.3316199E-002  0.1249986E+03  0.7818608E-02  0.1235071E+00
         -4   -1    0    0    0  501 -0.00000000000E+00  0.00000000000E+00  0.50896547435E+02  0.50912389855E+02  0.12700000000E+01 0.  1.
          4   -1    0    0  501    0  0.00000000000E+00 -0.00000000000E+00 -0.76714084914E+02  0.76724596604E+02  0.12700000000E+01 0.  1.
         25    2    1    2    0    0  0.00000000000E+00  0.00000000000E+00 -0.25817537479E+02  0.12763698646E+03  0.12499862028E+03 0.  0.
    9000005    1    3    3    0    0 -0.46535417932E+02  0.36487519217E+02  0.77236505992E+01  0.59645108427E+02  0.10000000000E+01 0.  0.
    9000005    1    3    3    0    0  0.46535417932E+02 -0.36487519217E+02 -0.33541188078E+02  0.67991878033E+02  0.10000000000E+01 0.  0.
<mgrwt>
<rscale>  0 0.12499862E+03</rscale>
<asrwt>0</asrwt>
<pdfrwt beam="2">  1        4 0.11804194E-01 0.12499862E+03</pdfrwt>
<pdfrwt beam="1">  1       -4 0.78322654E-02 0.12499862E+03</pdfrwt>
<totfact> 0.10395659E+04</totfact>
</mgrwt>
</event>
<event>
 5    1  0.3316199E-002  0.1249983E+03  0.7818608E-02  0.1235072E+00
          4   -1    0    0  501    0  0.00000000000E+00  0.00000000000E+00  0.11646374448E+02  0.11715414537E+02  0.12700000000E+01 0. -1.
         -4   -1    0    0    0  501 -0.00000000000E+00 -0.00000000000E+00 -0.33433434882E+03  0.33433676091E+03  0.12700000000E+01 0. -1.
         25    2    1    2    0    0  0.00000000000E+00  0.00000000000E+00 -0.32268797437E+03  0.34605217545E+03  0.12499831732E+03 0.  0.
    9000005    1    3    3    0    0 -0.71353505419E+01  0.67379229793E+01  0.95132288432E+01  0.13704537805E+02  0.10000000000E+01 0.  0.
    9000005    1    3    3    0    0  0.71353505419E+01 -0.67379229793E+01 -0.33220120321E+03  0.33234763765E+03  0.10000000000E+01 0.  0.
<mgrwt>
<rscale>  0 0.12499832E+03</rscale>
<asrwt>0</asrwt>
<pdfrwt beam="1">  1        4 0.17972465E-02 0.12499832E+03</pdfrwt>
<pdfrwt beam="2">  1       -4 0.51441543E-01 0.12499832E+03</pdfrwt>
<totfact> 0.70163676E+03</totfact>
</mgrwt>
</event>
<event>
 5    1  0.3316199E-002  0.1249986E+03  0.7818608E-02  0.1235071E+00
          4   -1    0    0  501    0  0.00000000000E+00  0.00000000000E+00  0.55543788047E+02  0.55558305325E+02  0.12700000000E+01 0. -1.
         -4   -1    0    0    0  501 -0.00000000000E+00 -0.00000000000E+00 -0.70296414582E+02  0.70307885782E+02  0.12700000000E+01 0. -1.
         25    2    1    2    0    0  0.00000000000E+00  0.00000000000E+00 -0.14752626535E+02  0.12586619111E+03  0.12499863229E+03 0.  0.
    9000005    1    3    3    0    0 -0.17208067182E+01  0.36793169071E+02  0.43456395782E+02  0.56975054194E+02  0.10000000000E+01 0.  0.
    9000005    1    3    3    0    0  0.17208067182E+01 -0.36793169071E+02 -0.58209022318E+02  0.68891136913E+02  0.10000000000E+01 0.  0.
<mgrwt>
<rscale>  0 0.12499863E+03</rscale>
<asrwt>0</asrwt>
<pdfrwt beam="1">  1        4 0.85471973E-02 0.12499863E+03</pdfrwt>
<pdfrwt beam="2">  1       -4 0.10816832E-01 0.12499863E+03</pdfrwt>
<totfact> 0.10434214E+04</totfact>
</mgrwt>
</event>
<event>
 5    1  0.3316199E-002  0.1249900E+03  0.7818608E-02  0.1235085E+00
         -4   -1    0    0    0  501 -0.00000000000E+00  0.00000000000E+00  0.22166922644E+04  0.22166926282E+04  0.12700000000E+01 0. -1.
          4   -1    0    0  501    0  0.00000000000E+00 -0.00000000000E+00 -0.15326478049E+01  0.19904545445E+01  0.12700000000E+01 0. -1.
         25    2    1    2    0    0  0.00000000000E+00  0.00000000000E+00  0.22151596166E+04  0.22186830827E+04  0.12498997839E+03 0.  0.
    9000005    1    3    3    0    0 -0.40170669667E+02 -0.31118320972E+02  0.17531342482E+04  0.17538707834E+04  0.10000000000E+01 0.  0.
    9000005    1    3    3    0    0  0.40170669667E+02  0.31118320972E+02  0.46202536833E+03  0.46481229931E+03  0.10000000000E+01 0.  0.
<mgrwt>
<rscale>  0 0.12498998E+03</rscale>
<asrwt>0</asrwt>
<pdfrwt beam="2">  1        4 0.27103704E-03 0.12498998E+03</pdfrwt>
<pdfrwt beam="1">  1       -4 0.34106333E+00 0.12498998E+03</pdfrwt>
<totfact> 0.72718946E+02</totfact>
</mgrwt>
</event>
<event>
 5    1  0.3316199E-002  0.1250010E+03  0.7818608E-02  0.1235068E+00
          4   -1    0    0  501    0  0.00000000000E+00  0.00000000000E+00  0.12785532322E+01  0.18021094216E+01  0.12700000000E+01 0.  1.
         -4   -1    0    0    0  501 -0.00000000000E+00 -0.00000000000E+00 -0.25354958634E+04  0.25354961814E+04  0.12700000000E+01 0.  1.
         25    2    1    2    0    0  0.00000000000E+00  0.00000000000E+00 -0.25342173101E+04  0.25372982909E+04  0.12500096710E+03 0.  0.
    9000005    1    3    3    0    0  0.50143838891E+02  0.18802591379E+01 -0.51105193076E+03  0.51351048274E+03  0.10000000000E+01 0.  0.
    9000005    1    3    3    0    0 -0.50143838891E+02 -0.18802591379E+01 -0.20231653794E+04  0.20237878081E+04  0.10000000000E+01 0.  0.
<mgrwt>
<rscale>  0 0.12500097E+03</rscale>
<asrwt>0</asrwt>
<pdfrwt beam="1">  1        4 0.23700055E-03 0.12500097E+03</pdfrwt>
<pdfrwt beam="2">  1       -4 0.39011324E+00 0.12500097E+03</pdfrwt>
<totfact> 0.43829605E+02</totfact>
</mgrwt>
</event>
<event>
 4    1  0.3316199E-002  0.1251033E+03  0.7818608E-02  0.1234908E+00
         -4   -1    0    0    0  501 -0.00000000000E+00  0.00000000000E+00  0.44281405583E+03  0.44281587702E+03  0.12700000000E+01 0. -1.
          4   -1    0    0  501    0  0.00000000000E+00 -0.00000000000E+00 -0.87885217777E+01  0.88798094032E+01  0.12700000000E+01 0. -1.
    9000005    1    1    2    0    0 -0.21162087091E+02 -0.35624462650E+02  0.47862816996E+02  0.63314970741E+02  0.10000000000E+01 0.  0.
    9000005    1    1    2    0    0  0.21162087091E+02  0.35624462650E+02  0.38616271705E+03  0.38838071568E+03  0.10000000000E+01 0.  0.
<mgrwt>
<rscale>  0 0.12510327E+03</rscale>
<asrwt>0</asrwt>
<pdfrwt beam="2">  1        4 0.13592422E-02 0.12510327E+03</pdfrwt>
<pdfrwt beam="1">  1       -4 0.68132418E-01 0.12510327E+03</pdfrwt>
<totfact> 0.59681308E+03</totfact>
</mgrwt>
</event>
<event>
 5    1  0.3316199E-002  0.1249976E+03  0.7818608E-02  0.1235073E+00
          4   -1    0    0  501    0  0.00000000000E+00  0.00000000000E+00  0.53874768265E+01  0.55351428668E+01  0.12700000000E+01 0. -1.
         -4   -1    0    0    0  501 -0.00000000000E+00 -0.00000000000E+00 -0.71508330391E+03  0.71508443168E+03  0.12700000000E+01 0. -1.
         25    2    1    2    0    0  0.00000000000E+00  0.00000000000E+00 -0.70969582709E+03  0.72061957455E+03  0.12499761694E+03 0.  0.
    9000005    1    3    3    0    0  0.63938493244E+01 -0.25575369656E+02 -0.68148460658E+03  0.68199505119E+03  0.10000000000E+01 0.  0.
    9000005    1    3    3    0    0 -0.63938493244E+01  0.25575369656E+02 -0.28211220504E+02  0.38624523357E+02  0.10000000000E+01 0.  0.
<mgrwt>
<rscale>  0 0.12499762E+03</rscale>
<asrwt>0</asrwt>
<pdfrwt beam="1">  1        4 0.84028883E-03 0.12499762E+03</pdfrwt>
<pdfrwt beam="2">  1       -4 0.11002419E+00 0.12499762E+03</pdfrwt>
<totfact> 0.42022528E+03</totfact>
</mgrwt>
</event>
<event>
 5    1  0.3316199E-002  0.1249991E+03  0.7818608E-02  0.1235071E+00
          4   -1    0    0  501    0  0.00000000000E+00  0.00000000000E+00  0.61221094924E+02  0.61234266254E+02  0.12700000000E+01 0. -1.
         -4   -1    0    0    0  501 -0.00000000000E+00 -0.00000000000E+00 -0.63778314452E+02  0.63790957779E+02  0.12700000000E+01 0. -1.
         25    2    1    2    0    0  0.00000000000E+00  0.00000000000E+00 -0.25572195284E+01  0.12502522403E+03  0.12499906909E+03 0.  0.
    9000005    1    3    3    0    0 -0.11616757993E+01 -0.62352015056E+02  0.27307880795E+01  0.62430605281E+02  0.10000000000E+01 0.  0.
    9000005    1    3    3    0    0  0.11616757993E+01  0.62352015056E+02 -0.52880076079E+01  0.62594618752E+02  0.10000000000E+01 0.  0.
<mgrwt>
<rscale>  0 0.12499907E+03</rscale>
<asrwt>0</asrwt>
<pdfrwt beam="1">  1        4 0.94206157E-02 0.12499907E+03</pdfrwt>
<pdfrwt beam="2">  1       -4 0.98140341E-02 0.12499907E+03</pdfrwt>
<totfact> 0.10452535E+04</totfact>
</mgrwt>
</event>
<event>
 5    1  0.3316199E-002  0.1249986E+03  0.7818608E-02  0.1235071E+00
          4   -1    0    0  501    0  0.00000000000E+00  0.00000000000E+00  0.10213189701E+02  0.10291848419E+02  0.12700000000E+01 0.  1.
         -4   -1    0    0    0  501 -0.00000000000E+00 -0.00000000000E+00 -0.38091560177E+03  0.38091771890E+03  0.12700000000E+01 0.  1.
         25    2    1    2    0    0  0.00000000000E+00  0.00000000000E+00 -0.37070241207E+03  0.39120956732E+03  0.12499858899E+03 0.  0.
    9000005    1    3    3    0    0  0.77166962437E+01 -0.48288436894E+02 -0.30712238967E+03  0.31099273750E+03  0.10000000000E+01 0.  0.
    9000005    1    3    3    0    0 -0.77166962437E+01  0.48288436894E+02 -0.63580022398E+02  0.80216829823E+02  0.10000000000E+01 0.  0.
<mgrwt>
<rscale>  0 0.12499859E+03</rscale>
<asrwt>0</asrwt>
<pdfrwt beam="1">  1        4 0.15774738E-02 0.12499859E+03</pdfrwt>
<pdfrwt beam="2">  1       -4 0.58608603E-01 0.12499859E+03</pdfrwt>
<totfact> 0.65418853E+03</totfact>
</mgrwt>
</event>
<event>
 5    1  0.3316199E-002  0.1250012E+03  0.7818608E-02  0.1235067E+00
         -4   -1    0    0    0  501 -0.00000000000E+00  0.00000000000E+00  0.10932492941E+03  0.10933230580E+03  0.12700000000E+01 0. -1.
          4   -1    0    0  501    0  0.00000000000E+00 -0.00000000000E+00 -0.35711457122E+02  0.35734032375E+02  0.12700000000E+01 0. -1.
         25    2    1    2    0    0  0.00000000000E+00  0.00000000000E+00  0.73613472291E+02  0.14506633817E+03  0.12500119667E+03 0.  0.
    9000005    1    3    3    0    0 -0.18140819769E+02  0.35924998855E+02  0.92289160919E+02  0.10068755687E+03  0.10000000000E+01 0.  0.
    9000005    1    3    3    0    0  0.18140819769E+02 -0.35924998855E+02 -0.18675688627E+02  0.44378781307E+02  0.10000000000E+01 0.  0.
<mgrwt>
<rscale>  0 0.12500120E+03</rscale>
<asrwt>0</asrwt>
<pdfrwt beam="2">  1        4 0.54963743E-02 0.12500120E+03</pdfrwt>
<pdfrwt beam="1">  1       -4 0.16821524E-01 0.12500120E+03</pdfrwt>
<totfact> 0.10029370E+04</totfact>
</mgrwt>
</event>
<event>
 5    1  0.3316199E-002  0.1250022E+03  0.7818608E-02  0.1235066E+00
          4   -1    0    0  501    0  0.00000000000E+00  0.00000000000E+00  0.10376290003E+02  0.10453721549E+02  0.12700000000E+01 0. -1.
         -4   -1    0    0    0  501 -0.00000000000E+00 -0.00000000000E+00 -0.37499437261E+03  0.37499652317E+03  0.12700000000E+01 0. -1.
         25    2    1    2    0    0  0.00000000000E+00  0.00000000000E+00 -0.36461808261E+03  0.38545024472E+03  0.12500217994E+03 0.  0.
    9000005    1    3    3    0    0 -0.46628191516E+02 -0.41606809137E+02 -0.18313320112E+03  0.19350473938E+03  0.10000000000E+01 0.  0.
    9000005    1    3    3    0    0  0.46628191516E+02  0.41606809137E+02 -0.18148488149E+03  0.19194550534E+03  0.10000000000E+01 0.  0.
<mgrwt>
<rscale>  0 0.12500218E+03</rscale>
<asrwt>0</asrwt>
<pdfrwt beam="1">  1        4 0.16024743E-02 0.12500218E+03</pdfrwt>
<pdfrwt beam="2">  1       -4 0.57697553E-01 0.12500218E+03</pdfrwt>
<totfact> 0.65989742E+03</totfact>
</mgrwt>
</event>
<event>
 5    1  0.3316199E-002  0.1249923E+03  0.7818608E-02  0.1235081E+00
         -4   -1    0    0    0  501 -0.00000000000E+00  0.00000000000E+00  0.53354081233E+03  0.53354232383E+03  0.12700000000E+01 0. -1.
          4   -1    0    0  501    0  0.00000000000E+00 -0.00000000000E+00 -0.72638497061E+01  0.73740363813E+01  0.12700000000E+01 0. -1.
         25    2    1    2    0    0  0.00000000000E+00  0.00000000000E+00  0.52627696262E+03  0.54091636021E+03  0.12499226920E+03 0.  0.
    9000005    1    3    3    0    0  0.16898232867E+02  0.47547243865E+02  0.10363396805E+03  0.11527050796E+03  0.10000000000E+01 0.  0.
    9000005    1    3    3    0    0 -0.16898232867E+02 -0.47547243865E+02  0.42264299458E+03  0.42564585225E+03  0.10000000000E+01 0.  0.
<mgrwt>
<rscale>  0 0.12499227E+03</rscale>
<asrwt>0</asrwt>
<pdfrwt beam="2">  1        4 0.11261076E-02 0.12499227E+03</pdfrwt>
<pdfrwt beam="1">  1       -4 0.82091789E-01 0.12499227E+03</pdfrwt>
<totfact> 0.52832846E+03</totfact>
</mgrwt>
</event>
<event>
 4    1  0.3316199E-002  0.1250830E+03  0.7818608E-02  0.1234940E+00
         -4   -1    0    0    0  501 -0.00000000000E+00  0.00000000000E+00  0.11178723504E+03  0.11179444896E+03  0.12700000000E+01 0. -1.
          4   -1    0    0  501    0  0.00000000000E+00 -0.00000000000E+00 -0.34970172473E+02  0.34993225956E+02  0.12700000000E+01 0. -1.
    9000005    1    1    2    0    0 -0.14773048527E+02  0.13130533900E+02  0.10803099652E+03  0.10982873072E+03  0.10000000000E+01 0.  0.
    9000005    1    1    2    0    0  0.14773048527E+02 -0.13130533900E+02 -0.31213933950E+02  0.36958944194E+02  0.10000000000E+01 0.  0.
<mgrwt>
<rscale>  0 0.12508301E+03</rscale>
<asrwt>0</asrwt>
<pdfrwt beam="2">  1        4 0.53823549E-02 0.12508301E+03</pdfrwt>
<pdfrwt beam="1">  1       -4 0.17200364E-01 0.12508301E+03</pdfrwt>
<totfact> 0.99761358E+03</totfact>
</mgrwt>
</event>
<event>
 5    1  0.3316199E-002  0.1250012E+03  0.7818608E-02  0.1235067E+00
         -4   -1    0    0    0  501 -0.00000000000E+00  0.00000000000E+00  0.19212459069E+04  0.19212463267E+04  0.12700000000E+01 0.  1.
          4   -1    0    0  501    0  0.00000000000E+00 -0.00000000000E+00 -0.18344448355E+01  0.22311628929E+01  0.12700000000E+01 0.  1.
         25    2    1    2    0    0  0.00000000000E+00  0.00000000000E+00  0.19194114621E+04  0.19234774896E+04  0.12500116835E+03 0.  0.
    9000005    1    3    3    0    0 -0.40945874822E+02  0.28735707172E+02  0.15360799921E+04  0.15368946117E+04  0.10000000000E+01 0.  0.
    9000005    1    3    3    0    0  0.40945874822E+02 -0.28735707172E+02  0.38333147001E+03  0.38658287783E+03  0.10000000000E+01 0.  0.
<mgrwt>
<rscale>  0 0.12500117E+03</rscale>
<asrwt>0</asrwt>
<pdfrwt beam="2">  1        4 0.31277095E-03 0.12500117E+03</pdfrwt>
<pdfrwt beam="1">  1       -4 0.29560721E+00 0.12500117E+03</pdfrwt>
<totfact> 0.10892956E+03</totfact>
</mgrwt>
</event>
<event>
 5    1  0.3316199E-002  0.1250059E+03  0.7818608E-02  0.1235060E+00
          4   -1    0    0  501    0  0.00000000000E+00  0.00000000000E+00  0.61614041212E+01  0.62909300382E+01  0.12700000000E+01 0. -1.
         -4   -1    0    0    0  501 -0.00000000000E+00 -0.00000000000E+00 -0.62732158561E+03  0.62732287115E+03  0.12700000000E+01 0. -1.
         25    2    1    2    0    0  0.00000000000E+00  0.00000000000E+00 -0.62116018149E+03  0.63361380119E+03  0.12500591183E+03 0.  0.
    9000005    1    3    3    0    0 -0.11773594519E+02 -0.54303715757E+02 -0.16560295721E+03  0.17467927900E+03  0.10000000000E+01 0.  0.
    9000005    1    3    3    0    0  0.11773594519E+02  0.54303715757E+02 -0.45555722427E+03  0.45893452219E+03  0.10000000000E+01 0.  0.
<mgrwt>
<rscale>  0 0.12500591E+03</rscale>
<asrwt>0</asrwt>
<pdfrwt beam="1">  1        4 0.95797124E-03 0.12500591E+03</pdfrwt>
<pdfrwt beam="2">  1       -4 0.96521026E-01 0.12500591E+03</pdfrwt>
<totfact> 0.46806260E+03</totfact>
</mgrwt>
</event>
<event>
 5    1  0.3316199E-002  0.1250020E+03  0.7818608E-02  0.1235066E+00
         -4   -1    0    0    0  501 -0.00000000000E+00  0.00000000000E+00  0.74863881108E+02  0.74874652550E+02  0.12700000000E+01 0. -1.
          4   -1    0    0  501    0  0.00000000000E+00 -0.00000000000E+00 -0.52157421520E+02  0.52172881075E+02  0.12700000000E+01 0. -1.
         25    2    1    2    0    0  0.00000000000E+00  0.00000000000E+00  0.22706459587E+02  0.12704753362E+03  0.12500196996E+03 0.  0.
    9000005    1    3    3    0    0 -0.11217620525E+02  0.21531768528E+02  0.69879584159E+02  0.73983838427E+02  0.10000000000E+01 0.  0.
    9000005    1    3    3    0    0  0.11217620525E+02 -0.21531768528E+02 -0.47173124572E+02  0.53063695198E+02  0.10000000000E+01 0.  0.
<mgrwt>
<rscale>  0 0.12500197E+03</rscale>
<asrwt>0</asrwt>
<pdfrwt beam="2">  1        4 0.80262365E-02 0.12500197E+03</pdfrwt>
<pdfrwt beam="1">  1       -4 0.11519538E-01 0.12500197E+03</pdfrwt>
<totfact> 0.10407650E+04</totfact>
</mgrwt>
</event>
<event>
 5    1  0.3316199E-002  0.1250008E+03  0.7818608E-02  0.1235068E+00
          4   -1    0    0  501    0  0.00000000000E+00  0.00000000000E+00  0.33010158269E+02  0.33034579594E+02  0.12700000000E+01 0.  1.
         -4   -1    0    0    0  501 -0.00000000000E+00 -0.00000000000E+00 -0.11826463712E+03  0.11827145595E+03  0.12700000000E+01 0.  1.
         25    2    1    2    0    0  0.00000000000E+00  0.00000000000E+00 -0.85254478850E+02  0.15130603555E+03  0.12500076091E+03 0.  0.
    9000005    1    3    3    0    0  0.18982278999E+02 -0.30683143519E+02 -0.10438956870E+03  0.11045344841E+03  0.10000000000E+01 0.  0.
    9000005    1    3    3    0    0 -0.18982278999E+02  0.30683143519E+02  0.19135089849E+02  0.40852587137E+02  0.10000000000E+01 0.  0.
<mgrwt>
<rscale>  0 0.12500076E+03</rscale>
<asrwt>0</asrwt>
<pdfrwt beam="1">  1        4 0.50808890E-02 0.12500076E+03</pdfrwt>
<pdfrwt beam="2">  1       -4 0.18196962E-01 0.12500076E+03</pdfrwt>
<totfact> 0.99042298E+03</totfact>
</mgrwt>
</event>
<event>
 5    1  0.3316199E-002  0.1250090E+03  0.7818608E-02  0.1235055E+00
         -4   -1    0    0    0  501 -0.00000000000E+00  0.00000000000E+00  0.15379807751E+03  0.15380332099E+03  0.12700000000E+01 0. -1.
          4   -1    0    0  501    0  0.00000000000E+00 -0.00000000000E+00 -0.25380681027E+02  0.25412435330E+02  0.12700000000E+01 0. -1.
         25    2    1    2    0    0  0.00000000000E+00  0.00000000000E+00  0.12841739649E+03  0.17921575632E+03  0.12500903804E+03 0.  0.
    9000005    1    3    3    0    0 -0.24187610869E+02  0.29192184261E+02  0.13543810469E+03  0.14064744698E+03  0.10000000000E+01 0.  0.
    9000005    1    3    3    0    0  0.24187610869E+02 -0.29192184261E+02 -0.70207081992E+01  0.38568309336E+02  0.10000000000E+01 0.  0.
<mgrwt>
<rscale>  0 0.12500904E+03</rscale>
<asrwt>0</asrwt>
<pdfrwt beam="2">  1        4 0.39075662E-02 0.12500904E+03</pdfrwt>
<pdfrwt beam="1">  1       -4 0.23664088E-01 0.12500904E+03</pdfrwt>
<totfact> 0.93739361E+03</totfact>
</mgrwt>
</event>
<event>
 5    1  0.3316199E-002  0.1250010E+03  0.7818608E-02  0.1235068E+00
          4   -1    0    0  501    0  0.00000000000E+00  0.00000000000E+00  0.82954798941E+01  0.83921324270E+01  0.12700000000E+01 0.  1.
         -4   -1    0    0    0  501 -0.00000000000E+00 -0.00000000000E+00 -0.46807146621E+03  0.46807318913E+03  0.12700000000E+01 0.  1.
         25    2    1    2    0    0  0.00000000000E+00  0.00000000000E+00 -0.45977598632E+03  0.47646532156E+03  0.12500098020E+03 0.  0.
    9000005    1    3    3    0    0 -0.38854709070E+02 -0.42207345502E+02 -0.32435053844E+03  0.32938642992E+03  0.10000000000E+01 0.  0.
    9000005    1    3    3    0    0  0.38854709070E+02  0.42207345502E+02 -0.13542544788E+03  0.14707889163E+03  0.10000000000E+01 0.  0.
<mgrwt>
<rscale>  0 0.12500098E+03</rscale>
<asrwt>0</asrwt>
<pdfrwt beam="1">  1        4 0.12837954E-02 0.12500098E+03</pdfrwt>
<pdfrwt beam="2">  1       -4 0.72018541E-01 0.12500098E+03</pdfrwt>
<totfact> 0.57736514E+03</totfact>
</mgrwt>
</event>
<event>
 5    1  0.3316199E-002  0.1249989E+03  0.7818608E-02  0.1235071E+00
         -4   -1    0    0    0  501 -0.00000000000E+00  0.00000000000E+00  0.31985935579E+02  0.32011138293E+02  0.12700000000E+01 0. -1.
          4   -1    0    0  501    0  0.00000000000E+00 -0.00000000000E+00 -0.12204524394E+03  0.12205185155E+03  0.12700000000E+01 0. -1.
         25    2    1    2    0    0  0.00000000000E+00  0.00000000000E+00 -0.90059308359E+02  0.15406298985E+03  0.12499890327E+03 0.  0.
    9000005    1    3    3    0    0 -0.50896062117E+02 -0.39271906989E+01 -0.60182338019E+00  0.51060690919E+02  0.10000000000E+01 0.  0.
    9000005    1    3    3    0    0  0.50896062117E+02  0.39271906989E+01 -0.89457484979E+02  0.10300229893E+03  0.10000000000E+01 0.  0.
<mgrwt>
<rscale>  0 0.12499890E+03</rscale>
<asrwt>0</asrwt>
<pdfrwt beam="2">  1        4 0.18778638E-01 0.12499890E+03</pdfrwt>
<pdfrwt beam="1">  1       -4 0.49233602E-02 0.12499890E+03</pdfrwt>
<totfact> 0.98502190E+03</totfact>
</mgrwt>
</event>
<event>
 5    1  0.3316199E-002  0.1249987E+03  0.7818608E-02  0.1235071E+00
         -4   -1    0    0    0  501 -0.00000000000E+00  0.00000000000E+00  0.33898953499E+02  0.33922734977E+02  0.12700000000E+01 0. -1.
          4   -1    0    0  501    0  0.00000000000E+00 -0.00000000000E+00 -0.11516216714E+03  0.11516916966E+03  0.12700000000E+01 0. -1.
         25    2    1    2    0    0  0.00000000000E+00  0.00000000000E+00 -0.81263213642E+02  0.14909190464E+03  0.12499874454E+03 0.  0.
    9000005    1    3    3    0    0 -0.56601216122E+02  0.24061319219E+02 -0.27428871055E+02  0.67349741769E+02  0.10000000000E+01 0.  0.
    9000005    1    3    3    0    0  0.56601216122E+02 -0.24061319219E+02 -0.53834342588E+02  0.81742162871E+02  0.10000000000E+01 0.  0.
<mgrwt>
<rscale>  0 0.12499874E+03</rscale>
<asrwt>0</asrwt>
<pdfrwt beam="2">  1        4 0.17719624E-01 0.12499874E+03</pdfrwt>
<pdfrwt beam="1">  1       -4 0.52175917E-02 0.12499874E+03</pdfrwt>
<totfact> 0.99487833E+03</totfact>
</mgrwt>
</event>
<event>
 5    1  0.3316199E-002  0.1249984E+03  0.7818608E-02  0.1235072E+00
         -4   -1    0    0    0  501 -0.00000000000E+00  0.00000000000E+00  0.15172672182E+02  0.15225730891E+02  0.12700000000E+01 0.  1.
          4   -1    0    0  501    0  0.00000000000E+00 -0.00000000000E+00 -0.25694259383E+03  0.25694573245E+03  0.12700000000E+01 0.  1.
         25    2    1    2    0    0  0.00000000000E+00  0.00000000000E+00 -0.24176992165E+03  0.27217146334E+03  0.12499844176E+03 0.  0.
    9000005    1    3    3    0    0 -0.30649830325E+02 -0.32598799001E+01 -0.23925044706E+03  0.24122979777E+03  0.10000000000E+01 0.  0.
    9000005    1    3    3    0    0  0.30649830325E+02  0.32598799001E+01 -0.25194745900E+01  0.30941665568E+02  0.10000000000E+01 0.  0.
<mgrwt>
<rscale>  0 0.12499844E+03</rscale>
<asrwt>0</asrwt>
<pdfrwt beam="2">  1        4 0.39533950E-01 0.12499844E+03</pdfrwt>
<pdfrwt beam="1">  1       -4 0.23385803E-02 0.12499844E+03</pdfrwt>
<totfact> 0.79230443E+03</totfact>
</mgrwt>
</event>
<event>
 5    1  0.3316199E-002  0.1249964E+03  0.7818608E-02  0.1235075E+00
          4   -1    0    0  501    0  0.00000000000E+00  0.00000000000E+00  0.71379792396E+02  0.71391089518E+02  0.12700000000E+01 0.  1.
         -4   -1    0    0    0  501 -0.00000000000E+00 -0.00000000000E+00 -0.54698711149E+02  0.54713452654E+02  0.12700000000E+01 0.  1.
         25    2    1    2    0    0  0.00000000000E+00  0.00000000000E+00  0.16681081248E+02  0.12610454217E+03  0.12499638829E+03 0.  0.
    9000005    1    3    3    0    0 -0.14399890630E+02 -0.39487614756E+02 -0.38312215058E+02  0.56881054772E+02  0.10000000000E+01 0.  0.
    9000005    1    3    3    0    0  0.14399890630E+02  0.39487614756E+02  0.54993296306E+02  0.69223487400E+02  0.10000000000E+01 0.  0.
<mgrwt>
<rscale>  0 0.12499639E+03</rscale>
<asrwt>0</asrwt>
<pdfrwt beam="1">  1        4 0.10983509E-01 0.12499639E+03</pdfrwt>
<pdfrwt beam="2">  1       -4 0.84171894E-02 0.12499639E+03</pdfrwt>
<totfact> 0.10429517E+04</totfact>
</mgrwt>
</event>
<event>
 5    1  0.3316199E-002  0.1250043E+03  0.7818608E-02  0.1235063E+00
         -4   -1    0    0    0  501 -0.00000000000E+00  0.00000000000E+00  0.24869291630E+03  0.24869615904E+03  0.12700000000E+01 0. -1.
          4   -1    0    0  501    0  0.00000000000E+00 -0.00000000000E+00 -0.15679191935E+02  0.15730542258E+02  0.12700000000E+01 0. -1.
         25    2    1    2    0    0  0.00000000000E+00  0.00000000000E+00  0.23301372437E+03  0.26442670129E+03  0.12500433838E+03 0.  0.
    9000005    1    3    3    0    0 -0.45809345525E+02 -0.14724871436E+02  0.32152697374E+02  0.57880168665E+02  0.10000000000E+01 0.  0.
    9000005    1    3    3    0    0  0.45809345525E+02  0.14724871436E+02  0.20086102699E+03  0.20654653263E+03  0.10000000000E+01 0.  0.
<mgrwt>
<rscale>  0 0.12500434E+03</rscale>
<asrwt>0</asrwt>
<pdfrwt beam="2">  1        4 0.24163829E-02 0.12500434E+03</pdfrwt>
<pdfrwt beam="1">  1       -4 0.38264648E-01 0.12500434E+03</pdfrwt>
<totfact> 0.80281071E+03</totfact>
</mgrwt>
</event>
<event>
 5    1  0.3316199E-002  0.1249978E+03  0.7818608E-02  0.1235073E+00
          4   -1    0    0  501    0  0.00000000000E+00  0.00000000000E+00  0.70713222964E+02  0.70724626559E+02  0.12700000000E+01 0. -1.
         -4   -1    0    0    0  501 -0.00000000000E+00 -0.00000000000E+00 -0.55215621934E+02  0.55230225470E+02  0.12700000000E+01 0. -1.
         25    2    1    2    0    0  0.00000000000E+00  0.00000000000E+00  0.15497601030E+02  0.12595485203E+03  0.12499779643E+03 0.  0.
    9000005    1    3    3    0    0 -0.44059179495E+02 -0.30091059824E+02  0.40531403235E+02  0.67011027655E+02  0.10000000000E+01 0.  0.
    9000005    1    3    3    0    0  0.44059179495E+02  0.30091059824E+02 -0.25033802205E+02  0.58943824375E+02  0.10000000000E+01 0.  0.
<mgrwt>
<rscale>  0 0.12499780E+03</rscale>
<asrwt>0</asrwt>
<pdfrwt beam="1">  1        4 0.10880958E-01 0.12499780E+03</pdfrwt>
<pdfrwt beam="2">  1       -4 0.84967116E-02 0.12499780E+03</pdfrwt>
<totfact> 0.10432465E+04</totfact>
</mgrwt>
</event>
<event>
 5    1  0.3316199E-002  0.1250007E+03  0.7818608E-02  0.1235068E+00
         -4   -1    0    0    0  501 -0.00000000000E+00  0.00000000000E+00  0.75830482631E+02  0.75841116790E+02  0.12700000000E+01 0.  1.
          4   -1    0    0  501    0  0.00000000000E+00 -0.00000000000E+00 -0.51491424254E+02  0.51507083704E+02  0.12700000000E+01 0.  1.
         25    2    1    2    0    0  0.00000000000E+00  0.00000000000E+00  0.24339058377E+02  0.12734820049E+03  0.12500069762E+03 0.  0.
    9000005    1    3    3    0    0  0.41831247766E+02  0.41008836389E+02  0.34343284054E+02  0.67911995341E+02  0.10000000000E+01 0.  0.
    9000005    1    3    3    0    0 -0.41831247766E+02 -0.41008836389E+02 -0.10004225677E+02  0.59436205153E+02  0.10000000000E+01 0.  0.
<mgrwt>
<rscale>  0 0.12500070E+03</rscale>
<asrwt>0</asrwt>
<pdfrwt beam="2">  1        4 0.79237801E-02 0.12500070E+03</pdfrwt>
<pdfrwt beam="1">  1       -4 0.11668251E-01 0.12500070E+03</pdfrwt>
<totfact> 0.10401426E+04</totfact>
</mgrwt>
</event>
<event>
 5    1  0.3316199E-002  0.1250038E+03  0.7818608E-02  0.1235063E+00
         -4   -1    0    0    0  501 -0.00000000000E+00  0.00000000000E+00  0.15980160618E+02  0.16030546883E+02  0.12700000000E+01 0. -1.
          4   -1    0    0  501    0  0.00000000000E+00 -0.00000000000E+00 -0.24402171069E+03  0.24402501549E+03  0.12700000000E+01 0. -1.
         25    2    1    2    0    0  0.00000000000E+00  0.00000000000E+00 -0.22804155007E+03  0.26005556238E+03  0.12500378780E+03 0.  0.
    9000005    1    3    3    0    0 -0.27232712999E+02  0.55907679153E+02 -0.12687839011E+03  0.14130256587E+03  0.10000000000E+01 0.  0.
    9000005    1    3    3    0    0  0.27232712999E+02 -0.55907679153E+02 -0.10116315996E+03  0.11875299650E+03  0.10000000000E+01 0.  0.
<mgrwt>
<rscale>  0 0.12500379E+03</rscale>
<asrwt>0</asrwt>
<pdfrwt beam="2">  1        4 0.37545929E-01 0.12500379E+03</pdfrwt>
<pdfrwt beam="1">  1       -4 0.24626165E-02 0.12500379E+03</pdfrwt>
<totfact> 0.80891445E+03</totfact>
</mgrwt>
</event>
<event>
 5    1  0.3316199E-002  0.1249747E+03  0.7818608E-02  0.1235109E+00
          4   -1    0    0  501    0  0.00000000000E+00  0.00000000000E+00  0.67271202728E+02  0.67283189701E+02  0.12700000000E+01 0.  1.
         -4   -1    0    0    0  501 -0.00000000000E+00 -0.00000000000E+00 -0.58019551275E+02  0.58033449235E+02  0.12700000000E+01 0.  1.
         25    2    1    2    0    0  0.00000000000E+00  0.00000000000E+00  0.92516514529E+01  0.12531663894E+03  0.12497466519E+03 0.  0.
    9000005    1    3    3    0    0  0.45895415734E+02  0.38174571688E+02 -0.13863164900E+02  0.61293347518E+02  0.10000000000E+01 0.  0.
    9000005    1    3    3    0    0 -0.45895415734E+02 -0.38174571688E+02  0.23114816353E+02  0.64023291418E+02  0.10000000000E+01 0.  0.
<mgrwt>
<rscale>  0 0.12497467E+03</rscale>
<asrwt>0</asrwt>
<pdfrwt beam="1">  1        4 0.10351407E-01 0.12497467E+03</pdfrwt>
<pdfrwt beam="2">  1       -4 0.89280761E-02 0.12497467E+03</pdfrwt>
<totfact> 0.10451972E+04</totfact>
</mgrwt>
</event>
<event>
 5    1  0.3316199E-002  0.1250009E+03  0.7818608E-02  0.1235068E+00
         -4   -1    0    0    0  501 -0.00000000000E+00  0.00000000000E+00  0.71196288987E+02  0.71207615221E+02  0.12700000000E+01 0.  1.
          4   -1    0    0  501    0  0.00000000000E+00 -0.00000000000E+00 -0.54843676032E+02  0.54858378583E+02  0.12700000000E+01 0.  1.
         25    2    1    2    0    0  0.00000000000E+00  0.00000000000E+00  0.16352612955E+02  0.12606599380E+03  0.12500090737E+03 0.  0.
    9000005    1    3    3    0    0  0.39180648114E+02  0.19920365007E+02  0.52977360415E+02  0.68844352311E+02  0.10000000000E+01 0.  0.
    9000005    1    3    3    0    0 -0.39180648114E+02 -0.19920365007E+02 -0.36624747460E+02  0.57221641493E+02  0.10000000000E+01 0.  0.
<mgrwt>
<rscale>  0 0.12500091E+03</rscale>
<asrwt>0</asrwt>
<pdfrwt beam="2">  1        4 0.84394909E-02 0.12500091E+03</pdfrwt>
<pdfrwt beam="1">  1       -4 0.10955277E-01 0.12500091E+03</pdfrwt>
<totfact> 0.10429298E+04</totfact>
</mgrwt>
</event>
<event>
 5    1  0.3316199E-002  0.1249993E+03  0.7818608E-02  0.1235070E+00
         -4   -1    0    0    0  501 -0.00000000000E+00  0.00000000000E+00  0.79042528303E+02  0.79052730380E+02  0.12700000000E+01 0. -1.
          4   -1    0    0  501    0  0.00000000000E+00 -0.00000000000E+00 -0.49397515392E+02  0.49413838415E+02  0.12700000000E+01 0. -1.
         25    2    1    2    0    0  0.00000000000E+00  0.00000000000E+00  0.29645012911E+02  0.12846656879E+03  0.12499933003E+03 0.  0.
    9000005    1    3    3    0    0 -0.56620957861E+02  0.93553907307E+01 -0.10597175396E+02  0.58367425258E+02  0.10000000000E+01 0.  0.
    9000005    1    3    3    0    0  0.56620957861E+02 -0.93553907307E+01  0.40242188307E+02  0.70099143537E+02  0.10000000000E+01 0.  0.
<mgrwt>
<rscale>  0 0.12499933E+03</rscale>
<asrwt>0</asrwt>
<pdfrwt beam="2">  1        4 0.76016582E-02 0.12499933E+03</pdfrwt>
<pdfrwt beam="1">  1       -4 0.12162429E-01 0.12499933E+03</pdfrwt>
<totfact> 0.10377581E+04</totfact>
</mgrwt>
</event>
<event>
 5    1  0.3316199E-002  0.1250050E+03  0.7818608E-02  0.1235061E+00
          4   -1    0    0  501    0  0.00000000000E+00  0.00000000000E+00  0.18603333068E+03  0.18603766560E+03  0.12700000000E+01 0.  1.
         -4   -1    0    0    0  501 -0.00000000000E+00 -0.00000000000E+00 -0.20975474315E+02  0.21013886426E+02  0.12700000000E+01 0.  1.
         25    2    1    2    0    0  0.00000000000E+00  0.00000000000E+00  0.16505785636E+03  0.20705155203E+03  0.12500499690E+03 0.  0.
    9000005    1    3    3    0    0  0.74907386676E+01  0.52029249908E+02  0.26545203210E+02  0.58896534917E+02  0.10000000000E+01 0.  0.
    9000005    1    3    3    0    0 -0.74907386676E+01 -0.52029249908E+02  0.13851265315E+03  0.14815501711E+03  0.10000000000E+01 0.  0.
<mgrwt>
<rscale>  0 0.12500500E+03</rscale>
<asrwt>0</asrwt>
<pdfrwt beam="1">  1        4 0.28623801E-01 0.12500500E+03</pdfrwt>
<pdfrwt beam="2">  1       -4 0.32302842E-02 0.12500500E+03</pdfrwt>
<totfact> 0.88949735E+03</totfact>
</mgrwt>
</event>
<event>
 5    1  0.3316199E-002  0.1249983E+03  0.7818608E-02  0.1235072E+00
         -4   -1    0    0    0  501 -0.00000000000E+00  0.00000000000E+00  0.10332553973E+04  0.10332561778E+04  0.12700000000E+01 0. -1.
          4   -1    0    0  501    0  0.00000000000E+00 -0.00000000000E+00 -0.36729582131E+01  0.38863250038E+01  0.12700000000E+01 0. -1.
         25    2    1    2    0    0  0.00000000000E+00  0.00000000000E+00  0.10295824391E+04  0.10371425028E+04  0.12499828892E+03 0.  0.
    9000005    1    3    3    0    0 -0.31773533556E+02 -0.33469109671E+02  0.86440053866E+03  0.86563215628E+03  0.10000000000E+01 0.  0.
    9000005    1    3    3    0    0  0.31773533556E+02  0.33469109671E+02  0.16518190044E+03  0.17151034654E+03  0.10000000000E+01 0.  0.
<mgrwt>
<rscale>  0 0.12499829E+03</rscale>
<asrwt>0</asrwt>
<pdfrwt beam="2">  1        4 0.58154282E-03 0.12499829E+03</pdfrwt>
<pdfrwt beam="1">  1       -4 0.15897899E+00 0.12499829E+03</pdfrwt>
<totfact> 0.29400715E+03</totfact>
</mgrwt>
</event>
<event>
 5    1  0.3316199E-002  0.1249981E+03  0.7818608E-02  0.1235072E+00
         -4   -1    0    0    0  501 -0.00000000000E+00  0.00000000000E+00  0.41058556044E+01  0.42977843413E+01  0.12700000000E+01 0. -1.
          4   -1    0    0  501    0  0.00000000000E+00 -0.00000000000E+00 -0.92943539053E+03  0.92943625820E+03  0.12700000000E+01 0. -1.
         25    2    1    2    0    0  0.00000000000E+00  0.00000000000E+00 -0.92532953492E+03  0.93373404254E+03  0.12499805602E+03 0.  0.
    9000005    1    3    3    0    0  0.23949848129E+02 -0.17054086486E+02 -0.87457834516E+03  0.87507297919E+03  0.10000000000E+01 0.  0.
    9000005    1    3    3    0    0 -0.23949848129E+02  0.17054086486E+02 -0.50751189764E+02  0.58661063353E+02  0.10000000000E+01 0.  0.
<mgrwt>
<rscale>  0 0.12499806E+03</rscale>
<asrwt>0</asrwt>
<pdfrwt beam="2">  1        4 0.14300473E+00 0.12499806E+03</pdfrwt>
<pdfrwt beam="1">  1       -4 0.64650133E-03 0.12499806E+03</pdfrwt>
<totfact> 0.32902043E+03</totfact>
</mgrwt>
</event>
<event>
 5    1  0.3316199E-002  0.1249950E+03  0.7818608E-02  0.1235077E+00
          4   -1    0    0  501    0  0.00000000000E+00  0.00000000000E+00  0.98142186042E+02  0.98150402857E+02  0.12700000000E+01 0.  1.
         -4   -1    0    0    0  501 -0.00000000000E+00 -0.00000000000E+00 -0.39778752519E+02  0.39799020742E+02  0.12700000000E+01 0.  1.
         25    2    1    2    0    0  0.00000000000E+00  0.00000000000E+00  0.58363433522E+02  0.13794942360E+03  0.12499501230E+03 0.  0.
    9000005    1    3    3    0    0  0.91724425644E+01  0.60727205697E+02  0.41910036734E+02  0.74359790165E+02  0.10000000000E+01 0.  0.
    9000005    1    3    3    0    0 -0.91724425644E+01 -0.60727205697E+02  0.16453396789E+02  0.63589633434E+02  0.10000000000E+01 0.  0.
<mgrwt>
<rscale>  0 0.12499501E+03</rscale>
<asrwt>0</asrwt>
<pdfrwt beam="1">  1        4 0.15100989E-01 0.12499501E+03</pdfrwt>
<pdfrwt beam="2">  1       -4 0.61219993E-02 0.12499501E+03</pdfrwt>
<totfact> 0.10177407E+04</totfact>
</mgrwt>
</event>
<event>
 5    1  0.3316199E-002  0.1249983E+03  0.7818608E-02  0.1235072E+00
         -4   -1    0    0    0  501 -0.00000000000E+00  0.00000000000E+00  0.12104240364E+02  0.12170683415E+02  0.12700000000E+01 0.  1.
          4   -1    0    0  501    0  0.00000000000E+00 -0.00000000000E+00 -0.32175764505E+03  0.32176015143E+03  0.12700000000E+01 0.  1.
         25    2    1    2    0    0  0.00000000000E+00  0.00000000000E+00 -0.30965340469E+03  0.33393083485E+03  0.12499828569E+03 0.  0.
    9000005    1    3    3    0    0  0.41600264152E+02 -0.43649096055E+02 -0.11098528496E+03  0.12631135753E+03  0.10000000000E+01 0.  0.
    9000005    1    3    3    0    0 -0.41600264152E+02  0.43649096055E+02 -0.19866811973E+03  0.20761947731E+03  0.10000000000E+01 0.  0.
<mgrwt>
<rscale>  0 0.12499829E+03</rscale>
<asrwt>0</asrwt>
<pdfrwt beam="2">  1        4 0.49506474E-01 0.12499829E+03</pdfrwt>
<pdfrwt beam="1">  1       -4 0.18674949E-02 0.12499829E+03</pdfrwt>
<totfact> 0.71532026E+03</totfact>
</mgrwt>
</event>
<event>
 5    1  0.3316199E-002  0.1250014E+03  0.7818608E-02  0.1235067E+00
          4   -1    0    0  501    0  0.00000000000E+00  0.00000000000E+00  0.10664284827E+03  0.10665041016E+03  0.12700000000E+01 0. -1.
         -4   -1    0    0    0  501 -0.00000000000E+00 -0.00000000000E+00 -0.36610208362E+02  0.36632229748E+02  0.12700000000E+01 0. -1.
         25    2    1    2    0    0  0.00000000000E+00  0.00000000000E+00  0.70032639906E+02  0.14328263990E+03  0.12500137698E+03 0.  0.
    9000005    1    3    3    0    0  0.54854575234E+02  0.10925284073E+02  0.66966643361E+02  0.87257765152E+02  0.10000000000E+01 0.  0.
    9000005    1    3    3    0    0 -0.54854575234E+02 -0.10925284073E+02  0.30659965448E+01  0.56024874753E+02  0.10000000000E+01 0.  0.
<mgrwt>
<rscale>  0 0.12500138E+03</rscale>
<asrwt>0</asrwt>
<pdfrwt beam="1">  1        4 0.16408868E-01 0.12500138E+03</pdfrwt>
<pdfrwt beam="2">  1       -4 0.56346154E-02 0.12500138E+03</pdfrwt>
<totfact> 0.10065686E+04</totfact>
</mgrwt>
</event>
<event>
 5    1  0.3316199E-002  0.1250026E+03  0.7818608E-02  0.1235065E+00
         -4   -1    0    0    0  501 -0.00000000000E+00  0.00000000000E+00  0.10575549249E+03  0.10576311783E+03  0.12700000000E+01 0.  1.
          4   -1    0    0  501    0  0.00000000000E+00 -0.00000000000E+00 -0.36918286675E+02  0.36940124405E+02  0.12700000000E+01 0.  1.
         25    2    1    2    0    0  0.00000000000E+00  0.00000000000E+00  0.68837205818E+02  0.14270324223E+03  0.12500261773E+03 0.  0.
    9000005    1    3    3    0    0  0.25301143519E+01 -0.58617030996E+02  0.98527752569E+01  0.59501554448E+02  0.10000000000E+01 0.  0.
    9000005    1    3    3    0    0 -0.25301143519E+01  0.58617030996E+02  0.58984430561E+02  0.83201687783E+02  0.10000000000E+01 0.  0.
<mgrwt>
<rscale>  0 0.12500262E+03</rscale>
<asrwt>0</asrwt>
<pdfrwt beam="2">  1        4 0.56820029E-02 0.12500262E+03</pdfrwt>
<pdfrwt beam="1">  1       -4 0.16272342E-01 0.12500262E+03</pdfrwt>
<totfact> 0.10077270E+04</totfact>
</mgrwt>
</event>
<event>
 5    1  0.3316199E-002  0.1250031E+03  0.7818608E-02  0.1235064E+00
         -4   -1    0    0    0  501 -0.00000000000E+00  0.00000000000E+00  0.45221523861E+02  0.45239353668E+02  0.12700000000E+01 0. -1.
          4   -1    0    0  501    0  0.00000000000E+00 -0.00000000000E+00 -0.86345039686E+02  0.86354379034E+02  0.12700000000E+01 0. -1.
         25    2    1    2    0    0  0.00000000000E+00  0.00000000000E+00 -0.41123515825E+02  0.13159373270E+03  0.12500306769E+03 0.  0.
    9000005    1    3    3    0    0 -0.57689123086E+02 -0.66172524355E+01  0.37563671752E+01  0.58197364601E+02  0.10000000000E+01 0.  0.
    9000005    1    3    3    0    0  0.57689123086E+02  0.66172524355E+01 -0.44879883000E+02  0.73396368100E+02  0.10000000000E+01 0.  0.
<mgrwt>
<rscale>  0 0.12500307E+03</rscale>
<asrwt>0</asrwt>
<pdfrwt beam="2">  1        4 0.13285942E-01 0.12500307E+03</pdfrwt>
<pdfrwt beam="1">  1       -4 0.69592475E-02 0.12500307E+03</pdfrwt>
<totfact> 0.10309664E+04</totfact>
</mgrwt>
</event>
<event>
 5    1  0.3316199E-002  0.1249993E+03  0.7818608E-02  0.1235070E+00
         -4   -1    0    0    0  501 -0.00000000000E+00  0.00000000000E+00  0.67506308457E+02  0.67518253691E+02  0.12700000000E+01 0.  1.
          4   -1    0    0  501    0  0.00000000000E+00 -0.00000000000E+00 -0.57840237740E+02  0.57854178775E+02  0.12700000000E+01 0.  1.
         25    2    1    2    0    0  0.00000000000E+00  0.00000000000E+00  0.96660707176E+01  0.12537243247E+03  0.12499925560E+03 0.  0.
    9000005    1    3    3    0    0 -0.12472528328E+02 -0.22035519452E+02  0.62135686621E+02  0.67104184909E+02  0.10000000000E+01 0.  0.
    9000005    1    3    3    0    0  0.12472528328E+02  0.22035519452E+02 -0.52469615903E+02  0.58268247558E+02  0.10000000000E+01 0.  0.
<mgrwt>
<rscale>  0 0.12499926E+03</rscale>
<asrwt>0</asrwt>
<pdfrwt beam="2">  1        4 0.89004893E-02 0.12499926E+03</pdfrwt>
<pdfrwt beam="1">  1       -4 0.10387577E-01 0.12499926E+03</pdfrwt>
<totfact> 0.10444953E+04</totfact>
</mgrwt>
</event>
<event>
 5    1  0.3316199E-002  0.1250014E+03  0.7818608E-02  0.1235067E+00
         -4   -1    0    0    0  501 -0.00000000000E+00  0.00000000000E+00  0.54687813383E+03  0.54687960847E+03  0.12700000000E+01 0. -1.
          4   -1    0    0  501    0  0.00000000000E+00 -0.00000000000E+00 -0.70850260673E+01  0.71979507066E+01  0.12700000000E+01 0. -1.
         25    2    1    2    0    0  0.00000000000E+00  0.00000000000E+00  0.53979310776E+03  0.55407755918E+03  0.12500136958E+03 0.  0.
    9000005    1    3    3    0    0  0.14048832237E+02  0.43968635510E+02  0.45662966099E+03  0.45895779533E+03  0.10000000000E+01 0.  0.
    9000005    1    3    3    0    0 -0.14048832237E+02 -0.43968635510E+02  0.83163446773E+02  0.95119763851E+02  0.10000000000E+01 0.  0.
<mgrwt>
<rscale>  0 0.12500137E+03</rscale>
<asrwt>0</asrwt>
<pdfrwt beam="2">  1        4 0.10988039E-02 0.12500137E+03</pdfrwt>
<pdfrwt beam="1">  1       -4 0.84143903E-01 0.12500137E+03</pdfrwt>
<totfact> 0.51899335E+03</totfact>
</mgrwt>
</event>
<event>
 5    1  0.3316199E-002  0.1249858E+03  0.7818608E-02  0.1235092E+00
          4   -1    0    0  501    0  0.00000000000E+00  0.00000000000E+00  0.12116877696E+02  0.12183251828E+02  0.12700000000E+01 0. -1.
         -4   -1    0    0    0  501 -0.00000000000E+00 -0.00000000000E+00 -0.32135948415E+03  0.32136199363E+03  0.12700000000E+01 0. -1.
         25    2    1    2    0    0  0.00000000000E+00  0.00000000000E+00 -0.30924260645E+03  0.33354524546E+03  0.12498576369E+03 0.  0.
    9000005    1    3    3    0    0  0.28385744990E+02 -0.35689795249E+02 -0.26862202137E+03  0.27246706658E+03  0.10000000000E+01 0.  0.
    9000005    1    3    3    0    0 -0.28385744990E+02  0.35689795249E+02 -0.40620585084E+02  0.61078178886E+02  0.10000000000E+01 0.  0.
<mgrwt>
<rscale>  0 0.12498576E+03</rscale>
<asrwt>0</asrwt>
<pdfrwt beam="1">  1        4 0.18694340E-02 0.12498576E+03</pdfrwt>
<pdfrwt beam="2">  1       -4 0.49445213E-01 0.12498576E+03</pdfrwt>
<totfact> 0.71596118E+03</totfact>
</mgrwt>
</event>
<event>
 5    1  0.3316199E-002  0.1250024E+03  0.7818608E-02  0.1235066E+00
         -4   -1    0    0    0  501 -0.00000000000E+00  0.00000000000E+00  0.63917535374E+01  0.65167026388E+01  0.12700000000E+01 0. -1.
          4   -1    0    0  501    0  0.00000000000E+00 -0.00000000000E+00 -0.60512074621E+03  0.60512207892E+03  0.12700000000E+01 0. -1.
         25    2    1    2    0    0  0.00000000000E+00  0.00000000000E+00 -0.59872899267E+03  0.61163878156E+03  0.12500236973E+03 0.  0.
    9000005    1    3    3    0    0  0.52202483482E+02 -0.41157131837E+01 -0.46625582877E+03  0.46918816720E+03  0.10000000000E+01 0.  0.
    9000005    1    3    3    0    0 -0.52202483482E+02  0.41157131837E+01 -0.13247316390E+03  0.14245061436E+03  0.10000000000E+01 0.  0.
<mgrwt>
<rscale>  0 0.12500237E+03</rscale>
<asrwt>0</asrwt>
<pdfrwt beam="2">  1        4 0.93105169E-01 0.12500237E+03</pdfrwt>
<pdfrwt beam="1">  1       -4 0.99306116E-03 0.12500237E+03</pdfrwt>
<totfact> 0.48138600E+03</totfact>
</mgrwt>
</event>
<event>
 5    1  0.3316199E-002  0.1250056E+03  0.7818608E-02  0.1235061E+00
         -4   -1    0    0    0  501 -0.00000000000E+00  0.00000000000E+00  0.43168763764E+02  0.43187441055E+02  0.12700000000E+01 0.  1.
          4   -1    0    0  501    0  0.00000000000E+00 -0.00000000000E+00 -0.90453294880E+02  0.90462210091E+02  0.12700000000E+01 0.  1.
         25    2    1    2    0    0  0.00000000000E+00  0.00000000000E+00 -0.47284531116E+02  0.13364965115E+03  0.12500560935E+03 0.  0.
    9000005    1    3    3    0    0 -0.51848679619E+02 -0.32888092341E+02 -0.36096289109E+02  0.71230992436E+02  0.10000000000E+01 0.  0.
    9000005    1    3    3    0    0  0.51848679619E+02  0.32888092341E+02 -0.11188242006E+02  0.62418658710E+02  0.10000000000E+01 0.  0.
<mgrwt>
<rscale>  0 0.12500561E+03</rscale>
<asrwt>0</asrwt>
<pdfrwt beam="2">  1        4 0.13918014E-01 0.12500561E+03</pdfrwt>
<pdfrwt beam="1">  1       -4 0.66434708E-02 0.12500561E+03</pdfrwt>
<totfact> 0.10265313E+04</totfact>
</mgrwt>
</event>
<event>
 5    1  0.3316199E-002  0.1249983E+03  0.7818608E-02  0.1235072E+00
          4   -1    0    0  501    0  0.00000000000E+00  0.00000000000E+00  0.51428221463E+01  0.52973124911E+01  0.12700000000E+01 0. -1.
         -4   -1    0    0    0  501 -0.00000000000E+00 -0.00000000000E+00 -0.74813884228E+03  0.74813992022E+03  0.12700000000E+01 0. -1.
         25    2    1    2    0    0  0.00000000000E+00  0.00000000000E+00 -0.74299602014E+03  0.75343723272E+03  0.12499831080E+03 0.  0.
    9000005    1    3    3    0    0  0.10298510635E+02  0.38104642111E+02 -0.79479281177E+02  0.88746713788E+02  0.10000000000E+01 0.  0.
    9000005    1    3    3    0    0 -0.10298510635E+02 -0.38104642111E+02 -0.66351673896E+03  0.66469051893E+03  0.10000000000E+01 0.  0.
<mgrwt>
<rscale>  0 0.12499831E+03</rscale>
<asrwt>0</asrwt>
<pdfrwt beam="1">  1        4 0.80317079E-03 0.12499831E+03</pdfrwt>
<pdfrwt beam="2">  1       -4 0.11511016E+00 0.12499831E+03</pdfrwt>
<totfact> 0.40411788E+03</totfact>
</mgrwt>
</event>
<event>
 5    1  0.3316199E-002  0.1249988E+03  0.7818608E-02  0.1235071E+00
         -4   -1    0    0    0  501 -0.00000000000E+00  0.00000000000E+00  0.62668530930E+02  0.62681398109E+02  0.12700000000E+01 0.  1.
          4   -1    0    0  501    0  0.00000000000E+00 -0.00000000000E+00 -0.62305002250E+02  0.62317944490E+02  0.12700000000E+01 0.  1.
         25    2    1    2    0    0  0.00000000000E+00  0.00000000000E+00  0.36352867985E+00  0.12499934260E+03  0.12499881398E+03 0.  0.
    9000005    1    3    3    0    0  0.14260006491E+02  0.54068107224E+02 -0.27719390736E+02  0.62418527912E+02  0.10000000000E+01 0.  0.
    9000005    1    3    3    0    0 -0.14260006491E+02 -0.54068107224E+02  0.28082919416E+02  0.62580814687E+02  0.10000000000E+01 0.  0.
<mgrwt>
<rscale>  0 0.12499881E+03</rscale>
<asrwt>0</asrwt>
<pdfrwt beam="2">  1        4 0.95873704E-02 0.12499881E+03</pdfrwt>
<pdfrwt beam="1">  1       -4 0.96432977E-02 0.12499881E+03</pdfrwt>
<totfact> 0.10453157E+04</totfact>
</mgrwt>
</event>
<event>
 5    1  0.3316199E-002  0.1250035E+03  0.7818608E-02  0.1235064E+00
          4   -1    0    0  501    0  0.00000000000E+00  0.00000000000E+00  0.80920683036E+02  0.80930648354E+02  0.12700000000E+01 0.  1.
         -4   -1    0    0    0  501 -0.00000000000E+00 -0.00000000000E+00 -0.48253976580E+02  0.48270686299E+02  0.12700000000E+01 0.  1.
         25    2    1    2    0    0  0.00000000000E+00  0.00000000000E+00  0.32666706455E+02  0.12920133465E+03  0.12500348461E+03 0.  0.
    9000005    1    3    3    0    0 -0.10530098518E+01  0.21553572726E+02  0.76952753018E+02  0.79927414096E+02  0.10000000000E+01 0.  0.
    9000005    1    3    3    0    0  0.10530098518E+01 -0.21553572726E+02 -0.44286046562E+02  0.49273920558E+02  0.10000000000E+01 0.  0.
<mgrwt>
<rscale>  0 0.12500348E+03</rscale>
<asrwt>0</asrwt>
<pdfrwt beam="1">  1        4 0.12451388E-01 0.12500348E+03</pdfrwt>
<pdfrwt beam="2">  1       -4 0.74257406E-02 0.12500348E+03</pdfrwt>
<totfact> 0.10360807E+04</totfact>
</mgrwt>
</event>
<event>
 5    1  0.3316199E-002  0.1249996E+03  0.7818608E-02  0.1235070E+00
          4   -1    0    0  501    0  0.00000000000E+00  0.00000000000E+00  0.54535199836E+01  0.55994446342E+01  0.12700000000E+01 0. -1.
         -4   -1    0    0    0  501 -0.00000000000E+00 -0.00000000000E+00 -0.70667296488E+03  0.70667410608E+03  0.12700000000E+01 0. -1.
         25    2    1    2    0    0  0.00000000000E+00  0.00000000000E+00 -0.70121944490E+03  0.71227355071E+03  0.12499960454E+03 0.  0.
    9000005    1    3    3    0    0 -0.29943160915E+02  0.54419340054E+02 -0.31147510354E+03  0.31760950487E+03  0.10000000000E+01 0.  0.
    9000005    1    3    3    0    0  0.29943160915E+02 -0.54419340054E+02 -0.38974434136E+03  0.39466404584E+03  0.10000000000E+01 0.  0.
<mgrwt>
<rscale>  0 0.12499960E+03</rscale>
<asrwt>0</asrwt>
<pdfrwt beam="1">  1        4 0.85031639E-03 0.12499960E+03</pdfrwt>
<pdfrwt beam="2">  1       -4 0.10873016E+00 0.12499960E+03</pdfrwt>
<totfact> 0.42447056E+03</totfact>
</mgrwt>
</event>
<event>
 5    1  0.3316199E-002  0.1249990E+03  0.7818608E-02  0.1235071E+00
         -4   -1    0    0    0  501 -0.00000000000E+00  0.00000000000E+00  0.19346471815E+02  0.19388111607E+02  0.12700000000E+01 0.  1.
          4   -1    0    0  501    0  0.00000000000E+00 -0.00000000000E+00 -0.20164634944E+03  0.20165034873E+03  0.12700000000E+01 0.  1.
         25    2    1    2    0    0  0.00000000000E+00  0.00000000000E+00 -0.18229987762E+03  0.22103846033E+03  0.12499902226E+03 0.  0.
    9000005    1    3    3    0    0 -0.64589715010E+01 -0.48014091726E+02 -0.16095089048E+03  0.16808706216E+03  0.10000000000E+01 0.  0.
    9000005    1    3    3    0    0  0.64589715010E+01  0.48014091726E+02 -0.21348987141E+02  0.52951398179E+02  0.10000000000E+01 0.  0.
<mgrwt>
<rscale>  0 0.12499902E+03</rscale>
<asrwt>0</asrwt>
<pdfrwt beam="2">  1        4 0.31026024E-01 0.12499902E+03</pdfrwt>
<pdfrwt beam="1">  1       -4 0.29798911E-02 0.12499902E+03</pdfrwt>
<totfact> 0.86706187E+03</totfact>
</mgrwt>
</event>
<event>
 5    1  0.3316199E-002  0.1250023E+03  0.7818608E-02  0.1235066E+00
          4   -1    0    0  501    0  0.00000000000E+00  0.00000000000E+00  0.31207263684E+02  0.31233094734E+02  0.12700000000E+01 0. -1.
         -4   -1    0    0    0  501 -0.00000000000E+00 -0.00000000000E+00 -0.12509492138E+03  0.12510136791E+03  0.12700000000E+01 0. -1.
         25    2    1    2    0    0  0.00000000000E+00  0.00000000000E+00 -0.93887657692E+02  0.15633446265E+03  0.12500228776E+03 0.  0.
    9000005    1    3    3    0    0 -0.51761223818E+01  0.53226797627E+02 -0.87382846889E+02  0.10245314128E+03  0.10000000000E+01 0.  0.
    9000005    1    3    3    0    0  0.51761223818E+01 -0.53226797627E+02 -0.65048108035E+01  0.53881321365E+02  0.10000000000E+01 0.  0.
<mgrwt>
<rscale>  0 0.12500229E+03</rscale>
<asrwt>0</asrwt>
<pdfrwt beam="1">  1        4 0.48036004E-02 0.12500229E+03</pdfrwt>
<pdfrwt beam="2">  1       -4 0.19247855E-01 0.12500229E+03</pdfrwt>
<totfact> 0.98049118E+03</totfact>
</mgrwt>
</event>
<event>
 5    1  0.3316199E-002  0.1249999E+03  0.7818608E-02  0.1235069E+00
          4   -1    0    0  501    0  0.00000000000E+00  0.00000000000E+00  0.16753094038E+02  0.16801162455E+02  0.12700000000E+01 0.  1.
         -4   -1    0    0    0  501 -0.00000000000E+00 -0.00000000000E+00 -0.23278171743E+03  0.23278518181E+03  0.12700000000E+01 0.  1.
         25    2    1    2    0    0  0.00000000000E+00  0.00000000000E+00 -0.21602862340E+03  0.24958634427E+03  0.12499990847E+03 0.  0.
    9000005    1    3    3    0    0 -0.27686284611E+02 -0.40324941039E+02 -0.30358306271E+02  0.57578277024E+02  0.10000000000E+01 0.  0.
    9000005    1    3    3    0    0  0.27686284611E+02  0.40324941039E+02 -0.18567031712E+03  0.19200806724E+03  0.10000000000E+01 0.  0.
<mgrwt>
<rscale>  0 0.12499991E+03</rscale>
<asrwt>0</asrwt>
<pdfrwt beam="1">  1        4 0.25813633E-02 0.12499991E+03</pdfrwt>
<pdfrwt beam="2">  1       -4 0.35816534E-01 0.12499991E+03</pdfrwt>
<totfact> 0.82390220E+03</totfact>
</mgrwt>
</event>
<event>
 5    1  0.3316199E-002  0.1250032E+03  0.7818608E-02  0.1235064E+00
         -4   -1    0    0    0  501 -0.00000000000E+00  0.00000000000E+00  0.15912854237E+03  0.15913361020E+03  0.12700000000E+01 0.  1.
          4   -1    0    0  501    0  0.00000000000E+00 -0.00000000000E+00 -0.24527123249E+02  0.24559981166E+02  0.12700000000E+01 0.  1.
         25    2    1    2    0    0  0.00000000000E+00  0.00000000000E+00  0.13460141912E+03  0.18369359137E+03  0.12500317388E+03 0.  0.
    9000005    1    3    3    0    0  0.27356047416E+02  0.26361631978E+02 -0.56166691325E+01  0.38416610247E+02  0.10000000000E+01 0.  0.
    9000005    1    3    3    0    0 -0.27356047416E+02 -0.26361631978E+02  0.14021808825E+03  0.14527698112E+03  0.10000000000E+01 0.  0.
<mgrwt>
<rscale>  0 0.12500317E+03</rscale>
<asrwt>0</asrwt>
<pdfrwt beam="2">  1        4 0.37763208E-02 0.12500317E+03</pdfrwt>
<pdfrwt beam="1">  1       -4 0.24484233E-01 0.12500317E+03</pdfrwt>
<totfact> 0.92949724E+03</totfact>
</mgrwt>
</event>
<event>
 5    1  0.3316199E-002  0.1249974E+03  0.7818608E-02  0.1235073E+00
          4   -1    0    0  501    0  0.00000000000E+00  0.00000000000E+00  0.68679019892E+03  0.68679137315E+03  0.12700000000E+01 0. -1.
         -4   -1    0    0    0  501 -0.00000000000E+00 -0.00000000000E+00 -0.56153601760E+01  0.57571841994E+01  0.12700000000E+01 0. -1.
         25    2    1    2    0    0  0.00000000000E+00  0.00000000000E+00  0.68117483874E+03  0.69254855735E+03  0.12499737336E+03 0.  0.
    9000005    1    3    3    0    0 -0.38503466674E+02 -0.46423243474E+02  0.24997833447E+03  0.25715326594E+03  0.10000000000E+01 0.  0.
    9000005    1    3    3    0    0  0.38503466674E+02  0.46423243474E+02  0.43119650427E+03  0.43539529140E+03  0.10000000000E+01 0.  0.
<mgrwt>
<rscale>  0 0.12499737E+03</rscale>
<asrwt>0</asrwt>
<pdfrwt beam="1">  1        4 0.10567101E+00 0.12499737E+03</pdfrwt>
<pdfrwt beam="2">  1       -4 0.87490157E-03 0.12499737E+03</pdfrwt>
<totfact> 0.43485474E+03</totfact>
</mgrwt>
</event>
<event>
 5    1  0.3316199E-002  0.1250006E+03  0.7818608E-02  0.1235068E+00
          4   -1    0    0  501    0  0.00000000000E+00  0.00000000000E+00  0.28434139157E+02  0.28462487059E+02  0.12700000000E+01 0.  1.
         -4   -1    0    0    0  501 -0.00000000000E+00 -0.00000000000E+00 -0.13728054755E+03  0.13728642189E+03  0.12700000000E+01 0.  1.
         25    2    1    2    0    0  0.00000000000E+00  0.00000000000E+00 -0.10884640839E+03  0.16574890895E+03  0.12500064079E+03 0.  0.
    9000005    1    3    3    0    0 -0.52519301221E+02  0.24096660388E+02 -0.22866890708E+02  0.62151594776E+02  0.10000000000E+01 0.  0.
    9000005    1    3    3    0    0  0.52519301221E+02 -0.24096660388E+02 -0.85979517680E+02  0.10359731417E+03  0.10000000000E+01 0.  0.
<mgrwt>
<rscale>  0 0.12500064E+03</rscale>
<asrwt>0</asrwt>
<pdfrwt beam="1">  1        4 0.43771155E-02 0.12500064E+03</pdfrwt>
<pdfrwt beam="2">  1       -4 0.21122716E-01 0.12500064E+03</pdfrwt>
<totfact> 0.96244363E+03</totfact>
</mgrwt>
</event>
<event>
 5    1  0.3316199E-002  0.1250002E+03  0.7818608E-02  0.1235069E+00
          4   -1    0    0  501    0  0.00000000000E+00  0.00000000000E+00  0.10158552461E+02  0.10237630981E+02  0.12700000000E+01 0.  1.
         -4   -1    0    0    0  501 -0.00000000000E+00 -0.00000000000E+00 -0.38295820200E+03  0.38296030784E+03  0.12700000000E+01 0.  1.
         25    2    1    2    0    0  0.00000000000E+00  0.00000000000E+00 -0.37279964954E+03  0.39319793882E+03  0.12500016158E+03 0.  0.
    9000005    1    3    3    0    0 -0.28399696766E+01  0.20308928799E+02 -0.37208873958E+03  0.37265473046E+03  0.10000000000E+01 0.  0.
    9000005    1    3    3    0    0  0.28399696766E+01 -0.20308928799E+02 -0.71090996622E+00  0.20543208360E+02  0.10000000000E+01 0.  0.
<mgrwt>
<rscale>  0 0.12500016E+03</rscale>
<asrwt>0</asrwt>
<pdfrwt beam="1">  1        4 0.15690995E-02 0.12500016E+03</pdfrwt>
<pdfrwt beam="2">  1       -4 0.58922880E-01 0.12500016E+03</pdfrwt>
<totfact> 0.65219542E+03</totfact>
</mgrwt>
</event>
<event>
 5    1  0.3316199E-002  0.1250046E+03  0.7818608E-02  0.1235062E+00
         -4   -1    0    0    0  501 -0.00000000000E+00  0.00000000000E+00  0.12626758011E+03  0.12627396679E+03  0.12700000000E+01 0. -1.
          4   -1    0    0  501    0  0.00000000000E+00 -0.00000000000E+00 -0.30918380460E+02  0.30944452658E+02  0.12700000000E+01 0. -1.
         25    2    1    2    0    0  0.00000000000E+00  0.00000000000E+00  0.95349199655E+02  0.15721841944E+03  0.12500464606E+03 0.  0.
    9000005    1    3    3    0    0 -0.44527453190E+02  0.12433149104E+02 -0.52126170254E+01  0.46534381488E+02  0.10000000000E+01 0.  0.
    9000005    1    3    3    0    0  0.44527453190E+02 -0.12433149104E+02  0.10056181668E+03  0.11068403796E+03  0.10000000000E+01 0.  0.
<mgrwt>
<rscale>  0 0.12500465E+03</rscale>
<asrwt>0</asrwt>
<pdfrwt beam="2">  1        4 0.47591708E-02 0.12500465E+03</pdfrwt>
<pdfrwt beam="1">  1       -4 0.19428278E-01 0.12500465E+03</pdfrwt>
<totfact> 0.97871523E+03</totfact>
</mgrwt>
</event>
<event>
 5    1  0.3316199E-002  0.1249962E+03  0.7818608E-02  0.1235075E+00
          4   -1    0    0  501    0  0.00000000000E+00  0.00000000000E+00  0.38484485784E+02  0.38505435280E+02  0.12700000000E+01 0.  1.
         -4   -1    0    0    0  501 -0.00000000000E+00 -0.00000000000E+00 -0.10144327538E+03  0.10145122483E+03  0.12700000000E+01 0.  1.
         25    2    1    2    0    0  0.00000000000E+00  0.00000000000E+00 -0.62958789595E+02  0.13995666011E+03  0.12499623003E+03 0.  0.
    9000005    1    3    3    0    0 -0.76545685618E+01  0.36793946815E+02  0.24422347154E+02  0.44831216608E+02  0.10000000000E+01 0.  0.
    9000005    1    3    3    0    0  0.76545685618E+01 -0.36793946815E+02 -0.87381136749E+02  0.95125443503E+02  0.10000000000E+01 0.  0.
<mgrwt>
<rscale>  0 0.12499623E+03</rscale>
<asrwt>0</asrwt>
<pdfrwt beam="1">  1        4 0.59229132E-02 0.12499623E+03</pdfrwt>
<pdfrwt beam="2">  1       -4 0.15608881E-01 0.12499623E+03</pdfrwt>
<totfact> 0.10135345E+04</totfact>
</mgrwt>
</event>
<event>
 5    1  0.3316199E-002  0.1249987E+03  0.7818608E-02  0.1235071E+00
          4   -1    0    0  501    0  0.00000000000E+00  0.00000000000E+00  0.57771064619E+02  0.57785022343E+02  0.12700000000E+01 0. -1.
         -4   -1    0    0    0  501 -0.00000000000E+00 -0.00000000000E+00 -0.67586551546E+02  0.67598482601E+02  0.12700000000E+01 0. -1.
         25    2    1    2    0    0  0.00000000000E+00  0.00000000000E+00 -0.98154869275E+01  0.12538350494E+03  0.12499871811E+03 0.  0.
    9000005    1    3    3    0    0  0.72357510646E+01  0.53757667060E+02  0.26218845695E+02  0.60255047347E+02  0.10000000000E+01 0.  0.
    9000005    1    3    3    0    0 -0.72357510646E+01 -0.53757667060E+02 -0.36034332623E+02  0.65128457596E+02  0.10000000000E+01 0.  0.
<mgrwt>
<rscale>  0 0.12499872E+03</rscale>
<asrwt>0</asrwt>
<pdfrwt beam="1">  1        4 0.88898475E-02 0.12499872E+03</pdfrwt>
<pdfrwt beam="2">  1       -4 0.10399922E-01 0.12499872E+03</pdfrwt>
<totfact> 0.10444834E+04</totfact>
</mgrwt>
</event>
<event>
 5    1  0.3316199E-002  0.1249977E+03  0.7818608E-02  0.1235073E+00
          4   -1    0    0  501    0  0.00000000000E+00  0.00000000000E+00  0.83079619876E+02  0.83089326263E+02  0.12700000000E+01 0. -1.
         -4   -1    0    0    0  501 -0.00000000000E+00 -0.00000000000E+00 -0.46995352672E+02  0.47012509748E+02  0.12700000000E+01 0. -1.
         25    2    1    2    0    0  0.00000000000E+00  0.00000000000E+00  0.36084267204E+02  0.13010183601E+03  0.12499765355E+03 0.  0.
    9000005    1    3    3    0    0  0.21745136340E+02 -0.33088664776E+02  0.68362918039E+02  0.79007589850E+02  0.10000000000E+01 0.  0.
    9000005    1    3    3    0    0 -0.21745136340E+02  0.33088664776E+02 -0.32278650834E+02  0.51094246161E+02  0.10000000000E+01 0.  0.
<mgrwt>
<rscale>  0 0.12499765E+03</rscale>
<asrwt>0</asrwt>
<pdfrwt beam="1">  1        4 0.12783546E-01 0.12499765E+03</pdfrwt>
<pdfrwt beam="2">  1       -4 0.72321208E-02 0.12499765E+03</pdfrwt>
<totfact> 0.10342877E+04</totfact>
</mgrwt>
</event>
<event>
 5    1  0.3316199E-002  0.1249932E+03  0.7818608E-02  0.1235080E+00
          4   -1    0    0  501    0  0.00000000000E+00  0.00000000000E+00  0.68290148645E+02  0.68301956795E+02  0.12700000000E+01 0.  1.
         -4   -1    0    0    0  501 -0.00000000000E+00 -0.00000000000E+00 -0.57170742483E+02  0.57184846735E+02  0.12700000000E+01 0.  1.
         25    2    1    2    0    0  0.00000000000E+00  0.00000000000E+00  0.11119406162E+02  0.12548680353E+03  0.12499318648E+03 0.  0.
    9000005    1    3    3    0    0 -0.20850454712E+02 -0.57591348289E+02 -0.68714135487E+01  0.61641878489E+02  0.10000000000E+01 0.  0.
    9000005    1    3    3    0    0  0.20850454712E+02  0.57591348289E+02  0.17990819711E+02  0.63844925040E+02  0.10000000000E+01 0.  0.
<mgrwt>
<rscale>  0 0.12499319E+03</rscale>
<asrwt>0</asrwt>
<pdfrwt beam="1">  1        4 0.10508170E-01 0.12499319E+03</pdfrwt>
<pdfrwt beam="2">  1       -4 0.87974922E-02 0.12499319E+03</pdfrwt>
<totfact> 0.10443851E+04</totfact>
</mgrwt>
</event>
<event>
 5    1  0.3316199E-002  0.1250005E+03  0.7818608E-02  0.1235069E+00
         -4   -1    0    0    0  501 -0.00000000000E+00  0.00000000000E+00  0.26013754787E+02  0.26044737244E+02  0.12700000000E+01 0.  1.
          4   -1    0    0  501    0  0.00000000000E+00 -0.00000000000E+00 -0.15003900392E+03  0.15004437876E+03  0.12700000000E+01 0.  1.
         25    2    1    2    0    0  0.00000000000E+00  0.00000000000E+00 -0.12402524913E+03  0.17608911600E+03  0.12500045741E+03 0.  0.
    9000005    1    3    3    0    0 -0.51403984377E+02 -0.20288461739E+02 -0.20911000012E+02  0.59095356933E+02  0.10000000000E+01 0.  0.
    9000005    1    3    3    0    0  0.51403984377E+02  0.20288461739E+02 -0.10311424912E+03  0.11699375907E+03  0.10000000000E+01 0.  0.
<mgrwt>
<rscale>  0 0.12500046E+03</rscale>
<asrwt>0</asrwt>
<pdfrwt beam="2">  1        4 0.23085720E-01 0.12500046E+03</pdfrwt>
<pdfrwt beam="1">  1       -4 0.40049129E-02 0.12500046E+03</pdfrwt>
<totfact> 0.94324782E+03</totfact>
</mgrwt>
</event>
<event>
 5    1  0.3316199E-002  0.1249989E+03  0.7818608E-02  0.1235071E+00
          4   -1    0    0  501    0  0.00000000000E+00  0.00000000000E+00  0.47155590068E+02  0.47172688864E+02  0.12700000000E+01 0.  1.
         -4   -1    0    0    0  501 -0.00000000000E+00 -0.00000000000E+00 -0.82798966196E+02  0.82808705479E+02  0.12700000000E+01 0.  1.
         25    2    1    2    0    0  0.00000000000E+00  0.00000000000E+00 -0.35643376128E+02  0.12998139434E+03  0.12499885045E+03 0.  0.
    9000005    1    3    3    0    0 -0.51171495290E+02  0.24887923500E+02  0.90390935424E+01  0.57624958815E+02  0.10000000000E+01 0.  0.
    9000005    1    3    3    0    0  0.51171495290E+02 -0.24887923500E+02 -0.44682469670E+02  0.72356435527E+02  0.10000000000E+01 0.  0.
<mgrwt>
<rscale>  0 0.12499885E+03</rscale>
<asrwt>0</asrwt>
<pdfrwt beam="1">  1        4 0.72567706E-02 0.12499885E+03</pdfrwt>
<pdfrwt beam="2">  1       -4 0.12740367E-01 0.12499885E+03</pdfrwt>
<totfact> 0.10345174E+04</totfact>
</mgrwt>
</event>
<event>
 5    1  0.3316199E-002  0.1249930E+03  0.7818608E-02  0.1235080E+00
          4   -1    0    0  501    0  0.00000000000E+00  0.00000000000E+00  0.72458878923E+03  0.72458990220E+03  0.12700000000E+01 0.  1.
         -4   -1    0    0    0  501 -0.00000000000E+00 -0.00000000000E+00 -0.53144515236E+01  0.54640914154E+01  0.12700000000E+01 0.  1.
         25    2    1    2    0    0  0.00000000000E+00  0.00000000000E+00  0.71927433770E+03  0.73005399362E+03  0.12499304268E+03 0.  0.
    9000005    1    3    3    0    0 -0.22189403498E+01  0.99378301752E+01 -0.46485342591E+00  0.10242082482E+02  0.10000000000E+01 0.  0.
    9000005    1    3    3    0    0  0.22189403498E+01 -0.99378301752E+01  0.71973919113E+03  0.71981191113E+03  0.10000000000E+01 0.  0.
<mgrwt>
<rscale>  0 0.12499304E+03</rscale>
<asrwt>0</asrwt>
<pdfrwt beam="1">  1        4 0.11148683E+00 0.12499304E+03</pdfrwt>
<pdfrwt beam="2">  1       -4 0.82920403E-03 0.12499304E+03</pdfrwt>
<totfact> 0.41553113E+03</totfact>
</mgrwt>
</event>
<event>
 5    1  0.3316199E-002  0.1249922E+03  0.7818608E-02  0.1235081E+00
          4   -1    0    0  501    0  0.00000000000E+00  0.00000000000E+00  0.52721301065E+01  0.54229379362E+01  0.12700000000E+01 0.  1.
         -4   -1    0    0    0  501 -0.00000000000E+00 -0.00000000000E+00 -0.73023437463E+03  0.73023547900E+03  0.12700000000E+01 0.  1.
         25    2    1    2    0    0  0.00000000000E+00  0.00000000000E+00 -0.72496224452E+03  0.73565841694E+03  0.12499220146E+03 0.  0.
    9000005    1    3    3    0    0 -0.58906216032E+02  0.20469559684E+02 -0.33907327562E+03  0.34476170234E+03  0.10000000000E+01 0.  0.
    9000005    1    3    3    0    0  0.58906216032E+02 -0.20469559684E+02 -0.38588896890E+03  0.39089671460E+03  0.10000000000E+01 0.  0.
<mgrwt>
<rscale>  0 0.12499220E+03</rscale>
<asrwt>0</asrwt>
<pdfrwt beam="1">  1        4 0.82278307E-03 0.12499220E+03</pdfrwt>
<pdfrwt beam="2">  1       -4 0.11235536E+00 0.12499220E+03</pdfrwt>
<totfact> 0.41276732E+03</totfact>
</mgrwt>
</event>
<event>
 5    1  0.3316199E-002  0.1249986E+03  0.7818608E-02  0.1235071E+00
          4   -1    0    0  501    0  0.00000000000E+00  0.00000000000E+00  0.35991737015E+03  0.35991961080E+03  0.12700000000E+01 0. -1.
         -4   -1    0    0    0  501 -0.00000000000E+00 -0.00000000000E+00 -0.10813504005E+02  0.10887826637E+02  0.12700000000E+01 0. -1.
         25    2    1    2    0    0  0.00000000000E+00  0.00000000000E+00  0.34910386615E+03  0.37080743744E+03  0.12499858519E+03 0.  0.
    9000005    1    3    3    0    0  0.16051781574E+02  0.59819300335E+02  0.14988305211E+03  0.16217872146E+03  0.10000000000E+01 0.  0.
    9000005    1    3    3    0    0 -0.16051781574E+02 -0.59819300335E+02  0.19922081404E+03  0.20862871598E+03  0.10000000000E+01 0.  0.
<mgrwt>
<rscale>  0 0.12499859E+03</rscale>
<asrwt>0</asrwt>
<pdfrwt beam="1">  1        4 0.55377789E-01 0.12499859E+03</pdfrwt>
<pdfrwt beam="2">  1       -4 0.16695056E-02 0.12499859E+03</pdfrwt>
<totfact> 0.67496660E+03</totfact>
</mgrwt>
</event>
<event>
 5    1  0.3316199E-002  0.1250008E+03  0.7818608E-02  0.1235068E+00
         -4   -1    0    0    0  501 -0.00000000000E+00  0.00000000000E+00  0.18527739013E+02  0.18571214632E+02  0.12700000000E+01 0.  1.
          4   -1    0    0  501    0  0.00000000000E+00 -0.00000000000E+00 -0.21054290084E+03  0.21054673114E+03  0.12700000000E+01 0.  1.
         25    2    1    2    0    0  0.00000000000E+00  0.00000000000E+00 -0.19201516182E+03  0.22911794577E+03  0.12500084281E+03 0.  0.
    9000005    1    3    3    0    0  0.28611422414E+02 -0.18150374537E+02  0.23881628088E+00  0.33898475210E+02  0.10000000000E+01 0.  0.
    9000005    1    3    3    0    0 -0.28611422414E+02  0.18150374537E+02 -0.19225397810E+03  0.19521947056E+03  0.10000000000E+01 0.  0.
<mgrwt>
<rscale>  0 0.12500084E+03</rscale>
<asrwt>0</asrwt>
<pdfrwt beam="2">  1        4 0.32394853E-01 0.12500084E+03</pdfrwt>
<pdfrwt beam="1">  1       -4 0.28540605E-02 0.12500084E+03</pdfrwt>
<totfact> 0.85443615E+03</totfact>
</mgrwt>
</event>
<event>
 5    1  0.3316199E-002  0.1249973E+03  0.7818608E-02  0.1235074E+00
         -4   -1    0    0    0  501 -0.00000000000E+00  0.00000000000E+00  0.75815299837E+01  0.76871644248E+01  0.12700000000E+01 0. -1.
          4   -1    0    0  501    0  0.00000000000E+00 -0.00000000000E+00 -0.51153898768E+03  0.51154056420E+03  0.12700000000E+01 0. -1.
         25    2    1    2    0    0  0.00000000000E+00  0.00000000000E+00 -0.50395745770E+03  0.51922772862E+03  0.12499725997E+03 0.  0.
    9000005    1    3    3    0    0 -0.15852020851E+01  0.45316920500E+02 -0.43059421037E+03  0.43297633902E+03  0.10000000000E+01 0.  0.
    9000005    1    3    3    0    0  0.15852020851E+01 -0.45316920500E+02 -0.73363247330E+02  0.86251389601E+02  0.10000000000E+01 0.  0.
<mgrwt>
<rscale>  0 0.12499726E+03</rscale>
<asrwt>0</asrwt>
<pdfrwt beam="2">  1        4 0.78706526E-01 0.12499726E+03</pdfrwt>
<pdfrwt beam="1">  1       -4 0.11746366E-02 0.12499726E+03</pdfrwt>
<totfact> 0.54406082E+03</totfact>
</mgrwt>
</event>
<event>
 5    1  0.3316199E-002  0.1249852E+03  0.7818608E-02  0.1235092E+00
         -4   -1    0    0    0  501 -0.00000000000E+00  0.00000000000E+00  0.18131235980E+03  0.18131680760E+03  0.12700000000E+01 0. -1.
          4   -1    0    0  501    0  0.00000000000E+00 -0.00000000000E+00 -0.21515789383E+02  0.21553238568E+02  0.12700000000E+01 0. -1.
         25    2    1    2    0    0  0.00000000000E+00  0.00000000000E+00  0.15979657042E+03  0.20287004616E+03  0.12498524598E+03 0.  0.
    9000005    1    3    3    0    0 -0.64239595439E+01 -0.15598954829E+02 -0.17757384824E+02  0.24513656679E+02  0.10000000000E+01 0.  0.
    9000005    1    3    3    0    0  0.64239595439E+01  0.15598954829E+02  0.17755395524E+03  0.17835638948E+03  0.10000000000E+01 0.  0.
<mgrwt>
<rscale>  0 0.12498525E+03</rscale>
<asrwt>0</asrwt>
<pdfrwt beam="2">  1        4 0.33133443E-02 0.12498525E+03</pdfrwt>
<pdfrwt beam="1">  1       -4 0.27897432E-01 0.12498525E+03</pdfrwt>
<totfact> 0.89683295E+03</totfact>
</mgrwt>
</event>
<event>
 5    1  0.3316199E-002  0.1250012E+03  0.7818608E-02  0.1235067E+00
          4   -1    0    0  501    0  0.00000000000E+00  0.00000000000E+00  0.21289471227E+03  0.21289850026E+03  0.12700000000E+01 0. -1.
         -4   -1    0    0    0  501 -0.00000000000E+00 -0.00000000000E+00 -0.18322684721E+02  0.18366645730E+02  0.12700000000E+01 0. -1.
         25    2    1    2    0    0  0.00000000000E+00  0.00000000000E+00  0.19457202755E+03  0.23126514599E+03  0.12500117537E+03 0.  0.
    9000005    1    3    3    0    0  0.58970746720E+02 -0.91339444468E+01  0.62954470469E+02  0.86748159992E+02  0.10000000000E+01 0.  0.
    9000005    1    3    3    0    0 -0.58970746720E+02  0.91339444468E+01  0.13161755708E+03  0.14451698600E+03  0.10000000000E+01 0.  0.
<mgrwt>
<rscale>  0 0.12500118E+03</rscale>
<asrwt>0</asrwt>
<pdfrwt beam="1">  1        4 0.32756706E-01 0.12500118E+03</pdfrwt>
<pdfrwt beam="2">  1       -4 0.28225476E-02 0.12500118E+03</pdfrwt>
<totfact> 0.85113478E+03</totfact>
</mgrwt>
</event>
<event>
 5    1  0.3316199E-002  0.1250022E+03  0.7818608E-02  0.1235066E+00
          4   -1    0    0  501    0  0.00000000000E+00  0.00000000000E+00  0.63199500360E+02  0.63212259458E+02  0.12700000000E+01 0. -1.
         -4   -1    0    0    0  501 -0.00000000000E+00 -0.00000000000E+00 -0.61784882385E+02  0.61797933552E+02  0.12700000000E+01 0. -1.
         25    2    1    2    0    0  0.00000000000E+00  0.00000000000E+00  0.14146179755E+01  0.12501019301E+03  0.12500218883E+03 0.  0.
    9000005    1    3    3    0    0 -0.21350446556E+02  0.16061065896E+02 -0.55790444417E+02  0.61865766738E+02  0.10000000000E+01 0.  0.
    9000005    1    3    3    0    0  0.21350446556E+02 -0.16061065896E+02  0.57205062393E+02  0.63144426272E+02  0.10000000000E+01 0.  0.
<mgrwt>
<rscale>  0 0.12500219E+03</rscale>
<asrwt>0</asrwt>
<pdfrwt beam="1">  1        4 0.97249855E-02 0.12500219E+03</pdfrwt>
<pdfrwt beam="2">  1       -4 0.95073519E-02 0.12500219E+03</pdfrwt>
<totfact> 0.10452124E+04</totfact>
</mgrwt>
</event>
<event>
 5    1  0.3316199E-002  0.1250004E+03  0.7818608E-02  0.1235069E+00
          4   -1    0    0  501    0  0.00000000000E+00  0.00000000000E+00  0.68107454496E+03  0.68107572904E+03  0.12700000000E+01 0.  1.
         -4   -1    0    0    0  501 -0.00000000000E+00 -0.00000000000E+00 -0.56639484564E+01  0.58045854388E+01  0.12700000000E+01 0.  1.
         25    2    1    2    0    0  0.00000000000E+00  0.00000000000E+00  0.67541059650E+03  0.68688031448E+03  0.12500037022E+03 0.  0.
    9000005    1    3    3    0    0 -0.39598464419E+02  0.47624421557E+02  0.29201085071E+03  0.29850872826E+03  0.10000000000E+01 0.  0.
    9000005    1    3    3    0    0  0.39598464419E+02 -0.47624421557E+02  0.38339974579E+03  0.38837158622E+03  0.10000000000E+01 0.  0.
<mgrwt>
<rscale>  0 0.12500037E+03</rscale>
<asrwt>0</asrwt>
<pdfrwt beam="1">  1        4 0.10479172E+00 0.12500037E+03</pdfrwt>
<pdfrwt beam="2">  1       -4 0.88228509E-03 0.12500037E+03</pdfrwt>
<totfact> 0.43787978E+03</totfact>
</mgrwt>
</event>
<event>
 5    1  0.3316199E-002  0.1249972E+03  0.7818608E-02  0.1235074E+00
         -4   -1    0    0    0  501 -0.00000000000E+00  0.00000000000E+00  0.11321602565E+03  0.11322314854E+03  0.12700000000E+01 0.  1.
          4   -1    0    0  501    0  0.00000000000E+00 -0.00000000000E+00 -0.34481196014E+02  0.34504576197E+02  0.12700000000E+01 0.  1.
         25    2    1    2    0    0  0.00000000000E+00  0.00000000000E+00  0.78734829640E+02  0.14772772473E+03  0.12499722900E+03 0.  0.
    9000005    1    3    3    0    0  0.22581796724E+02 -0.43520360337E+01  0.10803877434E+03  0.11046381544E+03  0.10000000000E+01 0.  0.
    9000005    1    3    3    0    0 -0.22581796724E+02  0.43520360337E+01 -0.29303944699E+02  0.37263909294E+02  0.10000000000E+01 0.  0.
<mgrwt>
<rscale>  0 0.12499723E+03</rscale>
<asrwt>0</asrwt>
<pdfrwt beam="2">  1        4 0.53071458E-02 0.12499723E+03</pdfrwt>
<pdfrwt beam="1">  1       -4 0.17420196E-01 0.12499723E+03</pdfrwt>
<totfact> 0.99764808E+03</totfact>
</mgrwt>
</event>
<event>
 5    1  0.3316199E-002  0.1249983E+03  0.7818608E-02  0.1235072E+00
         -4   -1    0    0    0  501 -0.00000000000E+00  0.00000000000E+00  0.73134207994E+02  0.73145234150E+02  0.12700000000E+01 0.  1.
          4   -1    0    0  501    0  0.00000000000E+00 -0.00000000000E+00 -0.53388002347E+02  0.53403105665E+02  0.12700000000E+01 0.  1.
         25    2    1    2    0    0  0.00000000000E+00  0.00000000000E+00  0.19746205647E+02  0.12654833982E+03  0.12499827868E+03 0.  0.
    9000005    1    3    3    0    0  0.21978619910E+02 -0.57670618478E+02  0.19801984513E+02  0.64823441435E+02  0.10000000000E+01 0.  0.
    9000005    1    3    3    0    0 -0.21978619910E+02  0.57670618478E+02 -0.55778866664E-01  0.61724898380E+02  0.10000000000E+01 0.  0.
<mgrwt>
<rscale>  0 0.12499828E+03</rscale>
<asrwt>0</asrwt>
<pdfrwt beam="2">  1        4 0.82155488E-02 0.12499828E+03</pdfrwt>
<pdfrwt beam="1">  1       -4 0.11253427E-01 0.12499828E+03</pdfrwt>
<totfact> 0.10419379E+04</totfact>
</mgrwt>
</event>
<event>
 5    1  0.3316199E-002  0.1250004E+03  0.7818608E-02  0.1235069E+00
         -4   -1    0    0    0  501 -0.00000000000E+00  0.00000000000E+00  0.35330475981E+01  0.37543741596E+01  0.12700000000E+01 0.  1.
          4   -1    0    0  501    0  0.00000000000E+00 -0.00000000000E+00 -0.10718378983E+04  0.10718386507E+04  0.12700000000E+01 0.  1.
         25    2    1    2    0    0  0.00000000000E+00  0.00000000000E+00 -0.10683048507E+04  0.10755930248E+04  0.12500040436E+03 0.  0.
    9000005    1    3    3    0    0 -0.28737336759E+02 -0.94145550129E+01 -0.10047294792E+04  0.10051849555E+04  0.10000000000E+01 0.  0.
    9000005    1    3    3    0    0  0.28737336759E+02  0.94145550129E+01 -0.63575371466E+02  0.70408069332E+02  0.10000000000E+01 0.  0.
<mgrwt>
<rscale>  0 0.12500040E+03</rscale>
<asrwt>0</asrwt>
<pdfrwt beam="2">  1        4 0.16491497E+00 0.12500040E+03</pdfrwt>
<pdfrwt beam="1">  1       -4 0.56062964E-03 0.12500040E+03</pdfrwt>
<totfact> 0.28208720E+03</totfact>
</mgrwt>
</event>
<event>
 5    1  0.3316199E-002  0.1249997E+03  0.7818608E-02  0.1235070E+00
         -4   -1    0    0    0  501 -0.00000000000E+00  0.00000000000E+00  0.20763040681E+02  0.20801845070E+02  0.12700000000E+01 0. -1.
          4   -1    0    0  501    0  0.00000000000E+00 -0.00000000000E+00 -0.18791719597E+03  0.18792148744E+03  0.12700000000E+01 0. -1.
         25    2    1    2    0    0  0.00000000000E+00  0.00000000000E+00 -0.16715415529E+03  0.20872333251E+03  0.12499967161E+03 0.  0.
    9000005    1    3    3    0    0  0.11157360720E+02  0.44017408727E+02 -0.11888560581E+02  0.46950578718E+02  0.10000000000E+01 0.  0.
    9000005    1    3    3    0    0 -0.11157360720E+02 -0.44017408727E+02 -0.15526559471E+03  0.16177275379E+03  0.10000000000E+01 0.  0.
<mgrwt>
<rscale>  0 0.12499967E+03</rscale>
<asrwt>0</asrwt>
<pdfrwt beam="2">  1        4 0.28913652E-01 0.12499967E+03</pdfrwt>
<pdfrwt beam="1">  1       -4 0.31976291E-02 0.12499967E+03</pdfrwt>
<totfact> 0.88685454E+03</totfact>
</mgrwt>
</event>
<event>
 5    1  0.3316199E-002  0.1250000E+03  0.7818608E-02  0.1235069E+00
         -4   -1    0    0    0  501 -0.00000000000E+00  0.00000000000E+00  0.25513515926E+01  0.28499640259E+01  0.12700000000E+01 0. -1.
          4   -1    0    0  501    0  0.00000000000E+00 -0.00000000000E+00 -0.14461088244E+04  0.14461093821E+04  0.12700000000E+01 0. -1.
         25    2    1    2    0    0  0.00000000000E+00  0.00000000000E+00 -0.14435574728E+04  0.14489593461E+04  0.12500003735E+03 0.  0.
    9000005    1    3    3    0    0 -0.57207742859E+02  0.22602833808E+02 -0.84962304492E+03  0.85184736450E+03  0.10000000000E+01 0.  0.
    9000005    1    3    3    0    0  0.57207742859E+02 -0.22602833808E+02 -0.59393442790E+03  0.59711198161E+03  0.10000000000E+01 0.  0.
<mgrwt>
<rscale>  0 0.12500004E+03</rscale>
<asrwt>0</asrwt>
<pdfrwt beam="2">  1        4 0.22250067E+00 0.12500004E+03</pdfrwt>
<pdfrwt beam="1">  1       -4 0.41552987E-03 0.12500004E+03</pdfrwt>
<totfact> 0.18954122E+03</totfact>
</mgrwt>
</event>
<event>
 5    1  0.3316199E-002  0.1249930E+03  0.7818608E-02  0.1235080E+00
         -4   -1    0    0    0  501 -0.00000000000E+00  0.00000000000E+00  0.21476297698E+03  0.21476673202E+03  0.12700000000E+01 0. -1.
          4   -1    0    0  501    0  0.00000000000E+00 -0.00000000000E+00 -0.18160542466E+02  0.18204895019E+02  0.12700000000E+01 0. -1.
         25    2    1    2    0    0  0.00000000000E+00  0.00000000000E+00  0.19660243452E+03  0.23297162704E+03  0.12499304680E+03 0.  0.
    9000005    1    3    3    0    0  0.50540967193E+02 -0.33117595591E+02  0.68616329482E+02  0.91435032532E+02  0.10000000000E+01 0.  0.
    9000005    1    3    3    0    0 -0.50540967193E+02  0.33117595591E+02  0.12798610504E+03  0.14153659451E+03  0.10000000000E+01 0.  0.
<mgrwt>
<rscale>  0 0.12499305E+03</rscale>
<asrwt>0</asrwt>
<pdfrwt beam="2">  1        4 0.27976302E-02 0.12499305E+03</pdfrwt>
<pdfrwt beam="1">  1       -4 0.33044159E-01 0.12499305E+03</pdfrwt>
<totfact> 0.84868541E+03</totfact>
</mgrwt>
</event>
<event>
 5    1  0.3316199E-002  0.1250005E+03  0.7818608E-02  0.1235069E+00
          4   -1    0    0  501    0  0.00000000000E+00  0.00000000000E+00  0.69233241853E+02  0.69244889179E+02  0.12700000000E+01 0. -1.
         -4   -1    0    0    0  501 -0.00000000000E+00 -0.00000000000E+00 -0.56398493744E+02  0.56412791072E+02  0.12700000000E+01 0. -1.
         25    2    1    2    0    0  0.00000000000E+00  0.00000000000E+00  0.12834748109E+02  0.12565768025E+03  0.12500048739E+03 0.  0.
    9000005    1    3    3    0    0  0.29221551538E+02 -0.44953327437E+01  0.61762925648E+02  0.68481866763E+02  0.10000000000E+01 0.  0.
    9000005    1    3    3    0    0 -0.29221551538E+02  0.44953327437E+01 -0.48928177539E+02  0.57175813488E+02  0.10000000000E+01 0.  0.
<mgrwt>
<rscale>  0 0.12500049E+03</rscale>
<asrwt>0</asrwt>
<pdfrwt beam="1">  1        4 0.10653264E-01 0.12500049E+03</pdfrwt>
<pdfrwt beam="2">  1       -4 0.86786871E-02 0.12500049E+03</pdfrwt>
<totfact> 0.10438361E+04</totfact>
</mgrwt>
</event>
<event>
 5    1  0.3316199E-002  0.1250308E+03  0.7818608E-02  0.1235021E+00
         -4   -1    0    0    0  501 -0.00000000000E+00  0.00000000000E+00  0.22956296111E+02  0.22991399069E+02  0.12700000000E+01 0. -1.
          4   -1    0    0  501    0  0.00000000000E+00 -0.00000000000E+00 -0.17007666660E+03  0.17008140822E+03  0.12700000000E+01 0. -1.
         25    2    1    2    0    0  0.00000000000E+00  0.00000000000E+00 -0.14712037049E+03  0.19307280729E+03  0.12503081821E+03 0.  0.
    9000005    1    3    3    0    0 -0.50961827212E+02 -0.14163390299E+02 -0.12499547806E+03  0.13572980142E+03  0.10000000000E+01 0.  0.
    9000005    1    3    3    0    0  0.50961827212E+02  0.14163390299E+02 -0.22124892434E+02  0.57343005874E+02  0.10000000000E+01 0.  0.
<mgrwt>
<rscale>  0 0.12503082E+03</rscale>
<asrwt>0</asrwt>
<pdfrwt beam="2">  1        4 0.26168705E-01 0.12503082E+03</pdfrwt>
<pdfrwt beam="1">  1       -4 0.35348029E-02 0.12503082E+03</pdfrwt>
<totfact> 0.91252399E+03</totfact>
</mgrwt>
</event>
<event>
 5    1  0.3316199E-002  0.1250003E+03  0.7818608E-02  0.1235069E+00
         -4   -1    0    0    0  501 -0.00000000000E+00  0.00000000000E+00  0.12646290794E+03  0.12646928474E+03  0.12700000000E+01 0.  1.
          4   -1    0    0  501    0  0.00000000000E+00 -0.00000000000E+00 -0.30868432200E+02  0.30894546549E+02  0.12700000000E+01 0.  1.
         25    2    1    2    0    0  0.00000000000E+00  0.00000000000E+00  0.95594475737E+02  0.15736383129E+03  0.12500028643E+03 0.  0.
    9000005    1    3    3    0    0 -0.37266722188E+02  0.28976232817E+02 -0.37540321655E+01  0.47365846434E+02  0.10000000000E+01 0.  0.
    9000005    1    3    3    0    0  0.37266722188E+02 -0.28976232817E+02  0.99348507902E+02  0.10999798486E+03  0.10000000000E+01 0.  0.
<mgrwt>
<rscale>  0 0.12500029E+03</rscale>
<asrwt>0</asrwt>
<pdfrwt beam="2">  1        4 0.47514889E-02 0.12500029E+03</pdfrwt>
<pdfrwt beam="1">  1       -4 0.19458331E-01 0.12500029E+03</pdfrwt>
<totfact> 0.97852808E+03</totfact>
</mgrwt>
</event>
<event>
 5    1  0.3316199E-002  0.1249969E+03  0.7818608E-02  0.1235074E+00
          4   -1    0    0  501    0  0.00000000000E+00  0.00000000000E+00  0.27277707995E+03  0.27278003637E+03  0.12700000000E+01 0.  1.
         -4   -1    0    0    0  501 -0.00000000000E+00 -0.00000000000E+00 -0.14288389776E+02  0.14344719669E+02  0.12700000000E+01 0.  1.
         25    2    1    2    0    0  0.00000000000E+00  0.00000000000E+00  0.25848869017E+03  0.28712475604E+03  0.12499689031E+03 0.  0.
    9000005    1    3    3    0    0  0.58662522900E+02  0.77257149172E+01  0.17541900461E+03  0.18513185961E+03  0.10000000000E+01 0.  0.
    9000005    1    3    3    0    0 -0.58662522900E+02 -0.77257149172E+01  0.83069685562E+02  0.10199289644E+03  0.10000000000E+01 0.  0.
<mgrwt>
<rscale>  0 0.12499689E+03</rscale>
<asrwt>0</asrwt>
<pdfrwt beam="1">  1        4 0.41970263E-01 0.12499689E+03</pdfrwt>
<pdfrwt beam="2">  1       -4 0.22027744E-02 0.12499689E+03</pdfrwt>
<totfact> 0.77248137E+03</totfact>
</mgrwt>
</event>
<event>
 5    1  0.3316199E-002  0.1250017E+03  0.7818608E-02  0.1235067E+00
          4   -1    0    0  501    0  0.00000000000E+00  0.00000000000E+00  0.63133906887E+01  0.64398604013E+01  0.12700000000E+01 0. -1.
         -4   -1    0    0    0  501 -0.00000000000E+00 -0.00000000000E+00 -0.61247840401E+03  0.61247972071E+03  0.12700000000E+01 0. -1.
         25    2    1    2    0    0  0.00000000000E+00  0.00000000000E+00 -0.60616501333E+03  0.61891958111E+03  0.12500169801E+03 0.  0.
    9000005    1    3    3    0    0 -0.79789779703E+01 -0.43056603562E+01 -0.60922891466E+03  0.60929719617E+03  0.10000000000E+01 0.  0.
    9000005    1    3    3    0    0  0.79789779703E+01  0.43056603562E+01  0.30639013383E+01  0.96223849416E+01  0.10000000000E+01 0.  0.
<mgrwt>
<rscale>  0 0.12500170E+03</rscale>
<asrwt>0</asrwt>
<pdfrwt beam="1">  1        4 0.98112108E-03 0.12500170E+03</pdfrwt>
<pdfrwt beam="2">  1       -4 0.94237230E-01 0.12500170E+03</pdfrwt>
<totfact> 0.47692965E+03</totfact>
</mgrwt>
</event>
<event>
 5    1  0.3316199E-002  0.1250012E+03  0.7818608E-02  0.1235067E+00
         -4   -1    0    0    0  501 -0.00000000000E+00  0.00000000000E+00  0.34160544359E+02  0.34184143852E+02  0.12700000000E+01 0.  1.
          4   -1    0    0  501    0  0.00000000000E+00 -0.00000000000E+00 -0.11428531317E+03  0.11429236941E+03  0.12700000000E+01 0.  1.
         25    2    1    2    0    0  0.00000000000E+00  0.00000000000E+00 -0.80124768807E+02  0.14847651326E+03  0.12500118565E+03 0.  0.
    9000005    1    3    3    0    0  0.48997389516E+01 -0.49530522072E+02 -0.84948748631E+02  0.98461007269E+02  0.10000000000E+01 0.  0.
    9000005    1    3    3    0    0 -0.48997389516E+01  0.49530522072E+02  0.48239798243E+01  0.50015505994E+02  0.10000000000E+01 0.  0.
<mgrwt>
<rscale>  0 0.12500119E+03</rscale>
<asrwt>0</asrwt>
<pdfrwt beam="2">  1        4 0.17584714E-01 0.12500119E+03</pdfrwt>
<pdfrwt beam="1">  1       -4 0.52578266E-02 0.12500119E+03</pdfrwt>
<totfact> 0.99605595E+03</totfact>
</mgrwt>
</event>
<event>
 5    1  0.3316199E-002  0.1250242E+03  0.7818608E-02  0.1235031E+00
         -4   -1    0    0    0  501 -0.00000000000E+00  0.00000000000E+00  0.42390549597E+02  0.42409569617E+02  0.12700000000E+01 0. -1.
          4   -1    0    0  501    0  0.00000000000E+00 -0.00000000000E+00 -0.92140666258E+02  0.92149418221E+02  0.12700000000E+01 0. -1.
         25    2    1    2    0    0  0.00000000000E+00  0.00000000000E+00 -0.49750116661E+02  0.13455898784E+03  0.12502418606E+03 0.  0.
    9000005    1    3    3    0    0 -0.41549938317E+02  0.29074309549E+02  0.14449809036E+02  0.52740021152E+02  0.10000000000E+01 0.  0.
    9000005    1    3    3    0    0  0.41549938317E+02 -0.29074309549E+02 -0.64199925698E+02  0.81818966686E+02  0.10000000000E+01 0.  0.
<mgrwt>
<rscale>  0 0.12502419E+03</rscale>
<asrwt>0</asrwt>
<pdfrwt beam="2">  1        4 0.14177623E-01 0.12502419E+03</pdfrwt>
<pdfrwt beam="1">  1       -4 0.65237593E-02 0.12502419E+03</pdfrwt>
<totfact> 0.10241787E+04</totfact>
</mgrwt>
</event>
<event>
 5    1  0.3316199E-002  0.1250021E+03  0.7818608E-02  0.1235066E+00
         -4   -1    0    0    0  501 -0.00000000000E+00  0.00000000000E+00  0.24796463954E+02  0.24828965436E+02  0.12700000000E+01 0. -1.
          4   -1    0    0  501    0  0.00000000000E+00 -0.00000000000E+00 -0.15739956388E+03  0.15740468738E+03  0.12700000000E+01 0. -1.
         25    2    1    2    0    0  0.00000000000E+00  0.00000000000E+00 -0.13260309993E+03  0.18223365282E+03  0.12500208842E+03 0.  0.
    9000005    1    3    3    0    0  0.63759412841E+01  0.49579993828E+02 -0.11626495377E+02  0.51332288182E+02  0.10000000000E+01 0.  0.
    9000005    1    3    3    0    0 -0.63759412841E+01 -0.49579993828E+02 -0.12097660455E+03  0.13090136464E+03  0.10000000000E+01 0.  0.
<mgrwt>
<rscale>  0 0.12500209E+03</rscale>
<asrwt>0</asrwt>
<pdfrwt beam="2">  1        4 0.24218211E-01 0.12500209E+03</pdfrwt>
<pdfrwt beam="1">  1       -4 0.38177349E-02 0.12500209E+03</pdfrwt>
<totfact> 0.93212113E+03</totfact>
</mgrwt>
</event>
<event>
 5    1  0.3316199E-002  0.1249957E+03  0.7818608E-02  0.1235076E+00
         -4   -1    0    0    0  501 -0.00000000000E+00  0.00000000000E+00  0.21089647755E+02  0.21127852291E+02  0.12700000000E+01 0. -1.
          4   -1    0    0  501    0  0.00000000000E+00 -0.00000000000E+00 -0.18500039102E+03  0.18500475015E+03  0.12700000000E+01 0. -1.
         25    2    1    2    0    0  0.00000000000E+00  0.00000000000E+00 -0.16391074326E+03  0.20613260244E+03  0.12499567205E+03 0.  0.
    9000005    1    3    3    0    0 -0.62620580561E+01  0.43838773893E+02 -0.92457637492E+01  0.45249702926E+02  0.10000000000E+01 0.  0.
    9000005    1    3    3    0    0  0.62620580561E+01 -0.43838773893E+02 -0.15466497951E+03  0.16088289951E+03  0.10000000000E+01 0.  0.
<mgrwt>
<rscale>  0 0.12499567E+03</rscale>
<asrwt>0</asrwt>
<pdfrwt beam="2">  1        4 0.28464872E-01 0.12499567E+03</pdfrwt>
<pdfrwt beam="1">  1       -4 0.32478355E-02 0.12499567E+03</pdfrwt>
<totfact> 0.89120025E+03</totfact>
</mgrwt>
</event>
<event>
 5    1  0.3316199E-002  0.1250011E+03  0.7818608E-02  0.1235068E+00
         -4   -1    0    0    0  501 -0.00000000000E+00  0.00000000000E+00  0.97926534122E+03  0.97926616475E+03  0.12700000000E+01 0. -1.
          4   -1    0    0  501    0  0.00000000000E+00 -0.00000000000E+00 -0.38870987668E+01  0.40893076215E+01  0.12700000000E+01 0. -1.
         25    2    1    2    0    0  0.00000000000E+00  0.00000000000E+00  0.97537824246E+03  0.98335547237E+03  0.12500107673E+03 0.  0.
    9000005    1    3    3    0    0 -0.61662113562E+02  0.61209725501E+01  0.55142202048E+03  0.55489361794E+03  0.10000000000E+01 0.  0.
    9000005    1    3    3    0    0  0.61662113562E+02 -0.61209725501E+01  0.42395622197E+03  0.42846185443E+03  0.10000000000E+01 0.  0.
<mgrwt>
<rscale>  0 0.12500108E+03</rscale>
<asrwt>0</asrwt>
<pdfrwt beam="2">  1        4 0.61363324E-03 0.12500108E+03</pdfrwt>
<pdfrwt beam="1">  1       -4 0.15067178E+00 0.12500108E+03</pdfrwt>
<totfact> 0.31159797E+03</totfact>
</mgrwt>
</event>
<event>
 5    1  0.3316199E-002  0.1249951E+03  0.7818608E-02  0.1235077E+00
         -4   -1    0    0    0  501 -0.00000000000E+00  0.00000000000E+00  0.74539676295E+01  0.75613843588E+01  0.12700000000E+01 0. -1.
          4   -1    0    0  501    0  0.00000000000E+00 -0.00000000000E+00 -0.52015163749E+03  0.52015318790E+03  0.12700000000E+01 0. -1.
         25    2    1    2    0    0  0.00000000000E+00  0.00000000000E+00 -0.51269766986E+03  0.52771457226E+03  0.12499507628E+03 0.  0.
    9000005    1    3    3    0    0  0.55086582215E+02 -0.15534093077E+02 -0.36224176139E+03  0.36673687200E+03  0.10000000000E+01 0.  0.
    9000005    1    3    3    0    0 -0.55086582215E+02  0.15534093077E+02 -0.15045590846E+03  0.16097770025E+03  0.10000000000E+01 0.  0.
<mgrwt>
<rscale>  0 0.12499508E+03</rscale>
<asrwt>0</asrwt>
<pdfrwt beam="2">  1        4 0.80031683E-01 0.12499508E+03</pdfrwt>
<pdfrwt beam="1">  1       -4 0.11551467E-02 0.12499508E+03</pdfrwt>
<totfact> 0.53782228E+03</totfact>
</mgrwt>
</event>
<event>
 5    1  0.3316199E-002  0.1249978E+03  0.7818608E-02  0.1235073E+00
          4   -1    0    0  501    0  0.00000000000E+00  0.00000000000E+00  0.29283279837E+02  0.29310806505E+02  0.12700000000E+01 0.  1.
         -4   -1    0    0    0  501 -0.00000000000E+00 -0.00000000000E+00 -0.13329737660E+03  0.13330342647E+03  0.12700000000E+01 0.  1.
         25    2    1    2    0    0  0.00000000000E+00  0.00000000000E+00 -0.10401409677E+03  0.16261423298E+03  0.12499782574E+03 0.  0.
    9000005    1    3    3    0    0 -0.92557051890E+01  0.30184103954E+02  0.18151503800E+02  0.36431103473E+02  0.10000000000E+01 0.  0.
    9000005    1    3    3    0    0  0.92557051890E+01 -0.30184103954E+02 -0.12216560057E+03  0.12618312951E+03  0.10000000000E+01 0.  0.
<mgrwt>
<rscale>  0 0.12499783E+03</rscale>
<asrwt>0</asrwt>
<pdfrwt beam="1">  1        4 0.45077029E-02 0.12499783E+03</pdfrwt>
<pdfrwt beam="2">  1       -4 0.20509871E-01 0.12499783E+03</pdfrwt>
<totfact> 0.96845868E+03</totfact>
</mgrwt>
</event>
<event>
 5    1  0.3316199E-002  0.1250086E+03  0.7818608E-02  0.1235056E+00
         -4   -1    0    0    0  501 -0.00000000000E+00  0.00000000000E+00  0.47265082244E+03  0.47265252866E+03  0.12700000000E+01 0.  1.
          4   -1    0    0  501    0  0.00000000000E+00 -0.00000000000E+00 -0.82151739634E+01  0.83127602666E+01  0.12700000000E+01 0.  1.
         25    2    1    2    0    0  0.00000000000E+00  0.00000000000E+00  0.46443564847E+03  0.48096528893E+03  0.12500855003E+03 0.  0.
    9000005    1    3    3    0    0 -0.54066525290E+02  0.27024122865E+02  0.17110592580E+03  0.18147101757E+03  0.10000000000E+01 0.  0.
    9000005    1    3    3    0    0  0.54066525290E+02 -0.27024122865E+02  0.29332972268E+03  0.29949427136E+03  0.10000000000E+01 0.  0.
<mgrwt>
<rscale>  0 0.12500855E+03</rscale>
<asrwt>0</asrwt>
<pdfrwt beam="2">  1        4 0.12715113E-02 0.12500855E+03</pdfrwt>
<pdfrwt beam="1">  1       -4 0.72723123E-01 0.12500855E+03</pdfrwt>
<totfact> 0.57361295E+03</totfact>
</mgrwt>
</event>
<event>
 5    1  0.3316199E-002  0.1250018E+03  0.7818608E-02  0.1235067E+00
         -4   -1    0    0    0  501 -0.00000000000E+00  0.00000000000E+00  0.46656833998E+03  0.46657006845E+03  0.12700000000E+01 0. -1.
          4   -1    0    0  501    0  0.00000000000E+00 -0.00000000000E+00 -0.83226198374E+01  0.84189608004E+01  0.12700000000E+01 0. -1.
         25    2    1    2    0    0  0.00000000000E+00  0.00000000000E+00  0.45824572015E+03  0.47498902925E+03  0.12500175150E+03 0.  0.
    9000005    1    3    3    0    0 -0.33181805289E+02 -0.17358646387E+02  0.39015771888E+02  0.54088679616E+02  0.10000000000E+01 0.  0.
    9000005    1    3    3    0    0  0.33181805289E+02  0.17358646387E+02  0.41922994826E+03  0.42090034964E+03  0.10000000000E+01 0.  0.
<mgrwt>
<rscale>  0 0.12500175E+03</rscale>
<asrwt>0</asrwt>
<pdfrwt beam="2">  1        4 0.12879467E-02 0.12500175E+03</pdfrwt>
<pdfrwt beam="1">  1       -4 0.71787296E-01 0.12500175E+03</pdfrwt>
<totfact> 0.57856272E+03</totfact>
</mgrwt>
</event>
<event>
 5    1  0.3316199E-002  0.1249870E+03  0.7818608E-02  0.1235090E+00
         -4   -1    0    0    0  501 -0.00000000000E+00  0.00000000000E+00  0.14671185595E+04  0.14671191091E+04  0.12700000000E+01 0.  1.
          4   -1    0    0  501    0  0.00000000000E+00 -0.00000000000E+00 -0.25099190072E+01  0.28129332417E+01  0.12700000000E+01 0.  1.
         25    2    1    2    0    0  0.00000000000E+00  0.00000000000E+00  0.14646086405E+04  0.14699320424E+04  0.12498695748E+03 0.  0.
    9000005    1    3    3    0    0 -0.51071342226E+02  0.31578667726E+02  0.52896328255E+03  0.53236138904E+03  0.10000000000E+01 0.  0.
    9000005    1    3    3    0    0  0.51071342226E+02 -0.31578667726E+02  0.93564535791E+03  0.93757065335E+03  0.10000000000E+01 0.  0.
<mgrwt>
<rscale>  0 0.12498696E+03</rscale>
<asrwt>0</asrwt>
<pdfrwt beam="2">  1        4 0.40949354E-03 0.12498696E+03</pdfrwt>
<pdfrwt beam="1">  1       -4 0.22573330E+00 0.12498696E+03</pdfrwt>
<totfact> 0.18533515E+03</totfact>
</mgrwt>
</event>
<event>
 5    1  0.3316199E-002  0.1249982E+03  0.7818608E-02  0.1235072E+00
          4   -1    0    0  501    0  0.00000000000E+00  0.00000000000E+00  0.10795362729E+03  0.10796109737E+03  0.12700000000E+01 0. -1.
         -4   -1    0    0    0  501 -0.00000000000E+00 -0.00000000000E+00 -0.36163598402E+02  0.36185891580E+02  0.12700000000E+01 0. -1.
         25    2    1    2    0    0  0.00000000000E+00  0.00000000000E+00  0.71790028892E+02  0.14414698895E+03  0.12499818469E+03 0.  0.
    9000005    1    3    3    0    0 -0.54199891334E+01 -0.62137144370E+02  0.31468263754E+02  0.69868824352E+02  0.10000000000E+01 0.  0.
    9000005    1    3    3    0    0  0.54199891334E+01  0.62137144370E+02  0.40321765139E+02  0.74278164601E+02  0.10000000000E+01 0.  0.
<mgrwt>
<rscale>  0 0.12499818E+03</rscale>
<asrwt>0</asrwt>
<pdfrwt beam="1">  1        4 0.16610540E-01 0.12499818E+03</pdfrwt>
<pdfrwt beam="2">  1       -4 0.55659200E-02 0.12499818E+03</pdfrwt>
<totfact> 0.10048759E+04</totfact>
</mgrwt>
</event>
<event>
 5    1  0.3316199E-002  0.1249843E+03  0.7818608E-02  0.1235094E+00
          4   -1    0    0  501    0  0.00000000000E+00  0.00000000000E+00  0.34111971868E+02  0.34135604942E+02  0.12700000000E+01 0.  1.
         -4   -1    0    0    0  501 -0.00000000000E+00 -0.00000000000E+00 -0.11441693440E+03  0.11442398253E+03  0.12700000000E+01 0.  1.
         25    2    1    2    0    0  0.00000000000E+00  0.00000000000E+00 -0.80304962535E+02  0.14855958747E+03  0.12498425510E+03 0.  0.
    9000005    1    3    3    0    0  0.20773279560E+02 -0.36488839612E+00 -0.11019681225E+03  0.11214276489E+03  0.10000000000E+01 0.  0.
    9000005    1    3    3    0    0 -0.20773279560E+02  0.36488839612E+00  0.29891849718E+02  0.36416822579E+02  0.10000000000E+01 0.  0.
<mgrwt>
<rscale>  0 0.12498426E+03</rscale>
<asrwt>0</asrwt>
<pdfrwt beam="1">  1        4 0.52503558E-02 0.12498426E+03</pdfrwt>
<pdfrwt beam="2">  1       -4 0.17604965E-01 0.12498426E+03</pdfrwt>
<totfact> 0.99626905E+03</totfact>
</mgrwt>
</event>
<event>
 5    1  0.3316199E-002  0.1249915E+03  0.7818608E-02  0.1235083E+00
          4   -1    0    0  501    0  0.00000000000E+00  0.00000000000E+00  0.30996195737E+03  0.30996455913E+03  0.12700000000E+01 0. -1.
         -4   -1    0    0    0  501 -0.00000000000E+00 -0.00000000000E+00 -0.12565984167E+02  0.12629998341E+02  0.12700000000E+01 0. -1.
         25    2    1    2    0    0  0.00000000000E+00  0.00000000000E+00  0.29739597320E+03  0.32259455747E+03  0.12499153424E+03 0.  0.
    9000005    1    3    3    0    0 -0.33176134044E+02  0.50854472284E+02  0.11060081086E+03  0.12617595882E+03  0.10000000000E+01 0.  0.
    9000005    1    3    3    0    0  0.33176134044E+02 -0.50854472284E+02  0.18679516234E+03  0.19641859865E+03  0.10000000000E+01 0.  0.
<mgrwt>
<rscale>  0 0.12499153E+03</rscale>
<asrwt>0</asrwt>
<pdfrwt beam="1">  1        4 0.47691578E-01 0.12499153E+03</pdfrwt>
<pdfrwt beam="2">  1       -4 0.19383527E-02 0.12499153E+03</pdfrwt>
<totfact> 0.72862266E+03</totfact>
</mgrwt>
</event>
<event>
 5    1  0.3316199E-002  0.1250014E+03  0.7818608E-02  0.1235067E+00
          4   -1    0    0  501    0  0.00000000000E+00  0.00000000000E+00  0.24313821164E+03  0.24314152846E+03  0.12700000000E+01 0. -1.
         -4   -1    0    0    0  501 -0.00000000000E+00 -0.00000000000E+00 -0.16037798050E+02  0.16088003801E+02  0.12700000000E+01 0. -1.
         25    2    1    2    0    0  0.00000000000E+00  0.00000000000E+00  0.22710041359E+03  0.25922953226E+03  0.12500141016E+03 0.  0.
    9000005    1    3    3    0    0  0.53054545187E+02  0.30668631584E+02  0.13894814196E+03  0.15186486059E+03  0.10000000000E+01 0.  0.
    9000005    1    3    3    0    0 -0.53054545187E+02 -0.30668631584E+02  0.88152271632E+02  0.10736467167E+03  0.10000000000E+01 0.  0.
<mgrwt>
<rscale>  0 0.12500141E+03</rscale>
<asrwt>0</asrwt>
<pdfrwt beam="1">  1        4 0.37409994E-01 0.12500141E+03</pdfrwt>
<pdfrwt beam="2">  1       -4 0.24714708E-02 0.12500141E+03</pdfrwt>
<totfact> 0.81011764E+03</totfact>
</mgrwt>
</event>
<event>
 5    1  0.3316199E-002  0.1250035E+03  0.7818608E-02  0.1235064E+00
         -4   -1    0    0    0  501 -0.00000000000E+00  0.00000000000E+00  0.37887621597E+01  0.39959502879E+01  0.12700000000E+01 0. -1.
          4   -1    0    0  501    0  0.00000000000E+00 -0.00000000000E+00 -0.10034182563E+04  0.10034190600E+04  0.12700000000E+01 0. -1.
         25    2    1    2    0    0  0.00000000000E+00  0.00000000000E+00 -0.99962949416E+03  0.10074150103E+04  0.12500350956E+03 0.  0.
    9000005    1    3    3    0    0 -0.36350611474E+02  0.16042118033E+02 -0.11107286048E+03  0.11796989802E+03  0.10000000000E+01 0.  0.
    9000005    1    3    3    0    0  0.36350611474E+02 -0.16042118033E+02 -0.88855663368E+03  0.88944511228E+03  0.10000000000E+01 0.  0.
<mgrwt>
<rscale>  0 0.12500351E+03</rscale>
<asrwt>0</asrwt>
<pdfrwt beam="2">  1        4 0.15438783E+00 0.12500351E+03</pdfrwt>
<pdfrwt beam="1">  1       -4 0.59888666E-03 0.12500351E+03</pdfrwt>
<totfact> 0.30358617E+03</totfact>
</mgrwt>
</event>
<event>
 5    1  0.3316199E-002  0.1249973E+03  0.7818608E-02  0.1235073E+00
          4   -1    0    0  501    0  0.00000000000E+00  0.00000000000E+00  0.55629787381E+03  0.55629932348E+03  0.12700000000E+01 0.  1.
         -4   -1    0    0    0  501 -0.00000000000E+00 -0.00000000000E+00 -0.69626701992E+01  0.70775473366E+01  0.12700000000E+01 0.  1.
         25    2    1    2    0    0  0.00000000000E+00  0.00000000000E+00  0.54933520361E+03  0.56337687081E+03  0.12499733056E+03 0.  0.
    9000005    1    3    3    0    0  0.55284043707E+02 -0.16227562286E+02  0.38371956729E+03  0.38802237769E+03  0.10000000000E+01 0.  0.
    9000005    1    3    3    0    0 -0.55284043707E+02  0.16227562286E+02  0.16561563631E+03  0.17535449312E+03  0.10000000000E+01 0.  0.
<mgrwt>
<rscale>  0 0.12499733E+03</rscale>
<asrwt>0</asrwt>
<pdfrwt beam="1">  1        4 0.85593277E-01 0.12499733E+03</pdfrwt>
<pdfrwt beam="2">  1       -4 0.10801277E-02 0.12499733E+03</pdfrwt>
<totfact> 0.51267081E+03</totfact>
</mgrwt>
</event>
<event>
 5    1  0.3316199E-002  0.1249991E+03  0.7818608E-02  0.1235071E+00
         -4   -1    0    0    0  501 -0.00000000000E+00  0.00000000000E+00  0.79910274009E+02  0.79920365316E+02  0.12700000000E+01 0.  1.
          4   -1    0    0  501    0  0.00000000000E+00 -0.00000000000E+00 -0.48860854145E+02  0.48877356391E+02  0.12700000000E+01 0.  1.
         25    2    1    2    0    0  0.00000000000E+00  0.00000000000E+00  0.31049419864E+02  0.12879772171E+03  0.12499914657E+03 0.  0.
    9000005    1    3    3    0    0  0.64904865662E+01 -0.44811387972E+02 -0.28853954867E+02  0.53700443381E+02  0.10000000000E+01 0.  0.
    9000005    1    3    3    0    0 -0.64904865662E+01  0.44811387972E+02  0.59903374731E+02  0.75097278326E+02  0.10000000000E+01 0.  0.
<mgrwt>
<rscale>  0 0.12499915E+03</rscale>
<asrwt>0</asrwt>
<pdfrwt beam="2">  1        4 0.75191001E-02 0.12499915E+03</pdfrwt>
<pdfrwt beam="1">  1       -4 0.12295934E-01 0.12499915E+03</pdfrwt>
<totfact> 0.10370495E+04</totfact>
</mgrwt>
</event>
<event>
 5    1  0.3316199E-002  0.1250011E+03  0.7818608E-02  0.1235068E+00
         -4   -1    0    0    0  501 -0.00000000000E+00  0.00000000000E+00  0.45859813556E+02  0.45877395298E+02  0.12700000000E+01 0.  1.
          4   -1    0    0  501    0  0.00000000000E+00 -0.00000000000E+00 -0.85140862458E+02  0.85150333882E+02  0.12700000000E+01 0.  1.
         25    2    1    2    0    0  0.00000000000E+00  0.00000000000E+00 -0.39281048903E+02  0.13102772918E+03  0.12500106004E+03 0.  0.
    9000005    1    3    3    0    0 -0.43625273340E+02  0.29517503322E+02 -0.54890240675E+02  0.76081443189E+02  0.10000000000E+01 0.  0.
    9000005    1    3    3    0    0  0.43625273340E+02 -0.29517503322E+02  0.15609191773E+02  0.54946285991E+02  0.10000000000E+01 0.  0.
<mgrwt>
<rscale>  0 0.12500106E+03</rscale>
<asrwt>0</asrwt>
<pdfrwt beam="2">  1        4 0.13100675E-01 0.12500106E+03</pdfrwt>
<pdfrwt beam="1">  1       -4 0.70574370E-02 0.12500106E+03</pdfrwt>
<totfact> 0.10322248E+04</totfact>
</mgrwt>
</event>
<event>
 5    1  0.3316199E-002  0.1249995E+03  0.7818608E-02  0.1235070E+00
         -4   -1    0    0    0  501 -0.00000000000E+00  0.00000000000E+00  0.32601029049E+03  0.32601276418E+03  0.12700000000E+01 0. -1.
          4   -1    0    0  501    0  0.00000000000E+00 -0.00000000000E+00 -0.11945700738E+02  0.12013020691E+02  0.12700000000E+01 0. -1.
         25    2    1    2    0    0  0.00000000000E+00  0.00000000000E+00  0.31406458975E+03  0.33802578487E+03  0.12499945879E+03 0.  0.
    9000005    1    3    3    0    0 -0.34990541915E+02  0.70336677702E+01  0.29575118333E+03  0.29789859508E+03  0.10000000000E+01 0.  0.
    9000005    1    3    3    0    0  0.34990541915E+02 -0.70336677702E+01  0.18313406422E+02  0.40127189792E+02  0.10000000000E+01 0.  0.
<mgrwt>
<rscale>  0 0.12499946E+03</rscale>
<asrwt>0</asrwt>
<pdfrwt beam="2">  1        4 0.18431690E-02 0.12499946E+03</pdfrwt>
<pdfrwt beam="1">  1       -4 0.50160795E-01 0.12499946E+03</pdfrwt>
<totfact> 0.71063122E+03</totfact>
</mgrwt>
</event>
<event>
 5    1  0.3316199E-002  0.1250001E+03  0.7818608E-02  0.1235069E+00
          4   -1    0    0  501    0  0.00000000000E+00  0.00000000000E+00  0.63360508372E+01  0.64620770819E+01  0.12700000000E+01 0.  1.
         -4   -1    0    0    0  501 -0.00000000000E+00 -0.00000000000E+00 -0.61031484219E+03  0.61031616356E+03  0.12700000000E+01 0.  1.
         25    2    1    2    0    0  0.00000000000E+00  0.00000000000E+00 -0.60397879136E+03  0.61677824064E+03  0.12500007088E+03 0.  0.
    9000005    1    3    3    0    0 -0.61028633172E+02 -0.13439510172E+02 -0.30014364288E+03  0.30658167078E+03  0.10000000000E+01 0.  0.
    9000005    1    3    3    0    0  0.61028633172E+02  0.13439510172E+02 -0.30383514848E+03  0.31019656986E+03  0.10000000000E+01 0.  0.
<mgrwt>
<rscale>  0 0.12500007E+03</rscale>
<asrwt>0</asrwt>
<pdfrwt beam="1">  1        4 0.98457350E-03 0.12500007E+03</pdfrwt>
<pdfrwt beam="2">  1       -4 0.93904341E-01 0.12500007E+03</pdfrwt>
<totfact> 0.47825305E+03</totfact>
</mgrwt>
</event>
<event>
 5    1  0.3316199E-002  0.1249995E+03  0.7818608E-02  0.1235070E+00
          4   -1    0    0  501    0  0.00000000000E+00  0.00000000000E+00  0.71572259785E+01  0.72690290760E+01  0.12700000000E+01 0.  1.
         -4   -1    0    0    0  501 -0.00000000000E+00 -0.00000000000E+00 -0.54143007202E+03  0.54143156150E+03  0.12700000000E+01 0.  1.
         25    2    1    2    0    0  0.00000000000E+00  0.00000000000E+00 -0.53427284604E+03  0.54870059058E+03  0.12499945632E+03 0.  0.
    9000005    1    3    3    0    0  0.40856903699E+02 -0.11311868200E+02 -0.46867566814E+03  0.47059018992E+03  0.10000000000E+01 0.  0.
    9000005    1    3    3    0    0 -0.40856903699E+02  0.11311868200E+02 -0.65597177904E+02  0.78110400658E+02  0.10000000000E+01 0.  0.
<mgrwt>
<rscale>  0 0.12499946E+03</rscale>
<asrwt>0</asrwt>
<pdfrwt beam="1">  1        4 0.11098269E-02 0.12499946E+03</pdfrwt>
<pdfrwt beam="2">  1       -4 0.83305617E-01 0.12499946E+03</pdfrwt>
<totfact> 0.52275256E+03</totfact>
</mgrwt>
</event>
<event>
 5    1  0.3316199E-002  0.1249988E+03  0.7818608E-02  0.1235071E+00
          4   -1    0    0  501    0  0.00000000000E+00  0.00000000000E+00  0.22567109934E+03  0.22567467287E+03  0.12700000000E+01 0. -1.
         -4   -1    0    0    0  501 -0.00000000000E+00 -0.00000000000E+00 -0.17282152955E+02  0.17328753872E+02  0.12700000000E+01 0. -1.
         25    2    1    2    0    0  0.00000000000E+00  0.00000000000E+00  0.20838894638E+03  0.24300342674E+03  0.12499884973E+03 0.  0.
    9000005    1    3    3    0    0 -0.41563329243E+02  0.35538281583E+02  0.16299014004E+03  0.17192226600E+03  0.10000000000E+01 0.  0.
    9000005    1    3    3    0    0  0.41563329243E+02 -0.35538281583E+02  0.45398806342E+02  0.71081160746E+02  0.10000000000E+01 0.  0.
<mgrwt>
<rscale>  0 0.12499885E+03</rscale>
<asrwt>0</asrwt>
<pdfrwt beam="1">  1        4 0.34722494E-01 0.12499885E+03</pdfrwt>
<pdfrwt beam="2">  1       -4 0.26626521E-02 0.12499885E+03</pdfrwt>
<totfact> 0.83354217E+03</totfact>
</mgrwt>
</event>
<event>
 5    1  0.3316199E-002  0.1250156E+03  0.7818608E-02  0.1235045E+00
         -4   -1    0    0    0  501 -0.00000000000E+00  0.00000000000E+00  0.23370933733E+03  0.23371278796E+03  0.12700000000E+01 0. -1.
          4   -1    0    0  501    0  0.00000000000E+00 -0.00000000000E+00 -0.16690606022E+02  0.16738853885E+02  0.12700000000E+01 0. -1.
         25    2    1    2    0    0  0.00000000000E+00  0.00000000000E+00  0.21701873131E+03  0.25045164185E+03  0.12501557968E+03 0.  0.
    9000005    1    3    3    0    0  0.47400794462E+02 -0.21601451230E+02  0.39320321716E+02  0.65272855849E+02  0.10000000000E+01 0.  0.
    9000005    1    3    3    0    0 -0.47400794462E+02  0.21601451230E+02  0.17769840959E+03  0.18517878600E+03  0.10000000000E+01 0.  0.
<mgrwt>
<rscale>  0 0.12501558E+03</rscale>
<asrwt>0</asrwt>
<pdfrwt beam="2">  1        4 0.25717627E-02 0.12501558E+03</pdfrwt>
<pdfrwt beam="1">  1       -4 0.35959254E-01 0.12501558E+03</pdfrwt>
<totfact> 0.82236456E+03</totfact>
</mgrwt>
</event>
<event>
 5    1  0.3316199E-002  0.1250040E+03  0.7818608E-02  0.1235063E+00
          4   -1    0    0  501    0  0.00000000000E+00  0.00000000000E+00  0.24425654024E+02  0.24458648256E+02  0.12700000000E+01 0.  1.
         -4   -1    0    0    0  501 -0.00000000000E+00 -0.00000000000E+00 -0.15979085958E+03  0.15979590641E+03  0.12700000000E+01 0.  1.
         25    2    1    2    0    0  0.00000000000E+00  0.00000000000E+00 -0.13536520555E+03  0.18425455466E+03  0.12500400809E+03 0.  0.
    9000005    1    3    3    0    0 -0.38812642805E+01  0.34577669618E+02  0.88346308430E+01  0.35912813183E+02  0.10000000000E+01 0.  0.
    9000005    1    3    3    0    0  0.38812642805E+01 -0.34577669618E+02 -0.14419983640E+03  0.14834174148E+03  0.10000000000E+01 0.  0.
<mgrwt>
<rscale>  0 0.12500401E+03</rscale>
<asrwt>0</asrwt>
<pdfrwt beam="1">  1        4 0.37607193E-02 0.12500401E+03</pdfrwt>
<pdfrwt beam="2">  1       -4 0.24586135E-01 0.12500401E+03</pdfrwt>
<totfact> 0.92848386E+03</totfact>
</mgrwt>
</event>
<event>
 5    1  0.3316199E-002  0.1250002E+03  0.7818608E-02  0.1235069E+00
         -4   -1    0    0    0  501 -0.00000000000E+00  0.00000000000E+00  0.95339390255E+00  0.15880365025E+01  0.12700000000E+01 0.  1.
          4   -1    0    0  501    0  0.00000000000E+00 -0.00000000000E+00 -0.30734302368E+04  0.30734304992E+04  0.12700000000E+01 0.  1.
         25    2    1    2    0    0  0.00000000000E+00  0.00000000000E+00 -0.30724768429E+04  0.30750185357E+04  0.12500017895E+03 0.  0.
    9000005    1    3    3    0    0  0.32362948138E+02 -0.46103146059E+02 -0.87048795825E+03  0.87230908854E+03  0.10000000000E+01 0.  0.
    9000005    1    3    3    0    0 -0.32362948138E+02  0.46103146059E+02 -0.22019888846E+04  0.22027094471E+04  0.10000000000E+01 0.  0.
<mgrwt>
<rscale>  0 0.12500018E+03</rscale>
<asrwt>0</asrwt>
<pdfrwt beam="2">  1        4 0.47287831E+00 0.12500018E+03</pdfrwt>
<pdfrwt beam="1">  1       -4 0.19551729E-03 0.12500018E+03</pdfrwt>
<totfact> 0.15499855E+02</totfact>
</mgrwt>
</event>
<event>
 5    1  0.3316199E-002  0.1250004E+03  0.7818608E-02  0.1235069E+00
         -4   -1    0    0    0  501 -0.00000000000E+00  0.00000000000E+00  0.14732218866E+02  0.14786858108E+02  0.12700000000E+01 0.  1.
          4   -1    0    0  501    0  0.00000000000E+00 -0.00000000000E+00 -0.26460506863E+03  0.26460811636E+03  0.12700000000E+01 0.  1.
         25    2    1    2    0    0  0.00000000000E+00  0.00000000000E+00 -0.24987284976E+03  0.27939497447E+03  0.12500044284E+03 0.  0.
    9000005    1    3    3    0    0  0.42698913396E+02 -0.45609130148E+02 -0.12186545362E+03  0.13695100856E+03  0.10000000000E+01 0.  0.
    9000005    1    3    3    0    0 -0.42698913396E+02  0.45609130148E+02 -0.12800739614E+03  0.14244396591E+03  0.10000000000E+01 0.  0.
<mgrwt>
<rscale>  0 0.12500044E+03</rscale>
<asrwt>0</asrwt>
<pdfrwt beam="2">  1        4 0.40712906E-01 0.12500044E+03</pdfrwt>
<pdfrwt beam="1">  1       -4 0.22709329E-02 0.12500044E+03</pdfrwt>
<totfact> 0.78257627E+03</totfact>
</mgrwt>
</event>
<event>
 5    1  0.3316199E-002  0.1250009E+03  0.7818608E-02  0.1235068E+00
         -4   -1    0    0    0  501 -0.00000000000E+00  0.00000000000E+00  0.88590129403E+02  0.88599232094E+02  0.12700000000E+01 0. -1.
          4   -1    0    0  501    0  0.00000000000E+00 -0.00000000000E+00 -0.44073610387E+02  0.44091904388E+02  0.12700000000E+01 0. -1.
         25    2    1    2    0    0  0.00000000000E+00  0.00000000000E+00  0.44516519016E+02  0.13269113648E+03  0.12500086894E+03 0.  0.
    9000005    1    3    3    0    0 -0.40029285698E+02 -0.11382655796E+02  0.71746075490E+02  0.82948224301E+02  0.10000000000E+01 0.  0.
    9000005    1    3    3    0    0  0.40029285698E+02  0.11382655796E+02 -0.27229556474E+02  0.49742912181E+02  0.10000000000E+01 0.  0.
<mgrwt>
<rscale>  0 0.12500087E+03</rscale>
<asrwt>0</asrwt>
<pdfrwt beam="2">  1        4 0.67826628E-02 0.12500087E+03</pdfrwt>
<pdfrwt beam="1">  1       -4 0.13631358E-01 0.12500087E+03</pdfrwt>
<totfact> 0.10286767E+04</totfact>
</mgrwt>
</event>
<event>
 5    1  0.3316199E-002  0.1249855E+03  0.7818608E-02  0.1235092E+00
          4   -1    0    0  501    0  0.00000000000E+00  0.00000000000E+00  0.41946930606E+01  0.43827331509E+01  0.12700000000E+01 0. -1.
         -4   -1    0    0    0  501 -0.00000000000E+00 -0.00000000000E+00 -0.91042133902E+03  0.91042222482E+03  0.12700000000E+01 0. -1.
         25    2    1    2    0    0  0.00000000000E+00  0.00000000000E+00 -0.90622664596E+03  0.91480495797E+03  0.12498550827E+03 0.  0.
    9000005    1    3    3    0    0  0.38055173067E+02 -0.19331018574E+02 -0.11910509392E+03  0.12652631297E+03  0.10000000000E+01 0.  0.
    9000005    1    3    3    0    0 -0.38055173067E+02  0.19331018574E+02 -0.78712155204E+03  0.78827864500E+03  0.10000000000E+01 0.  0.
<mgrwt>
<rscale>  0 0.12498551E+03</rscale>
<asrwt>0</asrwt>
<pdfrwt beam="1">  1        4 0.65987088E-03 0.12498551E+03</pdfrwt>
<pdfrwt beam="2">  1       -4 0.14007920E+00 0.12498551E+03</pdfrwt>
<totfact> 0.33609997E+03</totfact>
</mgrwt>
</event>
<event>
 5    1  0.3316199E-002  0.1249972E+03  0.7818608E-02  0.1235074E+00
         -4   -1    0    0    0  501 -0.00000000000E+00  0.00000000000E+00  0.13731838680E+03  0.13732425953E+03  0.12700000000E+01 0.  1.
          4   -1    0    0  501    0  0.00000000000E+00 -0.00000000000E+00 -0.28424738475E+02  0.28453095743E+02  0.12700000000E+01 0.  1.
         25    2    1    2    0    0  0.00000000000E+00  0.00000000000E+00  0.10889364833E+03  0.16577735527E+03  0.12499721946E+03 0.  0.
    9000005    1    3    3    0    0 -0.11338107366E+02 -0.47382639807E+02  0.25464546519E+01  0.48797045658E+02  0.10000000000E+01 0.  0.
    9000005    1    3    3    0    0  0.11338107366E+02  0.47382639807E+02  0.10634719368E+03  0.11698030961E+03  0.10000000000E+01 0.  0.
<mgrwt>
<rscale>  0 0.12499722E+03</rscale>
<asrwt>0</asrwt>
<pdfrwt beam="2">  1        4 0.43756699E-02 0.12499722E+03</pdfrwt>
<pdfrwt beam="1">  1       -4 0.21128538E-01 0.12499722E+03</pdfrwt>
<totfact> 0.96246388E+03</totfact>
</mgrwt>
</event>
<event>
 5    1  0.3316199E-002  0.1250024E+03  0.7818608E-02  0.1235065E+00
         -4   -1    0    0    0  501 -0.00000000000E+00  0.00000000000E+00  0.55235514296E+03  0.55235660297E+03  0.12700000000E+01 0.  1.
          4   -1    0    0  501    0  0.00000000000E+00 -0.00000000000E+00 -0.70137703261E+01  0.71278239447E+01  0.12700000000E+01 0.  1.
         25    2    1    2    0    0  0.00000000000E+00  0.00000000000E+00  0.54534137263E+03  0.55948442692E+03  0.12500244503E+03 0.  0.
    9000005    1    3    3    0    0  0.15971336414E+02  0.45982619885E+02  0.97261030941E+02  0.10876669094E+03  0.10000000000E+01 0.  0.
    9000005    1    3    3    0    0 -0.15971336414E+02 -0.45982619885E+02  0.44808034169E+03  0.45071773598E+03  0.10000000000E+01 0.  0.
<mgrwt>
<rscale>  0 0.12500245E+03</rscale>
<asrwt>0</asrwt>
<pdfrwt beam="2">  1        4 0.10879272E-02 0.12500245E+03</pdfrwt>
<pdfrwt beam="1">  1       -4 0.84986601E-01 0.12500245E+03</pdfrwt>
<totfact> 0.51526425E+03</totfact>
</mgrwt>
</event>
<event>
 5    1  0.3316199E-002  0.1249988E+03  0.7818608E-02  0.1235071E+00
         -4   -1    0    0    0  501 -0.00000000000E+00  0.00000000000E+00  0.16102396970E+03  0.16102897788E+03  0.12700000000E+01 0. -1.
          4   -1    0    0  501    0  0.00000000000E+00 -0.00000000000E+00 -0.24236322834E+02  0.24269574461E+02  0.12700000000E+01 0. -1.
         25    2    1    2    0    0  0.00000000000E+00  0.00000000000E+00  0.13678764687E+03  0.18529855235E+03  0.12499877266E+03 0.  0.
    9000005    1    3    3    0    0 -0.13577199996E+02 -0.48958690998E+02  0.14456361386E+02  0.52832567310E+02  0.10000000000E+01 0.  0.
    9000005    1    3    3    0    0  0.13577199996E+02  0.48958690998E+02  0.12233128548E+03  0.13246598504E+03  0.10000000000E+01 0.  0.
<mgrwt>
<rscale>  0 0.12499877E+03</rscale>
<asrwt>0</asrwt>
<pdfrwt beam="2">  1        4 0.37316080E-02 0.12499877E+03</pdfrwt>
<pdfrwt beam="1">  1       -4 0.24775862E-01 0.12499877E+03</pdfrwt>
<totfact> 0.92674395E+03</totfact>
</mgrwt>
</event>
<event>
 5    1  0.3316199E-002  0.1250029E+03  0.7818608E-02  0.1235065E+00
         -4   -1    0    0    0  501 -0.00000000000E+00  0.00000000000E+00  0.63695296274E+01  0.64949062868E+01  0.12700000000E+01 0. -1.
          4   -1    0    0  501    0  0.00000000000E+00 -0.00000000000E+00 -0.60719644040E+03  0.60719776856E+03  0.12700000000E+01 0. -1.
         25    2    1    2    0    0  0.00000000000E+00  0.00000000000E+00 -0.60082691078E+03  0.61369267484E+03  0.12500288974E+03 0.  0.
    9000005    1    3    3    0    0 -0.16385140704E+02  0.56172423803E+02 -0.40815460390E+03  0.41232874592E+03  0.10000000000E+01 0.  0.
    9000005    1    3    3    0    0  0.16385140704E+02 -0.56172423803E+02 -0.19267230688E+03  0.20136392892E+03  0.10000000000E+01 0.  0.
<mgrwt>
<rscale>  0 0.12500289E+03</rscale>
<asrwt>0</asrwt>
<pdfrwt beam="2">  1        4 0.93424538E-01 0.12500289E+03</pdfrwt>
<pdfrwt beam="1">  1       -4 0.98967464E-03 0.12500289E+03</pdfrwt>
<totfact> 0.48011517E+03</totfact>
</mgrwt>
</event>
<event>
 5    1  0.3316199E-002  0.1249986E+03  0.7818608E-02  0.1235071E+00
          4   -1    0    0  501    0  0.00000000000E+00  0.00000000000E+00  0.11852652136E+04  0.11852658940E+04  0.12700000000E+01 0.  1.
         -4   -1    0    0    0  501 -0.00000000000E+00 -0.00000000000E+00 -0.31725440578E+01  0.34172994892E+01  0.12700000000E+01 0.  1.
         25    2    1    2    0    0  0.00000000000E+00  0.00000000000E+00  0.11820926695E+04  0.11886831935E+04  0.12499862035E+03 0.  0.
    9000005    1    3    3    0    0 -0.33749796635E+02 -0.31061919852E+02  0.99464578691E+03  0.99570333586E+03  0.10000000000E+01 0.  0.
    9000005    1    3    3    0    0  0.33749796635E+02  0.31061919852E+02  0.18744688261E+03  0.19297985759E+03  0.10000000000E+01 0.  0.
<mgrwt>
<rscale>  0 0.12499862E+03</rscale>
<asrwt>0</asrwt>
<pdfrwt beam="1">  1        4 0.18236739E+00 0.12499862E+03</pdfrwt>
<pdfrwt beam="2">  1       -4 0.50696334E-03 0.12499862E+03</pdfrwt>
<totfact> 0.25011650E+03</totfact>
</mgrwt>
</event>
<event>
 5    1  0.3316199E-002  0.1250028E+03  0.7818608E-02  0.1235065E+00
         -4   -1    0    0    0  501 -0.00000000000E+00  0.00000000000E+00  0.14792611394E+04  0.14792616846E+04  0.12700000000E+01 0.  1.
          4   -1    0    0  501    0  0.00000000000E+00 -0.00000000000E+00 -0.24875278940E+01  0.27929724351E+01  0.12700000000E+01 0.  1.
         25    2    1    2    0    0  0.00000000000E+00  0.00000000000E+00  0.14767736115E+04  0.14820546570E+04  0.12500282682E+03 0.  0.
    9000005    1    3    3    0    0  0.40489892735E+02  0.46676242176E+02  0.62759429539E+03  0.63062960810E+03  0.10000000000E+01 0.  0.
    9000005    1    3    3    0    0 -0.40489892735E+02 -0.46676242176E+02  0.84917931614E+03  0.85142504894E+03  0.10000000000E+01 0.  0.
<mgrwt>
<rscale>  0 0.12500283E+03</rscale>
<asrwt>0</asrwt>
<pdfrwt beam="2">  1        4 0.40623431E-03 0.12500283E+03</pdfrwt>
<pdfrwt beam="1">  1       -4 0.22760215E+00 0.12500283E+03</pdfrwt>
<totfact> 0.18284473E+03</totfact>
</mgrwt>
</event>
<event>
 5    1  0.3316199E-002  0.1250572E+03  0.7818608E-02  0.1234980E+00
         -4   -1    0    0    0  501 -0.00000000000E+00  0.00000000000E+00  0.12640325605E+03  0.12640963587E+03  0.12700000000E+01 0. -1.
          4   -1    0    0  501    0  0.00000000000E+00 -0.00000000000E+00 -0.30911185114E+02  0.30937263376E+02  0.12700000000E+01 0. -1.
         25    2    1    2    0    0  0.00000000000E+00  0.00000000000E+00  0.95492070936E+02  0.15734689924E+03  0.12505723126E+03 0.  0.
    9000005    1    3    3    0    0 -0.39898772929E+02  0.16708179817E+02  0.10454299509E+03  0.11314288832E+03  0.10000000000E+01 0.  0.
    9000005    1    3    3    0    0  0.39898772929E+02 -0.16708179817E+02 -0.90509241535E+01  0.44204010928E+02  0.10000000000E+01 0.  0.
<mgrwt>
<rscale>  0 0.12505723E+03</rscale>
<asrwt>0</asrwt>
<pdfrwt beam="2">  1        4 0.47580637E-02 0.12505723E+03</pdfrwt>
<pdfrwt beam="1">  1       -4 0.19449152E-01 0.12505723E+03</pdfrwt>
<totfact> 0.97730919E+03</totfact>
</mgrwt>
</event>
<event>
 5    1  0.3316199E-002  0.1249991E+03  0.7818608E-02  0.1235071E+00
         -4   -1    0    0    0  501 -0.00000000000E+00  0.00000000000E+00  0.16068555415E+03  0.16069057288E+03  0.12700000000E+01 0. -1.
          4   -1    0    0  501    0  0.00000000000E+00 -0.00000000000E+00 -0.24287574392E+02  0.24320755947E+02  0.12700000000E+01 0. -1.
         25    2    1    2    0    0  0.00000000000E+00  0.00000000000E+00  0.13639797976E+03  0.18501132883E+03  0.12499913165E+03 0.  0.
    9000005    1    3    3    0    0 -0.72262291893E+00 -0.47412853836E+02  0.79551583176E+01  0.48091427891E+02  0.10000000000E+01 0.  0.
    9000005    1    3    3    0    0  0.72262291893E+00  0.47412853836E+02  0.12844282144E+03  0.13691990094E+03  0.10000000000E+01 0.  0.
<mgrwt>
<rscale>  0 0.12499913E+03</rscale>
<asrwt>0</asrwt>
<pdfrwt beam="2">  1        4 0.37394884E-02 0.12499913E+03</pdfrwt>
<pdfrwt beam="1">  1       -4 0.24723793E-01 0.12499913E+03</pdfrwt>
<totfact> 0.92724451E+03</totfact>
</mgrwt>
</event>
<event>
 5    1  0.3316199E-002  0.1249980E+03  0.7818608E-02  0.1235072E+00
         -4   -1    0    0    0  501 -0.00000000000E+00  0.00000000000E+00  0.25686483755E+02  0.25717860481E+02  0.12700000000E+01 0. -1.
          4   -1    0    0  501    0  0.00000000000E+00 -0.00000000000E+00 -0.15194230653E+03  0.15194761404E+03  0.12700000000E+01 0. -1.
         25    2    1    2    0    0  0.00000000000E+00  0.00000000000E+00 -0.12625582277E+03  0.17766547452E+03  0.12499795220E+03 0.  0.
    9000005    1    3    3    0    0 -0.59509024908E+02 -0.48853878234E+01 -0.89333595295E+02  0.10745548989E+03  0.10000000000E+01 0.  0.
    9000005    1    3    3    0    0  0.59509024908E+02  0.48853878234E+01 -0.36922227476E+02  0.70209984629E+02  0.10000000000E+01 0.  0.
<mgrwt>
<rscale>  0 0.12499795E+03</rscale>
<asrwt>0</asrwt>
<pdfrwt beam="2">  1        4 0.23378561E-01 0.12499795E+03</pdfrwt>
<pdfrwt beam="1">  1       -4 0.39545887E-02 0.12499795E+03</pdfrwt>
<totfact> 0.94043240E+03</totfact>
</mgrwt>
</event>
<event>
 5    1  0.3316199E-002  0.1249994E+03  0.7818608E-02  0.1235070E+00
          4   -1    0    0  501    0  0.00000000000E+00  0.00000000000E+00  0.10432212146E+03  0.10432985155E+03  0.12700000000E+01 0. -1.
         -4   -1    0    0    0  501 -0.00000000000E+00 -0.00000000000E+00 -0.37423872861E+02  0.37445415739E+02  0.12700000000E+01 0. -1.
         25    2    1    2    0    0  0.00000000000E+00  0.00000000000E+00  0.66898248595E+02  0.14177526729E+03  0.12499940300E+03 0.  0.
    9000005    1    3    3    0    0  0.33876864159E+02  0.22305381964E+02 -0.20470972830E+02  0.45444831592E+02  0.10000000000E+01 0.  0.
    9000005    1    3    3    0    0 -0.33876864159E+02 -0.22305381964E+02  0.87369221425E+02  0.96330435701E+02  0.10000000000E+01 0.  0.
<mgrwt>
<rscale>  0 0.12499940E+03</rscale>
<asrwt>0</asrwt>
<pdfrwt beam="1">  1        4 0.16051809E-01 0.12499940E+03</pdfrwt>
<pdfrwt beam="2">  1       -4 0.57597708E-02 0.12499940E+03</pdfrwt>
<totfact> 0.10097060E+04</totfact>
</mgrwt>
</event>
<event>
 4    1  0.3316199E-002  0.1250650E+03  0.7818608E-02  0.1234968E+00
         -4   -1    0    0    0  501 -0.00000000000E+00  0.00000000000E+00  0.12989081132E+03  0.12989701985E+03  0.12700000000E+01 0. -1.
          4   -1    0    0  501    0  0.00000000000E+00 -0.00000000000E+00 -0.30084300502E+02  0.30111094910E+02  0.12700000000E+01 0. -1.
    9000005    1    1    2    0    0  0.61111271624E+02  0.13217268174E+02  0.50127055625E+02  0.80143654790E+02  0.10000000000E+01 0.  0.
    9000005    1    1    2    0    0 -0.61111271624E+02 -0.13217268174E+02  0.49679455192E+02  0.79864459966E+02  0.10000000000E+01 0.  0.
<mgrwt>
<rscale>  0 0.12506501E+03</rscale>
<asrwt>0</asrwt>
<pdfrwt beam="2">  1        4 0.46308926E-02 0.12506501E+03</pdfrwt>
<pdfrwt beam="1">  1       -4 0.19985740E-01 0.12506501E+03</pdfrwt>
<totfact> 0.97199113E+03</totfact>
</mgrwt>
</event>
<event>
 5    1  0.3316199E-002  0.1249997E+03  0.7818608E-02  0.1235070E+00
          4   -1    0    0  501    0  0.00000000000E+00  0.00000000000E+00  0.51256163224E+02  0.51271894527E+02  0.12700000000E+01 0.  1.
         -4   -1    0    0    0  501 -0.00000000000E+00 -0.00000000000E+00 -0.76177204631E+02  0.76187790396E+02  0.12700000000E+01 0.  1.
         25    2    1    2    0    0  0.00000000000E+00  0.00000000000E+00 -0.24921041408E+02  0.12745968492E+03  0.12499965190E+03 0.  0.
    9000005    1    3    3    0    0 -0.36474738164E+02 -0.40865199406E+02 -0.43133365675E+02  0.69727026906E+02  0.10000000000E+01 0.  0.
    9000005    1    3    3    0    0  0.36474738164E+02  0.40865199406E+02  0.18212324268E+02  0.57732658018E+02  0.10000000000E+01 0.  0.
<mgrwt>
<rscale>  0 0.12499965E+03</rscale>
<asrwt>0</asrwt>
<pdfrwt beam="1">  1        4 0.78875879E-02 0.12499965E+03</pdfrwt>
<pdfrwt beam="2">  1       -4 0.11721594E-01 0.12499965E+03</pdfrwt>
<totfact> 0.10399255E+04</totfact>
</mgrwt>
</event>
<event>
 5    1  0.3316199E-002  0.1250113E+03  0.7818608E-02  0.1235052E+00
         -4   -1    0    0    0  501 -0.00000000000E+00  0.00000000000E+00  0.10903458661E+04  0.10903466057E+04  0.12700000000E+01 0.  1.
          4   -1    0    0  501    0  0.00000000000E+00 -0.00000000000E+00 -0.34699303101E+01  0.36950394256E+01  0.12700000000E+01 0.  1.
         25    2    1    2    0    0  0.00000000000E+00  0.00000000000E+00  0.10868759358E+04  0.10940416452E+04  0.12501128561E+03 0.  0.
    9000005    1    3    3    0    0 -0.32025002930E+02 -0.23639491358E+02  0.96510698413E+03  0.96592800829E+03  0.10000000000E+01 0.  0.
    9000005    1    3    3    0    0  0.32025002930E+02  0.23639491358E+02  0.12176895166E+03  0.12811363687E+03  0.10000000000E+01 0.  0.
<mgrwt>
<rscale>  0 0.12501129E+03</rscale>
<asrwt>0</asrwt>
<pdfrwt beam="2">  1        4 0.55120775E-03 0.12501129E+03</pdfrwt>
<pdfrwt beam="1">  1       -4 0.16776309E+00 0.12501129E+03</pdfrwt>
<totfact> 0.27651581E+03</totfact>
</mgrwt>
</event>
<event>
 5    1  0.3316199E-002  0.1249988E+03  0.7818608E-02  0.1235071E+00
          4   -1    0    0  501    0  0.00000000000E+00  0.00000000000E+00  0.23213106251E+01  0.26460126640E+01  0.12700000000E+01 0. -1.
         -4   -1    0    0    0  501 -0.00000000000E+00 -0.00000000000E+00 -0.15724229161E+04  0.15724234289E+04  0.12700000000E+01 0. -1.
         25    2    1    2    0    0  0.00000000000E+00  0.00000000000E+00 -0.15701016054E+04  0.15750694416E+04  0.12499877782E+03 0.  0.
    9000005    1    3    3    0    0  0.12303175822E+02 -0.44440499584E+02 -0.25359972156E+03  0.25775985900E+03  0.10000000000E+01 0.  0.
    9000005    1    3    3    0    0 -0.12303175822E+02  0.44440499584E+02 -0.13165018839E+04  0.13173095826E+04  0.10000000000E+01 0.  0.
<mgrwt>
<rscale>  0 0.12499878E+03</rscale>
<asrwt>0</asrwt>
<pdfrwt beam="1">  1        4 0.38214250E-03 0.12499878E+03</pdfrwt>
<pdfrwt beam="2">  1       -4 0.24193544E+00 0.12499878E+03</pdfrwt>
<totfact> 0.16501592E+03</totfact>
</mgrwt>
</event>
<event>
 5    1  0.3316199E-002  0.1250028E+03  0.7818608E-02  0.1235065E+00
         -4   -1    0    0    0  501 -0.00000000000E+00  0.00000000000E+00  0.35844558211E+02  0.35867049689E+02  0.12700000000E+01 0.  1.
          4   -1    0    0  501    0  0.00000000000E+00 -0.00000000000E+00 -0.10892193115E+03  0.10892933483E+03  0.12700000000E+01 0.  1.
         25    2    1    2    0    0  0.00000000000E+00  0.00000000000E+00 -0.73077372940E+02  0.14479638452E+03  0.12500276210E+03 0.  0.
    9000005    1    3    3    0    0 -0.45679249695E+02  0.13931441828E+02 -0.83229403185E+02  0.95962557692E+02  0.10000000000E+01 0.  0.
    9000005    1    3    3    0    0  0.45679249695E+02 -0.13931441828E+02  0.10152030245E+02  0.48833826824E+02  0.10000000000E+01 0.  0.
<mgrwt>
<rscale>  0 0.12500276E+03</rscale>
<asrwt>0</asrwt>
<pdfrwt beam="2">  1        4 0.16759520E-01 0.12500276E+03</pdfrwt>
<pdfrwt beam="1">  1       -4 0.55168471E-02 0.12500276E+03</pdfrwt>
<totfact> 0.10034503E+04</totfact>
</mgrwt>
</event>
<event>
 5    1  0.3316199E-002  0.1250005E+03  0.7818608E-02  0.1235068E+00
         -4   -1    0    0    0  501 -0.00000000000E+00  0.00000000000E+00  0.68097112114E+02  0.68108953731E+02  0.12700000000E+01 0.  1.
          4   -1    0    0  501    0  0.00000000000E+00 -0.00000000000E+00 -0.57339534251E+02  0.57353596994E+02  0.12700000000E+01 0.  1.
         25    2    1    2    0    0  0.00000000000E+00  0.00000000000E+00  0.10757577863E+02  0.12546255072E+03  0.12500050461E+03 0.  0.
    9000005    1    3    3    0    0 -0.48914197820E+02 -0.38836173791E+02  0.74923730677E+01  0.62912501121E+02  0.10000000000E+01 0.  0.
    9000005    1    3    3    0    0  0.48914197820E+02  0.38836173791E+02  0.32652047958E+01  0.62550049604E+02  0.10000000000E+01 0.  0.
<mgrwt>
<rscale>  0 0.12500050E+03</rscale>
<asrwt>0</asrwt>
<pdfrwt beam="2">  1        4 0.88234595E-02 0.12500050E+03</pdfrwt>
<pdfrwt beam="1">  1       -4 0.10478471E-01 0.12500050E+03</pdfrwt>
<totfact> 0.10442663E+04</totfact>
</mgrwt>
</event>
<event>
 5    1  0.3316199E-002  0.1250008E+03  0.7818608E-02  0.1235068E+00
          4   -1    0    0  501    0  0.00000000000E+00  0.00000000000E+00  0.24883093416E+02  0.24915481893E+02  0.12700000000E+01 0.  1.
         -4   -1    0    0    0  501 -0.00000000000E+00 -0.00000000000E+00 -0.15684916161E+03  0.15685430309E+03  0.12700000000E+01 0.  1.
         25    2    1    2    0    0  0.00000000000E+00  0.00000000000E+00 -0.13196606819E+03  0.18176978498E+03  0.12500084631E+03 0.  0.
    9000005    1    3    3    0    0  0.47528319744E+02 -0.40517016448E+02 -0.62819435691E+02  0.88588099088E+02  0.10000000000E+01 0.  0.
    9000005    1    3    3    0    0 -0.47528319744E+02  0.40517016448E+02 -0.69146632503E+02  0.93181685894E+02  0.10000000000E+01 0.  0.
<mgrwt>
<rscale>  0 0.12500085E+03</rscale>
<asrwt>0</asrwt>
<pdfrwt beam="1">  1        4 0.38310552E-02 0.12500085E+03</pdfrwt>
<pdfrwt beam="2">  1       -4 0.24133527E-01 0.12500085E+03</pdfrwt>
<totfact> 0.93297633E+03</totfact>
</mgrwt>
</event>
<event>
 5    1  0.3316199E-002  0.1250005E+03  0.7818608E-02  0.1235069E+00
         -4   -1    0    0    0  501 -0.00000000000E+00  0.00000000000E+00  0.95996179858E+03  0.95996263867E+03  0.12700000000E+01 0. -1.
          4   -1    0    0  501    0  0.00000000000E+00 -0.00000000000E+00 -0.39692504850E+01  0.41674751844E+01  0.12700000000E+01 0. -1.
         25    2    1    2    0    0  0.00000000000E+00  0.00000000000E+00  0.95599254810E+03  0.96413011385E+03  0.12500049767E+03 0.  0.
    9000005    1    3    3    0    0  0.41516772630E+02 -0.75735848796E+01  0.83348819527E+03  0.83455651292E+03  0.10000000000E+01 0.  0.
    9000005    1    3    3    0    0 -0.41516772630E+02  0.75735848796E+01  0.12250435282E+03  0.12957360093E+03  0.10000000000E+01 0.  0.
<mgrwt>
<rscale>  0 0.12500050E+03</rscale>
<asrwt>0</asrwt>
<pdfrwt beam="2">  1        4 0.62596575E-03 0.12500050E+03</pdfrwt>
<pdfrwt beam="1">  1       -4 0.14770194E+00 0.12500050E+03</pdfrwt>
<totfact> 0.31819158E+03</totfact>
</mgrwt>
</event>
<event>
 5    1  0.3316199E-002  0.1250002E+03  0.7818608E-02  0.1235069E+00
          4   -1    0    0  501    0  0.00000000000E+00  0.00000000000E+00  0.87204915976E+02  0.87214163244E+02  0.12700000000E+01 0. -1.
         -4   -1    0    0    0  501 -0.00000000000E+00 -0.00000000000E+00 -0.44773443768E+02  0.44791451940E+02  0.12700000000E+01 0. -1.
         25    2    1    2    0    0  0.00000000000E+00  0.00000000000E+00  0.42431472208E+02  0.13200561518E+03  0.12500021043E+03 0.  0.
    9000005    1    3    3    0    0  0.43160395765E+02  0.44393687339E+02  0.12277098880E+02  0.63129599991E+02  0.10000000000E+01 0.  0.
    9000005    1    3    3    0    0 -0.43160395765E+02 -0.44393687339E+02  0.30154373328E+02  0.68876015193E+02  0.10000000000E+01 0.  0.
<mgrwt>
<rscale>  0 0.12500021E+03</rscale>
<asrwt>0</asrwt>
<pdfrwt beam="1">  1        4 0.13418237E-01 0.12500021E+03</pdfrwt>
<pdfrwt beam="2">  1       -4 0.68903187E-02 0.12500021E+03</pdfrwt>
<totfact> 0.10301530E+04</totfact>
</mgrwt>
</event>
<event>
 5    1  0.3316199E-002  0.1250008E+03  0.7818608E-02  0.1235068E+00
         -4   -1    0    0    0  501 -0.00000000000E+00  0.00000000000E+00  0.16365498432E+02  0.16414701914E+02  0.12700000000E+01 0. -1.
          4   -1    0    0  501    0  0.00000000000E+00 -0.00000000000E+00 -0.23828203288E+03  0.23828541729E+03  0.12700000000E+01 0. -1.
         25    2    1    2    0    0  0.00000000000E+00  0.00000000000E+00 -0.22191653445E+03  0.25470011920E+03  0.12500080984E+03 0.  0.
    9000005    1    3    3    0    0 -0.57109213881E+01 -0.61872838280E+02 -0.12454118164E+03  0.13918465671E+03  0.10000000000E+01 0.  0.
    9000005    1    3    3    0    0  0.57109213881E+01  0.61872838280E+02 -0.97375352808E+02  0.11551546249E+03  0.10000000000E+01 0.  0.
<mgrwt>
<rscale>  0 0.12500081E+03</rscale>
<asrwt>0</asrwt>
<pdfrwt beam="2">  1        4 0.36662817E-01 0.12500081E+03</pdfrwt>
<pdfrwt beam="1">  1       -4 0.25218144E-02 0.12500081E+03</pdfrwt>
<totfact> 0.81654153E+03</totfact>
</mgrwt>
</event>
<event>
 5    1  0.3316199E-002  0.1249996E+03  0.7818608E-02  0.1235070E+00
          4   -1    0    0  501    0  0.00000000000E+00  0.00000000000E+00  0.48174492718E+03  0.48174660119E+03  0.12700000000E+01 0.  1.
         -4   -1    0    0    0  501 -0.00000000000E+00 -0.00000000000E+00 -0.80570675538E+01  0.81565456884E+01  0.12700000000E+01 0.  1.
         25    2    1    2    0    0  0.00000000000E+00  0.00000000000E+00  0.47368785963E+03  0.48990314688E+03  0.12499961988E+03 0.  0.
    9000005    1    3    3    0    0  0.46244040941E+02 -0.35940397664E+02  0.15142589172E+03  0.16236078402E+03  0.10000000000E+01 0.  0.
    9000005    1    3    3    0    0 -0.46244040941E+02  0.35940397664E+02  0.32226196791E+03  0.32754236286E+03  0.10000000000E+01 0.  0.
<mgrwt>
<rscale>  0 0.12499962E+03</rscale>
<asrwt>0</asrwt>
<pdfrwt beam="1">  1        4 0.74122391E-01 0.12499962E+03</pdfrwt>
<pdfrwt beam="2">  1       -4 0.12473297E-02 0.12499962E+03</pdfrwt>
<totfact> 0.56656826E+03</totfact>
</mgrwt>
</event>
<event>
 5    1  0.3316199E-002  0.1249965E+03  0.7818608E-02  0.1235075E+00
         -4   -1    0    0    0  501 -0.00000000000E+00  0.00000000000E+00  0.25884047400E+01  0.28831821132E+01  0.12700000000E+01 0. -1.
          4   -1    0    0  501    0  0.00000000000E+00 -0.00000000000E+00 -0.14274547358E+04  0.14274553007E+04  0.12700000000E+01 0. -1.
         25    2    1    2    0    0  0.00000000000E+00  0.00000000000E+00 -0.14248663310E+04  0.14303384829E+04  0.12499645671E+03 0.  0.
    9000005    1    3    3    0    0  0.13450604350E+02 -0.60994719656E+02 -0.69026212012E+03  0.69308301744E+03  0.10000000000E+01 0.  0.
    9000005    1    3    3    0    0 -0.13450604350E+02  0.60994719656E+02 -0.73460421092E+03  0.73725546541E+03  0.10000000000E+01 0.  0.
<mgrwt>
<rscale>  0 0.12499646E+03</rscale>
<asrwt>0</asrwt>
<pdfrwt beam="2">  1        4 0.21963054E+00 0.12499646E+03</pdfrwt>
<pdfrwt beam="1">  1       -4 0.42093590E-03 0.12499646E+03</pdfrwt>
<totfact> 0.19340673E+03</totfact>
</mgrwt>
</event>
<event>
 5    1  0.3316199E-002  0.1250007E+03  0.7818608E-02  0.1235068E+00
         -4   -1    0    0    0  501 -0.00000000000E+00  0.00000000000E+00  0.10947916641E+04  0.10947924008E+04  0.12700000000E+01 0. -1.
          4   -1    0    0  501    0  0.00000000000E+00 -0.00000000000E+00 -0.34543011701E+01  0.36803663641E+01  0.12700000000E+01 0. -1.
         25    2    1    2    0    0  0.00000000000E+00  0.00000000000E+00  0.10913373630E+04  0.10984727671E+04  0.12500072123E+03 0.  0.
    9000005    1    3    3    0    0  0.91172016757E+01  0.57827845791E+02  0.35351815426E+03  0.35833401807E+03  0.10000000000E+01 0.  0.
    9000005    1    3    3    0    0 -0.91172016757E+01 -0.57827845791E+02  0.73781920871E+03  0.74013874906E+03  0.10000000000E+01 0.  0.
<mgrwt>
<rscale>  0 0.12500072E+03</rscale>
<asrwt>0</asrwt>
<pdfrwt beam="2">  1        4 0.54887708E-03 0.12500072E+03</pdfrwt>
<pdfrwt beam="1">  1       -4 0.16844698E+00 0.12500072E+03</pdfrwt>
<totfact> 0.27527685E+03</totfact>
</mgrwt>
</event>
<event>
 5    1  0.3316199E-002  0.1250043E+03  0.7818608E-02  0.1235062E+00
          4   -1    0    0  501    0  0.00000000000E+00  0.00000000000E+00  0.15250704235E+02  0.15303492401E+02  0.12700000000E+01 0. -1.
         -4   -1    0    0    0  501 -0.00000000000E+00 -0.00000000000E+00 -0.25565659706E+03  0.25565975147E+03  0.12700000000E+01 0. -1.
         25    2    1    2    0    0  0.00000000000E+00  0.00000000000E+00 -0.24040589283E+03  0.27096324387E+03  0.12500434482E+03 0.  0.
    9000005    1    3    3    0    0 -0.59955148821E+02  0.17379918581E+02 -0.11375807515E+03  0.12976355845E+03  0.10000000000E+01 0.  0.
    9000005    1    3    3    0    0  0.59955148821E+02 -0.17379918581E+02 -0.12664781768E+03  0.14119968542E+03  0.10000000000E+01 0.  0.
<mgrwt>
<rscale>  0 0.12500434E+03</rscale>
<asrwt>0</asrwt>
<pdfrwt beam="1">  1        4 0.23505657E-02 0.12500434E+03</pdfrwt>
<pdfrwt beam="2">  1       -4 0.39336084E-01 0.12500434E+03</pdfrwt>
<totfact> 0.79384054E+03</totfact>
</mgrwt>
</event>
<event>
 5    1  0.3316199E-002  0.1249921E+03  0.7818608E-02  0.1235082E+00
         -4   -1    0    0    0  501 -0.00000000000E+00  0.00000000000E+00  0.78065373247E+01  0.79091671497E+01  0.12700000000E+01 0. -1.
          4   -1    0    0  501    0  0.00000000000E+00 -0.00000000000E+00 -0.49694822481E+03  0.49694984761E+03  0.12700000000E+01 0. -1.
         25    2    1    2    0    0  0.00000000000E+00  0.00000000000E+00 -0.48914168749E+03  0.50485901476E+03  0.12499213715E+03 0.  0.
    9000005    1    3    3    0    0 -0.30366632573E+02 -0.51603564906E+02 -0.17235082664E+03  0.18245785192E+03  0.10000000000E+01 0.  0.
    9000005    1    3    3    0    0  0.30366632573E+02  0.51603564906E+02 -0.31679086085E+03  0.32240116284E+03  0.10000000000E+01 0.  0.
<mgrwt>
<rscale>  0 0.12499214E+03</rscale>
<asrwt>0</asrwt>
<pdfrwt beam="2">  1        4 0.76461568E-01 0.12499214E+03</pdfrwt>
<pdfrwt beam="1">  1       -4 0.12090256E-02 0.12499214E+03</pdfrwt>
<totfact> 0.55498932E+03</totfact>
</mgrwt>
</event>
<event>
 5    1  0.3316199E-002  0.1250057E+03  0.7818608E-02  0.1235060E+00
          4   -1    0    0  501    0  0.00000000000E+00  0.00000000000E+00  0.37241154795E+01  0.39347091512E+01  0.12700000000E+01 0. -1.
         -4   -1    0    0    0  501 -0.00000000000E+00 -0.00000000000E+00 -0.10199477370E+04  0.10199485277E+04  0.12700000000E+01 0. -1.
         25    2    1    2    0    0  0.00000000000E+00  0.00000000000E+00 -0.10162236215E+04  0.10238832368E+04  0.12500573476E+03 0.  0.
    9000005    1    3    3    0    0  0.45751000747E+01  0.59790574015E+02 -0.36395469923E+03  0.36886293846E+03  0.10000000000E+01 0.  0.
    9000005    1    3    3    0    0 -0.45751000747E+01 -0.59790574015E+02 -0.65226892228E+03  0.65502029835E+03  0.10000000000E+01 0.  0.
<mgrwt>
<rscale>  0 0.12500573E+03</rscale>
<asrwt>0</asrwt>
<pdfrwt beam="1">  1        4 0.58920199E-03 0.12500573E+03</pdfrwt>
<pdfrwt beam="2">  1       -4 0.15693108E+00 0.12500573E+03</pdfrwt>
<totfact> 0.29820757E+03</totfact>
</mgrwt>
</event>
<event>
 5    1  0.3316199E-002  0.1250204E+03  0.7818608E-02  0.1235037E+00
         -4   -1    0    0    0  501 -0.00000000000E+00  0.00000000000E+00  0.20479550894E+02  0.20518891413E+02  0.12700000000E+01 0. -1.
          4   -1    0    0  501    0  0.00000000000E+00 -0.00000000000E+00 -0.19057675687E+03  0.19058098845E+03  0.12700000000E+01 0. -1.
         25    2    1    2    0    0  0.00000000000E+00  0.00000000000E+00 -0.17009720598E+03  0.21109987986E+03  0.12502039753E+03 0.  0.
    9000005    1    3    3    0    0  0.49709946524E+02  0.29935618175E+02 -0.12426108261E+03  0.13714604140E+03  0.10000000000E+01 0.  0.
    9000005    1    3    3    0    0 -0.49709946524E+02 -0.29935618175E+02 -0.45836123363E+02  0.73953838466E+02  0.10000000000E+01 0.  0.
<mgrwt>
<rscale>  0 0.12502040E+03</rscale>
<asrwt>0</asrwt>
<pdfrwt beam="2">  1        4 0.29322851E-01 0.12502040E+03</pdfrwt>
<pdfrwt beam="1">  1       -4 0.31540520E-02 0.12502040E+03</pdfrwt>
<totfact> 0.88256322E+03</totfact>
</mgrwt>
</event>
<event>
 5    1  0.3316199E-002  0.1249970E+03  0.7818608E-02  0.1235074E+00
         -4   -1    0    0    0  501 -0.00000000000E+00  0.00000000000E+00  0.25602281351E+02  0.25633761144E+02  0.12700000000E+01 0.  1.
          4   -1    0    0  501    0  0.00000000000E+00 -0.00000000000E+00 -0.15243899012E+03  0.15244428034E+03  0.12700000000E+01 0.  1.
         25    2    1    2    0    0  0.00000000000E+00  0.00000000000E+00 -0.12683670877E+03  0.17807804148E+03  0.12499695263E+03 0.  0.
    9000005    1    3    3    0    0  0.26065832184E+02  0.26729885371E+02  0.79732027913E+01  0.38190134094E+02  0.10000000000E+01 0.  0.
    9000005    1    3    3    0    0 -0.26065832184E+02 -0.26729885371E+02 -0.13480991156E+03  0.13988790739E+03  0.10000000000E+01 0.  0.
<mgrwt>
<rscale>  0 0.12499695E+03</rscale>
<asrwt>0</asrwt>
<pdfrwt beam="2">  1        4 0.23454980E-01 0.12499695E+03</pdfrwt>
<pdfrwt beam="1">  1       -4 0.39416411E-02 0.12499695E+03</pdfrwt>
<totfact> 0.93970532E+03</totfact>
</mgrwt>
</event>
<event>
 5    1  0.3316199E-002  0.1249832E+03  0.7818608E-02  0.1235096E+00
          4   -1    0    0  501    0  0.00000000000E+00  0.00000000000E+00  0.45547221402E+03  0.45547398460E+03  0.12700000000E+01 0.  1.
         -4   -1    0    0    0  501 -0.00000000000E+00 -0.00000000000E+00 -0.85251285686E+01  0.86192062924E+01  0.12700000000E+01 0.  1.
         25    2    1    2    0    0  0.00000000000E+00  0.00000000000E+00  0.44694708545E+03  0.46409319089E+03  0.12498316941E+03 0.  0.
    9000005    1    3    3    0    0  0.27294440020E+01 -0.38016024540E+02  0.40732720462E+03  0.40910771150E+03  0.10000000000E+01 0.  0.
    9000005    1    3    3    0    0 -0.27294440020E+01  0.38016024540E+02  0.39619880833E+02  0.54985479389E+02  0.10000000000E+01 0.  0.
<mgrwt>
<rscale>  0 0.12498317E+03</rscale>
<asrwt>0</asrwt>
<pdfrwt beam="1">  1        4 0.70080034E-01 0.12498317E+03</pdfrwt>
<pdfrwt beam="2">  1       -4 0.13189309E-02 0.12498317E+03</pdfrwt>
<totfact> 0.58783824E+03</totfact>
</mgrwt>
</event>
<event>
 5    1  0.3316199E-002  0.1250022E+03  0.7818608E-02  0.1235066E+00
         -4   -1    0    0    0  501 -0.00000000000E+00  0.00000000000E+00  0.10509081889E+03  0.10509849245E+03  0.12700000000E+01 0. -1.
          4   -1    0    0  501    0  0.00000000000E+00 -0.00000000000E+00 -0.37151664363E+02  0.37173364993E+02  0.12700000000E+01 0. -1.
         25    2    1    2    0    0  0.00000000000E+00  0.00000000000E+00  0.67939154527E+02  0.14227185744E+03  0.12500221079E+03 0.  0.
    9000005    1    3    3    0    0  0.92391649818E+01 -0.18506836121E+02  0.10108716118E+03  0.10318662369E+03  0.10000000000E+01 0.  0.
    9000005    1    3    3    0    0 -0.92391649818E+01  0.18506836121E+02 -0.33148006651E+02  0.39085233755E+02  0.10000000000E+01 0.  0.
<mgrwt>
<rscale>  0 0.12500221E+03</rscale>
<asrwt>0</asrwt>
<pdfrwt beam="2">  1        4 0.57179004E-02 0.12500221E+03</pdfrwt>
<pdfrwt beam="1">  1       -4 0.16170077E-01 0.12500221E+03</pdfrwt>
<totfact> 0.10086213E+04</totfact>
</mgrwt>
</event>
<event>
 5    1  0.3316199E-002  0.1249997E+03  0.7818608E-02  0.1235070E+00
          4   -1    0    0  501    0  0.00000000000E+00  0.00000000000E+00  0.12423282353E+04  0.12423288844E+04  0.12700000000E+01 0.  1.
         -4   -1    0    0    0  501 -0.00000000000E+00 -0.00000000000E+00 -0.30153654700E+01  0.32718998942E+01  0.12700000000E+01 0.  1.
         25    2    1    2    0    0  0.00000000000E+00  0.00000000000E+00  0.12393128698E+04  0.12456007843E+04  0.12499969847E+03 0.  0.
    9000005    1    3    3    0    0 -0.58350743283E+02 -0.19077345765E+02  0.50324401716E+03  0.50697563568E+03  0.10000000000E+01 0.  0.
    9000005    1    3    3    0    0  0.58350743283E+02  0.19077345765E+02  0.73606885267E+03  0.73862514866E+03  0.10000000000E+01 0.  0.
<mgrwt>
<rscale>  0 0.12499970E+03</rscale>
<asrwt>0</asrwt>
<pdfrwt beam="1">  1        4 0.19114726E+00 0.12499970E+03</pdfrwt>
<pdfrwt beam="2">  1       -4 0.48368560E-03 0.12499970E+03</pdfrwt>
<totfact> 0.23549503E+03</totfact>
</mgrwt>
</event>
<event>
 5    1  0.3316199E-002  0.1249983E+03  0.7818608E-02  0.1235072E+00
          4   -1    0    0  501    0  0.00000000000E+00  0.00000000000E+00  0.25935755023E+04  0.25935758132E+04  0.12700000000E+01 0. -1.
         -4   -1    0    0    0  501 -0.00000000000E+00 -0.00000000000E+00 -0.12379870124E+01  0.17735590892E+01  0.12700000000E+01 0. -1.
         25    2    1    2    0    0  0.00000000000E+00  0.00000000000E+00  0.25923375153E+04  0.25953493723E+04  0.12499828515E+03 0.  0.
    9000005    1    3    3    0    0  0.55675040964E+02  0.28339982552E+02  0.13275067384E+04  0.13289762998E+04  0.10000000000E+01 0.  0.
    9000005    1    3    3    0    0 -0.55675040964E+02 -0.28339982552E+02  0.12648307769E+04  0.12663730726E+04  0.10000000000E+01 0.  0.
<mgrwt>
<rscale>  0 0.12499829E+03</rscale>
<asrwt>0</asrwt>
<pdfrwt beam="1">  1        4 0.39904715E+00 0.12499829E+03</pdfrwt>
<pdfrwt beam="2">  1       -4 0.23168462E-03 0.12499829E+03</pdfrwt>
<totfact> 0.39632084E+02</totfact>
</mgrwt>
</event>
<event>
 5    1  0.3316199E-002  0.1250011E+03  0.7818608E-02  0.1235068E+00
         -4   -1    0    0    0  501 -0.00000000000E+00  0.00000000000E+00  0.14339723901E+02  0.14395852929E+02  0.12700000000E+01 0.  1.
          4   -1    0    0  501    0  0.00000000000E+00 -0.00000000000E+00 -0.27182263775E+03  0.27182560455E+03  0.12700000000E+01 0.  1.
         25    2    1    2    0    0  0.00000000000E+00  0.00000000000E+00 -0.25748291385E+03  0.28622145748E+03  0.12500108720E+03 0.  0.
    9000005    1    3    3    0    0 -0.37325706363E+02  0.22343510842E+02 -0.26011517969E+02  0.50695560943E+02  0.10000000000E+01 0.  0.
    9000005    1    3    3    0    0  0.37325706363E+02 -0.22343510842E+02 -0.23147139588E+03  0.23552589654E+03  0.10000000000E+01 0.  0.
<mgrwt>
<rscale>  0 0.12500109E+03</rscale>
<asrwt>0</asrwt>
<pdfrwt beam="2">  1        4 0.41823409E-01 0.12500109E+03</pdfrwt>
<pdfrwt beam="1">  1       -4 0.22106574E-02 0.12500109E+03</pdfrwt>
<totfact> 0.77358484E+03</totfact>
</mgrwt>
</event>
<event>
 5    1  0.3316199E-002  0.1249999E+03  0.7818608E-02  0.1235069E+00
         -4   -1    0    0    0  501 -0.00000000000E+00  0.00000000000E+00  0.25741625025E+03  0.25741938310E+03  0.12700000000E+01 0. -1.
          4   -1    0    0  501    0  0.00000000000E+00 -0.00000000000E+00 -0.15145019072E+02  0.15198174321E+02  0.12700000000E+01 0. -1.
         25    2    1    2    0    0  0.00000000000E+00  0.00000000000E+00  0.24227123118E+03  0.27261755742E+03  0.12499993262E+03 0.  0.
    9000005    1    3    3    0    0 -0.26960215677E+02  0.74821606876E+01 -0.73219144190E+00  0.28006643180E+02  0.10000000000E+01 0.  0.
    9000005    1    3    3    0    0  0.26960215677E+02 -0.74821606876E+01  0.24300342262E+03  0.24461091424E+03  0.10000000000E+01 0.  0.
<mgrwt>
<rscale>  0 0.12499993E+03</rscale>
<asrwt>0</asrwt>
<pdfrwt beam="2">  1        4 0.23343326E-02 0.12499993E+03</pdfrwt>
<pdfrwt beam="1">  1       -4 0.39606833E-01 0.12499993E+03</pdfrwt>
<totfact> 0.79167372E+03</totfact>
</mgrwt>
</event>
<event>
 5    1  0.3316199E-002  0.1250075E+03  0.7818608E-02  0.1235058E+00
         -4   -1    0    0    0  501 -0.00000000000E+00  0.00000000000E+00  0.79830694253E+01  0.80834582605E+01  0.12700000000E+01 0.  1.
          4   -1    0    0  501    0  0.00000000000E+00 -0.00000000000E+00 -0.48621624047E+03  0.48621789909E+03  0.12700000000E+01 0.  1.
         25    2    1    2    0    0  0.00000000000E+00  0.00000000000E+00 -0.47823317105E+03  0.49430135735E+03  0.12500746375E+03 0.  0.
    9000005    1    3    3    0    0 -0.10534138153E+02 -0.55467491147E+02 -0.13315459851E+03  0.14463318342E+03  0.10000000000E+01 0.  0.
    9000005    1    3    3    0    0  0.10534138153E+02  0.55467491147E+02 -0.34507857254E+03  0.34966817394E+03  0.10000000000E+01 0.  0.
<mgrwt>
<rscale>  0 0.12500746E+03</rscale>
<asrwt>0</asrwt>
<pdfrwt beam="2">  1        4 0.74810325E-01 0.12500746E+03</pdfrwt>
<pdfrwt beam="1">  1       -4 0.12360147E-02 0.12500746E+03</pdfrwt>
<totfact> 0.56300006E+03</totfact>
</mgrwt>
</event>
<event>
 5    1  0.3316199E-002  0.1250013E+03  0.7818608E-02  0.1235067E+00
         -4   -1    0    0    0  501 -0.00000000000E+00  0.00000000000E+00  0.40911045710E+03  0.40911242832E+03  0.12700000000E+01 0.  1.
          4   -1    0    0  501    0  0.00000000000E+00 -0.00000000000E+00 -0.95041214067E+01  0.95885986314E+01  0.12700000000E+01 0.  1.
         25    2    1    2    0    0  0.00000000000E+00  0.00000000000E+00  0.39960633569E+03  0.41870102695E+03  0.12500130578E+03 0.  0.
    9000005    1    3    3    0    0 -0.33034768644E+02  0.85001724254E+00  0.37746679073E+03  0.37891185858E+03  0.10000000000E+01 0.  0.
    9000005    1    3    3    0    0  0.33034768644E+02 -0.85001724254E+00  0.22139544961E+02  0.39789168372E+02  0.10000000000E+01 0.  0.
<mgrwt>
<rscale>  0 0.12500131E+03</rscale>
<asrwt>0</asrwt>
<pdfrwt beam="2">  1        4 0.14688219E-02 0.12500131E+03</pdfrwt>
<pdfrwt beam="1">  1       -4 0.62946743E-01 0.12500131E+03</pdfrwt>
<totfact> 0.62771878E+03</totfact>
</mgrwt>
</event>
<event>
 5    1  0.3316199E-002  0.1249966E+03  0.7818608E-02  0.1235075E+00
         -4   -1    0    0    0  501 -0.00000000000E+00  0.00000000000E+00  0.25209715784E+01  0.28227996208E+01  0.12700000000E+01 0.  1.
          4   -1    0    0  501    0  0.00000000000E+00 -0.00000000000E+00 -0.14616013878E+04  0.14616019395E+04  0.12700000000E+01 0.  1.
         25    2    1    2    0    0  0.00000000000E+00  0.00000000000E+00 -0.14590804162E+04  0.14644247392E+04  0.12499662282E+03 0.  0.
    9000005    1    3    3    0    0 -0.63244856253E+01  0.32709335463E+02 -0.11014121230E+03  0.11507383018E+03  0.10000000000E+01 0.  0.
    9000005    1    3    3    0    0  0.63244856253E+01 -0.32709335463E+02 -0.13489392039E+04  0.13493509090E+04  0.10000000000E+01 0.  0.
<mgrwt>
<rscale>  0 0.12499662E+03</rscale>
<asrwt>0</asrwt>
<pdfrwt beam="2">  1        4 0.22488437E+00 0.12499662E+03</pdfrwt>
<pdfrwt beam="1">  1       -4 0.41110293E-03 0.12499662E+03</pdfrwt>
<totfact> 0.18640674E+03</totfact>
</mgrwt>
</event>
<event>
 5    1  0.3316199E-002  0.1249976E+03  0.7818608E-02  0.1235073E+00
         -4   -1    0    0    0  501 -0.00000000000E+00  0.00000000000E+00  0.17615507864E+01  0.21716263889E+01  0.12700000000E+01 0.  1.
          4   -1    0    0  501    0  0.00000000000E+00 -0.00000000000E+00 -0.19858204335E+04  0.19858208396E+04  0.12700000000E+01 0.  1.
         25    2    1    2    0    0  0.00000000000E+00  0.00000000000E+00 -0.19840588827E+04  0.19879924660E+04  0.12499757906E+03 0.  0.
    9000005    1    3    3    0    0 -0.27528287886E+02 -0.22342345978E+02 -0.18104589455E+04  0.18108063343E+04  0.10000000000E+01 0.  0.
    9000005    1    3    3    0    0  0.27528287886E+02  0.22342345978E+02 -0.17359993716E+03  0.17718613162E+03  0.10000000000E+01 0.  0.
<mgrwt>
<rscale>  0 0.12499758E+03</rscale>
<asrwt>0</asrwt>
<pdfrwt beam="2">  1        4 0.30554081E+00 0.12499758E+03</pdfrwt>
<pdfrwt beam="1">  1       -4 0.30258492E-03 0.12499758E+03</pdfrwt>
<totfact> 0.10019447E+03</totfact>
</mgrwt>
</event>
<event>
 5    1  0.3316199E-002  0.1249955E+03  0.7818608E-02  0.1235076E+00
         -4   -1    0    0    0  501 -0.00000000000E+00  0.00000000000E+00  0.47623493251E+02  0.47640424110E+02  0.12700000000E+01 0. -1.
          4   -1    0    0  501    0  0.00000000000E+00 -0.00000000000E+00 -0.81981248998E+02  0.81991085413E+02  0.12700000000E+01 0. -1.
         25    2    1    2    0    0  0.00000000000E+00  0.00000000000E+00 -0.34357755747E+02  0.12963150952E+03  0.12499549144E+03 0.  0.
    9000005    1    3    3    0    0 -0.37535114628E+02  0.16148723365E+02 -0.66211412679E+02  0.77811421176E+02  0.10000000000E+01 0.  0.
    9000005    1    3    3    0    0  0.37535114628E+02 -0.16148723365E+02  0.31853656932E+02  0.51820088348E+02  0.10000000000E+01 0.  0.
<mgrwt>
<rscale>  0 0.12499549E+03</rscale>
<asrwt>0</asrwt>
<pdfrwt beam="2">  1        4 0.12614559E-01 0.12499549E+03</pdfrwt>
<pdfrwt beam="1">  1       -4 0.73287503E-02 0.12499549E+03</pdfrwt>
<totfact> 0.10353450E+04</totfact>
</mgrwt>
</event>
<event>
 5    1  0.3316199E-002  0.1249952E+03  0.7818608E-02  0.1235077E+00
         -4   -1    0    0    0  501 -0.00000000000E+00  0.00000000000E+00  0.56589449446E+01  0.57997032584E+01  0.12700000000E+01 0. -1.
          4   -1    0    0  501    0  0.00000000000E+00 -0.00000000000E+00 -0.68160547312E+03  0.68160665628E+03  0.12700000000E+01 0. -1.
         25    2    1    2    0    0  0.00000000000E+00  0.00000000000E+00 -0.67594652817E+03  0.68740635954E+03  0.12499517664E+03 0.  0.
    9000005    1    3    3    0    0  0.59347437592E+02  0.15069542583E+02 -0.40660406992E+03  0.41118983346E+03  0.10000000000E+01 0.  0.
    9000005    1    3    3    0    0 -0.59347437592E+02 -0.15069542583E+02 -0.26934245825E+03  0.27621652608E+03  0.10000000000E+01 0.  0.
<mgrwt>
<rscale>  0 0.12499518E+03</rscale>
<asrwt>0</asrwt>
<pdfrwt beam="2">  1        4 0.10487323E+00 0.12499518E+03</pdfrwt>
<pdfrwt beam="1">  1       -4 0.88152603E-03 0.12499518E+03</pdfrwt>
<totfact> 0.43764524E+03</totfact>
</mgrwt>
</event>
<event>
 5    1  0.3316199E-002  0.1249878E+03  0.7818608E-02  0.1235088E+00
          4   -1    0    0  501    0  0.00000000000E+00  0.00000000000E+00  0.34406016699E+02  0.34429447935E+02  0.12700000000E+01 0.  1.
         -4   -1    0    0    0  501 -0.00000000000E+00 -0.00000000000E+00 -0.11344615233E+03  0.11345326076E+03  0.12700000000E+01 0.  1.
         25    2    1    2    0    0  0.00000000000E+00  0.00000000000E+00 -0.79040135627E+02  0.14788270870E+03  0.12498780937E+03 0.  0.
    9000005    1    3    3    0    0 -0.20752650227E+02 -0.35405769119E+02  0.16230641912E+02  0.44143795886E+02  0.10000000000E+01 0.  0.
    9000005    1    3    3    0    0  0.20752650227E+02  0.35405769119E+02 -0.95270777539E+02  0.10373891281E+03  0.10000000000E+01 0.  0.
<mgrwt>
<rscale>  0 0.12498781E+03</rscale>
<asrwt>0</asrwt>
<pdfrwt beam="1">  1        4 0.52955826E-02 0.12498781E+03</pdfrwt>
<pdfrwt beam="2">  1       -4 0.17455603E-01 0.12498781E+03</pdfrwt>
<totfact> 0.99754807E+03</totfact>
</mgrwt>
</event>
<event>
 5    1  0.3316199E-002  0.1249979E+03  0.7818608E-02  0.1235073E+00
         -4   -1    0    0    0  501 -0.00000000000E+00  0.00000000000E+00  0.41505499880E+01  0.43405028745E+01  0.12700000000E+01 0.  1.
          4   -1    0    0  501    0  0.00000000000E+00 -0.00000000000E+00 -0.91986500077E+03  0.91986587747E+03  0.12700000000E+01 0.  1.
         25    2    1    2    0    0  0.00000000000E+00  0.00000000000E+00 -0.91571445078E+03  0.92420638035E+03  0.12499791241E+03 0.  0.
    9000005    1    3    3    0    0  0.61337089184E+02 -0.10730270544E+02 -0.49680095318E+03  0.50068908945E+03  0.10000000000E+01 0.  0.
    9000005    1    3    3    0    0 -0.61337089184E+02  0.10730270544E+02 -0.41891349760E+03  0.42351729089E+03  0.10000000000E+01 0.  0.
<mgrwt>
<rscale>  0 0.12499791E+03</rscale>
<asrwt>0</asrwt>
<pdfrwt beam="2">  1        4 0.14153221E+00 0.12499791E+03</pdfrwt>
<pdfrwt beam="1">  1       -4 0.65322609E-03 0.12499791E+03</pdfrwt>
<totfact> 0.33251351E+03</totfact>
</mgrwt>
</event>
<event>
 5    1  0.3316199E-002  0.1250105E+03  0.7818608E-02  0.1235053E+00
          4   -1    0    0  501    0  0.00000000000E+00  0.00000000000E+00  0.11154160636E+03  0.11154883616E+03  0.12700000000E+01 0. -1.
         -4   -1    0    0    0  501 -0.00000000000E+00 -0.00000000000E+00 -0.35006563993E+02  0.35029593526E+02  0.12700000000E+01 0. -1.
         25    2    1    2    0    0  0.00000000000E+00  0.00000000000E+00  0.76535042365E+02  0.14657842969E+03  0.12501049292E+03 0.  0.
    9000005    1    3    3    0    0 -0.57231332399E+01  0.54482039113E+02  0.73538218919E+02  0.91705596785E+02  0.10000000000E+01 0.  0.
    9000005    1    3    3    0    0  0.57231332399E+01 -0.54482039113E+02  0.29968234461E+01  0.54872832903E+02  0.10000000000E+01 0.  0.
<mgrwt>
<rscale>  0 0.12501049E+03</rscale>
<asrwt>0</asrwt>
<pdfrwt beam="1">  1        4 0.17162575E-01 0.12501049E+03</pdfrwt>
<pdfrwt beam="2">  1       -4 0.53879529E-02 0.12501049E+03</pdfrwt>
<totfact> 0.99966545E+03</totfact>
</mgrwt>
</event>
<event>
 5    1  0.3316199E-002  0.1249996E+03  0.7818608E-02  0.1235070E+00
         -4   -1    0    0    0  501 -0.00000000000E+00  0.00000000000E+00  0.11331699986E+03  0.11332411640E+03  0.12700000000E+01 0. -1.
          4   -1    0    0  501    0  0.00000000000E+00 -0.00000000000E+00 -0.34451749583E+02  0.34475149736E+02  0.12700000000E+01 0. -1.
         25    2    1    2    0    0  0.00000000000E+00  0.00000000000E+00  0.78865250282E+02  0.14779926614E+03  0.12499958148E+03 0.  0.
    9000005    1    3    3    0    0 -0.54638103242E+02 -0.89303938384E+01  0.51604217388E+01  0.55612086929E+02  0.10000000000E+01 0.  0.
    9000005    1    3    3    0    0  0.54638103242E+02  0.89303938384E+01  0.73704828543E+02  0.92187179209E+02  0.10000000000E+01 0.  0.
<mgrwt>
<rscale>  0 0.12499958E+03</rscale>
<asrwt>0</asrwt>
<pdfrwt beam="2">  1        4 0.53026165E-02 0.12499958E+03</pdfrwt>
<pdfrwt beam="1">  1       -4 0.17435732E-01 0.12499958E+03</pdfrwt>
<totfact> 0.99745143E+03</totfact>
</mgrwt>
</event>
<event>
 5    1  0.3316199E-002  0.1250030E+03  0.7818608E-02  0.1235065E+00
          4   -1    0    0  501    0  0.00000000000E+00  0.00000000000E+00  0.13943697349E+03  0.13944275699E+03  0.12700000000E+01 0. -1.
         -4   -1    0    0    0  501 -0.00000000000E+00 -0.00000000000E+00 -0.27995040166E+02  0.28023832249E+02  0.12700000000E+01 0. -1.
         25    2    1    2    0    0  0.00000000000E+00  0.00000000000E+00  0.11144193333E+03  0.16746658924E+03  0.12500301599E+03 0.  0.
    9000005    1    3    3    0    0 -0.29843790112E+02 -0.37203908917E+02  0.16220160718E+01  0.47732730732E+02  0.10000000000E+01 0.  0.
    9000005    1    3    3    0    0  0.29843790112E+02  0.37203908917E+02  0.10981991726E+03  0.11973385851E+03  0.10000000000E+01 0.  0.
<mgrwt>
<rscale>  0 0.12500302E+03</rscale>
<asrwt>0</asrwt>
<pdfrwt beam="1">  1        4 0.21454502E-01 0.12500302E+03</pdfrwt>
<pdfrwt beam="2">  1       -4 0.43095889E-02 0.12500302E+03</pdfrwt>
<totfact> 0.95915791E+03</totfact>
</mgrwt>
</event>
<event>
 5    1  0.3316199E-002  0.1250020E+03  0.7818608E-02  0.1235066E+00
         -4   -1    0    0    0  501 -0.00000000000E+00  0.00000000000E+00  0.91225635640E+02  0.91234475380E+02  0.12700000000E+01 0.  1.
          4   -1    0    0  501    0  0.00000000000E+00 -0.00000000000E+00 -0.42800666656E+02  0.42819504507E+02  0.12700000000E+01 0.  1.
         25    2    1    2    0    0  0.00000000000E+00  0.00000000000E+00  0.48424968984E+02  0.13405397989E+03  0.12500196759E+03 0.  0.
    9000005    1    3    3    0    0  0.20729931984E+02  0.50824909178E+02 -0.78251204573E+01  0.55453890605E+02  0.10000000000E+01 0.  0.
    9000005    1    3    3    0    0 -0.20729931984E+02 -0.50824909178E+02  0.56250089441E+02  0.78600089282E+02  0.10000000000E+01 0.  0.
<mgrwt>
<rscale>  0 0.12500197E+03</rscale>
<asrwt>0</asrwt>
<pdfrwt beam="2">  1        4 0.65868470E-02 0.12500197E+03</pdfrwt>
<pdfrwt beam="1">  1       -4 0.14036842E-01 0.12500197E+03</pdfrwt>
<totfact> 0.10257594E+04</totfact>
</mgrwt>
</event>
<event>
 5    1  0.3316199E-002  0.1250083E+03  0.7818608E-02  0.1235056E+00
          4   -1    0    0  501    0  0.00000000000E+00  0.00000000000E+00  0.55106205370E+03  0.55106351715E+03  0.12700000000E+01 0.  1.
         -4   -1    0    0    0  501 -0.00000000000E+00 -0.00000000000E+00 -0.70311630751E+01  0.71449390612E+01  0.12700000000E+01 0.  1.
         25    2    1    2    0    0  0.00000000000E+00  0.00000000000E+00  0.54403089063E+03  0.55820845621E+03  0.12500828223E+03 0.  0.
    9000005    1    3    3    0    0  0.10063091393E+02  0.17584974680E+02  0.53601185491E+03  0.53639556835E+03  0.10000000000E+01 0.  0.
    9000005    1    3    3    0    0 -0.10063091393E+02 -0.17584974680E+02  0.80190357198E+01  0.21812887860E+02  0.10000000000E+01 0.  0.
<mgrwt>
<rscale>  0 0.12500828E+03</rscale>
<asrwt>0</asrwt>
<pdfrwt beam="1">  1        4 0.84787683E-01 0.12500828E+03</pdfrwt>
<pdfrwt beam="2">  1       -4 0.10905814E-02 0.12500828E+03</pdfrwt>
<totfact> 0.51607143E+03</totfact>
</mgrwt>
</event>
<event>
 5    1  0.3316199E-002  0.1250004E+03  0.7818608E-02  0.1235069E+00
          4   -1    0    0  501    0  0.00000000000E+00  0.00000000000E+00  0.27277536287E+02  0.27307084903E+02  0.12700000000E+01 0.  1.
         -4   -1    0    0    0  501 -0.00000000000E+00 -0.00000000000E+00 -0.14309489729E+03  0.14310053295E+03  0.12700000000E+01 0.  1.
         25    2    1    2    0    0  0.00000000000E+00  0.00000000000E+00 -0.11581736100E+03  0.17040761785E+03  0.12500038045E+03 0.  0.
    9000005    1    3    3    0    0  0.32959072106E+02 -0.24083731084E+02  0.65972435009E+01  0.41362424480E+02  0.10000000000E+01 0.  0.
    9000005    1    3    3    0    0 -0.32959072106E+02  0.24083731084E+02 -0.12241460451E+03  0.12904519338E+03  0.10000000000E+01 0.  0.
<mgrwt>
<rscale>  0 0.12500038E+03</rscale>
<asrwt>0</asrwt>
<pdfrwt beam="1">  1        4 0.41992506E-02 0.12500038E+03</pdfrwt>
<pdfrwt beam="2">  1       -4 0.22017306E-01 0.12500038E+03</pdfrwt>
<totfact> 0.95371902E+03</totfact>
</mgrwt>
</event>
<event>
 5    1  0.3316199E-002  0.1250043E+03  0.7818608E-02  0.1235063E+00
         -4   -1    0    0    0  501 -0.00000000000E+00  0.00000000000E+00  0.12900798057E+02  0.12963158971E+02  0.12700000000E+01 0. -1.
          4   -1    0    0  501    0  0.00000000000E+00 -0.00000000000E+00 -0.30201836825E+03  0.30202103844E+03  0.12700000000E+01 0. -1.
         25    2    1    2    0    0  0.00000000000E+00  0.00000000000E+00 -0.28911757020E+03  0.31498419741E+03  0.12500430082E+03 0.  0.
    9000005    1    3    3    0    0 -0.50454622811E+02  0.36834806964E+02 -0.14895712269E+03  0.16152924307E+03  0.10000000000E+01 0.  0.
    9000005    1    3    3    0    0  0.50454622811E+02 -0.36834806964E+02 -0.14016044751E+03  0.15345495434E+03  0.10000000000E+01 0.  0.
<mgrwt>
<rscale>  0 0.12500430E+03</rscale>
<asrwt>0</asrwt>
<pdfrwt beam="2">  1        4 0.46469361E-01 0.12500430E+03</pdfrwt>
<pdfrwt beam="1">  1       -4 0.19897408E-02 0.12500430E+03</pdfrwt>
<totfact> 0.73749655E+03</totfact>
</mgrwt>
</event>
<event>
 5    1  0.3316199E-002  0.1249966E+03  0.7818608E-02  0.1235075E+00
         -4   -1    0    0    0  501 -0.00000000000E+00  0.00000000000E+00  0.10947824766E+03  0.10948561372E+03  0.12700000000E+01 0. -1.
          4   -1    0    0  501    0  0.00000000000E+00 -0.00000000000E+00 -0.35658770794E+02  0.35681379381E+02  0.12700000000E+01 0. -1.
         25    2    1    2    0    0  0.00000000000E+00  0.00000000000E+00  0.73819476866E+02  0.14516699310E+03  0.12499656283E+03 0.  0.
    9000005    1    3    3    0    0 -0.40638423372E+02 -0.38676660659E+02  0.49421588746E+01  0.56327528512E+02  0.10000000000E+01 0.  0.
    9000005    1    3    3    0    0  0.40638423372E+02  0.38676660659E+02  0.68877317992E+02  0.88839464584E+02  0.10000000000E+01 0.  0.
<mgrwt>
<rscale>  0 0.12499656E+03</rscale>
<asrwt>0</asrwt>
<pdfrwt beam="2">  1        4 0.54882705E-02 0.12499656E+03</pdfrwt>
<pdfrwt beam="1">  1       -4 0.16845113E-01 0.12499656E+03</pdfrwt>
<totfact> 0.10028373E+04</totfact>
</mgrwt>
</event>
<event>
 5    1  0.3316199E-002  0.1249935E+03  0.7818608E-02  0.1235079E+00
          4   -1    0    0  501    0  0.00000000000E+00  0.00000000000E+00  0.83443465150E+02  0.83453129218E+02  0.12700000000E+01 0. -1.
         -4   -1    0    0    0  501 -0.00000000000E+00 -0.00000000000E+00 -0.46787255107E+02  0.46804488465E+02  0.12700000000E+01 0. -1.
         25    2    1    2    0    0  0.00000000000E+00  0.00000000000E+00  0.36656210043E+02  0.13025761768E+03  0.12499347675E+03 0.  0.
    9000005    1    3    3    0    0 -0.30739920449E+02 -0.48376013551E+02 -0.76132605112E+01  0.57828566746E+02  0.10000000000E+01 0.  0.
    9000005    1    3    3    0    0  0.30739920449E+02  0.48376013551E+02  0.44269470554E+02  0.72429050936E+02  0.10000000000E+01 0.  0.
<mgrwt>
<rscale>  0 0.12499348E+03</rscale>
<asrwt>0</asrwt>
<pdfrwt beam="1">  1        4 0.12839525E-01 0.12499348E+03</pdfrwt>
<pdfrwt beam="2">  1       -4 0.72001084E-02 0.12499348E+03</pdfrwt>
<totfact> 0.10340522E+04</totfact>
</mgrwt>
</event>
<event>
 5    1  0.3316199E-002  0.1250009E+03  0.7818608E-02  0.1235068E+00
         -4   -1    0    0    0  501 -0.00000000000E+00  0.00000000000E+00  0.71587292107E+02  0.71598556488E+02  0.12700000000E+01 0.  1.
          4   -1    0    0  501    0  0.00000000000E+00 -0.00000000000E+00 -0.54544126373E+02  0.54558909646E+02  0.12700000000E+01 0.  1.
         25    2    1    2    0    0  0.00000000000E+00  0.00000000000E+00  0.17043165734E+02  0.12615746613E+03  0.12500094705E+03 0.  0.
    9000005    1    3    3    0    0  0.38292387694E+02 -0.47869993987E+02  0.20777490338E+02  0.64734437392E+02  0.10000000000E+01 0.  0.
    9000005    1    3    3    0    0 -0.38292387694E+02  0.47869993987E+02 -0.37343246046E+01  0.61423028743E+02  0.10000000000E+01 0.  0.
<mgrwt>
<rscale>  0 0.12500095E+03</rscale>
<asrwt>0</asrwt>
<pdfrwt beam="2">  1        4 0.83934078E-02 0.12500095E+03</pdfrwt>
<pdfrwt beam="1">  1       -4 0.11015433E-01 0.12500095E+03</pdfrwt>
<totfact> 0.10427286E+04</totfact>
</mgrwt>
</event>
<event>
 5    1  0.3316199E-002  0.1249787E+03  0.7818608E-02  0.1235103E+00
          4   -1    0    0  501    0  0.00000000000E+00  0.00000000000E+00  0.11141133082E+02  0.11213284369E+02  0.12700000000E+01 0. -1.
         -4   -1    0    0    0  501 -0.00000000000E+00 -0.00000000000E+00 -0.34929101410E+03  0.34929332291E+03  0.12700000000E+01 0. -1.
         25    2    1    2    0    0  0.00000000000E+00  0.00000000000E+00 -0.33814988102E+03  0.36050660728E+03  0.12497868563E+03 0.  0.
    9000005    1    3    3    0    0  0.14948271690E+02  0.43077702674E+02 -0.45854608734E+02  0.64674449641E+02  0.10000000000E+01 0.  0.
    9000005    1    3    3    0    0 -0.14948271690E+02 -0.43077702674E+02 -0.29229527228E+03  0.29583215764E+03  0.10000000000E+01 0.  0.
<mgrwt>
<rscale>  0 0.12497869E+03</rscale>
<asrwt>0</asrwt>
<pdfrwt beam="1">  1        4 0.17197484E-02 0.12497869E+03</pdfrwt>
<pdfrwt beam="2">  1       -4 0.53742798E-01 0.12497869E+03</pdfrwt>
<totfact> 0.68616306E+03</totfact>
</mgrwt>
</event>
<event>
 5    1  0.3316199E-002  0.1249975E+03  0.7818608E-02  0.1235073E+00
         -4   -1    0    0    0  501 -0.00000000000E+00  0.00000000000E+00  0.14524804562E+03  0.14525359774E+03  0.12700000000E+01 0.  1.
          4   -1    0    0  501    0  0.00000000000E+00 -0.00000000000E+00 -0.26871522560E+02  0.26901517145E+02  0.12700000000E+01 0.  1.
         25    2    1    2    0    0  0.00000000000E+00  0.00000000000E+00  0.11837652306E+03  0.17215511488E+03  0.12499752945E+03 0.  0.
    9000005    1    3    3    0    0 -0.37177304160E+02  0.23661387047E+02 -0.18339252725E+01  0.44117756782E+02  0.10000000000E+01 0.  0.
    9000005    1    3    3    0    0  0.37177304160E+02 -0.23661387047E+02  0.12021044833E+03  0.12803735810E+03  0.10000000000E+01 0.  0.
<mgrwt>
<rscale>  0 0.12499753E+03</rscale>
<asrwt>0</asrwt>
<pdfrwt beam="2">  1        4 0.41368147E-02 0.12499753E+03</pdfrwt>
<pdfrwt beam="1">  1       -4 0.22348588E-01 0.12499753E+03</pdfrwt>
<totfact> 0.95053741E+03</totfact>
</mgrwt>
</event>
<event>
 5    1  0.3316199E-002  0.1250030E+03  0.7818608E-02  0.1235065E+00
         -4   -1    0    0    0  501 -0.00000000000E+00  0.00000000000E+00  0.65199807954E+01  0.66425183155E+01  0.12700000000E+01 0. -1.
          4   -1    0    0  501    0  0.00000000000E+00 -0.00000000000E+00 -0.59344776830E+03  0.59344912722E+03  0.12700000000E+01 0. -1.
         25    2    1    2    0    0  0.00000000000E+00  0.00000000000E+00 -0.58692778750E+03  0.60009164553E+03  0.12500302116E+03 0.  0.
    9000005    1    3    3    0    0  0.39031606157E+02  0.45970442107E+02 -0.37215463373E+03  0.37701037019E+03  0.10000000000E+01 0.  0.
    9000005    1    3    3    0    0 -0.39031606157E+02 -0.45970442107E+02 -0.21477315378E+03  0.22308127534E+03  0.10000000000E+01 0.  0.
<mgrwt>
<rscale>  0 0.12500302E+03</rscale>
<asrwt>0</asrwt>
<pdfrwt beam="2">  1        4 0.91309145E-01 0.12500302E+03</pdfrwt>
<pdfrwt beam="1">  1       -4 0.10126049E-02 0.12500302E+03</pdfrwt>
<totfact> 0.48858606E+03</totfact>
</mgrwt>
</event>
<event>
 5    1  0.3316199E-002  0.1250037E+03  0.7818608E-02  0.1235063E+00
          4   -1    0    0  501    0  0.00000000000E+00  0.00000000000E+00  0.20108594908E+02  0.20148659736E+02  0.12700000000E+01 0.  1.
         -4   -1    0    0    0  501 -0.00000000000E+00 -0.00000000000E+00 -0.19403379421E+03  0.19403795040E+03  0.12700000000E+01 0.  1.
         25    2    1    2    0    0  0.00000000000E+00  0.00000000000E+00 -0.17392519930E+03  0.21418661014E+03  0.12500371598E+03 0.  0.
    9000005    1    3    3    0    0  0.48831295007E+02 -0.19443889167E+02 -0.14488915460E+03  0.15413120164E+03  0.10000000000E+01 0.  0.
    9000005    1    3    3    0    0 -0.48831295007E+02  0.19443889167E+02 -0.29036044704E+02  0.60055408500E+02  0.10000000000E+01 0.  0.
<mgrwt>
<rscale>  0 0.12500372E+03</rscale>
<asrwt>0</asrwt>
<pdfrwt beam="1">  1        4 0.30970317E-02 0.12500372E+03</pdfrwt>
<pdfrwt beam="2">  1       -4 0.29854753E-01 0.12500372E+03</pdfrwt>
<totfact> 0.87789394E+03</totfact>
</mgrwt>
</event>
<event>
 5    1  0.3316199E-002  0.1249932E+03  0.7818608E-02  0.1235080E+00
          4   -1    0    0  501    0  0.00000000000E+00  0.00000000000E+00  0.85462102037E+01  0.86400583820E+01  0.12700000000E+01 0.  1.
         -4   -1    0    0    0  501 -0.00000000000E+00 -0.00000000000E+00 -0.45443390429E+03  0.45443567891E+03  0.12700000000E+01 0.  1.
         25    2    1    2    0    0  0.00000000000E+00  0.00000000000E+00 -0.44588769408E+03  0.46307573729E+03  0.12499321075E+03 0.  0.
    9000005    1    3    3    0    0 -0.58440702358E+02 -0.41157524465E+01 -0.30348149459E+03  0.30908618971E+03  0.10000000000E+01 0.  0.
    9000005    1    3    3    0    0  0.58440702358E+02  0.41157524465E+01 -0.14240619949E+03  0.15398954758E+03  0.10000000000E+01 0.  0.
<mgrwt>
<rscale>  0 0.12499321E+03</rscale>
<asrwt>0</asrwt>
<pdfrwt beam="1">  1        4 0.13221575E-02 0.12499321E+03</pdfrwt>
<pdfrwt beam="2">  1       -4 0.69920245E-01 0.12499321E+03</pdfrwt>
<totfact> 0.58856354E+03</totfact>
</mgrwt>
</event>
<event>
 5    1  0.3316199E-002  0.1250043E+03  0.7818608E-02  0.1235063E+00
         -4   -1    0    0    0  501 -0.00000000000E+00  0.00000000000E+00  0.18841080194E+03  0.18841508216E+03  0.12700000000E+01 0. -1.
          4   -1    0    0  501    0  0.00000000000E+00 -0.00000000000E+00 -0.20710073637E+02  0.20748977084E+02  0.12700000000E+01 0. -1.
         25    2    1    2    0    0  0.00000000000E+00  0.00000000000E+00  0.16770072830E+03  0.20916405925E+03  0.12500427756E+03 0.  0.
    9000005    1    3    3    0    0  0.48087947063E+02 -0.31277522494E+02  0.12533843232E+03  0.13784577137E+03  0.10000000000E+01 0.  0.
    9000005    1    3    3    0    0 -0.48087947063E+02  0.31277522494E+02  0.42362295977E+02  0.71318287883E+02  0.10000000000E+01 0.  0.
<mgrwt>
<rscale>  0 0.12500428E+03</rscale>
<asrwt>0</asrwt>
<pdfrwt beam="2">  1        4 0.31894871E-02 0.12500428E+03</pdfrwt>
<pdfrwt beam="1">  1       -4 0.28989598E-01 0.12500428E+03</pdfrwt>
<totfact> 0.88604109E+03</totfact>
</mgrwt>
</event>
<event>
 5    1  0.3316199E-002  0.1250136E+03  0.7818608E-02  0.1235048E+00
          4   -1    0    0  501    0  0.00000000000E+00  0.00000000000E+00  0.79376287037E+01  0.80385850395E+01  0.12700000000E+01 0. -1.
         -4   -1    0    0    0  501 -0.00000000000E+00 -0.00000000000E+00 -0.48901251495E+03  0.48901416409E+03  0.12700000000E+01 0. -1.
         25    2    1    2    0    0  0.00000000000E+00  0.00000000000E+00 -0.48107488625E+03  0.49705274913E+03  0.12501355621E+03 0.  0.
    9000005    1    3    3    0    0 -0.48532661983E+02 -0.23550407546E+01 -0.39682634432E+03  0.39979133687E+03  0.10000000000E+01 0.  0.
    9000005    1    3    3    0    0  0.48532661983E+02  0.23550407546E+01 -0.84248541932E+02  0.97261412254E+02  0.10000000000E+01 0.  0.
<mgrwt>
<rscale>  0 0.12501356E+03</rscale>
<asrwt>0</asrwt>
<pdfrwt beam="1">  1        4 0.12290668E-02 0.12501356E+03</pdfrwt>
<pdfrwt beam="2">  1       -4 0.75240564E-01 0.12501356E+03</pdfrwt>
<totfact> 0.56077056E+03</totfact>
</mgrwt>
</event>
<event>
 5    1  0.3316199E-002  0.1249999E+03  0.7818608E-02  0.1235069E+00
          4   -1    0    0  501    0  0.00000000000E+00  0.00000000000E+00  0.49822140675E+02  0.49838324625E+02  0.12700000000E+01 0. -1.
         -4   -1    0    0    0  501 -0.00000000000E+00 -0.00000000000E+00 -0.78369734871E+02  0.78380024520E+02  0.12700000000E+01 0. -1.
         25    2    1    2    0    0  0.00000000000E+00  0.00000000000E+00 -0.28547594196E+02  0.12821834914E+03  0.12499991969E+03 0.  0.
    9000005    1    3    3    0    0 -0.18672059716E+02  0.49726322571E+02 -0.48043983232E+02  0.71628048245E+02  0.10000000000E+01 0.  0.
    9000005    1    3    3    0    0  0.18672059716E+02 -0.49726322571E+02  0.19496389036E+02  0.56590300900E+02  0.10000000000E+01 0.  0.
<mgrwt>
<rscale>  0 0.12499992E+03</rscale>
<asrwt>0</asrwt>
<pdfrwt beam="1">  1        4 0.76669812E-02 0.12499992E+03</pdfrwt>
<pdfrwt beam="2">  1       -4 0.12058919E-01 0.12499992E+03</pdfrwt>
<totfact> 0.10382794E+04</totfact>
</mgrwt>
</event>
<event>
 5    1  0.3316199E-002  0.1250011E+03  0.7818608E-02  0.1235068E+00
          4   -1    0    0  501    0  0.00000000000E+00  0.00000000000E+00  0.11983156092E+02  0.12050266799E+02  0.12700000000E+01 0.  1.
         -4   -1    0    0    0  501 -0.00000000000E+00 -0.00000000000E+00 -0.32500537569E+03  0.32500785702E+03  0.12700000000E+01 0.  1.
         25    2    1    2    0    0  0.00000000000E+00  0.00000000000E+00 -0.31302221959E+03  0.33705812382E+03  0.12500107549E+03 0.  0.
    9000005    1    3    3    0    0  0.57264385139E+02  0.19587001304E+02 -0.11452474957E+03  0.12953678508E+03  0.10000000000E+01 0.  0.
    9000005    1    3    3    0    0 -0.57264385139E+02 -0.19587001304E+02 -0.19849747002E+03  0.20752133874E+03  0.10000000000E+01 0.  0.
<mgrwt>
<rscale>  0 0.12500108E+03</rscale>
<asrwt>0</asrwt>
<pdfrwt beam="1">  1        4 0.18489160E-02 0.12500108E+03</pdfrwt>
<pdfrwt beam="2">  1       -4 0.50006173E-01 0.12500108E+03</pdfrwt>
<totfact> 0.71170494E+03</totfact>
</mgrwt>
</event>
<event>
 4    1  0.3316199E-002  0.1247429E+03  0.7818608E-02  0.1235472E+00
          4   -1    0    0  501    0  0.00000000000E+00  0.00000000000E+00  0.25287314054E+02  0.25319185454E+02  0.12700000000E+01 0.  1.
         -4   -1    0    0    0  501 -0.00000000000E+00 -0.00000000000E+00 -0.15370842620E+03  0.15371367273E+03  0.12700000000E+01 0.  1.
    9000005    1    1    2    0    0 -0.13993682832E+01 -0.57590089416E+02 -0.29926663795E+02  0.64924431737E+02  0.10000000000E+01 0.  0.
    9000005    1    1    2    0    0  0.13993682832E+01  0.57590089416E+02 -0.98494448347E+02  0.11410842644E+03  0.10000000000E+01 0.  0.
<mgrwt>
<rscale>  0 0.12474286E+03</rscale>
<asrwt>0</asrwt>
<pdfrwt beam="1">  1        4 0.38932113E-02 0.12474286E+03</pdfrwt>
<pdfrwt beam="2">  1       -4 0.23650305E-01 0.12474286E+03</pdfrwt>
<totfact> 0.94334243E+03</totfact>
</mgrwt>
</event>
<event>
 5    1  0.3316199E-002  0.1250008E+03  0.7818608E-02  0.1235068E+00
         -4   -1    0    0    0  501 -0.00000000000E+00  0.00000000000E+00  0.58816412097E+02  0.58830121808E+02  0.12700000000E+01 0. -1.
          4   -1    0    0  501    0  0.00000000000E+00 -0.00000000000E+00 -0.66387630589E+02  0.66399777072E+02  0.12700000000E+01 0. -1.
         25    2    1    2    0    0  0.00000000000E+00  0.00000000000E+00 -0.75712184920E+01  0.12522989888E+03  0.12500081689E+03 0.  0.
    9000005    1    3    3    0    0 -0.52104970229E+02 -0.11299174492E+02  0.28873240495E+02  0.60640442638E+02  0.10000000000E+01 0.  0.
    9000005    1    3    3    0    0  0.52104970229E+02  0.11299174492E+02 -0.36444458987E+02  0.64589456241E+02  0.10000000000E+01 0.  0.
<mgrwt>
<rscale>  0 0.12500082E+03</rscale>
<asrwt>0</asrwt>
<pdfrwt beam="2">  1        4 0.10215470E-01 0.12500082E+03</pdfrwt>
<pdfrwt beam="1">  1       -4 0.90506678E-02 0.12500082E+03</pdfrwt>
<totfact> 0.10447678E+04</totfact>
</mgrwt>
</event>
<event>
 5    1  0.3316199E-002  0.1249967E+03  0.7818608E-02  0.1235075E+00
         -4   -1    0    0    0  501 -0.00000000000E+00  0.00000000000E+00  0.19826791743E+02  0.19867424866E+02  0.12700000000E+01 0. -1.
          4   -1    0    0  501    0  0.00000000000E+00 -0.00000000000E+00 -0.19676388309E+03  0.19676798161E+03  0.12700000000E+01 0. -1.
         25    2    1    2    0    0  0.00000000000E+00  0.00000000000E+00 -0.17693709135E+03  0.21663540648E+03  0.12499666014E+03 0.  0.
    9000005    1    3    3    0    0  0.41407508801E+02 -0.24287358634E+02 -0.15780637195E+03  0.16494941225E+03  0.10000000000E+01 0.  0.
    9000005    1    3    3    0    0 -0.41407508801E+02  0.24287358634E+02 -0.19130719396E+02  0.51685994226E+02  0.10000000000E+01 0.  0.
<mgrwt>
<rscale>  0 0.12499666E+03</rscale>
<asrwt>0</asrwt>
<pdfrwt beam="2">  1        4 0.30274806E-01 0.12499666E+03</pdfrwt>
<pdfrwt beam="1">  1       -4 0.30537167E-02 0.12499666E+03</pdfrwt>
<totfact> 0.87410092E+03</totfact>
</mgrwt>
</event>
<event>
 5    1  0.3316199E-002  0.1249969E+03  0.7818608E-02  0.1235074E+00
          4   -1    0    0  501    0  0.00000000000E+00  0.00000000000E+00  0.56001614239E+03  0.56001758243E+03  0.12700000000E+01 0. -1.
         -4   -1    0    0    0  501 -0.00000000000E+00 -0.00000000000E+00 -0.69156266151E+01  0.70312723941E+01  0.12700000000E+01 0. -1.
         25    2    1    2    0    0  0.00000000000E+00  0.00000000000E+00  0.55310051577E+03  0.56704885483E+03  0.12499689282E+03 0.  0.
    9000005    1    3    3    0    0  0.41499538830E+02  0.15056024559E+02  0.47719300718E+03  0.47923174112E+03  0.10000000000E+01 0.  0.
    9000005    1    3    3    0    0 -0.41499538830E+02 -0.15056024559E+02  0.75907508592E+02  0.87817113703E+02  0.10000000000E+01 0.  0.
<mgrwt>
<rscale>  0 0.12499689E+03</rscale>
<asrwt>0</asrwt>
<pdfrwt beam="1">  1        4 0.86165359E-01 0.12499689E+03</pdfrwt>
<pdfrwt beam="2">  1       -4 0.10729489E-02 0.12499689E+03</pdfrwt>
<totfact> 0.51019377E+03</totfact>
</mgrwt>
</event>
<event>
 4    1  0.3316199E-002  0.1248785E+03  0.7818608E-02  0.1235259E+00
         -4   -1    0    0    0  501 -0.00000000000E+00  0.00000000000E+00  0.61136214137E+03  0.61136346047E+03  0.12700000000E+01 0. -1.
          4   -1    0    0  501    0  0.00000000000E+00 -0.00000000000E+00 -0.63124373206E+01  0.64389257587E+01  0.12700000000E+01 0. -1.
    9000005    1    1    2    0    0  0.61130527058E+02  0.12677174176E+02  0.30299241262E+03  0.30935910232E+03  0.10000000000E+01 0.  0.
    9000005    1    1    2    0    0 -0.61130527058E+02 -0.12677174176E+02  0.30205729143E+03  0.30844328391E+03  0.10000000000E+01 0.  0.
<mgrwt>
<rscale>  0 0.12487852E+03</rscale>
<asrwt>0</asrwt>
<pdfrwt beam="2">  1        4 0.98097538E-03 0.12487852E+03</pdfrwt>
<pdfrwt beam="1">  1       -4 0.94065562E-01 0.12487852E+03</pdfrwt>
<totfact> 0.47890209E+03</totfact>
</mgrwt>
</event>
<event>
 5    1  0.3316199E-002  0.1250038E+03  0.7818608E-02  0.1235063E+00
          4   -1    0    0  501    0  0.00000000000E+00  0.00000000000E+00  0.77033201663E+02  0.77043669814E+02  0.12700000000E+01 0. -1.
         -4   -1    0    0    0  501 -0.00000000000E+00 -0.00000000000E+00 -0.50689833392E+02  0.50705740398E+02  0.12700000000E+01 0. -1.
         25    2    1    2    0    0  0.00000000000E+00  0.00000000000E+00  0.26343368271E+02  0.12774941021E+03  0.12500375497E+03 0.  0.
    9000005    1    3    3    0    0  0.39263788800E+02  0.49855662161E+01  0.62596998837E+02  0.74066762078E+02  0.10000000000E+01 0.  0.
    9000005    1    3    3    0    0 -0.39263788800E+02 -0.49855662161E+01 -0.36253630566E+02  0.53682648134E+02  0.10000000000E+01 0.  0.
<mgrwt>
<rscale>  0 0.12500375E+03</rscale>
<asrwt>0</asrwt>
<pdfrwt beam="1">  1        4 0.11853291E-01 0.12500375E+03</pdfrwt>
<pdfrwt beam="2">  1       -4 0.78004648E-02 0.12500375E+03</pdfrwt>
<totfact> 0.10392022E+04</totfact>
</mgrwt>
</event>
<event>
 5    1  0.3316199E-002  0.1250121E+03  0.7818608E-02  0.1235050E+00
          4   -1    0    0  501    0  0.00000000000E+00  0.00000000000E+00  0.92181354474E+01  0.93052093543E+01  0.12700000000E+01 0. -1.
         -4   -1    0    0    0  501 -0.00000000000E+00 -0.00000000000E+00 -0.42175874169E+03  0.42176065380E+03  0.12700000000E+01 0. -1.
         25    2    1    2    0    0  0.00000000000E+00  0.00000000000E+00 -0.41254060624E+03  0.43106586315E+03  0.12501210572E+03 0.  0.
    9000005    1    3    3    0    0  0.53187186312E+02  0.21111144179E+02 -0.11962184181E+03  0.13260822838E+03  0.10000000000E+01 0.  0.
    9000005    1    3    3    0    0 -0.53187186312E+02 -0.21111144179E+02 -0.29291876444E+03  0.29845763477E+03  0.10000000000E+01 0.  0.
<mgrwt>
<rscale>  0 0.12501211E+03</rscale>
<asrwt>0</asrwt>
<pdfrwt beam="1">  1        4 0.14250201E-02 0.12501211E+03</pdfrwt>
<pdfrwt beam="2">  1       -4 0.64892791E-01 0.12501211E+03</pdfrwt>
<totfact> 0.61623054E+03</totfact>
</mgrwt>
</event>
<event>
 5    1  0.3316199E-002  0.1250012E+03  0.7818608E-02  0.1235067E+00
         -4   -1    0    0    0  501 -0.00000000000E+00  0.00000000000E+00  0.16144608737E+04  0.16144613732E+04  0.12700000000E+01 0. -1.
          4   -1    0    0  501    0  0.00000000000E+00 -0.00000000000E+00 -0.22524009983E+01  0.25857707279E+01  0.12700000000E+01 0. -1.
         25    2    1    2    0    0  0.00000000000E+00  0.00000000000E+00  0.16122084727E+04  0.16170471439E+04  0.12500122514E+03 0.  0.
    9000005    1    3    3    0    0 -0.94026993808E+01 -0.52220148607E+02  0.37901752166E+03  0.38271482386E+03  0.10000000000E+01 0.  0.
    9000005    1    3    3    0    0  0.94026993808E+01  0.52220148607E+02  0.12331909510E+04  0.12343323200E+04  0.10000000000E+01 0.  0.
<mgrwt>
<rscale>  0 0.12500123E+03</rscale>
<asrwt>0</asrwt>
<pdfrwt beam="2">  1        4 0.37220307E-03 0.12500123E+03</pdfrwt>
<pdfrwt beam="1">  1       -4 0.24840589E+00 0.12500123E+03</pdfrwt>
<totfact> 0.15739348E+03</totfact>
</mgrwt>
</event>
<event>
 5    1  0.3316199E-002  0.1249998E+03  0.7818608E-02  0.1235070E+00
         -4   -1    0    0    0  501 -0.00000000000E+00  0.00000000000E+00  0.68192559460E+02  0.68204384505E+02  0.12700000000E+01 0.  1.
          4   -1    0    0  501    0  0.00000000000E+00 -0.00000000000E+00 -0.57258587477E+02  0.57272670095E+02  0.12700000000E+01 0.  1.
         25    2    1    2    0    0  0.00000000000E+00  0.00000000000E+00  0.10933971984E+02  0.12547705460E+03  0.12499975795E+03 0.  0.
    9000005    1    3    3    0    0  0.62477137033E+02 -0.52485688756E+00  0.67234624211E+01  0.62848015669E+02  0.10000000000E+01 0.  0.
    9000005    1    3    3    0    0 -0.62477137033E+02  0.52485688756E+00  0.42105095625E+01  0.62629038931E+02  0.10000000000E+01 0.  0.
<mgrwt>
<rscale>  0 0.12499976E+03</rscale>
<asrwt>0</asrwt>
<pdfrwt beam="2">  1        4 0.88110064E-02 0.12499976E+03</pdfrwt>
<pdfrwt beam="1">  1       -4 0.10493156E-01 0.12499976E+03</pdfrwt>
<totfact> 0.10442518E+04</totfact>
</mgrwt>
</event>
<event>
 5    1  0.3316199E-002  0.1249817E+03  0.7818608E-02  0.1235098E+00
         -4   -1    0    0    0  501 -0.00000000000E+00  0.00000000000E+00  0.17237937343E+02  0.17284657469E+02  0.12700000000E+01 0. -1.
          4   -1    0    0  501    0  0.00000000000E+00 -0.00000000000E+00 -0.22618627418E+03  0.22618983957E+03  0.12700000000E+01 0. -1.
         25    2    1    2    0    0  0.00000000000E+00  0.00000000000E+00 -0.20894833683E+03  0.24347449704E+03  0.12498169164E+03 0.  0.
    9000005    1    3    3    0    0 -0.52889465885E+02  0.33044369548E+02 -0.11198877702E+03  0.12818624005E+03  0.10000000000E+01 0.  0.
    9000005    1    3    3    0    0  0.52889465885E+02 -0.33044369548E+02 -0.96959559816E+02  0.11528825699E+03  0.10000000000E+01 0.  0.
<mgrwt>
<rscale>  0 0.12498169E+03</rscale>
<asrwt>0</asrwt>
<pdfrwt beam="2">  1        4 0.34801754E-01 0.12498169E+03</pdfrwt>
<pdfrwt beam="1">  1       -4 0.26558586E-02 0.12498169E+03</pdfrwt>
<totfact> 0.83316602E+03</totfact>
</mgrwt>
</event>
<event>
 5    1  0.3316199E-002  0.1250039E+03  0.7818608E-02  0.1235063E+00
          4   -1    0    0  501    0  0.00000000000E+00  0.00000000000E+00  0.22299333115E+03  0.22299694760E+03  0.12700000000E+01 0.  1.
         -4   -1    0    0    0  501 -0.00000000000E+00 -0.00000000000E+00 -0.17491658727E+02  0.17537702957E+02  0.12700000000E+01 0.  1.
         25    2    1    2    0    0  0.00000000000E+00  0.00000000000E+00  0.20550167242E+03  0.24053465056E+03  0.12500392293E+03 0.  0.
    9000005    1    3    3    0    0  0.37391267317E+02 -0.39218690074E+02  0.16265806474E+03  0.17144928856E+03  0.10000000000E+01 0.  0.
    9000005    1    3    3    0    0 -0.37391267317E+02  0.39218690074E+02  0.42843607687E+02  0.69085361998E+02  0.10000000000E+01 0.  0.
<mgrwt>
<rscale>  0 0.12500392E+03</rscale>
<asrwt>0</asrwt>
<pdfrwt beam="1">  1        4 0.34310484E-01 0.12500392E+03</pdfrwt>
<pdfrwt beam="2">  1       -4 0.26948447E-02 0.12500392E+03</pdfrwt>
<totfact> 0.83710485E+03</totfact>
</mgrwt>
</event>
<event>
 5    1  0.3316199E-002  0.1250001E+03  0.7818608E-02  0.1235069E+00
          4   -1    0    0  501    0  0.00000000000E+00  0.00000000000E+00  0.25286197765E+03  0.25286516692E+03  0.12700000000E+01 0.  1.
         -4   -1    0    0    0  501 -0.00000000000E+00 -0.00000000000E+00 -0.15418771710E+02  0.15470986427E+02  0.12700000000E+01 0.  1.
         25    2    1    2    0    0  0.00000000000E+00  0.00000000000E+00  0.23744320594E+03  0.26833615335E+03  0.12500006058E+03 0.  0.
    9000005    1    3    3    0    0  0.46930242985E+02 -0.36257211206E+02  0.16101848160E+03  0.17159540929E+03  0.10000000000E+01 0.  0.
    9000005    1    3    3    0    0 -0.46930242985E+02  0.36257211206E+02  0.76424724338E+02  0.96740744059E+02  0.10000000000E+01 0.  0.
<mgrwt>
<rscale>  0 0.12500006E+03</rscale>
<asrwt>0</asrwt>
<pdfrwt beam="1">  1        4 0.38906106E-01 0.12500006E+03</pdfrwt>
<pdfrwt beam="2">  1       -4 0.23763805E-02 0.12500006E+03</pdfrwt>
<totfact> 0.79750139E+03</totfact>
</mgrwt>
</event>
<event>
 5    1  0.3316199E-002  0.1250011E+03  0.7818608E-02  0.1235068E+00
         -4   -1    0    0    0  501 -0.00000000000E+00  0.00000000000E+00  0.22877099984E+02  0.22912324275E+02  0.12700000000E+01 0.  1.
          4   -1    0    0  501    0  0.00000000000E+00 -0.00000000000E+00 -0.17058344495E+03  0.17058817248E+03  0.12700000000E+01 0.  1.
         25    2    1    2    0    0  0.00000000000E+00  0.00000000000E+00 -0.14770634497E+03  0.19350049676E+03  0.12500111161E+03 0.  0.
    9000005    1    3    3    0    0  0.37302588184E+02 -0.38072307987E+02 -0.23351293698E+02  0.58200228848E+02  0.10000000000E+01 0.  0.
    9000005    1    3    3    0    0 -0.37302588184E+02  0.38072307987E+02 -0.12435505127E+03  0.13530026791E+03  0.10000000000E+01 0.  0.
<mgrwt>
<rscale>  0 0.12500111E+03</rscale>
<asrwt>0</asrwt>
<pdfrwt beam="2">  1        4 0.26246679E-01 0.12500111E+03</pdfrwt>
<pdfrwt beam="1">  1       -4 0.35226272E-02 0.12500111E+03</pdfrwt>
<totfact> 0.91239511E+03</totfact>
</mgrwt>
</event>
<event>
 5    1  0.3316199E-002  0.1250045E+03  0.7818608E-02  0.1235062E+00
         -4   -1    0    0    0  501 -0.00000000000E+00  0.00000000000E+00  0.61040198571E+02  0.61053408927E+02  0.12700000000E+01 0. -1.
          4   -1    0    0  501    0  0.00000000000E+00 -0.00000000000E+00 -0.63972887915E+02  0.63985492794E+02  0.12700000000E+01 0. -1.
         25    2    1    2    0    0  0.00000000000E+00  0.00000000000E+00 -0.29326893434E+01  0.12503890172E+03  0.12500450503E+03 0.  0.
    9000005    1    3    3    0    0 -0.33909295115E+02 -0.52465146487E+02 -0.32274194104E+01  0.62560755487E+02  0.10000000000E+01 0.  0.
    9000005    1    3    3    0    0  0.33909295115E+02  0.52465146487E+02  0.29473006696E+00  0.62478146234E+02  0.10000000000E+01 0.  0.
<mgrwt>
<rscale>  0 0.12500451E+03</rscale>
<asrwt>0</asrwt>
<pdfrwt beam="2">  1        4 0.98439685E-02 0.12500451E+03</pdfrwt>
<pdfrwt beam="1">  1       -4 0.93927856E-02 0.12500451E+03</pdfrwt>
<totfact> 0.10450954E+04</totfact>
</mgrwt>
</event>
<event>
 5    1  0.3316199E-002  0.1249978E+03  0.7818608E-02  0.1235073E+00
         -4   -1    0    0    0  501 -0.00000000000E+00  0.00000000000E+00  0.20270579198E+02  0.20310324494E+02  0.12700000000E+01 0. -1.
          4   -1    0    0  501    0  0.00000000000E+00 -0.00000000000E+00 -0.19246801556E+03  0.19247220556E+03  0.12700000000E+01 0. -1.
         25    2    1    2    0    0  0.00000000000E+00  0.00000000000E+00 -0.17219743636E+03  0.21278253006E+03  0.12499779201E+03 0.  0.
    9000005    1    3    3    0    0 -0.70035238437E+01  0.55503560347E+02 -0.13350123603E+03  0.14475245966E+03  0.10000000000E+01 0.  0.
    9000005    1    3    3    0    0  0.70035238437E+01 -0.55503560347E+02 -0.38696200337E+02  0.68030070395E+02  0.10000000000E+01 0.  0.
<mgrwt>
<rscale>  0 0.12499779E+03</rscale>
<asrwt>0</asrwt>
<pdfrwt beam="2">  1        4 0.29613842E-01 0.12499779E+03</pdfrwt>
<pdfrwt beam="1">  1       -4 0.31219304E-02 0.12499779E+03</pdfrwt>
<totfact> 0.88027809E+03</totfact>
</mgrwt>
</event>
<event>
 5    1  0.3316199E-002  0.1250004E+03  0.7818608E-02  0.1235069E+00
          4   -1    0    0  501    0  0.00000000000E+00  0.00000000000E+00  0.13350165675E+03  0.13350769736E+03  0.12700000000E+01 0. -1.
         -4   -1    0    0    0  501 -0.00000000000E+00 -0.00000000000E+00 -0.29239652367E+02  0.29267220069E+02  0.12700000000E+01 0. -1.
         25    2    1    2    0    0  0.00000000000E+00  0.00000000000E+00  0.10426200438E+03  0.16277491743E+03  0.12500043275E+03 0.  0.
    9000005    1    3    3    0    0  0.25926498471E+02 -0.20440016102E+02  0.12122467294E+03  0.12564393702E+03  0.10000000000E+01 0.  0.
    9000005    1    3    3    0    0 -0.25926498471E+02  0.20440016102E+02 -0.16962668560E+02  0.37130980406E+02  0.10000000000E+01 0.  0.
<mgrwt>
<rscale>  0 0.12500043E+03</rscale>
<asrwt>0</asrwt>
<pdfrwt beam="1">  1        4 0.20541302E-01 0.12500043E+03</pdfrwt>
<pdfrwt beam="2">  1       -4 0.45009932E-02 0.12500043E+03</pdfrwt>
<totfact> 0.96809513E+03</totfact>
</mgrwt>
</event>
<event>
 5    1  0.3316199E-002  0.1249987E+03  0.7818608E-02  0.1235071E+00
         -4   -1    0    0    0  501 -0.00000000000E+00  0.00000000000E+00  0.10558724540E+04  0.10558732178E+04  0.12700000000E+01 0.  1.
          4   -1    0    0  501    0  0.00000000000E+00 -0.00000000000E+00 -0.35896889212E+01  0.38077245897E+01  0.12700000000E+01 0.  1.
         25    2    1    2    0    0  0.00000000000E+00  0.00000000000E+00  0.10522827651E+04  0.10596809424E+04  0.12499872772E+03 0.  0.
    9000005    1    3    3    0    0  0.37774197218E+02  0.41260751425E+02  0.76227241580E+03  0.76432295234E+03  0.10000000000E+01 0.  0.
    9000005    1    3    3    0    0 -0.37774197218E+02 -0.41260751425E+02  0.29001034931E+03  0.29535799006E+03  0.10000000000E+01 0.  0.
<mgrwt>
<rscale>  0 0.12499873E+03</rscale>
<asrwt>0</asrwt>
<pdfrwt beam="2">  1        4 0.56908962E-03 0.12499873E+03</pdfrwt>
<pdfrwt beam="1">  1       -4 0.16245901E+00 0.12499873E+03</pdfrwt>
<totfact> 0.28695150E+03</totfact>
</mgrwt>
</event>
<event>
 5    1  0.3316199E-002  0.1249997E+03  0.7818608E-02  0.1235070E+00
          4   -1    0    0  501    0  0.00000000000E+00  0.00000000000E+00  0.14566120415E+02  0.14621380371E+02  0.12700000000E+01 0. -1.
         -4   -1    0    0    0  501 -0.00000000000E+00 -0.00000000000E+00 -0.26760777945E+03  0.26761079298E+03  0.12700000000E+01 0. -1.
         25    2    1    2    0    0  0.00000000000E+00  0.00000000000E+00 -0.25304165903E+03  0.28223217335E+03  0.12499967388E+03 0.  0.
    9000005    1    3    3    0    0 -0.13214044732E+01 -0.17909079659E+02 -0.26166763790E+03  0.26228502429E+03  0.10000000000E+01 0.  0.
    9000005    1    3    3    0    0  0.13214044732E+01  0.17909079659E+02  0.86259788719E+01  0.19947149057E+02  0.10000000000E+01 0.  0.
<mgrwt>
<rscale>  0 0.12499967E+03</rscale>
<asrwt>0</asrwt>
<pdfrwt beam="1">  1        4 0.22454244E-02 0.12499967E+03</pdfrwt>
<pdfrwt beam="2">  1       -4 0.41174907E-01 0.12499967E+03</pdfrwt>
<totfact> 0.77883629E+03</totfact>
</mgrwt>
</event>
<event>
 5    1  0.3316199E-002  0.1250004E+03  0.7818608E-02  0.1235069E+00
         -4   -1    0    0    0  501 -0.00000000000E+00  0.00000000000E+00  0.12412756219E+04  0.12412762716E+04  0.12700000000E+01 0. -1.
          4   -1    0    0  501    0  0.00000000000E+00 -0.00000000000E+00 -0.30181745794E+01  0.32744889360E+01  0.12700000000E+01 0. -1.
         25    2    1    2    0    0  0.00000000000E+00  0.00000000000E+00  0.12382574474E+04  0.12445507606E+04  0.12500035877E+03 0.  0.
    9000005    1    3    3    0    0 -0.53495540561E+00 -0.58887020063E+02  0.41092253555E+03  0.41512202728E+03  0.10000000000E+01 0.  0.
    9000005    1    3    3    0    0  0.53495540561E+00  0.58887020063E+02  0.82733491181E+03  0.82942873329E+03  0.10000000000E+01 0.  0.
<mgrwt>
<rscale>  0 0.12500036E+03</rscale>
<asrwt>0</asrwt>
<pdfrwt beam="2">  1        4 0.48410062E-03 0.12500036E+03</pdfrwt>
<pdfrwt beam="1">  1       -4 0.19098540E+00 0.12500036E+03</pdfrwt>
<totfact> 0.23575281E+03</totfact>
</mgrwt>
</event>
<event>
 5    1  0.3316199E-002  0.1250007E+03  0.7818608E-02  0.1235068E+00
         -4   -1    0    0    0  501 -0.00000000000E+00  0.00000000000E+00  0.13756470460E+03  0.13757056681E+03  0.12700000000E+01 0. -1.
          4   -1    0    0  501    0  0.00000000000E+00 -0.00000000000E+00 -0.28375384782E+02  0.28403791323E+02  0.12700000000E+01 0. -1.
         25    2    1    2    0    0  0.00000000000E+00  0.00000000000E+00  0.10918931982E+03  0.16597435813E+03  0.12500071998E+03 0.  0.
    9000005    1    3    3    0    0  0.56199278504E+02  0.22164481968E+02  0.33363685530E+02  0.69019987521E+02  0.10000000000E+01 0.  0.
    9000005    1    3    3    0    0 -0.56199278504E+02 -0.22164481968E+02  0.75825634290E+02  0.96954370611E+02  0.10000000000E+01 0.  0.
<mgrwt>
<rscale>  0 0.12500072E+03</rscale>
<asrwt>0</asrwt>
<pdfrwt beam="2">  1        4 0.43680798E-02 0.12500072E+03</pdfrwt>
<pdfrwt beam="1">  1       -4 0.21166437E-01 0.12500072E+03</pdfrwt>
<totfact> 0.96201626E+03</totfact>
</mgrwt>
</event>
<event>
 5    1  0.3316199E-002  0.1250002E+03  0.7818608E-02  0.1235069E+00
          4   -1    0    0  501    0  0.00000000000E+00  0.00000000000E+00  0.10081434269E+03  0.10082234173E+03  0.12700000000E+01 0. -1.
         -4   -1    0    0    0  501 -0.00000000000E+00 -0.00000000000E+00 -0.38727160813E+02  0.38747979104E+02  0.12700000000E+01 0. -1.
         25    2    1    2    0    0  0.00000000000E+00  0.00000000000E+00  0.62087181880E+02  0.13957032084E+03  0.12500022522E+03 0.  0.
    9000005    1    3    3    0    0  0.16986136292E+02 -0.30700760120E+02 -0.26696718647E+02  0.44099663089E+02  0.10000000000E+01 0.  0.
    9000005    1    3    3    0    0 -0.16986136292E+02  0.30700760120E+02  0.88783900527E+02  0.95470657748E+02  0.10000000000E+01 0.  0.
<mgrwt>
<rscale>  0 0.12500023E+03</rscale>
<asrwt>0</asrwt>
<pdfrwt beam="1">  1        4 0.15512115E-01 0.12500023E+03</pdfrwt>
<pdfrwt beam="2">  1       -4 0.59602415E-02 0.12500023E+03</pdfrwt>
<totfact> 0.10142447E+04</totfact>
</mgrwt>
</event>
<event>
 5    1  0.3316199E-002  0.1250020E+03  0.7818608E-02  0.1235066E+00
         -4   -1    0    0    0  501 -0.00000000000E+00  0.00000000000E+00  0.14002546208E+04  0.14002551967E+04  0.12700000000E+01 0. -1.
          4   -1    0    0  501    0  0.00000000000E+00 -0.00000000000E+00 -0.26446171843E+01  0.29337518728E+01  0.12700000000E+01 0. -1.
         25    2    1    2    0    0  0.00000000000E+00  0.00000000000E+00  0.13976100036E+04  0.14031889486E+04  0.12500201309E+03 0.  0.
    9000005    1    3    3    0    0  0.28068426193E+02  0.24169302308E+02  0.12638065897E+04  0.12643496699E+04  0.10000000000E+01 0.  0.
    9000005    1    3    3    0    0 -0.28068426193E+02 -0.24169302308E+02  0.13380341395E+03  0.13883927869E+03  0.10000000000E+01 0.  0.
<mgrwt>
<rscale>  0 0.12500201E+03</rscale>
<asrwt>0</asrwt>
<pdfrwt beam="2">  1        4 0.42915008E-03 0.12500201E+03</pdfrwt>
<pdfrwt beam="1">  1       -4 0.21544584E+00 0.12500201E+03</pdfrwt>
<totfact> 0.19911752E+03</totfact>
</mgrwt>
</event>
<event>
 5    1  0.3316199E-002  0.1250006E+03  0.7818608E-02  0.1235068E+00
         -4   -1    0    0    0  501 -0.00000000000E+00  0.00000000000E+00  0.55035538875E+01  0.56481860267E+01  0.12700000000E+01 0.  1.
          4   -1    0    0  501    0  0.00000000000E+00 -0.00000000000E+00 -0.70042515586E+03  0.70042630723E+03  0.12700000000E+01 0.  1.
         25    2    1    2    0    0  0.00000000000E+00  0.00000000000E+00 -0.69492160197E+03  0.70607449325E+03  0.12500062856E+03 0.  0.
    9000005    1    3    3    0    0  0.76415849040E+01 -0.18896860134E+02 -0.68114746723E+03  0.68145312184E+03  0.10000000000E+01 0.  0.
    9000005    1    3    3    0    0 -0.76415849040E+01  0.18896860134E+02 -0.13774134737E+02  0.24621371418E+02  0.10000000000E+01 0.  0.
<mgrwt>
<rscale>  0 0.12500063E+03</rscale>
<asrwt>0</asrwt>
<pdfrwt beam="2">  1        4 0.10776886E+00 0.12500063E+03</pdfrwt>
<pdfrwt beam="1">  1       -4 0.85791527E-03 0.12500063E+03</pdfrwt>
<totfact> 0.42767400E+03</totfact>
</mgrwt>
</event>
<event>
 5    1  0.3316199E-002  0.1250105E+03  0.7818608E-02  0.1235053E+00
          4   -1    0    0  501    0  0.00000000000E+00  0.00000000000E+00  0.23821454084E+02  0.23855283999E+02  0.12700000000E+01 0.  1.
         -4   -1    0    0    0  501 -0.00000000000E+00 -0.00000000000E+00 -0.16385527863E+03  0.16386020028E+03  0.12700000000E+01 0.  1.
         25    2    1    2    0    0  0.00000000000E+00  0.00000000000E+00 -0.14003382455E+03  0.18771548428E+03  0.12501052364E+03 0.  0.
    9000005    1    3    3    0    0  0.10241165330E+02 -0.45163596768E+02 -0.13303528864E+03  0.14086880409E+03  0.10000000000E+01 0.  0.
    9000005    1    3    3    0    0 -0.10241165330E+02  0.45163596768E+02 -0.69985359070E+01  0.46846680194E+02  0.10000000000E+01 0.  0.
<mgrwt>
<rscale>  0 0.12501052E+03</rscale>
<asrwt>0</asrwt>
<pdfrwt beam="1">  1        4 0.36678201E-02 0.12501052E+03</pdfrwt>
<pdfrwt beam="2">  1       -4 0.25211484E-01 0.12501052E+03</pdfrwt>
<totfact> 0.92224593E+03</totfact>
</mgrwt>
</event>
<event>
 5    1  0.3316199E-002  0.1249980E+03  0.7818608E-02  0.1235072E+00
          4   -1    0    0  501    0  0.00000000000E+00  0.00000000000E+00  0.44817507725E+02  0.44835498198E+02  0.12700000000E+01 0. -1.
         -4   -1    0    0    0  501 -0.00000000000E+00 -0.00000000000E+00 -0.87116061676E+02  0.87125318375E+02  0.12700000000E+01 0. -1.
         25    2    1    2    0    0  0.00000000000E+00  0.00000000000E+00 -0.42298553951E+02  0.13196081657E+03  0.12499795776E+03 0.  0.
    9000005    1    3    3    0    0  0.54454935959E+02 -0.75248903461E+01  0.10224106876E+02  0.55924023339E+02  0.10000000000E+01 0.  0.
    9000005    1    3    3    0    0 -0.54454935959E+02  0.75248903461E+01 -0.52522660827E+02  0.76036793234E+02  0.10000000000E+01 0.  0.
<mgrwt>
<rscale>  0 0.12499796E+03</rscale>
<asrwt>0</asrwt>
<pdfrwt beam="1">  1        4 0.68970971E-02 0.12499796E+03</pdfrwt>
<pdfrwt beam="2">  1       -4 0.13404567E-01 0.12499796E+03</pdfrwt>
<totfact> 0.10303009E+04</totfact>
</mgrwt>
</event>
<event>
 5    1  0.3316199E-002  0.1249912E+03  0.7818608E-02  0.1235083E+00
          4   -1    0    0  501    0  0.00000000000E+00  0.00000000000E+00  0.36179284955E+01  0.38343586945E+01  0.12700000000E+01 0.  1.
         -4   -1    0    0    0  501 -0.00000000000E+00 -0.00000000000E+00 -0.10479717076E+04  0.10479724772E+04  0.12700000000E+01 0.  1.
         25    2    1    2    0    0  0.00000000000E+00  0.00000000000E+00 -0.10443537791E+04  0.10518068359E+04  0.12499121555E+03 0.  0.
    9000005    1    3    3    0    0 -0.59136604948E+01  0.30135087051E+02 -0.98012908802E+03  0.98061058736E+03  0.10000000000E+01 0.  0.
    9000005    1    3    3    0    0  0.59136604948E+01 -0.30135087051E+02 -0.64224691113E+02  0.71196248500E+02  0.10000000000E+01 0.  0.
<mgrwt>
<rscale>  0 0.12499122E+03</rscale>
<asrwt>0</asrwt>
<pdfrwt beam="1">  1        4 0.57331289E-03 0.12499122E+03</pdfrwt>
<pdfrwt beam="2">  1       -4 0.16124289E+00 0.12499122E+03</pdfrwt>
<totfact> 0.28944010E+03</totfact>
</mgrwt>
</event>
<event>
 5    1  0.3316199E-002  0.1249996E+03  0.7818608E-02  0.1235070E+00
         -4   -1    0    0    0  501 -0.00000000000E+00  0.00000000000E+00  0.14602365198E+03  0.14602917461E+03  0.12700000000E+01 0. -1.
          4   -1    0    0  501    0  0.00000000000E+00 -0.00000000000E+00 -0.26729536481E+02  0.26759690217E+02  0.12700000000E+01 0. -1.
         25    2    1    2    0    0  0.00000000000E+00  0.00000000000E+00  0.11929411550E+03  0.17278886482E+03  0.12499962326E+03 0.  0.
    9000005    1    3    3    0    0 -0.30317537843E+02 -0.13654712273E+02 -0.13493246165E+02  0.35898077389E+02  0.10000000000E+01 0.  0.
    9000005    1    3    3    0    0  0.30317537843E+02  0.13654712273E+02  0.13278736166E+03  0.13689078744E+03  0.10000000000E+01 0.  0.
<mgrwt>
<rscale>  0 0.12499962E+03</rscale>
<asrwt>0</asrwt>
<pdfrwt beam="2">  1        4 0.41149807E-02 0.12499962E+03</pdfrwt>
<pdfrwt beam="1">  1       -4 0.22467921E-01 0.12499962E+03</pdfrwt>
<totfact> 0.94932174E+03</totfact>
</mgrwt>
</event>
<event>
 5    1  0.3316199E-002  0.1249967E+03  0.7818608E-02  0.1235074E+00
          4   -1    0    0  501    0  0.00000000000E+00  0.00000000000E+00  0.35349283808E+03  0.35349511945E+03  0.12700000000E+01 0.  1.
         -4   -1    0    0    0  501 -0.00000000000E+00 -0.00000000000E+00 -0.11011035299E+02  0.11084033488E+02  0.12700000000E+01 0.  1.
         25    2    1    2    0    0  0.00000000000E+00  0.00000000000E+00  0.34248180278E+03  0.36457915294E+03  0.12499669404E+03 0.  0.
    9000005    1    3    3    0    0 -0.22650949228E+02 -0.37896106375E+02  0.30023282533E+03  0.30346322641E+03  0.10000000000E+01 0.  0.
    9000005    1    3    3    0    0  0.22650949228E+02  0.37896106375E+02  0.42248977455E+02  0.61115926528E+02  0.10000000000E+01 0.  0.
<mgrwt>
<rscale>  0 0.12499669E+03</rscale>
<asrwt>0</asrwt>
<pdfrwt beam="1">  1        4 0.54389299E-01 0.12499669E+03</pdfrwt>
<pdfrwt beam="2">  1       -4 0.16997963E-02 0.12499669E+03</pdfrwt>
<totfact> 0.68154882E+03</totfact>
</mgrwt>
</event>
<event>
 5    1  0.3316199E-002  0.1250081E+03  0.7818608E-02  0.1235057E+00
         -4   -1    0    0    0  501 -0.00000000000E+00  0.00000000000E+00  0.31670839683E+03  0.31671094317E+03  0.12700000000E+01 0. -1.
          4   -1    0    0  501    0  0.00000000000E+00 -0.00000000000E+00 -0.12300203332E+02  0.12365593476E+02  0.12700000000E+01 0. -1.
         25    2    1    2    0    0  0.00000000000E+00  0.00000000000E+00  0.30440819350E+03  0.32907653665E+03  0.12500807454E+03 0.  0.
    9000005    1    3    3    0    0 -0.33859557824E+02 -0.43125507323E+02  0.73253838595E+02  0.91506305284E+02  0.10000000000E+01 0.  0.
    9000005    1    3    3    0    0  0.33859557824E+02  0.43125507323E+02  0.23115435490E+03  0.23757023136E+03  0.10000000000E+01 0.  0.
<mgrwt>
<rscale>  0 0.12500807E+03</rscale>
<asrwt>0</asrwt>
<pdfrwt beam="2">  1        4 0.18975648E-02 0.12500807E+03</pdfrwt>
<pdfrwt beam="1">  1       -4 0.48729597E-01 0.12500807E+03</pdfrwt>
<totfact> 0.72076541E+03</totfact>
</mgrwt>
</event>
<event>
 5    1  0.3316199E-002  0.1250009E+03  0.7818608E-02  0.1235068E+00
         -4   -1    0    0    0  501 -0.00000000000E+00  0.00000000000E+00  0.19139674394E+02  0.19181763107E+02  0.12700000000E+01 0. -1.
          4   -1    0    0  501    0  0.00000000000E+00 -0.00000000000E+00 -0.20382648939E+03  0.20383044591E+03  0.12700000000E+01 0. -1.
         25    2    1    2    0    0  0.00000000000E+00  0.00000000000E+00 -0.18468681500E+03  0.22301220901E+03  0.12500090293E+03 0.  0.
    9000005    1    3    3    0    0  0.41373949104E+02  0.32109365772E+02 -0.31514451389E+02  0.61130807954E+02  0.10000000000E+01 0.  0.
    9000005    1    3    3    0    0 -0.41373949104E+02 -0.32109365772E+02 -0.15317236361E+03  0.16188140106E+03  0.10000000000E+01 0.  0.
<mgrwt>
<rscale>  0 0.12500090E+03</rscale>
<asrwt>0</asrwt>
<pdfrwt beam="2">  1        4 0.31361462E-01 0.12500090E+03</pdfrwt>
<pdfrwt beam="1">  1       -4 0.29481074E-02 0.12500090E+03</pdfrwt>
<totfact> 0.86392199E+03</totfact>
</mgrwt>
</event>
<event>
 5    1  0.3316199E-002  0.1250076E+03  0.7818608E-02  0.1235057E+00
         -4   -1    0    0    0  501 -0.00000000000E+00  0.00000000000E+00  0.11663422110E+02  0.11732361882E+02  0.12700000000E+01 0. -1.
          4   -1    0    0  501    0  0.00000000000E+00 -0.00000000000E+00 -0.33389813260E+03  0.33390054784E+03  0.12700000000E+01 0. -1.
         25    2    1    2    0    0  0.00000000000E+00  0.00000000000E+00 -0.32223471049E+03  0.34563290973E+03  0.12500759835E+03 0.  0.
    9000005    1    3    3    0    0 -0.13554558024E+02 -0.51057971743E+02 -0.68789626002E+02  0.86739006031E+02  0.10000000000E+01 0.  0.
    9000005    1    3    3    0    0  0.13554558024E+02  0.51057971743E+02 -0.25344508448E+03  0.25889390370E+03  0.10000000000E+01 0.  0.
<mgrwt>
<rscale>  0 0.12500760E+03</rscale>
<asrwt>0</asrwt>
<pdfrwt beam="2">  1        4 0.51374425E-01 0.12500760E+03</pdfrwt>
<pdfrwt beam="1">  1       -4 0.17998617E-02 0.12500760E+03</pdfrwt>
<totfact> 0.70195872E+03</totfact>
</mgrwt>
</event>
<event>
 5    1  0.3316199E-002  0.1249999E+03  0.7818608E-02  0.1235069E+00
          4   -1    0    0  501    0  0.00000000000E+00  0.00000000000E+00  0.12154825307E+03  0.12155488770E+03  0.12700000000E+01 0. -1.
         -4   -1    0    0    0  501 -0.00000000000E+00 -0.00000000000E+00 -0.32117316792E+02  0.32142416492E+02  0.12700000000E+01 0. -1.
         25    2    1    2    0    0  0.00000000000E+00  0.00000000000E+00  0.89430936275E+02  0.15369730419E+03  0.12499987581E+03 0.  0.
    9000005    1    3    3    0    0 -0.76505201997E+01  0.21477883242E+02 -0.26826758570E+02  0.35220802139E+02  0.10000000000E+01 0.  0.
    9000005    1    3    3    0    0  0.76505201997E+01 -0.21477883242E+02  0.11625769485E+03  0.11847650205E+03  0.10000000000E+01 0.  0.
<mgrwt>
<rscale>  0 0.12499988E+03</rscale>
<asrwt>0</asrwt>
<pdfrwt beam="1">  1        4 0.18702172E-01 0.12499988E+03</pdfrwt>
<pdfrwt beam="2">  1       -4 0.49435668E-02 0.12499988E+03</pdfrwt>
<totfact> 0.98572011E+03</totfact>
</mgrwt>
</event>
<event>
 5    1  0.3316199E-002  0.1250011E+03  0.7818608E-02  0.1235068E+00
         -4   -1    0    0    0  501 -0.00000000000E+00  0.00000000000E+00  0.55872021499E+03  0.55872165837E+03  0.12700000000E+01 0. -1.
          4   -1    0    0  501    0  0.00000000000E+00 -0.00000000000E+00 -0.69324072590E+01  0.70477776926E+01  0.12700000000E+01 0. -1.
         25    2    1    2    0    0  0.00000000000E+00  0.00000000000E+00  0.55178780773E+03  0.56576943607E+03  0.12500108011E+03 0.  0.
    9000005    1    3    3    0    0 -0.81785237464E+01 -0.40784524653E+02  0.64807374500E+02  0.77014683609E+02  0.10000000000E+01 0.  0.
    9000005    1    3    3    0    0  0.81785237464E+01  0.40784524653E+02  0.48698043323E+03  0.48875475246E+03  0.10000000000E+01 0.  0.
<mgrwt>
<rscale>  0 0.12500108E+03</rscale>
<asrwt>0</asrwt>
<pdfrwt beam="2">  1        4 0.10755096E-02 0.12500108E+03</pdfrwt>
<pdfrwt beam="1">  1       -4 0.85965967E-01 0.12500108E+03</pdfrwt>
<totfact> 0.51100954E+03</totfact>
</mgrwt>
</event>
<event>
 5    1  0.3316199E-002  0.1250176E+03  0.7818608E-02  0.1235042E+00
         -4   -1    0    0    0  501 -0.00000000000E+00  0.00000000000E+00  0.25277672280E+02  0.25309555822E+02  0.12700000000E+01 0. -1.
          4   -1    0    0  501    0  0.00000000000E+00 -0.00000000000E+00 -0.15444519776E+03  0.15445041927E+03  0.12700000000E+01 0. -1.
         25    2    1    2    0    0  0.00000000000E+00  0.00000000000E+00 -0.12916752548E+03  0.17975997509E+03  0.12501759478E+03 0.  0.
    9000005    1    3    3    0    0  0.60781339461E+02 -0.10829075003E+02 -0.50590499736E+02  0.79825050927E+02  0.10000000000E+01 0.  0.
    9000005    1    3    3    0    0 -0.60781339461E+02  0.10829075003E+02 -0.78577025744E+02  0.99934924160E+02  0.10000000000E+01 0.  0.
<mgrwt>
<rscale>  0 0.12501759E+03</rscale>
<asrwt>0</asrwt>
<pdfrwt beam="2">  1        4 0.23763653E-01 0.12501759E+03</pdfrwt>
<pdfrwt beam="1">  1       -4 0.38917270E-02 0.12501759E+03</pdfrwt>
<totfact> 0.93623285E+03</totfact>
</mgrwt>
</event>
<event>
 5    1  0.3316199E-002  0.1250006E+03  0.7818608E-02  0.1235068E+00
          4   -1    0    0  501    0  0.00000000000E+00  0.00000000000E+00  0.82869723051E+03  0.82869820367E+03  0.12700000000E+01 0. -1.
         -4   -1    0    0    0  501 -0.00000000000E+00 -0.00000000000E+00 -0.46272329615E+01  0.47983523089E+01  0.12700000000E+01 0. -1.
         25    2    1    2    0    0  0.00000000000E+00  0.00000000000E+00  0.82406999755E+03  0.83349655598E+03  0.12500059183E+03 0.  0.
    9000005    1    3    3    0    0  0.38774850236E+02 -0.41471608100E+02  0.58615684525E+03  0.58890086647E+03  0.10000000000E+01 0.  0.
    9000005    1    3    3    0    0 -0.38774850236E+02  0.41471608100E+02  0.23791315230E+03  0.24459568951E+03  0.10000000000E+01 0.  0.
<mgrwt>
<rscale>  0 0.12500059E+03</rscale>
<asrwt>0</asrwt>
<pdfrwt beam="1">  1        4 0.12750520E+00 0.12500059E+03</pdfrwt>
<pdfrwt beam="2">  1       -4 0.72511940E-03 0.12500059E+03</pdfrwt>
<totfact> 0.36811839E+03</totfact>
</mgrwt>
</event>
<event>
 5    1  0.3316199E-002  0.1249988E+03  0.7818608E-02  0.1235071E+00
         -4   -1    0    0    0  501 -0.00000000000E+00  0.00000000000E+00  0.20573103092E+02  0.20612265058E+02  0.12700000000E+01 0. -1.
          4   -1    0    0  501    0  0.00000000000E+00 -0.00000000000E+00 -0.18964616573E+03  0.18965041808E+03  0.12700000000E+01 0. -1.
         25    2    1    2    0    0  0.00000000000E+00  0.00000000000E+00 -0.16907306264E+03  0.21026268313E+03  0.12499878163E+03 0.  0.
    9000005    1    3    3    0    0 -0.44827246857E+02 -0.16629953805E+01 -0.11351330705E+02  0.46282829680E+02  0.10000000000E+01 0.  0.
    9000005    1    3    3    0    0  0.44827246857E+02  0.16629953805E+01 -0.15772173193E+03  0.16397985345E+03  0.10000000000E+01 0.  0.
<mgrwt>
<rscale>  0 0.12499878E+03</rscale>
<asrwt>0</asrwt>
<pdfrwt beam="2">  1        4 0.29179672E-01 0.12499878E+03</pdfrwt>
<pdfrwt beam="1">  1       -4 0.31684325E-02 0.12499878E+03</pdfrwt>
<totfact> 0.88435409E+03</totfact>
</mgrwt>
</event>
<event>
 5    1  0.3316199E-002  0.1249999E+03  0.7818608E-02  0.1235069E+00
         -4   -1    0    0    0  501 -0.00000000000E+00  0.00000000000E+00  0.13313258669E+04  0.13313264726E+04  0.12700000000E+01 0. -1.
          4   -1    0    0  501    0  0.00000000000E+00 -0.00000000000E+00 -0.27960403536E+01  0.30709512629E+01  0.12700000000E+01 0. -1.
         25    2    1    2    0    0  0.00000000000E+00  0.00000000000E+00  0.13285298265E+04  0.13343974239E+04  0.12499993968E+03 0.  0.
    9000005    1    3    3    0    0 -0.18028913238E+02 -0.29396510023E+01  0.26288610858E+02  0.32027711772E+02  0.10000000000E+01 0.  0.
    9000005    1    3    3    0    0  0.18028913238E+02  0.29396510023E+01  0.13022412157E+04  0.13023697121E+04  0.10000000000E+01 0.  0.
<mgrwt>
<rscale>  0 0.12499994E+03</rscale>
<asrwt>0</asrwt>
<pdfrwt beam="2">  1        4 0.45135286E-03 0.12499994E+03</pdfrwt>
<pdfrwt beam="1">  1       -4 0.20484091E+00 0.12499994E+03</pdfrwt>
<totfact> 0.21430919E+03</totfact>
</mgrwt>
</event>
<event>
 5    1  0.3316199E-002  0.1250041E+03  0.7818608E-02  0.1235063E+00
         -4   -1    0    0    0  501 -0.00000000000E+00  0.00000000000E+00  0.73004047050E+03  0.73004157516E+03  0.12700000000E+01 0. -1.
          4   -1    0    0  501    0  0.00000000000E+00 -0.00000000000E+00 -0.52746036830E+01  0.54253427553E+01  0.12700000000E+01 0. -1.
         25    2    1    2    0    0  0.00000000000E+00  0.00000000000E+00  0.72476586681E+03  0.73546691791E+03  0.12500410254E+03 0.  0.
    9000005    1    3    3    0    0 -0.30765545575E+02  0.50879221373E+02  0.47559984532E+03  0.47930306366E+03  0.10000000000E+01 0.  0.
    9000005    1    3    3    0    0  0.30765545575E+02 -0.50879221373E+02  0.24916602149E+03  0.25616385426E+03  0.10000000000E+01 0.  0.
<mgrwt>
<rscale>  0 0.12500410E+03</rscale>
<asrwt>0</asrwt>
<pdfrwt beam="2">  1        4 0.82315762E-03 0.12500410E+03</pdfrwt>
<pdfrwt beam="1">  1       -4 0.11232562E+00 0.12500410E+03</pdfrwt>
<totfact> 0.41275378E+03</totfact>
</mgrwt>
</event>
<event>
 4    1  0.3316199E-002  0.1249146E+03  0.7818608E-02  0.1235203E+00
          4   -1    0    0  501    0  0.00000000000E+00  0.00000000000E+00  0.16089144236E+03  0.16089645467E+03  0.12700000000E+01 0. -1.
         -4   -1    0    0    0  501 -0.00000000000E+00 -0.00000000000E+00 -0.24223611808E+02  0.24256880860E+02  0.12700000000E+01 0. -1.
    9000005    1    1    2    0    0  0.23724488157E+02 -0.55366574567E+02  0.43905889365E+02  0.74545529970E+02  0.10000000000E+01 0.  0.
    9000005    1    1    2    0    0 -0.23724488157E+02  0.55366574567E+02  0.92761941191E+02  0.11060780556E+03  0.10000000000E+01 0.  0.
<mgrwt>
<rscale>  0 0.12491462E+03</rscale>
<asrwt>0</asrwt>
<pdfrwt beam="1">  1        4 0.24755475E-01 0.12491462E+03</pdfrwt>
<pdfrwt beam="2">  1       -4 0.37296541E-02 0.12491462E+03</pdfrwt>
<totfact> 0.92875119E+03</totfact>
</mgrwt>
</event>
<event>
 5    1  0.3316199E-002  0.1249983E+03  0.7818608E-02  0.1235072E+00
          4   -1    0    0  501    0  0.00000000000E+00  0.00000000000E+00  0.18577492316E+03  0.18577926412E+03  0.12700000000E+01 0. -1.
         -4   -1    0    0    0  501 -0.00000000000E+00 -0.00000000000E+00 -0.21002458549E+02  0.21040821398E+02  0.12700000000E+01 0. -1.
         25    2    1    2    0    0  0.00000000000E+00  0.00000000000E+00  0.16477246461E+03  0.20682008551E+03  0.12499833070E+03 0.  0.
    9000005    1    3    3    0    0  0.20753797173E+02 -0.33389404768E+02  0.16275831632E+03  0.16744205558E+03  0.10000000000E+01 0.  0.
    9000005    1    3    3    0    0 -0.20753797173E+02  0.33389404768E+02  0.20141482967E+01  0.39378029931E+02  0.10000000000E+01 0.  0.
<mgrwt>
<rscale>  0 0.12499833E+03</rscale>
<asrwt>0</asrwt>
<pdfrwt beam="1">  1        4 0.28584041E-01 0.12499833E+03</pdfrwt>
<pdfrwt beam="2">  1       -4 0.32344326E-02 0.12499833E+03</pdfrwt>
<totfact> 0.89001173E+03</totfact>
</mgrwt>
</event>
<event>
 5    1  0.3316199E-002  0.1250124E+03  0.7818608E-02  0.1235050E+00
          4   -1    0    0  501    0  0.00000000000E+00  0.00000000000E+00  0.50018506701E+01  0.51605629660E+01  0.12700000000E+01 0.  1.
         -4   -1    0    0    0  501 -0.00000000000E+00 -0.00000000000E+00 -0.76875751005E+03  0.76875855908E+03  0.12700000000E+01 0.  1.
         25    2    1    2    0    0  0.00000000000E+00  0.00000000000E+00 -0.76375565938E+03  0.77391912205E+03  0.12501240032E+03 0.  0.
    9000005    1    3    3    0    0 -0.52479320835E+02  0.33852238696E+02 -0.36674925706E+03  0.37202966379E+03  0.10000000000E+01 0.  0.
    9000005    1    3    3    0    0  0.52479320835E+02 -0.33852238696E+02 -0.39700640232E+03  0.40188945826E+03  0.10000000000E+01 0.  0.
<mgrwt>
<rscale>  0 0.12501240E+03</rscale>
<asrwt>0</asrwt>
<pdfrwt beam="1">  1        4 0.78180543E-03 0.12501240E+03</pdfrwt>
<pdfrwt beam="2">  1       -4 0.11828258E+00 0.12501240E+03</pdfrwt>
<totfact> 0.39444684E+03</totfact>
</mgrwt>
</event>
<event>
 5    1  0.3316199E-002  0.1250016E+03  0.7818608E-02  0.1235067E+00
         -4   -1    0    0    0  501 -0.00000000000E+00  0.00000000000E+00  0.29959579588E+02  0.29986485441E+02  0.12700000000E+01 0.  1.
          4   -1    0    0  501    0  0.00000000000E+00 -0.00000000000E+00 -0.13029872246E+03  0.13030491155E+03  0.12700000000E+01 0.  1.
         25    2    1    2    0    0  0.00000000000E+00  0.00000000000E+00 -0.10033914287E+03  0.16029139699E+03  0.12500155342E+03 0.  0.
    9000005    1    3    3    0    0 -0.56535429556E+02  0.65764698789E+01 -0.83258332568E+02  0.10085858760E+03  0.10000000000E+01 0.  0.
    9000005    1    3    3    0    0  0.56535429556E+02 -0.65764698789E+01 -0.17080810301E+02  0.59432809388E+02  0.10000000000E+01 0.  0.
<mgrwt>
<rscale>  0 0.12500155E+03</rscale>
<asrwt>0</asrwt>
<pdfrwt beam="2">  1        4 0.20048503E-01 0.12500155E+03</pdfrwt>
<pdfrwt beam="1">  1       -4 0.46117119E-02 0.12500155E+03</pdfrwt>
<totfact> 0.97283239E+03</totfact>
</mgrwt>
</event>
<event>
 5    1  0.3316199E-002  0.1250015E+03  0.7818608E-02  0.1235067E+00
         -4   -1    0    0    0  501 -0.00000000000E+00  0.00000000000E+00  0.79574875308E+02  0.79585009143E+02  0.12700000000E+01 0. -1.
          4   -1    0    0  501    0  0.00000000000E+00 -0.00000000000E+00 -0.49068664252E+02  0.49085096633E+02  0.12700000000E+01 0. -1.
         25    2    1    2    0    0  0.00000000000E+00  0.00000000000E+00  0.30506211056E+02  0.12867010578E+03  0.12500146882E+03 0.  0.
    9000005    1    3    3    0    0  0.25717168729E+02 -0.54048524083E+02 -0.32387108562E+01  0.59950854631E+02  0.10000000000E+01 0.  0.
    9000005    1    3    3    0    0 -0.25717168729E+02  0.54048524083E+02  0.33744921912E+02  0.68719251145E+02  0.10000000000E+01 0.  0.
<mgrwt>
<rscale>  0 0.12500147E+03</rscale>
<asrwt>0</asrwt>
<pdfrwt beam="2">  1        4 0.75510688E-02 0.12500147E+03</pdfrwt>
<pdfrwt beam="1">  1       -4 0.12244332E-01 0.12500147E+03</pdfrwt>
<totfact> 0.10372697E+04</totfact>
</mgrwt>
</event>
<event>
 5    1  0.3316199E-002  0.1250010E+03  0.7818608E-02  0.1235068E+00
          4   -1    0    0  501    0  0.00000000000E+00  0.00000000000E+00  0.92063868794E+02  0.92072628057E+02  0.12700000000E+01 0. -1.
         -4   -1    0    0    0  501 -0.00000000000E+00 -0.00000000000E+00 -0.42410147754E+02  0.42429158989E+02  0.12700000000E+01 0. -1.
         25    2    1    2    0    0  0.00000000000E+00  0.00000000000E+00  0.49653721040E+02  0.13450178705E+03  0.12500095482E+03 0.  0.
    9000005    1    3    3    0    0 -0.35274307030E+02  0.38365192737E+02 -0.12278112301E+02  0.53552934484E+02  0.10000000000E+01 0.  0.
    9000005    1    3    3    0    0  0.35274307030E+02 -0.38365192737E+02  0.61931833341E+02  0.80948852562E+02  0.10000000000E+01 0.  0.
<mgrwt>
<rscale>  0 0.12500095E+03</rscale>
<asrwt>0</asrwt>
<pdfrwt beam="1">  1        4 0.14165808E-01 0.12500095E+03</pdfrwt>
<pdfrwt beam="2">  1       -4 0.65267744E-02 0.12500095E+03</pdfrwt>
<totfact> 0.10248362E+04</totfact>
</mgrwt>
</event>
<event>
 5    1  0.3316199E-002  0.1250050E+03  0.7818608E-02  0.1235062E+00
         -4   -1    0    0    0  501 -0.00000000000E+00  0.00000000000E+00  0.10496406164E+03  0.10497174446E+03  0.12700000000E+01 0. -1.
          4   -1    0    0  501    0  0.00000000000E+00 -0.00000000000E+00 -0.37198197611E+02  0.37219871111E+02  0.12700000000E+01 0. -1.
         25    2    1    2    0    0  0.00000000000E+00  0.00000000000E+00  0.67765864025E+02  0.14219161557E+03  0.12500497275E+03 0.  0.
    9000005    1    3    3    0    0  0.13428168253E+02  0.31532589694E+02  0.93326223452E+02  0.99425368490E+02  0.10000000000E+01 0.  0.
    9000005    1    3    3    0    0 -0.13428168253E+02 -0.31532589694E+02 -0.25560359427E+02  0.42766247082E+02  0.10000000000E+01 0.  0.
<mgrwt>
<rscale>  0 0.12500497E+03</rscale>
<asrwt>0</asrwt>
<pdfrwt beam="2">  1        4 0.57250578E-02 0.12500497E+03</pdfrwt>
<pdfrwt beam="1">  1       -4 0.16150575E-01 0.12500497E+03</pdfrwt>
<totfact> 0.10087234E+04</totfact>
</mgrwt>
</event>
<event>
 5    1  0.3316199E-002  0.1250099E+03  0.7818608E-02  0.1235054E+00
          4   -1    0    0  501    0  0.00000000000E+00  0.00000000000E+00  0.73098890468E+01  0.74193920152E+01  0.12700000000E+01 0.  1.
         -4   -1    0    0    0  501 -0.00000000000E+00 -0.00000000000E+00 -0.53037999507E+03  0.53038151559E+03  0.12700000000E+01 0.  1.
         25    2    1    2    0    0  0.00000000000E+00  0.00000000000E+00 -0.52307010603E+03  0.53780090760E+03  0.12500992119E+03 0.  0.
    9000005    1    3    3    0    0  0.29485568938E+02 -0.41468883499E+02 -0.41764747341E+03  0.42073682882E+03  0.10000000000E+01 0.  0.
    9000005    1    3    3    0    0 -0.29485568938E+02  0.41468883499E+02 -0.10542263261E+03  0.11706407878E+03  0.10000000000E+01 0.  0.
<mgrwt>
<rscale>  0 0.12500992E+03</rscale>
<asrwt>0</asrwt>
<pdfrwt beam="1">  1        4 0.11331390E-02 0.12500992E+03</pdfrwt>
<pdfrwt beam="2">  1       -4 0.81605432E-01 0.12500992E+03</pdfrwt>
<totfact> 0.53034758E+03</totfact>
</mgrwt>
</event>
<event>
 5    1  0.3316199E-002  0.1249992E+03  0.7818608E-02  0.1235070E+00
          4   -1    0    0  501    0  0.00000000000E+00  0.00000000000E+00  0.15571647491E+02  0.15623351291E+02  0.12700000000E+01 0. -1.
         -4   -1    0    0    0  501 -0.00000000000E+00 -0.00000000000E+00 -0.25038436582E+03  0.25038758664E+03  0.12700000000E+01 0. -1.
         25    2    1    2    0    0  0.00000000000E+00  0.00000000000E+00 -0.23481271833E+03  0.26601093794E+03  0.12499922565E+03 0.  0.
    9000005    1    3    3    0    0  0.30404905899E+01 -0.95664715605E+01 -0.24866790696E+03  0.24887243703E+03  0.10000000000E+01 0.  0.
    9000005    1    3    3    0    0 -0.30404905899E+01  0.95664715605E+01  0.13855188635E+02  0.17138500905E+02  0.10000000000E+01 0.  0.
<mgrwt>
<rscale>  0 0.12499923E+03</rscale>
<asrwt>0</asrwt>
<pdfrwt beam="1">  1        4 0.23998632E-02 0.12499923E+03</pdfrwt>
<pdfrwt beam="2">  1       -4 0.38524894E-01 0.12499923E+03</pdfrwt>
<totfact> 0.80071223E+03</totfact>
</mgrwt>
</event>
<event>
 5    1  0.3316199E-002  0.1249996E+03  0.7818608E-02  0.1235070E+00
         -4   -1    0    0    0  501 -0.00000000000E+00  0.00000000000E+00  0.26522086174E+03  0.26522390239E+03  0.12700000000E+01 0. -1.
          4   -1    0    0  501    0  0.00000000000E+00 -0.00000000000E+00 -0.14697690701E+02  0.14752457827E+02  0.12700000000E+01 0. -1.
         25    2    1    2    0    0  0.00000000000E+00  0.00000000000E+00  0.25052317103E+03  0.27997636022E+03  0.12499961222E+03 0.  0.
    9000005    1    3    3    0    0  0.44864876224E+02 -0.42149486677E+02  0.10115991565E+03  0.11842197803E+03  0.10000000000E+01 0.  0.
    9000005    1    3    3    0    0 -0.44864876224E+02  0.42149486677E+02  0.14936325538E+03  0.16155438219E+03  0.10000000000E+01 0.  0.
<mgrwt>
<rscale>  0 0.12499961E+03</rscale>
<asrwt>0</asrwt>
<pdfrwt beam="2">  1        4 0.22656302E-02 0.12499961E+03</pdfrwt>
<pdfrwt beam="1">  1       -4 0.40807651E-01 0.12499961E+03</pdfrwt>
<totfact> 0.78181917E+03</totfact>
</mgrwt>
</event>
<event>
 5    1  0.3316199E-002  0.1249982E+03  0.7818608E-02  0.1235072E+00
          4   -1    0    0  501    0  0.00000000000E+00  0.00000000000E+00  0.54141360561E+02  0.54156253779E+02  0.12700000000E+01 0.  1.
         -4   -1    0    0    0  501 -0.00000000000E+00 -0.00000000000E+00 -0.72116622968E+02  0.72127804683E+02  0.12700000000E+01 0.  1.
         25    2    1    2    0    0  0.00000000000E+00  0.00000000000E+00 -0.17975262407E+02  0.12628405846E+03  0.12499821344E+03 0.  0.
    9000005    1    3    3    0    0  0.40612885651E+02  0.44262957204E+02 -0.26384598065E+02  0.65618312051E+02  0.10000000000E+01 0.  0.
    9000005    1    3    3    0    0 -0.40612885651E+02 -0.44262957204E+02  0.84093356577E+01  0.60665746411E+02  0.10000000000E+01 0.  0.
<mgrwt>
<rscale>  0 0.12499821E+03</rscale>
<asrwt>0</asrwt>
<pdfrwt beam="1">  1        4 0.83314459E-02 0.12499821E+03</pdfrwt>
<pdfrwt beam="2">  1       -4 0.11096871E-01 0.12499821E+03</pdfrwt>
<totfact> 0.10425162E+04</totfact>
</mgrwt>
</event>
<event>
 5    1  0.3316199E-002  0.1250000E+03  0.7818608E-02  0.1235069E+00
         -4   -1    0    0    0  501 -0.00000000000E+00  0.00000000000E+00  0.70719232457E+02  0.70730635084E+02  0.12700000000E+01 0.  1.
          4   -1    0    0  501    0  0.00000000000E+00 -0.00000000000E+00 -0.55212910846E+02  0.55227515100E+02  0.12700000000E+01 0.  1.
         25    2    1    2    0    0  0.00000000000E+00  0.00000000000E+00  0.15506321611E+02  0.12595815018E+03  0.12500003835E+03 0.  0.
    9000005    1    3    3    0    0  0.30181457579E+02 -0.47355044452E+02  0.35382879770E+02  0.66380485065E+02  0.10000000000E+01 0.  0.
    9000005    1    3    3    0    0 -0.30181457579E+02  0.47355044452E+02 -0.19876558159E+02  0.59577665118E+02  0.10000000000E+01 0.  0.
<mgrwt>
<rscale>  0 0.12500004E+03</rscale>
<asrwt>0</asrwt>
<pdfrwt beam="2">  1        4 0.84962945E-02 0.12500004E+03</pdfrwt>
<pdfrwt beam="1">  1       -4 0.10881883E-01 0.12500004E+03</pdfrwt>
<totfact> 0.10431865E+04</totfact>
</mgrwt>
</event>
<event>
 5    1  0.3316199E-002  0.1249969E+03  0.7818608E-02  0.1235074E+00
          4   -1    0    0  501    0  0.00000000000E+00  0.00000000000E+00  0.51968241014E+03  0.51968396195E+03  0.12700000000E+01 0.  1.
         -4   -1    0    0    0  501 -0.00000000000E+00 -0.00000000000E+00 -0.74610176447E+01  0.75683343144E+01  0.12700000000E+01 0.  1.
         25    2    1    2    0    0  0.00000000000E+00  0.00000000000E+00  0.51222139250E+03  0.52725229627E+03  0.12499691591E+03 0.  0.
    9000005    1    3    3    0    0 -0.56481357873E+02  0.28907092033E+01  0.36823321976E+03  0.37255228375E+03  0.10000000000E+01 0.  0.
    9000005    1    3    3    0    0  0.56481357873E+02 -0.28907092033E+01  0.14398817273E+03  0.15470001252E+03  0.10000000000E+01 0.  0.
<mgrwt>
<rscale>  0 0.12499692E+03</rscale>
<asrwt>0</asrwt>
<pdfrwt beam="1">  1        4 0.79959551E-01 0.12499692E+03</pdfrwt>
<pdfrwt beam="2">  1       -4 0.11562228E-02 0.12499692E+03</pdfrwt>
<totfact> 0.53813859E+03</totfact>
</mgrwt>
</event>
<event>
 5    1  0.3316199E-002  0.1249995E+03  0.7818608E-02  0.1235070E+00
          4   -1    0    0  501    0  0.00000000000E+00  0.00000000000E+00  0.85526970341E+03  0.85527064632E+03  0.12700000000E+01 0.  1.
         -4   -1    0    0    0  501 -0.00000000000E+00 -0.00000000000E+00 -0.44779850614E+01  0.46545945270E+01  0.12700000000E+01 0.  1.
         25    2    1    2    0    0  0.00000000000E+00  0.00000000000E+00  0.85079171834E+03  0.85992524085E+03  0.12499948740E+03 0.  0.
    9000005    1    3    3    0    0  0.50734245153E+01  0.30205736014E+02  0.50666294018E+02  0.59213169768E+02  0.10000000000E+01 0.  0.
    9000005    1    3    3    0    0 -0.50734245153E+01 -0.30205736014E+02  0.80012542433E+03  0.80071207108E+03  0.10000000000E+01 0.  0.
<mgrwt>
<rscale>  0 0.12499949E+03</rscale>
<asrwt>0</asrwt>
<pdfrwt beam="1">  1        4 0.13159359E+00 0.12499949E+03</pdfrwt>
<pdfrwt beam="2">  1       -4 0.70257875E-03 0.12499949E+03</pdfrwt>
<totfact> 0.35724985E+03</totfact>
</mgrwt>
</event>
<event>
 5    1  0.3316199E-002  0.1250005E+03  0.7818608E-02  0.1235069E+00
          4   -1    0    0  501    0  0.00000000000E+00  0.00000000000E+00  0.39374408742E+01  0.41371899446E+01  0.12700000000E+01 0. -1.
         -4   -1    0    0    0  501 -0.00000000000E+00 -0.00000000000E+00 -0.96734332511E+03  0.96734415879E+03  0.12700000000E+01 0. -1.
         25    2    1    2    0    0  0.00000000000E+00  0.00000000000E+00 -0.96340588424E+03  0.97148134873E+03  0.12500045259E+03 0.  0.
    9000005    1    3    3    0    0  0.13269299835E+02 -0.54820275421E+02 -0.69081283514E+03  0.69311233585E+03  0.10000000000E+01 0.  0.
    9000005    1    3    3    0    0 -0.13269299835E+02  0.54820275421E+02 -0.27259304910E+03  0.27836901288E+03  0.10000000000E+01 0.  0.
<mgrwt>
<rscale>  0 0.12500045E+03</rscale>
<asrwt>0</asrwt>
<pdfrwt beam="1">  1        4 0.62119035E-03 0.12500045E+03</pdfrwt>
<pdfrwt beam="2">  1       -4 0.14883729E+00 0.12500045E+03</pdfrwt>
<totfact> 0.31565096E+03</totfact>
</mgrwt>
</event>
<event>
 5    1  0.3316199E-002  0.1249922E+03  0.7818608E-02  0.1235081E+00
         -4   -1    0    0    0  501 -0.00000000000E+00  0.00000000000E+00  0.10335934558E+03  0.10336714767E+03  0.12700000000E+01 0.  1.
          4   -1    0    0  501    0  0.00000000000E+00 -0.00000000000E+00 -0.37768313755E+02  0.37789660277E+02  0.12700000000E+01 0.  1.
         25    2    1    2    0    0  0.00000000000E+00  0.00000000000E+00  0.65591031824E+02  0.14115680795E+03  0.12499224366E+03 0.  0.
    9000005    1    3    3    0    0 -0.72058665073E+01  0.33599503303E+02 -0.26145208552E+02  0.43190543694E+02  0.10000000000E+01 0.  0.
    9000005    1    3    3    0    0  0.72058665073E+01 -0.33599503303E+02  0.91736240376E+02  0.97966264258E+02  0.10000000000E+01 0.  0.
<mgrwt>
<rscale>  0 0.12499224E+03</rscale>
<asrwt>0</asrwt>
<pdfrwt beam="2">  1        4 0.58127521E-02 0.12499224E+03</pdfrwt>
<pdfrwt beam="1">  1       -4 0.15903680E-01 0.12499224E+03</pdfrwt>
<totfact> 0.10111433E+04</totfact>
</mgrwt>
</event>
<event>
 5    1  0.3316199E-002  0.1249877E+03  0.7818608E-02  0.1235088E+00
         -4   -1    0    0    0  501 -0.00000000000E+00  0.00000000000E+00  0.11038307488E+03  0.11039038056E+03  0.12700000000E+01 0.  1.
          4   -1    0    0  501    0  0.00000000000E+00 -0.00000000000E+00 -0.35361294794E+02  0.35384093454E+02  0.12700000000E+01 0.  1.
         25    2    1    2    0    0  0.00000000000E+00  0.00000000000E+00  0.75021780082E+02  0.14577447401E+03  0.12498771854E+03 0.  0.
    9000005    1    3    3    0    0  0.85115132758E-01  0.59274050090E+02  0.60575018864E+02  0.84757024305E+02  0.10000000000E+01 0.  0.
    9000005    1    3    3    0    0 -0.85115132758E-01 -0.59274050090E+02  0.14446761218E+02  0.61017449704E+02  0.10000000000E+01 0.  0.
<mgrwt>
<rscale>  0 0.12498772E+03</rscale>
<asrwt>0</asrwt>
<pdfrwt beam="2">  1        4 0.54425150E-02 0.12498772E+03</pdfrwt>
<pdfrwt beam="1">  1       -4 0.16984327E-01 0.12498772E+03</pdfrwt>
<totfact> 0.10018047E+04</totfact>
</mgrwt>
</event>
<event>
 5    1  0.3316199E-002  0.1250003E+03  0.7818608E-02  0.1235069E+00
          4   -1    0    0  501    0  0.00000000000E+00  0.00000000000E+00  0.28225573739E+03  0.28225859454E+03  0.12700000000E+01 0.  1.
         -4   -1    0    0    0  501 -0.00000000000E+00 -0.00000000000E+00 -0.13807396587E+02  0.13865680673E+02  0.12700000000E+01 0.  1.
         25    2    1    2    0    0  0.00000000000E+00  0.00000000000E+00  0.26844834080E+03  0.29612427521E+03  0.12500029875E+03 0.  0.
    9000005    1    3    3    0    0  0.48227036031E+01 -0.54048386458E+02  0.20765448970E+03  0.21462961968E+03  0.10000000000E+01 0.  0.
    9000005    1    3    3    0    0 -0.48227036031E+01  0.54048386458E+02  0.60793851099E+02  0.81494655532E+02  0.10000000000E+01 0.  0.
<mgrwt>
<rscale>  0 0.12500030E+03</rscale>
<asrwt>0</asrwt>
<pdfrwt beam="1">  1        4 0.43428661E-01 0.12500030E+03</pdfrwt>
<pdfrwt beam="2">  1       -4 0.21289181E-02 0.12500030E+03</pdfrwt>
<totfact> 0.76087084E+03</totfact>
</mgrwt>
</event>
<event>
 5    1  0.3316199E-002  0.1250003E+03  0.7818608E-02  0.1235069E+00
         -4   -1    0    0    0  501 -0.00000000000E+00  0.00000000000E+00  0.59369590449E+02  0.59383172449E+02  0.12700000000E+01 0.  1.
          4   -1    0    0  501    0  0.00000000000E+00 -0.00000000000E+00 -0.65768542998E+02  0.65780803796E+02  0.12700000000E+01 0.  1.
         25    2    1    2    0    0  0.00000000000E+00  0.00000000000E+00 -0.63989525488E+01  0.12516397625E+03  0.12500029742E+03 0.  0.
    9000005    1    3    3    0    0  0.61857990729E+02 -0.33516967821E+01  0.50346547149E+01  0.62161021842E+02  0.10000000000E+01 0.  0.
    9000005    1    3    3    0    0 -0.61857990729E+02  0.33516967821E+01 -0.11433607264E+02  0.63002954403E+02  0.10000000000E+01 0.  0.
<mgrwt>
<rscale>  0 0.12500030E+03</rscale>
<asrwt>0</asrwt>
<pdfrwt beam="2">  1        4 0.10120225E-01 0.12500030E+03</pdfrwt>
<pdfrwt beam="1">  1       -4 0.91357711E-02 0.12500030E+03</pdfrwt>
<totfact> 0.10449232E+04</totfact>
</mgrwt>
</event>
<event>
 5    1  0.3316199E-002  0.1250025E+03  0.7818608E-02  0.1235065E+00
          4   -1    0    0  501    0  0.00000000000E+00  0.00000000000E+00  0.12042779183E+02  0.12109559466E+02  0.12700000000E+01 0.  1.
         -4   -1    0    0    0  501 -0.00000000000E+00 -0.00000000000E+00 -0.32341262653E+03  0.32341512009E+03  0.12700000000E+01 0.  1.
         25    2    1    2    0    0  0.00000000000E+00  0.00000000000E+00 -0.31136984735E+03  0.33552467955E+03  0.12500251498E+03 0.  0.
    9000005    1    3    3    0    0  0.56295875591E+02 -0.52119380874E+01 -0.84213220834E+02  0.10143597227E+03  0.10000000000E+01 0.  0.
    9000005    1    3    3    0    0 -0.56295875591E+02  0.52119380874E+01 -0.22715662652E+03  0.23408870728E+03  0.10000000000E+01 0.  0.
<mgrwt>
<rscale>  0 0.12500251E+03</rscale>
<asrwt>0</asrwt>
<pdfrwt beam="1">  1        4 0.18580643E-02 0.12500251E+03</pdfrwt>
<pdfrwt beam="2">  1       -4 0.49761111E-01 0.12500251E+03</pdfrwt>
<totfact> 0.71342964E+03</totfact>
</mgrwt>
</event>
<event>
 5    1  0.3316199E-002  0.1249973E+03  0.7818608E-02  0.1235073E+00
         -4   -1    0    0    0  501 -0.00000000000E+00  0.00000000000E+00  0.69553155254E+01  0.70703121612E+01  0.12700000000E+01 0. -1.
          4   -1    0    0  501    0  0.00000000000E+00 -0.00000000000E+00 -0.55687664623E+03  0.55687809439E+03  0.12700000000E+01 0. -1.
         25    2    1    2    0    0  0.00000000000E+00  0.00000000000E+00 -0.54992133070E+03  0.56394840655E+03  0.12499734114E+03 0.  0.
    9000005    1    3    3    0    0 -0.93569087857E-01  0.62436335774E+02 -0.26321377819E+03  0.27051949617E+03  0.10000000000E+01 0.  0.
    9000005    1    3    3    0    0  0.93569087857E-01 -0.62436335774E+02 -0.28670755252E+03  0.29342891039E+03  0.10000000000E+01 0.  0.
<mgrwt>
<rscale>  0 0.12499734E+03</rscale>
<asrwt>0</asrwt>
<pdfrwt beam="2">  1        4 0.85682253E-01 0.12499734E+03</pdfrwt>
<pdfrwt beam="1">  1       -4 0.10790063E-02 0.12499734E+03</pdfrwt>
<totfact> 0.51228350E+03</totfact>
</mgrwt>
</event>
<event>
 5    1  0.3316199E-002  0.1249980E+03  0.7818608E-02  0.1235072E+00
          4   -1    0    0  501    0  0.00000000000E+00  0.00000000000E+00  0.51807447515E+02  0.51823011472E+02  0.12700000000E+01 0. -1.
         -4   -1    0    0    0  501 -0.00000000000E+00 -0.00000000000E+00 -0.75364773439E+02  0.75375473302E+02  0.12700000000E+01 0. -1.
         25    2    1    2    0    0  0.00000000000E+00  0.00000000000E+00 -0.23557325924E+02  0.12719848477E+03  0.12499802768E+03 0.  0.
    9000005    1    3    3    0    0 -0.36832661685E+02  0.49059933947E+02 -0.23887920831E+02  0.65841892799E+02  0.10000000000E+01 0.  0.
    9000005    1    3    3    0    0  0.36832661685E+02 -0.49059933947E+02  0.33059490755E+00  0.61356591975E+02  0.10000000000E+01 0.  0.
<mgrwt>
<rscale>  0 0.12499803E+03</rscale>
<asrwt>0</asrwt>
<pdfrwt beam="1">  1        4 0.79723969E-02 0.12499803E+03</pdfrwt>
<pdfrwt beam="2">  1       -4 0.11596601E-01 0.12499803E+03</pdfrwt>
<totfact> 0.10405300E+04</totfact>
</mgrwt>
</event>
<event>
 5    1  0.3316199E-002  0.1250006E+03  0.7818608E-02  0.1235068E+00
         -4   -1    0    0    0  501 -0.00000000000E+00  0.00000000000E+00  0.45885532407E+03  0.45885708160E+03  0.12700000000E+01 0.  1.
          4   -1    0    0  501    0  0.00000000000E+00 -0.00000000000E+00 -0.84639586786E+01  0.85587088111E+01  0.12700000000E+01 0.  1.
         25    2    1    2    0    0  0.00000000000E+00  0.00000000000E+00  0.45039136539E+03  0.46741579041E+03  0.12500055640E+03 0.  0.
    9000005    1    3    3    0    0 -0.40292030045E+02 -0.44650591275E+02  0.16171967134E+03  0.17254383525E+03  0.10000000000E+01 0.  0.
    9000005    1    3    3    0    0  0.40292030045E+02  0.44650591275E+02  0.28867169406E+03  0.29487195516E+03  0.10000000000E+01 0.  0.
<mgrwt>
<rscale>  0 0.12500056E+03</rscale>
<asrwt>0</asrwt>
<pdfrwt beam="2">  1        4 0.13095716E-02 0.12500056E+03</pdfrwt>
<pdfrwt beam="1">  1       -4 0.70600526E-01 0.12500056E+03</pdfrwt>
<totfact> 0.58483502E+03</totfact>
</mgrwt>
</event>
<event>
 5    1  0.3316199E-002  0.1249998E+03  0.7818608E-02  0.1235070E+00
         -4   -1    0    0    0  501 -0.00000000000E+00  0.00000000000E+00  0.27939805927E+02  0.27968654870E+02  0.12700000000E+01 0.  1.
          4   -1    0    0  501    0  0.00000000000E+00 -0.00000000000E+00 -0.13970513238E+03  0.13971090477E+03  0.12700000000E+01 0.  1.
         25    2    1    2    0    0  0.00000000000E+00  0.00000000000E+00 -0.11176532645E+03  0.16767955964E+03  0.12499978610E+03 0.  0.
    9000005    1    3    3    0    0  0.17489612862E+01  0.55059926295E+02 -0.95462661144E+02  0.11022147714E+03  0.10000000000E+01 0.  0.
    9000005    1    3    3    0    0 -0.17489612862E+01 -0.55059926295E+02 -0.16302665304E+02  0.57458082506E+02  0.10000000000E+01 0.  0.
<mgrwt>
<rscale>  0 0.12499979E+03</rscale>
<asrwt>0</asrwt>
<pdfrwt beam="2">  1        4 0.21495760E-01 0.12499979E+03</pdfrwt>
<pdfrwt beam="1">  1       -4 0.43010949E-02 0.12499979E+03</pdfrwt>
<totfact> 0.95882780E+03</totfact>
</mgrwt>
</event>
<event>
 5    1  0.3316199E-002  0.1249868E+03  0.7818608E-02  0.1235090E+00
         -4   -1    0    0    0  501 -0.00000000000E+00  0.00000000000E+00  0.82146509480E+01  0.83122433914E+01  0.12700000000E+01 0.  1.
          4   -1    0    0  501    0  0.00000000000E+00 -0.00000000000E+00 -0.47251585051E+03  0.47251755722E+03  0.12700000000E+01 0.  1.
         25    2    1    2    0    0  0.00000000000E+00  0.00000000000E+00 -0.46430119956E+03  0.48082980061E+03  0.12498677227E+03 0.  0.
    9000005    1    3    3    0    0  0.43861792993E+01 -0.45313831699E+02 -0.67496989253E+02  0.81421283891E+02  0.10000000000E+01 0.  0.
    9000005    1    3    3    0    0 -0.43861792993E+01  0.45313831699E+02 -0.39680421031E+03  0.39940851672E+03  0.10000000000E+01 0.  0.
<mgrwt>
<rscale>  0 0.12498677E+03</rscale>
<asrwt>0</asrwt>
<pdfrwt beam="2">  1        4 0.72702364E-01 0.12498677E+03</pdfrwt>
<pdfrwt beam="1">  1       -4 0.12714312E-02 0.12498677E+03</pdfrwt>
<totfact> 0.57399745E+03</totfact>
</mgrwt>
</event>
<event>
 5    1  0.3316199E-002  0.1249975E+03  0.7818608E-02  0.1235073E+00
          4   -1    0    0  501    0  0.00000000000E+00  0.00000000000E+00  0.89749640286E+02  0.89758625387E+02  0.12700000000E+01 0.  1.
         -4   -1    0    0    0  501 -0.00000000000E+00 -0.00000000000E+00 -0.43501646588E+02  0.43520181019E+02  0.12700000000E+01 0.  1.
         25    2    1    2    0    0  0.00000000000E+00  0.00000000000E+00  0.46247993697E+02  0.13327880641E+03  0.12499745324E+03 0.  0.
    9000005    1    3    3    0    0  0.31101327402E+02  0.84436232052E+01 -0.33962864703E+02  0.46830156073E+02  0.10000000000E+01 0.  0.
    9000005    1    3    3    0    0 -0.31101327402E+02 -0.84436232052E+01  0.80210858400E+02  0.86448650333E+02  0.10000000000E+01 0.  0.
<mgrwt>
<rscale>  0 0.12499745E+03</rscale>
<asrwt>0</asrwt>
<pdfrwt beam="1">  1        4 0.13809754E-01 0.12499745E+03</pdfrwt>
<pdfrwt beam="2">  1       -4 0.66946779E-02 0.12499745E+03</pdfrwt>
<totfact> 0.10275068E+04</totfact>
</mgrwt>
</event>
<event>
 4    1  0.3316199E-002  0.1249131E+03  0.7818608E-02  0.1235205E+00
          4   -1    0    0  501    0  0.00000000000E+00  0.00000000000E+00  0.67285317470E+02  0.67297301930E+02  0.12700000000E+01 0.  1.
         -4   -1    0    0    0  501 -0.00000000000E+00 -0.00000000000E+00 -0.57950259017E+02  0.57964173592E+02  0.12700000000E+01 0.  1.
    9000005    1    1    2    0    0 -0.54228714126E+02 -0.25320556968E+01  0.35618769504E+02  0.64937365844E+02  0.10000000000E+01 0.  0.
    9000005    1    1    2    0    0  0.54228714126E+02  0.25320556968E+01 -0.26283711051E+02  0.60324109677E+02  0.10000000000E+01 0.  0.
<mgrwt>
<rscale>  0 0.12491315E+03</rscale>
<asrwt>0</asrwt>
<pdfrwt beam="1">  1        4 0.10353579E-01 0.12491315E+03</pdfrwt>
<pdfrwt beam="2">  1       -4 0.89174167E-02 0.12491315E+03</pdfrwt>
<totfact> 0.10467719E+04</totfact>
</mgrwt>
</event>
<event>
 5    1  0.3316199E-002  0.1250025E+03  0.7818608E-02  0.1235065E+00
         -4   -1    0    0    0  501 -0.00000000000E+00  0.00000000000E+00  0.45405668795E+01  0.47148327210E+01  0.12700000000E+01 0.  1.
          4   -1    0    0  501    0  0.00000000000E+00 -0.00000000000E+00 -0.84396062327E+03  0.84396157882E+03  0.12700000000E+01 0.  1.
         25    2    1    2    0    0  0.00000000000E+00  0.00000000000E+00 -0.83942005639E+03  0.84867641154E+03  0.12500248174E+03 0.  0.
    9000005    1    3    3    0    0 -0.35287932163E+02  0.16678891343E+02 -0.88355666631E+02  0.96597864358E+02  0.10000000000E+01 0.  0.
    9000005    1    3    3    0    0  0.35287932163E+02 -0.16678891343E+02 -0.75106438975E+03  0.75207854718E+03  0.10000000000E+01 0.  0.
<mgrwt>
<rscale>  0 0.12500248E+03</rscale>
<asrwt>0</asrwt>
<pdfrwt beam="2">  1        4 0.12985345E+00 0.12500248E+03</pdfrwt>
<pdfrwt beam="1">  1       -4 0.71202799E-03 0.12500248E+03</pdfrwt>
<totfact> 0.36179617E+03</totfact>
</mgrwt>
</event>
<event>
 5    1  0.3316199E-002  0.1249989E+03  0.7818608E-02  0.1235071E+00
          4   -1    0    0  501    0  0.00000000000E+00  0.00000000000E+00  0.85645707851E+02  0.85655123450E+02  0.12700000000E+01 0. -1.
         -4   -1    0    0    0  501 -0.00000000000E+00 -0.00000000000E+00 -0.45587846699E+02  0.45605533290E+02  0.12700000000E+01 0. -1.
         25    2    1    2    0    0  0.00000000000E+00  0.00000000000E+00  0.40057861152E+02  0.13126065674E+03  0.12499891107E+03 0.  0.
    9000005    1    3    3    0    0  0.34703693132E+02 -0.39146885173E+02  0.55922456861E+02  0.76584241964E+02  0.10000000000E+01 0.  0.
    9000005    1    3    3    0    0 -0.34703693132E+02  0.39146885173E+02 -0.15864595709E+02  0.54676414776E+02  0.10000000000E+01 0.  0.
<mgrwt>
<rscale>  0 0.12499891E+03</rscale>
<asrwt>0</asrwt>
<pdfrwt beam="1">  1        4 0.13178348E-01 0.12499891E+03</pdfrwt>
<pdfrwt beam="2">  1       -4 0.70155996E-02 0.12499891E+03</pdfrwt>
<totfact> 0.10317758E+04</totfact>
</mgrwt>
</event>
<event>
 5    1  0.3316199E-002  0.1249984E+03  0.7818608E-02  0.1235072E+00
          4   -1    0    0  501    0  0.00000000000E+00  0.00000000000E+00  0.27446010078E+02  0.27475377508E+02  0.12700000000E+01 0.  1.
         -4   -1    0    0    0  501 -0.00000000000E+00 -0.00000000000E+00 -0.14221284689E+03  0.14221851751E+03  0.12700000000E+01 0.  1.
         25    2    1    2    0    0  0.00000000000E+00  0.00000000000E+00 -0.11476683682E+03  0.16969389502E+03  0.12499836468E+03 0.  0.
    9000005    1    3    3    0    0  0.16969051899E+01 -0.55422443236E+02 -0.96509230456E+02  0.11130839261E+03  0.10000000000E+01 0.  0.
    9000005    1    3    3    0    0 -0.16969051899E+01  0.55422443236E+02 -0.18257606361E+02  0.58385502408E+02  0.10000000000E+01 0.  0.
<mgrwt>
<rscale>  0 0.12499836E+03</rscale>
<asrwt>0</asrwt>
<pdfrwt beam="1">  1        4 0.42251584E-02 0.12499836E+03</pdfrwt>
<pdfrwt beam="2">  1       -4 0.21881594E-01 0.12499836E+03</pdfrwt>
<totfact> 0.95509227E+03</totfact>
</mgrwt>
</event>
<event>
 5    1  0.3316199E-002  0.1250007E+03  0.7818608E-02  0.1235068E+00
         -4   -1    0    0    0  501 -0.00000000000E+00  0.00000000000E+00  0.31431388343E+03  0.31431644917E+03  0.12700000000E+01 0. -1.
          4   -1    0    0  501    0  0.00000000000E+00 -0.00000000000E+00 -0.12392929240E+02  0.12457832683E+02  0.12700000000E+01 0. -1.
         25    2    1    2    0    0  0.00000000000E+00  0.00000000000E+00  0.30192095419E+03  0.32677428185E+03  0.12500067480E+03 0.  0.
    9000005    1    3    3    0    0  0.30881681977E+01  0.84526229219E+01 -0.10703021811E+02  0.14019211567E+02  0.10000000000E+01 0.  0.
    9000005    1    3    3    0    0 -0.30881681977E+01 -0.84526229219E+01  0.31262397600E+03  0.31275507029E+03  0.10000000000E+01 0.  0.
<mgrwt>
<rscale>  0 0.12500067E+03</rscale>
<asrwt>0</asrwt>
<pdfrwt beam="2">  1        4 0.19117945E-02 0.12500067E+03</pdfrwt>
<pdfrwt beam="1">  1       -4 0.48361170E-01 0.12500067E+03</pdfrwt>
<totfact> 0.72356511E+03</totfact>
</mgrwt>
</event>
<event>
 5    1  0.3316199E-002  0.1250008E+03  0.7818608E-02  0.1235068E+00
         -4   -1    0    0    0  501 -0.00000000000E+00  0.00000000000E+00  0.15153787401E+03  0.15154319568E+03  0.12700000000E+01 0.  1.
          4   -1    0    0  501    0  0.00000000000E+00 -0.00000000000E+00 -0.25756308730E+02  0.25787600497E+02  0.12700000000E+01 0.  1.
         25    2    1    2    0    0  0.00000000000E+00  0.00000000000E+00  0.12578156528E+03  0.17733079618E+03  0.12500083644E+03 0.  0.
    9000005    1    3    3    0    0 -0.39134328750E+02  0.71646469420E+01 -0.54762475717E+01  0.40172342974E+02  0.10000000000E+01 0.  0.
    9000005    1    3    3    0    0  0.39134328750E+02 -0.71646469420E+01  0.13125781285E+03  0.13715845321E+03  0.10000000000E+01 0.  0.
<mgrwt>
<rscale>  0 0.12500084E+03</rscale>
<asrwt>0</asrwt>
<pdfrwt beam="2">  1        4 0.39653255E-02 0.12500084E+03</pdfrwt>
<pdfrwt beam="1">  1       -4 0.23316335E-01 0.12500084E+03</pdfrwt>
<totfact> 0.94097922E+03</totfact>
</mgrwt>
</event>
<event>
 5    1  0.3316199E-002  0.1249988E+03  0.7818608E-02  0.1235071E+00
          4   -1    0    0  501    0  0.00000000000E+00  0.00000000000E+00  0.30101615090E+02  0.30128394099E+02  0.12700000000E+01 0. -1.
         -4   -1    0    0    0  501 -0.00000000000E+00 -0.00000000000E+00 -0.12967877466E+03  0.12968499334E+03  0.12700000000E+01 0. -1.
         25    2    1    2    0    0  0.00000000000E+00  0.00000000000E+00 -0.99577159574E+02  0.15981338744E+03  0.12499883238E+03 0.  0.
    9000005    1    3    3    0    0 -0.26335831041E+02  0.45654074814E+02 -0.92715348905E+02  0.10665367535E+03  0.10000000000E+01 0.  0.
    9000005    1    3    3    0    0  0.26335831041E+02 -0.45654074814E+02 -0.68618106687E+01  0.53159712089E+02  0.10000000000E+01 0.  0.
<mgrwt>
<rscale>  0 0.12499883E+03</rscale>
<asrwt>0</asrwt>
<pdfrwt beam="1">  1        4 0.46335560E-02 0.12499883E+03</pdfrwt>
<pdfrwt beam="2">  1       -4 0.19953119E-01 0.12499883E+03</pdfrwt>
<totfact> 0.97381330E+03</totfact>
</mgrwt>
</event>
<event>
 5    1  0.3316199E-002  0.1250015E+03  0.7818608E-02  0.1235067E+00
          4   -1    0    0  501    0  0.00000000000E+00  0.00000000000E+00  0.42703078536E+02  0.42721959417E+02  0.12700000000E+01 0. -1.
         -4   -1    0    0    0  501 -0.00000000000E+00 -0.00000000000E+00 -0.91433407539E+02  0.91442227194E+02  0.12700000000E+01 0. -1.
         25    2    1    2    0    0  0.00000000000E+00  0.00000000000E+00 -0.48730329003E+02  0.13416418661E+03  0.12500153601E+03 0.  0.
    9000005    1    3    3    0    0  0.50878356359E+02 -0.61818542250E+01 -0.62742570414E+02  0.81021309602E+02  0.10000000000E+01 0.  0.
    9000005    1    3    3    0    0 -0.50878356359E+02  0.61818542250E+01  0.14012241411E+02  0.53142877009E+02  0.10000000000E+01 0.  0.
<mgrwt>
<rscale>  0 0.12500154E+03</rscale>
<asrwt>0</asrwt>
<pdfrwt beam="1">  1        4 0.65718352E-02 0.12500154E+03</pdfrwt>
<pdfrwt beam="2">  1       -4 0.14068809E-01 0.12500154E+03</pdfrwt>
<totfact> 0.10255363E+04</totfact>
</mgrwt>
</event>
<event>
 5    1  0.3316199E-002  0.1249990E+03  0.7818608E-02  0.1235071E+00
         -4   -1    0    0    0  501 -0.00000000000E+00  0.00000000000E+00  0.12068376995E+04  0.12068383677E+04  0.12700000000E+01 0. -1.
          4   -1    0    0  501    0  0.00000000000E+00 -0.00000000000E+00 -0.31114392260E+01  0.33606478627E+01  0.12700000000E+01 0. -1.
         25    2    1    2    0    0  0.00000000000E+00  0.00000000000E+00  0.12037262602E+04  0.12101990156E+04  0.12499899071E+03 0.  0.
    9000005    1    3    3    0    0  0.20430856046E+02  0.58587907447E+02  0.52991578454E+03  0.53353697293E+03  0.10000000000E+01 0.  0.
    9000005    1    3    3    0    0 -0.20430856046E+02 -0.58587907447E+02  0.67381047571E+03  0.67666204264E+03  0.10000000000E+01 0.  0.
<mgrwt>
<rscale>  0 0.12499899E+03</rscale>
<asrwt>0</asrwt>
<pdfrwt beam="2">  1        4 0.49790435E-03 0.12499899E+03</pdfrwt>
<pdfrwt beam="1">  1       -4 0.18568652E+00 0.12499899E+03</pdfrwt>
<totfact> 0.24447886E+03</totfact>
</mgrwt>
</event>
<event>
 5    1  0.3316199E-002  0.1249982E+03  0.7818608E-02  0.1235072E+00
         -4   -1    0    0    0  501 -0.00000000000E+00  0.00000000000E+00  0.15870092985E+03  0.15870601134E+03  0.12700000000E+01 0. -1.
          4   -1    0    0  501    0  0.00000000000E+00 -0.00000000000E+00 -0.24591317913E+02  0.24624090170E+02  0.12700000000E+01 0. -1.
         25    2    1    2    0    0  0.00000000000E+00  0.00000000000E+00  0.13410961194E+03  0.18333010151E+03  0.12499815241E+03 0.  0.
    9000005    1    3    3    0    0  0.20137002756E+02  0.25641122276E+02 -0.11135893040E+02  0.34467000818E+02  0.10000000000E+01 0.  0.
    9000005    1    3    3    0    0 -0.20137002756E+02 -0.25641122276E+02  0.14524550498E+03  0.14886310069E+03  0.10000000000E+01 0.  0.
<mgrwt>
<rscale>  0 0.12499815E+03</rscale>
<asrwt>0</asrwt>
<pdfrwt beam="2">  1        4 0.37861913E-02 0.12499815E+03</pdfrwt>
<pdfrwt beam="1">  1       -4 0.24418441E-01 0.12499815E+03</pdfrwt>
<totfact> 0.93024836E+03</totfact>
</mgrwt>
</event>
<event>
 5    1  0.3316199E-002  0.1250004E+03  0.7818608E-02  0.1235069E+00
          4   -1    0    0  501    0  0.00000000000E+00  0.00000000000E+00  0.25454410510E+01  0.28446739961E+01  0.12700000000E+01 0.  1.
         -4   -1    0    0    0  501 -0.00000000000E+00 -0.00000000000E+00 -0.14491224053E+04  0.14491229618E+04  0.12700000000E+01 0.  1.
         25    2    1    2    0    0  0.00000000000E+00  0.00000000000E+00 -0.14465769643E+04  0.14519676358E+04  0.12500040772E+03 0.  0.
    9000005    1    3    3    0    0  0.21851658778E+02 -0.15721025315E+02 -0.68196819716E+02  0.73324292343E+02  0.10000000000E+01 0.  0.
    9000005    1    3    3    0    0 -0.21851658778E+02  0.15721025315E+02 -0.13783801446E+04  0.13786433435E+04  0.10000000000E+01 0.  0.
<mgrwt>
<rscale>  0 0.12500041E+03</rscale>
<asrwt>0</asrwt>
<pdfrwt beam="1">  1        4 0.41466820E-03 0.12500041E+03</pdfrwt>
<pdfrwt beam="2">  1       -4 0.22296435E+00 0.12500041E+03</pdfrwt>
<totfact> 0.18892381E+03</totfact>
</mgrwt>
</event>
<event>
 5    1  0.3316199E-002  0.1250570E+03  0.7818608E-02  0.1234980E+00
          4   -1    0    0  501    0  0.00000000000E+00  0.00000000000E+00  0.80750963125E+02  0.80760949386E+02  0.12700000000E+01 0.  1.
         -4   -1    0    0    0  501 -0.00000000000E+00 -0.00000000000E+00 -0.48396816220E+02  0.48413476638E+02  0.12700000000E+01 0.  1.
         25    2    1    2    0    0  0.00000000000E+00  0.00000000000E+00  0.32354146906E+02  0.12917442602E+03  0.12505695309E+03 0.  0.
    9000005    1    3    3    0    0  0.58789802827E+02  0.28405714050E+01 -0.56002690341E+01  0.59132670966E+02  0.10000000000E+01 0.  0.
    9000005    1    3    3    0    0 -0.58789802827E+02 -0.28405714050E+01  0.37954415940E+02  0.70041755058E+02  0.10000000000E+01 0.  0.
<mgrwt>
<rscale>  0 0.12505695E+03</rscale>
<asrwt>0</asrwt>
<pdfrwt beam="1">  1        4 0.12425275E-01 0.12505695E+03</pdfrwt>
<pdfrwt beam="2">  1       -4 0.74477138E-02 0.12505695E+03</pdfrwt>
<totfact> 0.10348889E+04</totfact>
</mgrwt>
</event>
<event>
 5    1  0.3316199E-002  0.1249993E+03  0.7818608E-02  0.1235070E+00
         -4   -1    0    0    0  501 -0.00000000000E+00  0.00000000000E+00  0.17917490389E+03  0.17917940474E+03  0.12700000000E+01 0. -1.
          4   -1    0    0  501    0  0.00000000000E+00 -0.00000000000E+00 -0.21777795768E+02  0.21814795175E+02  0.12700000000E+01 0. -1.
         25    2    1    2    0    0  0.00000000000E+00  0.00000000000E+00  0.15739710812E+03  0.20099419992E+03  0.12499927502E+03 0.  0.
    9000005    1    3    3    0    0  0.57619738419E+02  0.65250828632E+01  0.11615386573E+03  0.12982808435E+03  0.10000000000E+01 0.  0.
    9000005    1    3    3    0    0 -0.57619738419E+02 -0.65250828632E+01  0.41243242385E+02  0.71166115562E+02  0.10000000000E+01 0.  0.
<mgrwt>
<rscale>  0 0.12499928E+03</rscale>
<asrwt>0</asrwt>
<pdfrwt beam="2">  1        4 0.33536224E-02 0.12499928E+03</pdfrwt>
<pdfrwt beam="1">  1       -4 0.27568563E-01 0.12499928E+03</pdfrwt>
<totfact> 0.89969555E+03</totfact>
</mgrwt>
</event>
<event>
 5    1  0.3316199E-002  0.1249992E+03  0.7818608E-02  0.1235071E+00
         -4   -1    0    0    0  501 -0.00000000000E+00  0.00000000000E+00  0.76479629629E+02  0.76490173540E+02  0.12700000000E+01 0. -1.
          4   -1    0    0  501    0  0.00000000000E+00 -0.00000000000E+00 -0.51053046587E+02  0.51068840459E+02  0.12700000000E+01 0. -1.
         25    2    1    2    0    0  0.00000000000E+00  0.00000000000E+00  0.25426583042E+02  0.12755901400E+03  0.12499916371E+03 0.  0.
    9000005    1    3    3    0    0 -0.24558193461E+02 -0.55311460028E+02  0.28612315906E+02  0.66948690040E+02  0.10000000000E+01 0.  0.
    9000005    1    3    3    0    0  0.24558193461E+02  0.55311460028E+02 -0.31857328644E+01  0.60610323959E+02  0.10000000000E+01 0.  0.
<mgrwt>
<rscale>  0 0.12499916E+03</rscale>
<asrwt>0</asrwt>
<pdfrwt beam="2">  1        4 0.78563409E-02 0.12499916E+03</pdfrwt>
<pdfrwt beam="1">  1       -4 0.11768123E-01 0.12499916E+03</pdfrwt>
<totfact> 0.10397219E+04</totfact>
</mgrwt>
</event>
<event>
 5    1  0.3316199E-002  0.1250048E+03  0.7818608E-02  0.1235062E+00
          4   -1    0    0  501    0  0.00000000000E+00  0.00000000000E+00  0.69090002551E+03  0.69090119276E+03  0.12700000000E+01 0. -1.
         -4   -1    0    0    0  501 -0.00000000000E+00 -0.00000000000E+00 -0.55817901889E+01  0.57244459743E+01  0.12700000000E+01 0. -1.
         25    2    1    2    0    0  0.00000000000E+00  0.00000000000E+00  0.68531823533E+03  0.69662563873E+03  0.12500478739E+03 0.  0.
    9000005    1    3    3    0    0  0.10142966627E+02 -0.31146032992E+02  0.63925490592E+03  0.64009436015E+03  0.10000000000E+01 0.  0.
    9000005    1    3    3    0    0 -0.10142966627E+02  0.31146032992E+02  0.46063329403E+02  0.56531278588E+02  0.10000000000E+01 0.  0.
<mgrwt>
<rscale>  0 0.12500479E+03</rscale>
<asrwt>0</asrwt>
<pdfrwt beam="1">  1        4 0.10630340E+00 0.12500479E+03</pdfrwt>
<pdfrwt beam="2">  1       -4 0.86980003E-03 0.12500479E+03</pdfrwt>
<totfact> 0.43260873E+03</totfact>
</mgrwt>
</event>
<event>
 5    1  0.3316199E-002  0.1250024E+03  0.7818608E-02  0.1235066E+00
          4   -1    0    0  501    0  0.00000000000E+00  0.00000000000E+00  0.19984839253E+02  0.20025151684E+02  0.12700000000E+01 0.  1.
         -4   -1    0    0    0  501 -0.00000000000E+00 -0.00000000000E+00 -0.19522880942E+03  0.19523294017E+03  0.12700000000E+01 0.  1.
         25    2    1    2    0    0  0.00000000000E+00  0.00000000000E+00 -0.17524397017E+03  0.21525809186E+03  0.12500238809E+03 0.  0.
    9000005    1    3    3    0    0  0.38579163585E+02 -0.39209629763E+02 -0.36548357618E+02  0.66049446429E+02  0.10000000000E+01 0.  0.
    9000005    1    3    3    0    0 -0.38579163585E+02  0.39209629763E+02 -0.13869561255E+03  0.14920864543E+03  0.10000000000E+01 0.  0.
<mgrwt>
<rscale>  0 0.12500239E+03</rscale>
<asrwt>0</asrwt>
<pdfrwt beam="1">  1        4 0.30780095E-02 0.12500239E+03</pdfrwt>
<pdfrwt beam="2">  1       -4 0.30038619E-01 0.12500239E+03</pdfrwt>
<totfact> 0.87619626E+03</totfact>
</mgrwt>
</event>
<event>
 5    1  0.3316199E-002  0.1249997E+03  0.7818608E-02  0.1235070E+00
         -4   -1    0    0    0  501 -0.00000000000E+00  0.00000000000E+00  0.84346827931E+02  0.84356388508E+02  0.12700000000E+01 0. -1.
          4   -1    0    0  501    0  0.00000000000E+00 -0.00000000000E+00 -0.46290606839E+02  0.46308025022E+02  0.12700000000E+01 0. -1.
         25    2    1    2    0    0  0.00000000000E+00  0.00000000000E+00  0.38056221093E+02  0.13066441353E+03  0.12499965200E+03 0.  0.
    9000005    1    3    3    0    0  0.37892237432E+02  0.37270192909E+02  0.53386168636E+02  0.75339046574E+02  0.10000000000E+01 0.  0.
    9000005    1    3    3    0    0 -0.37892237432E+02 -0.37270192909E+02 -0.15329947543E+02  0.55325366956E+02  0.10000000000E+01 0.  0.
<mgrwt>
<rscale>  0 0.12499965E+03</rscale>
<asrwt>0</asrwt>
<pdfrwt beam="2">  1        4 0.71237072E-02 0.12499965E+03</pdfrwt>
<pdfrwt beam="1">  1       -4 0.12978510E-01 0.12499965E+03</pdfrwt>
<totfact> 0.10330370E+04</totfact>
</mgrwt>
</event>
<event>
 4    1  0.3316199E-002  0.1249201E+03  0.7818608E-02  0.1235194E+00
         -4   -1    0    0    0  501 -0.00000000000E+00  0.00000000000E+00  0.15774699671E+03  0.15775210893E+03  0.12700000000E+01 0. -1.
          4   -1    0    0  501    0  0.00000000000E+00 -0.00000000000E+00 -0.24709285293E+02  0.24741901295E+02  0.12700000000E+01 0. -1.
    9000005    1    1    2    0    0 -0.56587819198E+02 -0.25280278782E+02  0.55299099865E+02  0.83067829048E+02  0.10000000000E+01 0.  0.
    9000005    1    1    2    0    0  0.56587819198E+02  0.25280278782E+02  0.77738611554E+02  0.99426181176E+02  0.10000000000E+01 0.  0.
<mgrwt>
<rscale>  0 0.12492010E+03</rscale>
<asrwt>0</asrwt>
<pdfrwt beam="2">  1        4 0.38043308E-02 0.12492010E+03</pdfrwt>
<pdfrwt beam="1">  1       -4 0.24271670E-01 0.12492010E+03</pdfrwt>
<totfact> 0.93337063E+03</totfact>
</mgrwt>
</event>
<event>
 5    1  0.3316199E-002  0.1249959E+03  0.7818608E-02  0.1235076E+00
          4   -1    0    0  501    0  0.00000000000E+00  0.00000000000E+00  0.15186370617E+04  0.15186375927E+04  0.12700000000E+01 0. -1.
         -4   -1    0    0    0  501 -0.00000000000E+00 -0.00000000000E+00 -0.24147016229E+01  0.27283115525E+01  0.12700000000E+01 0. -1.
         25    2    1    2    0    0  0.00000000000E+00  0.00000000000E+00  0.15162223601E+04  0.15213659043E+04  0.12499587806E+03 0.  0.
    9000005    1    3    3    0    0  0.99450017006E+01  0.30925010600E+02  0.14078518866E+04  0.14082269682E+04  0.10000000000E+01 0.  0.
    9000005    1    3    3    0    0 -0.99450017006E+01 -0.30925010600E+02  0.10837047349E+03  0.11313893611E+03  0.10000000000E+01 0.  0.
<mgrwt>
<rscale>  0 0.12499588E+03</rscale>
<asrwt>0</asrwt>
<pdfrwt beam="1">  1        4 0.23366118E+00 0.12499588E+03</pdfrwt>
<pdfrwt beam="2">  1       -4 0.39565632E-03 0.12499588E+03</pdfrwt>
<totfact> 0.17515712E+03</totfact>
</mgrwt>
</event>
<event>
 5    1  0.3316199E-002  0.1250011E+03  0.7818608E-02  0.1235068E+00
          4   -1    0    0  501    0  0.00000000000E+00  0.00000000000E+00  0.84234384879E+01  0.85186393256E+01  0.12700000000E+01 0.  1.
         -4   -1    0    0    0  501 -0.00000000000E+00 -0.00000000000E+00 -0.46104187755E+03  0.46104362674E+03  0.12700000000E+01 0.  1.
         25    2    1    2    0    0  0.00000000000E+00  0.00000000000E+00 -0.45261843906E+03  0.46956226606E+03  0.12500108132E+03 0.  0.
    9000005    1    3    3    0    0 -0.40747881826E+02 -0.36211018849E+02 -0.34109305503E+03  0.34542307385E+03  0.10000000000E+01 0.  0.
    9000005    1    3    3    0    0  0.40747881826E+02  0.36211018849E+02 -0.11152538404E+03  0.12413919221E+03  0.10000000000E+01 0.  0.
<mgrwt>
<rscale>  0 0.12500108E+03</rscale>
<asrwt>0</asrwt>
<pdfrwt beam="1">  1        4 0.13033717E-02 0.12500108E+03</pdfrwt>
<pdfrwt beam="2">  1       -4 0.70936958E-01 0.12500108E+03</pdfrwt>
<totfact> 0.58304420E+03</totfact>
</mgrwt>
</event>
<event>
 5    1  0.3316199E-002  0.1249979E+03  0.7818608E-02  0.1235073E+00
          4   -1    0    0  501    0  0.00000000000E+00  0.00000000000E+00  0.10985051961E+03  0.10985786071E+03  0.12700000000E+01 0.  1.
         -4   -1    0    0    0  501 -0.00000000000E+00 -0.00000000000E+00 -0.35538641296E+02  0.35561326257E+02  0.12700000000E+01 0.  1.
         25    2    1    2    0    0  0.00000000000E+00  0.00000000000E+00  0.74311878317E+02  0.14541918696E+03  0.12499793870E+03 0.  0.
    9000005    1    3    3    0    0  0.59349998710E+02  0.19245654934E+02  0.33075238240E+02  0.70624280282E+02  0.10000000000E+01 0.  0.
    9000005    1    3    3    0    0 -0.59349998710E+02 -0.19245654934E+02  0.41236640078E+02  0.74794906682E+02  0.10000000000E+01 0.  0.
<mgrwt>
<rscale>  0 0.12499794E+03</rscale>
<asrwt>0</asrwt>
<pdfrwt beam="1">  1        4 0.16902390E-01 0.12499794E+03</pdfrwt>
<pdfrwt beam="2">  1       -4 0.54697930E-02 0.12499794E+03</pdfrwt>
<totfact> 0.10022944E+04</totfact>
</mgrwt>
</event>
<event>
 5    1  0.3316199E-002  0.1249977E+03  0.7818608E-02  0.1235073E+00
          4   -1    0    0  501    0  0.00000000000E+00  0.00000000000E+00  0.57755517291E+02  0.57769478771E+02  0.12700000000E+01 0.  1.
         -4   -1    0    0    0  501 -0.00000000000E+00 -0.00000000000E+00 -0.67603653620E+02  0.67615581656E+02  0.12700000000E+01 0.  1.
         25    2    1    2    0    0  0.00000000000E+00  0.00000000000E+00 -0.98481363290E+01  0.12538506043E+03  0.12499771034E+03 0.  0.
    9000005    1    3    3    0    0  0.26380609439E+02 -0.52756238680E+02 -0.25626571105E+02  0.64318569796E+02  0.10000000000E+01 0.  0.
    9000005    1    3    3    0    0 -0.26380609439E+02  0.52756238680E+02  0.15778434776E+02  0.61066490631E+02  0.10000000000E+01 0.  0.
<mgrwt>
<rscale>  0 0.12499771E+03</rscale>
<asrwt>0</asrwt>
<pdfrwt beam="1">  1        4 0.88874557E-02 0.12499771E+03</pdfrwt>
<pdfrwt beam="2">  1       -4 0.10402554E-01 0.12499771E+03</pdfrwt>
<totfact> 0.10445037E+04</totfact>
</mgrwt>
</event>
<event>
 5    1  0.3316199E-002  0.1249986E+03  0.7818608E-02  0.1235071E+00
          4   -1    0    0  501    0  0.00000000000E+00  0.00000000000E+00  0.63779402493E+03  0.63779528936E+03  0.12700000000E+01 0. -1.
         -4   -1    0    0    0  501 -0.00000000000E+00 -0.00000000000E+00 -0.60573670426E+01  0.61890706482E+01  0.12700000000E+01 0. -1.
         25    2    1    2    0    0  0.00000000000E+00  0.00000000000E+00  0.63173665789E+03  0.64398436001E+03  0.12499860408E+03 0.  0.
    9000005    1    3    3    0    0  0.20850723062E+02  0.33880809524E+02  0.56415196550E+03  0.56555380123E+03  0.10000000000E+01 0.  0.
    9000005    1    3    3    0    0 -0.20850723062E+02 -0.33880809524E+02  0.67584692388E+02  0.78430558786E+02  0.10000000000E+01 0.  0.
<mgrwt>
<rscale>  0 0.12499860E+03</rscale>
<asrwt>0</asrwt>
<pdfrwt beam="1">  1        4 0.98132425E-01 0.12499860E+03</pdfrwt>
<pdfrwt beam="2">  1       -4 0.94213056E-03 0.12499860E+03</pdfrwt>
<totfact> 0.46205195E+03</totfact>
</mgrwt>
</event>
<event>
 5    1  0.3316199E-002  0.1250020E+03  0.7818608E-02  0.1235066E+00
          4   -1    0    0  501    0  0.00000000000E+00  0.00000000000E+00  0.51792025813E+02  0.51807594403E+02  0.12700000000E+01 0. -1.
         -4   -1    0    0    0  501 -0.00000000000E+00 -0.00000000000E+00 -0.75392000597E+02  0.75402696596E+02  0.12700000000E+01 0. -1.
         25    2    1    2    0    0  0.00000000000E+00  0.00000000000E+00 -0.23599974784E+02  0.12721029100E+03  0.12500199729E+03 0.  0.
    9000005    1    3    3    0    0  0.24513236994E+02 -0.33353939186E+01  0.46601554891E+02  0.52770527369E+02  0.10000000000E+01 0.  0.
    9000005    1    3    3    0    0 -0.24513236994E+02  0.33353939186E+01 -0.70201529675E+02  0.74439763630E+02  0.10000000000E+01 0.  0.
<mgrwt>
<rscale>  0 0.12500200E+03</rscale>
<asrwt>0</asrwt>
<pdfrwt beam="1">  1        4 0.79700244E-02 0.12500200E+03</pdfrwt>
<pdfrwt beam="2">  1       -4 0.11600790E-01 0.12500200E+03</pdfrwt>
<totfact> 0.10404111E+04</totfact>
</mgrwt>
</event>
<event>
 5    1  0.3316199E-002  0.1250038E+03  0.7818608E-02  0.1235063E+00
          4   -1    0    0  501    0  0.00000000000E+00  0.00000000000E+00  0.88761981470E+02  0.88771066539E+02  0.12700000000E+01 0. -1.
         -4   -1    0    0    0  501 -0.00000000000E+00 -0.00000000000E+00 -0.43990320149E+02  0.44008648773E+02  0.12700000000E+01 0. -1.
         25    2    1    2    0    0  0.00000000000E+00  0.00000000000E+00  0.44771661322E+02  0.13277971531E+03  0.12500380451E+03 0.  0.
    9000005    1    3    3    0    0  0.54123633969E+02 -0.21619702009E+02  0.46343413926E+02  0.74468055455E+02  0.10000000000E+01 0.  0.
    9000005    1    3    3    0    0 -0.54123633969E+02  0.21619702009E+02 -0.15717526042E+01  0.58311659857E+02  0.10000000000E+01 0.  0.
<mgrwt>
<rscale>  0 0.12500380E+03</rscale>
<asrwt>0</asrwt>
<pdfrwt beam="1">  1        4 0.13657798E-01 0.12500380E+03</pdfrwt>
<pdfrwt beam="2">  1       -4 0.67698504E-02 0.12500380E+03</pdfrwt>
<totfact> 0.10284201E+04</totfact>
</mgrwt>
</event>
<event>
 5    1  0.3316199E-002  0.1250007E+03  0.7818608E-02  0.1235068E+00
          4   -1    0    0  501    0  0.00000000000E+00  0.00000000000E+00  0.57809310722E+02  0.57823259215E+02  0.12700000000E+01 0. -1.
         -4   -1    0    0    0  501 -0.00000000000E+00 -0.00000000000E+00 -0.67544032427E+02  0.67555970991E+02  0.12700000000E+01 0. -1.
         25    2    1    2    0    0  0.00000000000E+00  0.00000000000E+00 -0.97347217047E+01  0.12537923021E+03  0.12500074624E+03 0.  0.
    9000005    1    3    3    0    0 -0.19608682514E+02 -0.50833064934E+02  0.25832431796E+02  0.60306015065E+02  0.10000000000E+01 0.  0.
    9000005    1    3    3    0    0  0.19608682514E+02  0.50833064934E+02 -0.35567153500E+02  0.65073215140E+02  0.10000000000E+01 0.  0.
<mgrwt>
<rscale>  0 0.12500075E+03</rscale>
<asrwt>0</asrwt>
<pdfrwt beam="1">  1        4 0.88957314E-02 0.12500075E+03</pdfrwt>
<pdfrwt beam="2">  1       -4 0.10393381E-01 0.12500075E+03</pdfrwt>
<totfact> 0.10444452E+04</totfact>
</mgrwt>
</event>
<event>
 5    1  0.3316199E-002  0.1249926E+03  0.7818608E-02  0.1235081E+00
         -4   -1    0    0    0  501 -0.00000000000E+00  0.00000000000E+00  0.49905197335E+02  0.49921354359E+02  0.12700000000E+01 0. -1.
          4   -1    0    0  501    0  0.00000000000E+00 -0.00000000000E+00 -0.78230187151E+02  0.78240495152E+02  0.12700000000E+01 0. -1.
         25    2    1    2    0    0  0.00000000000E+00  0.00000000000E+00 -0.28324989815E+02  0.12816184951E+03  0.12499261827E+03 0.  0.
    9000005    1    3    3    0    0  0.29887152512E+02 -0.22708798883E+02  0.37062776663E+02  0.52759651685E+02  0.10000000000E+01 0.  0.
    9000005    1    3    3    0    0 -0.29887152512E+02  0.22708798883E+02 -0.65387766478E+02  0.75402197826E+02  0.10000000000E+01 0.  0.
<mgrwt>
<rscale>  0 0.12499262E+03</rscale>
<asrwt>0</asrwt>
<pdfrwt beam="2">  1        4 0.12037449E-01 0.12499262E+03</pdfrwt>
<pdfrwt beam="1">  1       -4 0.76797584E-02 0.12499262E+03</pdfrwt>
<totfact> 0.10385724E+04</totfact>
</mgrwt>
</event>
<event>
 5    1  0.3316199E-002  0.1249980E+03  0.7818608E-02  0.1235072E+00
         -4   -1    0    0    0  501 -0.00000000000E+00  0.00000000000E+00  0.80364508190E+02  0.80374542466E+02  0.12700000000E+01 0. -1.
          4   -1    0    0  501    0  0.00000000000E+00 -0.00000000000E+00 -0.48583757452E+02  0.48600353786E+02  0.12700000000E+01 0. -1.
         25    2    1    2    0    0  0.00000000000E+00  0.00000000000E+00  0.31780750738E+02  0.12897489625E+03  0.12499803097E+03 0.  0.
    9000005    1    3    3    0    0  0.29692163988E+02 -0.47587717193E+02 -0.12534435530E+02  0.57483280213E+02  0.10000000000E+01 0.  0.
    9000005    1    3    3    0    0 -0.29692163988E+02  0.47587717193E+02  0.44315186268E+02  0.71491616040E+02  0.10000000000E+01 0.  0.
<mgrwt>
<rscale>  0 0.12499803E+03</rscale>
<asrwt>0</asrwt>
<pdfrwt beam="2">  1        4 0.74764728E-02 0.12499803E+03</pdfrwt>
<pdfrwt beam="1">  1       -4 0.12365819E-01 0.12499803E+03</pdfrwt>
<totfact> 0.10366947E+04</totfact>
</mgrwt>
</event>
<event>
 5    1  0.3316199E-002  0.1249876E+03  0.7818608E-02  0.1235089E+00
          4   -1    0    0  501    0  0.00000000000E+00  0.00000000000E+00  0.15030318106E+01  0.19677409950E+01  0.12700000000E+01 0.  1.
         -4   -1    0    0    0  501 -0.00000000000E+00 -0.00000000000E+00 -0.22500275848E+04  0.22500279432E+04  0.12700000000E+01 0.  1.
         25    2    1    2    0    0  0.00000000000E+00  0.00000000000E+00 -0.22485245530E+04  0.22519956842E+04  0.12498758465E+03 0.  0.
    9000005    1    3    3    0    0 -0.17963027244E+02 -0.23683531373E+02 -0.21145660341E+04  0.21147751872E+04  0.10000000000E+01 0.  0.
    9000005    1    3    3    0    0  0.17963027244E+02  0.23683531373E+02 -0.13395851893E+03  0.13722049701E+03  0.10000000000E+01 0.  0.
<mgrwt>
<rscale>  0 0.12498758E+03</rscale>
<asrwt>0</asrwt>
<pdfrwt beam="1">  1        4 0.26701189E-03 0.12498758E+03</pdfrwt>
<pdfrwt beam="2">  1       -4 0.34619153E+00 0.12498758E+03</pdfrwt>
<totfact> 0.69222905E+02</totfact>
</mgrwt>
</event>
<event>
 5    1  0.3316199E-002  0.1249870E+03  0.7818608E-02  0.1235090E+00
          4   -1    0    0  501    0  0.00000000000E+00  0.00000000000E+00  0.69814555727E+03  0.69814671240E+03  0.12700000000E+01 0. -1.
         -4   -1    0    0    0  501 -0.00000000000E+00 -0.00000000000E+00 -0.55207561509E+01  0.56649491152E+01  0.12700000000E+01 0. -1.
         25    2    1    2    0    0  0.00000000000E+00  0.00000000000E+00  0.69262480112E+03  0.70381166151E+03  0.12498695836E+03 0.  0.
    9000005    1    3    3    0    0  0.12322700537E+01  0.11270636244E+02  0.69233254296E+03  0.69242609408E+03  0.10000000000E+01 0.  0.
    9000005    1    3    3    0    0 -0.12322700537E+01 -0.11270636244E+02  0.29225815840E+00  0.11385567428E+02  0.10000000000E+01 0.  0.
<mgrwt>
<rscale>  0 0.12498696E+03</rscale>
<asrwt>0</asrwt>
<pdfrwt beam="1">  1        4 0.10741814E+00 0.12498696E+03</pdfrwt>
<pdfrwt beam="2">  1       -4 0.86052812E-03 0.12498696E+03</pdfrwt>
<totfact> 0.42898498E+03</totfact>
</mgrwt>
</event>
<event>
 5    1  0.3316199E-002  0.1249991E+03  0.7818608E-02  0.1235071E+00
         -4   -1    0    0    0  501 -0.00000000000E+00  0.00000000000E+00  0.55029219893E+02  0.55043872884E+02  0.12700000000E+01 0. -1.
          4   -1    0    0  501    0  0.00000000000E+00 -0.00000000000E+00 -0.70954212188E+02  0.70965577058E+02  0.12700000000E+01 0. -1.
         25    2    1    2    0    0  0.00000000000E+00  0.00000000000E+00 -0.15924992294E+02  0.12600944994E+03  0.12499910438E+03 0.  0.
    9000005    1    3    3    0    0  0.39192432599E+02  0.11454856896E+02  0.39726678214E+02  0.56977798145E+02  0.10000000000E+01 0.  0.
    9000005    1    3    3    0    0 -0.39192432599E+02 -0.11454856896E+02 -0.55651670508E+02  0.69031651797E+02  0.10000000000E+01 0.  0.
<mgrwt>
<rscale>  0 0.12499910E+03</rscale>
<asrwt>0</asrwt>
<pdfrwt beam="2">  1        4 0.10918034E-01 0.12499910E+03</pdfrwt>
<pdfrwt beam="1">  1       -4 0.84680352E-02 0.12499910E+03</pdfrwt>
<totfact> 0.10430961E+04</totfact>
</mgrwt>
</event>
<event>
 5    1  0.3316199E-002  0.1250098E+03  0.7818608E-02  0.1235054E+00
          4   -1    0    0  501    0  0.00000000000E+00  0.00000000000E+00  0.87841200714E+02  0.87850381006E+02  0.12700000000E+01 0. -1.
         -4   -1    0    0    0  501 -0.00000000000E+00 -0.00000000000E+00 -0.44455850239E+02  0.44473987009E+02  0.12700000000E+01 0. -1.
         25    2    1    2    0    0  0.00000000000E+00  0.00000000000E+00  0.43385350475E+02  0.13232436802E+03  0.12500979856E+03 0.  0.
    9000005    1    3    3    0    0  0.56180302218E+02 -0.99220317655E+01 -0.53188695235E+01  0.57305876179E+02  0.10000000000E+01 0.  0.
    9000005    1    3    3    0    0 -0.56180302218E+02  0.99220317655E+01  0.48704219998E+02  0.75018491836E+02  0.10000000000E+01 0.  0.
<mgrwt>
<rscale>  0 0.12500980E+03</rscale>
<asrwt>0</asrwt>
<pdfrwt beam="1">  1        4 0.13516132E-01 0.12500980E+03</pdfrwt>
<pdfrwt beam="2">  1       -4 0.68414629E-02 0.12500980E+03</pdfrwt>
<totfact> 0.10292505E+04</totfact>
</mgrwt>
</event>
<event>
 5    1  0.3316199E-002  0.1249975E+03  0.7818608E-02  0.1235073E+00
          4   -1    0    0  501    0  0.00000000000E+00  0.00000000000E+00  0.12439261320E+03  0.12439909613E+03  0.12700000000E+01 0. -1.
         -4   -1    0    0    0  501 -0.00000000000E+00 -0.00000000000E+00 -0.31381204100E+02  0.31406892091E+02  0.12700000000E+01 0. -1.
         25    2    1    2    0    0  0.00000000000E+00  0.00000000000E+00  0.93011409101E+02  0.15580598823E+03  0.12499753495E+03 0.  0.
    9000005    1    3    3    0    0 -0.51081295446E+02  0.28822508976E+02  0.73386199979E+02  0.93949827650E+02  0.10000000000E+01 0.  0.
    9000005    1    3    3    0    0  0.51081295446E+02 -0.28822508976E+02  0.19625209122E+02  0.61856160575E+02  0.10000000000E+01 0.  0.
<mgrwt>
<rscale>  0 0.12499753E+03</rscale>
<asrwt>0</asrwt>
<pdfrwt beam="1">  1        4 0.19139799E-01 0.12499753E+03</pdfrwt>
<pdfrwt beam="2">  1       -4 0.48303524E-02 0.12499753E+03</pdfrwt>
<totfact> 0.98162947E+03</totfact>
</mgrwt>
</event>
<event>
 5    1  0.3316199E-002  0.1250009E+03  0.7818608E-02  0.1235068E+00
          4   -1    0    0  501    0  0.00000000000E+00  0.00000000000E+00  0.95879370896E+01  0.96716822546E+01  0.12700000000E+01 0.  1.
         -4   -1    0    0    0  501 -0.00000000000E+00 -0.00000000000E+00 -0.40556227305E+03  0.40556426152E+03  0.12700000000E+01 0.  1.
         25    2    1    2    0    0  0.00000000000E+00  0.00000000000E+00 -0.39597433596E+03  0.41523594377E+03  0.12500085705E+03 0.  0.
    9000005    1    3    3    0    0  0.60400021214E+02 -0.73651968213E+01 -0.15067013636E+03  0.16249584203E+03  0.10000000000E+01 0.  0.
    9000005    1    3    3    0    0 -0.60400021214E+02  0.73651968213E+01 -0.24530419960E+03  0.25274010174E+03  0.10000000000E+01 0.  0.
<mgrwt>
<rscale>  0 0.12500086E+03</rscale>
<asrwt>0</asrwt>
<pdfrwt beam="1">  1        4 0.14816625E-02 0.12500086E+03</pdfrwt>
<pdfrwt beam="2">  1       -4 0.62400777E-01 0.12500086E+03</pdfrwt>
<totfact> 0.63096265E+03</totfact>
</mgrwt>
</event>
<event>
 5    1  0.3316199E-002  0.1249967E+03  0.7818608E-02  0.1235074E+00
         -4   -1    0    0    0  501 -0.00000000000E+00  0.00000000000E+00  0.96999649929E+01  0.97827511909E+01  0.12700000000E+01 0. -1.
          4   -1    0    0  501    0  0.00000000000E+00 -0.00000000000E+00 -0.40089126581E+03  0.40089327745E+03  0.12700000000E+01 0. -1.
         25    2    1    2    0    0  0.00000000000E+00  0.00000000000E+00 -0.39119130082E+03  0.41067602864E+03  0.12499666661E+03 0.  0.
    9000005    1    3    3    0    0  0.29676604793E+02  0.35481709477E+02 -0.57550504258E+02  0.73842488581E+02  0.10000000000E+01 0.  0.
    9000005    1    3    3    0    0 -0.29676604793E+02 -0.35481709477E+02 -0.33364079656E+03  0.33683354006E+03  0.10000000000E+01 0.  0.
<mgrwt>
<rscale>  0 0.12499667E+03</rscale>
<asrwt>0</asrwt>
<pdfrwt beam="2">  1        4 0.61682089E-01 0.12499667E+03</pdfrwt>
<pdfrwt beam="1">  1       -4 0.14988255E-02 0.12499667E+03</pdfrwt>
<totfact> 0.63532208E+03</totfact>
</mgrwt>
</event>
<event>
 5    1  0.3316199E-002  0.1250023E+03  0.7818608E-02  0.1235066E+00
          4   -1    0    0  501    0  0.00000000000E+00  0.00000000000E+00  0.38206024452E+02  0.38227126552E+02  0.12700000000E+01 0. -1.
         -4   -1    0    0    0  501 -0.00000000000E+00 -0.00000000000E+00 -0.10219225237E+03  0.10220014356E+03  0.12700000000E+01 0. -1.
         25    2    1    2    0    0  0.00000000000E+00  0.00000000000E+00 -0.63986227915E+02  0.14042727011E+03  0.12500232329E+03 0.  0.
    9000005    1    3    3    0    0  0.57280486975E+02  0.57826751493E+01 -0.59301182450E+02  0.82656661921E+02  0.10000000000E+01 0.  0.
    9000005    1    3    3    0    0 -0.57280486975E+02 -0.57826751493E+01 -0.46850454653E+01  0.57770608193E+02  0.10000000000E+01 0.  0.
<mgrwt>
<rscale>  0 0.12500232E+03</rscale>
<asrwt>0</asrwt>
<pdfrwt beam="1">  1        4 0.58800802E-02 0.12500232E+03</pdfrwt>
<pdfrwt beam="2">  1       -4 0.15724115E-01 0.12500232E+03</pdfrwt>
<totfact> 0.10124208E+04</totfact>
</mgrwt>
</event>
<event>
 4    1  0.3316199E-002  0.1254110E+03  0.7818608E-02  0.1234428E+00
          4   -1    0    0  501    0  0.00000000000E+00  0.00000000000E+00  0.21959720448E+02  0.21996413847E+02  0.12700000000E+01 0. -1.
         -4   -1    0    0    0  501 -0.00000000000E+00 -0.00000000000E+00 -0.17886571853E+03  0.17887022716E+03  0.12700000000E+01 0. -1.
    9000005    1    1    2    0    0 -0.48427825447E+02  0.38437955933E+02 -0.61788881173E+02  0.87416226013E+02  0.10000000000E+01 0.  0.
    9000005    1    1    2    0    0  0.48427825447E+02 -0.38437955933E+02 -0.95117116908E+02  0.11345041500E+03  0.10000000000E+01 0.  0.
<mgrwt>
<rscale>  0 0.12541099E+03</rscale>
<asrwt>0</asrwt>
<pdfrwt beam="1">  1        4 0.33815880E-02 0.12541099E+03</pdfrwt>
<pdfrwt beam="2">  1       -4 0.27520971E-01 0.12541099E+03</pdfrwt>
<totfact> 0.89166985E+03</totfact>
</mgrwt>
</event>
<event>
 5    1  0.3316199E-002  0.1250000E+03  0.7818608E-02  0.1235069E+00
         -4   -1    0    0    0  501 -0.00000000000E+00  0.00000000000E+00  0.14234223763E+03  0.14234790308E+03  0.12700000000E+01 0. -1.
          4   -1    0    0  501    0  0.00000000000E+00 -0.00000000000E+00 -0.27421775504E+02  0.27451168860E+02  0.12700000000E+01 0. -1.
         25    2    1    2    0    0  0.00000000000E+00  0.00000000000E+00  0.11492046212E+03  0.16979907194E+03  0.12500004887E+03 0.  0.
    9000005    1    3    3    0    0 -0.24159554252E+02 -0.70082877913E+00 -0.20822263462E+02  0.31917736109E+02  0.10000000000E+01 0.  0.
    9000005    1    3    3    0    0  0.24159554252E+02  0.70082877913E+00  0.13574272558E+03  0.13788133583E+03  0.10000000000E+01 0.  0.
<mgrwt>
<rscale>  0 0.12500005E+03</rscale>
<asrwt>0</asrwt>
<pdfrwt beam="2">  1        4 0.42214315E-02 0.12500005E+03</pdfrwt>
<pdfrwt beam="1">  1       -4 0.21901503E-01 0.12500005E+03</pdfrwt>
<totfact> 0.95485995E+03</totfact>
</mgrwt>
</event>
<event>
 4    1  0.3316199E-002  0.1248416E+03  0.7818608E-02  0.1235317E+00
          4   -1    0    0  501    0  0.00000000000E+00  0.00000000000E+00  0.67213310428E+02  0.67225307724E+02  0.12700000000E+01 0. -1.
         -4   -1    0    0    0  501 -0.00000000000E+00 -0.00000000000E+00 -0.57945873905E+02  0.57959789532E+02  0.12700000000E+01 0. -1.
    9000005    1    1    2    0    0  0.30375140739E+02 -0.52930926363E+02  0.17747303015E+02  0.63563345608E+02  0.10000000000E+01 0.  0.
    9000005    1    1    2    0    0 -0.30375140739E+02  0.52930926363E+02 -0.84798664920E+01  0.61621751649E+02  0.10000000000E+01 0.  0.
<mgrwt>
<rscale>  0 0.12484159E+03</rscale>
<asrwt>0</asrwt>
<pdfrwt beam="1">  1        4 0.10342503E-01 0.12484159E+03</pdfrwt>
<pdfrwt beam="2">  1       -4 0.89167432E-02 0.12484159E+03</pdfrwt>
<totfact> 0.10486338E+04</totfact>
</mgrwt>
</event>
<event>
 5    1  0.3316199E-002  0.1249996E+03  0.7818608E-02  0.1235070E+00
         -4   -1    0    0    0  501 -0.00000000000E+00  0.00000000000E+00  0.19622840585E+02  0.19663895154E+02  0.12700000000E+01 0. -1.
          4   -1    0    0  501    0  0.00000000000E+00 -0.00000000000E+00 -0.19881399735E+03  0.19881805362E+03  0.12700000000E+01 0. -1.
         25    2    1    2    0    0  0.00000000000E+00  0.00000000000E+00 -0.17919115677E+03  0.21848194877E+03  0.12499956510E+03 0.  0.
    9000005    1    3    3    0    0 -0.10476483504E+02 -0.48591542537E+02 -0.23399644557E+02  0.54949413811E+02  0.10000000000E+01 0.  0.
    9000005    1    3    3    0    0  0.10476483504E+02  0.48591542537E+02 -0.15579151221E+03  0.16353253496E+03  0.10000000000E+01 0.  0.
<mgrwt>
<rscale>  0 0.12499957E+03</rscale>
<asrwt>0</asrwt>
<pdfrwt beam="2">  1        4 0.30590237E-01 0.12499957E+03</pdfrwt>
<pdfrwt beam="1">  1       -4 0.30223688E-02 0.12499957E+03</pdfrwt>
<totfact> 0.87109980E+03</totfact>
</mgrwt>
</event>
<event>
 5    1  0.3316199E-002  0.1250024E+03  0.7818608E-02  0.1235065E+00
          4   -1    0    0  501    0  0.00000000000E+00  0.00000000000E+00  0.39300226217E+03  0.39300431419E+03  0.12700000000E+01 0. -1.
         -4   -1    0    0    0  501 -0.00000000000E+00 -0.00000000000E+00 -0.98972458889E+01  0.99783954715E+01  0.12700000000E+01 0. -1.
         25    2    1    2    0    0  0.00000000000E+00  0.00000000000E+00  0.38310501628E+03  0.40298270966E+03  0.12500244312E+03 0.  0.
    9000005    1    3    3    0    0 -0.15543465332E+02 -0.57496955658E+02  0.13056359877E+03  0.14351080987E+03  0.10000000000E+01 0.  0.
    9000005    1    3    3    0    0  0.15543465332E+02  0.57496955658E+02  0.25254141750E+03  0.25947189979E+03  0.10000000000E+01 0.  0.
<mgrwt>
<rscale>  0 0.12500244E+03</rscale>
<asrwt>0</asrwt>
<pdfrwt beam="1">  1        4 0.60468283E-01 0.12500244E+03</pdfrwt>
<pdfrwt beam="2">  1       -4 0.15290534E-02 0.12500244E+03</pdfrwt>
<totfact> 0.64260259E+03</totfact>
</mgrwt>
</event>
<event>
 5    1  0.3316199E-002  0.1250007E+03  0.7818608E-02  0.1235068E+00
          4   -1    0    0  501    0  0.00000000000E+00  0.00000000000E+00  0.32948217134E+03  0.32948461896E+03  0.12700000000E+01 0.  1.
         -4   -1    0    0    0  501 -0.00000000000E+00 -0.00000000000E+00 -0.11819354619E+02  0.11887390110E+02  0.12700000000E+01 0.  1.
         25    2    1    2    0    0  0.00000000000E+00  0.00000000000E+00  0.31766281672E+03  0.34137200907E+03  0.12500073379E+03 0.  0.
    9000005    1    3    3    0    0 -0.15339301149E+01 -0.59784862156E+02  0.20834493984E+03  0.21676068980E+03  0.10000000000E+01 0.  0.
    9000005    1    3    3    0    0  0.15339301149E+01  0.59784862156E+02  0.10931787687E+03  0.12461131926E+03  0.10000000000E+01 0.  0.
<mgrwt>
<rscale>  0 0.12500073E+03</rscale>
<asrwt>0</asrwt>
<pdfrwt beam="1">  1        4 0.50694989E-01 0.12500073E+03</pdfrwt>
<pdfrwt beam="2">  1       -4 0.18237839E-02 0.12500073E+03</pdfrwt>
<totfact> 0.70683135E+03</totfact>
</mgrwt>
</event>
<event>
 5    1  0.3316199E-002  0.1250047E+03  0.7818608E-02  0.1235062E+00
         -4   -1    0    0    0  501 -0.00000000000E+00  0.00000000000E+00  0.54328864852E+03  0.54329013291E+03  0.12700000000E+01 0.  1.
          4   -1    0    0  501    0  0.00000000000E+00 -0.00000000000E+00 -0.71329628301E+01  0.72451403530E+01  0.12700000000E+01 0.  1.
         25    2    1    2    0    0  0.00000000000E+00  0.00000000000E+00  0.53615568569E+03  0.55053527326E+03  0.12500467112E+03 0.  0.
    9000005    1    3    3    0    0  0.33948164245E+02 -0.31434815889E+02  0.83056860333E+02  0.95079269843E+02  0.10000000000E+01 0.  0.
    9000005    1    3    3    0    0 -0.33948164245E+02  0.31434815889E+02  0.45309882536E+03  0.45545600342E+03  0.10000000000E+01 0.  0.
<mgrwt>
<rscale>  0 0.12500467E+03</rscale>
<asrwt>0</asrwt>
<pdfrwt beam="2">  1        4 0.11061225E-02 0.12500467E+03</pdfrwt>
<pdfrwt beam="1">  1       -4 0.83591584E-01 0.12500467E+03</pdfrwt>
<totfact> 0.52141305E+03</totfact>
</mgrwt>
</event>
<event>
 5    1  0.3316199E-002  0.1249998E+03  0.7818608E-02  0.1235070E+00
         -4   -1    0    0    0  501 -0.00000000000E+00  0.00000000000E+00  0.30343786282E+02  0.30370351758E+02  0.12700000000E+01 0.  1.
          4   -1    0    0  501    0  0.00000000000E+00 -0.00000000000E+00 -0.12864669180E+03  0.12865296036E+03  0.12700000000E+01 0.  1.
         25    2    1    2    0    0  0.00000000000E+00  0.00000000000E+00 -0.98302905516E+02  0.15902331212E+03  0.12499981026E+03 0.  0.
    9000005    1    3    3    0    0 -0.28684256313E+02  0.53959687749E+02 -0.65777922699E+02  0.89789585013E+02  0.10000000000E+01 0.  0.
    9000005    1    3    3    0    0  0.28684256313E+02 -0.53959687749E+02 -0.32524982817E+02  0.69233727109E+02  0.10000000000E+01 0.  0.
<mgrwt>
<rscale>  0 0.12499981E+03</rscale>
<asrwt>0</asrwt>
<pdfrwt beam="2">  1        4 0.19794324E-01 0.12499981E+03</pdfrwt>
<pdfrwt beam="1">  1       -4 0.46708006E-02 0.12499981E+03</pdfrwt>
<totfact> 0.97531830E+03</totfact>
</mgrwt>
</event>
<event>
 5    1  0.3316199E-002  0.1250007E+03  0.7818608E-02  0.1235068E+00
         -4   -1    0    0    0  501 -0.00000000000E+00  0.00000000000E+00  0.27789524443E+03  0.27789814641E+03  0.12700000000E+01 0. -1.
          4   -1    0    0  501    0  0.00000000000E+00 -0.00000000000E+00 -0.14025043199E+02  0.14082426521E+02  0.12700000000E+01 0. -1.
         25    2    1    2    0    0  0.00000000000E+00  0.00000000000E+00  0.26387020124E+03  0.29198057293E+03  0.12500068748E+03 0.  0.
    9000005    1    3    3    0    0  0.15814663230E+02  0.46676787707E+02  0.22168901745E+03  0.22710316277E+03  0.10000000000E+01 0.  0.
    9000005    1    3    3    0    0 -0.15814663230E+02 -0.46676787707E+02  0.42181183790E+02  0.64877410164E+02  0.10000000000E+01 0.  0.
<mgrwt>
<rscale>  0 0.12500069E+03</rscale>
<asrwt>0</asrwt>
<pdfrwt beam="2">  1        4 0.21623364E-02 0.12500069E+03</pdfrwt>
<pdfrwt beam="1">  1       -4 0.42757749E-01 0.12500069E+03</pdfrwt>
<totfact> 0.76614750E+03</totfact>
</mgrwt>
</event>
<event>
 5    1  0.3316199E-002  0.1249997E+03  0.7818608E-02  0.1235070E+00
          4   -1    0    0  501    0  0.00000000000E+00  0.00000000000E+00  0.15772117564E+04  0.15772122677E+04  0.12700000000E+01 0.  1.
         -4   -1    0    0    0  501 -0.00000000000E+00 -0.00000000000E+00 -0.23133139337E+01  0.26390000675E+01  0.12700000000E+01 0.  1.
         25    2    1    2    0    0  0.00000000000E+00  0.00000000000E+00  0.15748984425E+04  0.15798512678E+04  0.12499969691E+03 0.  0.
    9000005    1    3    3    0    0 -0.32896657087E+02  0.35200013015E+01  0.11739388015E+03  0.12197091273E+03  0.10000000000E+01 0.  0.
    9000005    1    3    3    0    0  0.32896657087E+02 -0.35200013015E+01  0.14575045623E+04  0.14578803551E+04  0.10000000000E+01 0.  0.
<mgrwt>
<rscale>  0 0.12499970E+03</rscale>
<asrwt>0</asrwt>
<pdfrwt beam="1">  1        4 0.24267312E+00 0.12499970E+03</pdfrwt>
<pdfrwt beam="2">  1       -4 0.38098646E-03 0.12499970E+03</pdfrwt>
<totfact> 0.16413163E+03</totfact>
</mgrwt>
</event>
<event>
 5    1  0.3316199E-002  0.1250010E+03  0.7818608E-02  0.1235068E+00
         -4   -1    0    0    0  501 -0.00000000000E+00  0.00000000000E+00  0.39380040380E+02  0.39400513707E+02  0.12700000000E+01 0. -1.
          4   -1    0    0  501    0  0.00000000000E+00 -0.00000000000E+00 -0.99144938381E+02  0.99153072098E+02  0.12700000000E+01 0. -1.
         25    2    1    2    0    0  0.00000000000E+00  0.00000000000E+00 -0.59764898001E+02  0.13855358580E+03  0.12500101242E+03 0.  0.
    9000005    1    3    3    0    0  0.12881682658E+02 -0.61143663543E+02 -0.28873886354E+02  0.68841750797E+02  0.10000000000E+01 0.  0.
    9000005    1    3    3    0    0 -0.12881682658E+02  0.61143663543E+02 -0.30891011646E+02  0.69711835008E+02  0.10000000000E+01 0.  0.
<mgrwt>
<rscale>  0 0.12500101E+03</rscale>
<asrwt>0</asrwt>
<pdfrwt beam="2">  1        4 0.15255268E-01 0.12500101E+03</pdfrwt>
<pdfrwt beam="1">  1       -4 0.60606683E-02 0.12500101E+03</pdfrwt>
<totfact> 0.10163420E+04</totfact>
</mgrwt>
</event>
<event>
 5    1  0.3316199E-002  0.1249974E+03  0.7818608E-02  0.1235073E+00
          4   -1    0    0  501    0  0.00000000000E+00  0.00000000000E+00  0.31116918484E+01  0.33608817532E+01  0.12700000000E+01 0.  1.
         -4   -1    0    0    0  501 -0.00000000000E+00 -0.00000000000E+00 -0.12067163136E+04  0.12067169819E+04  0.12700000000E+01 0.  1.
         25    2    1    2    0    0  0.00000000000E+00  0.00000000000E+00 -0.12036046218E+04  0.12100778637E+04  0.12499740239E+03 0.  0.
    9000005    1    3    3    0    0  0.43137699631E+02 -0.43149290952E+02 -0.47106988309E+03  0.47500584965E+03  0.10000000000E+01 0.  0.
    9000005    1    3    3    0    0 -0.43137699631E+02  0.43149290952E+02 -0.73253473869E+03  0.73507201404E+03  0.10000000000E+01 0.  0.
<mgrwt>
<rscale>  0 0.12499740E+03</rscale>
<asrwt>0</asrwt>
<pdfrwt beam="1">  1        4 0.49794265E-03 0.12499740E+03</pdfrwt>
<pdfrwt beam="2">  1       -4 0.18566752E+00 0.12499740E+03</pdfrwt>
<totfact> 0.24451922E+03</totfact>
</mgrwt>
</event>
<event>
 5    1  0.3316199E-002  0.1250012E+03  0.7818608E-02  0.1235067E+00
         -4   -1    0    0    0  501 -0.00000000000E+00  0.00000000000E+00  0.19044237016E+01  0.22890455730E+01  0.12700000000E+01 0. -1.
          4   -1    0    0  501    0  0.00000000000E+00 -0.00000000000E+00 -0.18626677682E+04  0.18626682011E+04  0.12700000000E+01 0. -1.
         25    2    1    2    0    0  0.00000000000E+00  0.00000000000E+00 -0.18607633445E+04  0.18649572467E+04  0.12500123156E+03 0.  0.
    9000005    1    3    3    0    0  0.55259954564E+02 -0.28873875828E+02 -0.99361591961E+03  0.99557067001E+03  0.10000000000E+01 0.  0.
    9000005    1    3    3    0    0 -0.55259954564E+02  0.28873875828E+02 -0.86714742487E+03  0.86938657670E+03  0.10000000000E+01 0.  0.
<mgrwt>
<rscale>  0 0.12500123E+03</rscale>
<asrwt>0</asrwt>
<pdfrwt beam="2">  1        4 0.28659257E+00 0.12500123E+03</pdfrwt>
<pdfrwt beam="1">  1       -4 0.32260935E-03 0.12500123E+03</pdfrwt>
<totfact> 0.11728399E+03</totfact>
</mgrwt>
</event>
<event>
 5    1  0.3316199E-002  0.1249972E+03  0.7818608E-02  0.1235074E+00
          4   -1    0    0  501    0  0.00000000000E+00  0.00000000000E+00  0.51473737975E+01  0.53017315106E+01  0.12700000000E+01 0. -1.
         -4   -1    0    0    0  501 -0.00000000000E+00 -0.00000000000E+00 -0.74748327980E+03  0.74748435869E+03  0.12700000000E+01 0. -1.
         25    2    1    2    0    0  0.00000000000E+00  0.00000000000E+00 -0.74233590600E+03  0.75278609020E+03  0.12499720098E+03 0.  0.
    9000005    1    3    3    0    0 -0.22501566421E+02 -0.17725382809E+01 -0.72210593217E+03  0.72245929965E+03  0.10000000000E+01 0.  0.
    9000005    1    3    3    0    0  0.22501566421E+02  0.17725382809E+01 -0.20229973835E+02  0.30326790544E+02  0.10000000000E+01 0.  0.
<mgrwt>
<rscale>  0 0.12499720E+03</rscale>
<asrwt>0</asrwt>
<pdfrwt beam="1">  1        4 0.80386092E-03 0.12499720E+03</pdfrwt>
<pdfrwt beam="2">  1       -4 0.11500930E+00 0.12499720E+03</pdfrwt>
<totfact> 0.40443730E+03</totfact>
</mgrwt>
</event>
<event>
 5    1  0.3316199E-002  0.1249992E+03  0.7818608E-02  0.1235071E+00
          4   -1    0    0  501    0  0.00000000000E+00  0.00000000000E+00  0.18513936432E+03  0.18514372017E+03  0.12700000000E+01 0.  1.
         -4   -1    0    0    0  501 -0.00000000000E+00 -0.00000000000E+00 -0.21074966639E+02  0.21113197741E+02  0.12700000000E+01 0.  1.
         25    2    1    2    0    0  0.00000000000E+00  0.00000000000E+00  0.16406439768E+03  0.20625691792E+03  0.12499915841E+03 0.  0.
    9000005    1    3    3    0    0 -0.32204969947E+02 -0.41355736805E+02  0.13817667300E+03  0.14778785477E+03  0.10000000000E+01 0.  0.
    9000005    1    3    3    0    0  0.32204969947E+02  0.41355736805E+02  0.25887724676E+02  0.58469063143E+02  0.10000000000E+01 0.  0.
<mgrwt>
<rscale>  0 0.12499916E+03</rscale>
<asrwt>0</asrwt>
<pdfrwt beam="1">  1        4 0.28486255E-01 0.12499916E+03</pdfrwt>
<pdfrwt beam="2">  1       -4 0.32455785E-02 0.12499916E+03</pdfrwt>
<totfact> 0.89092523E+03</totfact>
</mgrwt>
</event>
<event>
 5    1  0.3316199E-002  0.1250003E+03  0.7818608E-02  0.1235069E+00
          4   -1    0    0  501    0  0.00000000000E+00  0.00000000000E+00  0.33609698348E+01  0.35929122214E+01  0.12700000000E+01 0.  1.
         -4   -1    0    0    0  501 -0.00000000000E+00 -0.00000000000E+00 -0.11232461896E+04  0.11232469075E+04  0.12700000000E+01 0.  1.
         25    2    1    2    0    0  0.00000000000E+00  0.00000000000E+00 -0.11198852197E+04  0.11268398198E+04  0.12500029602E+03 0.  0.
    9000005    1    3    3    0    0  0.18259302398E+02 -0.24586132821E+02 -0.68878329568E+02  0.75386367038E+02  0.10000000000E+01 0.  0.
    9000005    1    3    3    0    0 -0.18259302398E+02  0.24586132821E+02 -0.10510068902E+04  0.10514534527E+04  0.10000000000E+01 0.  0.
<mgrwt>
<rscale>  0 0.12500030E+03</rscale>
<asrwt>0</asrwt>
<pdfrwt beam="1">  1        4 0.53497013E-03 0.12500030E+03</pdfrwt>
<pdfrwt beam="2">  1       -4 0.17282471E+00 0.12500030E+03</pdfrwt>
<totfact> 0.26710721E+03</totfact>
</mgrwt>
</event>
<event>
 5    1  0.3316199E-002  0.1249987E+03  0.7818608E-02  0.1235071E+00
          4   -1    0    0  501    0  0.00000000000E+00  0.00000000000E+00  0.40039101046E+03  0.40039302461E+03  0.12700000000E+01 0.  1.
         -4   -1    0    0    0  501 -0.00000000000E+00 -0.00000000000E+00 -0.97125124331E+01  0.97951925842E+01  0.12700000000E+01 0.  1.
         25    2    1    2    0    0  0.00000000000E+00  0.00000000000E+00  0.39067849803E+03  0.41018821719E+03  0.12499873881E+03 0.  0.
    9000005    1    3    3    0    0 -0.45152212603E+02  0.35474573568E+02  0.27625453822E+03  0.28216083633E+03  0.10000000000E+01 0.  0.
    9000005    1    3    3    0    0  0.45152212603E+02 -0.35474573568E+02  0.11442395981E+03  0.12802738087E+03  0.10000000000E+01 0.  0.
<mgrwt>
<rscale>  0 0.12499874E+03</rscale>
<asrwt>0</asrwt>
<pdfrwt beam="1">  1        4 0.61605134E-01 0.12499874E+03</pdfrwt>
<pdfrwt beam="2">  1       -4 0.15007476E-02 0.12499874E+03</pdfrwt>
<totfact> 0.63575579E+03</totfact>
</mgrwt>
</event>
<event>
 5    1  0.3316199E-002  0.1250077E+03  0.7818608E-02  0.1235057E+00
          4   -1    0    0  501    0  0.00000000000E+00  0.00000000000E+00  0.60465109431E+02  0.60478445405E+02  0.12700000000E+01 0. -1.
         -4   -1    0    0    0  501 -0.00000000000E+00 -0.00000000000E+00 -0.64584615184E+02  0.64597100697E+02  0.12700000000E+01 0. -1.
         25    2    1    2    0    0  0.00000000000E+00  0.00000000000E+00 -0.41195057525E+01  0.12507554610E+03  0.12500768738E+03 0.  0.
    9000005    1    3    3    0    0 -0.66893778088E+01 -0.89362485174E+00 -0.64223859638E+02  0.64585218802E+02  0.10000000000E+01 0.  0.
    9000005    1    3    3    0    0  0.66893778088E+01  0.89362485174E+00  0.60104353886E+02  0.60490327300E+02  0.10000000000E+01 0.  0.
<mgrwt>
<rscale>  0 0.12500769E+03</rscale>
<asrwt>0</asrwt>
<pdfrwt beam="1">  1        4 0.93043108E-02 0.12500769E+03</pdfrwt>
<pdfrwt beam="2">  1       -4 0.99380809E-02 0.12500769E+03</pdfrwt>
<totfact> 0.10449406E+04</totfact>
</mgrwt>
</event>
<event>
 5    1  0.3316199E-002  0.1250012E+03  0.7818608E-02  0.1235067E+00
          4   -1    0    0  501    0  0.00000000000E+00  0.00000000000E+00  0.20642349677E+02  0.20681380520E+02  0.12700000000E+01 0. -1.
         -4   -1    0    0    0  501 -0.00000000000E+00 -0.00000000000E+00 -0.18901856877E+03  0.18902283523E+03  0.12700000000E+01 0. -1.
         25    2    1    2    0    0  0.00000000000E+00  0.00000000000E+00 -0.16837621909E+03  0.20970421575E+03  0.12500122779E+03 0.  0.
    9000005    1    3    3    0    0 -0.42832131230E+02  0.42053868391E+02 -0.11335199929E+03  0.12826844918E+03  0.10000000000E+01 0.  0.
    9000005    1    3    3    0    0  0.42832131230E+02 -0.42053868391E+02 -0.55024219802E+02  0.81435766572E+02  0.10000000000E+01 0.  0.
<mgrwt>
<rscale>  0 0.12500123E+03</rscale>
<asrwt>0</asrwt>
<pdfrwt beam="1">  1        4 0.31790768E-02 0.12500123E+03</pdfrwt>
<pdfrwt beam="2">  1       -4 0.29083109E-01 0.12500123E+03</pdfrwt>
<totfact> 0.88521780E+03</totfact>
</mgrwt>
</event>
<event>
 5    1  0.3316199E-002  0.1250008E+03  0.7818608E-02  0.1235068E+00
          4   -1    0    0  501    0  0.00000000000E+00  0.00000000000E+00  0.44924514221E+01  0.46685136586E+01  0.12700000000E+01 0.  1.
         -4   -1    0    0    0  501 -0.00000000000E+00 -0.00000000000E+00 -0.85263753417E+03  0.85263848000E+03  0.12700000000E+01 0.  1.
         25    2    1    2    0    0  0.00000000000E+00  0.00000000000E+00 -0.84814508275E+03  0.85730699366E+03  0.12500079994E+03 0.  0.
    9000005    1    3    3    0    0  0.23063268310E+02 -0.70069987225E+01 -0.81950550573E+03  0.81986052857E+03  0.10000000000E+01 0.  0.
    9000005    1    3    3    0    0 -0.23063268310E+02  0.70069987225E+01 -0.28639577017E+02  0.37446465093E+02  0.10000000000E+01 0.  0.
<mgrwt>
<rscale>  0 0.12500080E+03</rscale>
<asrwt>0</asrwt>
<pdfrwt beam="1">  1        4 0.70476305E-03 0.12500080E+03</pdfrwt>
<pdfrwt beam="2">  1       -4 0.13118850E+00 0.12500080E+03</pdfrwt>
<totfact> 0.35829572E+03</totfact>
</mgrwt>
</event>
<event>
 5    1  0.3316199E-002  0.1249983E+03  0.7818608E-02  0.1235072E+00
          4   -1    0    0  501    0  0.00000000000E+00  0.00000000000E+00  0.78949787762E+03  0.78949889909E+03  0.12700000000E+01 0. -1.
         -4   -1    0    0    0  501 -0.00000000000E+00 -0.00000000000E+00 -0.48650930117E+01  0.50281239058E+01  0.12700000000E+01 0. -1.
         25    2    1    2    0    0  0.00000000000E+00  0.00000000000E+00  0.78463278461E+03  0.79452702300E+03  0.12499833435E+03 0.  0.
    9000005    1    3    3    0    0 -0.46966350114E+02  0.41082259972E+02  0.37070892345E+03  0.37592512027E+03  0.10000000000E+01 0.  0.
    9000005    1    3    3    0    0  0.46966350114E+02 -0.41082259972E+02  0.41392386116E+03  0.41860190273E+03  0.10000000000E+01 0.  0.
<mgrwt>
<rscale>  0 0.12499833E+03</rscale>
<asrwt>0</asrwt>
<pdfrwt beam="1">  1        4 0.12147386E+00 0.12499833E+03</pdfrwt>
<pdfrwt beam="2">  1       -4 0.76109509E-03 0.12499833E+03</pdfrwt>
<totfact> 0.38511617E+03</totfact>
</mgrwt>
</event>
<event>
 5    1  0.3316199E-002  0.1249989E+03  0.7818608E-02  0.1235071E+00
          4   -1    0    0  501    0  0.00000000000E+00  0.00000000000E+00  0.14277213291E+02  0.14333587108E+02  0.12700000000E+01 0. -1.
         -4   -1    0    0    0  501 -0.00000000000E+00 -0.00000000000E+00 -0.27299868573E+03  0.27300163975E+03  0.12700000000E+01 0. -1.
         25    2    1    2    0    0  0.00000000000E+00  0.00000000000E+00 -0.25872147243E+03  0.28733522686E+03  0.12499892918E+03 0.  0.
    9000005    1    3    3    0    0 -0.16205112498E+02 -0.59371902621E+02 -0.15428385354E+03  0.16610880758E+03  0.10000000000E+01 0.  0.
    9000005    1    3    3    0    0  0.16205112498E+02  0.59371902621E+02 -0.10443761890E+03  0.12122641928E+03  0.10000000000E+01 0.  0.
<mgrwt>
<rscale>  0 0.12499893E+03</rscale>
<asrwt>0</asrwt>
<pdfrwt beam="1">  1        4 0.22010582E-02 0.12499893E+03</pdfrwt>
<pdfrwt beam="2">  1       -4 0.42004358E-01 0.12499893E+03</pdfrwt>
<totfact> 0.77217291E+03</totfact>
</mgrwt>
</event>
<event>
 5    1  0.3316199E-002  0.1249698E+03  0.7818608E-02  0.1235117E+00
         -4   -1    0    0    0  501 -0.00000000000E+00  0.00000000000E+00  0.73662334202E+02  0.73673281318E+02  0.12700000000E+01 0. -1.
          4   -1    0    0  501    0  0.00000000000E+00 -0.00000000000E+00 -0.52980984240E+02  0.52996203553E+02  0.12700000000E+01 0. -1.
         25    2    1    2    0    0  0.00000000000E+00  0.00000000000E+00  0.20681349962E+02  0.12666948487E+03  0.12496975699E+03 0.  0.
    9000005    1    3    3    0    0  0.57391341109E+02  0.61505954976E+01 -0.13896140222E+02  0.59377593184E+02  0.10000000000E+01 0.  0.
    9000005    1    3    3    0    0 -0.57391341109E+02 -0.61505954976E+01  0.34577490184E+02  0.67291891686E+02  0.10000000000E+01 0.  0.
<mgrwt>
<rscale>  0 0.12496976E+03</rscale>
<asrwt>0</asrwt>
<pdfrwt beam="2">  1        4 0.81529335E-02 0.12496976E+03</pdfrwt>
<pdfrwt beam="1">  1       -4 0.11334680E-01 0.12496976E+03</pdfrwt>
<totfact> 0.10423449E+04</totfact>
</mgrwt>
</event>
<event>
 5    1  0.3316199E-002  0.1249995E+03  0.7818608E-02  0.1235070E+00
          4   -1    0    0  501    0  0.00000000000E+00  0.00000000000E+00  0.12077128109E+02  0.12143719503E+02  0.12700000000E+01 0.  1.
         -4   -1    0    0    0  501 -0.00000000000E+00 -0.00000000000E+00 -0.32248237632E+03  0.32248487707E+03  0.12700000000E+01 0.  1.
         25    2    1    2    0    0  0.00000000000E+00  0.00000000000E+00 -0.31040524821E+03  0.33462859657E+03  0.12499951810E+03 0.  0.
    9000005    1    3    3    0    0  0.52385542613E+02  0.33277262715E+02 -0.13560373721E+03  0.14913415046E+03  0.10000000000E+01 0.  0.
    9000005    1    3    3    0    0 -0.52385542613E+02 -0.33277262715E+02 -0.17480151101E+03  0.18549444611E+03  0.10000000000E+01 0.  0.
<mgrwt>
<rscale>  0 0.12499952E+03</rscale>
<asrwt>0</asrwt>
<pdfrwt beam="1">  1        4 0.18633347E-02 0.12499952E+03</pdfrwt>
<pdfrwt beam="2">  1       -4 0.49617982E-01 0.12499952E+03</pdfrwt>
<totfact> 0.71450140E+03</totfact>
</mgrwt>
</event>
<event>
 5    1  0.3316199E-002  0.1249997E+03  0.7818608E-02  0.1235070E+00
         -4   -1    0    0    0  501 -0.00000000000E+00  0.00000000000E+00  0.81697498358E+01  0.82678723006E+01  0.12700000000E+01 0. -1.
          4   -1    0    0  501    0  0.00000000000E+00 -0.00000000000E+00 -0.47518048314E+03  0.47518218028E+03  0.12700000000E+01 0. -1.
         25    2    1    2    0    0  0.00000000000E+00  0.00000000000E+00 -0.46701073330E+03  0.48345005258E+03  0.12499971328E+03 0.  0.
    9000005    1    3    3    0    0 -0.23233683759E+02 -0.58012163622E+02 -0.23300271243E+03  0.24123946441E+03  0.10000000000E+01 0.  0.
    9000005    1    3    3    0    0  0.23233683759E+02  0.58012163622E+02 -0.23400802087E+03  0.24221058817E+03  0.10000000000E+01 0.  0.
<mgrwt>
<rscale>  0 0.12499971E+03</rscale>
<asrwt>0</asrwt>
<pdfrwt beam="2">  1        4 0.73112347E-01 0.12499971E+03</pdfrwt>
<pdfrwt beam="1">  1       -4 0.12645634E-02 0.12499971E+03</pdfrwt>
<totfact> 0.57172068E+03</totfact>
</mgrwt>
</event>
<event>
 5    1  0.3316199E-002  0.1249988E+03  0.7818608E-02  0.1235071E+00
          4   -1    0    0  501    0  0.00000000000E+00  0.00000000000E+00  0.20626253429E+03  0.20626644408E+03  0.12700000000E+01 0. -1.
         -4   -1    0    0    0  501 -0.00000000000E+00 -0.00000000000E+00 -0.18912503932E+02  0.18955097071E+02  0.12700000000E+01 0. -1.
         25    2    1    2    0    0  0.00000000000E+00  0.00000000000E+00  0.18735003036E+03  0.22522154115E+03  0.12499883488E+03 0.  0.
    9000005    1    3    3    0    0 -0.31770433806E+02  0.51426305816E+02  0.65120677137E+02  0.88857908961E+02  0.10000000000E+01 0.  0.
    9000005    1    3    3    0    0  0.31770433806E+02 -0.51426305816E+02  0.12222935323E+03  0.13636363219E+03  0.10000000000E+01 0.  0.
<mgrwt>
<rscale>  0 0.12499883E+03</rscale>
<asrwt>0</asrwt>
<pdfrwt beam="1">  1        4 0.31736275E-01 0.12499883E+03</pdfrwt>
<pdfrwt beam="2">  1       -4 0.29131932E-02 0.12499883E+03</pdfrwt>
<totfact> 0.86051013E+03</totfact>
</mgrwt>
</event>
<event>
 5    1  0.3316199E-002  0.1249991E+03  0.7818608E-02  0.1235071E+00
         -4   -1    0    0    0  501 -0.00000000000E+00  0.00000000000E+00  0.47948566654E+03  0.47948734844E+03  0.12700000000E+01 0. -1.
          4   -1    0    0  501    0  0.00000000000E+00 -0.00000000000E+00 -0.80954313688E+01  0.81944437912E+01  0.12700000000E+01 0. -1.
         25    2    1    2    0    0  0.00000000000E+00  0.00000000000E+00  0.47139023517E+03  0.48768179223E+03  0.12499910665E+03 0.  0.
    9000005    1    3    3    0    0 -0.36607150107E+02 -0.47763887164E+02  0.30141185478E+03  0.30736229202E+03  0.10000000000E+01 0.  0.
    9000005    1    3    3    0    0  0.36607150107E+02  0.47763887164E+02  0.16997838039E+03  0.18031950021E+03  0.10000000000E+01 0.  0.
<mgrwt>
<rscale>  0 0.12499911E+03</rscale>
<asrwt>0</asrwt>
<pdfrwt beam="2">  1        4 0.12531964E-02 0.12499911E+03</pdfrwt>
<pdfrwt beam="1">  1       -4 0.73774790E-01 0.12499911E+03</pdfrwt>
<totfact> 0.56834042E+03</totfact>
</mgrwt>
</event>
<event>
 5    1  0.3316199E-002  0.1249986E+03  0.7818608E-02  0.1235071E+00
          4   -1    0    0  501    0  0.00000000000E+00  0.00000000000E+00  0.27899330664E+01  0.30653917392E+01  0.12700000000E+01 0.  1.
         -4   -1    0    0    0  501 -0.00000000000E+00 -0.00000000000E+00 -0.13339499276E+04  0.13339505322E+04  0.12700000000E+01 0.  1.
         25    2    1    2    0    0  0.00000000000E+00  0.00000000000E+00 -0.13311599946E+04  0.13370159239E+04  0.12499859882E+03 0.  0.
    9000005    1    3    3    0    0 -0.50175255681E+02  0.36106439770E+02 -0.76357253973E+03  0.76607131176E+03  0.10000000000E+01 0.  0.
    9000005    1    3    3    0    0  0.50175255681E+02 -0.36106439770E+02 -0.56758745484E+03  0.57094461217E+03  0.10000000000E+01 0.  0.
<mgrwt>
<rscale>  0 0.12499860E+03</rscale>
<asrwt>0</asrwt>
<pdfrwt beam="1">  1        4 0.45045717E-03 0.12499860E+03</pdfrwt>
<pdfrwt beam="2">  1       -4 0.20524382E+00 0.12499860E+03</pdfrwt>
<totfact> 0.21372091E+03</totfact>
</mgrwt>
</event>
<event>
 5    1  0.3316199E-002  0.1250010E+03  0.7818608E-02  0.1235068E+00
          4   -1    0    0  501    0  0.00000000000E+00  0.00000000000E+00  0.65360353526E+03  0.65360476912E+03  0.12700000000E+01 0.  1.
         -4   -1    0    0    0  501 -0.00000000000E+00 -0.00000000000E+00 -0.59078588319E+01  0.60428218555E+01  0.12700000000E+01 0.  1.
         25    2    1    2    0    0  0.00000000000E+00  0.00000000000E+00  0.64769567643E+03  0.65964759097E+03  0.12500102001E+03 0.  0.
    9000005    1    3    3    0    0  0.55485880504E+02 -0.42897520550E+01  0.17382216083E+03  0.18251637873E+03  0.10000000000E+01 0.  0.
    9000005    1    3    3    0    0 -0.55485880504E+02  0.42897520550E+01  0.47387351560E+03  0.47713121224E+03  0.10000000000E+01 0.  0.
<mgrwt>
<rscale>  0 0.12500102E+03</rscale>
<asrwt>0</asrwt>
<pdfrwt beam="1">  1        4 0.10056487E+00 0.12500102E+03</pdfrwt>
<pdfrwt beam="2">  1       -4 0.91937804E-03 0.12500102E+03</pdfrwt>
<totfact> 0.45302969E+03</totfact>
</mgrwt>
</event>
<event>
 5    1  0.3316199E-002  0.1249982E+03  0.7818608E-02  0.1235072E+00
         -4   -1    0    0    0  501 -0.00000000000E+00  0.00000000000E+00  0.89605919369E+01  0.90501440795E+01  0.12700000000E+01 0.  1.
          4   -1    0    0  501    0  0.00000000000E+00 -0.00000000000E+00 -0.43366628986E+03  0.43366814947E+03  0.12700000000E+01 0.  1.
         25    2    1    2    0    0  0.00000000000E+00  0.00000000000E+00 -0.42470569792E+03  0.44271829355E+03  0.12499823035E+03 0.  0.
    9000005    1    3    3    0    0  0.46654621806E+02  0.15112135135E+01 -0.65199754978E+02  0.80193176464E+02  0.10000000000E+01 0.  0.
    9000005    1    3    3    0    0 -0.46654621806E+02 -0.15112135135E+01 -0.35950594295E+03  0.36252511708E+03  0.10000000000E+01 0.  0.
<mgrwt>
<rscale>  0 0.12499823E+03</rscale>
<asrwt>0</asrwt>
<pdfrwt beam="2">  1        4 0.66724906E-01 0.12499823E+03</pdfrwt>
<pdfrwt beam="1">  1       -4 0.13855846E-02 0.12499823E+03</pdfrwt>
<totfact> 0.60602205E+03</totfact>
</mgrwt>
</event>
<event>
 5    1  0.3316199E-002  0.1250008E+03  0.7818608E-02  0.1235068E+00
          4   -1    0    0  501    0  0.00000000000E+00  0.00000000000E+00  0.31245924893E+02  0.31271724007E+02  0.12700000000E+01 0. -1.
         -4   -1    0    0    0  501 -0.00000000000E+00 -0.00000000000E+00 -0.12493726294E+03  0.12494371761E+03  0.12700000000E+01 0. -1.
         25    2    1    2    0    0  0.00000000000E+00  0.00000000000E+00 -0.93691338045E+02  0.15621544162E+03  0.12500078950E+03 0.  0.
    9000005    1    3    3    0    0 -0.13401168373E+02 -0.51882304170E+01  0.29159137819E+02  0.32523289609E+02  0.10000000000E+01 0.  0.
    9000005    1    3    3    0    0  0.13401168373E+02  0.51882304170E+01 -0.12285047586E+03  0.12369215201E+03  0.10000000000E+01 0.  0.
<mgrwt>
<rscale>  0 0.12500079E+03</rscale>
<asrwt>0</asrwt>
<pdfrwt beam="1">  1        4 0.48095465E-02 0.12500079E+03</pdfrwt>
<pdfrwt beam="2">  1       -4 0.19223598E-01 0.12500079E+03</pdfrwt>
<totfact> 0.98075679E+03</totfact>
</mgrwt>
</event>
<event>
 5    1  0.3316199E-002  0.1249990E+03  0.7818608E-02  0.1235071E+00
          4   -1    0    0  501    0  0.00000000000E+00  0.00000000000E+00  0.14230258188E+03  0.14230824892E+03  0.12700000000E+01 0. -1.
         -4   -1    0    0    0  501 -0.00000000000E+00 -0.00000000000E+00 -0.27428967423E+02  0.27458353080E+02  0.12700000000E+01 0. -1.
         25    2    1    2    0    0  0.00000000000E+00  0.00000000000E+00  0.11487361446E+03  0.16976660200E+03  0.12499900742E+03 0.  0.
    9000005    1    3    3    0    0  0.46779692146E+02  0.39776787519E+02  0.41676749407E+02  0.74219161028E+02  0.10000000000E+01 0.  0.
    9000005    1    3    3    0    0 -0.46779692146E+02 -0.39776787519E+02  0.73196865053E+02  0.95547440972E+02  0.10000000000E+01 0.  0.
<mgrwt>
<rscale>  0 0.12499901E+03</rscale>
<asrwt>0</asrwt>
<pdfrwt beam="1">  1        4 0.21895402E-01 0.12499901E+03</pdfrwt>
<pdfrwt beam="2">  1       -4 0.42225374E-02 0.12499901E+03</pdfrwt>
<totfact> 0.95494283E+03</totfact>
</mgrwt>
</event>
<event>
 4    1  0.3316199E-002  0.1249052E+03  0.7818608E-02  0.1235218E+00
          4   -1    0    0  501    0  0.00000000000E+00  0.00000000000E+00  0.40256216542E+01  0.42212000312E+01  0.12700000000E+01 0. -1.
         -4   -1    0    0    0  501 -0.00000000000E+00 -0.00000000000E+00 -0.94570215581E+03  0.94570300856E+03  0.12700000000E+01 0. -1.
    9000005    1    1    2    0    0 -0.22762009757E+02  0.51783523914E+02 -0.26966997044E+03  0.27554044239E+03  0.10000000000E+01 0.  0.
    9000005    1    1    2    0    0  0.22762009757E+02 -0.51783523914E+02 -0.67200656372E+03  0.67438376620E+03  0.10000000000E+01 0.  0.
<mgrwt>
<rscale>  0 0.12490519E+03</rscale>
<asrwt>0</asrwt>
<pdfrwt beam="1">  1        4 0.63443725E-03 0.12490519E+03</pdfrwt>
<pdfrwt beam="2">  1       -4 0.14550758E+00 0.12490519E+03</pdfrwt>
<totfact> 0.32385642E+03</totfact>
</mgrwt>
</event>
<event>
 5    1  0.3316199E-002  0.1250008E+03  0.7818608E-02  0.1235068E+00
          4   -1    0    0  501    0  0.00000000000E+00  0.00000000000E+00  0.28673217329E+02  0.28701329098E+02  0.12700000000E+01 0.  1.
         -4   -1    0    0    0  501 -0.00000000000E+00 -0.00000000000E+00 -0.13613739158E+03  0.13614331525E+03  0.12700000000E+01 0.  1.
         25    2    1    2    0    0  0.00000000000E+00  0.00000000000E+00 -0.10746417425E+03  0.16484464435E+03  0.12500083208E+03 0.  0.
    9000005    1    3    3    0    0  0.27179176695E+02 -0.14340840956E+02 -0.12549108224E+03  0.12920286021E+03  0.10000000000E+01 0.  0.
    9000005    1    3    3    0    0 -0.27179176695E+02  0.14340840956E+02  0.18026907982E+02  0.35641784138E+02  0.10000000000E+01 0.  0.
<mgrwt>
<rscale>  0 0.12500083E+03</rscale>
<asrwt>0</asrwt>
<pdfrwt beam="1">  1        4 0.44138824E-02 0.12500083E+03</pdfrwt>
<pdfrwt beam="2">  1       -4 0.20946832E-01 0.12500083E+03</pdfrwt>
<totfact> 0.96415020E+03</totfact>
</mgrwt>
</event>
<event>
 5    1  0.3316199E-002  0.1249939E+03  0.7818608E-02  0.1235079E+00
         -4   -1    0    0    0  501 -0.00000000000E+00  0.00000000000E+00  0.10603850818E+01  0.16544837629E+01  0.12700000000E+01 0. -1.
          4   -1    0    0  501    0  0.00000000000E+00 -0.00000000000E+00 -0.28767964539E+04  0.28767967343E+04  0.12700000000E+01 0. -1.
         25    2    1    2    0    0  0.00000000000E+00  0.00000000000E+00 -0.28757360688E+04  0.28784512180E+04  0.12499390729E+03 0.  0.
    9000005    1    3    3    0    0 -0.44055287602E+02  0.38105496641E+02 -0.19589344995E+04  0.19598005691E+04  0.10000000000E+01 0.  0.
    9000005    1    3    3    0    0  0.44055287602E+02 -0.38105496641E+02 -0.91680156930E+03  0.91865064889E+03  0.10000000000E+01 0.  0.
<mgrwt>
<rscale>  0 0.12499391E+03</rscale>
<asrwt>0</asrwt>
<pdfrwt beam="2">  1        4 0.44262491E+00 0.12499391E+03</pdfrwt>
<pdfrwt beam="1">  1       -4 0.20885993E-03 0.12499391E+03</pdfrwt>
<totfact> 0.23307725E+02</totfact>
</mgrwt>
</event>
<event>
 5    1  0.3316199E-002  0.1250251E+03  0.7818608E-02  0.1235030E+00
          4   -1    0    0  501    0  0.00000000000E+00  0.00000000000E+00  0.19088745409E+03  0.19089167878E+03  0.12700000000E+01 0.  1.
         -4   -1    0    0    0  501 -0.00000000000E+00 -0.00000000000E+00 -0.20447687212E+02  0.20487088917E+02  0.12700000000E+01 0.  1.
         25    2    1    2    0    0  0.00000000000E+00  0.00000000000E+00  0.17043976687E+03  0.21137876770E+03  0.12502507469E+03 0.  0.
    9000005    1    3    3    0    0 -0.45020090452E+01  0.61549701552E+02  0.68467236084E+02  0.92181322748E+02  0.10000000000E+01 0.  0.
    9000005    1    3    3    0    0  0.45020090452E+01 -0.61549701552E+02  0.10197253079E+03  0.11919744495E+03  0.10000000000E+01 0.  0.
<mgrwt>
<rscale>  0 0.12502507E+03</rscale>
<asrwt>0</asrwt>
<pdfrwt beam="1">  1        4 0.29370655E-01 0.12502507E+03</pdfrwt>
<pdfrwt beam="2">  1       -4 0.31491540E-02 0.12502507E+03</pdfrwt>
<totfact> 0.88201757E+03</totfact>
</mgrwt>
</event>
<event>
 5    1  0.3316199E-002  0.1250012E+03  0.7818608E-02  0.1235067E+00
         -4   -1    0    0    0  501 -0.00000000000E+00  0.00000000000E+00  0.11321600706E+04  0.11321607829E+04  0.12700000000E+01 0. -1.
          4   -1    0    0  501    0  0.00000000000E+00 -0.00000000000E+00 -0.33327250416E+01  0.35665047599E+01  0.12700000000E+01 0. -1.
         25    2    1    2    0    0  0.00000000000E+00  0.00000000000E+00  0.11288273455E+04  0.11357272876E+04  0.12500118351E+03 0.  0.
    9000005    1    3    3    0    0 -0.48101017319E+02 -0.35027804528E+02  0.73791762263E+03  0.74031349626E+03  0.10000000000E+01 0.  0.
    9000005    1    3    3    0    0  0.48101017319E+02  0.35027804528E+02  0.39090972290E+03  0.39541379138E+03  0.10000000000E+01 0.  0.
<mgrwt>
<rscale>  0 0.12500118E+03</rscale>
<asrwt>0</asrwt>
<pdfrwt beam="2">  1        4 0.53076545E-03 0.12500118E+03</pdfrwt>
<pdfrwt beam="1">  1       -4 0.17419629E+00 0.12500118E+03</pdfrwt>
<totfact> 0.26458946E+03</totfact>
</mgrwt>
</event>
<event>
 5    1  0.3316199E-002  0.1250050E+03  0.7818608E-02  0.1235061E+00
          4   -1    0    0  501    0  0.00000000000E+00  0.00000000000E+00  0.10411195670E+02  0.10488369524E+02  0.12700000000E+01 0.  1.
         -4   -1    0    0    0  501 -0.00000000000E+00 -0.00000000000E+00 -0.37376343335E+03  0.37376559099E+03  0.12700000000E+01 0.  1.
         25    2    1    2    0    0  0.00000000000E+00  0.00000000000E+00 -0.36335223768E+03  0.38425396052E+03  0.12500503008E+03 0.  0.
    9000005    1    3    3    0    0  0.55998198238E+02  0.25621700987E+02 -0.21439477858E+03  0.22306588903E+03  0.10000000000E+01 0.  0.
    9000005    1    3    3    0    0 -0.55998198238E+02 -0.25621700987E+02 -0.14895745910E+03  0.16118807149E+03  0.10000000000E+01 0.  0.
<mgrwt>
<rscale>  0 0.12500503E+03</rscale>
<asrwt>0</asrwt>
<pdfrwt beam="1">  1        4 0.16078251E-02 0.12500503E+03</pdfrwt>
<pdfrwt beam="2">  1       -4 0.57508159E-01 0.12500503E+03</pdfrwt>
<totfact> 0.66106251E+03</totfact>
</mgrwt>
</event>
<event>
 5    1  0.3316199E-002  0.1250012E+03  0.7818608E-02  0.1235067E+00
         -4   -1    0    0    0  501 -0.00000000000E+00  0.00000000000E+00  0.65918041257E+01  0.67130307337E+01  0.12700000000E+01 0. -1.
          4   -1    0    0  501    0  0.00000000000E+00 -0.00000000000E+00 -0.58708176326E+03  0.58708313692E+03  0.12700000000E+01 0. -1.
         25    2    1    2    0    0  0.00000000000E+00  0.00000000000E+00 -0.58048995913E+03  0.59379616765E+03  0.12500118424E+03 0.  0.
    9000005    1    3    3    0    0 -0.33726908779E+02  0.48837799115E+02 -0.19731704981E+03  0.20605254947E+03  0.10000000000E+01 0.  0.
    9000005    1    3    3    0    0  0.33726908779E+02 -0.48837799115E+02 -0.38317290933E+03  0.38774361818E+03  0.10000000000E+01 0.  0.
<mgrwt>
<rscale>  0 0.12500118E+03</rscale>
<asrwt>0</asrwt>
<pdfrwt beam="2">  1        4 0.90329661E-01 0.12500118E+03</pdfrwt>
<pdfrwt beam="1">  1       -4 0.10235550E-02 0.12500118E+03</pdfrwt>
<totfact> 0.49260308E+03</totfact>
</mgrwt>
</event>
<event>
 4    1  0.3316199E-002  0.1254011E+03  0.7818608E-02  0.1234444E+00
          4   -1    0    0  501    0  0.00000000000E+00  0.00000000000E+00  0.23494977400E+02  0.23529276721E+02  0.12700000000E+01 0.  1.
         -4   -1    0    0    0  501 -0.00000000000E+00 -0.00000000000E+00 -0.16716887799E+03  0.16717370209E+03  0.12700000000E+01 0.  1.
    9000005    1    1    2    0    0 -0.30948255141E+02 -0.25408055217E+02  0.15221303388E+01  0.40083421098E+02  0.10000000000E+01 0.  0.
    9000005    1    1    2    0    0  0.30948255141E+02  0.25408055217E+02 -0.14519603093E+03  0.15061955771E+03  0.10000000000E+01 0.  0.
<mgrwt>
<rscale>  0 0.12540110E+03</rscale>
<asrwt>0</asrwt>
<pdfrwt beam="1">  1        4 0.36176215E-02 0.12540110E+03</pdfrwt>
<pdfrwt beam="2">  1       -4 0.25721298E-01 0.12540110E+03</pdfrwt>
<totfact> 0.90905928E+03</totfact>
</mgrwt>
</event>
<event>
 5    1  0.3316199E-002  0.1249998E+03  0.7818608E-02  0.1235070E+00
         -4   -1    0    0    0  501 -0.00000000000E+00  0.00000000000E+00  0.81552447037E+02  0.81562335166E+02  0.12700000000E+01 0. -1.
          4   -1    0    0  501    0  0.00000000000E+00 -0.00000000000E+00 -0.47877255577E+02  0.47894096731E+02  0.12700000000E+01 0. -1.
         25    2    1    2    0    0  0.00000000000E+00  0.00000000000E+00  0.33675191460E+02  0.12945643190E+03  0.12499979696E+03 0.  0.
    9000005    1    3    3    0    0  0.39289953555E+02  0.52031941764E+01  0.66876510383E+02  0.77744718927E+02  0.10000000000E+01 0.  0.
    9000005    1    3    3    0    0 -0.39289953555E+02 -0.52031941764E+01 -0.33201318923E+02  0.51711712970E+02  0.10000000000E+01 0.  0.
<mgrwt>
<rscale>  0 0.12499980E+03</rscale>
<asrwt>0</asrwt>
<pdfrwt beam="2">  1        4 0.73677878E-02 0.12499980E+03</pdfrwt>
<pdfrwt beam="1">  1       -4 0.12548586E-01 0.12499980E+03</pdfrwt>
<totfact> 0.10356197E+04</totfact>
</mgrwt>
</event>
<event>
 5    1  0.3316199E-002  0.1250008E+03  0.7818608E-02  0.1235068E+00
          4   -1    0    0  501    0  0.00000000000E+00  0.00000000000E+00  0.14885342652E+03  0.14885884417E+03  0.12700000000E+01 0. -1.
         -4   -1    0    0    0  501 -0.00000000000E+00 -0.00000000000E+00 -0.26221318214E+02  0.26252055707E+02  0.12700000000E+01 0. -1.
         25    2    1    2    0    0  0.00000000000E+00  0.00000000000E+00  0.12263210831E+03  0.17511089988E+03  0.12500077307E+03 0.  0.
    9000005    1    3    3    0    0  0.55074146636E+02 -0.14766478513E+02  0.25488389070E+02  0.62464938108E+02  0.10000000000E+01 0.  0.
    9000005    1    3    3    0    0 -0.55074146636E+02  0.14766478513E+02  0.97143719238E+02  0.11264596177E+03  0.10000000000E+01 0.  0.
<mgrwt>
<rscale>  0 0.12500077E+03</rscale>
<asrwt>0</asrwt>
<pdfrwt beam="1">  1        4 0.22903308E-01 0.12500077E+03</pdfrwt>
<pdfrwt beam="2">  1       -4 0.40368301E-02 0.12500077E+03</pdfrwt>
<totfact> 0.94502894E+03</totfact>
</mgrwt>
</event>
<event>
 5    1  0.3316199E-002  0.1250000E+03  0.7818608E-02  0.1235069E+00
         -4   -1    0    0    0  501 -0.00000000000E+00  0.00000000000E+00  0.28354173583E+03  0.28354458002E+03  0.12700000000E+01 0.  1.
          4   -1    0    0  501    0  0.00000000000E+00 -0.00000000000E+00 -0.13744452487E+02  0.13803002360E+02  0.12700000000E+01 0.  1.
         25    2    1    2    0    0  0.00000000000E+00  0.00000000000E+00  0.26979728334E+03  0.29734758238E+03  0.12500004259E+03 0.  0.
    9000005    1    3    3    0    0 -0.25017412357E+02 -0.22632318667E+02  0.26003150374E+03  0.26221265359E+03  0.10000000000E+01 0.  0.
    9000005    1    3    3    0    0  0.25017412357E+02  0.22632318667E+02  0.97657796054E+01  0.35134928783E+02  0.10000000000E+01 0.  0.
<mgrwt>
<rscale>  0 0.12500004E+03</rscale>
<asrwt>0</asrwt>
<pdfrwt beam="2">  1        4 0.21192538E-02 0.12500004E+03</pdfrwt>
<pdfrwt beam="1">  1       -4 0.43626528E-01 0.12500004E+03</pdfrwt>
<totfact> 0.75932689E+03</totfact>
</mgrwt>
</event>
<event>
 5    1  0.3316199E-002  0.1250098E+03  0.7818608E-02  0.1235054E+00
          4   -1    0    0  501    0  0.00000000000E+00  0.00000000000E+00  0.24565546319E+02  0.24598352911E+02  0.12700000000E+01 0.  1.
         -4   -1    0    0    0  501 -0.00000000000E+00 -0.00000000000E+00 -0.15889682220E+03  0.15890189742E+03  0.12700000000E+01 0.  1.
         25    2    1    2    0    0  0.00000000000E+00  0.00000000000E+00 -0.13433127588E+03  0.18350025034E+03  0.12500980039E+03 0.  0.
    9000005    1    3    3    0    0  0.51002804206E+02  0.18144009011E+02 -0.11300912226E+03  0.12530982729E+03  0.10000000000E+01 0.  0.
    9000005    1    3    3    0    0 -0.51002804206E+02 -0.18144009011E+02 -0.21322153619E+02  0.58190423050E+02  0.10000000000E+01 0.  0.
<mgrwt>
<rscale>  0 0.12500980E+03</rscale>
<asrwt>0</asrwt>
<pdfrwt beam="1">  1        4 0.37822289E-02 0.12500980E+03</pdfrwt>
<pdfrwt beam="2">  1       -4 0.24448578E-01 0.12500980E+03</pdfrwt>
<totfact> 0.92970290E+03</totfact>
</mgrwt>
</event>
<event>
 5    1  0.3316199E-002  0.1249961E+03  0.7818608E-02  0.1235075E+00
         -4   -1    0    0    0  501 -0.00000000000E+00  0.00000000000E+00  0.75150059763E+01  0.76215624923E+01  0.12700000000E+01 0.  1.
          4   -1    0    0  501    0  0.00000000000E+00 -0.00000000000E+00 -0.51599474382E+03  0.51599630672E+03  0.12700000000E+01 0.  1.
         25    2    1    2    0    0  0.00000000000E+00  0.00000000000E+00 -0.50847973784E+03  0.52361786921E+03  0.12499611659E+03 0.  0.
    9000005    1    3    3    0    0  0.49882505980E+02 -0.36361852544E+02 -0.21350480707E+03  0.22225154974E+03  0.10000000000E+01 0.  0.
    9000005    1    3    3    0    0 -0.49882505980E+02  0.36361852544E+02 -0.29497493078E+03  0.30136631947E+03  0.10000000000E+01 0.  0.
<mgrwt>
<rscale>  0 0.12499612E+03</rscale>
<asrwt>0</asrwt>
<pdfrwt beam="2">  1        4 0.79392096E-01 0.12499612E+03</pdfrwt>
<pdfrwt beam="1">  1       -4 0.11644721E-02 0.12499612E+03</pdfrwt>
<totfact> 0.54081996E+03</totfact>
</mgrwt>
</event>
<event>
 5    1  0.3316199E-002  0.1249989E+03  0.7818608E-02  0.1235071E+00
         -4   -1    0    0    0  501 -0.00000000000E+00  0.00000000000E+00  0.96705627290E+02  0.96713966155E+02  0.12700000000E+01 0. -1.
          4   -1    0    0  501    0  0.00000000000E+00 -0.00000000000E+00 -0.40372399064E+02  0.40392369405E+02  0.12700000000E+01 0. -1.
         25    2    1    2    0    0  0.00000000000E+00  0.00000000000E+00  0.56333228226E+02  0.13710633556E+03  0.12499885859E+03 0.  0.
    9000005    1    3    3    0    0 -0.39592020804E+02 -0.46974462619E+02  0.40723174000E+02  0.73712313424E+02  0.10000000000E+01 0.  0.
    9000005    1    3    3    0    0  0.39592020804E+02  0.46974462619E+02  0.15610054226E+02  0.63394022136E+02  0.10000000000E+01 0.  0.
<mgrwt>
<rscale>  0 0.12499886E+03</rscale>
<asrwt>0</asrwt>
<pdfrwt beam="2">  1        4 0.62133160E-02 0.12499886E+03</pdfrwt>
<pdfrwt beam="1">  1       -4 0.14879966E-01 0.12499886E+03</pdfrwt>
<totfact> 0.10194125E+04</totfact>
</mgrwt>
</event>
<event>
 5    1  0.3316199E-002  0.1250031E+03  0.7818608E-02  0.1235064E+00
          4   -1    0    0  501    0  0.00000000000E+00  0.00000000000E+00  0.11638257688E+02  0.11707345643E+02  0.12700000000E+01 0. -1.
         -4   -1    0    0    0  501 -0.00000000000E+00 -0.00000000000E+00 -0.33459188940E+03  0.33459429964E+03  0.12700000000E+01 0. -1.
         25    2    1    2    0    0  0.00000000000E+00  0.00000000000E+00 -0.32295363171E+03  0.34630164529E+03  0.12500312512E+03 0.  0.
    9000005    1    3    3    0    0  0.58691804831E+02 -0.12170135815E+02 -0.11249535234E+03  0.12747173985E+03  0.10000000000E+01 0.  0.
    9000005    1    3    3    0    0 -0.58691804831E+02  0.12170135815E+02 -0.21045827937E+03  0.21882990544E+03  0.10000000000E+01 0.  0.
<mgrwt>
<rscale>  0 0.12500313E+03</rscale>
<asrwt>0</asrwt>
<pdfrwt beam="1">  1        4 0.17960013E-02 0.12500313E+03</pdfrwt>
<pdfrwt beam="2">  1       -4 0.51481168E-01 0.12500313E+03</pdfrwt>
<totfact> 0.70128497E+03</totfact>
</mgrwt>
</event>
<event>
 5    1  0.3316199E-002  0.1249984E+03  0.7818608E-02  0.1235072E+00
         -4   -1    0    0    0  501 -0.00000000000E+00  0.00000000000E+00  0.38300132419E+02  0.38321182697E+02  0.12700000000E+01 0. -1.
          4   -1    0    0  501    0  0.00000000000E+00 -0.00000000000E+00 -0.10193489883E+03  0.10194280994E+03  0.12700000000E+01 0. -1.
         25    2    1    2    0    0  0.00000000000E+00  0.00000000000E+00 -0.63634766407E+02  0.14026399264E+03  0.12499841653E+03 0.  0.
    9000005    1    3    3    0    0  0.54559971019E+02  0.51797840369E+01  0.18750116406E+01  0.54846479093E+02  0.10000000000E+01 0.  0.
    9000005    1    3    3    0    0 -0.54559971019E+02 -0.51797840369E+01 -0.65509778048E+02  0.85417513545E+02  0.10000000000E+01 0.  0.
<mgrwt>
<rscale>  0 0.12499842E+03</rscale>
<asrwt>0</asrwt>
<pdfrwt beam="2">  1        4 0.15684520E-01 0.12499842E+03</pdfrwt>
<pdfrwt beam="1">  1       -4 0.58945559E-02 0.12499842E+03</pdfrwt>
<totfact> 0.10128479E+04</totfact>
</mgrwt>
</event>
<event>
 5    1  0.3316199E-002  0.1249854E+03  0.7818608E-02  0.1235092E+00
         -4   -1    0    0    0  501 -0.00000000000E+00  0.00000000000E+00  0.10584884374E+03  0.10585646234E+03  0.12700000000E+01 0.  1.
          4   -1    0    0  501    0  0.00000000000E+00 -0.00000000000E+00 -0.36875570739E+02  0.36897433750E+02  0.12700000000E+01 0.  1.
         25    2    1    2    0    0  0.00000000000E+00  0.00000000000E+00  0.68973272996E+02  0.14275389609E+03  0.12498544900E+03 0.  0.
    9000005    1    3    3    0    0 -0.62262852044E+02  0.52571326682E+01  0.34716285406E+02  0.71487905697E+02  0.10000000000E+01 0.  0.
    9000005    1    3    3    0    0  0.62262852044E+02 -0.52571326682E+01  0.34256987590E+02  0.71265990397E+02  0.10000000000E+01 0.  0.
<mgrwt>
<rscale>  0 0.12498545E+03</rscale>
<asrwt>0</asrwt>
<pdfrwt beam="2">  1        4 0.56754326E-02 0.12498545E+03</pdfrwt>
<pdfrwt beam="1">  1       -4 0.16286705E-01 0.12498545E+03</pdfrwt>
<totfact> 0.10080129E+04</totfact>
</mgrwt>
</event>
<event>
 5    1  0.3316199E-002  0.1250552E+03  0.7818608E-02  0.1234983E+00
         -4   -1    0    0    0  501 -0.00000000000E+00  0.00000000000E+00  0.21049922863E+03  0.21050305972E+03  0.12700000000E+01 0. -1.
          4   -1    0    0  501    0  0.00000000000E+00 -0.00000000000E+00 -0.18547765214E+02  0.18591194002E+02  0.12700000000E+01 0. -1.
         25    2    1    2    0    0  0.00000000000E+00  0.00000000000E+00  0.19195146341E+03  0.22909425372E+03  0.12505523893E+03 0.  0.
    9000005    1    3    3    0    0 -0.43415716430E+02  0.41208932470E+02  0.12903218608E+03  0.14224417596E+03  0.10000000000E+01 0.  0.
    9000005    1    3    3    0    0  0.43415716430E+02 -0.41208932470E+02  0.62919277330E+02  0.86850077767E+02  0.10000000000E+01 0.  0.
<mgrwt>
<rscale>  0 0.12505524E+03</rscale>
<asrwt>0</asrwt>
<pdfrwt beam="2">  1        4 0.28571379E-02 0.12505524E+03</pdfrwt>
<pdfrwt beam="1">  1       -4 0.32388130E-01 0.12505524E+03</pdfrwt>
<totfact> 0.85343635E+03</totfact>
</mgrwt>
</event>
<event>
 5    1  0.3316199E-002  0.1249998E+03  0.7818608E-02  0.1235070E+00
         -4   -1    0    0    0  501 -0.00000000000E+00  0.00000000000E+00  0.27452614103E+03  0.27452907862E+03  0.12700000000E+01 0. -1.
          4   -1    0    0  501    0  0.00000000000E+00 -0.00000000000E+00 -0.14197656787E+02  0.14254345240E+02  0.12700000000E+01 0. -1.
         25    2    1    2    0    0  0.00000000000E+00  0.00000000000E+00  0.26032848424E+03  0.28878342386E+03  0.12499978476E+03 0.  0.
    9000005    1    3    3    0    0 -0.33137851220E+02 -0.51133896114E+02  0.98115187763E+02  0.11550057396E+03  0.10000000000E+01 0.  0.
    9000005    1    3    3    0    0  0.33137851220E+02  0.51133896114E+02  0.16221329648E+03  0.17328284990E+03  0.10000000000E+01 0.  0.
<mgrwt>
<rscale>  0 0.12499978E+03</rscale>
<asrwt>0</asrwt>
<pdfrwt beam="2">  1        4 0.21888415E-02 0.12499978E+03</pdfrwt>
<pdfrwt beam="1">  1       -4 0.42239378E-01 0.12499978E+03</pdfrwt>
<totfact> 0.77028084E+03</totfact>
</mgrwt>
</event>
<event>
 5    1  0.3316199E-002  0.1250085E+03  0.7818608E-02  0.1235056E+00
         -4   -1    0    0    0  501 -0.00000000000E+00  0.00000000000E+00  0.60935800396E+02  0.60949033379E+02  0.12700000000E+01 0. -1.
          4   -1    0    0  501    0  0.00000000000E+00 -0.00000000000E+00 -0.64086603951E+02  0.64099186469E+02  0.12700000000E+01 0. -1.
         25    2    1    2    0    0  0.00000000000E+00  0.00000000000E+00 -0.31508035550E+01  0.12504821985E+03  0.12500851861E+03 0.  0.
    9000005    1    3    3    0    0 -0.27221631330E+02 -0.40866280063E+01  0.54550034388E+02  0.61109933664E+02  0.10000000000E+01 0.  0.
    9000005    1    3    3    0    0  0.27221631330E+02  0.40866280063E+01 -0.57700837943E+02  0.63938286183E+02  0.10000000000E+01 0.  0.
<mgrwt>
<rscale>  0 0.12500852E+03</rscale>
<asrwt>0</asrwt>
<pdfrwt beam="2">  1        4 0.98614633E-02 0.12500852E+03</pdfrwt>
<pdfrwt beam="1">  1       -4 0.93767243E-02 0.12500852E+03</pdfrwt>
<totfact> 0.10449803E+04</totfact>
</mgrwt>
</event>
<event>
 5    1  0.3316199E-002  0.1249927E+03  0.7818608E-02  0.1235081E+00
          4   -1    0    0  501    0  0.00000000000E+00  0.00000000000E+00  0.83268807892E+03  0.83268904740E+03  0.12700000000E+01 0.  1.
         -4   -1    0    0    0  501 -0.00000000000E+00 -0.00000000000E+00 -0.46036307965E+01  0.47755959325E+01  0.12700000000E+01 0.  1.
         25    2    1    2    0    0  0.00000000000E+00  0.00000000000E+00  0.82808444812E+03  0.83746464334E+03  0.12499270228E+03 0.  0.
    9000005    1    3    3    0    0  0.15769186061E+02  0.56199565510E+02  0.26456289574E+03  0.27092726735E+03  0.10000000000E+01 0.  0.
    9000005    1    3    3    0    0 -0.15769186061E+02 -0.56199565510E+02  0.56352155238E+03  0.56653737599E+03  0.10000000000E+01 0.  0.
<mgrwt>
<rscale>  0 0.12499270E+03</rscale>
<asrwt>0</asrwt>
<pdfrwt beam="1">  1        4 0.12811914E+00 0.12499270E+03</pdfrwt>
<pdfrwt beam="2">  1       -4 0.72155358E-03 0.12499270E+03</pdfrwt>
<totfact> 0.36651690E+03</totfact>
</mgrwt>
</event>
<event>
 5    1  0.3316199E-002  0.1250008E+03  0.7818608E-02  0.1235068E+00
         -4   -1    0    0    0  501 -0.00000000000E+00  0.00000000000E+00  0.21755629879E+03  0.21756000561E+03  0.12700000000E+01 0. -1.
          4   -1    0    0  501    0  0.00000000000E+00 -0.00000000000E+00 -0.17929035744E+02  0.17973959572E+02  0.12700000000E+01 0. -1.
         25    2    1    2    0    0  0.00000000000E+00  0.00000000000E+00  0.19962726304E+03  0.23553396519E+03  0.12500081842E+03 0.  0.
    9000005    1    3    3    0    0  0.55059896277E+02  0.19886128275E+02  0.58606861498E+02  0.82842105782E+02  0.10000000000E+01 0.  0.
    9000005    1    3    3    0    0 -0.55059896277E+02 -0.19886128275E+02  0.14102040155E+03  0.15269185940E+03  0.10000000000E+01 0.  0.
<mgrwt>
<rscale>  0 0.12500082E+03</rscale>
<asrwt>0</asrwt>
<pdfrwt beam="2">  1        4 0.27620540E-02 0.12500082E+03</pdfrwt>
<pdfrwt beam="1">  1       -4 0.33473941E-01 0.12500082E+03</pdfrwt>
<totfact> 0.84465490E+03</totfact>
</mgrwt>
</event>
<event>
 5    1  0.3316199E-002  0.1250004E+03  0.7818608E-02  0.1235069E+00
         -4   -1    0    0    0  501 -0.00000000000E+00  0.00000000000E+00  0.15161491118E+03  0.15162023015E+03  0.12700000000E+01 0.  1.
          4   -1    0    0  501    0  0.00000000000E+00 -0.00000000000E+00 -0.25743018102E+02  0.25774326005E+02  0.12700000000E+01 0.  1.
         25    2    1    2    0    0  0.00000000000E+00  0.00000000000E+00  0.12587189308E+03  0.17739455616E+03  0.12500038035E+03 0.  0.
    9000005    1    3    3    0    0  0.37541517785E+00 -0.61708107233E+02  0.76930422731E+02  0.98627183760E+02  0.10000000000E+01 0.  0.
    9000005    1    3    3    0    0 -0.37541517785E+00  0.61708107233E+02  0.48941470345E+02  0.78767372397E+02  0.10000000000E+01 0.  0.
<mgrwt>
<rscale>  0 0.12500038E+03</rscale>
<asrwt>0</asrwt>
<pdfrwt beam="2">  1        4 0.39632818E-02 0.12500038E+03</pdfrwt>
<pdfrwt beam="1">  1       -4 0.23328189E-01 0.12500038E+03</pdfrwt>
<totfact> 0.94087302E+03</totfact>
</mgrwt>
</event>
<event>
 5    1  0.3316199E-002  0.1249857E+03  0.7818608E-02  0.1235092E+00
         -4   -1    0    0    0  501 -0.00000000000E+00  0.00000000000E+00  0.88726684797E+02  0.88735773480E+02  0.12700000000E+01 0. -1.
          4   -1    0    0  501    0  0.00000000000E+00 -0.00000000000E+00 -0.43995069566E+02  0.44013396212E+02  0.12700000000E+01 0. -1.
         25    2    1    2    0    0  0.00000000000E+00  0.00000000000E+00  0.44731615231E+02  0.13274916969E+03  0.12498569779E+03 0.  0.
    9000005    1    3    3    0    0  0.40564735887E+01 -0.62343699312E+02  0.23511878924E+02  0.66760768962E+02  0.10000000000E+01 0.  0.
    9000005    1    3    3    0    0 -0.40564735887E+01  0.62343699312E+02  0.21219736307E+02  0.65988400730E+02  0.10000000000E+01 0.  0.
<mgrwt>
<rscale>  0 0.12498570E+03</rscale>
<asrwt>0</asrwt>
<pdfrwt beam="2">  1        4 0.67705811E-02 0.12498570E+03</pdfrwt>
<pdfrwt beam="1">  1       -4 0.13652368E-01 0.12498570E+03</pdfrwt>
<totfact> 0.10289053E+04</totfact>
</mgrwt>
</event>
<event>
 5    1  0.3316199E-002  0.1250000E+03  0.7818608E-02  0.1235069E+00
          4   -1    0    0  501    0  0.00000000000E+00  0.00000000000E+00  0.60217408386E+02  0.60230799204E+02  0.12700000000E+01 0.  1.
         -4   -1    0    0    0  501 -0.00000000000E+00 -0.00000000000E+00 -0.64842250722E+02  0.64854686636E+02  0.12700000000E+01 0.  1.
         25    2    1    2    0    0  0.00000000000E+00  0.00000000000E+00 -0.46248423357E+01  0.12508548584E+03  0.12499995841E+03 0.  0.
    9000005    1    3    3    0    0 -0.38548372455E+02  0.16945455941E+02  0.43894078182E+02  0.60834329087E+02  0.10000000000E+01 0.  0.
    9000005    1    3    3    0    0  0.38548372455E+02 -0.16945455941E+02 -0.48518920518E+02  0.64251156754E+02  0.10000000000E+01 0.  0.
<mgrwt>
<rscale>  0 0.12499996E+03</rscale>
<asrwt>0</asrwt>
<pdfrwt beam="1">  1        4 0.92662033E-02 0.12499996E+03</pdfrwt>
<pdfrwt beam="2">  1       -4 0.99777176E-02 0.12499996E+03</pdfrwt>
<totfact> 0.10451016E+04</totfact>
</mgrwt>
</event>
<event>
 5    1  0.3316199E-002  0.1249997E+03  0.7818608E-02  0.1235070E+00
          4   -1    0    0  501    0  0.00000000000E+00  0.00000000000E+00  0.83433684228E+01  0.84394725332E+01  0.12700000000E+01 0.  1.
         -4   -1    0    0    0  501 -0.00000000000E+00 -0.00000000000E+00 -0.46540624011E+03  0.46540797289E+03  0.12700000000E+01 0.  1.
         25    2    1    2    0    0  0.00000000000E+00  0.00000000000E+00 -0.45706287169E+03  0.47384744543E+03  0.12499973145E+03 0.  0.
    9000005    1    3    3    0    0 -0.19746337567E+02 -0.31540196429E+02 -0.41884753073E+03  0.42049846116E+03  0.10000000000E+01 0.  0.
    9000005    1    3    3    0    0  0.19746337567E+02  0.31540196429E+02 -0.38215340960E+02  0.53348984272E+02  0.10000000000E+01 0.  0.
<mgrwt>
<rscale>  0 0.12499973E+03</rscale>
<asrwt>0</asrwt>
<pdfrwt beam="1">  1        4 0.12911214E-02 0.12499973E+03</pdfrwt>
<pdfrwt beam="2">  1       -4 0.71608466E-01 0.12499973E+03</pdfrwt>
<totfact> 0.57952507E+03</totfact>
</mgrwt>
</event>
<event>
 5    1  0.3316199E-002  0.1250032E+03  0.7818608E-02  0.1235064E+00
          4   -1    0    0  501    0  0.00000000000E+00  0.00000000000E+00  0.45494224421E+03  0.45494401685E+03  0.12700000000E+01 0. -1.
         -4   -1    0    0    0  501 -0.00000000000E+00 -0.00000000000E+00 -0.85379343009E+01  0.86318724578E+01  0.12700000000E+01 0. -1.
         25    2    1    2    0    0  0.00000000000E+00  0.00000000000E+00  0.44640430991E+03  0.46357588930E+03  0.12500318892E+03 0.  0.
    9000005    1    3    3    0    0 -0.55220447856E+02  0.13124842321E+02  0.32018454054E+03  0.32517795028E+03  0.10000000000E+01 0.  0.
    9000005    1    3    3    0    0  0.55220447856E+02 -0.13124842321E+02  0.12621976937E+03  0.13839793903E+03  0.10000000000E+01 0.  0.
<mgrwt>
<rscale>  0 0.12500319E+03</rscale>
<asrwt>0</asrwt>
<pdfrwt beam="1">  1        4 0.69998494E-01 0.12500319E+03</pdfrwt>
<pdfrwt beam="2">  1       -4 0.13208904E-02 0.12500319E+03</pdfrwt>
<totfact> 0.58801358E+03</totfact>
</mgrwt>
</event>
<event>
 5    1  0.3316199E-002  0.1249980E+03  0.7818608E-02  0.1235072E+00
          4   -1    0    0  501    0  0.00000000000E+00  0.00000000000E+00  0.22133379694E+02  0.22169785670E+02  0.12700000000E+01 0.  1.
         -4   -1    0    0    0  501 -0.00000000000E+00 -0.00000000000E+00 -0.17629753505E+03  0.17630210936E+03  0.12700000000E+01 0.  1.
         25    2    1    2    0    0  0.00000000000E+00  0.00000000000E+00 -0.15416415536E+03  0.19847189503E+03  0.12499802527E+03 0.  0.
    9000005    1    3    3    0    0 -0.41897447603E+02  0.30705838508E+02 -0.21921569356E+02  0.56389713930E+02  0.10000000000E+01 0.  0.
    9000005    1    3    3    0    0  0.41897447603E+02 -0.30705838508E+02 -0.13224258600E+03  0.14208218110E+03  0.10000000000E+01 0.  0.
<mgrwt>
<rscale>  0 0.12499803E+03</rscale>
<asrwt>0</asrwt>
<pdfrwt beam="1">  1        4 0.34082878E-02 0.12499803E+03</pdfrwt>
<pdfrwt beam="2">  1       -4 0.27125849E-01 0.12499803E+03</pdfrwt>
<totfact> 0.90397766E+03</totfact>
</mgrwt>
</event>
<event>
 5    1  0.3316199E-002  0.1250005E+03  0.7818608E-02  0.1235068E+00
         -4   -1    0    0    0  501 -0.00000000000E+00  0.00000000000E+00  0.42816943505E+02  0.42835774197E+02  0.12700000000E+01 0. -1.
          4   -1    0    0  501    0  0.00000000000E+00 -0.00000000000E+00 -0.91188890891E+02  0.91197734193E+02  0.12700000000E+01 0. -1.
         25    2    1    2    0    0  0.00000000000E+00  0.00000000000E+00 -0.48371947386E+02  0.13403350839E+03  0.12500054431E+03 0.  0.
    9000005    1    3    3    0    0  0.44648684282E+01  0.21319690175E+02  0.38619924970E+02  0.44350454833E+02  0.10000000000E+01 0.  0.
    9000005    1    3    3    0    0 -0.44648684282E+01 -0.21319690175E+02 -0.86991872356E+02  0.89683053557E+02  0.10000000000E+01 0.  0.
<mgrwt>
<rscale>  0 0.12500054E+03</rscale>
<asrwt>0</asrwt>
<pdfrwt beam="2">  1        4 0.14031189E-01 0.12500054E+03</pdfrwt>
<pdfrwt beam="1">  1       -4 0.65893509E-02 0.12500054E+03</pdfrwt>
<totfact> 0.10258356E+04</totfact>
</mgrwt>
</event>
<event>
 5    1  0.3316199E-002  0.1250079E+03  0.7818608E-02  0.1235057E+00
         -4   -1    0    0    0  501 -0.00000000000E+00  0.00000000000E+00  0.52198106638E+01  0.53720874310E+01  0.12700000000E+01 0.  1.
          4   -1    0    0  501    0  0.00000000000E+00 -0.00000000000E+00 -0.73753283150E+03  0.73753392494E+03  0.12700000000E+01 0.  1.
         25    2    1    2    0    0  0.00000000000E+00  0.00000000000E+00 -0.73231302084E+03  0.74290601238E+03  0.12500793068E+03 0.  0.
    9000005    1    3    3    0    0 -0.36868109454E+01 -0.13495490295E+02 -0.41763932555E+01  0.14634312210E+02  0.10000000000E+01 0.  0.
    9000005    1    3    3    0    0  0.36868109454E+01  0.13495490295E+02 -0.72813662758E+03  0.72827170017E+03  0.10000000000E+01 0.  0.
<mgrwt>
<rscale>  0 0.12500793E+03</rscale>
<asrwt>0</asrwt>
<pdfrwt beam="2">  1        4 0.11347831E+00 0.12500793E+03</pdfrwt>
<pdfrwt beam="1">  1       -4 0.81484609E-03 0.12500793E+03</pdfrwt>
<totfact> 0.40908692E+03</totfact>
</mgrwt>
</event>
<event>
 5    1  0.3316199E-002  0.1250036E+03  0.7818608E-02  0.1235064E+00
         -4   -1    0    0    0  501 -0.00000000000E+00  0.00000000000E+00  0.23519657896E+03  0.23520000777E+03  0.12700000000E+01 0.  1.
          4   -1    0    0  501    0  0.00000000000E+00 -0.00000000000E+00 -0.16581581651E+02  0.16630145821E+02  0.12700000000E+01 0.  1.
         25    2    1    2    0    0  0.00000000000E+00  0.00000000000E+00  0.21861499731E+03  0.25183015359E+03  0.12500363678E+03 0.  0.
    9000005    1    3    3    0    0  0.32918814427E+02 -0.76855100096E+01  0.34170445503E+01  0.33991051776E+02  0.10000000000E+01 0.  0.
    9000005    1    3    3    0    0 -0.32918814427E+02  0.76855100096E+01  0.21519795276E+03  0.21783910182E+03  0.10000000000E+01 0.  0.
<mgrwt>
<rscale>  0 0.12500364E+03</rscale>
<asrwt>0</asrwt>
<pdfrwt beam="2">  1        4 0.25550122E-02 0.12500364E+03</pdfrwt>
<pdfrwt beam="1">  1       -4 0.36188087E-01 0.12500364E+03</pdfrwt>
<totfact> 0.82059785E+03</totfact>
</mgrwt>
</event>
<event>
 5    1  0.3316199E-002  0.1249895E+03  0.7818608E-02  0.1235086E+00
         -4   -1    0    0    0  501 -0.00000000000E+00  0.00000000000E+00  0.22348843513E+03  0.22349204357E+03  0.12700000000E+01 0. -1.
          4   -1    0    0  501    0  0.00000000000E+00 -0.00000000000E+00 -0.17448777015E+02  0.17494934104E+02  0.12700000000E+01 0. -1.
         25    2    1    2    0    0  0.00000000000E+00  0.00000000000E+00  0.20603965812E+03  0.24098697767E+03  0.12498953032E+03 0.  0.
    9000005    1    3    3    0    0  0.44019755517E+02 -0.79033858070E+01  0.18880651964E+02  0.48555961545E+02  0.10000000000E+01 0.  0.
    9000005    1    3    3    0    0 -0.44019755517E+02  0.79033858070E+01  0.18715900616E+03  0.19243101613E+03  0.10000000000E+01 0.  0.
<mgrwt>
<rscale>  0 0.12498953E+03</rscale>
<asrwt>0</asrwt>
<pdfrwt beam="2">  1        4 0.26882556E-02 0.12498953E+03</pdfrwt>
<pdfrwt beam="1">  1       -4 0.34386661E-01 0.12498953E+03</pdfrwt>
<totfact> 0.83670122E+03</totfact>
</mgrwt>
</event>
<event>
 5    1  0.3316199E-002  0.1249983E+03  0.7818608E-02  0.1235072E+00
          4   -1    0    0  501    0  0.00000000000E+00  0.00000000000E+00  0.38402581126E+03  0.38402791124E+03  0.12700000000E+01 0. -1.
         -4   -1    0    0    0  501 -0.00000000000E+00 -0.00000000000E+00 -0.10129787334E+02  0.10209088668E+02  0.12700000000E+01 0. -1.
         25    2    1    2    0    0  0.00000000000E+00  0.00000000000E+00  0.37389602392E+03  0.39423699991E+03  0.12499830156E+03 0.  0.
    9000005    1    3    3    0    0 -0.28168642139E+02  0.90164661164E+01  0.36056868732E+03  0.36178107654E+03  0.10000000000E+01 0.  0.
    9000005    1    3    3    0    0  0.28168642139E+02 -0.90164661164E+01  0.13327336600E+02  0.32455923374E+02  0.10000000000E+01 0.  0.
<mgrwt>
<rscale>  0 0.12499830E+03</rscale>
<asrwt>0</asrwt>
<pdfrwt beam="1">  1        4 0.59087144E-01 0.12499830E+03</pdfrwt>
<pdfrwt beam="2">  1       -4 0.15646908E-02 0.12499830E+03</pdfrwt>
<totfact> 0.65119625E+03</totfact>
</mgrwt>
</event>
<event>
 5    1  0.3316199E-002  0.1250033E+03  0.7818608E-02  0.1235064E+00
          4   -1    0    0  501    0  0.00000000000E+00  0.00000000000E+00  0.24626288340E+03  0.24626615813E+03  0.12700000000E+01 0.  1.
         -4   -1    0    0    0  501 -0.00000000000E+00 -0.00000000000E+00 -0.15834134997E+02  0.15884984454E+02  0.12700000000E+01 0.  1.
         25    2    1    2    0    0  0.00000000000E+00  0.00000000000E+00  0.23042874840E+03  0.26215114259E+03  0.12500325383E+03 0.  0.
    9000005    1    3    3    0    0  0.87293285254E+01  0.50529250610E+02  0.19012851044E+03  0.19692449524E+03  0.10000000000E+01 0.  0.
    9000005    1    3    3    0    0 -0.87293285254E+01 -0.50529250610E+02  0.40300237960E+02  0.65226647341E+02  0.10000000000E+01 0.  0.
<mgrwt>
<rscale>  0 0.12500325E+03</rscale>
<asrwt>0</asrwt>
<pdfrwt beam="1">  1        4 0.37890760E-01 0.12500325E+03</pdfrwt>
<pdfrwt beam="2">  1       -4 0.24401842E-02 0.12500325E+03</pdfrwt>
<totfact> 0.80599286E+03</totfact>
</mgrwt>
</event>
<event>
 5    1  0.3316199E-002  0.1250062E+03  0.7818608E-02  0.1235060E+00
          4   -1    0    0  501    0  0.00000000000E+00  0.00000000000E+00  0.13301655308E+03  0.13302261572E+03  0.12700000000E+01 0.  1.
         -4   -1    0    0    0  501 -0.00000000000E+00 -0.00000000000E+00 -0.29349094916E+02  0.29376559914E+02  0.12700000000E+01 0.  1.
         25    2    1    2    0    0  0.00000000000E+00  0.00000000000E+00  0.10366745816E+03  0.16239917563E+03  0.12500620130E+03 0.  0.
    9000005    1    3    3    0    0 -0.12462150022E+02  0.48331091669E+01  0.13114417883E+03  0.13182738626E+03  0.10000000000E+01 0.  0.
    9000005    1    3    3    0    0  0.12462150022E+02 -0.48331091669E+01 -0.27476720662E+02  0.30571789378E+02  0.10000000000E+01 0.  0.
<mgrwt>
<rscale>  0 0.12500620E+03</rscale>
<asrwt>0</asrwt>
<pdfrwt beam="1">  1        4 0.20466664E-01 0.12500620E+03</pdfrwt>
<pdfrwt beam="2">  1       -4 0.45178244E-02 0.12500620E+03</pdfrwt>
<totfact> 0.96868727E+03</totfact>
</mgrwt>
</event>
<event>
 5    1  0.3316199E-002  0.1250005E+03  0.7818608E-02  0.1235068E+00
          4   -1    0    0  501    0  0.00000000000E+00  0.00000000000E+00  0.11400784169E+02  0.11471302440E+02  0.12700000000E+01 0.  1.
         -4   -1    0    0    0  501 -0.00000000000E+00 -0.00000000000E+00 -0.34150470525E+03  0.34150706671E+03  0.12700000000E+01 0.  1.
         25    2    1    2    0    0  0.00000000000E+00  0.00000000000E+00 -0.33010392108E+03  0.35297836914E+03  0.12500052148E+03 0.  0.
    9000005    1    3    3    0    0  0.27647593474E+02 -0.54640789821E+02 -0.12986431649E+03  0.14358184437E+03  0.10000000000E+01 0.  0.
    9000005    1    3    3    0    0 -0.27647593474E+02  0.54640789821E+02 -0.20023960460E+03  0.20939652477E+03  0.10000000000E+01 0.  0.
<mgrwt>
<rscale>  0 0.12500052E+03</rscale>
<asrwt>0</asrwt>
<pdfrwt beam="1">  1        4 0.17595732E-02 0.12500052E+03</pdfrwt>
<pdfrwt beam="2">  1       -4 0.52544784E-01 0.12500052E+03</pdfrwt>
<totfact> 0.69397340E+03</totfact>
</mgrwt>
</event>
<event>
 5    1  0.3316199E-002  0.1249985E+03  0.7818608E-02  0.1235072E+00
          4   -1    0    0  501    0  0.00000000000E+00  0.00000000000E+00  0.79861243110E+01  0.80864752217E+01  0.12700000000E+01 0. -1.
         -4   -1    0    0    0  501 -0.00000000000E+00 -0.00000000000E+00 -0.48596257729E+03  0.48596423677E+03  0.12700000000E+01 0. -1.
         25    2    1    2    0    0  0.00000000000E+00  0.00000000000E+00 -0.47797645298E+03  0.49405071200E+03  0.12499846569E+03 0.  0.
    9000005    1    3    3    0    0 -0.46821019279E+02 -0.15278455596E+02 -0.86959190540E+02  0.99942682929E+02  0.10000000000E+01 0.  0.
    9000005    1    3    3    0    0  0.46821019279E+02  0.15278455596E+02 -0.39101726244E+03  0.39410802907E+03  0.10000000000E+01 0.  0.
<mgrwt>
<rscale>  0 0.12499847E+03</rscale>
<asrwt>0</asrwt>
<pdfrwt beam="1">  1        4 0.12364818E-02 0.12499847E+03</pdfrwt>
<pdfrwt beam="2">  1       -4 0.74771297E-01 0.12499847E+03</pdfrwt>
<totfact> 0.56330841E+03</totfact>
</mgrwt>
</event>
<event>
 4    1  0.3316199E-002  0.1248422E+03  0.7818608E-02  0.1235316E+00
          4   -1    0    0  501    0  0.00000000000E+00  0.00000000000E+00  0.25282445819E+03  0.25282764793E+03  0.12700000000E+01 0. -1.
         -4   -1    0    0    0  501 -0.00000000000E+00 -0.00000000000E+00 -0.15381998263E+02  0.15434337387E+02  0.12700000000E+01 0. -1.
    9000005    1    1    2    0    0  0.11657786642E+02 -0.61289707768E+02  0.12248040502E+03  0.13745829142E+03  0.10000000000E+01 0.  0.
    9000005    1    1    2    0    0 -0.11657786642E+02  0.61289707768E+02  0.11496205490E+03  0.13080369389E+03  0.10000000000E+01 0.  0.
<mgrwt>
<rscale>  0 0.12484218E+03</rscale>
<asrwt>0</asrwt>
<pdfrwt beam="1">  1        4 0.38900342E-01 0.12484218E+03</pdfrwt>
<pdfrwt beam="2">  1       -4 0.23707327E-02 0.12484218E+03</pdfrwt>
<totfact> 0.80041086E+03</totfact>
</mgrwt>
</event>
<event>
 5    1  0.3316199E-002  0.1249990E+03  0.7818608E-02  0.1235071E+00
         -4   -1    0    0    0  501 -0.00000000000E+00  0.00000000000E+00  0.41585640508E+01  0.43481668511E+01  0.12700000000E+01 0. -1.
          4   -1    0    0  501    0  0.00000000000E+00 -0.00000000000E+00 -0.91818571467E+03  0.91818659298E+03  0.12700000000E+01 0. -1.
         25    2    1    2    0    0  0.00000000000E+00  0.00000000000E+00 -0.91402715062E+03  0.92253475983E+03  0.12499900409E+03 0.  0.
    9000005    1    3    3    0    0  0.33809757869E+02  0.39693398077E+02 -0.20279099874E+03  0.20938924220E+03  0.10000000000E+01 0.  0.
    9000005    1    3    3    0    0 -0.33809757869E+02 -0.39693398077E+02 -0.71123615188E+03  0.71314551763E+03  0.10000000000E+01 0.  0.
<mgrwt>
<rscale>  0 0.12499900E+03</rscale>
<asrwt>0</asrwt>
<pdfrwt beam="2">  1        4 0.14127384E+00 0.12499900E+03</pdfrwt>
<pdfrwt beam="1">  1       -4 0.65443221E-03 0.12499900E+03</pdfrwt>
<totfact> 0.33312347E+03</totfact>
</mgrwt>
</event>
<event>
 5    1  0.3316199E-002  0.1250003E+03  0.7818608E-02  0.1235069E+00
         -4   -1    0    0    0  501 -0.00000000000E+00  0.00000000000E+00  0.21579462793E+03  0.21579836501E+03  0.12700000000E+01 0. -1.
          4   -1    0    0  501    0  0.00000000000E+00 -0.00000000000E+00 -0.18075607979E+02  0.18120168427E+02  0.12700000000E+01 0. -1.
         25    2    1    2    0    0  0.00000000000E+00  0.00000000000E+00  0.19771901995E+03  0.23391853344E+03  0.12500027775E+03 0.  0.
    9000005    1    3    3    0    0 -0.12396784830E+02  0.39799741104E+02  0.11735072077E+02  0.43317566675E+02  0.10000000000E+01 0.  0.
    9000005    1    3    3    0    0  0.12396784830E+02 -0.39799741104E+02  0.18598394787E+03  0.19060096677E+03  0.10000000000E+01 0.  0.
<mgrwt>
<rscale>  0 0.12500028E+03</rscale>
<asrwt>0</asrwt>
<pdfrwt beam="2">  1        4 0.27845780E-02 0.12500028E+03</pdfrwt>
<pdfrwt beam="1">  1       -4 0.33202889E-01 0.12500028E+03</pdfrwt>
<totfact> 0.84710987E+03</totfact>
</mgrwt>
</event>
<event>
 5    1  0.3316199E-002  0.1250034E+03  0.7818608E-02  0.1235064E+00
          4   -1    0    0  501    0  0.00000000000E+00  0.00000000000E+00  0.15835665657E+02  0.15886510215E+02  0.12700000000E+01 0. -1.
         -4   -1    0    0    0  501 -0.00000000000E+00 -0.00000000000E+00 -0.24623967242E+03  0.24624294746E+03  0.12700000000E+01 0. -1.
         25    2    1    2    0    0  0.00000000000E+00  0.00000000000E+00 -0.23040400676E+03  0.26212945768E+03  0.12500338495E+03 0.  0.
    9000005    1    3    3    0    0 -0.93867157963E+01 -0.61598926212E+02 -0.10516200264E+03  0.12223986643E+03  0.10000000000E+01 0.  0.
    9000005    1    3    3    0    0  0.93867157963E+01  0.61598926212E+02 -0.12524200412E+03  0.13988959125E+03  0.10000000000E+01 0.  0.
<mgrwt>
<rscale>  0 0.12500338E+03</rscale>
<asrwt>0</asrwt>
<pdfrwt beam="1">  1        4 0.24404195E-02 0.12500338E+03</pdfrwt>
<pdfrwt beam="2">  1       -4 0.37887187E-01 0.12500338E+03</pdfrwt>
<totfact> 0.80602076E+03</totfact>
</mgrwt>
</event>
<event>
 5    1  0.3316199E-002  0.1249964E+03  0.7818608E-02  0.1235075E+00
         -4   -1    0    0    0  501 -0.00000000000E+00  0.00000000000E+00  0.72485933394E+03  0.72486044650E+03  0.12700000000E+01 0.  1.
          4   -1    0    0  501    0  0.00000000000E+00 -0.00000000000E+00 -0.53127092837E+01  0.54623969037E+01  0.12700000000E+01 0.  1.
         25    2    1    2    0    0  0.00000000000E+00  0.00000000000E+00  0.71954662466E+03  0.73032284341E+03  0.12499644212E+03 0.  0.
    9000005    1    3    3    0    0  0.16099351394E+02 -0.19364020145E+02  0.25617445438E+02  0.35936164267E+02  0.10000000000E+01 0.  0.
    9000005    1    3    3    0    0 -0.16099351394E+02  0.19364020145E+02  0.69392917922E+03  0.69438667914E+03  0.10000000000E+01 0.  0.
<mgrwt>
<rscale>  0 0.12499644E+03</rscale>
<asrwt>0</asrwt>
<pdfrwt beam="2">  1        4 0.82893994E-03 0.12499644E+03</pdfrwt>
<pdfrwt beam="1">  1       -4 0.11152842E+00 0.12499644E+03</pdfrwt>
<totfact> 0.41536672E+03</totfact>
</mgrwt>
</event>
<event>
 5    1  0.3316199E-002  0.1250013E+03  0.7818608E-02  0.1235067E+00
          4   -1    0    0  501    0  0.00000000000E+00  0.00000000000E+00  0.41265166101E+03  0.41265361532E+03  0.12700000000E+01 0.  1.
         -4   -1    0    0    0  501 -0.00000000000E+00 -0.00000000000E+00 -0.94218255867E+01  0.95070341004E+01  0.12700000000E+01 0.  1.
         25    2    1    2    0    0  0.00000000000E+00  0.00000000000E+00  0.40322983543E+03  0.42216064942E+03  0.12500125496E+03 0.  0.
    9000005    1    3    3    0    0  0.18478963403E+02 -0.24693732327E+02  0.38517329221E+03  0.38640745016E+03  0.10000000000E+01 0.  0.
    9000005    1    3    3    0    0 -0.18478963403E+02  0.24693732327E+02  0.18056543217E+02  0.35753199264E+02  0.10000000000E+01 0.  0.
<mgrwt>
<rscale>  0 0.12500125E+03</rscale>
<asrwt>0</asrwt>
<pdfrwt beam="1">  1        4 0.63491578E-01 0.12500125E+03</pdfrwt>
<pdfrwt beam="2">  1       -4 0.14562164E-02 0.12500125E+03</pdfrwt>
<totfact> 0.62451334E+03</totfact>
</mgrwt>
</event>
<event>
 5    1  0.3316199E-002  0.1250008E+03  0.7818608E-02  0.1235068E+00
         -4   -1    0    0    0  501 -0.00000000000E+00  0.00000000000E+00  0.39025468017E+02  0.39046127260E+02  0.12700000000E+01 0.  1.
          4   -1    0    0  501    0  0.00000000000E+00 -0.00000000000E+00 -0.10004498308E+03  0.10005304363E+03  0.12700000000E+01 0.  1.
         25    2    1    2    0    0  0.00000000000E+00  0.00000000000E+00 -0.61019515066E+02  0.13909917089E+03  0.12500079249E+03 0.  0.
    9000005    1    3    3    0    0 -0.26295261081E+02 -0.56655012985E+02 -0.32754244890E+02  0.70534188943E+02  0.10000000000E+01 0.  0.
    9000005    1    3    3    0    0  0.26295261081E+02  0.56655012985E+02 -0.28265270176E+02  0.68564981949E+02  0.10000000000E+01 0.  0.
<mgrwt>
<rscale>  0 0.12500079E+03</rscale>
<asrwt>0</asrwt>
<pdfrwt beam="2">  1        4 0.15393745E-01 0.12500079E+03</pdfrwt>
<pdfrwt beam="1">  1       -4 0.60061274E-02 0.12500079E+03</pdfrwt>
<totfact> 0.10152109E+04</totfact>
</mgrwt>
</event>
<event>
 5    1  0.3316199E-002  0.1250061E+03  0.7818608E-02  0.1235060E+00
         -4   -1    0    0    0  501 -0.00000000000E+00  0.00000000000E+00  0.66941822329E+02  0.66953868273E+02  0.12700000000E+01 0.  1.
          4   -1    0    0  501    0  0.00000000000E+00 -0.00000000000E+00 -0.58334358150E+02  0.58348181126E+02  0.12700000000E+01 0.  1.
         25    2    1    2    0    0  0.00000000000E+00  0.00000000000E+00  0.86074641792E+01  0.12530204940E+03  0.12500606043E+03 0.  0.
    9000005    1    3    3    0    0 -0.68046442185E+01  0.36700705714E+02  0.54546099850E+02  0.66102359956E+02  0.10000000000E+01 0.  0.
    9000005    1    3    3    0    0  0.68046442185E+01 -0.36700705714E+02 -0.45938635671E+02  0.59199689443E+02  0.10000000000E+01 0.  0.
<mgrwt>
<rscale>  0 0.12500606E+03</rscale>
<asrwt>0</asrwt>
<pdfrwt beam="2">  1        4 0.89765066E-02 0.12500606E+03</pdfrwt>
<pdfrwt beam="1">  1       -4 0.10300732E-01 0.12500606E+03</pdfrwt>
<totfact> 0.10444875E+04</totfact>
</mgrwt>
</event>
<event>
 5    1  0.3316199E-002  0.1250018E+03  0.7818608E-02  0.1235067E+00
          4   -1    0    0  501    0  0.00000000000E+00  0.00000000000E+00  0.50671876452E+02  0.50687789094E+02  0.12700000000E+01 0. -1.
         -4   -1    0    0    0  501 -0.00000000000E+00 -0.00000000000E+00 -0.77058033953E+02  0.77068498732E+02  0.12700000000E+01 0. -1.
         25    2    1    2    0    0  0.00000000000E+00  0.00000000000E+00 -0.26386157501E+02  0.12775628783E+03  0.12500175907E+03 0.  0.
    9000005    1    3    3    0    0  0.21694540465E+02 -0.18317419286E+01  0.46675475243E+02  0.51513186211E+02  0.10000000000E+01 0.  0.
    9000005    1    3    3    0    0 -0.21694540465E+02  0.18317419286E+01 -0.73061632744E+02  0.76243101614E+02  0.10000000000E+01 0.  0.
<mgrwt>
<rscale>  0 0.12500176E+03</rscale>
<asrwt>0</asrwt>
<pdfrwt beam="1">  1        4 0.77977023E-02 0.12500176E+03</pdfrwt>
<pdfrwt beam="2">  1       -4 0.11857111E-01 0.12500176E+03</pdfrwt>
<totfact> 0.10392342E+04</totfact>
</mgrwt>
</event>
<event>
 5    1  0.3316199E-002  0.1250071E+03  0.7818608E-02  0.1235058E+00
         -4   -1    0    0    0  501 -0.00000000000E+00  0.00000000000E+00  0.36228940001E+02  0.36251192995E+02  0.12700000000E+01 0. -1.
          4   -1    0    0  501    0  0.00000000000E+00 -0.00000000000E+00 -0.10777437377E+03  0.10778185627E+03  0.12700000000E+01 0. -1.
         25    2    1    2    0    0  0.00000000000E+00  0.00000000000E+00 -0.71545433770E+02  0.14403304927E+03  0.12500708055E+03 0.  0.
    9000005    1    3    3    0    0  0.44899822593E+02  0.15808990317E+02 -0.82430014464E+02  0.95192570762E+02  0.10000000000E+01 0.  0.
    9000005    1    3    3    0    0 -0.44899822593E+02 -0.15808990317E+02  0.10884580695E+02  0.48840478505E+02  0.10000000000E+01 0.  0.
<mgrwt>
<rscale>  0 0.12500708E+03</rscale>
<asrwt>0</asrwt>
<pdfrwt beam="2">  1        4 0.16582960E-01 0.12500708E+03</pdfrwt>
<pdfrwt beam="1">  1       -4 0.55759705E-02 0.12500708E+03</pdfrwt>
<totfact> 0.10049069E+04</totfact>
</mgrwt>
</event>
<event>
 5    1  0.3316199E-002  0.1250021E+03  0.7818608E-02  0.1235066E+00
         -4   -1    0    0    0  501 -0.00000000000E+00  0.00000000000E+00  0.40203967609E+01  0.42162175128E+01  0.12700000000E+01 0. -1.
          4   -1    0    0  501    0  0.00000000000E+00 -0.00000000000E+00 -0.94834433968E+03  0.94834519006E+03  0.12700000000E+01 0. -1.
         25    2    1    2    0    0  0.00000000000E+00  0.00000000000E+00 -0.94432394292E+03  0.95256140757E+03  0.12500210406E+03 0.  0.
    9000005    1    3    3    0    0  0.48352953708E+02 -0.19488303944E+02 -0.20955455707E+03  0.21594423936E+03  0.10000000000E+01 0.  0.
    9000005    1    3    3    0    0 -0.48352953708E+02  0.19488303944E+02 -0.73476938585E+03  0.73661716822E+03  0.10000000000E+01 0.  0.
<mgrwt>
<rscale>  0 0.12500210E+03</rscale>
<asrwt>0</asrwt>
<pdfrwt beam="2">  1        4 0.14591408E+00 0.12500210E+03</pdfrwt>
<pdfrwt beam="1">  1       -4 0.63365188E-03 0.12500210E+03</pdfrwt>
<totfact> 0.32223763E+03</totfact>
</mgrwt>
</event>
<event>
 5    1  0.3316199E-002  0.1249811E+03  0.7818608E-02  0.1235099E+00
          4   -1    0    0  501    0  0.00000000000E+00  0.00000000000E+00  0.54254080884E+03  0.54254229527E+03  0.12700000000E+01 0. -1.
         -4   -1    0    0    0  501 -0.00000000000E+00 -0.00000000000E+00 -0.71402177198E+01  0.72522830258E+01  0.12700000000E+01 0. -1.
         25    2    1    2    0    0  0.00000000000E+00  0.00000000000E+00  0.53540059112E+03  0.54979457829E+03  0.12498113998E+03 0.  0.
    9000005    1    3    3    0    0  0.28148187025E+02  0.35774537803E+02  0.79417427293E+02  0.91543791409E+02  0.10000000000E+01 0.  0.
    9000005    1    3    3    0    0 -0.28148187025E+02 -0.35774537803E+02  0.45598316383E+03  0.45825078688E+03  0.10000000000E+01 0.  0.
<mgrwt>
<rscale>  0 0.12498114E+03</rscale>
<asrwt>0</asrwt>
<pdfrwt beam="1">  1        4 0.83476552E-01 0.12498114E+03</pdfrwt>
<pdfrwt beam="2">  1       -4 0.11072298E-02 0.12498114E+03</pdfrwt>
<totfact> 0.52219870E+03</totfact>
</mgrwt>
</event>
<event>
 5    1  0.3316199E-002  0.1249982E+03  0.7818608E-02  0.1235072E+00
          4   -1    0    0  501    0  0.00000000000E+00  0.00000000000E+00  0.19145075466E+03  0.19145496693E+03  0.12700000000E+01 0. -1.
         -4   -1    0    0    0  501 -0.00000000000E+00 -0.00000000000E+00 -0.20378640104E+02  0.20418175053E+02  0.12700000000E+01 0. -1.
         25    2    1    2    0    0  0.00000000000E+00  0.00000000000E+00  0.17107211456E+03  0.21187314198E+03  0.12499823964E+03 0.  0.
    9000005    1    3    3    0    0 -0.11403708503E+02  0.50935647696E+02  0.27294422974E+02  0.58910697664E+02  0.10000000000E+01 0.  0.
    9000005    1    3    3    0    0  0.11403708503E+02 -0.50935647696E+02  0.14377769159E+03  0.15296244432E+03  0.10000000000E+01 0.  0.
<mgrwt>
<rscale>  0 0.12499824E+03</rscale>
<asrwt>0</asrwt>
<pdfrwt beam="1">  1        4 0.29457327E-01 0.12499824E+03</pdfrwt>
<pdfrwt beam="2">  1       -4 0.31385406E-02 0.12499824E+03</pdfrwt>
<totfact> 0.88174352E+03</totfact>
</mgrwt>
</event>
<event>
 5    1  0.3316199E-002  0.1249940E+03  0.7818608E-02  0.1235079E+00
         -4   -1    0    0    0  501 -0.00000000000E+00  0.00000000000E+00  0.30279737759E+01  0.32835232887E+01  0.12700000000E+01 0.  1.
          4   -1    0    0  501    0  0.00000000000E+00 -0.00000000000E+00 -0.12374465886E+04  0.12374472404E+04  0.12700000000E+01 0.  1.
         25    2    1    2    0    0  0.00000000000E+00  0.00000000000E+00 -0.12344186149E+04  0.12407307636E+04  0.12499404427E+03 0.  0.
    9000005    1    3    3    0    0  0.45545986649E+02 -0.24079300226E+02 -0.96824585526E+03  0.96961605072E+03  0.10000000000E+01 0.  0.
    9000005    1    3    3    0    0 -0.45545986649E+02  0.24079300226E+02 -0.26617275962E+03  0.27111471292E+03  0.10000000000E+01 0.  0.
<mgrwt>
<rscale>  0 0.12499404E+03</rscale>
<asrwt>0</asrwt>
<pdfrwt beam="2">  1        4 0.19039572E+00 0.12499404E+03</pdfrwt>
<pdfrwt beam="1">  1       -4 0.48555089E-03 0.12499404E+03</pdfrwt>
<totfact> 0.23673956E+03</totfact>
</mgrwt>
</event>
<event>
 5    1  0.3316199E-002  0.1249888E+03  0.7818608E-02  0.1235087E+00
         -4   -1    0    0    0  501 -0.00000000000E+00  0.00000000000E+00  0.74427716705E+02  0.74438551261E+02  0.12700000000E+01 0. -1.
          4   -1    0    0  501    0  0.00000000000E+00 -0.00000000000E+00 -0.52452053759E+02  0.52467426500E+02  0.12700000000E+01 0. -1.
         25    2    1    2    0    0  0.00000000000E+00  0.00000000000E+00  0.21975662946E+02  0.12690597776E+03  0.12498878922E+03 0.  0.
    9000005    1    3    3    0    0 -0.16583398560E+02  0.47005615267E+02  0.49248899101E+02  0.70078463433E+02  0.10000000000E+01 0.  0.
    9000005    1    3    3    0    0  0.16583398560E+02 -0.47005615267E+02 -0.27273236155E+02  0.56827514329E+02  0.10000000000E+01 0.  0.
<mgrwt>
<rscale>  0 0.12498879E+03</rscale>
<asrwt>0</asrwt>
<pdfrwt beam="2">  1        4 0.80715627E-02 0.12498879E+03</pdfrwt>
<pdfrwt beam="1">  1       -4 0.11452434E-01 0.12498879E+03</pdfrwt>
<totfact> 0.10413824E+04</totfact>
</mgrwt>
</event>
<event>
 5    1  0.3316199E-002  0.1250002E+03  0.7818608E-02  0.1235069E+00
          4   -1    0    0  501    0  0.00000000000E+00  0.00000000000E+00  0.19108722767E+02  0.19150879504E+02  0.12700000000E+01 0.  1.
         -4   -1    0    0    0  501 -0.00000000000E+00 -0.00000000000E+00 -0.20415346194E+03  0.20415741211E+03  0.12700000000E+01 0.  1.
         25    2    1    2    0    0  0.00000000000E+00  0.00000000000E+00 -0.18504473917E+03  0.22330829162E+03  0.12500015044E+03 0.  0.
    9000005    1    3    3    0    0  0.56821143996E+02  0.22433997247E+02 -0.11604222492E+03  0.13114390798E+03  0.10000000000E+01 0.  0.
    9000005    1    3    3    0    0 -0.56821143996E+02 -0.22433997247E+02 -0.69002514255E+02  0.92164383636E+02  0.10000000000E+01 0.  0.
<mgrwt>
<rscale>  0 0.12500015E+03</rscale>
<asrwt>0</asrwt>
<pdfrwt beam="1">  1        4 0.29433503E-02 0.12500015E+03</pdfrwt>
<pdfrwt beam="2">  1       -4 0.31411770E-01 0.12500015E+03</pdfrwt>
<totfact> 0.86347258E+03</totfact>
</mgrwt>
</event>
<event>
 5    1  0.3316199E-002  0.1250070E+03  0.7818608E-02  0.1235058E+00
          4   -1    0    0  501    0  0.00000000000E+00  0.00000000000E+00  0.81628707850E+02  0.81638586742E+02  0.12700000000E+01 0.  1.
         -4   -1    0    0    0  501 -0.00000000000E+00 -0.00000000000E+00 -0.47838042225E+02  0.47854897178E+02  0.12700000000E+01 0.  1.
         25    2    1    2    0    0  0.00000000000E+00  0.00000000000E+00  0.33790665625E+02  0.12949348392E+03  0.12500701298E+03 0.  0.
    9000005    1    3    3    0    0  0.20679084862E+02 -0.36094056284E+01 -0.44081857714E+02  0.48835054410E+02  0.10000000000E+01 0.  0.
    9000005    1    3    3    0    0 -0.20679084862E+02  0.36094056284E+01  0.77872523339E+02  0.80658429510E+02  0.10000000000E+01 0.  0.
<mgrwt>
<rscale>  0 0.12500701E+03</rscale>
<asrwt>0</asrwt>
<pdfrwt beam="1">  1        4 0.12560319E-01 0.12500701E+03</pdfrwt>
<pdfrwt beam="2">  1       -4 0.73617553E-02 0.12500701E+03</pdfrwt>
<totfact> 0.10353716E+04</totfact>
</mgrwt>
</event>
<event>
 5    1  0.3316199E-002  0.1250012E+03  0.7818608E-02  0.1235067E+00
          4   -1    0    0  501    0  0.00000000000E+00  0.00000000000E+00  0.21100786325E+02  0.21138970730E+02  0.12700000000E+01 0.  1.
         -4   -1    0    0    0  501 -0.00000000000E+00 -0.00000000000E+00 -0.18491913808E+03  0.18492349912E+03  0.12700000000E+01 0.  1.
         25    2    1    2    0    0  0.00000000000E+00  0.00000000000E+00 -0.16381835175E+03  0.20606246985E+03  0.12500115644E+03 0.  0.
    9000005    1    3    3    0    0  0.60955758270E+02  0.11027915292E+02 -0.95513208311E+02  0.11384635411E+03  0.10000000000E+01 0.  0.
    9000005    1    3    3    0    0 -0.60955758270E+02 -0.11027915292E+02 -0.68305143440E+02  0.92216115741E+02  0.10000000000E+01 0.  0.
<mgrwt>
<rscale>  0 0.12500116E+03</rscale>
<asrwt>0</asrwt>
<pdfrwt beam="1">  1        4 0.32495477E-02 0.12500116E+03</pdfrwt>
<pdfrwt beam="2">  1       -4 0.28452370E-01 0.12500116E+03</pdfrwt>
<totfact> 0.89120691E+03</totfact>
</mgrwt>
</event>
<event>
 5    1  0.3316199E-002  0.1250007E+03  0.7818608E-02  0.1235068E+00
         -4   -1    0    0    0  501 -0.00000000000E+00  0.00000000000E+00  0.10665568255E+02  0.10740914589E+02  0.12700000000E+01 0.  1.
          4   -1    0    0  501    0  0.00000000000E+00 -0.00000000000E+00 -0.36488731683E+03  0.36488952696E+03  0.12700000000E+01 0.  1.
         25    2    1    2    0    0  0.00000000000E+00  0.00000000000E+00 -0.35422174857E+03  0.37563044154E+03  0.12500072581E+03 0.  0.
    9000005    1    3    3    0    0 -0.11218998643E+02  0.43052313491E+02 -0.30898762553E+03  0.31217578439E+03  0.10000000000E+01 0.  0.
    9000005    1    3    3    0    0  0.11218998643E+02 -0.43052313491E+02 -0.45234123044E+02  0.63454657158E+02  0.10000000000E+01 0.  0.
<mgrwt>
<rscale>  0 0.12500073E+03</rscale>
<asrwt>0</asrwt>
<pdfrwt beam="2">  1        4 0.56142467E-01 0.12500073E+03</pdfrwt>
<pdfrwt beam="1">  1       -4 0.16468228E-02 0.12500073E+03</pdfrwt>
<totfact> 0.66992902E+03</totfact>
</mgrwt>
</event>
<event>
 5    1  0.3316199E-002  0.1249951E+03  0.7818608E-02  0.1235077E+00
          4   -1    0    0  501    0  0.00000000000E+00  0.00000000000E+00  0.16480595922E+02  0.16529456795E+02  0.12700000000E+01 0. -1.
         -4   -1    0    0    0  501 -0.00000000000E+00 -0.00000000000E+00 -0.23660108324E+03  0.23660449169E+03  0.12700000000E+01 0. -1.
         25    2    1    2    0    0  0.00000000000E+00  0.00000000000E+00 -0.22012048732E+03  0.25313394849E+03  0.12499506767E+03 0.  0.
    9000005    1    3    3    0    0  0.21363366196E+01  0.36847188783E+02 -0.79423437570E+01  0.37767182575E+02  0.10000000000E+01 0.  0.
    9000005    1    3    3    0    0 -0.21363366196E+01 -0.36847188783E+02 -0.21217814356E+03  0.21536676591E+03  0.10000000000E+01 0.  0.
<mgrwt>
<rscale>  0 0.12499507E+03</rscale>
<asrwt>0</asrwt>
<pdfrwt beam="1">  1        4 0.25394972E-02 0.12499507E+03</pdfrwt>
<pdfrwt beam="2">  1       -4 0.36404185E-01 0.12499507E+03</pdfrwt>
<totfact> 0.81888371E+03</totfact>
</mgrwt>
</event>
<event>
 5    1  0.3316199E-002  0.1250081E+03  0.7818608E-02  0.1235057E+00
          4   -1    0    0  501    0  0.00000000000E+00  0.00000000000E+00  0.38864421907E+02  0.38885166711E+02  0.12700000000E+01 0.  1.
         -4   -1    0    0    0  501 -0.00000000000E+00 -0.00000000000E+00 -0.10047108080E+03  0.10047910717E+03  0.12700000000E+01 0.  1.
         25    2    1    2    0    0  0.00000000000E+00  0.00000000000E+00 -0.61606658896E+02  0.13936427388E+03  0.12500808140E+03 0.  0.
    9000005    1    3    3    0    0  0.13349991815E+02 -0.88139350290E+01  0.36548704966E+02  0.39908840711E+02  0.10000000000E+01 0.  0.
    9000005    1    3    3    0    0 -0.13349991815E+02  0.88139350290E+01 -0.98155363863E+02  0.99455433171E+02  0.10000000000E+01 0.  0.
<mgrwt>
<rscale>  0 0.12500808E+03</rscale>
<asrwt>0</asrwt>
<pdfrwt beam="1">  1        4 0.59813550E-02 0.12500808E+03</pdfrwt>
<pdfrwt beam="2">  1       -4 0.15459302E-01 0.12500808E+03</pdfrwt>
<totfact> 0.10144931E+04</totfact>
</mgrwt>
</event>
<event>
 5    1  0.3316199E-002  0.1249920E+03  0.7818608E-02  0.1235082E+00
          4   -1    0    0  501    0  0.00000000000E+00  0.00000000000E+00  0.18210173545E+03  0.18210616397E+03  0.12700000000E+01 0.  1.
         -4   -1    0    0    0  501 -0.00000000000E+00 -0.00000000000E+00 -0.21424687097E+02  0.21462295246E+02  0.12700000000E+01 0.  1.
         25    2    1    2    0    0  0.00000000000E+00  0.00000000000E+00  0.16067704835E+03  0.20356845921E+03  0.12499201462E+03 0.  0.
    9000005    1    3    3    0    0  0.61858808591E+02  0.88181491950E+01  0.79211367666E+02  0.10089456241E+03  0.10000000000E+01 0.  0.
    9000005    1    3    3    0    0 -0.61858808591E+02 -0.88181491950E+01  0.81465680688E+02  0.10267389681E+03  0.10000000000E+01 0.  0.
<mgrwt>
<rscale>  0 0.12499201E+03</rscale>
<asrwt>0</asrwt>
<pdfrwt beam="1">  1        4 0.28018884E-01 0.12499201E+03</pdfrwt>
<pdfrwt beam="2">  1       -4 0.32993395E-02 0.12499201E+03</pdfrwt>
<totfact> 0.89553124E+03</totfact>
</mgrwt>
</event>
<event>
 5    1  0.3316199E-002  0.1250008E+03  0.7818608E-02  0.1235068E+00
          4   -1    0    0  501    0  0.00000000000E+00  0.00000000000E+00  0.24926294082E+03  0.24926617613E+03  0.12700000000E+01 0. -1.
         -4   -1    0    0    0  501 -0.00000000000E+00 -0.00000000000E+00 -0.15642324613E+02  0.15693795567E+02  0.12700000000E+01 0. -1.
         25    2    1    2    0    0  0.00000000000E+00  0.00000000000E+00  0.23362061620E+03  0.26495997170E+03  0.12500077715E+03 0.  0.
    9000005    1    3    3    0    0  0.32851444779E+02  0.50724783449E+02  0.83089783948E+02  0.10274791130E+03  0.10000000000E+01 0.  0.
    9000005    1    3    3    0    0 -0.32851444779E+02 -0.50724783449E+02  0.15053083225E+03  0.16221206040E+03  0.10000000000E+01 0.  0.
<mgrwt>
<rscale>  0 0.12500078E+03</rscale>
<asrwt>0</asrwt>
<pdfrwt beam="1">  1        4 0.38352350E-01 0.12500078E+03</pdfrwt>
<pdfrwt beam="2">  1       -4 0.24107198E-02 0.12500078E+03</pdfrwt>
<totfact> 0.80213613E+03</totfact>
</mgrwt>
</event>
<event>
 5    1  0.3316199E-002  0.1250029E+03  0.7818608E-02  0.1235065E+00
          4   -1    0    0  501    0  0.00000000000E+00  0.00000000000E+00  0.88612478670E+02  0.88621579066E+02  0.12700000000E+01 0.  1.
         -4   -1    0    0    0  501 -0.00000000000E+00 -0.00000000000E+00 -0.44063926134E+02  0.44082224154E+02  0.12700000000E+01 0.  1.
         25    2    1    2    0    0  0.00000000000E+00  0.00000000000E+00  0.44548552536E+02  0.13270380322E+03  0.12500290339E+03 0.  0.
    9000005    1    3    3    0    0 -0.22881104670E+02  0.56305860689E+02  0.68339670515E+01  0.61168603094E+02  0.10000000000E+01 0.  0.
    9000005    1    3    3    0    0  0.22881104670E+02 -0.56305860689E+02  0.37714585485E+02  0.71535200126E+02  0.10000000000E+01 0.  0.
<mgrwt>
<rscale>  0 0.12500290E+03</rscale>
<asrwt>0</asrwt>
<pdfrwt beam="1">  1        4 0.13634797E-01 0.12500290E+03</pdfrwt>
<pdfrwt beam="2">  1       -4 0.67811732E-02 0.12500290E+03</pdfrwt>
<totfact> 0.10286025E+04</totfact>
</mgrwt>
</event>
<event>
 5    1  0.3316199E-002  0.1250021E+03  0.7818608E-02  0.1235066E+00
         -4   -1    0    0    0  501 -0.00000000000E+00  0.00000000000E+00  0.17269655924E+03  0.17270122893E+03  0.12700000000E+01 0. -1.
          4   -1    0    0  501    0  0.00000000000E+00 -0.00000000000E+00 -0.22597121189E+02  0.22632781226E+02  0.12700000000E+01 0. -1.
         25    2    1    2    0    0  0.00000000000E+00  0.00000000000E+00  0.15009943805E+03  0.19533401016E+03  0.12500213686E+03 0.  0.
    9000005    1    3    3    0    0  0.51146447915E+02 -0.29700803083E+02  0.10658600551E+03  0.12190026008E+03  0.10000000000E+01 0.  0.
    9000005    1    3    3    0    0 -0.51146447915E+02  0.29700803083E+02  0.43513432546E+02  0.73433750074E+02  0.10000000000E+01 0.  0.
<mgrwt>
<rscale>  0 0.12500214E+03</rscale>
<asrwt>0</asrwt>
<pdfrwt beam="2">  1        4 0.34795825E-02 0.12500214E+03</pdfrwt>
<pdfrwt beam="1">  1       -4 0.26571803E-01 0.12500214E+03</pdfrwt>
<totfact> 0.90923058E+03</totfact>
</mgrwt>
</event>
<event>
 5    1  0.3316199E-002  0.1250167E+03  0.7818608E-02  0.1235043E+00
         -4   -1    0    0    0  501 -0.00000000000E+00  0.00000000000E+00  0.10086122618E+02  0.10165764578E+02  0.12700000000E+01 0.  1.
          4   -1    0    0  501    0  0.00000000000E+00 -0.00000000000E+00 -0.38578889054E+03  0.38579098093E+03  0.12700000000E+01 0.  1.
         25    2    1    2    0    0  0.00000000000E+00  0.00000000000E+00 -0.37570276792E+03  0.39595674551E+03  0.12501669683E+03 0.  0.
    9000005    1    3    3    0    0 -0.42594209217E+02  0.42762200671E+02 -0.13644642081E+03  0.14920287604E+03  0.10000000000E+01 0.  0.
    9000005    1    3    3    0    0  0.42594209217E+02 -0.42762200671E+02 -0.23925634711E+03  0.24675386947E+03  0.10000000000E+01 0.  0.
<mgrwt>
<rscale>  0 0.12501670E+03</rscale>
<asrwt>0</asrwt>
<pdfrwt beam="2">  1        4 0.59358413E-01 0.12501670E+03</pdfrwt>
<pdfrwt beam="1">  1       -4 0.15579986E-02 0.12501670E+03</pdfrwt>
<totfact> 0.64924006E+03</totfact>
</mgrwt>
</event>
<event>
 5    1  0.3316199E-002  0.1250021E+03  0.7818608E-02  0.1235066E+00
         -4   -1    0    0    0  501 -0.00000000000E+00  0.00000000000E+00  0.74631289642E+02  0.74642094649E+02  0.12700000000E+01 0. -1.
          4   -1    0    0  501    0  0.00000000000E+00 -0.00000000000E+00 -0.52320092656E+02  0.52335504158E+02  0.12700000000E+01 0. -1.
         25    2    1    2    0    0  0.00000000000E+00  0.00000000000E+00  0.22311196986E+02  0.12697759881E+03  0.12500208433E+03 0.  0.
    9000005    1    3    3    0    0 -0.21744331647E+02  0.51745896265E+02 -0.16754553415E+02  0.58584714723E+02  0.10000000000E+01 0.  0.
    9000005    1    3    3    0    0  0.21744331647E+02 -0.51745896265E+02  0.39065750401E+02  0.68392884085E+02  0.10000000000E+01 0.  0.
<mgrwt>
<rscale>  0 0.12500208E+03</rscale>
<asrwt>0</asrwt>
<pdfrwt beam="2">  1        4 0.80512617E-02 0.12500208E+03</pdfrwt>
<pdfrwt beam="1">  1       -4 0.11483753E-01 0.12500208E+03</pdfrwt>
<totfact> 0.10409143E+04</totfact>
</mgrwt>
</event>
<event>
 5    1  0.3316199E-002  0.1250099E+03  0.7818608E-02  0.1235054E+00
         -4   -1    0    0    0  501 -0.00000000000E+00  0.00000000000E+00  0.29120539018E+01  0.31769415995E+01  0.12700000000E+01 0.  1.
          4   -1    0    0  501    0  0.00000000000E+00 -0.00000000000E+00 -0.12829900190E+04  0.12829906475E+04  0.12700000000E+01 0.  1.
         25    2    1    2    0    0  0.00000000000E+00  0.00000000000E+00 -0.12800779651E+04  0.12861675891E+04  0.12500988241E+03 0.  0.
    9000005    1    3    3    0    0 -0.15789836053E+02  0.75502526434E+00 -0.12621315928E+04  0.12622309799E+04  0.10000000000E+01 0.  0.
    9000005    1    3    3    0    0  0.15789836053E+02 -0.75502526434E+00 -0.17946372244E+02  0.23936609251E+02  0.10000000000E+01 0.  0.
<mgrwt>
<rscale>  0 0.12500988E+03</rscale>
<asrwt>0</asrwt>
<pdfrwt beam="2">  1        4 0.19740307E+00 0.12500988E+03</pdfrwt>
<pdfrwt beam="1">  1       -4 0.46843365E-03 0.12500988E+03</pdfrwt>
<totfact> 0.22552559E+03</totfact>
</mgrwt>
</event>
<event>
 5    1  0.3316199E-002  0.1249987E+03  0.7818608E-02  0.1235071E+00
          4   -1    0    0  501    0  0.00000000000E+00  0.00000000000E+00  0.45377376060E+03  0.45377553781E+03  0.12700000000E+01 0. -1.
         -4   -1    0    0    0  501 -0.00000000000E+00 -0.00000000000E+00 -0.85595395463E+01  0.86532431633E+01  0.12700000000E+01 0. -1.
         25    2    1    2    0    0  0.00000000000E+00  0.00000000000E+00  0.44521422106E+03  0.46242878097E+03  0.12499869935E+03 0.  0.
    9000005    1    3    3    0    0  0.35991720515E+02  0.25860547934E+02  0.59620557676E+02  0.74295240646E+02  0.10000000000E+01 0.  0.
    9000005    1    3    3    0    0 -0.35991720515E+02 -0.25860547934E+02  0.38559366338E+03  0.38813354032E+03  0.10000000000E+01 0.  0.
<mgrwt>
<rscale>  0 0.12499870E+03</rscale>
<asrwt>0</asrwt>
<pdfrwt beam="1">  1        4 0.69818694E-01 0.12499870E+03</pdfrwt>
<pdfrwt beam="2">  1       -4 0.13241969E-02 0.12499870E+03</pdfrwt>
<totfact> 0.58903696E+03</totfact>
</mgrwt>
</event>
<event>
 5    1  0.3316199E-002  0.1250014E+03  0.7818608E-02  0.1235067E+00
          4   -1    0    0  501    0  0.00000000000E+00  0.00000000000E+00  0.10137191309E+03  0.10137986813E+03  0.12700000000E+01 0. -1.
         -4   -1    0    0    0  501 -0.00000000000E+00 -0.00000000000E+00 -0.38514750986E+02  0.38535684028E+02  0.12700000000E+01 0. -1.
         25    2    1    2    0    0  0.00000000000E+00  0.00000000000E+00  0.62857162101E+02  0.13991555216E+03  0.12500135563E+03 0.  0.
    9000005    1    3    3    0    0  0.33553019354E+02  0.35625150213E+02  0.74929069682E+02  0.89500401780E+02  0.10000000000E+01 0.  0.
    9000005    1    3    3    0    0 -0.33553019354E+02 -0.35625150213E+02 -0.12071907581E+02  0.50415150382E+02  0.10000000000E+01 0.  0.
<mgrwt>
<rscale>  0 0.12500136E+03</rscale>
<asrwt>0</asrwt>
<pdfrwt beam="1">  1        4 0.15597901E-01 0.12500136E+03</pdfrwt>
<pdfrwt beam="2">  1       -4 0.59275684E-02 0.12500136E+03</pdfrwt>
<totfact> 0.10135027E+04</totfact>
</mgrwt>
</event>
<event>
 5    1  0.3316199E-002  0.1250021E+03  0.7818608E-02  0.1235066E+00
         -4   -1    0    0    0  501 -0.00000000000E+00  0.00000000000E+00  0.12180287343E+03  0.12180949419E+03  0.12700000000E+01 0.  1.
          4   -1    0    0  501    0  0.00000000000E+00 -0.00000000000E+00 -0.32051249840E+02  0.32076401237E+02  0.12700000000E+01 0.  1.
         25    2    1    2    0    0  0.00000000000E+00  0.00000000000E+00  0.89751623590E+02  0.15388589543E+03  0.12500205948E+03 0.  0.
    9000005    1    3    3    0    0  0.27334259626E+02 -0.37129481381E+02  0.96809015371E+02  0.10723220409E+03  0.10000000000E+01 0.  0.
    9000005    1    3    3    0    0 -0.27334259626E+02  0.37129481381E+02 -0.70573917812E+01  0.46653691340E+02  0.10000000000E+01 0.  0.
<mgrwt>
<rscale>  0 0.12500206E+03</rscale>
<asrwt>0</asrwt>
<pdfrwt beam="2">  1        4 0.49334055E-02 0.12500206E+03</pdfrwt>
<pdfrwt beam="1">  1       -4 0.18741348E-01 0.12500206E+03</pdfrwt>
<totfact> 0.98530092E+03</totfact>
</mgrwt>
</event>
<event>
 5    1  0.3316199E-002  0.1250119E+03  0.7818608E-02  0.1235051E+00
         -4   -1    0    0    0  501 -0.00000000000E+00  0.00000000000E+00  0.51615899187E+02  0.51631520885E+02  0.12700000000E+01 0.  1.
          4   -1    0    0  501    0  0.00000000000E+00 -0.00000000000E+00 -0.75661167700E+02  0.75671825653E+02  0.12700000000E+01 0.  1.
         25    2    1    2    0    0  0.00000000000E+00  0.00000000000E+00 -0.24045268512E+02  0.12730334654E+03  0.12501186784E+03 0.  0.
    9000005    1    3    3    0    0  0.41972821014E+02 -0.44406398756E+02 -0.25391327407E+02  0.66176774338E+02  0.10000000000E+01 0.  0.
    9000005    1    3    3    0    0 -0.41972821014E+02  0.44406398756E+02  0.13460588943E+01  0.61126572200E+02  0.10000000000E+01 0.  0.
<mgrwt>
<rscale>  0 0.12501187E+03</rscale>
<asrwt>0</asrwt>
<pdfrwt beam="2">  1        4 0.11642201E-01 0.12501187E+03</pdfrwt>
<pdfrwt beam="1">  1       -4 0.79429291E-02 0.12501187E+03</pdfrwt>
<totfact> 0.10399775E+04</totfact>
</mgrwt>
</event>
<event>
 5    1  0.3316199E-002  0.1249943E+03  0.7818608E-02  0.1235078E+00
         -4   -1    0    0    0  501 -0.00000000000E+00  0.00000000000E+00  0.28753045693E+03  0.28753326166E+03  0.12700000000E+01 0.  1.
          4   -1    0    0  501    0  0.00000000000E+00 -0.00000000000E+00 -0.13551725846E+02  0.13611104783E+02  0.12700000000E+01 0.  1.
         25    2    1    2    0    0  0.00000000000E+00  0.00000000000E+00  0.27397873109E+03  0.30114436645E+03  0.12499433730E+03 0.  0.
    9000005    1    3    3    0    0  0.25709204613E+01 -0.59331317484E+02  0.90142886062E+02  0.10795163164E+03  0.10000000000E+01 0.  0.
    9000005    1    3    3    0    0 -0.25709204613E+01  0.59331317484E+02  0.18383584502E+03  0.19319273481E+03  0.10000000000E+01 0.  0.
<mgrwt>
<rscale>  0 0.12499434E+03</rscale>
<asrwt>0</asrwt>
<pdfrwt beam="2">  1        4 0.20896644E-02 0.12499434E+03</pdfrwt>
<pdfrwt beam="1">  1       -4 0.44240235E-01 0.12499434E+03</pdfrwt>
<totfact> 0.75465002E+03</totfact>
</mgrwt>
</event>
<event>
 5    1  0.3316199E-002  0.1249994E+03  0.7818608E-02  0.1235070E+00
         -4   -1    0    0    0  501 -0.00000000000E+00  0.00000000000E+00  0.18616396579E+02  0.18659665634E+02  0.12700000000E+01 0. -1.
          4   -1    0    0  501    0  0.00000000000E+00 -0.00000000000E+00 -0.20953784667E+03  0.20954169534E+03  0.12700000000E+01 0. -1.
         25    2    1    2    0    0  0.00000000000E+00  0.00000000000E+00 -0.19092145009E+03  0.22820136098E+03  0.12499944419E+03 0.  0.
    9000005    1    3    3    0    0  0.25721946399E+02  0.50257162954E+02 -0.14437281312E+03  0.15502228911E+03  0.10000000000E+01 0.  0.
    9000005    1    3    3    0    0 -0.25721946399E+02 -0.50257162954E+02 -0.46548636976E+02  0.73179071865E+02  0.10000000000E+01 0.  0.
<mgrwt>
<rscale>  0 0.12499944E+03</rscale>
<asrwt>0</asrwt>
<pdfrwt beam="2">  1        4 0.32240215E-01 0.12499944E+03</pdfrwt>
<pdfrwt beam="1">  1       -4 0.28676856E-02 0.12499944E+03</pdfrwt>
<totfact> 0.85587609E+03</totfact>
</mgrwt>
</event>
<event>
 5    1  0.3316199E-002  0.1249970E+03  0.7818608E-02  0.1235074E+00
         -4   -1    0    0    0  501 -0.00000000000E+00  0.00000000000E+00  0.63986258447E+02  0.63998860693E+02  0.12700000000E+01 0. -1.
          4   -1    0    0  501    0  0.00000000000E+00 -0.00000000000E+00 -0.61020130484E+02  0.61033345183E+02  0.12700000000E+01 0. -1.
         25    2    1    2    0    0  0.00000000000E+00  0.00000000000E+00  0.29661279633E+01  0.12503220588E+03  0.12499701833E+03 0.  0.
    9000005    1    3    3    0    0 -0.35972251499E+02 -0.17672990897E+02  0.49441593570E+02  0.63653818895E+02  0.10000000000E+01 0.  0.
    9000005    1    3    3    0    0  0.35972251499E+02  0.17672990897E+02 -0.46475465607E+02  0.61378386982E+02  0.10000000000E+01 0.  0.
<mgrwt>
<rscale>  0 0.12499702E+03</rscale>
<asrwt>0</asrwt>
<pdfrwt beam="2">  1        4 0.93896983E-02 0.12499702E+03</pdfrwt>
<pdfrwt beam="1">  1       -4 0.98460257E-02 0.12499702E+03</pdfrwt>
<totfact> 0.10452867E+04</totfact>
</mgrwt>
</event>
<event>
 5    1  0.3316199E-002  0.1250000E+03  0.7818608E-02  0.1235069E+00
          4   -1    0    0  501    0  0.00000000000E+00  0.00000000000E+00  0.21933665445E+03  0.21934033119E+03  0.12700000000E+01 0. -1.
         -4   -1    0    0    0  501 -0.00000000000E+00 -0.00000000000E+00 -0.17782904179E+02  0.17828196236E+02  0.12700000000E+01 0. -1.
         25    2    1    2    0    0  0.00000000000E+00  0.00000000000E+00  0.20155375027E+03  0.23716852743E+03  0.12499998461E+03 0.  0.
    9000005    1    3    3    0    0 -0.39562911044E+00 -0.26443699331E+02  0.20820472580E+03  0.20988004575E+03  0.10000000000E+01 0.  0.
    9000005    1    3    3    0    0  0.39562911044E+00  0.26443699331E+02 -0.66509755305E+01  0.27288481677E+02  0.10000000000E+01 0.  0.
<mgrwt>
<rscale>  0 0.12499998E+03</rscale>
<asrwt>0</asrwt>
<pdfrwt beam="1">  1        4 0.33747866E-01 0.12499998E+03</pdfrwt>
<pdfrwt beam="2">  1       -4 0.27395984E-02 0.12499998E+03</pdfrwt>
<totfact> 0.84220909E+03</totfact>
</mgrwt>
</event>
<event>
 5    1  0.3316199E-002  0.1250024E+03  0.7818608E-02  0.1235065E+00
         -4   -1    0    0    0  501 -0.00000000000E+00  0.00000000000E+00  0.76801369823E+01  0.77844334454E+01  0.12700000000E+01 0. -1.
          4   -1    0    0  501    0  0.00000000000E+00 -0.00000000000E+00 -0.50510159716E+03  0.50510319377E+03  0.12700000000E+01 0. -1.
         25    2    1    2    0    0  0.00000000000E+00  0.00000000000E+00 -0.49742146018E+03  0.51288762721E+03  0.12500243639E+03 0.  0.
    9000005    1    3    3    0    0 -0.39036136271E+02 -0.21676572678E+02 -0.42810748564E+03  0.43043084578E+03  0.10000000000E+01 0.  0.
    9000005    1    3    3    0    0  0.39036136271E+02  0.21676572678E+02 -0.69313974541E+02  0.82456781435E+02  0.10000000000E+01 0.  0.
<mgrwt>
<rscale>  0 0.12500244E+03</rscale>
<asrwt>0</asrwt>
<pdfrwt beam="2">  1        4 0.77716057E-01 0.12500244E+03</pdfrwt>
<pdfrwt beam="1">  1       -4 0.11897056E-02 0.12500244E+03</pdfrwt>
<totfact> 0.54875201E+03</totfact>
</mgrwt>
</event>
<event>
 5    1  0.3316199E-002  0.1249995E+03  0.7818608E-02  0.1235070E+00
          4   -1    0    0  501    0  0.00000000000E+00  0.00000000000E+00  0.34052918909E+02  0.34076592937E+02  0.12700000000E+01 0. -1.
         -4   -1    0    0    0  501 -0.00000000000E+00 -0.00000000000E+00 -0.11464311506E+03  0.11465014928E+03  0.12700000000E+01 0. -1.
         25    2    1    2    0    0  0.00000000000E+00  0.00000000000E+00 -0.80590196151E+02  0.14872674222E+03  0.12499945654E+03 0.  0.
    9000005    1    3    3    0    0 -0.21455187604E+02 -0.91965024824E+01  0.28676605805E+02  0.36989842573E+02  0.10000000000E+01 0.  0.
    9000005    1    3    3    0    0  0.21455187604E+02  0.91965024824E+01 -0.10926680196E+03  0.11173689965E+03  0.10000000000E+01 0.  0.
<mgrwt>
<rscale>  0 0.12499946E+03</rscale>
<asrwt>0</asrwt>
<pdfrwt beam="1">  1        4 0.52412728E-02 0.12499946E+03</pdfrwt>
<pdfrwt beam="2">  1       -4 0.17639764E-01 0.12499946E+03</pdfrwt>
<totfact> 0.99559328E+03</totfact>
</mgrwt>
</event>
<event>
 5    1  0.3316199E-002  0.1250058E+03  0.7818608E-02  0.1235060E+00
          4   -1    0    0  501    0  0.00000000000E+00  0.00000000000E+00  0.55070734348E+02  0.55085376296E+02  0.12700000000E+01 0. -1.
         -4   -1    0    0    0  501 -0.00000000000E+00 -0.00000000000E+00 -0.70908314668E+02  0.70919686893E+02  0.12700000000E+01 0. -1.
         25    2    1    2    0    0  0.00000000000E+00  0.00000000000E+00 -0.15837580320E+02  0.12600506319E+03  0.12500578786E+03 0.  0.
    9000005    1    3    3    0    0 -0.24878719301E+02 -0.50322581101E+02  0.19765259145E+02  0.59522922574E+02  0.10000000000E+01 0.  0.
    9000005    1    3    3    0    0  0.24878719301E+02  0.50322581101E+02 -0.35602839465E+02  0.66482140614E+02  0.10000000000E+01 0.  0.
<mgrwt>
<rscale>  0 0.12500579E+03</rscale>
<asrwt>0</asrwt>
<pdfrwt beam="1">  1        4 0.84744217E-02 0.12500579E+03</pdfrwt>
<pdfrwt beam="2">  1       -4 0.10910973E-01 0.12500579E+03</pdfrwt>
<totfact> 0.10429484E+04</totfact>
</mgrwt>
</event>
<event>
 5    1  0.3316199E-002  0.1249891E+03  0.7818608E-02  0.1235086E+00
          4   -1    0    0  501    0  0.00000000000E+00  0.00000000000E+00  0.18865217526E+02  0.18907917186E+02  0.12700000000E+01 0.  1.
         -4   -1    0    0    0  501 -0.00000000000E+00 -0.00000000000E+00 -0.20674608139E+03  0.20674998203E+03  0.12700000000E+01 0.  1.
         25    2    1    2    0    0  0.00000000000E+00  0.00000000000E+00 -0.18788086387E+03  0.22565789922E+03  0.12498907341E+03 0.  0.
    9000005    1    3    3    0    0 -0.47863611021E+02 -0.32446280613E+02 -0.51182789319E+02  0.77229296954E+02  0.10000000000E+01 0.  0.
    9000005    1    3    3    0    0  0.47863611021E+02  0.32446280613E+02 -0.13669807455E+03  0.14842860227E+03  0.10000000000E+01 0.  0.
<mgrwt>
<rscale>  0 0.12498907E+03</rscale>
<asrwt>0</asrwt>
<pdfrwt beam="1">  1        4 0.29059260E-02 0.12498907E+03</pdfrwt>
<pdfrwt beam="2">  1       -4 0.31810672E-01 0.12498907E+03</pdfrwt>
<totfact> 0.86001794E+03</totfact>
</mgrwt>
</event>
<event>
 5    1  0.3316199E-002  0.1249990E+03  0.7818608E-02  0.1235071E+00
         -4   -1    0    0    0  501 -0.00000000000E+00  0.00000000000E+00  0.85056961676E+02  0.85066442441E+02  0.12700000000E+01 0. -1.
          4   -1    0    0  501    0  0.00000000000E+00 -0.00000000000E+00 -0.45903534156E+02  0.45921099159E+02  0.12700000000E+01 0. -1.
         25    2    1    2    0    0  0.00000000000E+00  0.00000000000E+00  0.39153427520E+02  0.13098754160E+03  0.12499898067E+03 0.  0.
    9000005    1    3    3    0    0  0.19648539434E+02 -0.59079456192E+02  0.13958998861E+02  0.63814582150E+02  0.10000000000E+01 0.  0.
    9000005    1    3    3    0    0 -0.19648539434E+02  0.59079456192E+02  0.25194428659E+02  0.67172959450E+02  0.10000000000E+01 0.  0.
<mgrwt>
<rscale>  0 0.12499898E+03</rscale>
<asrwt>0</asrwt>
<pdfrwt beam="2">  1        4 0.70641627E-02 0.12499898E+03</pdfrwt>
<pdfrwt beam="1">  1       -4 0.13087767E-01 0.12499898E+03</pdfrwt>
<totfact> 0.10323594E+04</totfact>
</mgrwt>
</event>
<event>
 5    1  0.3316199E-002  0.1249591E+03  0.7818608E-02  0.1235133E+00
         -4   -1    0    0    0  501 -0.00000000000E+00  0.00000000000E+00  0.12830364347E+04  0.12830370633E+04  0.12700000000E+01 0. -1.
          4   -1    0    0  501    0  0.00000000000E+00 -0.00000000000E+00 -0.29093573788E+01  0.31744700908E+01  0.12700000000E+01 0. -1.
         25    2    1    2    0    0  0.00000000000E+00  0.00000000000E+00  0.12801270773E+04  0.12862115334E+04  0.12495909092E+03 0.  0.
    9000005    1    3    3    0    0 -0.12444439530E+02  0.58851600779E+02  0.46650451952E+03  0.47036777283E+03  0.10000000000E+01 0.  0.
    9000005    1    3    3    0    0  0.12444439530E+02 -0.58851600779E+02  0.81362255782E+03  0.81584376052E+03  0.10000000000E+01 0.  0.
<mgrwt>
<rscale>  0 0.12495909E+03</rscale>
<asrwt>0</asrwt>
<pdfrwt beam="2">  1        4 0.46803552E-03 0.12495909E+03</pdfrwt>
<pdfrwt beam="1">  1       -4 0.19741048E+00 0.12495909E+03</pdfrwt>
<totfact> 0.22576482E+03</totfact>
</mgrwt>
</event>
<event>
 5    1  0.3316199E-002  0.1249983E+03  0.7818608E-02  0.1235072E+00
          4   -1    0    0  501    0  0.00000000000E+00  0.00000000000E+00  0.56366433413E+02  0.56380738871E+02  0.12700000000E+01 0. -1.
         -4   -1    0    0    0  501 -0.00000000000E+00 -0.00000000000E+00 -0.69270160348E+02  0.69281801468E+02  0.12700000000E+01 0. -1.
         25    2    1    2    0    0  0.00000000000E+00  0.00000000000E+00 -0.12903726935E+02  0.12566254034E+03  0.12499827149E+03 0.  0.
    9000005    1    3    3    0    0  0.49872821537E+00 -0.60731610959E+02  0.83424777433E+01  0.61312105121E+02  0.10000000000E+01 0.  0.
    9000005    1    3    3    0    0 -0.49872821537E+00  0.60731610959E+02 -0.21246204679E+02  0.64350435218E+02  0.10000000000E+01 0.  0.
<mgrwt>
<rscale>  0 0.12499827E+03</rscale>
<asrwt>0</asrwt>
<pdfrwt beam="1">  1        4 0.86737549E-02 0.12499827E+03</pdfrwt>
<pdfrwt beam="2">  1       -4 0.10658944E-01 0.12499827E+03</pdfrwt>
<totfact> 0.10438776E+04</totfact>
</mgrwt>
</event>
<event>
 5    1  0.3316199E-002  0.1249986E+03  0.7818608E-02  0.1235071E+00
          4   -1    0    0  501    0  0.00000000000E+00  0.00000000000E+00  0.12821888279E+01  0.18046906080E+01  0.12700000000E+01 0.  1.
         -4   -1    0    0    0  501 -0.00000000000E+00 -0.00000000000E+00 -0.25302955054E+04  0.25302958241E+04  0.12700000000E+01 0.  1.
         25    2    1    2    0    0  0.00000000000E+00  0.00000000000E+00 -0.25290133165E+04  0.25321005147E+04  0.12499864509E+03 0.  0.
    9000005    1    3    3    0    0 -0.78405342691E+00  0.16765466034E+02 -0.24838835335E+04  0.24839404388E+04  0.10000000000E+01 0.  0.
    9000005    1    3    3    0    0  0.78405342691E+00 -0.16765466034E+02 -0.45129783006E+02  0.48160075844E+02  0.10000000000E+01 0.  0.
<mgrwt>
<rscale>  0 0.12499865E+03</rscale>
<asrwt>0</asrwt>
<pdfrwt beam="1">  1        4 0.23747881E-03 0.12499865E+03</pdfrwt>
<pdfrwt beam="2">  1       -4 0.38931313E+00 0.12499865E+03</pdfrwt>
<totfact> 0.44223210E+02</totfact>
</mgrwt>
</event>
<event>
 5    1  0.3316199E-002  0.1249984E+03  0.7818608E-02  0.1235072E+00
          4   -1    0    0  501    0  0.00000000000E+00  0.00000000000E+00  0.40627970568E+02  0.40647815347E+02  0.12700000000E+01 0. -1.
         -4   -1    0    0    0  501 -0.00000000000E+00 -0.00000000000E+00 -0.96096801403E+02  0.96105193095E+02  0.12700000000E+01 0. -1.
         25    2    1    2    0    0  0.00000000000E+00  0.00000000000E+00 -0.55468830835E+02  0.13675300844E+03  0.12499837648E+03 0.  0.
    9000005    1    3    3    0    0  0.38056600270E+02 -0.49419701365E+02 -0.23563155239E+02  0.66684585865E+02  0.10000000000E+01 0.  0.
    9000005    1    3    3    0    0 -0.38056600270E+02  0.49419701365E+02 -0.31905675595E+02  0.70068422577E+02  0.10000000000E+01 0.  0.
<mgrwt>
<rscale>  0 0.12499838E+03</rscale>
<asrwt>0</asrwt>
<pdfrwt beam="1">  1        4 0.62526291E-02 0.12499838E+03</pdfrwt>
<pdfrwt beam="2">  1       -4 0.14786295E-01 0.12499838E+03</pdfrwt>
<totfact> 0.10201626E+04</totfact>
</mgrwt>
</event>
<event>
 5    1  0.3316199E-002  0.1250118E+03  0.7818608E-02  0.1235051E+00
          4   -1    0    0  501    0  0.00000000000E+00  0.00000000000E+00  0.75355546110E+02  0.75366247283E+02  0.12700000000E+01 0.  1.
         -4   -1    0    0    0  501 -0.00000000000E+00 -0.00000000000E+00 -0.51825213480E+02  0.51840772103E+02  0.12700000000E+01 0.  1.
         25    2    1    2    0    0  0.00000000000E+00  0.00000000000E+00  0.23530332630E+02  0.12720701939E+03  0.12501179635E+03 0.  0.
    9000005    1    3    3    0    0 -0.96153192220E+01 -0.57538459209E+02  0.34583453704E+02  0.67824360829E+02  0.10000000000E+01 0.  0.
    9000005    1    3    3    0    0  0.96153192220E+01  0.57538459209E+02 -0.11053121074E+02  0.59382658557E+02  0.10000000000E+01 0.  0.
<mgrwt>
<rscale>  0 0.12501180E+03</rscale>
<asrwt>0</asrwt>
<pdfrwt beam="1">  1        4 0.11595181E-01 0.12501180E+03</pdfrwt>
<pdfrwt beam="2">  1       -4 0.79751297E-02 0.12501180E+03</pdfrwt>
<totfact> 0.10401881E+04</totfact>
</mgrwt>
</event>
<event>
 5    1  0.3316199E-002  0.1250003E+03  0.7818608E-02  0.1235069E+00
         -4   -1    0    0    0  501 -0.00000000000E+00  0.00000000000E+00  0.37619230334E+02  0.37640661404E+02  0.12700000000E+01 0.  1.
          4   -1    0    0  501    0  0.00000000000E+00 -0.00000000000E+00 -0.10378209997E+03  0.10378987029E+03  0.12700000000E+01 0.  1.
         25    2    1    2    0    0  0.00000000000E+00  0.00000000000E+00 -0.66162869637E+02  0.14143053169E+03  0.12500027990E+03 0.  0.
    9000005    1    3    3    0    0  0.35328194059E+02 -0.28489801735E+02  0.15524719360E+02  0.47976734045E+02  0.10000000000E+01 0.  0.
    9000005    1    3    3    0    0 -0.35328194059E+02  0.28489801735E+02 -0.81687588998E+02  0.93453797647E+02  0.10000000000E+01 0.  0.
<mgrwt>
<rscale>  0 0.12500028E+03</rscale>
<asrwt>0</asrwt>
<pdfrwt beam="2">  1        4 0.15968723E-01 0.12500028E+03</pdfrwt>
<pdfrwt beam="1">  1       -4 0.57898202E-02 0.12500028E+03</pdfrwt>
<totfact> 0.10103959E+04</totfact>
</mgrwt>
</event>
<event>
 5    1  0.3316199E-002  0.1249994E+03  0.7818608E-02  0.1235070E+00
         -4   -1    0    0    0  501 -0.00000000000E+00  0.00000000000E+00  0.46148753329E+02  0.46166225033E+02  0.12700000000E+01 0. -1.
          4   -1    0    0  501    0  0.00000000000E+00 -0.00000000000E+00 -0.84605692363E+02  0.84615223691E+02  0.12700000000E+01 0. -1.
         25    2    1    2    0    0  0.00000000000E+00  0.00000000000E+00 -0.38456939035E+02  0.13078144872E+03  0.12499940468E+03 0.  0.
    9000005    1    3    3    0    0  0.13385286388E+02  0.22103376410E+02 -0.78759343647E+02  0.82896075614E+02  0.10000000000E+01 0.  0.
    9000005    1    3    3    0    0 -0.13385286388E+02 -0.22103376410E+02  0.40302404613E+02  0.47885373111E+02  0.10000000000E+01 0.  0.
<mgrwt>
<rscale>  0 0.12499940E+03</rscale>
<asrwt>0</asrwt>
<pdfrwt beam="2">  1        4 0.13018337E-01 0.12499940E+03</pdfrwt>
<pdfrwt beam="1">  1       -4 0.71018854E-02 0.12499940E+03</pdfrwt>
<totfact> 0.10327916E+04</totfact>
</mgrwt>
</event>
<event>
 5    1  0.3316199E-002  0.1249924E+03  0.7818608E-02  0.1235081E+00
         -4   -1    0    0    0  501 -0.00000000000E+00  0.00000000000E+00  0.14090762937E+04  0.14090768661E+04  0.12700000000E+01 0.  1.
          4   -1    0    0  501    0  0.00000000000E+00 -0.00000000000E+00 -0.26257934066E+01  0.29167946473E+01  0.12700000000E+01 0.  1.
         25    2    1    2    0    0  0.00000000000E+00  0.00000000000E+00  0.14064505003E+04  0.14119936607E+04  0.12499235178E+03 0.  0.
    9000005    1    3    3    0    0 -0.49813702924E+02  0.36780257171E+02  0.79813026541E+03  0.80052927047E+03  0.10000000000E+01 0.  0.
    9000005    1    3    3    0    0  0.49813702924E+02 -0.36780257171E+02  0.60832023491E+03  0.61146439023E+03  0.10000000000E+01 0.  0.
<mgrwt>
<rscale>  0 0.12499235E+03</rscale>
<asrwt>0</asrwt>
<pdfrwt beam="2">  1        4 0.42639666E-03 0.12499235E+03</pdfrwt>
<pdfrwt beam="1">  1       -4 0.21680355E+00 0.12499235E+03</pdfrwt>
<totfact> 0.19728276E+03</totfact>
</mgrwt>
</event>
<event>
 5    1  0.3316199E-002  0.1250026E+03  0.7818608E-02  0.1235065E+00
         -4   -1    0    0    0  501 -0.00000000000E+00  0.00000000000E+00  0.50850913726E+02  0.50866770359E+02  0.12700000000E+01 0. -1.
          4   -1    0    0  501    0  0.00000000000E+00 -0.00000000000E+00 -0.76787774156E+02  0.76798275761E+02  0.12700000000E+01 0. -1.
         25    2    1    2    0    0  0.00000000000E+00  0.00000000000E+00 -0.25936860430E+02  0.12766504612E+03  0.12500257306E+03 0.  0.
    9000005    1    3    3    0    0  0.44807890382E+02 -0.38808156122E+02 -0.33178568797E+02  0.67938482832E+02  0.10000000000E+01 0.  0.
    9000005    1    3    3    0    0 -0.44807890382E+02  0.38808156122E+02  0.72417083674E+01  0.59726563288E+02  0.10000000000E+01 0.  0.
<mgrwt>
<rscale>  0 0.12500257E+03</rscale>
<asrwt>0</asrwt>
<pdfrwt beam="2">  1        4 0.11815531E-01 0.12500257E+03</pdfrwt>
<pdfrwt beam="1">  1       -4 0.78252450E-02 0.12500257E+03</pdfrwt>
<totfact> 0.10394124E+04</totfact>
</mgrwt>
</event>
<event>
 5    1  0.3316199E-002  0.1250019E+03  0.7818608E-02  0.1235066E+00
          4   -1    0    0  501    0  0.00000000000E+00  0.00000000000E+00  0.21602818237E+02  0.21640116815E+02  0.12700000000E+01 0.  1.
         -4   -1    0    0    0  501 -0.00000000000E+00 -0.00000000000E+00 -0.18063119587E+03  0.18063566043E+03  0.12700000000E+01 0.  1.
         25    2    1    2    0    0  0.00000000000E+00  0.00000000000E+00 -0.15902837763E+03  0.20227577725E+03  0.12500186067E+03 0.  0.
    9000005    1    3    3    0    0 -0.51704478744E+02  0.16618376087E+02 -0.29485326663E+02  0.61805404572E+02  0.10000000000E+01 0.  0.
    9000005    1    3    3    0    0  0.51704478744E+02 -0.16618376087E+02 -0.12954305097E+03  0.14047037267E+03  0.10000000000E+01 0.  0.
<mgrwt>
<rscale>  0 0.12500186E+03</rscale>
<asrwt>0</asrwt>
<pdfrwt beam="1">  1        4 0.33267232E-02 0.12500186E+03</pdfrwt>
<pdfrwt beam="2">  1       -4 0.27792626E-01 0.12500186E+03</pdfrwt>
<totfact> 0.89749357E+03</totfact>
</mgrwt>
</event>
<event>
 5    1  0.3316199E-002  0.1249993E+03  0.7818608E-02  0.1235070E+00
          4   -1    0    0  501    0  0.00000000000E+00  0.00000000000E+00  0.61023553570E+02  0.61036767529E+02  0.12700000000E+01 0.  1.
         -4   -1    0    0    0  501 -0.00000000000E+00 -0.00000000000E+00 -0.63984987889E+02  0.63997590385E+02  0.12700000000E+01 0.  1.
         25    2    1    2    0    0  0.00000000000E+00  0.00000000000E+00 -0.29614343183E+01  0.12503435791E+03  0.12499928226E+03 0.  0.
    9000005    1    3    3    0    0  0.47518952987E+02 -0.40504852644E+02 -0.40331307954E+01  0.62577632783E+02  0.10000000000E+01 0.  0.
    9000005    1    3    3    0    0 -0.47518952987E+02  0.40504852644E+02  0.10716964771E+01  0.62456725131E+02  0.10000000000E+01 0.  0.
<mgrwt>
<rscale>  0 0.12499928E+03</rscale>
<asrwt>0</asrwt>
<pdfrwt beam="1">  1        4 0.93902248E-02 0.12499928E+03</pdfrwt>
<pdfrwt beam="2">  1       -4 0.98458302E-02 0.12499928E+03</pdfrwt>
<totfact> 0.10452286E+04</totfact>
</mgrwt>
</event>
<event>
 5    1  0.3316199E-002  0.1249964E+03  0.7818608E-02  0.1235075E+00
         -4   -1    0    0    0  501 -0.00000000000E+00  0.00000000000E+00  0.90967138466E+02  0.90976003323E+02  0.12700000000E+01 0. -1.
          4   -1    0    0  501    0  0.00000000000E+00 -0.00000000000E+00 -0.42918528226E+02  0.42937314367E+02  0.12700000000E+01 0. -1.
         25    2    1    2    0    0  0.00000000000E+00  0.00000000000E+00  0.48048610240E+02  0.13391331769E+03  0.12499643078E+03 0.  0.
    9000005    1    3    3    0    0 -0.58794590177E+02 -0.89522432982E+00  0.46685596929E+02  0.75087616964E+02  0.10000000000E+01 0.  0.
    9000005    1    3    3    0    0  0.58794590177E+02  0.89522432982E+00  0.13630133110E+01  0.58825700726E+02  0.10000000000E+01 0.  0.
<mgrwt>
<rscale>  0 0.12499643E+03</rscale>
<asrwt>0</asrwt>
<pdfrwt beam="2">  1        4 0.66049775E-02 0.12499643E+03</pdfrwt>
<pdfrwt beam="1">  1       -4 0.13997071E-01 0.12499643E+03</pdfrwt>
<totfact> 0.10261853E+04</totfact>
</mgrwt>
</event>
<event>
 5    1  0.3316199E-002  0.1249852E+03  0.7818608E-02  0.1235092E+00
          4   -1    0    0  501    0  0.00000000000E+00  0.00000000000E+00  0.89440662244E+01  0.90337821883E+01  0.12700000000E+01 0.  1.
         -4   -1    0    0    0  501 -0.00000000000E+00 -0.00000000000E+00 -0.43436911604E+03  0.43437097264E+03  0.12700000000E+01 0.  1.
         25    2    1    2    0    0  0.00000000000E+00  0.00000000000E+00 -0.42542504982E+03  0.44340475482E+03  0.12498521349E+03 0.  0.
    9000005    1    3    3    0    0  0.12140050641E+02  0.36672598593E+02 -0.38694787218E+03  0.38887262195E+03  0.10000000000E+01 0.  0.
    9000005    1    3    3    0    0 -0.12140050641E+02 -0.36672598593E+02 -0.38477177635E+02  0.54532132875E+02  0.10000000000E+01 0.  0.
<mgrwt>
<rscale>  0 0.12498521E+03</rscale>
<asrwt>0</asrwt>
<pdfrwt beam="1">  1        4 0.13830546E-02 0.12498521E+03</pdfrwt>
<pdfrwt beam="2">  1       -4 0.66833045E-01 0.12498521E+03</pdfrwt>
<totfact> 0.60559164E+03</totfact>
</mgrwt>
</event>
<event>
 5    1  0.3316199E-002  0.1249979E+03  0.7818608E-02  0.1235073E+00
          4   -1    0    0  501    0  0.00000000000E+00  0.00000000000E+00  0.90003827448E+02  0.90012787177E+02  0.12700000000E+01 0.  1.
         -4   -1    0    0    0  501 -0.00000000000E+00 -0.00000000000E+00 -0.43379033664E+02  0.43397620460E+02  0.12700000000E+01 0.  1.
         25    2    1    2    0    0  0.00000000000E+00  0.00000000000E+00  0.46624793784E+02  0.13341040764E+03  0.12499786186E+03 0.  0.
    9000005    1    3    3    0    0 -0.30365952254E+02 -0.50763609760E+02  0.18047158281E+01  0.59188614880E+02  0.10000000000E+01 0.  0.
    9000005    1    3    3    0    0  0.30365952254E+02  0.50763609760E+02  0.44820077956E+02  0.74221792758E+02  0.10000000000E+01 0.  0.
<mgrwt>
<rscale>  0 0.12499786E+03</rscale>
<asrwt>0</asrwt>
<pdfrwt beam="1">  1        4 0.13848862E-01 0.12499786E+03</pdfrwt>
<pdfrwt beam="2">  1       -4 0.66758165E-02 0.12499786E+03</pdfrwt>
<totfact> 0.10272181E+04</totfact>
</mgrwt>
</event>
<event>
 5    1  0.3316199E-002  0.1250016E+03  0.7818608E-02  0.1235067E+00
         -4   -1    0    0    0  501 -0.00000000000E+00  0.00000000000E+00  0.54686991273E+02  0.54701735937E+02  0.12700000000E+01 0.  1.
          4   -1    0    0  501    0  0.00000000000E+00 -0.00000000000E+00 -0.71401077090E+02  0.71412370844E+02  0.12700000000E+01 0.  1.
         25    2    1    2    0    0  0.00000000000E+00  0.00000000000E+00 -0.16714085816E+02  0.12611410678E+03  0.12500162905E+03 0.  0.
    9000005    1    3    3    0    0 -0.39400074098E+02  0.40567598377E+02  0.18473922353E+02  0.59501106579E+02  0.10000000000E+01 0.  0.
    9000005    1    3    3    0    0  0.39400074098E+02 -0.40567598377E+02 -0.35188008170E+02  0.66613000202E+02  0.10000000000E+01 0.  0.
<mgrwt>
<rscale>  0 0.12500163E+03</rscale>
<asrwt>0</asrwt>
<pdfrwt beam="2">  1        4 0.10986784E-01 0.12500163E+03</pdfrwt>
<pdfrwt beam="1">  1       -4 0.84153862E-02 0.12500163E+03</pdfrwt>
<totfact> 0.10428075E+04</totfact>
</mgrwt>
</event>
<event>
 5    1  0.3316199E-002  0.1249962E+03  0.7818608E-02  0.1235075E+00
          4   -1    0    0  501    0  0.00000000000E+00  0.00000000000E+00  0.63689764260E+02  0.63702425162E+02  0.12700000000E+01 0.  1.
         -4   -1    0    0    0  501 -0.00000000000E+00 -0.00000000000E+00 -0.61303394008E+02  0.61316547660E+02  0.12700000000E+01 0.  1.
         25    2    1    2    0    0  0.00000000000E+00  0.00000000000E+00  0.23863702515E+01  0.12501897282E+03  0.12499619515E+03 0.  0.
    9000005    1    3    3    0    0  0.15361586562E+02  0.48975164041E+02 -0.34456923357E+02  0.61828994831E+02  0.10000000000E+01 0.  0.
    9000005    1    3    3    0    0 -0.15361586562E+02 -0.48975164041E+02  0.36843293609E+02  0.63189977991E+02  0.10000000000E+01 0.  0.
<mgrwt>
<rscale>  0 0.12499620E+03</rscale>
<asrwt>0</asrwt>
<pdfrwt beam="1">  1        4 0.98004110E-02 0.12499620E+03</pdfrwt>
<pdfrwt beam="2">  1       -4 0.94332771E-02 0.12499620E+03</pdfrwt>
<totfact> 0.10453349E+04</totfact>
</mgrwt>
</event>
<event>
 5    1  0.3316199E-002  0.1250034E+03  0.7818608E-02  0.1235064E+00
          4   -1    0    0  501    0  0.00000000000E+00  0.00000000000E+00  0.78509377694E+02  0.78519649043E+02  0.12700000000E+01 0. -1.
         -4   -1    0    0    0  501 -0.00000000000E+00 -0.00000000000E+00 -0.49736287726E+02  0.49752499603E+02  0.12700000000E+01 0. -1.
         25    2    1    2    0    0  0.00000000000E+00  0.00000000000E+00  0.28773089968E+02  0.12827214865E+03  0.12500341360E+03 0.  0.
    9000005    1    3    3    0    0  0.48278297970E+02 -0.23169342659E+02 -0.18671561265E+02  0.56720716622E+02  0.10000000000E+01 0.  0.
    9000005    1    3    3    0    0 -0.48278297970E+02  0.23169342659E+02  0.47444651233E+02  0.71551432024E+02  0.10000000000E+01 0.  0.
<mgrwt>
<rscale>  0 0.12500341E+03</rscale>
<asrwt>0</asrwt>
<pdfrwt beam="1">  1        4 0.12080403E-01 0.12500341E+03</pdfrwt>
<pdfrwt beam="2">  1       -4 0.76537737E-02 0.12500341E+03</pdfrwt>
<totfact> 0.10380814E+04</totfact>
</mgrwt>
</event>
<event>
 4    1  0.3316199E-002  0.1248433E+03  0.7818608E-02  0.1235314E+00
          4   -1    0    0  501    0  0.00000000000E+00  0.00000000000E+00  0.99581883025E+01  0.10038845266E+02  0.12700000000E+01 0. -1.
         -4   -1    0    0    0  501 -0.00000000000E+00 -0.00000000000E+00 -0.38962235037E+03  0.38962442019E+03  0.12700000000E+01 0. -1.
    9000005    1    1    2    0    0 -0.56328805384E+02  0.15038545699E+02 -0.11850870816E+03  0.13207727315E+03  0.10000000000E+01 0.  0.
    9000005    1    1    2    0    0  0.56328805384E+02 -0.15038545699E+02 -0.26115545391E+03  0.26758599230E+03  0.10000000000E+01 0.  0.
<mgrwt>
<rscale>  0 0.12484330E+03</rscale>
<asrwt>0</asrwt>
<pdfrwt beam="1">  1        4 0.15383929E-02 0.12484330E+03</pdfrwt>
<pdfrwt beam="2">  1       -4 0.59948252E-01 0.12484330E+03</pdfrwt>
<totfact> 0.64809502E+03</totfact>
</mgrwt>
</event>
<event>
 5    1  0.3316199E-002  0.1249987E+03  0.7818608E-02  0.1235071E+00
         -4   -1    0    0    0  501 -0.00000000000E+00  0.00000000000E+00  0.16038356472E+01  0.20457733949E+01  0.12700000000E+01 0.  1.
          4   -1    0    0  501    0  0.00000000000E+00 -0.00000000000E+00 -0.21401534712E+04  0.21401538480E+04  0.12700000000E+01 0.  1.
         25    2    1    2    0    0  0.00000000000E+00  0.00000000000E+00 -0.21385496355E+04  0.21421996214E+04  0.12499869704E+03 0.  0.
    9000005    1    3    3    0    0  0.55413077731E+02 -0.15107639589E+02 -0.64728215433E+03  0.64982615927E+03  0.10000000000E+01 0.  0.
    9000005    1    3    3    0    0 -0.55413077731E+02  0.15107639589E+02 -0.14912674812E+04  0.14923734621E+04  0.10000000000E+01 0.  0.
<mgrwt>
<rscale>  0 0.12499870E+03</rscale>
<asrwt>0</asrwt>
<pdfrwt beam="2">  1        4 0.32928640E+00 0.12499870E+03</pdfrwt>
<pdfrwt beam="1">  1       -4 0.28076986E-03 0.12499870E+03</pdfrwt>
<totfact> 0.81178902E+02</totfact>
</mgrwt>
</event>
<event>
 5    1  0.3316199E-002  0.1249964E+03  0.7818608E-02  0.1235075E+00
         -4   -1    0    0    0  501 -0.00000000000E+00  0.00000000000E+00  0.64146851286E+02  0.64159421989E+02  0.12700000000E+01 0. -1.
          4   -1    0    0  501    0  0.00000000000E+00 -0.00000000000E+00 -0.60866716185E+02  0.60879964184E+02  0.12700000000E+01 0. -1.
         25    2    1    2    0    0  0.00000000000E+00  0.00000000000E+00  0.32801351015E+01  0.12503938617E+03  0.12499635518E+03 0.  0.
    9000005    1    3    3    0    0  0.20574151939E+02 -0.43446613981E+02 -0.38300087336E+02  0.61471950387E+02  0.10000000000E+01 0.  0.
    9000005    1    3    3    0    0 -0.20574151939E+02  0.43446613981E+02  0.41580222438E+02  0.63567435786E+02  0.10000000000E+01 0.  0.
<mgrwt>
<rscale>  0 0.12499636E+03</rscale>
<asrwt>0</asrwt>
<pdfrwt beam="2">  1        4 0.93660962E-02 0.12499636E+03</pdfrwt>
<pdfrwt beam="1">  1       -4 0.98707324E-02 0.12499636E+03</pdfrwt>
<totfact> 0.10452868E+04</totfact>
</mgrwt>
</event>
<event>
 5    1  0.3316199E-002  0.1250010E+03  0.7818608E-02  0.1235068E+00
          4   -1    0    0  501    0  0.00000000000E+00  0.00000000000E+00  0.22720854932E+03  0.22721209867E+03  0.12700000000E+01 0.  1.
         -4   -1    0    0    0  501 -0.00000000000E+00 -0.00000000000E+00 -0.17165493849E+02  0.17212410612E+02  0.12700000000E+01 0.  1.
         25    2    1    2    0    0  0.00000000000E+00  0.00000000000E+00  0.21004305547E+03  0.24442450929E+03  0.12500102235E+03 0.  0.
    9000005    1    3    3    0    0  0.31716089993E+02 -0.22023969949E+02  0.20110111893E+03  0.20477701446E+03  0.10000000000E+01 0.  0.
    9000005    1    3    3    0    0 -0.31716089993E+02  0.22023969949E+02  0.89419365389E+01  0.39647494824E+02  0.10000000000E+01 0.  0.
<mgrwt>
<rscale>  0 0.12500102E+03</rscale>
<asrwt>0</asrwt>
<pdfrwt beam="1">  1        4 0.34959043E-01 0.12500102E+03</pdfrwt>
<pdfrwt beam="2">  1       -4 0.26447272E-02 0.12500102E+03</pdfrwt>
<totfact> 0.83140902E+03</totfact>
</mgrwt>
</event>
<event>
 5    1  0.3316199E-002  0.1249992E+03  0.7818608E-02  0.1235071E+00
         -4   -1    0    0    0  501 -0.00000000000E+00  0.00000000000E+00  0.15614281869E+02  0.15665844959E+02  0.12700000000E+01 0.  1.
          4   -1    0    0  501    0  0.00000000000E+00 -0.00000000000E+00 -0.24970264728E+03  0.24970587690E+03  0.12700000000E+01 0.  1.
         25    2    1    2    0    0  0.00000000000E+00  0.00000000000E+00 -0.23408836541E+03  0.26537172186E+03  0.12499915176E+03 0.  0.
    9000005    1    3    3    0    0  0.39035212002E+02  0.44957838063E+02 -0.15733858821E+03  0.16823015877E+03  0.10000000000E+01 0.  0.
    9000005    1    3    3    0    0 -0.39035212002E+02 -0.44957838063E+02 -0.76749777199E+02  0.97141563089E+02  0.10000000000E+01 0.  0.
<mgrwt>
<rscale>  0 0.12499915E+03</rscale>
<asrwt>0</asrwt>
<pdfrwt beam="2">  1        4 0.38420004E-01 0.12499915E+03</pdfrwt>
<pdfrwt beam="1">  1       -4 0.24064122E-02 0.12499915E+03</pdfrwt>
<totfact> 0.80159591E+03</totfact>
</mgrwt>
</event>
<event>
 5    1  0.3316199E-002  0.1249995E+03  0.7818608E-02  0.1235070E+00
          4   -1    0    0  501    0  0.00000000000E+00  0.00000000000E+00  0.40758138829E+02  0.40777920261E+02  0.12700000000E+01 0. -1.
         -4   -1    0    0    0  501 -0.00000000000E+00 -0.00000000000E+00 -0.95791707841E+02  0.95800126259E+02  0.12700000000E+01 0. -1.
         25    2    1    2    0    0  0.00000000000E+00  0.00000000000E+00 -0.55033569012E+02  0.13657804652E+03  0.12499947629E+03 0.  0.
    9000005    1    3    3    0    0 -0.60554605264E+02  0.10934602471E+02 -0.15608055296E+02  0.63490449203E+02  0.10000000000E+01 0.  0.
    9000005    1    3    3    0    0  0.60554605264E+02 -0.10934602471E+02 -0.39425513716E+02  0.73087597317E+02  0.10000000000E+01 0.  0.
<mgrwt>
<rscale>  0 0.12499948E+03</rscale>
<asrwt>0</asrwt>
<pdfrwt beam="1">  1        4 0.62726521E-02 0.12499948E+03</pdfrwt>
<pdfrwt beam="2">  1       -4 0.14739355E-01 0.12499948E+03</pdfrwt>
<totfact> 0.10205036E+04</totfact>
</mgrwt>
</event>
<event>
 5    1  0.3316199E-002  0.1249959E+03  0.7818608E-02  0.1235076E+00
          4   -1    0    0  501    0  0.00000000000E+00  0.00000000000E+00  0.94246516594E+01  0.95098348514E+01  0.12700000000E+01 0. -1.
         -4   -1    0    0    0  501 -0.00000000000E+00 -0.00000000000E+00 -0.41249375090E+03  0.41249570596E+03  0.12700000000E+01 0. -1.
         25    2    1    2    0    0  0.00000000000E+00  0.00000000000E+00 -0.40306909924E+03  0.42200554081E+03  0.12499591077E+03 0.  0.
    9000005    1    3    3    0    0 -0.42225085988E+02  0.36650638909E+02 -0.10731822120E+03  0.12101416372E+03  0.10000000000E+01 0.  0.
    9000005    1    3    3    0    0  0.42225085988E+02 -0.36650638909E+02 -0.29575087804E+03  0.30099137709E+03  0.10000000000E+01 0.  0.
<mgrwt>
<rscale>  0 0.12499591E+03</rscale>
<asrwt>0</asrwt>
<pdfrwt beam="1">  1        4 0.14566497E-02 0.12499591E+03</pdfrwt>
<pdfrwt beam="2">  1       -4 0.63467266E-01 0.12499591E+03</pdfrwt>
<totfact> 0.62473026E+03</totfact>
</mgrwt>
</event>
<event>
 5    1  0.3316199E-002  0.1249961E+03  0.7818608E-02  0.1235075E+00
         -4   -1    0    0    0  501 -0.00000000000E+00  0.00000000000E+00  0.11743314212E+02  0.11811787701E+02  0.12700000000E+01 0. -1.
          4   -1    0    0  501    0  0.00000000000E+00 -0.00000000000E+00 -0.33157864564E+03  0.33158107779E+03  0.12700000000E+01 0. -1.
         25    2    1    2    0    0  0.00000000000E+00  0.00000000000E+00 -0.31983533143E+03  0.34339286549E+03  0.12499608328E+03 0.  0.
    9000005    1    3    3    0    0 -0.22135600317E+02  0.55334697452E+02 -0.10829521761E+03  0.12361540236E+03  0.10000000000E+01 0.  0.
    9000005    1    3    3    0    0  0.22135600317E+02 -0.55334697452E+02 -0.21154011382E+03  0.21977746313E+03  0.10000000000E+01 0.  0.
<mgrwt>
<rscale>  0 0.12499608E+03</rscale>
<asrwt>0</asrwt>
<pdfrwt beam="2">  1        4 0.51017547E-01 0.12499608E+03</pdfrwt>
<pdfrwt beam="1">  1       -4 0.18121183E-02 0.12499608E+03</pdfrwt>
<totfact> 0.70463703E+03</totfact>
</mgrwt>
</event>
<event>
 5    1  0.3316199E-002  0.1250041E+03  0.7818608E-02  0.1235063E+00
          4   -1    0    0  501    0  0.00000000000E+00  0.00000000000E+00  0.14260537007E+03  0.14261102507E+03  0.12700000000E+01 0.  1.
         -4   -1    0    0    0  501 -0.00000000000E+00 -0.00000000000E+00 -0.27372918793E+02  0.27402364556E+02  0.12700000000E+01 0.  1.
         25    2    1    2    0    0  0.00000000000E+00  0.00000000000E+00  0.11523245128E+03  0.17001338963E+03  0.12500413924E+03 0.  0.
    9000005    1    3    3    0    0  0.44062698800E+02 -0.42003454405E+02  0.38396613892E+02  0.71979938635E+02  0.10000000000E+01 0.  0.
    9000005    1    3    3    0    0 -0.44062698800E+02  0.42003454405E+02  0.76835837383E+02  0.98033450994E+02  0.10000000000E+01 0.  0.
<mgrwt>
<rscale>  0 0.12500414E+03</rscale>
<asrwt>0</asrwt>
<pdfrwt beam="1">  1        4 0.21941988E-01 0.12500414E+03</pdfrwt>
<pdfrwt beam="2">  1       -4 0.42139183E-02 0.12500414E+03</pdfrwt>
<totfact> 0.95437273E+03</totfact>
</mgrwt>
</event>
<event>
 5    1  0.3316199E-002  0.1249885E+03  0.7818608E-02  0.1235087E+00
         -4   -1    0    0    0  501 -0.00000000000E+00  0.00000000000E+00  0.39122017475E+03  0.39122223611E+03  0.12700000000E+01 0.  1.
          4   -1    0    0  501    0  0.00000000000E+00 -0.00000000000E+00 -0.99404695936E+01  0.10021269168E+02  0.12700000000E+01 0.  1.
         25    2    1    2    0    0  0.00000000000E+00  0.00000000000E+00  0.38127970515E+03  0.40124350528E+03  0.12498854735E+03 0.  0.
    9000005    1    3    3    0    0  0.10370451244E+02  0.87609073350E+01  0.38644448049E+03  0.38668415569E+03  0.10000000000E+01 0.  0.
    9000005    1    3    3    0    0 -0.10370451244E+02 -0.87609073350E+01 -0.51647753378E+01  0.14559349595E+02  0.10000000000E+01 0.  0.
<mgrwt>
<rscale>  0 0.12498855E+03</rscale>
<asrwt>0</asrwt>
<pdfrwt beam="2">  1        4 0.15356769E-02 0.12498855E+03</pdfrwt>
<pdfrwt beam="1">  1       -4 0.60194095E-01 0.12498855E+03</pdfrwt>
<totfact> 0.64448317E+03</totfact>
</mgrwt>
</event>
<event>
 5    1  0.3316199E-002  0.1249990E+03  0.7818608E-02  0.1235071E+00
          4   -1    0    0  501    0  0.00000000000E+00  0.00000000000E+00  0.31744140894E+02  0.31769535425E+02  0.12700000000E+01 0. -1.
         -4   -1    0    0    0  501 -0.00000000000E+00 -0.00000000000E+00 -0.12297434020E+03  0.12298089789E+03  0.12700000000E+01 0. -1.
         25    2    1    2    0    0  0.00000000000E+00  0.00000000000E+00 -0.91230199301E+02  0.15475043332E+03  0.12499898939E+03 0.  0.
    9000005    1    3    3    0    0 -0.42501382577E+01  0.59014252559E+02 -0.20717754278E+02  0.62697456270E+02  0.10000000000E+01 0.  0.
    9000005    1    3    3    0    0  0.42501382577E+01 -0.59014252559E+02 -0.70512445023E+02  0.92052977048E+02  0.10000000000E+01 0.  0.
<mgrwt>
<rscale>  0 0.12499899E+03</rscale>
<asrwt>0</asrwt>
<pdfrwt beam="1">  1        4 0.48861719E-02 0.12499899E+03</pdfrwt>
<pdfrwt beam="2">  1       -4 0.18921587E-01 0.12499899E+03</pdfrwt>
<totfact> 0.98366750E+03</totfact>
</mgrwt>
</event>
<event>
 5    1  0.3316199E-002  0.1250068E+03  0.7818608E-02  0.1235059E+00
          4   -1    0    0  501    0  0.00000000000E+00  0.00000000000E+00  0.26581341089E+03  0.26581644477E+03  0.12700000000E+01 0.  1.
         -4   -1    0    0    0  501 -0.00000000000E+00 -0.00000000000E+00 -0.14666496570E+02  0.14721379747E+02  0.12700000000E+01 0.  1.
         25    2    1    2    0    0  0.00000000000E+00  0.00000000000E+00  0.25114691432E+03  0.28053782451E+03  0.12500679346E+03 0.  0.
    9000005    1    3    3    0    0  0.31294268992E+02  0.31939919155E+01  0.43847577518E+01  0.31776704622E+02  0.10000000000E+01 0.  0.
    9000005    1    3    3    0    0 -0.31294268992E+02 -0.31939919155E+01  0.24676215657E+03  0.24876111989E+03  0.10000000000E+01 0.  0.
<mgrwt>
<rscale>  0 0.12500679E+03</rscale>
<asrwt>0</asrwt>
<pdfrwt beam="1">  1        4 0.40898820E-01 0.12500679E+03</pdfrwt>
<pdfrwt beam="2">  1       -4 0.22608396E-02 0.12500679E+03</pdfrwt>
<totfact> 0.78095058E+03</totfact>
</mgrwt>
</event>
<event>
 5    1  0.3316199E-002  0.1250023E+03  0.7818608E-02  0.1235066E+00
          4   -1    0    0  501    0  0.00000000000E+00  0.00000000000E+00  0.80368682473E+03  0.80368782817E+03  0.12700000000E+01 0.  1.
         -4   -1    0    0    0  501 -0.00000000000E+00 -0.00000000000E+00 -0.47766072718E+01  0.49425577416E+01  0.12700000000E+01 0.  1.
         25    2    1    2    0    0  0.00000000000E+00  0.00000000000E+00  0.79891021746E+03  0.80863038591E+03  0.12500226180E+03 0.  0.
    9000005    1    3    3    0    0  0.22417533237E+02 -0.25709980291E+02  0.60725285087E+02  0.69657082424E+02  0.10000000000E+01 0.  0.
    9000005    1    3    3    0    0 -0.22417533237E+02  0.25709980291E+02  0.73818493237E+03  0.73897330349E+03  0.10000000000E+01 0.  0.
<mgrwt>
<rscale>  0 0.12500226E+03</rscale>
<asrwt>0</asrwt>
<pdfrwt beam="1">  1        4 0.12365693E+00 0.12500226E+03</pdfrwt>
<pdfrwt beam="2">  1       -4 0.74770551E-03 0.12500226E+03</pdfrwt>
<totfact> 0.37880474E+03</totfact>
</mgrwt>
</event>
<event>
 5    1  0.3316199E-002  0.1250004E+03  0.7818608E-02  0.1235069E+00
          4   -1    0    0  501    0  0.00000000000E+00  0.00000000000E+00  0.74600711627E+01  0.75674012549E+01  0.12700000000E+01 0.  1.
         -4   -1    0    0    0  501 -0.00000000000E+00 -0.00000000000E+00 -0.51977625594E+03  0.51977780747E+03  0.12700000000E+01 0.  1.
         25    2    1    2    0    0  0.00000000000E+00  0.00000000000E+00 -0.51231618478E+03  0.52734520872E+03  0.12500038392E+03 0.  0.
    9000005    1    3    3    0    0 -0.43555603284E+02 -0.22631810400E+02 -0.41933068558E+03  0.42219487596E+03  0.10000000000E+01 0.  0.
    9000005    1    3    3    0    0  0.43555603284E+02  0.22631810400E+02 -0.92985499201E+02  0.10515033277E+03  0.10000000000E+01 0.  0.
<mgrwt>
<rscale>  0 0.12500038E+03</rscale>
<asrwt>0</asrwt>
<pdfrwt beam="1">  1        4 0.11560792E-02 0.12500038E+03</pdfrwt>
<pdfrwt beam="2">  1       -4 0.79973925E-01 0.12500038E+03</pdfrwt>
<totfact> 0.53802986E+03</totfact>
</mgrwt>
</event>
<event>
 5    1  0.3316199E-002  0.1250003E+03  0.7818608E-02  0.1235069E+00
          4   -1    0    0  501    0  0.00000000000E+00  0.00000000000E+00  0.36867882355E+02  0.36889749922E+02  0.12700000000E+01 0. -1.
         -4   -1    0    0    0  501 -0.00000000000E+00 -0.00000000000E+00 -0.10589604219E+03  0.10590365741E+03  0.12700000000E+01 0. -1.
         25    2    1    2    0    0  0.00000000000E+00  0.00000000000E+00 -0.69028159838E+02  0.14279340733E+03  0.12500028130E+03 0.  0.
    9000005    1    3    3    0    0  0.13722685916E+02  0.60954668462E+02 -0.33122543985E+02  0.70724017392E+02  0.10000000000E+01 0.  0.
    9000005    1    3    3    0    0 -0.13722685916E+02 -0.60954668462E+02 -0.35905615853E+02  0.72069389937E+02  0.10000000000E+01 0.  0.
<mgrwt>
<rscale>  0 0.12500028E+03</rscale>
<asrwt>0</asrwt>
<pdfrwt beam="1">  1        4 0.56742498E-02 0.12500028E+03</pdfrwt>
<pdfrwt beam="2">  1       -4 0.16293967E-01 0.12500028E+03</pdfrwt>
<totfact> 0.10075952E+04</totfact>
</mgrwt>
</event>
<event>
 5    1  0.3316199E-002  0.1249996E+03  0.7818608E-02  0.1235070E+00
          4   -1    0    0  501    0  0.00000000000E+00  0.00000000000E+00  0.31347083454E+02  0.31372799383E+02  0.12700000000E+01 0. -1.
         -4   -1    0    0    0  501 -0.00000000000E+00 -0.00000000000E+00 -0.12453193211E+03  0.12453840779E+03  0.12700000000E+01 0. -1.
         25    2    1    2    0    0  0.00000000000E+00  0.00000000000E+00 -0.93184848660E+02  0.15591120718E+03  0.12499955401E+03 0.  0.
    9000005    1    3    3    0    0 -0.34607882634E+02 -0.47221499639E+01  0.18041218844E+02  0.39325434748E+02  0.10000000000E+01 0.  0.
    9000005    1    3    3    0    0  0.34607882634E+02  0.47221499639E+01 -0.11122606750E+03  0.11658577243E+03  0.10000000000E+01 0.  0.
<mgrwt>
<rscale>  0 0.12499955E+03</rscale>
<asrwt>0</asrwt>
<pdfrwt beam="1">  1        4 0.48251046E-02 0.12499955E+03</pdfrwt>
<pdfrwt beam="2">  1       -4 0.19161235E-01 0.12499955E+03</pdfrwt>
<totfact> 0.98137898E+03</totfact>
</mgrwt>
</event>
<event>
 5    1  0.3316199E-002  0.1249995E+03  0.7818608E-02  0.1235070E+00
          4   -1    0    0  501    0  0.00000000000E+00  0.00000000000E+00  0.87750690524E+03  0.87750782427E+03  0.12700000000E+01 0. -1.
         -4   -1    0    0    0  501 -0.00000000000E+00 -0.00000000000E+00 -0.43599713394E+01  0.45411727649E+01  0.12700000000E+01 0. -1.
         25    2    1    2    0    0  0.00000000000E+00  0.00000000000E+00  0.87314693390E+03  0.88204899703E+03  0.12499945992E+03 0.  0.
    9000005    1    3    3    0    0  0.43977023423E+02  0.10503355645E+02  0.74097588368E+03  0.74235473950E+03  0.10000000000E+01 0.  0.
    9000005    1    3    3    0    0 -0.43977023423E+02 -0.10503355645E+02  0.13217105022E+03  0.13969425753E+03  0.10000000000E+01 0.  0.
<mgrwt>
<rscale>  0 0.12499946E+03</rscale>
<asrwt>0</asrwt>
<pdfrwt beam="1">  1        4 0.13501493E+00 0.12499946E+03</pdfrwt>
<pdfrwt beam="2">  1       -4 0.68477480E-03 0.12499946E+03</pdfrwt>
<totfact> 0.34850956E+03</totfact>
</mgrwt>
</event>
<event>
 5    1  0.3316199E-002  0.1250018E+03  0.7818608E-02  0.1235066E+00
          4   -1    0    0  501    0  0.00000000000E+00  0.00000000000E+00  0.14796307467E+02  0.14850710914E+02  0.12700000000E+01 0. -1.
         -4   -1    0    0    0  501 -0.00000000000E+00 -0.00000000000E+00 -0.26346882977E+03  0.26347189064E+03  0.12700000000E+01 0. -1.
         25    2    1    2    0    0  0.00000000000E+00  0.00000000000E+00 -0.24867252230E+03  0.27832260156E+03  0.12500178875E+03 0.  0.
    9000005    1    3    3    0    0  0.43751529984E+02  0.27021718959E+02 -0.45270503867E+02  0.68518524443E+02  0.10000000000E+01 0.  0.
    9000005    1    3    3    0    0 -0.43751529984E+02 -0.27021718959E+02 -0.20340201843E+03  0.20980407711E+03  0.10000000000E+01 0.  0.
<mgrwt>
<rscale>  0 0.12500179E+03</rscale>
<asrwt>0</asrwt>
<pdfrwt beam="1">  1        4 0.22807755E-02 0.12500179E+03</pdfrwt>
<pdfrwt beam="2">  1       -4 0.40538083E-01 0.12500179E+03</pdfrwt>
<totfact> 0.78397927E+03</totfact>
</mgrwt>
</event>
<event>
 5    1  0.3316199E-002  0.1249970E+03  0.7818608E-02  0.1235074E+00
         -4   -1    0    0    0  501 -0.00000000000E+00  0.00000000000E+00  0.33544918845E+02  0.33568951135E+02  0.12700000000E+01 0.  1.
          4   -1    0    0  501    0  0.00000000000E+00 -0.00000000000E+00 -0.11637352298E+03  0.11638045262E+03  0.12700000000E+01 0.  1.
         25    2    1    2    0    0  0.00000000000E+00  0.00000000000E+00 -0.82828604138E+02  0.14994940375E+03  0.12499698405E+03 0.  0.
    9000005    1    3    3    0    0 -0.37523697686E+02  0.37671134633E+02 -0.20286246755E+01  0.53218958940E+02  0.10000000000E+01 0.  0.
    9000005    1    3    3    0    0  0.37523697686E+02 -0.37671134633E+02 -0.80799979463E+02  0.96730444813E+02  0.10000000000E+01 0.  0.
<mgrwt>
<rscale>  0 0.12499698E+03</rscale>
<asrwt>0</asrwt>
<pdfrwt beam="2">  1        4 0.17906000E-01 0.12499698E+03</pdfrwt>
<pdfrwt beam="1">  1       -4 0.51631385E-02 0.12499698E+03</pdfrwt>
<totfact> 0.99320526E+03</totfact>
</mgrwt>
</event>
<event>
 5    1  0.3316199E-002  0.1249987E+03  0.7818608E-02  0.1235071E+00
         -4   -1    0    0    0  501 -0.00000000000E+00  0.00000000000E+00  0.27499821537E+02  0.27529131562E+02  0.12700000000E+01 0. -1.
          4   -1    0    0  501    0  0.00000000000E+00 -0.00000000000E+00 -0.14193558007E+03  0.14194126176E+03  0.12700000000E+01 0. -1.
         25    2    1    2    0    0  0.00000000000E+00  0.00000000000E+00 -0.11443575853E+03  0.16947039332E+03  0.12499868552E+03 0.  0.
    9000005    1    3    3    0    0  0.23759223579E+02  0.45998366654E+02 -0.97692068026E+01  0.52695235472E+02  0.10000000000E+01 0.  0.
    9000005    1    3    3    0    0 -0.23759223579E+02 -0.45998366654E+02 -0.10466655173E+03  0.11677515785E+03  0.10000000000E+01 0.  0.
<mgrwt>
<rscale>  0 0.12499869E+03</rscale>
<asrwt>0</asrwt>
<pdfrwt beam="2">  1        4 0.21838934E-01 0.12499869E+03</pdfrwt>
<pdfrwt beam="1">  1       -4 0.42334335E-02 0.12499869E+03</pdfrwt>
<totfact> 0.95550225E+03</totfact>
</mgrwt>
</event>
<event>
 5    1  0.3316199E-002  0.1249946E+03  0.7818608E-02  0.1235078E+00
         -4   -1    0    0    0  501 -0.00000000000E+00  0.00000000000E+00  0.51219601237E+03  0.51219758687E+03  0.12700000000E+01 0. -1.
          4   -1    0    0  501    0  0.00000000000E+00 -0.00000000000E+00 -0.75713446326E+01  0.76771192218E+01  0.12700000000E+01 0. -1.
         25    2    1    2    0    0  0.00000000000E+00  0.00000000000E+00  0.50462466774E+03  0.51987470609E+03  0.12499461883E+03 0.  0.
    9000005    1    3    3    0    0 -0.54149727951E+02  0.20771697720E+02  0.34907531124E+03  0.35386187896E+03  0.10000000000E+01 0.  0.
    9000005    1    3    3    0    0  0.54149727951E+02 -0.20771697720E+02  0.15554935650E+03  0.16601282713E+03  0.10000000000E+01 0.  0.
<mgrwt>
<rscale>  0 0.12499462E+03</rscale>
<asrwt>0</asrwt>
<pdfrwt beam="2">  1        4 0.11730797E-02 0.12499462E+03</pdfrwt>
<pdfrwt beam="1">  1       -4 0.78807658E-01 0.12499462E+03</pdfrwt>
<totfact> 0.54361067E+03</totfact>
</mgrwt>
</event>
<event>
 5    1  0.3316199E-002  0.1249952E+03  0.7818608E-02  0.1235077E+00
         -4   -1    0    0    0  501 -0.00000000000E+00  0.00000000000E+00  0.42149497167E+03  0.42149688498E+03  0.12700000000E+01 0.  1.
          4   -1    0    0  501    0  0.00000000000E+00 -0.00000000000E+00 -0.92214420731E+01  0.93084850490E+01  0.12700000000E+01 0.  1.
         25    2    1    2    0    0  0.00000000000E+00  0.00000000000E+00  0.41227352960E+03  0.43080537002E+03  0.12499521445E+03 0.  0.
    9000005    1    3    3    0    0  0.30549908244E+02  0.54131890772E+02  0.18396255703E+03  0.19418233927E+03  0.10000000000E+01 0.  0.
    9000005    1    3    3    0    0 -0.30549908244E+02 -0.54131890772E+02  0.22831097256E+03  0.23662303076E+03  0.10000000000E+01 0.  0.
<mgrwt>
<rscale>  0 0.12499521E+03</rscale>
<asrwt>0</asrwt>
<pdfrwt beam="2">  1        4 0.14255263E-02 0.12499521E+03</pdfrwt>
<pdfrwt beam="1">  1       -4 0.64852219E-01 0.12499521E+03</pdfrwt>
<totfact> 0.61669564E+03</totfact>
</mgrwt>
</event>
<event>
 5    1  0.3316199E-002  0.1249979E+03  0.7818608E-02  0.1235073E+00
          4   -1    0    0  501    0  0.00000000000E+00  0.00000000000E+00  0.20290731240E+03  0.20291128684E+03  0.12700000000E+01 0.  1.
         -4   -1    0    0    0  501 -0.00000000000E+00 -0.00000000000E+00 -0.19225634062E+02  0.19267535003E+02  0.12700000000E+01 0.  1.
         25    2    1    2    0    0  0.00000000000E+00  0.00000000000E+00  0.18368167834E+03  0.22217882184E+03  0.12499787965E+03 0.  0.
    9000005    1    3    3    0    0 -0.29539212448E+02  0.47915022349E+02  0.14008516529E+03  0.15097439509E+03  0.10000000000E+01 0.  0.
    9000005    1    3    3    0    0  0.29539212448E+02 -0.47915022349E+02  0.43596513051E+02  0.71204426751E+02  0.10000000000E+01 0.  0.
<mgrwt>
<rscale>  0 0.12499788E+03</rscale>
<asrwt>0</asrwt>
<pdfrwt beam="1">  1        4 0.31220039E-01 0.12499788E+03</pdfrwt>
<pdfrwt beam="2">  1       -4 0.29613186E-02 0.12499788E+03</pdfrwt>
<totfact> 0.86528845E+03</totfact>
</mgrwt>
</event>
<event>
 5    1  0.3316199E-002  0.1249995E+03  0.7818608E-02  0.1235070E+00
         -4   -1    0    0    0  501 -0.00000000000E+00  0.00000000000E+00  0.76435666740E+02  0.76446216715E+02  0.12700000000E+01 0.  1.
          4   -1    0    0  501    0  0.00000000000E+00 -0.00000000000E+00 -0.51082659962E+02  0.51098444681E+02  0.12700000000E+01 0.  1.
         25    2    1    2    0    0  0.00000000000E+00  0.00000000000E+00  0.25353006778E+02  0.12754466140E+03  0.12499946279E+03 0.  0.
    9000005    1    3    3    0    0 -0.46934018682E+02 -0.34606427879E+02 -0.10248947340E+02  0.59215267303E+02  0.10000000000E+01 0.  0.
    9000005    1    3    3    0    0  0.46934018682E+02  0.34606427879E+02  0.35601954118E+02  0.68329394093E+02  0.10000000000E+01 0.  0.
<mgrwt>
<rscale>  0 0.12499946E+03</rscale>
<asrwt>0</asrwt>
<pdfrwt beam="2">  1        4 0.78608965E-02 0.12499946E+03</pdfrwt>
<pdfrwt beam="1">  1       -4 0.11761359E-01 0.12499946E+03</pdfrwt>
<totfact> 0.10397459E+04</totfact>
</mgrwt>
</event>
<event>
 5    1  0.3316199E-002  0.1249840E+03  0.7818608E-02  0.1235094E+00
          4   -1    0    0  501    0  0.00000000000E+00  0.00000000000E+00  0.10567183892E+03  0.10567947029E+03  0.12700000000E+01 0. -1.
         -4   -1    0    0    0  501 -0.00000000000E+00 -0.00000000000E+00 -0.36936495538E+02  0.36958322508E+02  0.12700000000E+01 0. -1.
         25    2    1    2    0    0  0.00000000000E+00  0.00000000000E+00  0.68735343386E+02  0.14263779280E+03  0.12498396899E+03 0.  0.
    9000005    1    3    3    0    0  0.29830151455E+02  0.44164599042E+02 -0.28569567929E+01  0.53380820024E+02  0.10000000000E+01 0.  0.
    9000005    1    3    3    0    0 -0.29830151455E+02 -0.44164599042E+02  0.71592300179E+02  0.89256972777E+02  0.10000000000E+01 0.  0.
<mgrwt>
<rscale>  0 0.12498397E+03</rscale>
<asrwt>0</asrwt>
<pdfrwt beam="1">  1        4 0.16259472E-01 0.12498397E+03</pdfrwt>
<pdfrwt beam="2">  1       -4 0.56848038E-02 0.12498397E+03</pdfrwt>
<totfact> 0.10082846E+04</totfact>
</mgrwt>
</event>
<event>
 5    1  0.3316199E-002  0.1250362E+03  0.7818608E-02  0.1235013E+00
          4   -1    0    0  501    0  0.00000000000E+00  0.00000000000E+00  0.68897692257E+03  0.68897809307E+03  0.12700000000E+01 0. -1.
         -4   -1    0    0    0  501 -0.00000000000E+00 -0.00000000000E+00 -0.56006523329E+01  0.57428395898E+01  0.12700000000E+01 0. -1.
         25    2    1    2    0    0  0.00000000000E+00  0.00000000000E+00  0.68337627024E+03  0.69472093266E+03  0.12503618499E+03 0.  0.
    9000005    1    3    3    0    0 -0.14475704809E+02  0.47237441724E+02  0.55446726279E+03  0.55666495078E+03  0.10000000000E+01 0.  0.
    9000005    1    3    3    0    0  0.14475704809E+02 -0.47237441724E+02  0.12890900745E+03  0.13805598188E+03  0.10000000000E+01 0.  0.
<mgrwt>
<rscale>  0 0.12503618E+03</rscale>
<asrwt>0</asrwt>
<pdfrwt beam="1">  1        4 0.10600740E+00 0.12503618E+03</pdfrwt>
<pdfrwt beam="2">  1       -4 0.87266700E-03 0.12503618E+03</pdfrwt>
<totfact> 0.43332541E+03</totfact>
</mgrwt>
</event>
<event>
 5    1  0.3316199E-002  0.1249959E+03  0.7818608E-02  0.1235076E+00
          4   -1    0    0  501    0  0.00000000000E+00  0.00000000000E+00  0.19078019178E+02  0.19120243611E+02  0.12700000000E+01 0.  1.
         -4   -1    0    0    0  501 -0.00000000000E+00 -0.00000000000E+00 -0.20446744473E+03  0.20447138884E+03  0.12700000000E+01 0.  1.
         25    2    1    2    0    0  0.00000000000E+00  0.00000000000E+00 -0.18538942555E+03  0.22359163245E+03  0.12499591592E+03 0.  0.
    9000005    1    3    3    0    0 -0.61385194739E+02  0.11005940163E+02 -0.85602002901E+02  0.10591494584E+03  0.10000000000E+01 0.  0.
    9000005    1    3    3    0    0  0.61385194739E+02 -0.11005940163E+02 -0.99787422649E+02  0.11767668661E+03  0.10000000000E+01 0.  0.
<mgrwt>
<rscale>  0 0.12499592E+03</rscale>
<asrwt>0</asrwt>
<pdfrwt beam="1">  1        4 0.29386314E-02 0.12499592E+03</pdfrwt>
<pdfrwt beam="2">  1       -4 0.31460080E-01 0.12499592E+03</pdfrwt>
<totfact> 0.86311064E+03</totfact>
</mgrwt>
</event>
<event>
 5    1  0.3316199E-002  0.1250027E+03  0.7818608E-02  0.1235065E+00
          4   -1    0    0  501    0  0.00000000000E+00  0.00000000000E+00  0.24017235088E+02  0.24050789619E+02  0.12700000000E+01 0. -1.
         -4   -1    0    0    0  501 -0.00000000000E+00 -0.00000000000E+00 -0.16250101533E+03  0.16250597799E+03  0.12700000000E+01 0. -1.
         25    2    1    2    0    0  0.00000000000E+00  0.00000000000E+00 -0.13848378024E+03  0.18655676761E+03  0.12500268058E+03 0.  0.
    9000005    1    3    3    0    0 -0.16430368210E+02 -0.32097044430E+02 -0.14541743581E+03  0.14982459044E+03  0.10000000000E+01 0.  0.
    9000005    1    3    3    0    0  0.16430368210E+02  0.32097044430E+02  0.69336555704E+01  0.36732177177E+02  0.10000000000E+01 0.  0.
<mgrwt>
<rscale>  0 0.12500268E+03</rscale>
<asrwt>0</asrwt>
<pdfrwt beam="1">  1        4 0.36979222E-02 0.12500268E+03</pdfrwt>
<pdfrwt beam="2">  1       -4 0.25003118E-01 0.12500268E+03</pdfrwt>
<totfact> 0.92444349E+03</totfact>
</mgrwt>
</event>
<event>
 5    1  0.3316199E-002  0.1250043E+03  0.7818608E-02  0.1235063E+00
          4   -1    0    0  501    0  0.00000000000E+00  0.00000000000E+00  0.15909370278E+04  0.15909375347E+04  0.12700000000E+01 0.  1.
         -4   -1    0    0    0  501 -0.00000000000E+00 -0.00000000000E+00 -0.22907291223E+01  0.26192250594E+01  0.12700000000E+01 0.  1.
         25    2    1    2    0    0  0.00000000000E+00  0.00000000000E+00  0.15886462987E+04  0.15935567598E+04  0.12500433705E+03 0.  0.
    9000005    1    3    3    0    0 -0.43457285352E+02  0.44766344136E+02  0.84021573062E+03  0.84252954559E+03  0.10000000000E+01 0.  0.
    9000005    1    3    3    0    0  0.43457285352E+02 -0.44766344136E+02  0.74843056806E+03  0.75102721417E+03  0.10000000000E+01 0.  0.
<mgrwt>
<rscale>  0 0.12500434E+03</rscale>
<asrwt>0</asrwt>
<pdfrwt beam="1">  1        4 0.24478507E+00 0.12500434E+03</pdfrwt>
<pdfrwt beam="2">  1       -4 0.37772744E-03 0.12500434E+03</pdfrwt>
<totfact> 0.16161239E+03</totfact>
</mgrwt>
</event>
<event>
 5    1  0.3316199E-002  0.1249904E+03  0.7818608E-02  0.1235084E+00
         -4   -1    0    0    0  501 -0.00000000000E+00  0.00000000000E+00  0.47091421491E+01  0.48773886231E+01  0.12700000000E+01 0. -1.
          4   -1    0    0  501    0  0.00000000000E+00 -0.00000000000E+00 -0.81465097221E+03  0.81465196214E+03  0.12700000000E+01 0. -1.
         25    2    1    2    0    0  0.00000000000E+00  0.00000000000E+00 -0.80994183006E+03  0.81952935077E+03  0.12499035436E+03 0.  0.
    9000005    1    3    3    0    0 -0.17998079936E+01 -0.31957749618E+02 -0.53092556044E+02  0.62002875553E+02  0.10000000000E+01 0.  0.
    9000005    1    3    3    0    0  0.17998079936E+01  0.31957749618E+02 -0.75684927402E+03  0.75752647522E+03  0.10000000000E+01 0.  0.
<mgrwt>
<rscale>  0 0.12499035E+03</rscale>
<asrwt>0</asrwt>
<pdfrwt beam="2">  1        4 0.12534383E+00 0.12499035E+03</pdfrwt>
<pdfrwt beam="1">  1       -4 0.73750224E-03 0.12499035E+03</pdfrwt>
<totfact> 0.37415529E+03</totfact>
</mgrwt>
</event>
<event>
 5    1  0.3316199E-002  0.1250095E+03  0.7818608E-02  0.1235054E+00
         -4   -1    0    0    0  501 -0.00000000000E+00  0.00000000000E+00  0.38138902933E+03  0.38139114383E+03  0.12700000000E+01 0. -1.
          4   -1    0    0  501    0  0.00000000000E+00 -0.00000000000E+00 -0.10202209815E+02  0.10280952539E+02  0.12700000000E+01 0. -1.
         25    2    1    2    0    0  0.00000000000E+00  0.00000000000E+00  0.37118681951E+03  0.39167209637E+03  0.12500950401E+03 0.  0.
    9000005    1    3    3    0    0  0.15304595276E+01  0.61035747578E+02  0.14377578210E+03  0.15620557067E+03  0.10000000000E+01 0.  0.
    9000005    1    3    3    0    0 -0.15304595276E+01 -0.61035747578E+02  0.22741103741E+03  0.23546652570E+03  0.10000000000E+01 0.  0.
<mgrwt>
<rscale>  0 0.12500950E+03</rscale>
<asrwt>0</asrwt>
<pdfrwt beam="2">  1        4 0.15757902E-02 0.12500950E+03</pdfrwt>
<pdfrwt beam="1">  1       -4 0.58681466E-01 0.12500950E+03</pdfrwt>
<totfact> 0.65357162E+03</totfact>
</mgrwt>
</event>
<event>
 5    1  0.3316199E-002  0.1249970E+03  0.7818608E-02  0.1235074E+00
         -4   -1    0    0    0  501 -0.00000000000E+00  0.00000000000E+00  0.37990195172E+03  0.37990407450E+03  0.12700000000E+01 0. -1.
          4   -1    0    0  501    0  0.00000000000E+00 -0.00000000000E+00 -0.10240380728E+02  0.10318832175E+02  0.12700000000E+01 0. -1.
         25    2    1    2    0    0  0.00000000000E+00  0.00000000000E+00  0.36966157099E+03  0.39022290667E+03  0.12499695926E+03 0.  0.
    9000005    1    3    3    0    0 -0.10363228663E+02 -0.61604609299E+02  0.18980186063E+03  0.19982059627E+03  0.10000000000E+01 0.  0.
    9000005    1    3    3    0    0  0.10363228663E+02  0.61604609299E+02  0.17985971036E+03  0.19040231041E+03  0.10000000000E+01 0.  0.
<mgrwt>
<rscale>  0 0.12499696E+03</rscale>
<asrwt>0</asrwt>
<pdfrwt beam="2">  1        4 0.15816411E-02 0.12499696E+03</pdfrwt>
<pdfrwt beam="1">  1       -4 0.58452656E-01 0.12499696E+03</pdfrwt>
<totfact> 0.65519332E+03</totfact>
</mgrwt>
</event>
<event>
 5    1  0.3316199E-002  0.1250021E+03  0.7818608E-02  0.1235066E+00
          4   -1    0    0  501    0  0.00000000000E+00  0.00000000000E+00  0.21290317465E+04  0.21290321253E+04  0.12700000000E+01 0.  1.
         -4   -1    0    0    0  501 -0.00000000000E+00 -0.00000000000E+00 -0.16146284822E+01  0.20542456366E+01  0.12700000000E+01 0.  1.
         25    2    1    2    0    0  0.00000000000E+00  0.00000000000E+00  0.21274171180E+04  0.21310863709E+04  0.12500210519E+03 0.  0.
    9000005    1    3    3    0    0  0.48453205436E+02 -0.34284481916E+02  0.73039471086E+03  0.73280322903E+03  0.10000000000E+01 0.  0.
    9000005    1    3    3    0    0 -0.48453205436E+02  0.34284481916E+02  0.13970224071E+04  0.13982831419E+04  0.10000000000E+01 0.  0.
<mgrwt>
<rscale>  0 0.12500211E+03</rscale>
<asrwt>0</asrwt>
<pdfrwt beam="1">  1        4 0.32757930E+00 0.12500211E+03</pdfrwt>
<pdfrwt beam="2">  1       -4 0.28224841E-03 0.12500211E+03</pdfrwt>
<totfact> 0.82452863E+02</totfact>
</mgrwt>
</event>
<event>
 5    1  0.3316199E-002  0.1249964E+03  0.7818608E-02  0.1235075E+00
          4   -1    0    0  501    0  0.00000000000E+00  0.00000000000E+00  0.11205698163E+02  0.11277436381E+02  0.12700000000E+01 0. -1.
         -4   -1    0    0    0  501 -0.00000000000E+00 -0.00000000000E+00 -0.34738956525E+03  0.34739188670E+03  0.12700000000E+01 0. -1.
         25    2    1    2    0    0  0.00000000000E+00  0.00000000000E+00 -0.33618386709E+03  0.35866932308E+03  0.12499636327E+03 0.  0.
    9000005    1    3    3    0    0  0.47005434942E+02  0.21699308053E+02 -0.26850799246E+03  0.27345550442E+03  0.10000000000E+01 0.  0.
    9000005    1    3    3    0    0 -0.47005434942E+02 -0.21699308053E+02 -0.67675874636E+02  0.85213818667E+02  0.10000000000E+01 0.  0.
<mgrwt>
<rscale>  0 0.12499636E+03</rscale>
<asrwt>0</asrwt>
<pdfrwt beam="1">  1        4 0.17296507E-02 0.12499636E+03</pdfrwt>
<pdfrwt beam="2">  1       -4 0.53450237E-01 0.12499636E+03</pdfrwt>
<totfact> 0.68786775E+03</totfact>
</mgrwt>
</event>
<event>
 5    1  0.3316199E-002  0.1249936E+03  0.7818608E-02  0.1235079E+00
         -4   -1    0    0    0  501 -0.00000000000E+00  0.00000000000E+00  0.83213015606E+01  0.84176576114E+01  0.12700000000E+01 0.  1.
          4   -1    0    0  501    0  0.00000000000E+00 -0.00000000000E+00 -0.46658058687E+03  0.46658231529E+03  0.12700000000E+01 0.  1.
         25    2    1    2    0    0  0.00000000000E+00  0.00000000000E+00 -0.45825928531E+03  0.47499997290E+03  0.12499360658E+03 0.  0.
    9000005    1    3    3    0    0  0.21045132542E+02  0.31443296046E+02 -0.40138382156E+02  0.55169449807E+02  0.10000000000E+01 0.  0.
    9000005    1    3    3    0    0 -0.21045132542E+02 -0.31443296046E+02 -0.41812090315E+03  0.41983052310E+03  0.10000000000E+01 0.  0.
<mgrwt>
<rscale>  0 0.12499361E+03</rscale>
<asrwt>0</asrwt>
<pdfrwt beam="2">  1        4 0.71789153E-01 0.12499361E+03</pdfrwt>
<pdfrwt beam="1">  1       -4 0.12877456E-02 0.12499361E+03</pdfrwt>
<totfact> 0.57865761E+03</totfact>
</mgrwt>
</event>
<event>
 5    1  0.3316199E-002  0.1249977E+03  0.7818608E-02  0.1235073E+00
          4   -1    0    0  501    0  0.00000000000E+00  0.00000000000E+00  0.27349365412E+02  0.27378836506E+02  0.12700000000E+01 0. -1.
         -4   -1    0    0    0  501 -0.00000000000E+00 -0.00000000000E+00 -0.14271333845E+03  0.14271898918E+03  0.12700000000E+01 0. -1.
         25    2    1    2    0    0  0.00000000000E+00  0.00000000000E+00 -0.11536397304E+03  0.17009782569E+03  0.12499769609E+03 0.  0.
    9000005    1    3    3    0    0  0.99116140636E+01 -0.39002359643E+02  0.73766031145E+01  0.40924789854E+02  0.10000000000E+01 0.  0.
    9000005    1    3    3    0    0 -0.99116140636E+01  0.39002359643E+02 -0.12274057616E+03  0.12917303583E+03  0.10000000000E+01 0.  0.
<mgrwt>
<rscale>  0 0.12499770E+03</rscale>
<asrwt>0</asrwt>
<pdfrwt beam="1">  1        4 0.42102964E-02 0.12499770E+03</pdfrwt>
<pdfrwt beam="2">  1       -4 0.21958599E-01 0.12499770E+03</pdfrwt>
<totfact> 0.95435341E+03</totfact>
</mgrwt>
</event>
<event>
 5    1  0.3316199E-002  0.1250005E+03  0.7818608E-02  0.1235069E+00
         -4   -1    0    0    0  501 -0.00000000000E+00  0.00000000000E+00  0.15439974510E+03  0.15440496815E+03  0.12700000000E+01 0.  1.
          4   -1    0    0  501    0  0.00000000000E+00 -0.00000000000E+00 -0.25278196985E+02  0.25310079866E+02  0.12700000000E+01 0.  1.
         25    2    1    2    0    0  0.00000000000E+00  0.00000000000E+00  0.12912154812E+03  0.17971504801E+03  0.12500049717E+03 0.  0.
    9000005    1    3    3    0    0 -0.45584694647E+02  0.42319205508E+02  0.73235036069E+02  0.96089802002E+02  0.10000000000E+01 0.  0.
    9000005    1    3    3    0    0  0.45584694647E+02 -0.42319205508E+02  0.55886512049E+02  0.83625246008E+02  0.10000000000E+01 0.  0.
<mgrwt>
<rscale>  0 0.12500050E+03</rscale>
<asrwt>0</asrwt>
<pdfrwt beam="2">  1        4 0.38918077E-02 0.12500050E+03</pdfrwt>
<pdfrwt beam="1">  1       -4 0.23756661E-01 0.12500050E+03</pdfrwt>
<totfact> 0.93667276E+03</totfact>
</mgrwt>
</event>
<event>
 5    1  0.3316199E-002  0.1250026E+03  0.7818608E-02  0.1235065E+00
         -4   -1    0    0    0  501 -0.00000000000E+00  0.00000000000E+00  0.22738748723E+01  0.26044974438E+01  0.12700000000E+01 0.  1.
          4   -1    0    0  501    0  0.00000000000E+00 -0.00000000000E+00 -0.16011921473E+04  0.16011926509E+04  0.12700000000E+01 0.  1.
         25    2    1    2    0    0  0.00000000000E+00  0.00000000000E+00 -0.15989182724E+04  0.16037971484E+04  0.12500260522E+03 0.  0.
    9000005    1    3    3    0    0 -0.58557261933E+02  0.15036507854E+02 -0.59644992860E+03  0.59950693642E+03  0.10000000000E+01 0.  0.
    9000005    1    3    3    0    0  0.58557261933E+02 -0.15036507854E+02 -0.10024683438E+04  0.10042902119E+04  0.10000000000E+01 0.  0.
<mgrwt>
<rscale>  0 0.12500261E+03</rscale>
<asrwt>0</asrwt>
<pdfrwt beam="2">  1        4 0.24636188E+00 0.12500261E+03</pdfrwt>
<pdfrwt beam="1">  1       -4 0.37529943E-03 0.12500261E+03</pdfrwt>
<totfact> 0.15976843E+03</totfact>
</mgrwt>
</event>
<event>
 5    1  0.3316199E-002  0.1250038E+03  0.7818608E-02  0.1235063E+00
         -4   -1    0    0    0  501 -0.00000000000E+00  0.00000000000E+00  0.44331619113E+02  0.44349806687E+02  0.12700000000E+01 0.  1.
          4   -1    0    0  501    0  0.00000000000E+00 -0.00000000000E+00 -0.88078765561E+02  0.88087921095E+02  0.12700000000E+01 0.  1.
         25    2    1    2    0    0  0.00000000000E+00  0.00000000000E+00 -0.43747146449E+02  0.13243772778E+03  0.12500375561E+03 0.  0.
    9000005    1    3    3    0    0  0.23359103916E+02 -0.33901075900E+02 -0.71686175293E+02  0.82673081538E+02  0.10000000000E+01 0.  0.
    9000005    1    3    3    0    0 -0.23359103916E+02  0.33901075900E+02  0.27939028844E+02  0.49764646243E+02  0.10000000000E+01 0.  0.
<mgrwt>
<rscale>  0 0.12500376E+03</rscale>
<asrwt>0</asrwt>
<pdfrwt beam="2">  1        4 0.13552683E-01 0.12500376E+03</pdfrwt>
<pdfrwt beam="1">  1       -4 0.68223524E-02 0.12500376E+03</pdfrwt>
<totfact> 0.10291492E+04</totfact>
</mgrwt>
</event>
<event>
 5    1  0.3316199E-002  0.1249985E+03  0.7818608E-02  0.1235072E+00
         -4   -1    0    0    0  501 -0.00000000000E+00  0.00000000000E+00  0.98247722695E+02  0.98255930685E+02  0.12700000000E+01 0. -1.
          4   -1    0    0  501    0  0.00000000000E+00 -0.00000000000E+00 -0.39738194553E+02  0.39758483451E+02  0.12700000000E+01 0. -1.
         25    2    1    2    0    0  0.00000000000E+00  0.00000000000E+00  0.58509528142E+02  0.13801441414E+03  0.12499845449E+03 0.  0.
    9000005    1    3    3    0    0 -0.14838913517E+02  0.32039951047E+02  0.86183310735E+02  0.93141370329E+02  0.10000000000E+01 0.  0.
    9000005    1    3    3    0    0  0.14838913517E+02 -0.32039951047E+02 -0.27673782593E+02  0.44873043807E+02  0.10000000000E+01 0.  0.
<mgrwt>
<rscale>  0 0.12499845E+03</rscale>
<asrwt>0</asrwt>
<pdfrwt beam="2">  1        4 0.61157605E-02 0.12499845E+03</pdfrwt>
<pdfrwt beam="1">  1       -4 0.15117226E-01 0.12499845E+03</pdfrwt>
<totfact> 0.10175259E+04</totfact>
</mgrwt>
</event>
<event>
 5    1  0.3316199E-002  0.1250016E+03  0.7818608E-02  0.1235067E+00
          4   -1    0    0  501    0  0.00000000000E+00  0.00000000000E+00  0.20643632150E+02  0.20682660573E+02  0.12700000000E+01 0.  1.
         -4   -1    0    0    0  501 -0.00000000000E+00 -0.00000000000E+00 -0.18900787105E+03  0.18901213776E+03  0.12700000000E+01 0.  1.
         25    2    1    2    0    0  0.00000000000E+00  0.00000000000E+00 -0.16836423890E+03  0.20969479833E+03  0.12500156601E+03 0.  0.
    9000005    1    3    3    0    0 -0.41737530444E+02  0.26971644113E+02 -0.14774854263E+03  0.15588496682E+03  0.10000000000E+01 0.  0.
    9000005    1    3    3    0    0  0.41737530444E+02 -0.26971644113E+02 -0.20615696275E+02  0.53809831505E+02  0.10000000000E+01 0.  0.
<mgrwt>
<rscale>  0 0.12500157E+03</rscale>
<asrwt>0</asrwt>
<pdfrwt beam="1">  1        4 0.31792739E-02 0.12500157E+03</pdfrwt>
<pdfrwt beam="2">  1       -4 0.29081463E-01 0.12500157E+03</pdfrwt>
<totfact> 0.88522650E+03</totfact>
</mgrwt>
</event>
<event>
 5    1  0.3316199E-002  0.1250200E+03  0.7818608E-02  0.1235038E+00
          4   -1    0    0  501    0  0.00000000000E+00  0.00000000000E+00  0.16614009804E+03  0.16614495200E+03  0.12700000000E+01 0. -1.
         -4   -1    0    0    0  501 -0.00000000000E+00 -0.00000000000E+00 -0.23496977996E+02  0.23531274401E+02  0.12700000000E+01 0. -1.
         25    2    1    2    0    0  0.00000000000E+00  0.00000000000E+00  0.14264312004E+03  0.18967622641E+03  0.12502004306E+03 0.  0.
    9000005    1    3    3    0    0  0.27466811029E+02  0.16400117832E+02  0.15278525512E+03  0.15610164559E+03  0.10000000000E+01 0.  0.
    9000005    1    3    3    0    0 -0.27466811029E+02 -0.16400117832E+02 -0.10142135079E+02  0.33574580816E+02  0.10000000000E+01 0.  0.
<mgrwt>
<rscale>  0 0.12502004E+03</rscale>
<asrwt>0</asrwt>
<pdfrwt beam="1">  1        4 0.25563026E-01 0.12502004E+03</pdfrwt>
<pdfrwt beam="2">  1       -4 0.36179313E-02 0.12502004E+03</pdfrwt>
<totfact> 0.91862430E+03</totfact>
</mgrwt>
</event>
<event>
 5    1  0.3316199E-002  0.1250012E+03  0.7818608E-02  0.1235067E+00
         -4   -1    0    0    0  501 -0.00000000000E+00  0.00000000000E+00  0.42145630260E+02  0.42164760761E+02  0.12700000000E+01 0. -1.
          4   -1    0    0  501    0  0.00000000000E+00 -0.00000000000E+00 -0.92641912042E+02  0.92650616656E+02  0.12700000000E+01 0. -1.
         25    2    1    2    0    0  0.00000000000E+00  0.00000000000E+00 -0.50496281782E+02  0.13481537742E+03  0.12500124605E+03 0.  0.
    9000005    1    3    3    0    0 -0.84210219770E+01 -0.61922389187E+02 -0.25441025038E+02  0.67479935157E+02  0.10000000000E+01 0.  0.
    9000005    1    3    3    0    0  0.84210219770E+01  0.61922389187E+02 -0.25055256744E+02  0.67335442260E+02  0.10000000000E+01 0.  0.
<mgrwt>
<rscale>  0 0.12500125E+03</rscale>
<asrwt>0</asrwt>
<pdfrwt beam="2">  1        4 0.14254743E-01 0.12500125E+03</pdfrwt>
<pdfrwt beam="1">  1       -4 0.64860843E-02 0.12500125E+03</pdfrwt>
<totfact> 0.10241676E+04</totfact>
</mgrwt>
</event>
<event>
 5    1  0.3316199E-002  0.1250032E+03  0.7818608E-02  0.1235064E+00
         -4   -1    0    0    0  501 -0.00000000000E+00  0.00000000000E+00  0.50039886188E+02  0.50055999737E+02  0.12700000000E+01 0. -1.
          4   -1    0    0  501    0  0.00000000000E+00 -0.00000000000E+00 -0.78032844138E+02  0.78043178205E+02  0.12700000000E+01 0. -1.
         25    2    1    2    0    0  0.00000000000E+00  0.00000000000E+00 -0.27992957950E+02  0.12809917794E+03  0.12500317474E+03 0.  0.
    9000005    1    3    3    0    0  0.12054346723E+02  0.46339604163E+02 -0.55150584340E+02  0.73042817183E+02  0.10000000000E+01 0.  0.
    9000005    1    3    3    0    0 -0.12054346723E+02 -0.46339604163E+02  0.27157626390E+02  0.55056360759E+02  0.10000000000E+01 0.  0.
<mgrwt>
<rscale>  0 0.12500317E+03</rscale>
<asrwt>0</asrwt>
<pdfrwt beam="2">  1        4 0.12007087E-01 0.12500317E+03</pdfrwt>
<pdfrwt beam="1">  1       -4 0.77004785E-02 0.12500317E+03</pdfrwt>
<totfact> 0.10384602E+04</totfact>
</mgrwt>
</event>
<event>
 5    1  0.3316199E-002  0.1249985E+03  0.7818608E-02  0.1235072E+00
          4   -1    0    0  501    0  0.00000000000E+00  0.00000000000E+00  0.58952721511E+03  0.58952858306E+03  0.12700000000E+01 0.  1.
         -4   -1    0    0    0  501 -0.00000000000E+00 -0.00000000000E+00 -0.65636641486E+01  0.66854010393E+01  0.12700000000E+01 0.  1.
         25    2    1    2    0    0  0.00000000000E+00  0.00000000000E+00  0.58296355096E+03  0.59621398410E+03  0.12499845238E+03 0.  0.
    9000005    1    3    3    0    0  0.26541562017E+01 -0.24672541002E+02  0.17920777456E+02  0.30625693286E+02  0.10000000000E+01 0.  0.
    9000005    1    3    3    0    0 -0.26541562017E+01  0.24672541002E+02  0.56504277350E+03  0.56558829082E+03  0.10000000000E+01 0.  0.
<mgrwt>
<rscale>  0 0.12499845E+03</rscale>
<asrwt>0</asrwt>
<pdfrwt beam="1">  1        4 0.90705975E-01 0.12499845E+03</pdfrwt>
<pdfrwt beam="2">  1       -4 0.10192640E-02 0.12499845E+03</pdfrwt>
<totfact> 0.49109132E+03</totfact>
</mgrwt>
</event>
<event>
 5    1  0.3316199E-002  0.1249987E+03  0.7818608E-02  0.1235071E+00
          4   -1    0    0  501    0  0.00000000000E+00  0.00000000000E+00  0.12470812845E+02  0.12535313040E+02  0.12700000000E+01 0.  1.
         -4   -1    0    0    0  501 -0.00000000000E+00 -0.00000000000E+00 -0.31235093346E+03  0.31235351532E+03  0.12700000000E+01 0.  1.
         25    2    1    2    0    0  0.00000000000E+00  0.00000000000E+00 -0.29988012062E+03  0.32488882836E+03  0.12499865621E+03 0.  0.
    9000005    1    3    3    0    0 -0.60222601909E+02  0.14415686190E+01 -0.10673442480E+03  0.12256458436E+03  0.10000000000E+01 0.  0.
    9000005    1    3    3    0    0  0.60222601909E+02 -0.14415686190E+01 -0.19314569581E+03  0.20232424400E+03  0.10000000000E+01 0.  0.
<mgrwt>
<rscale>  0 0.12499866E+03</rscale>
<asrwt>0</asrwt>
<pdfrwt beam="1">  1        4 0.19237470E-02 0.12499866E+03</pdfrwt>
<pdfrwt beam="2">  1       -4 0.48059144E-01 0.12499866E+03</pdfrwt>
<totfact> 0.72580576E+03</totfact>
</mgrwt>
</event>
<event>
 5    1  0.3316199E-002  0.1250044E+03  0.7818608E-02  0.1235062E+00
          4   -1    0    0  501    0  0.00000000000E+00  0.00000000000E+00  0.36418422392E+02  0.36440559677E+02  0.12700000000E+01 0.  1.
         -4   -1    0    0    0  501 -0.00000000000E+00 -0.00000000000E+00 -0.10720927859E+03  0.10721680053E+03  0.12700000000E+01 0.  1.
         25    2    1    2    0    0  0.00000000000E+00  0.00000000000E+00 -0.70790856194E+02  0.14365736020E+03  0.12500436720E+03 0.  0.
    9000005    1    3    3    0    0  0.43946321057E+02 -0.44429434480E+02 -0.35991663701E+02  0.72122490518E+02  0.10000000000E+01 0.  0.
    9000005    1    3    3    0    0 -0.43946321057E+02  0.44429434480E+02 -0.34799192493E+02  0.71534869685E+02  0.10000000000E+01 0.  0.
<mgrwt>
<rscale>  0 0.12500437E+03</rscale>
<asrwt>0</asrwt>
<pdfrwt beam="1">  1        4 0.56051157E-02 0.12500437E+03</pdfrwt>
<pdfrwt beam="2">  1       -4 0.16496017E-01 0.12500437E+03</pdfrwt>
<totfact> 0.10057350E+04</totfact>
</mgrwt>
</event>
<event>
 5    1  0.3316199E-002  0.1249998E+03  0.7818608E-02  0.1235070E+00
          4   -1    0    0  501    0  0.00000000000E+00  0.00000000000E+00  0.18840313763E+03  0.18840741803E+03  0.12700000000E+01 0.  1.
         -4   -1    0    0    0  501 -0.00000000000E+00 -0.00000000000E+00 -0.20709430155E+02  0.20748334809E+02  0.12700000000E+01 0.  1.
         25    2    1    2    0    0  0.00000000000E+00  0.00000000000E+00  0.16769370747E+03  0.20915575284E+03  0.12499979767E+03 0.  0.
    9000005    1    3    3    0    0  0.25973593175E+01  0.46758351834E+02  0.14610991251E+02  0.49067003240E+02  0.10000000000E+01 0.  0.
    9000005    1    3    3    0    0 -0.25973593175E+01 -0.46758351834E+02  0.15308271622E+03  0.16008874959E+03  0.10000000000E+01 0.  0.
<mgrwt>
<rscale>  0 0.12499980E+03</rscale>
<asrwt>0</asrwt>
<pdfrwt beam="1">  1        4 0.28988421E-01 0.12499980E+03</pdfrwt>
<pdfrwt beam="2">  1       -4 0.31893880E-02 0.12499980E+03</pdfrwt>
<totfact> 0.88614343E+03</totfact>
</mgrwt>
</event>
<event>
 5    1  0.3316199E-002  0.1250054E+03  0.7818608E-02  0.1235061E+00
         -4   -1    0    0    0  501 -0.00000000000E+00  0.00000000000E+00  0.75060755248E+01  0.76127570422E+01  0.12700000000E+01 0.  1.
          4   -1    0    0  501    0  0.00000000000E+00 -0.00000000000E+00 -0.51667690734E+03  0.51667846818E+03  0.12700000000E+01 0.  1.
         25    2    1    2    0    0  0.00000000000E+00  0.00000000000E+00 -0.50917083182E+03  0.52429122522E+03  0.12500541137E+03 0.  0.
    9000005    1    3    3    0    0 -0.42663427594E+02 -0.39055200627E+02 -0.35384695569E+03  0.35854448093E+03  0.10000000000E+01 0.  0.
    9000005    1    3    3    0    0  0.42663427594E+02  0.39055200627E+02 -0.15532387613E+03  0.16574674430E+03  0.10000000000E+01 0.  0.
<mgrwt>
<rscale>  0 0.12500541E+03</rscale>
<asrwt>0</asrwt>
<pdfrwt beam="2">  1        4 0.79497054E-01 0.12500541E+03</pdfrwt>
<pdfrwt beam="1">  1       -4 0.11631076E-02 0.12500541E+03</pdfrwt>
<totfact> 0.54021311E+03</totfact>
</mgrwt>
</event>
<event>
 5    1  0.3316199E-002  0.1249942E+03  0.7818608E-02  0.1235078E+00
         -4   -1    0    0    0  501 -0.00000000000E+00  0.00000000000E+00  0.22841525332E+02  0.22876804398E+02  0.12700000000E+01 0.  1.
          4   -1    0    0  501    0  0.00000000000E+00 -0.00000000000E+00 -0.17082968796E+03  0.17083440868E+03  0.12700000000E+01 0.  1.
         25    2    1    2    0    0  0.00000000000E+00  0.00000000000E+00 -0.14798816263E+03  0.19371121308E+03  0.12499415104E+03 0.  0.
    9000005    1    3    3    0    0 -0.38146984585E+02 -0.49278802090E+02 -0.81145134969E+02  0.10231874558E+03  0.10000000000E+01 0.  0.
    9000005    1    3    3    0    0  0.38146984585E+02  0.49278802090E+02 -0.66843027665E+02  0.91392467500E+02  0.10000000000E+01 0.  0.
<mgrwt>
<rscale>  0 0.12499415E+03</rscale>
<asrwt>0</asrwt>
<pdfrwt beam="2">  1        4 0.26284567E-01 0.12499415E+03</pdfrwt>
<pdfrwt beam="1">  1       -4 0.35171578E-02 0.12499415E+03</pdfrwt>
<totfact> 0.91217502E+03</totfact>
</mgrwt>
</event>
<event>
 5    1  0.3316199E-002  0.1249916E+03  0.7818608E-02  0.1235082E+00
          4   -1    0    0  501    0  0.00000000000E+00  0.00000000000E+00  0.22405461440E+02  0.22441426032E+02  0.12700000000E+01 0.  1.
         -4   -1    0    0    0  501 -0.00000000000E+00 -0.00000000000E+00 -0.17414211675E+03  0.17414674768E+03  0.12700000000E+01 0.  1.
         25    2    1    2    0    0  0.00000000000E+00  0.00000000000E+00 -0.15173665531E+03  0.19658817371E+03  0.12499158963E+03 0.  0.
    9000005    1    3    3    0    0  0.54187293221E+02 -0.13006354715E+02 -0.31402076747E+02  0.63972794481E+02  0.10000000000E+01 0.  0.
    9000005    1    3    3    0    0 -0.54187293221E+02  0.13006354715E+02 -0.12033457856E+03  0.13261537923E+03  0.10000000000E+01 0.  0.
<mgrwt>
<rscale>  0 0.12499159E+03</rscale>
<asrwt>0</asrwt>
<pdfrwt beam="1">  1        4 0.34501169E-02 0.12499159E+03</pdfrwt>
<pdfrwt beam="2">  1       -4 0.26794217E-01 0.12499159E+03</pdfrwt>
<totfact> 0.90730543E+03</totfact>
</mgrwt>
</event>
<event>
 5    1  0.3316199E-002  0.1249995E+03  0.7818608E-02  0.1235070E+00
          4   -1    0    0  501    0  0.00000000000E+00  0.00000000000E+00  0.51207666405E+02  0.51223412603E+02  0.12700000000E+01 0.  1.
         -4   -1    0    0    0  501 -0.00000000000E+00 -0.00000000000E+00 -0.76249153762E+02  0.76259729540E+02  0.12700000000E+01 0.  1.
         25    2    1    2    0    0  0.00000000000E+00  0.00000000000E+00 -0.25041487357E+02  0.12748314214E+03  0.12499950176E+03 0.  0.
    9000005    1    3    3    0    0 -0.25219823749E+02 -0.17184779109E+02 -0.68137407672E+02  0.74666340926E+02  0.10000000000E+01 0.  0.
    9000005    1    3    3    0    0  0.25219823749E+02  0.17184779109E+02  0.43095920315E+02  0.52816801217E+02  0.10000000000E+01 0.  0.
<mgrwt>
<rscale>  0 0.12499950E+03</rscale>
<asrwt>0</asrwt>
<pdfrwt beam="1">  1        4 0.78801273E-02 0.12499950E+03</pdfrwt>
<pdfrwt beam="2">  1       -4 0.11732664E-01 0.12499950E+03</pdfrwt>
<totfact> 0.10398783E+04</totfact>
</mgrwt>
</event>
<event>
 5    1  0.3316199E-002  0.1249998E+03  0.7818608E-02  0.1235070E+00
          4   -1    0    0  501    0  0.00000000000E+00  0.00000000000E+00  0.25483845072E+02  0.25515470987E+02  0.12700000000E+01 0. -1.
         -4   -1    0    0    0  501 -0.00000000000E+00 -0.00000000000E+00 -0.15315364752E+03  0.15315891306E+03  0.12700000000E+01 0. -1.
         25    2    1    2    0    0  0.00000000000E+00  0.00000000000E+00 -0.12766980245E+03  0.17867438404E+03  0.12499982822E+03 0.  0.
    9000005    1    3    3    0    0  0.10851516055E+02 -0.34050507571E+02  0.94423930087E+01  0.36977712913E+02  0.10000000000E+01 0.  0.
    9000005    1    3    3    0    0 -0.10851516055E+02  0.34050507571E+02 -0.13711219546E+03  0.14169667113E+03  0.10000000000E+01 0.  0.
<mgrwt>
<rscale>  0 0.12499983E+03</rscale>
<asrwt>0</asrwt>
<pdfrwt beam="1">  1        4 0.39234294E-02 0.12499983E+03</pdfrwt>
<pdfrwt beam="2">  1       -4 0.23564937E-01 0.12499983E+03</pdfrwt>
<totfact> 0.93856526E+03</totfact>
</mgrwt>
</event>
<event>
 5    1  0.3316199E-002  0.1250005E+03  0.7818608E-02  0.1235069E+00
         -4   -1    0    0    0  501 -0.00000000000E+00  0.00000000000E+00  0.44074090837E+02  0.44092384639E+02  0.12700000000E+01 0.  1.
          4   -1    0    0  501    0  0.00000000000E+00 -0.00000000000E+00 -0.88588609112E+02  0.88597711959E+02  0.12700000000E+01 0.  1.
         25    2    1    2    0    0  0.00000000000E+00  0.00000000000E+00 -0.44514518275E+02  0.13269009660E+03  0.12500047759E+03 0.  0.
    9000005    1    3    3    0    0 -0.35141761596E+02 -0.51161276970E+02 -0.14539501120E+02  0.63755915507E+02  0.10000000000E+01 0.  0.
    9000005    1    3    3    0    0  0.35141761596E+02  0.51161276970E+02 -0.29975017155E+02  0.68934181091E+02  0.10000000000E+01 0.  0.
<mgrwt>
<rscale>  0 0.12500048E+03</rscale>
<asrwt>0</asrwt>
<pdfrwt beam="2">  1        4 0.13631124E-01 0.12500048E+03</pdfrwt>
<pdfrwt beam="1">  1       -4 0.67827368E-02 0.12500048E+03</pdfrwt>
<totfact> 0.10286880E+04</totfact>
</mgrwt>
</event>
<event>
 5    1  0.3316199E-002  0.1250052E+03  0.7818608E-02  0.1235061E+00
          4   -1    0    0  501    0  0.00000000000E+00  0.00000000000E+00  0.19135242864E+03  0.19135664307E+03  0.12700000000E+01 0. -1.
         -4   -1    0    0    0  501 -0.00000000000E+00 -0.00000000000E+00 -0.20391419655E+02  0.20430929875E+02  0.12700000000E+01 0. -1.
         25    2    1    2    0    0  0.00000000000E+00  0.00000000000E+00  0.17096100899E+03  0.21178757294E+03  0.12500523773E+03 0.  0.
    9000005    1    3    3    0    0  0.15728834782E+01  0.55661823212E+02  0.37414973901E+02  0.67093910289E+02  0.10000000000E+01 0.  0.
    9000005    1    3    3    0    0 -0.15728834782E+01 -0.55661823212E+02  0.13354603508E+03  0.14469366265E+03  0.10000000000E+01 0.  0.
<mgrwt>
<rscale>  0 0.12500524E+03</rscale>
<asrwt>0</asrwt>
<pdfrwt beam="1">  1        4 0.29442199E-01 0.12500524E+03</pdfrwt>
<pdfrwt beam="2">  1       -4 0.31405049E-02 0.12500524E+03</pdfrwt>
<totfact> 0.88174452E+03</totfact>
</mgrwt>
</event>
<event>
 5    1  0.3316199E-002  0.1249916E+03  0.7818608E-02  0.1235082E+00
         -4   -1    0    0    0  501 -0.00000000000E+00  0.00000000000E+00  0.32249279456E+03  0.32249529523E+03  0.12700000000E+01 0.  1.
          4   -1    0    0  501    0  0.00000000000E+00 -0.00000000000E+00 -0.12075201211E+02  0.12141803172E+02  0.12700000000E+01 0.  1.
         25    2    1    2    0    0  0.00000000000E+00  0.00000000000E+00  0.31041759335E+03  0.33463709840E+03  0.12499162117E+03 0.  0.
    9000005    1    3    3    0    0  0.31733111804E+02  0.25403984088E+00  0.29932663970E+03  0.30100580086E+03  0.10000000000E+01 0.  0.
    9000005    1    3    3    0    0 -0.31733111804E+02 -0.25403984088E+00  0.11090953652E+02  0.33631297535E+02  0.10000000000E+01 0.  0.
<mgrwt>
<rscale>  0 0.12499162E+03</rscale>
<asrwt>0</asrwt>
<pdfrwt beam="2">  1        4 0.18630389E-02 0.12499162E+03</pdfrwt>
<pdfrwt beam="1">  1       -4 0.49619589E-01 0.12499162E+03</pdfrwt>
<totfact> 0.71461662E+03</totfact>
</mgrwt>
</event>
<event>
 5    1  0.3316199E-002  0.1250076E+03  0.7818608E-02  0.1235057E+00
         -4   -1    0    0    0  501 -0.00000000000E+00  0.00000000000E+00  0.37806990618E+02  0.37828315315E+02  0.12700000000E+01 0. -1.
          4   -1    0    0  501    0  0.00000000000E+00 -0.00000000000E+00 -0.10327905817E+03  0.10328686633E+03  0.12700000000E+01 0. -1.
         25    2    1    2    0    0  0.00000000000E+00  0.00000000000E+00 -0.65472067554E+02  0.14111518165E+03  0.12500761122E+03 0.  0.
    9000005    1    3    3    0    0 -0.45370161741E+02 -0.42750105960E+02 -0.37746738687E+02  0.72882366986E+02  0.10000000000E+01 0.  0.
    9000005    1    3    3    0    0  0.45370161741E+02  0.42750105960E+02 -0.27725328867E+02  0.68232814662E+02  0.10000000000E+01 0.  0.
<mgrwt>
<rscale>  0 0.12500761E+03</rscale>
<asrwt>0</asrwt>
<pdfrwt beam="2">  1        4 0.15891327E-01 0.12500761E+03</pdfrwt>
<pdfrwt beam="1">  1       -4 0.58187011E-02 0.12500761E+03</pdfrwt>
<totfact> 0.10108792E+04</totfact>
</mgrwt>
</event>
<event>
 4    1  0.3316199E-002  0.1248488E+03  0.7818608E-02  0.1235306E+00
         -4   -1    0    0    0  501 -0.00000000000E+00  0.00000000000E+00  0.25064825473E+02  0.25096979420E+02  0.12700000000E+01 0. -1.
          4   -1    0    0  501    0  0.00000000000E+00 -0.00000000000E+00 -0.15533458961E+03  0.15533978122E+03  0.12700000000E+01 0. -1.
    9000005    1    1    2    0    0  0.20903387336E+02  0.43786842175E+02 -0.83906682125E+01  0.49250811799E+02  0.10000000000E+01 0.  0.
    9000005    1    1    2    0    0 -0.20903387336E+02 -0.43786842175E+02 -0.12187909593E+03  0.13118594884E+03  0.10000000000E+01 0.  0.
<mgrwt>
<rscale>  0 0.12484876E+03</rscale>
<asrwt>0</asrwt>
<pdfrwt beam="2">  1        4 0.23900501E-01 0.12484876E+03</pdfrwt>
<pdfrwt beam="1">  1       -4 0.38589998E-02 0.12484876E+03</pdfrwt>
<totfact> 0.93856334E+03</totfact>
</mgrwt>
</event>
<event>
 5    1  0.3316199E-002  0.1249981E+03  0.7818608E-02  0.1235072E+00
          4   -1    0    0  501    0  0.00000000000E+00  0.00000000000E+00  0.36423562829E+02  0.36445696991E+02  0.12700000000E+01 0. -1.
         -4   -1    0    0    0  501 -0.00000000000E+00 -0.00000000000E+00 -0.10718336885E+03  0.10719089261E+03  0.12700000000E+01 0. -1.
         25    2    1    2    0    0  0.00000000000E+00  0.00000000000E+00 -0.70759806020E+02  0.14363658960E+03  0.12499807888E+03 0.  0.
    9000005    1    3    3    0    0  0.95809677153E+01  0.31665289316E+02 -0.96300577239E+02  0.10182969442E+03  0.10000000000E+01 0.  0.
    9000005    1    3    3    0    0 -0.95809677153E+01 -0.31665289316E+02  0.25540771218E+02  0.41806895176E+02  0.10000000000E+01 0.  0.
<mgrwt>
<rscale>  0 0.12499808E+03</rscale>
<asrwt>0</asrwt>
<pdfrwt beam="1">  1        4 0.56059065E-02 0.12499808E+03</pdfrwt>
<pdfrwt beam="2">  1       -4 0.16492030E-01 0.12499808E+03</pdfrwt>
<totfact> 0.10059199E+04</totfact>
</mgrwt>
</event>
<event>
 5    1  0.3316199E-002  0.1249985E+03  0.7818608E-02  0.1235072E+00
          4   -1    0    0  501    0  0.00000000000E+00  0.00000000000E+00  0.12372174057E+04  0.12372180575E+04  0.12700000000E+01 0. -1.
         -4   -1    0    0    0  501 -0.00000000000E+00 -0.00000000000E+00 -0.30288140205E+01  0.32842981550E+01  0.12700000000E+01 0. -1.
         25    2    1    2    0    0  0.00000000000E+00  0.00000000000E+00  0.12341885917E+04  0.12405023557E+04  0.12499845846E+03 0.  0.
    9000005    1    3    3    0    0 -0.23107714763E+02 -0.57864935722E+02  0.56966937340E+03  0.57306763323E+03  0.10000000000E+01 0.  0.
    9000005    1    3    3    0    0  0.23107714763E+02  0.57864935722E+02  0.66451921828E+03  0.66743472245E+03  0.10000000000E+01 0.  0.
<mgrwt>
<rscale>  0 0.12499846E+03</rscale>
<asrwt>0</asrwt>
<pdfrwt beam="1">  1        4 0.19036141E+00 0.12499846E+03</pdfrwt>
<pdfrwt beam="2">  1       -4 0.48567271E-03 0.12499846E+03</pdfrwt>
<totfact> 0.23677233E+03</totfact>
</mgrwt>
</event>
<event>
 5    1  0.3316199E-002  0.1250003E+03  0.7818608E-02  0.1235069E+00
         -4   -1    0    0    0  501 -0.00000000000E+00  0.00000000000E+00  0.16515983960E+03  0.16516472237E+03  0.12700000000E+01 0.  1.
          4   -1    0    0  501    0  0.00000000000E+00 -0.00000000000E+00 -0.23629142614E+02  0.23663247467E+02  0.12700000000E+01 0.  1.
         25    2    1    2    0    0  0.00000000000E+00  0.00000000000E+00  0.14153069699E+03  0.18882796984E+03  0.12500025602E+03 0.  0.
    9000005    1    3    3    0    0  0.43111269337E+02  0.35674123748E+02  0.28737466628E+02  0.62913167439E+02  0.10000000000E+01 0.  0.
    9000005    1    3    3    0    0 -0.43111269337E+02 -0.35674123748E+02  0.11279323036E+03  0.12591480240E+03  0.10000000000E+01 0.  0.
<mgrwt>
<rscale>  0 0.12500026E+03</rscale>
<asrwt>0</asrwt>
<pdfrwt beam="2">  1        4 0.36382517E-02 0.12500026E+03</pdfrwt>
<pdfrwt beam="1">  1       -4 0.25412206E-01 0.12500026E+03</pdfrwt>
<totfact> 0.92051116E+03</totfact>
</mgrwt>
</event>
<event>
 5    1  0.3316199E-002  0.1249981E+03  0.7818608E-02  0.1235072E+00
          4   -1    0    0  501    0  0.00000000000E+00  0.00000000000E+00  0.29356354327E+03  0.29356629037E+03  0.12700000000E+01 0.  1.
         -4   -1    0    0    0  501 -0.00000000000E+00 -0.00000000000E+00 -0.13272796880E+02  0.13333418055E+02  0.12700000000E+01 0.  1.
         25    2    1    2    0    0  0.00000000000E+00  0.00000000000E+00  0.28029074639E+03  0.30689970842E+03  0.12499811405E+03 0.  0.
    9000005    1    3    3    0    0  0.29155168611E+02 -0.28372030557E+02  0.23679841365E+02  0.47082171379E+02  0.10000000000E+01 0.  0.
    9000005    1    3    3    0    0 -0.29155168611E+02  0.28372030557E+02  0.25661090503E+03  0.25981753704E+03  0.10000000000E+01 0.  0.
<mgrwt>
<rscale>  0 0.12499811E+03</rscale>
<asrwt>0</asrwt>
<pdfrwt beam="1">  1        4 0.45168491E-01 0.12499811E+03</pdfrwt>
<pdfrwt beam="2">  1       -4 0.20468435E-02 0.12499811E+03</pdfrwt>
<totfact> 0.74744554E+03</totfact>
</mgrwt>
</event>
<event>
 5    1  0.3316199E-002  0.1250011E+03  0.7818608E-02  0.1235068E+00
          4   -1    0    0  501    0  0.00000000000E+00  0.00000000000E+00  0.48546219216E+03  0.48546385336E+03  0.12700000000E+01 0. -1.
         -4   -1    0    0    0  501 -0.00000000000E+00 -0.00000000000E+00 -0.79947944028E+01  0.80950378345E+01  0.12700000000E+01 0. -1.
         25    2    1    2    0    0  0.00000000000E+00  0.00000000000E+00  0.47746739776E+03  0.49355889119E+03  0.12500105261E+03 0.  0.
    9000005    1    3    3    0    0 -0.91628610026E+01  0.51992696347E+02  0.37076259494E+03  0.37450380546E+03  0.10000000000E+01 0.  0.
    9000005    1    3    3    0    0  0.91628610026E+01 -0.51992696347E+02  0.10670480282E+03  0.11905508573E+03  0.10000000000E+01 0.  0.
<mgrwt>
<rscale>  0 0.12500105E+03</rscale>
<asrwt>0</asrwt>
<pdfrwt beam="1">  1        4 0.74694325E-01 0.12500105E+03</pdfrwt>
<pdfrwt beam="2">  1       -4 0.12378073E-02 0.12500105E+03</pdfrwt>
<totfact> 0.56366299E+03</totfact>
</mgrwt>
</event>
<event>
 5    1  0.3316199E-002  0.1250005E+03  0.7818608E-02  0.1235068E+00
         -4   -1    0    0    0  501 -0.00000000000E+00  0.00000000000E+00  0.58884664629E+02  0.58898358453E+02  0.12700000000E+01 0.  1.
          4   -1    0    0  501    0  0.00000000000E+00 -0.00000000000E+00 -0.66310359246E+02  0.66322519880E+02  0.12700000000E+01 0.  1.
         25    2    1    2    0    0  0.00000000000E+00  0.00000000000E+00 -0.74256946163E+01  0.12522087833E+03  0.12500050972E+03 0.  0.
    9000005    1    3    3    0    0 -0.53283001901E+02 -0.99342875411E+01 -0.34872562387E+02  0.64458234292E+02  0.10000000000E+01 0.  0.
    9000005    1    3    3    0    0  0.53283001901E+02  0.99342875411E+01  0.27446867771E+02  0.60762644042E+02  0.10000000000E+01 0.  0.
<mgrwt>
<rscale>  0 0.12500051E+03</rscale>
<asrwt>0</asrwt>
<pdfrwt beam="2">  1        4 0.10203582E-01 0.12500051E+03</pdfrwt>
<pdfrwt beam="1">  1       -4 0.90611681E-02 0.12500051E+03</pdfrwt>
<totfact> 0.10447947E+04</totfact>
</mgrwt>
</event>
<event>
 5    1  0.3316199E-002  0.1249976E+03  0.7818608E-02  0.1235073E+00
          4   -1    0    0  501    0  0.00000000000E+00  0.00000000000E+00  0.16161726131E+04  0.16161731121E+04  0.12700000000E+01 0. -1.
         -4   -1    0    0    0  501 -0.00000000000E+00 -0.00000000000E+00 -0.22495138333E+01  0.25832561790E+01  0.12700000000E+01 0. -1.
         25    2    1    2    0    0  0.00000000000E+00  0.00000000000E+00  0.16139230992E+04  0.16187563682E+04  0.12499763780E+03 0.  0.
    9000005    1    3    3    0    0 -0.61566896030E+02 -0.49880552703E+01  0.68428254231E+03  0.68706547074E+03  0.10000000000E+01 0.  0.
    9000005    1    3    3    0    0  0.61566896030E+02  0.49880552703E+01  0.92964055693E+03  0.93169089749E+03  0.10000000000E+01 0.  0.
<mgrwt>
<rscale>  0 0.12499764E+03</rscale>
<asrwt>0</asrwt>
<pdfrwt beam="1">  1        4 0.24866646E+00 0.12499764E+03</pdfrwt>
<pdfrwt beam="2">  1       -4 0.37179170E-03 0.12499764E+03</pdfrwt>
<totfact> 0.15710408E+03</totfact>
</mgrwt>
</event>
<event>
 5    1  0.3316199E-002  0.1250026E+03  0.7818608E-02  0.1235065E+00
         -4   -1    0    0    0  501 -0.00000000000E+00  0.00000000000E+00  0.24901654478E+02  0.24934018844E+02  0.12700000000E+01 0.  1.
          4   -1    0    0  501    0  0.00000000000E+00 -0.00000000000E+00 -0.15673678754E+03  0.15674193270E+03  0.12700000000E+01 0.  1.
         25    2    1    2    0    0  0.00000000000E+00  0.00000000000E+00 -0.13183513306E+03  0.18167595155E+03  0.12500259622E+03 0.  0.
    9000005    1    3    3    0    0  0.45101837741E+02 -0.42950075911E+02 -0.58431970533E+02  0.85405971506E+02  0.10000000000E+01 0.  0.
    9000005    1    3    3    0    0 -0.45101837741E+02  0.42950075911E+02 -0.73403162528E+02  0.96269980043E+02  0.10000000000E+01 0.  0.
<mgrwt>
<rscale>  0 0.12500260E+03</rscale>
<asrwt>0</asrwt>
<pdfrwt beam="2">  1        4 0.24116237E-01 0.12500260E+03</pdfrwt>
<pdfrwt beam="1">  1       -4 0.38339092E-02 0.12500260E+03</pdfrwt>
<totfact> 0.93310763E+03</totfact>
</mgrwt>
</event>
<event>
 5    1  0.3316199E-002  0.1250030E+03  0.7818608E-02  0.1235065E+00
          4   -1    0    0  501    0  0.00000000000E+00  0.00000000000E+00  0.81866926808E+01  0.82846144780E+01  0.12700000000E+01 0.  1.
         -4   -1    0    0    0  501 -0.00000000000E+00 -0.00000000000E+00 -0.47423390929E+03  0.47423560982E+03  0.12700000000E+01 0.  1.
         25    2    1    2    0    0  0.00000000000E+00  0.00000000000E+00 -0.46604721661E+03  0.48252022430E+03  0.12500303495E+03 0.  0.
    9000005    1    3    3    0    0  0.14976264750E+02  0.59812682874E+02 -0.27231184844E+03  0.27920707072E+03  0.10000000000E+01 0.  0.
    9000005    1    3    3    0    0 -0.14976264750E+02 -0.59812682874E+02 -0.19373536817E+03  0.20331315358E+03  0.10000000000E+01 0.  0.
<mgrwt>
<rscale>  0 0.12500303E+03</rscale>
<asrwt>0</asrwt>
<pdfrwt beam="1">  1        4 0.12671548E-02 0.12500303E+03</pdfrwt>
<pdfrwt beam="2">  1       -4 0.72966705E-01 0.12500303E+03</pdfrwt>
<totfact> 0.57242741E+03</totfact>
</mgrwt>
</event>
<event>
 5    1  0.3316199E-002  0.1250043E+03  0.7818608E-02  0.1235062E+00
          4   -1    0    0  501    0  0.00000000000E+00  0.00000000000E+00  0.49004437220E+01  0.50623362860E+01  0.12700000000E+01 0.  1.
         -4   -1    0    0    0  501 -0.00000000000E+00 -0.00000000000E+00 -0.78406071190E+03  0.78406174046E+03  0.12700000000E+01 0.  1.
         25    2    1    2    0    0  0.00000000000E+00  0.00000000000E+00 -0.77916026818E+03  0.78912407675E+03  0.12500433986E+03 0.  0.
    9000005    1    3    3    0    0 -0.44816638439E+02 -0.42526168067E+02 -0.44897229379E+03  0.45320428798E+03  0.10000000000E+01 0.  0.
    9000005    1    3    3    0    0  0.44816638439E+02  0.42526168067E+02 -0.33018797439E+03  0.33591978877E+03  0.10000000000E+01 0.  0.
<mgrwt>
<rscale>  0 0.12500434E+03</rscale>
<asrwt>0</asrwt>
<pdfrwt beam="1">  1        4 0.76644744E-03 0.12500434E+03</pdfrwt>
<pdfrwt beam="2">  1       -4 0.12063716E+00 0.12500434E+03</pdfrwt>
<totfact> 0.38751246E+03</totfact>
</mgrwt>
</event>
<event>
 5    1  0.3316199E-002  0.1250329E+03  0.7818608E-02  0.1235018E+00
         -4   -1    0    0    0  501 -0.00000000000E+00  0.00000000000E+00  0.41059662438E+01  0.42978900399E+01  0.12700000000E+01 0.  1.
          4   -1    0    0  501    0  0.00000000000E+00 -0.00000000000E+00 -0.92992963145E+03  0.92993049867E+03  0.12700000000E+01 0.  1.
         25    2    1    2    0    0  0.00000000000E+00  0.00000000000E+00 -0.92582366521E+03  0.93422838871E+03  0.12503288850E+03 0.  0.
    9000005    1    3    3    0    0 -0.50675031011E+02  0.31661448387E+02 -0.32576710353E+03  0.33120327870E+03  0.10000000000E+01 0.  0.
    9000005    1    3    3    0    0  0.50675031011E+02 -0.31661448387E+02 -0.60005656169E+03  0.60302511001E+03  0.10000000000E+01 0.  0.
<mgrwt>
<rscale>  0 0.12503289E+03</rscale>
<asrwt>0</asrwt>
<pdfrwt beam="2">  1        4 0.14308076E+00 0.12503289E+03</pdfrwt>
<pdfrwt beam="1">  1       -4 0.64651793E-03 0.12503289E+03</pdfrwt>
<totfact> 0.32859081E+03</totfact>
</mgrwt>
</event>
<event>
 5    1  0.3316199E-002  0.1250003E+03  0.7818608E-02  0.1235069E+00
          4   -1    0    0  501    0  0.00000000000E+00  0.00000000000E+00  0.57518681709E+03  0.57518821916E+03  0.12700000000E+01 0. -1.
         -4   -1    0    0    0  501 -0.00000000000E+00 -0.00000000000E+00 -0.67305092516E+01  0.68492813335E+01  0.12700000000E+01 0. -1.
         25    2    1    2    0    0  0.00000000000E+00  0.00000000000E+00  0.56845630784E+03  0.58203750049E+03  0.12500031221E+03 0.  0.
    9000005    1    3    3    0    0  0.15144173513E+02 -0.34313130324E+02  0.51697423664E+03  0.51833396402E+03  0.10000000000E+01 0.  0.
    9000005    1    3    3    0    0 -0.15144173513E+02  0.34313130324E+02  0.51482071200E+02  0.63703536472E+02  0.10000000000E+01 0.  0.
<mgrwt>
<rscale>  0 0.12500031E+03</rscale>
<asrwt>0</asrwt>
<pdfrwt beam="1">  1        4 0.88499521E-01 0.12500031E+03</pdfrwt>
<pdfrwt beam="2">  1       -4 0.10447072E-02 0.12500031E+03</pdfrwt>
<totfact> 0.50021105E+03</totfact>
</mgrwt>
</event>
<event>
 5    1  0.3316199E-002  0.1249990E+03  0.7818608E-02  0.1235071E+00
         -4   -1    0    0    0  501 -0.00000000000E+00  0.00000000000E+00  0.53307426998E+02  0.53322553138E+02  0.12700000000E+01 0.  1.
          4   -1    0    0  501    0  0.00000000000E+00 -0.00000000000E+00 -0.73245634237E+02  0.73256643622E+02  0.12700000000E+01 0.  1.
         25    2    1    2    0    0  0.00000000000E+00  0.00000000000E+00 -0.19938207239E+02  0.12657919676E+03  0.12499904377E+03 0.  0.
    9000005    1    3    3    0    0 -0.11901335205E+02 -0.59896574711E+02  0.34631471853E+01  0.61173808368E+02  0.10000000000E+01 0.  0.
    9000005    1    3    3    0    0  0.11901335205E+02  0.59896574711E+02 -0.23401354424E+02  0.65405388392E+02  0.10000000000E+01 0.  0.
<mgrwt>
<rscale>  0 0.12499904E+03</rscale>
<asrwt>0</asrwt>
<pdfrwt beam="2">  1        4 0.11270570E-01 0.12499904E+03</pdfrwt>
<pdfrwt beam="1">  1       -4 0.82031530E-02 0.12499904E+03</pdfrwt>
<totfact> 0.10418526E+04</totfact>
</mgrwt>
</event>
<event>
 5    1  0.3316199E-002  0.1250003E+03  0.7818608E-02  0.1235069E+00
         -4   -1    0    0    0  501 -0.00000000000E+00  0.00000000000E+00  0.18740615553E+02  0.18783598466E+02  0.12700000000E+01 0.  1.
          4   -1    0    0  501    0  0.00000000000E+00 -0.00000000000E+00 -0.20815510060E+03  0.20815897484E+03  0.12700000000E+01 0.  1.
         25    2    1    2    0    0  0.00000000000E+00  0.00000000000E+00 -0.18941448505E+03  0.22694257330E+03  0.12500033773E+03 0.  0.
    9000005    1    3    3    0    0  0.51290073182E+02  0.17156374536E+02 -0.37864495759E+02  0.66028272984E+02  0.10000000000E+01 0.  0.
    9000005    1    3    3    0    0 -0.51290073182E+02 -0.17156374536E+02 -0.15154998929E+03  0.16091430032E+03  0.10000000000E+01 0.  0.
<mgrwt>
<rscale>  0 0.12500034E+03</rscale>
<asrwt>0</asrwt>
<pdfrwt beam="2">  1        4 0.32027464E-01 0.12500034E+03</pdfrwt>
<pdfrwt beam="1">  1       -4 0.28867762E-02 0.12500034E+03</pdfrwt>
<totfact> 0.85780643E+03</totfact>
</mgrwt>
</event>
<event>
 5    1  0.3316199E-002  0.1249996E+03  0.7818608E-02  0.1235070E+00
          4   -1    0    0  501    0  0.00000000000E+00  0.00000000000E+00  0.61818971676E+01  0.63110025029E+01  0.12700000000E+01 0.  1.
         -4   -1    0    0    0  501 -0.00000000000E+00 -0.00000000000E+00 -0.62522187133E+03  0.62522316119E+03  0.12700000000E+01 0.  1.
         25    2    1    2    0    0  0.00000000000E+00  0.00000000000E+00 -0.61903997416E+03  0.63153416369E+03  0.12499964120E+03 0.  0.
    9000005    1    3    3    0    0  0.56549572914E+02  0.23132489373E+02 -0.24320953931E+03  0.25076851133E+03  0.10000000000E+01 0.  0.
    9000005    1    3    3    0    0 -0.56549572914E+02 -0.23132489373E+02 -0.37583043485E+03  0.38076565237E+03  0.10000000000E+01 0.  0.
<mgrwt>
<rscale>  0 0.12499964E+03</rscale>
<asrwt>0</asrwt>
<pdfrwt beam="1">  1        4 0.96109200E-03 0.12499964E+03</pdfrwt>
<pdfrwt beam="2">  1       -4 0.96197961E-01 0.12499964E+03</pdfrwt>
<totfact> 0.46936110E+03</totfact>
</mgrwt>
</event>
<event>
 5    1  0.3316199E-002  0.1250020E+03  0.7818608E-02  0.1235066E+00
         -4   -1    0    0    0  501 -0.00000000000E+00  0.00000000000E+00  0.92905684935E+03  0.92905771738E+03  0.12700000000E+01 0. -1.
          4   -1    0    0  501    0  0.00000000000E+00 -0.00000000000E+00 -0.41078799226E+01  0.42997182999E+01  0.12700000000E+01 0. -1.
         25    2    1    2    0    0  0.00000000000E+00  0.00000000000E+00  0.92494896942E+03  0.93335743568E+03  0.12500202676E+03 0.  0.
    9000005    1    3    3    0    0  0.23395250668E+02 -0.18610763208E+02  0.52709131308E+02  0.60604874261E+02  0.10000000000E+01 0.  0.
    9000005    1    3    3    0    0 -0.23395250668E+02  0.18610763208E+02  0.87223983812E+03  0.87275256142E+03  0.10000000000E+01 0.  0.
<mgrwt>
<rscale>  0 0.12500203E+03</rscale>
<asrwt>0</asrwt>
<pdfrwt beam="2">  1        4 0.64680462E-03 0.12500203E+03</pdfrwt>
<pdfrwt beam="1">  1       -4 0.14294675E+00 0.12500203E+03</pdfrwt>
<totfact> 0.32912835E+03</totfact>
</mgrwt>
</event>
<event>
 5    1  0.3316199E-002  0.1249972E+03  0.7818608E-02  0.1235074E+00
          4   -1    0    0  501    0  0.00000000000E+00  0.00000000000E+00  0.18867104276E+02  0.18909799675E+02  0.12700000000E+01 0. -1.
         -4   -1    0    0    0  501 -0.00000000000E+00 -0.00000000000E+00 -0.20675235303E+03  0.20675625355E+03  0.12700000000E+01 0. -1.
         25    2    1    2    0    0  0.00000000000E+00  0.00000000000E+00 -0.18788524875E+03  0.22566605323E+03  0.12499720349E+03 0.  0.
    9000005    1    3    3    0    0 -0.50853842755E+02  0.30323726121E+02 -0.13002442451E+03  0.14287404473E+03  0.10000000000E+01 0.  0.
    9000005    1    3    3    0    0  0.50853842755E+02 -0.30323726121E+02 -0.57860824243E+02  0.82792008496E+02  0.10000000000E+01 0.  0.
<mgrwt>
<rscale>  0 0.12499720E+03</rscale>
<asrwt>0</asrwt>
<pdfrwt beam="1">  1        4 0.29062159E-02 0.12499720E+03</pdfrwt>
<pdfrwt beam="2">  1       -4 0.31811637E-01 0.12499720E+03</pdfrwt>
<totfact> 0.85984920E+03</totfact>
</mgrwt>
</event>
<event>
 5    1  0.3316199E-002  0.1249737E+03  0.7818608E-02  0.1235110E+00
          4   -1    0    0  501    0  0.00000000000E+00  0.00000000000E+00  0.23254021410E+03  0.23254368207E+03  0.12700000000E+01 0.  1.
         -4   -1    0    0    0  501 -0.00000000000E+00 -0.00000000000E+00 -0.16763491851E+02  0.16811530539E+02  0.12700000000E+01 0.  1.
         25    2    1    2    0    0  0.00000000000E+00  0.00000000000E+00  0.21577672225E+03  0.24935521261E+03  0.12497371001E+03 0.  0.
    9000005    1    3    3    0    0  0.18796555729E+02  0.19360780278E+02 -0.45469919927E+01  0.27382940974E+02  0.10000000000E+01 0.  0.
    9000005    1    3    3    0    0 -0.18796555729E+02 -0.19360780278E+02  0.22032371424E+03  0.22197227164E+03  0.10000000000E+01 0.  0.
<mgrwt>
<rscale>  0 0.12497371E+03</rscale>
<asrwt>0</asrwt>
<pdfrwt beam="1">  1        4 0.35779381E-01 0.12497371E+03</pdfrwt>
<pdfrwt beam="2">  1       -4 0.25829607E-02 0.12497371E+03</pdfrwt>
<totfact> 0.82471799E+03</totfact>
</mgrwt>
</event>
<event>
 5    1  0.3316199E-002  0.1250194E+03  0.7818608E-02  0.1235039E+00
         -4   -1    0    0    0  501 -0.00000000000E+00  0.00000000000E+00  0.32233538991E+02  0.32258548260E+02  0.12700000000E+01 0. -1.
          4   -1    0    0  501    0  0.00000000000E+00 -0.00000000000E+00 -0.12114815122E+03  0.12115480776E+03  0.12700000000E+01 0. -1.
         25    2    1    2    0    0  0.00000000000E+00  0.00000000000E+00 -0.88914612231E+02  0.15341335602E+03  0.12501939665E+03 0.  0.
    9000005    1    3    3    0    0 -0.31266108880E+02  0.53874008299E+02 -0.38142238987E+02  0.73046620248E+02  0.10000000000E+01 0.  0.
    9000005    1    3    3    0    0  0.31266108880E+02 -0.53874008299E+02 -0.50772373243E+02  0.80366735777E+02  0.10000000000E+01 0.  0.
<mgrwt>
<rscale>  0 0.12501940E+03</rscale>
<asrwt>0</asrwt>
<pdfrwt beam="2">  1        4 0.18640613E-01 0.12501940E+03</pdfrwt>
<pdfrwt beam="1">  1       -4 0.49614419E-02 0.12501940E+03</pdfrwt>
<totfact> 0.98584571E+03</totfact>
</mgrwt>
</event>
<event>
 5    1  0.3316199E-002  0.1249916E+03  0.7818608E-02  0.1235082E+00
          4   -1    0    0  501    0  0.00000000000E+00  0.00000000000E+00  0.18930691134E+03  0.18931117131E+03  0.12700000000E+01 0.  1.
         -4   -1    0    0    0  501 -0.00000000000E+00 -0.00000000000E+00 -0.20607664937E+02  0.20646761348E+02  0.12700000000E+01 0.  1.
         25    2    1    2    0    0  0.00000000000E+00  0.00000000000E+00  0.16869924641E+03  0.20995793266E+03  0.12499159071E+03 0.  0.
    9000005    1    3    3    0    0 -0.24054409047E+02 -0.37944310349E+02  0.11393561425E+02  0.46359449138E+02  0.10000000000E+01 0.  0.
    9000005    1    3    3    0    0  0.24054409047E+02  0.37944310349E+02  0.15730568498E+03  0.16359848352E+03  0.10000000000E+01 0.  0.
<mgrwt>
<rscale>  0 0.12499159E+03</rscale>
<asrwt>0</asrwt>
<pdfrwt beam="1">  1        4 0.29127474E-01 0.12499159E+03</pdfrwt>
<pdfrwt beam="2">  1       -4 0.31737452E-02 0.12499159E+03</pdfrwt>
<totfact> 0.88499389E+03</totfact>
</mgrwt>
</event>
<event>
 5    1  0.3316199E-002  0.1249971E+03  0.7818608E-02  0.1235074E+00
         -4   -1    0    0    0  501 -0.00000000000E+00  0.00000000000E+00  0.43501308529E+03  0.43501493914E+03  0.12700000000E+01 0. -1.
          4   -1    0    0  501    0  0.00000000000E+00 -0.00000000000E+00 -0.89324063712E+01  0.90222382799E+01  0.12700000000E+01 0. -1.
         25    2    1    2    0    0  0.00000000000E+00  0.00000000000E+00  0.42608067892E+03  0.44403717742E+03  0.12499707989E+03 0.  0.
    9000005    1    3    3    0    0 -0.40384466851E+02 -0.38829732288E+02  0.31138510377E+03  0.31638637158E+03  0.10000000000E+01 0.  0.
    9000005    1    3    3    0    0  0.40384466851E+02  0.38829732288E+02  0.11469557516E+03  0.12765080584E+03  0.10000000000E+01 0.  0.
<mgrwt>
<rscale>  0 0.12499708E+03</rscale>
<asrwt>0</asrwt>
<pdfrwt beam="2">  1        4 0.13812694E-02 0.12499708E+03</pdfrwt>
<pdfrwt beam="1">  1       -4 0.66932131E-01 0.12499708E+03</pdfrwt>
<totfact> 0.60487754E+03</totfact>
</mgrwt>
</event>
<event>
 5    1  0.3316199E-002  0.1250009E+03  0.7818608E-02  0.1235068E+00
         -4   -1    0    0    0  501 -0.00000000000E+00  0.00000000000E+00  0.31494239335E+02  0.31519835204E+02  0.12700000000E+01 0. -1.
          4   -1    0    0  501    0  0.00000000000E+00 -0.00000000000E+00 -0.12395325224E+03  0.12395975815E+03  0.12700000000E+01 0. -1.
         25    2    1    2    0    0  0.00000000000E+00  0.00000000000E+00 -0.92459012903E+02  0.15547959335E+03  0.12500093953E+03 0.  0.
    9000005    1    3    3    0    0  0.42059290100E+02  0.27550286975E+02 -0.68483840055E-01  0.50289232308E+02  0.10000000000E+01 0.  0.
    9000005    1    3    3    0    0 -0.42059290100E+02 -0.27550286975E+02 -0.92390529063E+02  0.10519036104E+03  0.10000000000E+01 0.  0.
<mgrwt>
<rscale>  0 0.12500094E+03</rscale>
<asrwt>0</asrwt>
<pdfrwt beam="2">  1        4 0.19072200E-01 0.12500094E+03</pdfrwt>
<pdfrwt beam="1">  1       -4 0.48477370E-02 0.12500094E+03</pdfrwt>
<totfact> 0.98219356E+03</totfact>
</mgrwt>
</event>
<event>
 5    1  0.3316199E-002  0.1250058E+03  0.7818608E-02  0.1235060E+00
          4   -1    0    0  501    0  0.00000000000E+00  0.00000000000E+00  0.49941923755E+01  0.51531405457E+01  0.12700000000E+01 0.  1.
         -4   -1    0    0    0  501 -0.00000000000E+00 -0.00000000000E+00 -0.76981923681E+03  0.76982028439E+03  0.12700000000E+01 0.  1.
         25    2    1    2    0    0  0.00000000000E+00  0.00000000000E+00 -0.76482504443E+03  0.77497342494E+03  0.12500584293E+03 0.  0.
    9000005    1    3    3    0    0  0.17785980415E+02 -0.35443208594E+02 -0.68185872127E+03  0.68301162356E+03  0.10000000000E+01 0.  0.
    9000005    1    3    3    0    0 -0.17785980415E+02  0.35443208594E+02 -0.82966323159E+02  0.91961801382E+02  0.10000000000E+01 0.  0.
<mgrwt>
<rscale>  0 0.12500584E+03</rscale>
<asrwt>0</asrwt>
<pdfrwt beam="1">  1        4 0.78064526E-03 0.12500584E+03</pdfrwt>
<pdfrwt beam="2">  1       -4 0.11844594E+00 0.12500584E+03</pdfrwt>
<totfact> 0.39401664E+03</totfact>
</mgrwt>
</event>
<event>
 5    1  0.3316199E-002  0.1249988E+03  0.7818608E-02  0.1235071E+00
          4   -1    0    0  501    0  0.00000000000E+00  0.00000000000E+00  0.97558974109E+02  0.97567240041E+02  0.12700000000E+01 0. -1.
         -4   -1    0    0    0  501 -0.00000000000E+00 -0.00000000000E+00 -0.40019063254E+02  0.40039209829E+02  0.12700000000E+01 0. -1.
         25    2    1    2    0    0  0.00000000000E+00  0.00000000000E+00  0.57539910855E+02  0.13760644987E+03  0.12499877481E+03 0.  0.
    9000005    1    3    3    0    0 -0.42334462729E+02 -0.22767910263E+02 -0.15190016859E+02  0.50421434772E+02  0.10000000000E+01 0.  0.
    9000005    1    3    3    0    0  0.42334462729E+02  0.22767910263E+02  0.72729927714E+02  0.87185015098E+02  0.10000000000E+01 0.  0.
<mgrwt>
<rscale>  0 0.12499877E+03</rscale>
<asrwt>0</asrwt>
<pdfrwt beam="1">  1        4 0.15011258E-01 0.12499877E+03</pdfrwt>
<pdfrwt beam="2">  1       -4 0.61589647E-02 0.12499877E+03</pdfrwt>
<totfact> 0.10183702E+04</totfact>
</mgrwt>
</event>
<event>
 5    1  0.3316199E-002  0.1249980E+03  0.7818608E-02  0.1235072E+00
         -4   -1    0    0    0  501 -0.00000000000E+00  0.00000000000E+00  0.82535768736E+02  0.82545539073E+02  0.12700000000E+01 0. -1.
          4   -1    0    0  501    0  0.00000000000E+00 -0.00000000000E+00 -0.47305341258E+02  0.47322385945E+02  0.12700000000E+01 0. -1.
         25    2    1    2    0    0  0.00000000000E+00  0.00000000000E+00  0.35230427478E+02  0.12986792502E+03  0.12499797970E+03 0.  0.
    9000005    1    3    3    0    0 -0.15426339306E+02 -0.28214459220E+02 -0.38054984895E+02  0.49831812417E+02  0.10000000000E+01 0.  0.
    9000005    1    3    3    0    0  0.15426339306E+02  0.28214459220E+02  0.73285412373E+02  0.80036112600E+02  0.10000000000E+01 0.  0.
<mgrwt>
<rscale>  0 0.12499798E+03</rscale>
<asrwt>0</asrwt>
<pdfrwt beam="2">  1        4 0.72798076E-02 0.12499798E+03</pdfrwt>
<pdfrwt beam="1">  1       -4 0.12699873E-01 0.12499798E+03</pdfrwt>
<totfact> 0.10347806E+04</totfact>
</mgrwt>
</event>
<event>
 5    1  0.3316199E-002  0.1250001E+03  0.7818608E-02  0.1235069E+00
          4   -1    0    0  501    0  0.00000000000E+00  0.00000000000E+00  0.55763288206E+02  0.55777748355E+02  0.12700000000E+01 0.  1.
         -4   -1    0    0    0  501 -0.00000000000E+00 -0.00000000000E+00 -0.70021376214E+02  0.70032892464E+02  0.12700000000E+01 0.  1.
         25    2    1    2    0    0  0.00000000000E+00  0.00000000000E+00 -0.14258088008E+02  0.12581064082E+03  0.12500009708E+03 0.  0.
    9000005    1    3    3    0    0  0.48828742084E+02  0.24403590255E+02  0.23489837512E+02  0.59435290335E+02  0.10000000000E+01 0.  0.
    9000005    1    3    3    0    0 -0.48828742084E+02 -0.24403590255E+02 -0.37747925520E+02  0.66375350484E+02  0.10000000000E+01 0.  0.
<mgrwt>
<rscale>  0 0.12500010E+03</rscale>
<asrwt>0</asrwt>
<pdfrwt beam="1">  1        4 0.85809656E-02 0.12500010E+03</pdfrwt>
<pdfrwt beam="2">  1       -4 0.10774518E-01 0.12500010E+03</pdfrwt>
<totfact> 0.10435089E+04</totfact>
</mgrwt>
</event>
<event>
 5    1  0.3316199E-002  0.1250098E+03  0.7818608E-02  0.1235054E+00
         -4   -1    0    0    0  501 -0.00000000000E+00  0.00000000000E+00  0.95514600435E+02  0.95523043273E+02  0.12700000000E+01 0.  1.
          4   -1    0    0  501    0  0.00000000000E+00 -0.00000000000E+00 -0.40883181442E+02  0.40902902401E+02  0.12700000000E+01 0.  1.
         25    2    1    2    0    0  0.00000000000E+00  0.00000000000E+00  0.54631418992E+02  0.13642594567E+03  0.12500978647E+03 0.  0.
    9000005    1    3    3    0    0  0.80132842579E+01  0.37251049921E+00 -0.40324345851E+02  0.41126686676E+02  0.10000000000E+01 0.  0.
    9000005    1    3    3    0    0 -0.80132842579E+01 -0.37251049921E+00  0.94955764843E+02  0.95299258998E+02  0.10000000000E+01 0.  0.
<mgrwt>
<rscale>  0 0.12500979E+03</rscale>
<asrwt>0</asrwt>
<pdfrwt beam="2">  1        4 0.62918868E-02 0.12500979E+03</pdfrwt>
<pdfrwt beam="1">  1       -4 0.14696720E-01 0.12500979E+03</pdfrwt>
<totfact> 0.10205850E+04</totfact>
</mgrwt>
</event>
<event>
 5    1  0.3316199E-002  0.1249980E+03  0.7818608E-02  0.1235072E+00
          4   -1    0    0  501    0  0.00000000000E+00  0.00000000000E+00  0.13521425058E+02  0.13580936477E+02  0.12700000000E+01 0. -1.
         -4   -1    0    0    0  501 -0.00000000000E+00 -0.00000000000E+00 -0.28818893715E+03  0.28819173547E+03  0.12700000000E+01 0. -1.
         25    2    1    2    0    0  0.00000000000E+00  0.00000000000E+00 -0.27466751209E+03  0.30177267195E+03  0.12499801334E+03 0.  0.
    9000005    1    3    3    0    0  0.22345119190E+02 -0.38600568121E+02 -0.31663227511E+02  0.54707112767E+02  0.10000000000E+01 0.  0.
    9000005    1    3    3    0    0 -0.22345119190E+02  0.38600568121E+02 -0.24300428458E+03  0.24706555918E+03  0.10000000000E+01 0.  0.
<mgrwt>
<rscale>  0 0.12499801E+03</rscale>
<asrwt>0</asrwt>
<pdfrwt beam="1">  1        4 0.20850125E-02 0.12499801E+03</pdfrwt>
<pdfrwt beam="2">  1       -4 0.44341548E-01 0.12499801E+03</pdfrwt>
<totfact> 0.75380341E+03</totfact>
</mgrwt>
</event>
<event>
 5    1  0.3316199E-002  0.1250083E+03  0.7818608E-02  0.1235056E+00
          4   -1    0    0  501    0  0.00000000000E+00  0.00000000000E+00  0.24631620390E+02  0.24664339096E+02  0.12700000000E+01 0. -1.
         -4   -1    0    0    0  501 -0.00000000000E+00 -0.00000000000E+00 -0.15846735227E+03  0.15847244125E+03  0.12700000000E+01 0. -1.
         25    2    1    2    0    0  0.00000000000E+00  0.00000000000E+00 -0.13383573188E+03  0.18313678034E+03  0.12500830847E+03 0.  0.
    9000005    1    3    3    0    0 -0.46901275423E+00 -0.61285543495E+02 -0.84838285990E+02  0.10466457177E+03  0.10000000000E+01 0.  0.
    9000005    1    3    3    0    0  0.46901275423E+00  0.61285543495E+02 -0.48997445888E+02  0.78472208571E+02  0.10000000000E+01 0.  0.
<mgrwt>
<rscale>  0 0.12500831E+03</rscale>
<asrwt>0</asrwt>
<pdfrwt beam="1">  1        4 0.37923884E-02 0.12500831E+03</pdfrwt>
<pdfrwt beam="2">  1       -4 0.24382500E-01 0.12500831E+03</pdfrwt>
<totfact> 0.93038073E+03</totfact>
</mgrwt>
</event>
<event>
 5    1  0.3316199E-002  0.1250033E+03  0.7818608E-02  0.1235064E+00
         -4   -1    0    0    0  501 -0.00000000000E+00  0.00000000000E+00  0.59894590160E+01  0.61226235638E+01  0.12700000000E+01 0. -1.
          4   -1    0    0  501    0  0.00000000000E+00 -0.00000000000E+00 -0.64491697908E+03  0.64491822955E+03  0.12700000000E+01 0. -1.
         25    2    1    2    0    0  0.00000000000E+00  0.00000000000E+00 -0.63892752007E+03  0.65104085312E+03  0.12500326607E+03 0.  0.
    9000005    1    3    3    0    0  0.58927396815E+01  0.56022716346E+02 -0.17853575756E+03  0.18721454499E+03  0.10000000000E+01 0.  0.
    9000005    1    3    3    0    0 -0.58927396815E+01 -0.56022716346E+02 -0.46039176250E+03  0.46382630813E+03  0.10000000000E+01 0.  0.
<mgrwt>
<rscale>  0 0.12500327E+03</rscale>
<asrwt>0</asrwt>
<pdfrwt beam="2">  1        4 0.99228282E-01 0.12500327E+03</pdfrwt>
<pdfrwt beam="1">  1       -4 0.93179536E-03 0.12500327E+03</pdfrwt>
<totfact> 0.45793071E+03</totfact>
</mgrwt>
</event>
<event>
 5    1  0.3316199E-002  0.1249933E+03  0.7818608E-02  0.1235080E+00
          4   -1    0    0  501    0  0.00000000000E+00  0.00000000000E+00  0.15074452504E+02  0.15127855708E+02  0.12700000000E+01 0.  1.
         -4   -1    0    0    0  501 -0.00000000000E+00 -0.00000000000E+00 -0.25858946053E+03  0.25859257916E+03  0.12700000000E+01 0.  1.
         25    2    1    2    0    0  0.00000000000E+00  0.00000000000E+00 -0.24351500803E+03  0.27372043487E+03  0.12499326914E+03 0.  0.
    9000005    1    3    3    0    0  0.29678379449E+02  0.44856112357E+02 -0.19142025446E+03  0.19883558746E+03  0.10000000000E+01 0.  0.
    9000005    1    3    3    0    0 -0.29678379449E+02 -0.44856112357E+02 -0.52094753565E+02  0.74884847409E+02  0.10000000000E+01 0.  0.
<mgrwt>
<rscale>  0 0.12499327E+03</rscale>
<asrwt>0</asrwt>
<pdfrwt beam="1">  1        4 0.23234946E-02 0.12499327E+03</pdfrwt>
<pdfrwt beam="2">  1       -4 0.39787339E-01 0.12499327E+03</pdfrwt>
<totfact> 0.79029996E+03</totfact>
</mgrwt>
</event>
<event>
 5    1  0.3316199E-002  0.1250008E+03  0.7818608E-02  0.1235068E+00
          4   -1    0    0  501    0  0.00000000000E+00  0.00000000000E+00  0.12030218683E+03  0.12030889018E+03  0.12700000000E+01 0.  1.
         -4   -1    0    0    0  501 -0.00000000000E+00 -0.00000000000E+00 -0.32450694305E+02  0.32475536344E+02  0.12700000000E+01 0.  1.
         25    2    1    2    0    0  0.00000000000E+00  0.00000000000E+00  0.87851492528E+02  0.15278442653E+03  0.12500078500E+03 0.  0.
    9000005    1    3    3    0    0 -0.47998947380E+02  0.34941746338E+02  0.67767001196E+02  0.90101004644E+02  0.10000000000E+01 0.  0.
    9000005    1    3    3    0    0  0.47998947380E+02 -0.34941746338E+02  0.20084491332E+02  0.62683421882E+02  0.10000000000E+01 0.  0.
<mgrwt>
<rscale>  0 0.12500078E+03</rscale>
<asrwt>0</asrwt>
<pdfrwt beam="1">  1        4 0.18510455E-01 0.12500078E+03</pdfrwt>
<pdfrwt beam="2">  1       -4 0.49948412E-02 0.12500078E+03</pdfrwt>
<totfact> 0.98749788E+03</totfact>
</mgrwt>
</event>
<event>
 5    1  0.3316199E-002  0.1249973E+03  0.7818608E-02  0.1235073E+00
          4   -1    0    0  501    0  0.00000000000E+00  0.00000000000E+00  0.49324799832E+01  0.50933543745E+01  0.12700000000E+01 0. -1.
         -4   -1    0    0    0  501 -0.00000000000E+00 -0.00000000000E+00 -0.77904185566E+03  0.77904289084E+03  0.12700000000E+01 0. -1.
         25    2    1    2    0    0  0.00000000000E+00  0.00000000000E+00 -0.77410937567E+03  0.78413624521E+03  0.12499730217E+03 0.  0.
    9000005    1    3    3    0    0  0.43110482312E+02  0.41745176419E+02 -0.49641554819E+03  0.50003056899E+03  0.10000000000E+01 0.  0.
    9000005    1    3    3    0    0 -0.43110482312E+02 -0.41745176419E+02 -0.27769382748E+03  0.28410567622E+03  0.10000000000E+01 0.  0.
<mgrwt>
<rscale>  0 0.12499730E+03</rscale>
<asrwt>0</asrwt>
<pdfrwt beam="1">  1        4 0.77129828E-03 0.12499730E+03</pdfrwt>
<pdfrwt beam="2">  1       -4 0.11986495E+00 0.12499730E+03</pdfrwt>
<totfact> 0.38985139E+03</totfact>
</mgrwt>
</event>
<event>
 5    1  0.3316199E-002  0.1249979E+03  0.7818608E-02  0.1235073E+00
          4   -1    0    0  501    0  0.00000000000E+00  0.00000000000E+00  0.90074164620E+01  0.90965076441E+01  0.12700000000E+01 0.  1.
         -4   -1    0    0    0  501 -0.00000000000E+00 -0.00000000000E+00 -0.43143177960E+03  0.43143364883E+03  0.12700000000E+01 0.  1.
         25    2    1    2    0    0  0.00000000000E+00  0.00000000000E+00 -0.42242436314E+03  0.44053015648E+03  0.12499790477E+03 0.  0.
    9000005    1    3    3    0    0 -0.42507064612E+02 -0.18671480735E+02 -0.35862925830E+03  0.36162331181E+03  0.10000000000E+01 0.  0.
    9000005    1    3    3    0    0  0.42507064612E+02  0.18671480735E+02 -0.63795104833E+02  0.78906844667E+02  0.10000000000E+01 0.  0.
<mgrwt>
<rscale>  0 0.12499790E+03</rscale>
<asrwt>0</asrwt>
<pdfrwt beam="1">  1        4 0.13927537E-02 0.12499790E+03</pdfrwt>
<pdfrwt beam="2">  1       -4 0.66381101E-01 0.12499790E+03</pdfrwt>
<totfact> 0.60795773E+03</totfact>
</mgrwt>
</event>
<event>
 5    1  0.3316199E-002  0.1249975E+03  0.7818608E-02  0.1235073E+00
         -4   -1    0    0    0  501 -0.00000000000E+00  0.00000000000E+00  0.89085777591E+03  0.89085868117E+03  0.12700000000E+01 0. -1.
          4   -1    0    0  501    0  0.00000000000E+00 -0.00000000000E+00 -0.42917515645E+01  0.44757157518E+01  0.12700000000E+01 0. -1.
         25    2    1    2    0    0  0.00000000000E+00  0.00000000000E+00  0.88656602435E+03  0.89533439692E+03  0.12499746706E+03 0.  0.
    9000005    1    3    3    0    0 -0.52193134017E+02  0.14763388499E+02  0.22100339558E+03  0.22756445623E+03  0.10000000000E+01 0.  0.
    9000005    1    3    3    0    0  0.52193134017E+02 -0.14763388499E+02  0.66556262877E+03  0.66776994069E+03  0.10000000000E+01 0.  0.
<mgrwt>
<rscale>  0 0.12499747E+03</rscale>
<asrwt>0</asrwt>
<pdfrwt beam="2">  1        4 0.67449014E-03 0.12499747E+03</pdfrwt>
<pdfrwt beam="1">  1       -4 0.13706927E+00 0.12499747E+03</pdfrwt>
<totfact> 0.34341093E+03</totfact>
</mgrwt>
</event>
<event>
 5    1  0.3316199E-002  0.1249996E+03  0.7818608E-02  0.1235070E+00
          4   -1    0    0  501    0  0.00000000000E+00  0.00000000000E+00  0.14048715499E+03  0.14049289526E+03  0.12700000000E+01 0. -1.
         -4   -1    0    0    0  501 -0.00000000000E+00 -0.00000000000E+00 -0.27784059956E+02  0.27813070446E+02  0.12700000000E+01 0. -1.
         25    2    1    2    0    0  0.00000000000E+00  0.00000000000E+00  0.11270309503E+03  0.16830596570E+03  0.12499964184E+03 0.  0.
    9000005    1    3    3    0    0  0.46719949566E+02  0.28800634847E+02  0.16115452142E+02  0.57209597558E+02  0.10000000000E+01 0.  0.
    9000005    1    3    3    0    0 -0.46719949566E+02 -0.28800634847E+02  0.96587642892E+02  0.11109636814E+03  0.10000000000E+01 0.  0.
<mgrwt>
<rscale>  0 0.12499964E+03</rscale>
<asrwt>0</asrwt>
<pdfrwt beam="1">  1        4 0.21616082E-01 0.12499964E+03</pdfrwt>
<pdfrwt beam="2">  1       -4 0.42771439E-02 0.12499964E+03</pdfrwt>
<totfact> 0.95765702E+03</totfact>
</mgrwt>
</event>
<event>
 5    1  0.3316199E-002  0.1250032E+03  0.7818608E-02  0.1235064E+00
          4   -1    0    0  501    0  0.00000000000E+00  0.00000000000E+00  0.54464818381E+02  0.54479623175E+02  0.12700000000E+01 0. -1.
         -4   -1    0    0    0  501 -0.00000000000E+00 -0.00000000000E+00 -0.71694082811E+02  0.71705330416E+02  0.12700000000E+01 0. -1.
         25    2    1    2    0    0  0.00000000000E+00  0.00000000000E+00 -0.17229264430E+02  0.12618495359E+03  0.12500317980E+03 0.  0.
    9000005    1    3    3    0    0  0.44632296302E+02 -0.25355627502E+02 -0.44595669477E+02  0.68005319316E+02  0.10000000000E+01 0.  0.
    9000005    1    3    3    0    0 -0.44632296302E+02  0.25355627502E+02  0.27366405047E+02  0.58179634275E+02  0.10000000000E+01 0.  0.
<mgrwt>
<rscale>  0 0.12500318E+03</rscale>
<asrwt>0</asrwt>
<pdfrwt beam="1">  1        4 0.83812068E-02 0.12500318E+03</pdfrwt>
<pdfrwt beam="2">  1       -4 0.11031863E-01 0.12500318E+03</pdfrwt>
<totfact> 0.10426160E+04</totfact>
</mgrwt>
</event>
<event>
 5    1  0.3316199E-002  0.1250113E+03  0.7818608E-02  0.1235052E+00
         -4   -1    0    0    0  501 -0.00000000000E+00  0.00000000000E+00  0.78438033451E+02  0.78448314142E+02  0.12700000000E+01 0.  1.
          4   -1    0    0  501    0  0.00000000000E+00 -0.00000000000E+00 -0.49787816441E+02  0.49804011545E+02  0.12700000000E+01 0.  1.
         25    2    1    2    0    0  0.00000000000E+00  0.00000000000E+00  0.28650217010E+02  0.12825232569E+03  0.12501129593E+03 0.  0.
    9000005    1    3    3    0    0 -0.27737269223E+01  0.59863608633E+02  0.32522235441E+02  0.68191209094E+02  0.10000000000E+01 0.  0.
    9000005    1    3    3    0    0  0.27737269223E+01 -0.59863608633E+02 -0.38720184307E+01  0.60061116593E+02  0.10000000000E+01 0.  0.
<mgrwt>
<rscale>  0 0.12501130E+03</rscale>
<asrwt>0</asrwt>
<pdfrwt beam="2">  1        4 0.76617007E-02 0.12501130E+03</pdfrwt>
<pdfrwt beam="1">  1       -4 0.12069426E-01 0.12501130E+03</pdfrwt>
<totfact> 0.10379395E+04</totfact>
</mgrwt>
</event>
<event>
 5    1  0.3316199E-002  0.1250009E+03  0.7818608E-02  0.1235068E+00
         -4   -1    0    0    0  501 -0.00000000000E+00  0.00000000000E+00  0.53562276772E+02  0.53577330961E+02  0.12700000000E+01 0.  1.
          4   -1    0    0  501    0  0.00000000000E+00 -0.00000000000E+00 -0.72899330612E+02  0.72910392288E+02  0.12700000000E+01 0.  1.
         25    2    1    2    0    0  0.00000000000E+00  0.00000000000E+00 -0.19337053840E+02  0.12648772325E+03  0.12500088992E+03 0.  0.
    9000005    1    3    3    0    0  0.24442038144E+02  0.29576709074E+02 -0.59581817532E+02  0.70874451876E+02  0.10000000000E+01 0.  0.
    9000005    1    3    3    0    0 -0.24442038144E+02 -0.29576709074E+02  0.40244763692E+02  0.55613271374E+02  0.10000000000E+01 0.  0.
<mgrwt>
<rscale>  0 0.12500089E+03</rscale>
<asrwt>0</asrwt>
<pdfrwt beam="2">  1        4 0.11217291E-01 0.12500089E+03</pdfrwt>
<pdfrwt beam="1">  1       -4 0.82423591E-02 0.12500089E+03</pdfrwt>
<totfact> 0.10420086E+04</totfact>
</mgrwt>
</event>
<event>
 5    1  0.3316199E-002  0.1250156E+03  0.7818608E-02  0.1235045E+00
         -4   -1    0    0    0  501 -0.00000000000E+00  0.00000000000E+00  0.28342465025E+03  0.28342749561E+03  0.12700000000E+01 0. -1.
          4   -1    0    0  501    0  0.00000000000E+00 -0.00000000000E+00 -0.13753590322E+02  0.13812101460E+02  0.12700000000E+01 0. -1.
         25    2    1    2    0    0  0.00000000000E+00  0.00000000000E+00  0.26967105993E+03  0.29723959707E+03  0.12501558905E+03 0.  0.
    9000005    1    3    3    0    0 -0.56712998962E+02  0.25989708739E+02  0.14385644955E+03  0.15680404105E+03  0.10000000000E+01 0.  0.
    9000005    1    3    3    0    0  0.56712998962E+02 -0.25989708739E+02  0.12581461037E+03  0.14043555602E+03  0.10000000000E+01 0.  0.
<mgrwt>
<rscale>  0 0.12501559E+03</rscale>
<asrwt>0</asrwt>
<pdfrwt beam="2">  1        4 0.21206566E-02 0.12501559E+03</pdfrwt>
<pdfrwt beam="1">  1       -4 0.43608513E-01 0.12501559E+03</pdfrwt>
<totfact> 0.75920125E+03</totfact>
</mgrwt>
</event>
<event>
 5    1  0.3316199E-002  0.1249995E+03  0.7818608E-02  0.1235070E+00
         -4   -1    0    0    0  501 -0.00000000000E+00  0.00000000000E+00  0.50727357040E+02  0.50743252283E+02  0.12700000000E+01 0. -1.
          4   -1    0    0  501    0  0.00000000000E+00 -0.00000000000E+00 -0.76971032345E+02  0.76981508950E+02  0.12700000000E+01 0. -1.
         25    2    1    2    0    0  0.00000000000E+00  0.00000000000E+00 -0.26243675305E+02  0.12772476123E+03  0.12499953655E+03 0.  0.
    9000005    1    3    3    0    0  0.48672774357E+02  0.35284857044E+02 -0.30557291190E+02  0.67444852621E+02  0.10000000000E+01 0.  0.
    9000005    1    3    3    0    0 -0.48672774357E+02 -0.35284857044E+02  0.43136158846E+01  0.60279908612E+02  0.10000000000E+01 0.  0.
<mgrwt>
<rscale>  0 0.12499954E+03</rscale>
<asrwt>0</asrwt>
<pdfrwt beam="2">  1        4 0.11843726E-01 0.12499954E+03</pdfrwt>
<pdfrwt beam="1">  1       -4 0.78062373E-02 0.12499954E+03</pdfrwt>
<totfact> 0.10393545E+04</totfact>
</mgrwt>
</event>
