<event>
 5    1  0.3317939E-002  0.1249985E+03  0.7818608E-02  0.1235072E+00
         -4   -1    0    0    0  501 -0.00000000000E+00  0.00000000000E+00  0.44114779785E+02  0.44133056720E+02  0.12700000000E+01 0. -1.
          4   -1    0    0  501    0  0.00000000000E+00 -0.00000000000E+00 -0.88504177393E+02  0.88513288923E+02  0.12700000000E+01 0. -1.
         25    2    1    2    0    0  0.00000000000E+00  0.00000000000E+00 -0.44389397608E+02  0.13264634564E+03  0.12499853756E+03 0.  0.
    9000005    1    3    3    0    0 -0.47258295116E+02 -0.89338005211E+01  0.20146368461E+02  0.52153958729E+02  0.10000000000E+01 0.  0.
    9000005    1    3    3    0    0  0.47258295116E+02  0.89338005211E+01 -0.64535766069E+02  0.80492386914E+02  0.10000000000E+01 0.  0.
<mgrwt>
<rscale>  0 0.12499854E+03</rscale>
<asrwt>0</asrwt>
<pdfrwt beam="2">  1        4 0.13618134E-01 0.12499854E+03</pdfrwt>
<pdfrwt beam="1">  1       -4 0.67889960E-02 0.12499854E+03</pdfrwt>
<totfact> 0.10288261E+04</totfact>
</mgrwt>
</event>
<event>
 5    1  0.3317939E-002  0.1249988E+03  0.7818608E-02  0.1235071E+00
          4   -1    0    0  501    0  0.00000000000E+00  0.00000000000E+00  0.48107836849E+03  0.48108004482E+03  0.12700000000E+01 0.  1.
         -4   -1    0    0    0  501 -0.00000000000E+00 -0.00000000000E+00 -0.80682610233E+01  0.81676028270E+01  0.12700000000E+01 0.  1.
         25    2    1    2    0    0  0.00000000000E+00  0.00000000000E+00  0.47301010747E+03  0.48924764765E+03  0.12499879586E+03 0.  0.
    9000005    1    3    3    0    0  0.24631562721E+01  0.62237834988E+02  0.25629292542E+03  0.26375495988E+03  0.10000000000E+01 0.  0.
    9000005    1    3    3    0    0 -0.24631562721E+01 -0.62237834988E+02  0.21671718205E+03  0.22549268777E+03  0.10000000000E+01 0.  0.
<mgrwt>
<rscale>  0 0.12499880E+03</rscale>
<asrwt>0</asrwt>
<pdfrwt beam="1">  1        4 0.74019851E-01 0.12499880E+03</pdfrwt>
<pdfrwt beam="2">  1       -4 0.12490411E-02 0.12499880E+03</pdfrwt>
<totfact> 0.56709863E+03</totfact>
</mgrwt>
</event>
<event>
 5    1  0.3317939E-002  0.1249993E+03  0.7818608E-02  0.1235070E+00
          4   -1    0    0  501    0  0.00000000000E+00  0.00000000000E+00  0.10225302761E+02  0.10303869009E+02  0.12700000000E+01 0. -1.
         -4   -1    0    0    0  501 -0.00000000000E+00 -0.00000000000E+00 -0.38047236328E+03  0.38047448288E+03  0.12700000000E+01 0. -1.
         25    2    1    2    0    0  0.00000000000E+00  0.00000000000E+00 -0.37024706052E+03  0.39077835189E+03  0.12499933792E+03 0.  0.
    9000005    1    3    3    0    0 -0.42036849463E+02  0.98964948407E+01 -0.43916571071E+02  0.61601156949E+02  0.10000000000E+01 0.  0.
    9000005    1    3    3    0    0  0.42036849463E+02 -0.98964948407E+01 -0.32633048945E+03  0.32917719494E+03  0.10000000000E+01 0.  0.
<mgrwt>
<rscale>  0 0.12499934E+03</rscale>
<asrwt>0</asrwt>
<pdfrwt beam="1">  1        4 0.15793304E-02 0.12499934E+03</pdfrwt>
<pdfrwt beam="2">  1       -4 0.58540406E-01 0.12499934E+03</pdfrwt>
<totfact> 0.65460629E+03</totfact>
</mgrwt>
</event>
<event>
 5    1  0.3317939E-002  0.1250048E+03  0.7818608E-02  0.1235062E+00
          4   -1    0    0  501    0  0.00000000000E+00  0.00000000000E+00  0.79362890582E+02  0.79373051482E+02  0.12700000000E+01 0.  1.
         -4   -1    0    0    0  501 -0.00000000000E+00 -0.00000000000E+00 -0.49202410542E+02  0.49218798270E+02  0.12700000000E+01 0.  1.
         25    2    1    2    0    0  0.00000000000E+00  0.00000000000E+00  0.30160480040E+02  0.12859184975E+03  0.12500483697E+03 0.  0.
    9000005    1    3    3    0    0  0.22893492506E+02  0.88434388150E+01 -0.44042736384E+02  0.50428970220E+02  0.10000000000E+01 0.  0.
    9000005    1    3    3    0    0 -0.22893492506E+02 -0.88434388150E+01  0.74203216424E+02  0.78162879533E+02  0.10000000000E+01 0.  0.
<mgrwt>
<rscale>  0 0.12500484E+03</rscale>
<asrwt>0</asrwt>
<pdfrwt beam="1">  1        4 0.12211718E-01 0.12500484E+03</pdfrwt>
<pdfrwt beam="2">  1       -4 0.75716439E-02 0.12500484E+03</pdfrwt>
<totfact> 0.10373593E+04</totfact>
</mgrwt>
</event>
<event>
 4    1  0.3317939E-002  0.1249156E+03  0.7818608E-02  0.1235201E+00
          4   -1    0    0  501    0  0.00000000000E+00  0.00000000000E+00  0.63205921527E+02  0.63218679329E+02  0.12700000000E+01 0. -1.
         -4   -1    0    0    0  501 -0.00000000000E+00 -0.00000000000E+00 -0.61692993829E+02  0.61706064431E+02  0.12700000000E+01 0. -1.
    9000005    1    1    2    0    0 -0.61337677807E+02 -0.10591005929E+02 -0.42932171271E+01  0.62401216644E+02  0.10000000000E+01 0.  0.
    9000005    1    1    2    0    0  0.61337677807E+02  0.10591005929E+02  0.58061448258E+01  0.62523527116E+02  0.10000000000E+01 0.  0.
<mgrwt>
<rscale>  0 0.12491558E+03</rscale>
<asrwt>0</asrwt>
<pdfrwt beam="1">  1        4 0.97259748E-02 0.12491558E+03</pdfrwt>
<pdfrwt beam="2">  1       -4 0.94932166E-02 0.12491558E+03</pdfrwt>
<totfact> 0.10474469E+04</totfact>
</mgrwt>
</event>
<event>
 5    1  0.3317939E-002  0.1249741E+03  0.7818608E-02  0.1235110E+00
         -4   -1    0    0    0  501 -0.00000000000E+00  0.00000000000E+00  0.29651897056E+02  0.29679081842E+02  0.12700000000E+01 0. -1.
          4   -1    0    0  501    0  0.00000000000E+00 -0.00000000000E+00 -0.13159174329E+03  0.13159787157E+03  0.12700000000E+01 0. -1.
         25    2    1    2    0    0  0.00000000000E+00  0.00000000000E+00 -0.10193984623E+03  0.16127695341E+03  0.12497409112E+03 0.  0.
    9000005    1    3    3    0    0 -0.54601559448E+02 -0.30299944231E+02 -0.48320831786E+02  0.78964040544E+02  0.10000000000E+01 0.  0.
    9000005    1    3    3    0    0  0.54601559448E+02  0.30299944231E+02 -0.53619014447E+02  0.82312912868E+02  0.10000000000E+01 0.  0.
<mgrwt>
<rscale>  0 0.12497409E+03</rscale>
<asrwt>0</asrwt>
<pdfrwt beam="2">  1        4 0.20247446E-01 0.12497409E+03</pdfrwt>
<pdfrwt beam="1">  1       -4 0.45643929E-02 0.12497409E+03</pdfrwt>
<totfact> 0.97153721E+03</totfact>
</mgrwt>
</event>
<event>
 5    1  0.3317939E-002  0.1250031E+03  0.7818608E-02  0.1235064E+00
          4   -1    0    0  501    0  0.00000000000E+00  0.00000000000E+00  0.17211201074E+02  0.17257993580E+02  0.12700000000E+01 0. -1.
         -4   -1    0    0    0  501 -0.00000000000E+00 -0.00000000000E+00 -0.22661421070E+03  0.22661776937E+03  0.12700000000E+01 0. -1.
         25    2    1    2    0    0  0.00000000000E+00  0.00000000000E+00 -0.20940300963E+03  0.24387576295E+03  0.12500306921E+03 0.  0.
    9000005    1    3    3    0    0 -0.59034064684E+02 -0.11612842436E+01 -0.14464007584E+03  0.15623098576E+03  0.10000000000E+01 0.  0.
    9000005    1    3    3    0    0  0.59034064684E+02  0.11612842436E+01 -0.64762933789E+02  0.87644777181E+02  0.10000000000E+01 0.  0.
<mgrwt>
<rscale>  0 0.12500307E+03</rscale>
<asrwt>0</asrwt>
<pdfrwt beam="1">  1        4 0.26517504E-02 0.12500307E+03</pdfrwt>
<pdfrwt beam="2">  1       -4 0.34867596E-01 0.12500307E+03</pdfrwt>
<totfact> 0.83217815E+03</totfact>
</mgrwt>
</event>
<event>
 5    1  0.3317939E-002  0.1250010E+03  0.7818608E-02  0.1235068E+00
          4   -1    0    0  501    0  0.00000000000E+00  0.00000000000E+00  0.27138951274E+03  0.27139248429E+03  0.12700000000E+01 0. -1.
         -4   -1    0    0    0  501 -0.00000000000E+00 -0.00000000000E+00 -0.14362688834E+02  0.14418728465E+02  0.12700000000E+01 0. -1.
         25    2    1    2    0    0  0.00000000000E+00  0.00000000000E+00  0.25702682391E+03  0.28581121275E+03  0.12500104450E+03 0.  0.
    9000005    1    3    3    0    0  0.60251063012E+02 -0.55611687775E+01  0.16424371925E+03  0.17503747172E+03  0.10000000000E+01 0.  0.
    9000005    1    3    3    0    0 -0.60251063012E+02  0.55611687775E+01  0.92783104658E+02  0.11077374103E+03  0.10000000000E+01 0.  0.
<mgrwt>
<rscale>  0 0.12500104E+03</rscale>
<asrwt>0</asrwt>
<pdfrwt beam="1">  1        4 0.41756770E-01 0.12500104E+03</pdfrwt>
<pdfrwt beam="2">  1       -4 0.22141839E-02 0.12500104E+03</pdfrwt>
<totfact> 0.77412041E+03</totfact>
</mgrwt>
</event>
<event>
 5    1  0.3317939E-002  0.1250003E+03  0.7818608E-02  0.1235069E+00
         -4   -1    0    0    0  501 -0.00000000000E+00  0.00000000000E+00  0.28206112657E+02  0.28234689501E+02  0.12700000000E+01 0. -1.
          4   -1    0    0  501    0  0.00000000000E+00 -0.00000000000E+00 -0.13838847871E+03  0.13839430603E+03  0.12700000000E+01 0. -1.
         25    2    1    2    0    0  0.00000000000E+00  0.00000000000E+00 -0.11018236606E+03  0.16662899553E+03  0.12500027344E+03 0.  0.
    9000005    1    3    3    0    0  0.15400186279E+02  0.35752354736E+02  0.10075677054E+02  0.40223325008E+02  0.10000000000E+01 0.  0.
    9000005    1    3    3    0    0 -0.15400186279E+02 -0.35752354736E+02 -0.12025804311E+03  0.12640567052E+03  0.10000000000E+01 0.  0.
<mgrwt>
<rscale>  0 0.12500027E+03</rscale>
<asrwt>0</asrwt>
<pdfrwt beam="2">  1        4 0.21293181E-01 0.12500027E+03</pdfrwt>
<pdfrwt beam="1">  1       -4 0.43420485E-02 0.12500027E+03</pdfrwt>
<totfact> 0.96079183E+03</totfact>
</mgrwt>
</event>
<event>
 5    1  0.3317939E-002  0.1249946E+03  0.7818608E-02  0.1235078E+00
          4   -1    0    0  501    0  0.00000000000E+00  0.00000000000E+00  0.21134910944E+03  0.21135292513E+03  0.12700000000E+01 0. -1.
         -4   -1    0    0    0  501 -0.00000000000E+00 -0.00000000000E+00 -0.18455053140E+02  0.18498699587E+02  0.12700000000E+01 0. -1.
         25    2    1    2    0    0  0.00000000000E+00  0.00000000000E+00  0.19289405630E+03  0.22985162471E+03  0.12499460960E+03 0.  0.
    9000005    1    3    3    0    0 -0.44532486083E+02  0.72229980874E+01  0.17595863631E+03  0.18165284394E+03  0.10000000000E+01 0.  0.
    9000005    1    3    3    0    0  0.44532486083E+02 -0.72229980874E+01  0.16935419985E+02  0.48198780775E+02  0.10000000000E+01 0.  0.
<mgrwt>
<rscale>  0 0.12499461E+03</rscale>
<asrwt>0</asrwt>
<pdfrwt beam="1">  1        4 0.32518899E-01 0.12499461E+03</pdfrwt>
<pdfrwt beam="2">  1       -4 0.28428898E-02 0.12499461E+03</pdfrwt>
<totfact> 0.85342648E+03</totfact>
</mgrwt>
</event>
<event>
 5    1  0.3317939E-002  0.1249979E+03  0.7818608E-02  0.1235073E+00
         -4   -1    0    0    0  501 -0.00000000000E+00  0.00000000000E+00  0.34193727412E+01  0.36476033149E+01  0.12700000000E+01 0. -1.
          4   -1    0    0  501    0  0.00000000000E+00 -0.00000000000E+00 -0.11052276970E+04  0.11052284266E+04  0.12700000000E+01 0. -1.
         25    2    1    2    0    0  0.00000000000E+00  0.00000000000E+00 -0.11018083242E+04  0.11088760299E+04  0.12499786584E+03 0.  0.
    9000005    1    3    3    0    0  0.33682816119E+02 -0.31447588347E+02 -0.17645780728E+03  0.18237829001E+03  0.10000000000E+01 0.  0.
    9000005    1    3    3    0    0 -0.33682816119E+02  0.31447588347E+02 -0.92535051693E+03  0.92649773993E+03  0.10000000000E+01 0.  0.
<mgrwt>
<rscale>  0 0.12499787E+03</rscale>
<asrwt>0</asrwt>
<pdfrwt beam="2">  1        4 0.17005237E+00 0.12499787E+03</pdfrwt>
<pdfrwt beam="1">  1       -4 0.54367055E-03 0.12499787E+03</pdfrwt>
<totfact> 0.27226379E+03</totfact>
</mgrwt>
</event>
<event>
 5    1  0.3317939E-002  0.1249992E+03  0.7818608E-02  0.1235070E+00
         -4   -1    0    0    0  501 -0.00000000000E+00  0.00000000000E+00  0.20699005343E+02  0.20737929554E+02  0.12700000000E+01 0. -1.
          4   -1    0    0  501    0  0.00000000000E+00 -0.00000000000E+00 -0.18849615734E+03  0.18850043562E+03  0.12700000000E+01 0. -1.
         25    2    1    2    0    0  0.00000000000E+00  0.00000000000E+00 -0.16779715199E+03  0.20923836518E+03  0.12499923698E+03 0.  0.
    9000005    1    3    3    0    0 -0.41189045948E+02 -0.35942571748E+02 -0.13458251877E+03  0.14526479384E+03  0.10000000000E+01 0.  0.
    9000005    1    3    3    0    0  0.41189045948E+02  0.35942571748E+02 -0.33214633222E+02  0.63973571341E+02  0.10000000000E+01 0.  0.
<mgrwt>
<rscale>  0 0.12499924E+03</rscale>
<asrwt>0</asrwt>
<pdfrwt beam="2">  1        4 0.29002731E-01 0.12499924E+03</pdfrwt>
<pdfrwt beam="1">  1       -4 0.31877858E-02 0.12499924E+03</pdfrwt>
<totfact> 0.88601929E+03</totfact>
</mgrwt>
</event>
<event>
 5    1  0.3317939E-002  0.1250001E+03  0.7818608E-02  0.1235069E+00
         -4   -1    0    0    0  501 -0.00000000000E+00  0.00000000000E+00  0.12082478644E+03  0.12083146079E+03  0.12700000000E+01 0. -1.
          4   -1    0    0  501    0  0.00000000000E+00 -0.00000000000E+00 -0.32309885406E+02  0.32334835626E+02  0.12700000000E+01 0. -1.
         25    2    1    2    0    0  0.00000000000E+00  0.00000000000E+00  0.88514901031E+02  0.15316629642E+03  0.12500010662E+03 0.  0.
    9000005    1    3    3    0    0 -0.44610584232E+02  0.23445637324E+02  0.89535889821E+02  0.10274958735E+03  0.10000000000E+01 0.  0.
    9000005    1    3    3    0    0  0.44610584232E+02 -0.23445637324E+02 -0.10209887900E+01  0.50416709067E+02  0.10000000000E+01 0.  0.
<mgrwt>
<rscale>  0 0.12500011E+03</rscale>
<asrwt>0</asrwt>
<pdfrwt beam="2">  1        4 0.49731844E-02 0.12500011E+03</pdfrwt>
<pdfrwt beam="1">  1       -4 0.18590861E-01 0.12500011E+03</pdfrwt>
<totfact> 0.98676011E+03</totfact>
</mgrwt>
</event>
<event>
 5    1  0.3317939E-002  0.1249996E+03  0.7818608E-02  0.1235070E+00
         -4   -1    0    0    0  501 -0.00000000000E+00  0.00000000000E+00  0.30040456306E+02  0.30067289786E+02  0.12700000000E+01 0. -1.
          4   -1    0    0  501    0  0.00000000000E+00 -0.00000000000E+00 -0.12994414900E+03  0.12995035498E+03  0.12700000000E+01 0. -1.
         25    2    1    2    0    0  0.00000000000E+00  0.00000000000E+00 -0.99903692695E+02  0.16001764477E+03  0.12499959529E+03 0.  0.
    9000005    1    3    3    0    0 -0.10420962261E+02  0.21601840850E+02  0.23920288235E+02  0.33888289596E+02  0.10000000000E+01 0.  0.
    9000005    1    3    3    0    0  0.10420962261E+02 -0.21601840850E+02 -0.12382398093E+03  0.12612935517E+03  0.10000000000E+01 0.  0.
<mgrwt>
<rscale>  0 0.12499960E+03</rscale>
<asrwt>0</asrwt>
<pdfrwt beam="2">  1        4 0.19993949E-01 0.12499960E+03</pdfrwt>
<pdfrwt beam="1">  1       -4 0.46241502E-02 0.12499960E+03</pdfrwt>
<totfact> 0.97340269E+03</totfact>
</mgrwt>
</event>
<event>
 5    1  0.3317939E-002  0.1250010E+03  0.7818608E-02  0.1235068E+00
          4   -1    0    0  501    0  0.00000000000E+00  0.00000000000E+00  0.16687233506E+03  0.16687716773E+03  0.12700000000E+01 0. -1.
         -4   -1    0    0    0  501 -0.00000000000E+00 -0.00000000000E+00 -0.23386593001E+02  0.23421051048E+02  0.12700000000E+01 0. -1.
         25    2    1    2    0    0  0.00000000000E+00  0.00000000000E+00  0.14348574206E+03  0.19029821877E+03  0.12500101557E+03 0.  0.
    9000005    1    3    3    0    0 -0.51739377883E+02  0.25106888949E+02  0.34514868735E+02  0.67079022505E+02  0.10000000000E+01 0.  0.
    9000005    1    3    3    0    0  0.51739377883E+02 -0.25106888949E+02  0.10897087332E+03  0.12321919627E+03  0.10000000000E+01 0.  0.
<mgrwt>
<rscale>  0 0.12500102E+03</rscale>
<asrwt>0</asrwt>
<pdfrwt beam="1">  1        4 0.25675689E-01 0.12500102E+03</pdfrwt>
<pdfrwt beam="2">  1       -4 0.36009598E-02 0.12500102E+03</pdfrwt>
<totfact> 0.91793363E+03</totfact>
</mgrwt>
</event>
<event>
 5    1  0.3317939E-002  0.1250020E+03  0.7818608E-02  0.1235066E+00
          4   -1    0    0  501    0  0.00000000000E+00  0.00000000000E+00  0.49374861527E+02  0.49391192036E+02  0.12700000000E+01 0. -1.
         -4   -1    0    0    0  501 -0.00000000000E+00 -0.00000000000E+00 -0.79082216003E+02  0.79092412961E+02  0.12700000000E+01 0. -1.
         25    2    1    2    0    0  0.00000000000E+00  0.00000000000E+00 -0.29707354476E+02  0.12848360500E+03  0.12500203936E+03 0.  0.
    9000005    1    3    3    0    0  0.60293341039E+02  0.14948461326E+02 -0.78345695070E+01  0.62618878535E+02  0.10000000000E+01 0.  0.
    9000005    1    3    3    0    0 -0.60293341039E+02 -0.14948461326E+02 -0.21872784969E+02  0.65864726462E+02  0.10000000000E+01 0.  0.
<mgrwt>
<rscale>  0 0.12500204E+03</rscale>
<asrwt>0</asrwt>
<pdfrwt beam="1">  1        4 0.75981731E-02 0.12500204E+03</pdfrwt>
<pdfrwt beam="2">  1       -4 0.12168535E-01 0.12500204E+03</pdfrwt>
<totfact> 0.10376579E+04</totfact>
</mgrwt>
</event>
<event>
 5    1  0.3317939E-002  0.1249992E+03  0.7818608E-02  0.1235070E+00
          4   -1    0    0  501    0  0.00000000000E+00  0.00000000000E+00  0.56440457213E+02  0.56454743914E+02  0.12700000000E+01 0. -1.
         -4   -1    0    0    0  501 -0.00000000000E+00 -0.00000000000E+00 -0.69180381778E+02  0.69192038002E+02  0.12700000000E+01 0. -1.
         25    2    1    2    0    0  0.00000000000E+00  0.00000000000E+00 -0.12739924565E+02  0.12564678192E+03  0.12499923251E+03 0.  0.
    9000005    1    3    3    0    0  0.40320469563E+02 -0.37391192800E+02 -0.36211473091E+02  0.65849163611E+02  0.10000000000E+01 0.  0.
    9000005    1    3    3    0    0 -0.40320469563E+02  0.37391192800E+02  0.23471548526E+02  0.59797618305E+02  0.10000000000E+01 0.  0.
<mgrwt>
<rscale>  0 0.12499923E+03</rscale>
<asrwt>0</asrwt>
<pdfrwt beam="1">  1        4 0.86851429E-02 0.12499923E+03</pdfrwt>
<pdfrwt beam="2">  1       -4 0.10645131E-01 0.12499923E+03</pdfrwt>
<totfact> 0.10438897E+04</totfact>
</mgrwt>
</event>
<event>
 5    1  0.3317939E-002  0.1250022E+03  0.7818608E-02  0.1235066E+00
          4   -1    0    0  501    0  0.00000000000E+00  0.00000000000E+00  0.10658637148E+02  0.10734032134E+02  0.12700000000E+01 0.  1.
         -4   -1    0    0    0  501 -0.00000000000E+00 -0.00000000000E+00 -0.36513136741E+03  0.36513357606E+03  0.12700000000E+01 0.  1.
         25    2    1    2    0    0  0.00000000000E+00  0.00000000000E+00 -0.35447273026E+03  0.37586760819E+03  0.12500216954E+03 0.  0.
    9000005    1    3    3    0    0  0.44437890189E+02  0.38701761336E+02 -0.11467911879E+03  0.12893739838E+03  0.10000000000E+01 0.  0.
    9000005    1    3    3    0    0 -0.44437890189E+02 -0.38701761336E+02 -0.23979361147E+03  0.24693020981E+03  0.10000000000E+01 0.  0.
<mgrwt>
<rscale>  0 0.12500217E+03</rscale>
<asrwt>0</asrwt>
<pdfrwt beam="1">  1        4 0.16457601E-02 0.12500217E+03</pdfrwt>
<pdfrwt beam="2">  1       -4 0.56180016E-01 0.12500217E+03</pdfrwt>
<totfact> 0.66966304E+03</totfact>
</mgrwt>
</event>
<event>
 5    1  0.3317939E-002  0.1249856E+03  0.7818608E-02  0.1235092E+00
         -4   -1    0    0    0  501 -0.00000000000E+00  0.00000000000E+00  0.18808907847E+03  0.18809336602E+03  0.12700000000E+01 0. -1.
          4   -1    0    0  501    0  0.00000000000E+00 -0.00000000000E+00 -0.20739339356E+02  0.20778188009E+02  0.12700000000E+01 0. -1.
         25    2    1    2    0    0  0.00000000000E+00  0.00000000000E+00  0.16734973912E+03  0.20887155403E+03  0.12498556277E+03 0.  0.
    9000005    1    3    3    0    0  0.40042251311E+02  0.21125937849E+02  0.11704841969E+02  0.46772753453E+02  0.10000000000E+01 0.  0.
    9000005    1    3    3    0    0 -0.40042251311E+02 -0.21125937849E+02  0.15564489715E+03  0.16209880058E+03  0.10000000000E+01 0.  0.
<mgrwt>
<rscale>  0 0.12498556E+03</rscale>
<asrwt>0</asrwt>
<pdfrwt beam="2">  1        4 0.31939860E-02 0.12498556E+03</pdfrwt>
<pdfrwt beam="1">  1       -4 0.28940098E-01 0.12498556E+03</pdfrwt>
<totfact> 0.88689130E+03</totfact>
</mgrwt>
</event>
<event>
 5    1  0.3317939E-002  0.1250017E+03  0.7818608E-02  0.1235067E+00
          4   -1    0    0  501    0  0.00000000000E+00  0.00000000000E+00  0.84363895998E+02  0.84373454640E+02  0.12700000000E+01 0. -1.
         -4   -1    0    0    0  501 -0.00000000000E+00 -0.00000000000E+00 -0.46282728393E+02  0.46300149541E+02  0.12700000000E+01 0. -1.
         25    2    1    2    0    0  0.00000000000E+00  0.00000000000E+00  0.38081167604E+02  0.13067360418E+03  0.12500166200E+03 0.  0.
    9000005    1    3    3    0    0 -0.24887099179E+01  0.48808315337E+02  0.59755334739E+02  0.77201977648E+02  0.10000000000E+01 0.  0.
    9000005    1    3    3    0    0  0.24887099179E+01 -0.48808315337E+02 -0.21674167134E+02  0.53471626533E+02  0.10000000000E+01 0.  0.
<mgrwt>
<rscale>  0 0.12500166E+03</rscale>
<asrwt>0</asrwt>
<pdfrwt beam="1">  1        4 0.12981136E-01 0.12500166E+03</pdfrwt>
<pdfrwt beam="2">  1       -4 0.71224952E-02 0.12500166E+03</pdfrwt>
<totfact> 0.10329704E+04</totfact>
</mgrwt>
</event>
<event>
 5    1  0.3317939E-002  0.1250011E+03  0.7818608E-02  0.1235068E+00
          4   -1    0    0  501    0  0.00000000000E+00  0.00000000000E+00  0.31329870309E+02  0.31355600354E+02  0.12700000000E+01 0.  1.
         -4   -1    0    0    0  501 -0.00000000000E+00 -0.00000000000E+00 -0.12460343824E+03  0.12460991020E+03  0.12700000000E+01 0.  1.
         25    2    1    2    0    0  0.00000000000E+00  0.00000000000E+00 -0.93273567930E+02  0.15596551056E+03  0.12500112803E+03 0.  0.
    9000005    1    3    3    0    0 -0.33069199128E+02  0.37296264314E+02 -0.93666409536E+02  0.10610833868E+03  0.10000000000E+01 0.  0.
    9000005    1    3    3    0    0  0.33069199128E+02 -0.37296264314E+02  0.39284160608E+00  0.49857171874E+02  0.10000000000E+01 0.  0.
<mgrwt>
<rscale>  0 0.12500113E+03</rscale>
<asrwt>0</asrwt>
<pdfrwt beam="1">  1        4 0.48224572E-02 0.12500113E+03</pdfrwt>
<pdfrwt beam="2">  1       -4 0.19172237E-01 0.12500113E+03</pdfrwt>
<totfact> 0.98123801E+03</totfact>
</mgrwt>
</event>
<event>
 5    1  0.3317939E-002  0.1250092E+03  0.7818608E-02  0.1235055E+00
          4   -1    0    0  501    0  0.00000000000E+00  0.00000000000E+00  0.28913600383E+02  0.28941478661E+02  0.12700000000E+01 0. -1.
         -4   -1    0    0    0  501 -0.00000000000E+00 -0.00000000000E+00 -0.13502477788E+03  0.13503075035E+03  0.12700000000E+01 0. -1.
         25    2    1    2    0    0  0.00000000000E+00  0.00000000000E+00 -0.10611117749E+03  0.16397222901E+03  0.12500923925E+03 0.  0.
    9000005    1    3    3    0    0  0.58272878245E+01  0.53962257788E+02 -0.12415808885E+02  0.55686936163E+02  0.10000000000E+01 0.  0.
    9000005    1    3    3    0    0 -0.58272878245E+01 -0.53962257788E+02 -0.93695368609E+02  0.10828529285E+03  0.10000000000E+01 0.  0.
<mgrwt>
<rscale>  0 0.12500924E+03</rscale>
<asrwt>0</asrwt>
<pdfrwt beam="1">  1        4 0.44508502E-02 0.12500924E+03</pdfrwt>
<pdfrwt beam="2">  1       -4 0.20775646E-01 0.12500924E+03</pdfrwt>
<totfact> 0.96562345E+03</totfact>
</mgrwt>
</event>
<event>
 5    1  0.3317939E-002  0.1250024E+03  0.7818608E-02  0.1235065E+00
         -4   -1    0    0    0  501 -0.00000000000E+00  0.00000000000E+00  0.21811865888E+03  0.21812235615E+03  0.12700000000E+01 0.  1.
          4   -1    0    0  501    0  0.00000000000E+00 -0.00000000000E+00 -0.17883156577E+02  0.17928195369E+02  0.12700000000E+01 0.  1.
         25    2    1    2    0    0  0.00000000000E+00  0.00000000000E+00  0.20023550230E+03  0.23605055152E+03  0.12500242593E+03 0.  0.
    9000005    1    3    3    0    0 -0.36494808102E+02  0.43319761716E+02  0.14996954599E+03  0.16031324804E+03  0.10000000000E+01 0.  0.
    9000005    1    3    3    0    0  0.36494808102E+02 -0.43319761716E+02  0.50265956315E+02  0.75737303476E+02  0.10000000000E+01 0.  0.
<mgrwt>
<rscale>  0 0.12500243E+03</rscale>
<asrwt>0</asrwt>
<pdfrwt beam="2">  1        4 0.27550040E-02 0.12500243E+03</pdfrwt>
<pdfrwt beam="1">  1       -4 0.33560463E-01 0.12500243E+03</pdfrwt>
<totfact> 0.84384542E+03</totfact>
</mgrwt>
</event>
<event>
 4    1  0.3317939E-002  0.1127750E+03  0.7818608E-02  0.1255516E+00
         -4   -1    0    0    0  501 -0.00000000000E+00  0.00000000000E+00  0.17826522353E+02  0.17871703870E+02  0.12700000000E+01 0. -1.
          4   -1    0    0  501    0  0.00000000000E+00 -0.00000000000E+00 -0.17808743664E+03  0.17809196498E+03  0.12700000000E+01 0. -1.
    9000005    1    1    2    0    0 -0.86714947071E+01  0.51823851851E+01 -0.17651137526E+03  0.17680304729E+03  0.10000000000E+01 0.  0.
    9000005    1    1    2    0    0  0.86714947071E+01 -0.51823851851E+01  0.16250460969E+02  0.19160621555E+02  0.10000000000E+01 0.  0.
<mgrwt>
<rscale>  0 0.11277499E+03</rscale>
<asrwt>0</asrwt>
<pdfrwt beam="2">  1        4 0.27401890E-01 0.11277499E+03</pdfrwt>
<pdfrwt beam="1">  1       -4 0.27463659E-02 0.11277499E+03</pdfrwt>
<totfact> 0.12091757E+04</totfact>
</mgrwt>
</event>
<event>
 5    1  0.3317939E-002  0.1249906E+03  0.7818608E-02  0.1235084E+00
          4   -1    0    0  501    0  0.00000000000E+00  0.00000000000E+00  0.21936161465E+02  0.21972894207E+02  0.12700000000E+01 0. -1.
         -4   -1    0    0    0  501 -0.00000000000E+00 -0.00000000000E+00 -0.17785887921E+03  0.17786341336E+03  0.12700000000E+01 0. -1.
         25    2    1    2    0    0  0.00000000000E+00  0.00000000000E+00 -0.15592271774E+03  0.19983630757E+03  0.12499062331E+03 0.  0.
    9000005    1    3    3    0    0 -0.12218994494E+02 -0.10249206815E+02 -0.17455800983E+03  0.17528790278E+03  0.10000000000E+01 0.  0.
    9000005    1    3    3    0    0  0.12218994494E+02  0.10249206815E+02  0.18635292082E+02  0.24548404791E+02  0.10000000000E+01 0.  0.
<mgrwt>
<rscale>  0 0.12499062E+03</rscale>
<asrwt>0</asrwt>
<pdfrwt beam="1">  1        4 0.33779686E-02 0.12499062E+03</pdfrwt>
<pdfrwt beam="2">  1       -4 0.27366078E-01 0.12499062E+03</pdfrwt>
<totfact> 0.90182043E+03</totfact>
</mgrwt>
</event>
<event>
 5    1  0.3317939E-002  0.1249864E+03  0.7818608E-02  0.1235091E+00
         -4   -1    0    0    0  501 -0.00000000000E+00  0.00000000000E+00  0.53944944721E+01  0.55419735302E+01  0.12700000000E+01 0. -1.
          4   -1    0    0  501    0  0.00000000000E+00 -0.00000000000E+00 -0.71404961444E+03  0.71405074384E+03  0.12700000000E+01 0. -1.
         25    2    1    2    0    0  0.00000000000E+00  0.00000000000E+00 -0.70865511997E+03  0.71959271737E+03  0.12498639862E+03 0.  0.
    9000005    1    3    3    0    0  0.31996475885E+02  0.11015843777E+02 -0.65675530414E+03  0.65762729019E+03  0.10000000000E+01 0.  0.
    9000005    1    3    3    0    0 -0.31996475885E+02 -0.11015843777E+02 -0.51899815824E+02  0.61965427181E+02  0.10000000000E+01 0.  0.
<mgrwt>
<rscale>  0 0.12498640E+03</rscale>
<asrwt>0</asrwt>
<pdfrwt beam="2">  1        4 0.10986514E+00 0.12498640E+03</pdfrwt>
<pdfrwt beam="1">  1       -4 0.84135421E-03 0.12498640E+03</pdfrwt>
<totfact> 0.42084931E+03</totfact>
</mgrwt>
</event>
<event>
 5    1  0.3317939E-002  0.1249992E+03  0.7818608E-02  0.1235071E+00
         -4   -1    0    0    0  501 -0.00000000000E+00  0.00000000000E+00  0.23722959188E+03  0.23723299131E+03  0.12700000000E+01 0.  1.
          4   -1    0    0  501    0  0.00000000000E+00 -0.00000000000E+00 -0.16437886301E+02  0.16486873750E+02  0.12700000000E+01 0.  1.
         25    2    1    2    0    0  0.00000000000E+00  0.00000000000E+00  0.22079170558E+03  0.25371986506E+03  0.12499917068E+03 0.  0.
    9000005    1    3    3    0    0 -0.51893526325E+02  0.29270698656E+02  0.72125825644E+02  0.93556649144E+02  0.10000000000E+01 0.  0.
    9000005    1    3    3    0    0  0.51893526325E+02 -0.29270698656E+02  0.14866587994E+03  0.16016321591E+03  0.10000000000E+01 0.  0.
<mgrwt>
<rscale>  0 0.12499917E+03</rscale>
<asrwt>0</asrwt>
<pdfrwt beam="2">  1        4 0.25329353E-02 0.12499917E+03</pdfrwt>
<pdfrwt beam="1">  1       -4 0.36500890E-01 0.12499917E+03</pdfrwt>
<totfact> 0.81797057E+03</totfact>
</mgrwt>
</event>
<event>
 5    1  0.3317939E-002  0.1250017E+03  0.7818608E-02  0.1235067E+00
         -4   -1    0    0    0  501 -0.00000000000E+00  0.00000000000E+00  0.11776010045E+02  0.11844294516E+02  0.12700000000E+01 0.  1.
          4   -1    0    0  501    0  0.00000000000E+00 -0.00000000000E+00 -0.33069331915E+03  0.33069575781E+03  0.12700000000E+01 0.  1.
         25    2    1    2    0    0  0.00000000000E+00  0.00000000000E+00 -0.31891730911E+03  0.34254005232E+03  0.12500174958E+03 0.  0.
    9000005    1    3    3    0    0 -0.14517319921E+01  0.38382619419E+02 -0.24375635131E+02  0.45502797576E+02  0.10000000000E+01 0.  0.
    9000005    1    3    3    0    0  0.14517319921E+01 -0.38382619419E+02 -0.29454167398E+03  0.29703725475E+03  0.10000000000E+01 0.  0.
<mgrwt>
<rscale>  0 0.12500175E+03</rscale>
<asrwt>0</asrwt>
<pdfrwt beam="2">  1        4 0.50881328E-01 0.12500175E+03</pdfrwt>
<pdfrwt beam="1">  1       -4 0.18171343E-02 0.12500175E+03</pdfrwt>
<totfact> 0.70550384E+03</totfact>
</mgrwt>
</event>
<event>
 5    1  0.3317939E-002  0.1250003E+03  0.7818608E-02  0.1235069E+00
         -4   -1    0    0    0  501 -0.00000000000E+00  0.00000000000E+00  0.26504451774E+02  0.26534861293E+02  0.12700000000E+01 0.  1.
          4   -1    0    0  501    0  0.00000000000E+00 -0.00000000000E+00 -0.14726394859E+03  0.14726942471E+03  0.12700000000E+01 0.  1.
         25    2    1    2    0    0  0.00000000000E+00  0.00000000000E+00 -0.12075949682E+03  0.17380428600E+03  0.12500029505E+03 0.  0.
    9000005    1    3    3    0    0  0.52292344955E+02  0.10607735486E+02 -0.10561162623E+03  0.11832932430E+03  0.10000000000E+01 0.  0.
    9000005    1    3    3    0    0 -0.52292344955E+02 -0.10607735486E+02 -0.15147870583E+02  0.55474961706E+02  0.10000000000E+01 0.  0.
<mgrwt>
<rscale>  0 0.12500030E+03</rscale>
<asrwt>0</asrwt>
<pdfrwt beam="2">  1        4 0.22658752E-01 0.12500030E+03</pdfrwt>
<pdfrwt beam="1">  1       -4 0.40803685E-02 0.12500030E+03</pdfrwt>
<totfact> 0.94743663E+03</totfact>
</mgrwt>
</event>
<event>
 5    1  0.3317939E-002  0.1250031E+03  0.7818608E-02  0.1235065E+00
         -4   -1    0    0    0  501 -0.00000000000E+00  0.00000000000E+00  0.27941043469E+03  0.27941332093E+03  0.12700000000E+01 0. -1.
          4   -1    0    0  501    0  0.00000000000E+00 -0.00000000000E+00 -0.13949208258E+02  0.14006902263E+02  0.12700000000E+01 0. -1.
         25    2    1    2    0    0  0.00000000000E+00  0.00000000000E+00  0.26546122643E+03  0.29342022319E+03  0.12500305852E+03 0.  0.
    9000005    1    3    3    0    0  0.39562006281E+02  0.34927800373E+02  0.54162946482E+02  0.75628885695E+02  0.10000000000E+01 0.  0.
    9000005    1    3    3    0    0 -0.39562006281E+02 -0.34927800373E+02  0.21129827995E+03  0.21779133750E+03  0.10000000000E+01 0.  0.
<mgrwt>
<rscale>  0 0.12500306E+03</rscale>
<asrwt>0</asrwt>
<pdfrwt beam="2">  1        4 0.21506922E-02 0.12500306E+03</pdfrwt>
<pdfrwt beam="1">  1       -4 0.42990878E-01 0.12500306E+03</pdfrwt>
<totfact> 0.76426486E+03</totfact>
</mgrwt>
</event>
<event>
 5    1  0.3317939E-002  0.1250005E+03  0.7818608E-02  0.1235068E+00
         -4   -1    0    0    0  501 -0.00000000000E+00  0.00000000000E+00  0.16474212919E+02  0.16523092667E+02  0.12700000000E+01 0.  1.
          4   -1    0    0  501    0  0.00000000000E+00 -0.00000000000E+00 -0.23671318540E+03  0.23671659224E+03  0.12700000000E+01 0.  1.
         25    2    1    2    0    0  0.00000000000E+00  0.00000000000E+00 -0.22023897248E+03  0.25323968491E+03  0.12500053205E+03 0.  0.
    9000005    1    3    3    0    0  0.12741081556E+02 -0.16724130262E+02  0.91040289030E+01  0.22932837472E+02  0.10000000000E+01 0.  0.
    9000005    1    3    3    0    0 -0.12741081556E+02  0.16724130262E+02 -0.22934300138E+03  0.23030684743E+03  0.10000000000E+01 0.  0.
<mgrwt>
<rscale>  0 0.12500053E+03</rscale>
<asrwt>0</asrwt>
<pdfrwt beam="2">  1        4 0.36421433E-01 0.12500053E+03</pdfrwt>
<pdfrwt beam="1">  1       -4 0.25385165E-02 0.12500053E+03</pdfrwt>
<totfact> 0.81863267E+03</totfact>
</mgrwt>
</event>
<event>
 5    1  0.3317939E-002  0.1249992E+03  0.7818608E-02  0.1235071E+00
         -4   -1    0    0    0  501 -0.00000000000E+00  0.00000000000E+00  0.39892079945E+01  0.41864878386E+01  0.12700000000E+01 0.  1.
          4   -1    0    0  501    0  0.00000000000E+00 -0.00000000000E+00 -0.95536630325E+03  0.95536714737E+03  0.12700000000E+01 0.  1.
         25    2    1    2    0    0  0.00000000000E+00  0.00000000000E+00 -0.95137709525E+03  0.95955363521E+03  0.12499920591E+03 0.  0.
    9000005    1    3    3    0    0 -0.20585274562E+02  0.47679092959E+02 -0.20886595594E+03  0.21522787223E+03  0.10000000000E+01 0.  0.
    9000005    1    3    3    0    0  0.20585274562E+02 -0.47679092959E+02 -0.74251113931E+03  0.74432576298E+03  0.10000000000E+01 0.  0.
<mgrwt>
<rscale>  0 0.12499921E+03</rscale>
<asrwt>0</asrwt>
<pdfrwt beam="2">  1        4 0.14699449E+00 0.12499921E+03</pdfrwt>
<pdfrwt beam="1">  1       -4 0.62896537E-03 0.12499921E+03</pdfrwt>
<totfact> 0.31979781E+03</totfact>
</mgrwt>
</event>
<event>
 5    1  0.3317939E-002  0.1250015E+03  0.7818608E-02  0.1235067E+00
          4   -1    0    0  501    0  0.00000000000E+00  0.00000000000E+00  0.12642903840E+04  0.12642910218E+04  0.12700000000E+01 0. -1.
         -4   -1    0    0    0  501 -0.00000000000E+00 -0.00000000000E+00 -0.29585824495E+01  0.32196444075E+01  0.12700000000E+01 0. -1.
         25    2    1    2    0    0  0.00000000000E+00  0.00000000000E+00  0.12613318015E+04  0.12675106663E+04  0.12500150206E+03 0.  0.
    9000005    1    3    3    0    0 -0.34866233841E+01  0.62319839974E+02  0.59953624183E+03  0.60277742514E+03  0.10000000000E+01 0.  0.
    9000005    1    3    3    0    0  0.34866233841E+01 -0.62319839974E+02  0.66179555970E+03  0.66473324111E+03  0.10000000000E+01 0.  0.
<mgrwt>
<rscale>  0 0.12500150E+03</rscale>
<asrwt>0</asrwt>
<pdfrwt beam="1">  1        4 0.19452595E+00 0.12500150E+03</pdfrwt>
<pdfrwt beam="2">  1       -4 0.47529824E-03 0.12500150E+03</pdfrwt>
<totfact> 0.23007854E+03</totfact>
</mgrwt>
</event>
<event>
 5    1  0.3317939E-002  0.1250101E+03  0.7818608E-02  0.1235054E+00
          4   -1    0    0  501    0  0.00000000000E+00  0.00000000000E+00  0.44539484701E+02  0.44557587429E+02  0.12700000000E+01 0.  1.
         -4   -1    0    0    0  501 -0.00000000000E+00 -0.00000000000E+00 -0.87676690437E+02  0.87685887952E+02  0.12700000000E+01 0.  1.
         25    2    1    2    0    0  0.00000000000E+00  0.00000000000E+00 -0.43137205736E+02  0.13224347538E+03  0.12501007264E+03 0.  0.
    9000005    1    3    3    0    0  0.54491655519E+01  0.79261989407E+01  0.43756971521E+02  0.44812839583E+02  0.10000000000E+01 0.  0.
    9000005    1    3    3    0    0 -0.54491655519E+01 -0.79261989407E+01 -0.86894177256E+02  0.87430635797E+02  0.10000000000E+01 0.  0.
<mgrwt>
<rscale>  0 0.12501007E+03</rscale>
<asrwt>0</asrwt>
<pdfrwt beam="1">  1        4 0.68543285E-02 0.12501007E+03</pdfrwt>
<pdfrwt beam="2">  1       -4 0.13490822E-01 0.12501007E+03</pdfrwt>
<totfact> 0.10294165E+04</totfact>
</mgrwt>
</event>
<event>
 5    1  0.3317939E-002  0.1250139E+03  0.7818608E-02  0.1235048E+00
         -4   -1    0    0    0  501 -0.00000000000E+00  0.00000000000E+00  0.30193546119E+02  0.30220243666E+02  0.12700000000E+01 0. -1.
          4   -1    0    0  501    0  0.00000000000E+00 -0.00000000000E+00 -0.12931535027E+03  0.12932158643E+03  0.12700000000E+01 0. -1.
         25    2    1    2    0    0  0.00000000000E+00  0.00000000000E+00 -0.99121804155E+02  0.15954183009E+03  0.12501385320E+03 0.  0.
    9000005    1    3    3    0    0  0.41535701370E+02  0.16624591371E+02 -0.10525506650E+03  0.11437316359E+03  0.10000000000E+01 0.  0.
    9000005    1    3    3    0    0 -0.41535701370E+02 -0.16624591371E+02  0.61332623437E+01  0.45168666502E+02  0.10000000000E+01 0.  0.
<mgrwt>
<rscale>  0 0.12501385E+03</rscale>
<asrwt>0</asrwt>
<pdfrwt beam="2">  1        4 0.19897202E-01 0.12501385E+03</pdfrwt>
<pdfrwt beam="1">  1       -4 0.46476944E-02 0.12501385E+03</pdfrwt>
<totfact> 0.97400856E+03</totfact>
</mgrwt>
</event>
<event>
 5    1  0.3317939E-002  0.1250046E+03  0.7818608E-02  0.1235062E+00
         -4   -1    0    0    0  501 -0.00000000000E+00  0.00000000000E+00  0.72216872009E+00  0.14609680559E+01  0.12700000000E+01 0.  1.
          4   -1    0    0  501    0  0.00000000000E+00 -0.00000000000E+00 -0.35780897975E+04  0.35780900229E+04  0.12700000000E+01 0.  1.
         25    2    1    2    0    0  0.00000000000E+00  0.00000000000E+00 -0.35773676288E+04  0.35795509909E+04  0.12500458115E+03 0.  0.
    9000005    1    3    3    0    0 -0.18446685296E+02 -0.57968551892E+02 -0.13787847662E+04  0.13801264670E+04  0.10000000000E+01 0.  0.
    9000005    1    3    3    0    0  0.18446685296E+02  0.57968551892E+02 -0.21985828625E+04  0.21994245240E+04  0.10000000000E+01 0.  0.
<mgrwt>
<rscale>  0 0.12500458E+03</rscale>
<asrwt>0</asrwt>
<pdfrwt beam="2">  1        4 0.55052281E+00 0.12500458E+03</pdfrwt>
<pdfrwt beam="1">  1       -4 0.16795380E-03 0.12500458E+03</pdfrwt>
<totfact> 0.47312816E+01</totfact>
</mgrwt>
</event>
<event>
 5    1  0.3317939E-002  0.1250115E+03  0.7818608E-02  0.1235051E+00
         -4   -1    0    0    0  501 -0.00000000000E+00  0.00000000000E+00  0.12688301548E+03  0.12688937118E+03  0.12700000000E+01 0.  1.
          4   -1    0    0  501    0  0.00000000000E+00 -0.00000000000E+00 -0.30771669088E+02  0.30797865486E+02  0.12700000000E+01 0.  1.
         25    2    1    2    0    0  0.00000000000E+00  0.00000000000E+00  0.96111346393E+02  0.15768723666E+03  0.12501149427E+03 0.  0.
    9000005    1    3    3    0    0  0.15328286735E+02  0.59246064412E+02  0.64056634652E+02  0.88596303340E+02  0.10000000000E+01 0.  0.
    9000005    1    3    3    0    0 -0.15328286735E+02 -0.59246064412E+02  0.32054711741E+02  0.69090933323E+02  0.10000000000E+01 0.  0.
<mgrwt>
<rscale>  0 0.12501149E+03</rscale>
<asrwt>0</asrwt>
<pdfrwt beam="2">  1        4 0.47366069E-02 0.12501149E+03</pdfrwt>
<pdfrwt beam="1">  1       -4 0.19522968E-01 0.12501149E+03</pdfrwt>
<totfact> 0.97765261E+03</totfact>
</mgrwt>
</event>
<event>
 5    1  0.3317939E-002  0.1249992E+03  0.7818608E-02  0.1235071E+00
         -4   -1    0    0    0  501 -0.00000000000E+00  0.00000000000E+00  0.22337880695E+03  0.22338241716E+03  0.12700000000E+01 0. -1.
          4   -1    0    0  501    0  0.00000000000E+00 -0.00000000000E+00 -0.17460075994E+02  0.17506203293E+02  0.12700000000E+01 0. -1.
         25    2    1    2    0    0  0.00000000000E+00  0.00000000000E+00  0.20591873096E+03  0.24088862045E+03  0.12499921481E+03 0.  0.
    9000005    1    3    3    0    0  0.94725813264E+01  0.25947094036E+02 -0.50663757787E+01  0.28100705497E+02  0.10000000000E+01 0.  0.
    9000005    1    3    3    0    0 -0.94725813264E+01 -0.25947094036E+02  0.21098510674E+03  0.21278791496E+03  0.10000000000E+01 0.  0.
<mgrwt>
<rscale>  0 0.12499921E+03</rscale>
<asrwt>0</asrwt>
<pdfrwt beam="2">  1        4 0.26899918E-02 0.12499921E+03</pdfrwt>
<pdfrwt beam="1">  1       -4 0.34369792E-01 0.12499921E+03</pdfrwt>
<totfact> 0.83666668E+03</totfact>
</mgrwt>
</event>
<event>
 5    1  0.3317939E-002  0.1249985E+03  0.7818608E-02  0.1235072E+00
         -4   -1    0    0    0  501 -0.00000000000E+00  0.00000000000E+00  0.45679544797E+02  0.45697195897E+02  0.12700000000E+01 0. -1.
          4   -1    0    0  501    0  0.00000000000E+00 -0.00000000000E+00 -0.85473317040E+02  0.85482751627E+02  0.12700000000E+01 0. -1.
         25    2    1    2    0    0  0.00000000000E+00  0.00000000000E+00 -0.39793772243E+02  0.13117994752E+03  0.12499853728E+03 0.  0.
    9000005    1    3    3    0    0  0.38943791322E+02  0.13632367333E+02  0.29356946040E+02  0.50648697934E+02  0.10000000000E+01 0.  0.
    9000005    1    3    3    0    0 -0.38943791322E+02 -0.13632367333E+02 -0.69150718283E+02  0.80531249591E+02  0.10000000000E+01 0.  0.
<mgrwt>
<rscale>  0 0.12499854E+03</rscale>
<asrwt>0</asrwt>
<pdfrwt beam="2">  1        4 0.13151825E-01 0.12499854E+03</pdfrwt>
<pdfrwt beam="1">  1       -4 0.70297058E-02 0.12499854E+03</pdfrwt>
<totfact> 0.10319574E+04</totfact>
</mgrwt>
</event>
<event>
 5    1  0.3317939E-002  0.1249985E+03  0.7818608E-02  0.1235072E+00
          4   -1    0    0  501    0  0.00000000000E+00  0.00000000000E+00  0.21821748167E+03  0.21822117726E+03  0.12700000000E+01 0.  1.
         -4   -1    0    0    0  501 -0.00000000000E+00 -0.00000000000E+00 -0.17873913102E+02  0.17918975126E+02  0.12700000000E+01 0.  1.
         25    2    1    2    0    0  0.00000000000E+00  0.00000000000E+00  0.20034356857E+03  0.23614015239E+03  0.12499850441E+03 0.  0.
    9000005    1    3    3    0    0 -0.59336442680E+02  0.15977047712E+02  0.12163473980E+03  0.13627945337E+03  0.10000000000E+01 0.  0.
    9000005    1    3    3    0    0  0.59336442680E+02 -0.15977047712E+02  0.78708828765E+02  0.99860699021E+02  0.10000000000E+01 0.  0.
<mgrwt>
<rscale>  0 0.12499850E+03</rscale>
<asrwt>0</asrwt>
<pdfrwt beam="1">  1        4 0.33575671E-01 0.12499850E+03</pdfrwt>
<pdfrwt beam="2">  1       -4 0.27535833E-02 0.12499850E+03</pdfrwt>
<totfact> 0.84378415E+03</totfact>
</mgrwt>
</event>
<event>
 5    1  0.3317939E-002  0.1250070E+03  0.7818608E-02  0.1235058E+00
         -4   -1    0    0    0  501 -0.00000000000E+00  0.00000000000E+00  0.66695373106E+02  0.66707463554E+02  0.12700000000E+01 0. -1.
          4   -1    0    0  501    0  0.00000000000E+00 -0.00000000000E+00 -0.58550797802E+02  0.58564569693E+02  0.12700000000E+01 0. -1.
         25    2    1    2    0    0  0.00000000000E+00  0.00000000000E+00  0.81445753040E+01  0.12527203325E+03  0.12500699263E+03 0.  0.
    9000005    1    3    3    0    0  0.67935833370E-01 -0.37262794993E+02 -0.46205457782E+02  0.59367203360E+02  0.10000000000E+01 0.  0.
    9000005    1    3    3    0    0 -0.67935833370E-01  0.37262794993E+02  0.54350033086E+02  0.65904829887E+02  0.10000000000E+01 0.  0.
<mgrwt>
<rscale>  0 0.12500699E+03</rscale>
<asrwt>0</asrwt>
<pdfrwt beam="2">  1        4 0.90098045E-02 0.12500699E+03</pdfrwt>
<pdfrwt beam="1">  1       -4 0.10262816E-01 0.12500699E+03</pdfrwt>
<totfact> 0.10445306E+04</totfact>
</mgrwt>
</event>
<event>
 5    1  0.3317939E-002  0.1249994E+03  0.7818608E-02  0.1235070E+00
          4   -1    0    0  501    0  0.00000000000E+00  0.00000000000E+00  0.12471214793E+03  0.12471861425E+03  0.12700000000E+01 0.  1.
         -4   -1    0    0    0  501 -0.00000000000E+00 -0.00000000000E+00 -0.31301693514E+02  0.31327446701E+02  0.12700000000E+01 0.  1.
         25    2    1    2    0    0  0.00000000000E+00  0.00000000000E+00  0.93410454416E+02  0.15604606095E+03  0.12499944058E+03 0.  0.
    9000005    1    3    3    0    0  0.34598733132E+02 -0.38961432182E+01  0.11148805715E+03  0.11680256484E+03  0.10000000000E+01 0.  0.
    9000005    1    3    3    0    0 -0.34598733132E+02  0.38961432182E+01 -0.18077602736E+02  0.39243496111E+02  0.10000000000E+01 0.  0.
<mgrwt>
<rscale>  0 0.12499944E+03</rscale>
<asrwt>0</asrwt>
<pdfrwt beam="1">  1        4 0.19188963E-01 0.12499944E+03</pdfrwt>
<pdfrwt beam="2">  1       -4 0.48181235E-02 0.12499944E+03</pdfrwt>
<totfact> 0.98111769E+03</totfact>
</mgrwt>
</event>
<event>
 5    1  0.3317939E-002  0.1249949E+03  0.7818608E-02  0.1235077E+00
         -4   -1    0    0    0  501 -0.00000000000E+00  0.00000000000E+00  0.69682620894E+02  0.69694193120E+02  0.12700000000E+01 0.  1.
          4   -1    0    0  501    0  0.00000000000E+00 -0.00000000000E+00 -0.56029766771E+02  0.56044158165E+02  0.12700000000E+01 0.  1.
         25    2    1    2    0    0  0.00000000000E+00  0.00000000000E+00  0.13652854123E+02  0.12573835129E+03  0.12499493013E+03 0.  0.
    9000005    1    3    3    0    0 -0.16679224544E+02  0.58127931509E+02 -0.90114245862E+01  0.61149478542E+02  0.10000000000E+01 0.  0.
    9000005    1    3    3    0    0  0.16679224544E+02 -0.58127931509E+02  0.22664278709E+02  0.64588872743E+02  0.10000000000E+01 0.  0.
<mgrwt>
<rscale>  0 0.12499493E+03</rscale>
<asrwt>0</asrwt>
<pdfrwt beam="2">  1        4 0.86219613E-02 0.12499493E+03</pdfrwt>
<pdfrwt beam="1">  1       -4 0.10722400E-01 0.12499493E+03</pdfrwt>
<totfact> 0.10437894E+04</totfact>
</mgrwt>
</event>
<event>
 5    1  0.3317939E-002  0.1249988E+03  0.7818608E-02  0.1235071E+00
          4   -1    0    0  501    0  0.00000000000E+00  0.00000000000E+00  0.60385478588E+03  0.60385612139E+03  0.12700000000E+01 0. -1.
         -4   -1    0    0    0  501 -0.00000000000E+00 -0.00000000000E+00 -0.64050387294E+01  0.65297336183E+01  0.12700000000E+01 0. -1.
         25    2    1    2    0    0  0.00000000000E+00  0.00000000000E+00  0.59744974715E+03  0.61038585500E+03  0.12499876645E+03 0.  0.
    9000005    1    3    3    0    0 -0.34217998675E+02  0.70151034801E+01  0.45691305010E+02  0.57521982439E+02  0.10000000000E+01 0.  0.
    9000005    1    3    3    0    0  0.34217998675E+02 -0.70151034801E+01  0.55175844214E+03  0.55286387256E+03  0.10000000000E+01 0.  0.
<mgrwt>
<rscale>  0 0.12499877E+03</rscale>
<asrwt>0</asrwt>
<pdfrwt beam="1">  1        4 0.92910392E-01 0.12499877E+03</pdfrwt>
<pdfrwt beam="2">  1       -4 0.99508564E-03 0.12499877E+03</pdfrwt>
<totfact> 0.48219839E+03</totfact>
</mgrwt>
</event>
<event>
 5    1  0.3317939E-002  0.1250086E+03  0.7818608E-02  0.1235056E+00
         -4   -1    0    0    0  501 -0.00000000000E+00  0.00000000000E+00  0.28979860859E+02  0.29007675456E+02  0.12700000000E+01 0. -1.
          4   -1    0    0  501    0  0.00000000000E+00 -0.00000000000E+00 -0.13471487725E+03  0.13472086346E+03  0.12700000000E+01 0. -1.
         25    2    1    2    0    0  0.00000000000E+00  0.00000000000E+00 -0.10573501639E+03  0.16372853892E+03  0.12500856277E+03 0.  0.
    9000005    1    3    3    0    0 -0.88971008600E+01  0.48704667612E+02 -0.29171254157E+01  0.49606578914E+02  0.10000000000E+01 0.  0.
    9000005    1    3    3    0    0  0.88971008600E+01 -0.48704667612E+02 -0.10281789098E+03  0.11412196001E+03  0.10000000000E+01 0.  0.
<mgrwt>
<rscale>  0 0.12500856E+03</rscale>
<asrwt>0</asrwt>
<pdfrwt beam="2">  1        4 0.20727965E-01 0.12500856E+03</pdfrwt>
<pdfrwt beam="1">  1       -4 0.44610403E-02 0.12500856E+03</pdfrwt>
<totfact> 0.96610142E+03</totfact>
</mgrwt>
</event>
<event>
 5    1  0.3317939E-002  0.1250000E+03  0.7818608E-02  0.1235069E+00
          4   -1    0    0  501    0  0.00000000000E+00  0.00000000000E+00  0.11234822286E+02  0.11306375715E+02  0.12700000000E+01 0. -1.
         -4   -1    0    0    0  501 -0.00000000000E+00 -0.00000000000E+00 -0.34651513061E+03  0.34651745791E+03  0.12700000000E+01 0. -1.
         25    2    1    2    0    0  0.00000000000E+00  0.00000000000E+00 -0.33528030832E+03  0.35782383363E+03  0.12500004306E+03 0.  0.
    9000005    1    3    3    0    0 -0.28636975955E+02 -0.40200561913E+01 -0.90564203727E+01  0.30319234713E+02  0.10000000000E+01 0.  0.
    9000005    1    3    3    0    0  0.28636975955E+02  0.40200561913E+01 -0.32622388795E+03  0.32750459892E+03  0.10000000000E+01 0.  0.
<mgrwt>
<rscale>  0 0.12500004E+03</rscale>
<asrwt>0</asrwt>
<pdfrwt beam="1">  1        4 0.17341176E-02 0.12500004E+03</pdfrwt>
<pdfrwt beam="2">  1       -4 0.53315695E-01 0.12500004E+03</pdfrwt>
<totfact> 0.68872267E+03</totfact>
</mgrwt>
</event>
<event>
 5    1  0.3317939E-002  0.1249981E+03  0.7818608E-02  0.1235072E+00
         -4   -1    0    0    0  501 -0.00000000000E+00  0.00000000000E+00  0.40312752494E+01  0.42265920239E+01  0.12700000000E+01 0. -1.
          4   -1    0    0  501    0  0.00000000000E+00 -0.00000000000E+00 -0.94584305244E+03  0.94584390507E+03  0.12700000000E+01 0. -1.
         25    2    1    2    0    0  0.00000000000E+00  0.00000000000E+00 -0.94181177719E+03  0.95007049709E+03  0.12499810312E+03 0.  0.
    9000005    1    3    3    0    0  0.46077776188E+01 -0.57903800926E+02 -0.29575192035E+03  0.30140384896E+03  0.10000000000E+01 0.  0.
    9000005    1    3    3    0    0 -0.46077776188E+01  0.57903800926E+02 -0.64605985684E+03  0.64866664813E+03  0.10000000000E+01 0.  0.
<mgrwt>
<rscale>  0 0.12499810E+03</rscale>
<asrwt>0</asrwt>
<pdfrwt beam="2">  1        4 0.14552923E+00 0.12499810E+03</pdfrwt>
<pdfrwt beam="1">  1       -4 0.63528690E-03 0.12499810E+03</pdfrwt>
<totfact> 0.32314843E+03</totfact>
</mgrwt>
</event>
<event>
 5    1  0.3317939E-002  0.1250006E+03  0.7818608E-02  0.1235068E+00
         -4   -1    0    0    0  501 -0.00000000000E+00  0.00000000000E+00  0.47081865306E+02  0.47098990867E+02  0.12700000000E+01 0.  1.
          4   -1    0    0  501    0  0.00000000000E+00 -0.00000000000E+00 -0.82930968510E+02  0.82940692293E+02  0.12700000000E+01 0.  1.
         25    2    1    2    0    0  0.00000000000E+00  0.00000000000E+00 -0.35849103205E+02  0.13003968316E+03  0.12500064398E+03 0.  0.
    9000005    1    3    3    0    0  0.36762913232E+01  0.62332942730E+02 -0.15296989753E+02  0.64295480111E+02  0.10000000000E+01 0.  0.
    9000005    1    3    3    0    0 -0.36762913232E+01 -0.62332942730E+02 -0.20552113452E+02  0.65744203049E+02  0.10000000000E+01 0.  0.
<mgrwt>
<rscale>  0 0.12500064E+03</rscale>
<asrwt>0</asrwt>
<pdfrwt beam="2">  1        4 0.12760676E-01 0.12500064E+03</pdfrwt>
<pdfrwt beam="1">  1       -4 0.72454292E-02 0.12500064E+03</pdfrwt>
<totfact> 0.10343508E+04</totfact>
</mgrwt>
</event>
<event>
 5    1  0.3317939E-002  0.1249959E+03  0.7818608E-02  0.1235076E+00
          4   -1    0    0  501    0  0.00000000000E+00  0.00000000000E+00  0.14986273837E+03  0.14986811953E+03  0.12700000000E+01 0. -1.
         -4   -1    0    0    0  501 -0.00000000000E+00 -0.00000000000E+00 -0.26042499286E+02  0.26073447587E+02  0.12700000000E+01 0. -1.
         25    2    1    2    0    0  0.00000000000E+00  0.00000000000E+00  0.12382023908E+03  0.17594156712E+03  0.12499593367E+03 0.  0.
    9000005    1    3    3    0    0  0.81299206382E+01  0.30163610315E+02 -0.14269091824E+02  0.34359074177E+02  0.10000000000E+01 0.  0.
    9000005    1    3    3    0    0 -0.81299206382E+01 -0.30163610315E+02  0.13808933091E+03  0.14158249294E+03  0.10000000000E+01 0.  0.
<mgrwt>
<rscale>  0 0.12499593E+03</rscale>
<asrwt>0</asrwt>
<pdfrwt beam="1">  1        4 0.23058601E-01 0.12499593E+03</pdfrwt>
<pdfrwt beam="2">  1       -4 0.40093329E-02 0.12499593E+03</pdfrwt>
<totfact> 0.94361283E+03</totfact>
</mgrwt>
</event>
<event>
 5    1  0.3317939E-002  0.1249972E+03  0.7818608E-02  0.1235074E+00
         -4   -1    0    0    0  501 -0.00000000000E+00  0.00000000000E+00  0.71467435729E+02  0.71478718999E+02  0.12700000000E+01 0.  1.
          4   -1    0    0  501    0  0.00000000000E+00 -0.00000000000E+00 -0.54632318302E+02  0.54647077718E+02  0.12700000000E+01 0.  1.
         25    2    1    2    0    0  0.00000000000E+00  0.00000000000E+00  0.16835117427E+02  0.12612579672E+03  0.12499718164E+03 0.  0.
    9000005    1    3    3    0    0 -0.20206064887E+02 -0.21393851543E+02  0.64043275350E+02  0.70487751131E+02  0.10000000000E+01 0.  0.
    9000005    1    3    3    0    0  0.20206064887E+02  0.21393851543E+02 -0.47208157923E+02  0.55638045585E+02  0.10000000000E+01 0.  0.
<mgrwt>
<rscale>  0 0.12499718E+03</rscale>
<asrwt>0</asrwt>
<pdfrwt beam="2">  1        4 0.84069753E-02 0.12499718E+03</pdfrwt>
<pdfrwt beam="1">  1       -4 0.10996993E-01 0.12499718E+03</pdfrwt>
<totfact> 0.10428865E+04</totfact>
</mgrwt>
</event>
<event>
 5    1  0.3317939E-002  0.1250030E+03  0.7818608E-02  0.1235065E+00
          4   -1    0    0  501    0  0.00000000000E+00  0.00000000000E+00  0.93614173858E+01  0.94471707655E+01  0.12700000000E+01 0. -1.
         -4   -1    0    0    0  501 -0.00000000000E+00 -0.00000000000E+00 -0.41530202479E+03  0.41530396663E+03  0.12700000000E+01 0. -1.
         25    2    1    2    0    0  0.00000000000E+00  0.00000000000E+00 -0.40594060741E+03  0.42475113740E+03  0.12500300786E+03 0.  0.
    9000005    1    3    3    0    0  0.40374836831E+02  0.43160568403E+02 -0.27198051641E+03  0.27832959494E+03  0.10000000000E+01 0.  0.
    9000005    1    3    3    0    0 -0.40374836831E+02 -0.43160568403E+02 -0.13396009100E+03  0.14642154246E+03  0.10000000000E+01 0.  0.
<mgrwt>
<rscale>  0 0.12500301E+03</rscale>
<asrwt>0</asrwt>
<pdfrwt beam="1">  1        4 0.14469642E-02 0.12500301E+03</pdfrwt>
<pdfrwt beam="2">  1       -4 0.63899351E-01 0.12500301E+03</pdfrwt>
<totfact> 0.62210547E+03</totfact>
</mgrwt>
</event>
<event>
 5    1  0.3317939E-002  0.1249980E+03  0.7818608E-02  0.1235072E+00
          4   -1    0    0  501    0  0.00000000000E+00  0.00000000000E+00  0.22345898609E+01  0.25702707730E+01  0.12700000000E+01 0. -1.
         -4   -1    0    0    0  501 -0.00000000000E+00 -0.00000000000E+00 -0.16255691471E+04  0.16255696432E+04  0.12700000000E+01 0. -1.
         25    2    1    2    0    0  0.00000000000E+00  0.00000000000E+00 -0.16233345572E+04  0.16281399140E+04  0.12499797901E+03 0.  0.
    9000005    1    3    3    0    0 -0.21640003246E+02 -0.23107395282E+02 -0.15134512430E+04  0.15137826483E+04  0.10000000000E+01 0.  0.
    9000005    1    3    3    0    0  0.21640003246E+02  0.23107395282E+02 -0.10988331426E+03  0.11435726566E+03  0.10000000000E+01 0.  0.
<mgrwt>
<rscale>  0 0.12499798E+03</rscale>
<asrwt>0</asrwt>
<pdfrwt beam="1">  1        4 0.36964413E-03 0.12499798E+03</pdfrwt>
<pdfrwt beam="2">  1       -4 0.25011254E+00 0.12499798E+03</pdfrwt>
<totfact> 0.15543567E+03</totfact>
</mgrwt>
</event>
<event>
 5    1  0.3317939E-002  0.1249996E+03  0.7818608E-02  0.1235070E+00
         -4   -1    0    0    0  501 -0.00000000000E+00  0.00000000000E+00  0.97694618662E+02  0.97702873118E+02  0.12700000000E+01 0. -1.
          4   -1    0    0  501    0  0.00000000000E+00 -0.00000000000E+00 -0.39964009978E+02  0.39984184292E+02  0.12700000000E+01 0. -1.
         25    2    1    2    0    0  0.00000000000E+00  0.00000000000E+00  0.57730608685E+02  0.13768705741E+03  0.12499961040E+03 0.  0.
    9000005    1    3    3    0    0  0.47279849564E+02  0.40666631649E+02  0.24450151824E+02  0.66992305742E+02  0.10000000000E+01 0.  0.
    9000005    1    3    3    0    0 -0.47279849564E+02 -0.40666631649E+02  0.33280456861E+02  0.70694751668E+02  0.10000000000E+01 0.  0.
<mgrwt>
<rscale>  0 0.12499961E+03</rscale>
<asrwt>0</asrwt>
<pdfrwt beam="2">  1        4 0.61504961E-02 0.12499961E+03</pdfrwt>
<pdfrwt beam="1">  1       -4 0.15032128E-01 0.12499961E+03</pdfrwt>
<totfact> 0.10181829E+04</totfact>
</mgrwt>
</event>
<event>
 5    1  0.3317939E-002  0.1249958E+03  0.7818608E-02  0.1235076E+00
          4   -1    0    0  501    0  0.00000000000E+00  0.00000000000E+00  0.66029103892E+01  0.67239367641E+01  0.12700000000E+01 0. -1.
         -4   -1    0    0    0  501 -0.00000000000E+00 -0.00000000000E+00 -0.58606164332E+03  0.58606301937E+03  0.12700000000E+01 0. -1.
         25    2    1    2    0    0  0.00000000000E+00  0.00000000000E+00 -0.57945873293E+03  0.59278695613E+03  0.12499580869E+03 0.  0.
    9000005    1    3    3    0    0  0.47212575447E+02 -0.29867668980E+02 -0.42250819831E+03  0.42618691037E+03  0.10000000000E+01 0.  0.
    9000005    1    3    3    0    0 -0.47212575447E+02  0.29867668980E+02 -0.15695053462E+03  0.16660004576E+03  0.10000000000E+01 0.  0.
<mgrwt>
<rscale>  0 0.12499581E+03</rscale>
<asrwt>0</asrwt>
<pdfrwt beam="1">  1        4 0.10252484E-02 0.12499581E+03</pdfrwt>
<pdfrwt beam="2">  1       -4 0.90172705E-01 0.12499581E+03</pdfrwt>
<totfact> 0.49330657E+03</totfact>
</mgrwt>
</event>
<event>
 5    1  0.3317939E-002  0.1250024E+03  0.7818608E-02  0.1235066E+00
         -4   -1    0    0    0  501 -0.00000000000E+00  0.00000000000E+00  0.36459921629E+02  0.36482033731E+02  0.12700000000E+01 0.  1.
          4   -1    0    0  501    0  0.00000000000E+00 -0.00000000000E+00 -0.10708393591E+03  0.10709146665E+03  0.12700000000E+01 0.  1.
         25    2    1    2    0    0  0.00000000000E+00  0.00000000000E+00 -0.70624014278E+02  0.14357350038E+03  0.12500239445E+03 0.  0.
    9000005    1    3    3    0    0  0.58118214033E+02 -0.17432949225E+02 -0.18130859680E+02  0.63335318692E+02  0.10000000000E+01 0.  0.
    9000005    1    3    3    0    0 -0.58118214033E+02  0.17432949225E+02 -0.52493154598E+02  0.80238181689E+02  0.10000000000E+01 0.  0.
<mgrwt>
<rscale>  0 0.12500239E+03</rscale>
<asrwt>0</asrwt>
<pdfrwt beam="2">  1        4 0.16476732E-01 0.12500239E+03</pdfrwt>
<pdfrwt beam="1">  1       -4 0.56114990E-02 0.12500239E+03</pdfrwt>
<totfact> 0.10059510E+04</totfact>
</mgrwt>
</event>
<event>
 5    1  0.3317939E-002  0.1249980E+03  0.7818608E-02  0.1235072E+00
         -4   -1    0    0    0  501 -0.00000000000E+00  0.00000000000E+00  0.27503425281E+02  0.27532731470E+02  0.12700000000E+01 0. -1.
          4   -1    0    0  501    0  0.00000000000E+00 -0.00000000000E+00 -0.14191544781E+03  0.14192113031E+03  0.12700000000E+01 0. -1.
         25    2    1    2    0    0  0.00000000000E+00  0.00000000000E+00 -0.11441202253E+03  0.16945386178E+03  0.12499800147E+03 0.  0.
    9000005    1    3    3    0    0  0.19225204742E+01 -0.50209123809E+02 -0.10757489696E+03  0.11873504392E+03  0.10000000000E+01 0.  0.
    9000005    1    3    3    0    0 -0.19225204742E+01  0.50209123809E+02 -0.68371255696E+01  0.50718817856E+02  0.10000000000E+01 0.  0.
<mgrwt>
<rscale>  0 0.12499800E+03</rscale>
<asrwt>0</asrwt>
<pdfrwt beam="2">  1        4 0.21835837E-01 0.12499800E+03</pdfrwt>
<pdfrwt beam="1">  1       -4 0.42339877E-02 0.12499800E+03</pdfrwt>
<totfact> 0.95554775E+03</totfact>
</mgrwt>
</event>
<event>
 5    1  0.3317939E-002  0.1250000E+03  0.7818608E-02  0.1235069E+00
         -4   -1    0    0    0  501 -0.00000000000E+00  0.00000000000E+00  0.19114616250E+02  0.19156760018E+02  0.12700000000E+01 0. -1.
          4   -1    0    0  501    0  0.00000000000E+00 -0.00000000000E+00 -0.20409001186E+03  0.20409396327E+03  0.12700000000E+01 0. -1.
         25    2    1    2    0    0  0.00000000000E+00  0.00000000000E+00 -0.18497539561E+03  0.22325072329E+03  0.12499995386E+03 0.  0.
    9000005    1    3    3    0    0  0.51657086880E+02 -0.26354853080E+02 -0.50899656211E+02  0.77167401850E+02  0.10000000000E+01 0.  0.
    9000005    1    3    3    0    0 -0.51657086880E+02  0.26354853080E+02 -0.13407573940E+03  0.14608332144E+03  0.10000000000E+01 0.  0.
<mgrwt>
<rscale>  0 0.12499995E+03</rscale>
<asrwt>0</asrwt>
<pdfrwt beam="2">  1        4 0.31402008E-01 0.12499995E+03</pdfrwt>
<pdfrwt beam="1">  1       -4 0.29442561E-02 0.12499995E+03</pdfrwt>
<totfact> 0.86356654E+03</totfact>
</mgrwt>
</event>
<event>
 5    1  0.3317939E-002  0.1250002E+03  0.7818608E-02  0.1235069E+00
         -4   -1    0    0    0  501 -0.00000000000E+00  0.00000000000E+00  0.23348433481E+02  0.23382947762E+02  0.12700000000E+01 0. -1.
          4   -1    0    0  501    0  0.00000000000E+00 -0.00000000000E+00 -0.16714258601E+03  0.16714741086E+03  0.12700000000E+01 0. -1.
         25    2    1    2    0    0  0.00000000000E+00  0.00000000000E+00 -0.14379415253E+03  0.19053035862E+03  0.12500023702E+03 0.  0.
    9000005    1    3    3    0    0 -0.47105264267E+01  0.42638030321E+02 -0.26309068195E+01  0.42989677360E+02  0.10000000000E+01 0.  0.
    9000005    1    3    3    0    0  0.47105264267E+01 -0.42638030321E+02 -0.14116324571E+03  0.14754068126E+03  0.10000000000E+01 0.  0.
<mgrwt>
<rscale>  0 0.12500024E+03</rscale>
<asrwt>0</asrwt>
<pdfrwt beam="2">  1        4 0.25717269E-01 0.12500024E+03</pdfrwt>
<pdfrwt beam="1">  1       -4 0.35950929E-02 0.12500024E+03</pdfrwt>
<totfact> 0.91754629E+03</totfact>
</mgrwt>
</event>
<event>
 5    1  0.3317939E-002  0.1250010E+03  0.7818608E-02  0.1235068E+00
          4   -1    0    0  501    0  0.00000000000E+00  0.00000000000E+00  0.94428541646E+02  0.94437081580E+02  0.12700000000E+01 0.  1.
         -4   -1    0    0    0  501 -0.00000000000E+00 -0.00000000000E+00 -0.41347733987E+02  0.41367233481E+02  0.12700000000E+01 0.  1.
         25    2    1    2    0    0  0.00000000000E+00  0.00000000000E+00  0.53080807658E+02  0.13580431506E+03  0.12500095939E+03 0.  0.
    9000005    1    3    3    0    0  0.27253849164E+02 -0.38782806158E+02  0.70783856106E+02  0.85195261799E+02  0.10000000000E+01 0.  0.
    9000005    1    3    3    0    0 -0.27253849164E+02  0.38782806158E+02 -0.17703048448E+02  0.50609053262E+02  0.10000000000E+01 0.  0.
<mgrwt>
<rscale>  0 0.12500096E+03</rscale>
<asrwt>0</asrwt>
<pdfrwt beam="1">  1        4 0.14529625E-01 0.12500096E+03</pdfrwt>
<pdfrwt beam="2">  1       -4 0.63633467E-02 0.12500096E+03</pdfrwt>
<totfact> 0.10220925E+04</totfact>
</mgrwt>
</event>
<event>
 5    1  0.3317939E-002  0.1250177E+03  0.7818608E-02  0.1235042E+00
         -4   -1    0    0    0  501 -0.00000000000E+00  0.00000000000E+00  0.16935773599E+03  0.16936249774E+03  0.12700000000E+01 0. -1.
          4   -1    0    0  501    0  0.00000000000E+00 -0.00000000000E+00 -0.23049035995E+02  0.23083997927E+02  0.12700000000E+01 0. -1.
         25    2    1    2    0    0  0.00000000000E+00  0.00000000000E+00  0.14630870000E+03  0.19244649567E+03  0.12501767075E+03 0.  0.
    9000005    1    3    3    0    0 -0.20218417864E+00 -0.11937289232E+02  0.16759364229E+03  0.16802133403E+03  0.10000000000E+01 0.  0.
    9000005    1    3    3    0    0  0.20218417864E+00  0.11937289232E+02 -0.21284942293E+02  0.24425161638E+02  0.10000000000E+01 0.  0.
<mgrwt>
<rscale>  0 0.12501767E+03</rscale>
<asrwt>0</asrwt>
<pdfrwt beam="2">  1        4 0.35490611E-02 0.12501767E+03</pdfrwt>
<pdfrwt beam="1">  1       -4 0.26058093E-01 0.12501767E+03</pdfrwt>
<totfact> 0.91387196E+03</totfact>
</mgrwt>
</event>
<event>
 5    1  0.3317939E-002  0.1250256E+03  0.7818608E-02  0.1235029E+00
         -4   -1    0    0    0  501 -0.00000000000E+00  0.00000000000E+00  0.49277101255E+03  0.49277264911E+03  0.12700000000E+01 0.  1.
          4   -1    0    0  501    0  0.00000000000E+00 -0.00000000000E+00 -0.78778539468E+01  0.79795665801E+01  0.12700000000E+01 0.  1.
         25    2    1    2    0    0  0.00000000000E+00  0.00000000000E+00  0.48489315861E+03  0.50075221569E+03  0.12502562240E+03 0.  0.
    9000005    1    3    3    0    0  0.21544264410E+02 -0.51512371873E+02  0.35496137285E+03  0.35932750521E+03  0.10000000000E+01 0.  0.
    9000005    1    3    3    0    0 -0.21544264410E+02  0.51512371873E+02  0.12993178575E+03  0.14142471048E+03  0.10000000000E+01 0.  0.
<mgrwt>
<rscale>  0 0.12502562E+03</rscale>
<asrwt>0</asrwt>
<pdfrwt beam="2">  1        4 0.12199273E-02 0.12502562E+03</pdfrwt>
<pdfrwt beam="1">  1       -4 0.75818884E-01 0.12502562E+03</pdfrwt>
<totfact> 0.55774617E+03</totfact>
</mgrwt>
</event>
<event>
 5    1  0.3317939E-002  0.1249964E+03  0.7818608E-02  0.1235075E+00
         -4   -1    0    0    0  501 -0.00000000000E+00  0.00000000000E+00  0.28624584551E+03  0.28624866283E+03  0.12700000000E+01 0.  1.
          4   -1    0    0  501    0  0.00000000000E+00 -0.00000000000E+00 -0.13613254364E+02  0.13672366085E+02  0.12700000000E+01 0.  1.
         25    2    1    2    0    0  0.00000000000E+00  0.00000000000E+00  0.27263259115E+03  0.29992102892E+03  0.12499637527E+03 0.  0.
    9000005    1    3    3    0    0 -0.60042293301E+02  0.17106199104E+01  0.94963723297E+02  0.11237042292E+03  0.10000000000E+01 0.  0.
    9000005    1    3    3    0    0  0.60042293301E+02 -0.17106199104E+01  0.17766886785E+03  0.18755060599E+03  0.10000000000E+01 0.  0.
<mgrwt>
<rscale>  0 0.12499638E+03</rscale>
<asrwt>0</asrwt>
<pdfrwt beam="2">  1        4 0.20991107E-02 0.12499638E+03</pdfrwt>
<pdfrwt beam="1">  1       -4 0.44042584E-01 0.12499638E+03</pdfrwt>
<totfact> 0.75614830E+03</totfact>
</mgrwt>
</event>
<event>
 4    1  0.3317939E-002  0.1241599E+03  0.7818608E-02  0.1236388E+00
          4   -1    0    0  501    0  0.00000000000E+00  0.00000000000E+00  0.92045603054E+02  0.92054364055E+02  0.12700000000E+01 0.  1.
         -4   -1    0    0    0  501 -0.00000000000E+00 -0.00000000000E+00 -0.41849305466E+02  0.41868571363E+02  0.12700000000E+01 0.  1.
    9000005    1    1    2    0    0 -0.53240108462E+01  0.53326895850E+02  0.58878783662E+02  0.79622949443E+02  0.10000000000E+01 0.  0.
    9000005    1    1    2    0    0  0.53240108462E+01 -0.53326895850E+02 -0.86824860738E+01  0.54299985975E+02  0.10000000000E+01 0.  0.
<mgrwt>
<rscale>  0 0.12415991E+03</rscale>
<asrwt>0</asrwt>
<pdfrwt beam="1">  1        4 0.14163018E-01 0.12415991E+03</pdfrwt>
<pdfrwt beam="2">  1       -4 0.64405107E-02 0.12415991E+03</pdfrwt>
<totfact> 0.10457691E+04</totfact>
</mgrwt>
</event>
<event>
 5    1  0.3317939E-002  0.1249999E+03  0.7818608E-02  0.1235069E+00
          4   -1    0    0  501    0  0.00000000000E+00  0.00000000000E+00  0.77360487242E+02  0.77370911112E+02  0.12700000000E+01 0. -1.
         -4   -1    0    0    0  501 -0.00000000000E+00 -0.00000000000E+00 -0.50472210805E+02  0.50488186376E+02  0.12700000000E+01 0. -1.
         25    2    1    2    0    0  0.00000000000E+00  0.00000000000E+00  0.26888276437E+02  0.12785909749E+03  0.12499987760E+03 0.  0.
    9000005    1    3    3    0    0 -0.43392046268E+01 -0.64714085120E+01 -0.49978445369E+02  0.50592023348E+02  0.10000000000E+01 0.  0.
    9000005    1    3    3    0    0  0.43392046268E+01  0.64714085120E+01  0.76866721806E+02  0.77267074140E+02  0.10000000000E+01 0.  0.
<mgrwt>
<rscale>  0 0.12499988E+03</rscale>
<asrwt>0</asrwt>
<pdfrwt beam="1">  1        4 0.11903644E-01 0.12499988E+03</pdfrwt>
<pdfrwt beam="2">  1       -4 0.77669863E-02 0.12499988E+03</pdfrwt>
<totfact> 0.10390560E+04</totfact>
</mgrwt>
</event>
<event>
 5    1  0.3317939E-002  0.1249988E+03  0.7818608E-02  0.1235071E+00
          4   -1    0    0  501    0  0.00000000000E+00  0.00000000000E+00  0.10483409687E+03  0.10484178922E+03  0.12700000000E+01 0.  1.
         -4   -1    0    0    0  501 -0.00000000000E+00 -0.00000000000E+00 -0.37240643591E+02  0.37262292403E+02  0.12700000000E+01 0.  1.
         25    2    1    2    0    0  0.00000000000E+00  0.00000000000E+00  0.67593453277E+02  0.14210408162E+03  0.12499878034E+03 0.  0.
    9000005    1    3    3    0    0 -0.51889058498E+02  0.85464775490E+01 -0.45817628177E+01  0.52796867529E+02  0.10000000000E+01 0.  0.
    9000005    1    3    3    0    0  0.51889058498E+02 -0.85464775490E+01  0.72175216095E+02  0.89307214091E+02  0.10000000000E+01 0.  0.
<mgrwt>
<rscale>  0 0.12499878E+03</rscale>
<asrwt>0</asrwt>
<pdfrwt beam="1">  1        4 0.16130579E-01 0.12499878E+03</pdfrwt>
<pdfrwt beam="2">  1       -4 0.57315869E-02 0.12499878E+03</pdfrwt>
<totfact> 0.10090440E+04</totfact>
</mgrwt>
</event>
<event>
 5    1  0.3317939E-002  0.1250026E+03  0.7818608E-02  0.1235065E+00
          4   -1    0    0  501    0  0.00000000000E+00  0.00000000000E+00  0.67937992437E+01  0.69114837888E+01  0.12700000000E+01 0. -1.
         -4   -1    0    0    0  501 -0.00000000000E+00 -0.00000000000E+00 -0.56994059306E+03  0.56994200803E+03  0.12700000000E+01 0. -1.
         25    2    1    2    0    0  0.00000000000E+00  0.00000000000E+00 -0.56314679381E+03  0.57685349182E+03  0.12500255853E+03 0.  0.
    9000005    1    3    3    0    0 -0.21196914750E+02 -0.47320489507E+02 -0.44255233958E+03  0.44558064499E+03  0.10000000000E+01 0.  0.
    9000005    1    3    3    0    0  0.21196914750E+02  0.47320489507E+02 -0.12059445424E+03  0.13127284683E+03  0.10000000000E+01 0.  0.
<mgrwt>
<rscale>  0 0.12500256E+03</rscale>
<asrwt>0</asrwt>
<pdfrwt beam="1">  1        4 0.10543618E-02 0.12500256E+03</pdfrwt>
<pdfrwt beam="2">  1       -4 0.87692292E-01 0.12500256E+03</pdfrwt>
<totfact> 0.50359247E+03</totfact>
</mgrwt>
</event>
<event>
 5    1  0.3317939E-002  0.1250061E+03  0.7818608E-02  0.1235060E+00
          4   -1    0    0  501    0  0.00000000000E+00  0.00000000000E+00  0.14186403961E+04  0.14186409646E+04  0.12700000000E+01 0.  1.
         -4   -1    0    0    0  501 -0.00000000000E+00 -0.00000000000E+00 -0.26067590153E+01  0.28996711130E+01  0.12700000000E+01 0.  1.
         25    2    1    2    0    0  0.00000000000E+00  0.00000000000E+00  0.14160336371E+04  0.14215406357E+04  0.12500606999E+03 0.  0.
    9000005    1    3    3    0    0 -0.10449510386E+02  0.57172720664E+02  0.96925026015E+03  0.97099175025E+03  0.10000000000E+01 0.  0.
    9000005    1    3    3    0    0  0.10449510386E+02 -0.57172720664E+02  0.44678337693E+03  0.45054888543E+03  0.10000000000E+01 0.  0.
<mgrwt>
<rscale>  0 0.12500607E+03</rscale>
<asrwt>0</asrwt>
<pdfrwt beam="1">  1        4 0.21827443E+00 0.12500607E+03</pdfrwt>
<pdfrwt beam="2">  1       -4 0.42361628E-03 0.12500607E+03</pdfrwt>
<totfact> 0.19520824E+03</totfact>
</mgrwt>
</event>
<event>
 5    1  0.3317939E-002  0.1250018E+03  0.7818608E-02  0.1235066E+00
          4   -1    0    0  501    0  0.00000000000E+00  0.00000000000E+00  0.65416566368E+01  0.66637955816E+01  0.12700000000E+01 0. -1.
         -4   -1    0    0    0  501 -0.00000000000E+00 -0.00000000000E+00 -0.59150581803E+03  0.59150718142E+03  0.12700000000E+01 0. -1.
         25    2    1    2    0    0  0.00000000000E+00  0.00000000000E+00 -0.58496416140E+03  0.59817097700E+03  0.12500179041E+03 0.  0.
    9000005    1    3    3    0    0 -0.23702747642E+02  0.56933330067E+02 -0.24412034360E+03  0.25179151391E+03  0.10000000000E+01 0.  0.
    9000005    1    3    3    0    0  0.23702747642E+02 -0.56933330067E+02 -0.34084381780E+03  0.34637946309E+03  0.10000000000E+01 0.  0.
<mgrwt>
<rscale>  0 0.12500179E+03</rscale>
<asrwt>0</asrwt>
<pdfrwt beam="1">  1        4 0.10159094E-02 0.12500179E+03</pdfrwt>
<pdfrwt beam="2">  1       -4 0.91010353E-01 0.12500179E+03</pdfrwt>
<totfact> 0.48981361E+03</totfact>
</mgrwt>
</event>
<event>
 5    1  0.3317939E-002  0.1249932E+03  0.7818608E-02  0.1235080E+00
         -4   -1    0    0    0  501 -0.00000000000E+00  0.00000000000E+00  0.68470650705E+02  0.68482427732E+02  0.12700000000E+01 0. -1.
          4   -1    0    0  501    0  0.00000000000E+00 -0.00000000000E+00 -0.57020010392E+02  0.57034151919E+02  0.12700000000E+01 0. -1.
         25    2    1    2    0    0  0.00000000000E+00  0.00000000000E+00  0.11450640313E+02  0.12551657965E+03  0.12499317823E+03 0.  0.
    9000005    1    3    3    0    0 -0.61807467751E+02 -0.56303710248E+01 -0.15824812452E+01  0.62091612916E+02  0.10000000000E+01 0.  0.
    9000005    1    3    3    0    0  0.61807467751E+02  0.56303710248E+01  0.13033121558E+02  0.63424966734E+02  0.10000000000E+01 0.  0.
<mgrwt>
<rscale>  0 0.12499318E+03</rscale>
<asrwt>0</asrwt>
<pdfrwt beam="2">  1        4 0.87743031E-02 0.12499318E+03</pdfrwt>
<pdfrwt beam="1">  1       -4 0.10535940E-01 0.12499318E+03</pdfrwt>
<totfact> 0.10443195E+04</totfact>
</mgrwt>
</event>
<event>
 5    1  0.3317939E-002  0.1249946E+03  0.7818608E-02  0.1235078E+00
          4   -1    0    0  501    0  0.00000000000E+00  0.00000000000E+00  0.64086830886E+02  0.64099413359E+02  0.12700000000E+01 0. -1.
         -4   -1    0    0    0  501 -0.00000000000E+00 -0.00000000000E+00 -0.60921962073E+02  0.60935198062E+02  0.12700000000E+01 0. -1.
         25    2    1    2    0    0  0.00000000000E+00  0.00000000000E+00  0.31648688122E+01  0.12503461142E+03  0.12499455052E+03 0.  0.
    9000005    1    3    3    0    0  0.57872518218E+02 -0.15334269639E+02  0.19491837663E+02  0.62970627484E+02  0.10000000000E+01 0.  0.
    9000005    1    3    3    0    0 -0.57872518218E+02  0.15334269639E+02 -0.16326968850E+02  0.62063983937E+02  0.10000000000E+01 0.  0.
<mgrwt>
<rscale>  0 0.12499455E+03</rscale>
<asrwt>0</asrwt>
<pdfrwt beam="1">  1        4 0.98614985E-02 0.12499455E+03</pdfrwt>
<pdfrwt beam="2">  1       -4 0.93745956E-02 0.12499455E+03</pdfrwt>
<totfact> 0.10453398E+04</totfact>
</mgrwt>
</event>
<event>
 5    1  0.3317939E-002  0.1250101E+03  0.7818608E-02  0.1235053E+00
         -4   -1    0    0    0  501 -0.00000000000E+00  0.00000000000E+00  0.63235439001E+02  0.63248190849E+02  0.12700000000E+01 0. -1.
          4   -1    0    0  501    0  0.00000000000E+00 -0.00000000000E+00 -0.61757608319E+02  0.61770665249E+02  0.12700000000E+01 0. -1.
         25    2    1    2    0    0  0.00000000000E+00  0.00000000000E+00  0.14778306827E+01  0.12501885610E+03  0.12501012118E+03 0.  0.
    9000005    1    3    3    0    0  0.32940636777E+02 -0.47837994102E+02 -0.22334830812E+02  0.62236676473E+02  0.10000000000E+01 0.  0.
    9000005    1    3    3    0    0 -0.32940636777E+02  0.47837994102E+02  0.23812661494E+02  0.62782179625E+02  0.10000000000E+01 0.  0.
<mgrwt>
<rscale>  0 0.12501012E+03</rscale>
<asrwt>0</asrwt>
<pdfrwt beam="2">  1        4 0.95031558E-02 0.12501012E+03</pdfrwt>
<pdfrwt beam="1">  1       -4 0.97305144E-02 0.12501012E+03</pdfrwt>
<totfact> 0.10450062E+04</totfact>
</mgrwt>
</event>
<event>
 5    1  0.3317939E-002  0.1249999E+03  0.7818608E-02  0.1235069E+00
          4   -1    0    0  501    0  0.00000000000E+00  0.00000000000E+00  0.15516316460E+03  0.15516836194E+03  0.12700000000E+01 0.  1.
         -4   -1    0    0    0  501 -0.00000000000E+00 -0.00000000000E+00 -0.25153432936E+02  0.25185473759E+02  0.12700000000E+01 0.  1.
         25    2    1    2    0    0  0.00000000000E+00  0.00000000000E+00  0.13000973166E+03  0.18035383570E+03  0.12499990290E+03 0.  0.
    9000005    1    3    3    0    0 -0.51122504323E+02  0.28398805216E+02  0.96787845250E+02  0.11308797272E+03  0.10000000000E+01 0.  0.
    9000005    1    3    3    0    0  0.51122504323E+02 -0.28398805216E+02  0.33221886414E+02  0.67265862983E+02  0.10000000000E+01 0.  0.
<mgrwt>
<rscale>  0 0.12499990E+03</rscale>
<asrwt>0</asrwt>
<pdfrwt beam="1">  1        4 0.23874121E-01 0.12499990E+03</pdfrwt>
<pdfrwt beam="2">  1       -4 0.38726232E-02 0.12499990E+03</pdfrwt>
<totfact> 0.93553553E+03</totfact>
</mgrwt>
</event>
<event>
 5    1  0.3317939E-002  0.1249994E+03  0.7818608E-02  0.1235070E+00
          4   -1    0    0  501    0  0.00000000000E+00  0.00000000000E+00  0.73887357315E+02  0.73898271096E+02  0.12700000000E+01 0. -1.
         -4   -1    0    0    0  501 -0.00000000000E+00 -0.00000000000E+00 -0.52844681498E+02  0.52859940055E+02  0.12700000000E+01 0. -1.
         25    2    1    2    0    0  0.00000000000E+00  0.00000000000E+00  0.21042675817E+02  0.12675821115E+03  0.12499939955E+03 0.  0.
    9000005    1    3    3    0    0  0.33274133554E+02  0.51345434149E+02 -0.23733538399E+01  0.61238504066E+02  0.10000000000E+01 0.  0.
    9000005    1    3    3    0    0 -0.33274133554E+02 -0.51345434149E+02  0.23416029657E+02  0.65519707086E+02  0.10000000000E+01 0.  0.
<mgrwt>
<rscale>  0 0.12499940E+03</rscale>
<asrwt>0</asrwt>
<pdfrwt beam="1">  1        4 0.11369299E-01 0.12499940E+03</pdfrwt>
<pdfrwt beam="2">  1       -4 0.81319643E-02 0.12499940E+03</pdfrwt>
<totfact> 0.10414544E+04</totfact>
</mgrwt>
</event>
<event>
 5    1  0.3317939E-002  0.1250033E+03  0.7818608E-02  0.1235064E+00
          4   -1    0    0  501    0  0.00000000000E+00  0.00000000000E+00  0.74777786910E+01  0.75848582157E+01  0.12700000000E+01 0.  1.
         -4   -1    0    0    0  501 -0.00000000000E+00 -0.00000000000E+00 -0.51858726349E+03  0.51858881858E+03  0.12700000000E+01 0.  1.
         25    2    1    2    0    0  0.00000000000E+00  0.00000000000E+00 -0.51110948480E+03  0.52617367680E+03  0.12500333075E+03 0.  0.
    9000005    1    3    3    0    0 -0.54324859804E+02 -0.36918553253E+01 -0.12645695795E+03  0.13768508417E+03  0.10000000000E+01 0.  0.
    9000005    1    3    3    0    0  0.54324859804E+02  0.36918553253E+01 -0.38465252686E+03  0.38848859263E+03  0.10000000000E+01 0.  0.
<mgrwt>
<rscale>  0 0.12500333E+03</rscale>
<asrwt>0</asrwt>
<pdfrwt beam="1">  1        4 0.11587844E-02 0.12500333E+03</pdfrwt>
<pdfrwt beam="2">  1       -4 0.79790984E-01 0.12500333E+03</pdfrwt>
<totfact> 0.53885368E+03</totfact>
</mgrwt>
</event>
<event>
 5    1  0.3317939E-002  0.1250000E+03  0.7818608E-02  0.1235069E+00
         -4   -1    0    0    0  501 -0.00000000000E+00  0.00000000000E+00  0.12332048396E+03  0.12332702325E+03  0.12700000000E+01 0.  1.
          4   -1    0    0  501    0  0.00000000000E+00 -0.00000000000E+00 -0.31655493899E+02  0.31680959487E+02  0.12700000000E+01 0.  1.
         25    2    1    2    0    0  0.00000000000E+00  0.00000000000E+00  0.91664990056E+02  0.15500798273E+03  0.12500001724E+03 0.  0.
    9000005    1    3    3    0    0  0.60969361937E+02 -0.60353238946E+01  0.61099026243E+02  0.86531955007E+02  0.10000000000E+01 0.  0.
    9000005    1    3    3    0    0 -0.60969361937E+02  0.60353238946E+01  0.30565963813E+02  0.68476027727E+02  0.10000000000E+01 0.  0.
<mgrwt>
<rscale>  0 0.12500002E+03</rscale>
<asrwt>0</asrwt>
<pdfrwt beam="2">  1        4 0.48725379E-02 0.12500002E+03</pdfrwt>
<pdfrwt beam="1">  1       -4 0.18974844E-01 0.12500002E+03</pdfrwt>
<totfact> 0.98313894E+03</totfact>
</mgrwt>
</event>
<event>
 5    1  0.3317939E-002  0.1250005E+03  0.7818608E-02  0.1235068E+00
         -4   -1    0    0    0  501 -0.00000000000E+00  0.00000000000E+00  0.56625809891E+02  0.56640049839E+02  0.12700000000E+01 0.  1.
          4   -1    0    0  501    0  0.00000000000E+00 -0.00000000000E+00 -0.68955367277E+02  0.68967061532E+02  0.12700000000E+01 0.  1.
         25    2    1    2    0    0  0.00000000000E+00  0.00000000000E+00 -0.12329557387E+02  0.12560711137E+03  0.12500051377E+03 0.  0.
    9000005    1    3    3    0    0 -0.43607904642E+02 -0.10091824396E+02 -0.49985897718E+02  0.67105023937E+02  0.10000000000E+01 0.  0.
    9000005    1    3    3    0    0  0.43607904642E+02  0.10091824396E+02  0.37656340331E+02  0.58502087434E+02  0.10000000000E+01 0.  0.
<mgrwt>
<rscale>  0 0.12500051E+03</rscale>
<asrwt>0</asrwt>
<pdfrwt beam="2">  1        4 0.10610513E-01 0.12500051E+03</pdfrwt>
<pdfrwt beam="1">  1       -4 0.87136580E-02 0.12500051E+03</pdfrwt>
<totfact> 0.10439469E+04</totfact>
</mgrwt>
</event>
<event>
 5    1  0.3317939E-002  0.1250063E+03  0.7818608E-02  0.1235059E+00
         -4   -1    0    0    0  501 -0.00000000000E+00  0.00000000000E+00  0.90518111832E+02  0.90527020661E+02  0.12700000000E+01 0. -1.
          4   -1    0    0  501    0  0.00000000000E+00 -0.00000000000E+00 -0.43138305789E+02  0.43156996262E+02  0.12700000000E+01 0. -1.
         25    2    1    2    0    0  0.00000000000E+00  0.00000000000E+00  0.47379806043E+02  0.13368401692E+03  0.12500628128E+03 0.  0.
    9000005    1    3    3    0    0 -0.68325693182E+01 -0.61955983067E+02  0.18857983745E+02  0.65129497097E+02  0.10000000000E+01 0.  0.
    9000005    1    3    3    0    0  0.68325693182E+01  0.61955983067E+02  0.28521822299E+02  0.68554519825E+02  0.10000000000E+01 0.  0.
<mgrwt>
<rscale>  0 0.12500628E+03</rscale>
<asrwt>0</asrwt>
<pdfrwt beam="2">  1        4 0.66387856E-02 0.12500628E+03</pdfrwt>
<pdfrwt beam="1">  1       -4 0.13927986E-01 0.12500628E+03</pdfrwt>
<totfact> 0.10264429E+04</totfact>
</mgrwt>
</event>
<event>
 5    1  0.3317939E-002  0.1250008E+03  0.7818608E-02  0.1235068E+00
         -4   -1    0    0    0  501 -0.00000000000E+00  0.00000000000E+00  0.79203627174E+02  0.79213808503E+02  0.12700000000E+01 0.  1.
          4   -1    0    0  501    0  0.00000000000E+00 -0.00000000000E+00 -0.49298214781E+02  0.49314570672E+02  0.12700000000E+01 0.  1.
         25    2    1    2    0    0  0.00000000000E+00  0.00000000000E+00  0.29905412393E+02  0.12852837918E+03  0.12500084225E+03 0.  0.
    9000005    1    3    3    0    0 -0.19576473874E+02 -0.20088158717E+02 -0.42467013488E+02  0.50904024247E+02  0.10000000000E+01 0.  0.
    9000005    1    3    3    0    0  0.19576473874E+02  0.20088158717E+02  0.72372425882E+02  0.77624354928E+02  0.10000000000E+01 0.  0.
<mgrwt>
<rscale>  0 0.12500084E+03</rscale>
<asrwt>0</asrwt>
<pdfrwt beam="2">  1        4 0.75863822E-02 0.12500084E+03</pdfrwt>
<pdfrwt beam="1">  1       -4 0.12187214E-01 0.12500084E+03</pdfrwt>
<totfact> 0.10375895E+04</totfact>
</mgrwt>
</event>
<event>
 5    1  0.3317939E-002  0.1249981E+03  0.7818608E-02  0.1235072E+00
          4   -1    0    0  501    0  0.00000000000E+00  0.00000000000E+00  0.11032297844E+03  0.11033028810E+03  0.12700000000E+01 0. -1.
         -4   -1    0    0    0  501 -0.00000000000E+00 -0.00000000000E+00 -0.35386442290E+02  0.35409224758E+02  0.12700000000E+01 0. -1.
         25    2    1    2    0    0  0.00000000000E+00  0.00000000000E+00  0.74936536147E+02  0.14573951285E+03  0.12499808461E+03 0.  0.
    9000005    1    3    3    0    0  0.13962742544E+01 -0.62369029496E+02  0.41717912210E+02  0.75054844089E+02  0.10000000000E+01 0.  0.
    9000005    1    3    3    0    0 -0.13962742544E+01  0.62369029496E+02  0.33218623938E+02  0.70684668765E+02  0.10000000000E+01 0.  0.
<mgrwt>
<rscale>  0 0.12499808E+03</rscale>
<asrwt>0</asrwt>
<pdfrwt beam="1">  1        4 0.16975080E-01 0.12499808E+03</pdfrwt>
<pdfrwt beam="2">  1       -4 0.54463830E-02 0.12499808E+03</pdfrwt>
<totfact> 0.10016417E+04</totfact>
</mgrwt>
</event>
<event>
 5    1  0.3317939E-002  0.1249980E+03  0.7818608E-02  0.1235072E+00
          4   -1    0    0  501    0  0.00000000000E+00  0.00000000000E+00  0.33216844484E+01  0.35561900363E+01  0.12700000000E+01 0. -1.
         -4   -1    0    0    0  501 -0.00000000000E+00 -0.00000000000E+00 -0.11356174741E+04  0.11356181842E+04  0.12700000000E+01 0. -1.
         25    2    1    2    0    0  0.00000000000E+00  0.00000000000E+00 -0.11322957896E+04  0.11391743743E+04  0.12499799898E+03 0.  0.
    9000005    1    3    3    0    0  0.35833281441E+02  0.18385051367E+02 -0.10016083627E+04  0.10024182493E+04  0.10000000000E+01 0.  0.
    9000005    1    3    3    0    0 -0.35833281441E+02 -0.18385051367E+02 -0.13068742691E+03  0.13675612500E+03  0.10000000000E+01 0.  0.
<mgrwt>
<rscale>  0 0.12499800E+03</rscale>
<asrwt>0</asrwt>
<pdfrwt beam="1">  1        4 0.52912280E-03 0.12499800E+03</pdfrwt>
<pdfrwt beam="2">  1       -4 0.17472818E+00 0.12499800E+03</pdfrwt>
<totfact> 0.26363727E+03</totfact>
</mgrwt>
</event>
<event>
 5    1  0.3317939E-002  0.1249969E+03  0.7818608E-02  0.1235074E+00
          4   -1    0    0  501    0  0.00000000000E+00  0.00000000000E+00  0.90086277482E+01  0.90977070686E+01  0.12700000000E+01 0. -1.
         -4   -1    0    0    0  501 -0.00000000000E+00 -0.00000000000E+00 -0.43136767492E+03  0.43136954443E+03  0.12700000000E+01 0. -1.
         25    2    1    2    0    0  0.00000000000E+00  0.00000000000E+00 -0.42235904717E+03  0.44046725150E+03  0.12499693964E+03 0.  0.
    9000005    1    3    3    0    0  0.65972218306E+01 -0.40122035724E+02 -0.37839445963E+03  0.38057412966E+03  0.10000000000E+01 0.  0.
    9000005    1    3    3    0    0 -0.65972218306E+01  0.40122035724E+02 -0.43964587537E+02  0.59893121840E+02  0.10000000000E+01 0.  0.
<mgrwt>
<rscale>  0 0.12499694E+03</rscale>
<asrwt>0</asrwt>
<pdfrwt beam="1">  1        4 0.13929391E-02 0.12499694E+03</pdfrwt>
<pdfrwt beam="2">  1       -4 0.66371238E-01 0.12499694E+03</pdfrwt>
<totfact> 0.60802633E+03</totfact>
</mgrwt>
</event>
<event>
 5    1  0.3317939E-002  0.1249992E+03  0.7818608E-02  0.1235071E+00
          4   -1    0    0  501    0  0.00000000000E+00  0.00000000000E+00  0.22500982900E+03  0.22501341304E+03  0.12700000000E+01 0. -1.
         -4   -1    0    0    0  501 -0.00000000000E+00 -0.00000000000E+00 -0.17333172030E+02  0.17379636148E+02  0.12700000000E+01 0. -1.
         25    2    1    2    0    0  0.00000000000E+00  0.00000000000E+00  0.20767665697E+03  0.24239304919E+03  0.12499918577E+03 0.  0.
    9000005    1    3    3    0    0  0.58248420853E+02 -0.22448101475E+02  0.10945964973E+03  0.12601274027E+03  0.10000000000E+01 0.  0.
    9000005    1    3    3    0    0 -0.58248420853E+02  0.22448101475E+02  0.98217007247E+02  0.11638030892E+03  0.10000000000E+01 0.  0.
<mgrwt>
<rscale>  0 0.12499919E+03</rscale>
<asrwt>0</asrwt>
<pdfrwt beam="1">  1        4 0.34620742E-01 0.12499919E+03</pdfrwt>
<pdfrwt beam="2">  1       -4 0.26704921E-02 0.12499919E+03</pdfrwt>
<totfact> 0.83443769E+03</totfact>
</mgrwt>
</event>
<event>
 5    1  0.3317939E-002  0.1249999E+03  0.7818608E-02  0.1235069E+00
          4   -1    0    0  501    0  0.00000000000E+00  0.00000000000E+00  0.13579865618E+03  0.13580459462E+03  0.12700000000E+01 0. -1.
         -4   -1    0    0    0  501 -0.00000000000E+00 -0.00000000000E+00 -0.28744383578E+02  0.28772425815E+02  0.12700000000E+01 0. -1.
         25    2    1    2    0    0  0.00000000000E+00  0.00000000000E+00  0.10705427260E+03  0.16457702044E+03  0.12499991349E+03 0.  0.
    9000005    1    3    3    0    0  0.40117487305E+02 -0.21579673641E+02  0.10985233931E+03  0.11892700095E+03  0.10000000000E+01 0.  0.
    9000005    1    3    3    0    0 -0.40117487305E+02  0.21579673641E+02 -0.27980667092E+01  0.45650019490E+02  0.10000000000E+01 0.  0.
<mgrwt>
<rscale>  0 0.12499991E+03</rscale>
<asrwt>0</asrwt>
<pdfrwt beam="1">  1        4 0.20894715E-01 0.12499991E+03</pdfrwt>
<pdfrwt beam="2">  1       -4 0.44248267E-02 0.12499991E+03</pdfrwt>
<totfact> 0.96467745E+03</totfact>
</mgrwt>
</event>
<event>
 5    1  0.3317939E-002  0.1250006E+03  0.7818608E-02  0.1235068E+00
         -4   -1    0    0    0  501 -0.00000000000E+00  0.00000000000E+00  0.21132126781E+03  0.21132508400E+03  0.12700000000E+01 0. -1.
          4   -1    0    0  501    0  0.00000000000E+00 -0.00000000000E+00 -0.18459260254E+02  0.18502896777E+02  0.12700000000E+01 0. -1.
         25    2    1    2    0    0  0.00000000000E+00  0.00000000000E+00  0.19286200756E+03  0.22982798078E+03  0.12500058716E+03 0.  0.
    9000005    1    3    3    0    0  0.41574441480E+01  0.10144141116E+02  0.20954841464E+03  0.20983737994E+03  0.10000000000E+01 0.  0.
    9000005    1    3    3    0    0 -0.41574441480E+01 -0.10144141116E+02 -0.16686407082E+02  0.19990600844E+02  0.10000000000E+01 0.  0.
<mgrwt>
<rscale>  0 0.12500059E+03</rscale>
<asrwt>0</asrwt>
<pdfrwt beam="2">  1        4 0.28435363E-02 0.12500059E+03</pdfrwt>
<pdfrwt beam="1">  1       -4 0.32514616E-01 0.12500059E+03</pdfrwt>
<totfact> 0.85334897E+03</totfact>
</mgrwt>
</event>
<event>
 5    1  0.3317939E-002  0.1249978E+03  0.7818608E-02  0.1235073E+00
         -4   -1    0    0    0  501 -0.00000000000E+00  0.00000000000E+00  0.19298293773E+03  0.19298711655E+03  0.12700000000E+01 0. -1.
          4   -1    0    0  501    0  0.00000000000E+00 -0.00000000000E+00 -0.20216396807E+02  0.20256248415E+02  0.12700000000E+01 0. -1.
         25    2    1    2    0    0  0.00000000000E+00  0.00000000000E+00  0.17276654093E+03  0.21324336497E+03  0.12499782014E+03 0.  0.
    9000005    1    3    3    0    0 -0.59491125513E+02  0.11321704074E+02  0.11268734862E+03  0.12793284777E+03  0.10000000000E+01 0.  0.
    9000005    1    3    3    0    0  0.59491125513E+02 -0.11321704074E+02  0.60079192304E+02  0.85310517205E+02  0.10000000000E+01 0.  0.
<mgrwt>
<rscale>  0 0.12499782E+03</rscale>
<asrwt>0</asrwt>
<pdfrwt beam="2">  1        4 0.31136019E-02 0.12499782E+03</pdfrwt>
<pdfrwt beam="1">  1       -4 0.29693069E-01 0.12499782E+03</pdfrwt>
<totfact> 0.87953206E+03</totfact>
</mgrwt>
</event>
<event>
 5    1  0.3317939E-002  0.1249996E+03  0.7818608E-02  0.1235070E+00
         -4   -1    0    0    0  501 -0.00000000000E+00  0.00000000000E+00  0.10375058929E+02  0.10452499594E+02  0.12700000000E+01 0.  1.
          4   -1    0    0  501    0  0.00000000000E+00 -0.00000000000E+00 -0.37502291446E+03  0.37502506486E+03  0.12700000000E+01 0.  1.
         25    2    1    2    0    0  0.00000000000E+00  0.00000000000E+00 -0.36464785553E+03  0.38547756445E+03  0.12499957660E+03 0.  0.
    9000005    1    3    3    0    0  0.14302799101E+02  0.48265467242E+02 -0.68134778762E+02  0.84719970888E+02  0.10000000000E+01 0.  0.
    9000005    1    3    3    0    0 -0.14302799101E+02 -0.48265467242E+02 -0.29651307677E+03  0.30075759356E+03  0.10000000000E+01 0.  0.
<mgrwt>
<rscale>  0 0.12499958E+03</rscale>
<asrwt>0</asrwt>
<pdfrwt beam="2">  1        4 0.57701945E-01 0.12499958E+03</pdfrwt>
<pdfrwt beam="1">  1       -4 0.16022856E-02 0.12499958E+03</pdfrwt>
<totfact> 0.65990785E+03</totfact>
</mgrwt>
</event>
<event>
 5    1  0.3317939E-002  0.1249995E+03  0.7818608E-02  0.1235070E+00
          4   -1    0    0  501    0  0.00000000000E+00  0.00000000000E+00  0.17145387556E+02  0.17192359188E+02  0.12700000000E+01 0.  1.
         -4   -1    0    0    0  501 -0.00000000000E+00 -0.00000000000E+00 -0.22746867906E+03  0.22747222436E+03  0.12700000000E+01 0.  1.
         25    2    1    2    0    0  0.00000000000E+00  0.00000000000E+00 -0.21032329151E+03  0.24466458355E+03  0.12499948597E+03 0.  0.
    9000005    1    3    3    0    0 -0.59596027367E+02  0.30886622261E+01 -0.14146416585E+03  0.15353936476E+03  0.10000000000E+01 0.  0.
    9000005    1    3    3    0    0  0.59596027367E+02 -0.30886622261E+01 -0.68859125661E+02  0.91125218788E+02  0.10000000000E+01 0.  0.
<mgrwt>
<rscale>  0 0.12499949E+03</rscale>
<asrwt>0</asrwt>
<pdfrwt beam="1">  1        4 0.26416380E-02 0.12499949E+03</pdfrwt>
<pdfrwt beam="2">  1       -4 0.34999065E-01 0.12499949E+03</pdfrwt>
<totfact> 0.83108481E+03</totfact>
</mgrwt>
</event>
<event>
 5    1  0.3317939E-002  0.1249981E+03  0.7818608E-02  0.1235072E+00
         -4   -1    0    0    0  501 -0.00000000000E+00  0.00000000000E+00  0.16215409667E+04  0.16215414641E+04  0.12700000000E+01 0.  1.
          4   -1    0    0  501    0  0.00000000000E+00 -0.00000000000E+00 -0.22409790932E+01  0.25758274973E+01  0.12700000000E+01 0.  1.
         25    2    1    2    0    0  0.00000000000E+00  0.00000000000E+00  0.16192999876E+04  0.16241172916E+04  0.12499810716E+03 0.  0.
    9000005    1    3    3    0    0 -0.52449561280E+02 -0.28513619676E+02  0.10496359468E+04  0.10513327750E+04  0.10000000000E+01 0.  0.
    9000005    1    3    3    0    0  0.52449561280E+02  0.28513619676E+02  0.56966404081E+03  0.57278451653E+03  0.10000000000E+01 0.  0.
<mgrwt>
<rscale>  0 0.12499811E+03</rscale>
<asrwt>0</asrwt>
<pdfrwt beam="2">  1        4 0.37056134E-03 0.12499811E+03</pdfrwt>
<pdfrwt beam="1">  1       -4 0.24949398E+00 0.12499811E+03</pdfrwt>
<totfact> 0.15614684E+03</totfact>
</mgrwt>
</event>
<event>
 5    1  0.3317939E-002  0.1250028E+03  0.7818608E-02  0.1235065E+00
          4   -1    0    0  501    0  0.00000000000E+00  0.00000000000E+00  0.30439691496E+02  0.30466173346E+02  0.12700000000E+01 0. -1.
         -4   -1    0    0    0  501 -0.00000000000E+00 -0.00000000000E+00 -0.12824774824E+03  0.12825403630E+03  0.12700000000E+01 0. -1.
         25    2    1    2    0    0  0.00000000000E+00  0.00000000000E+00 -0.97808056739E+02  0.15872020965E+03  0.12500275592E+03 0.  0.
    9000005    1    3    3    0    0 -0.26505212548E+02  0.16589494028E+02 -0.11760688383E+03  0.12169682300E+03  0.10000000000E+01 0.  0.
    9000005    1    3    3    0    0  0.26505212548E+02 -0.16589494028E+02  0.19798827093E+02  0.37023386643E+02  0.10000000000E+01 0.  0.
<mgrwt>
<rscale>  0 0.12500276E+03</rscale>
<asrwt>0</asrwt>
<pdfrwt beam="1">  1        4 0.46855503E-02 0.12500276E+03</pdfrwt>
<pdfrwt beam="2">  1       -4 0.19732943E-01 0.12500276E+03</pdfrwt>
<totfact> 0.97584041E+03</totfact>
</mgrwt>
</event>
<event>
 5    1  0.3317939E-002  0.1250019E+03  0.7818608E-02  0.1235066E+00
         -4   -1    0    0    0  501 -0.00000000000E+00  0.00000000000E+00  0.28383880136E+02  0.28412278183E+02  0.12700000000E+01 0.  1.
          4   -1    0    0  501    0  0.00000000000E+00 -0.00000000000E+00 -0.13752608276E+03  0.13753194661E+03  0.12700000000E+01 0.  1.
         25    2    1    2    0    0  0.00000000000E+00  0.00000000000E+00 -0.10914220262E+03  0.16594422480E+03  0.12500186139E+03 0.  0.
    9000005    1    3    3    0    0  0.55592795881E+02 -0.83109400143E+00 -0.92449271009E+02  0.10788474119E+03  0.10000000000E+01 0.  0.
    9000005    1    3    3    0    0 -0.55592795881E+02  0.83109400143E+00 -0.16692931616E+02  0.58059483609E+02  0.10000000000E+01 0.  0.
<mgrwt>
<rscale>  0 0.12500186E+03</rscale>
<asrwt>0</asrwt>
<pdfrwt beam="2">  1        4 0.21160494E-01 0.12500186E+03</pdfrwt>
<pdfrwt beam="1">  1       -4 0.43693864E-02 0.12500186E+03</pdfrwt>
<totfact> 0.96204847E+03</totfact>
</mgrwt>
</event>
<event>
 5    1  0.3317939E-002  0.1250005E+03  0.7818608E-02  0.1235069E+00
         -4   -1    0    0    0  501 -0.00000000000E+00  0.00000000000E+00  0.69246948392E+02  0.69258593413E+02  0.12700000000E+01 0.  1.
          4   -1    0    0  501    0  0.00000000000E+00 -0.00000000000E+00 -0.56387308611E+02  0.56401608775E+02  0.12700000000E+01 0.  1.
         25    2    1    2    0    0  0.00000000000E+00  0.00000000000E+00  0.12859639781E+02  0.12566020219E+03  0.12500046431E+03 0.  0.
    9000005    1    3    3    0    0  0.61718940601E+02 -0.62002209406E+01  0.14059915519E+02  0.63610939256E+02  0.10000000000E+01 0.  0.
    9000005    1    3    3    0    0 -0.61718940601E+02  0.62002209406E+01 -0.12002757381E+01  0.62049262932E+02  0.10000000000E+01 0.  0.
<mgrwt>
<rscale>  0 0.12500046E+03</rscale>
<asrwt>0</asrwt>
<pdfrwt beam="2">  1        4 0.86769664E-02 0.12500046E+03</pdfrwt>
<pdfrwt beam="1">  1       -4 0.10655372E-01 0.12500046E+03</pdfrwt>
<totfact> 0.10438311E+04</totfact>
</mgrwt>
</event>
<event>
 5    1  0.3317939E-002  0.1249975E+03  0.7818608E-02  0.1235073E+00
         -4   -1    0    0    0  501 -0.00000000000E+00  0.00000000000E+00  0.23724230610E+02  0.23758198965E+02  0.12700000000E+01 0. -1.
          4   -1    0    0  501    0  0.00000000000E+00 -0.00000000000E+00 -0.16449159700E+03  0.16449649961E+03  0.12700000000E+01 0. -1.
         25    2    1    2    0    0  0.00000000000E+00  0.00000000000E+00 -0.14076736639E+03  0.18825469858E+03  0.12499752036E+03 0.  0.
    9000005    1    3    3    0    0 -0.34990234955E+02  0.36766910834E+02 -0.12528749087E+03  0.13518164684E+03  0.10000000000E+01 0.  0.
    9000005    1    3    3    0    0  0.34990234955E+02 -0.36766910834E+02 -0.15479875527E+02  0.53073051739E+02  0.10000000000E+01 0.  0.
<mgrwt>
<rscale>  0 0.12499752E+03</rscale>
<asrwt>0</asrwt>
<pdfrwt beam="2">  1        4 0.25309389E-01 0.12499752E+03</pdfrwt>
<pdfrwt beam="1">  1       -4 0.36528718E-02 0.12499752E+03</pdfrwt>
<totfact> 0.92157001E+03</totfact>
</mgrwt>
</event>
<event>
 5    1  0.3317939E-002  0.1250013E+03  0.7818608E-02  0.1235067E+00
         -4   -1    0    0    0  501 -0.00000000000E+00  0.00000000000E+00  0.99822017316E+02  0.99830095868E+02  0.12700000000E+01 0. -1.
          4   -1    0    0  501    0  0.00000000000E+00 -0.00000000000E+00 -0.39112995133E+02  0.39133608169E+02  0.12700000000E+01 0. -1.
         25    2    1    2    0    0  0.00000000000E+00  0.00000000000E+00  0.60709022183E+02  0.13896370404E+03  0.12500130265E+03 0.  0.
    9000005    1    3    3    0    0  0.51770493516E+02  0.28180657595E+02  0.72751146389E+01  0.59399164593E+02  0.10000000000E+01 0.  0.
    9000005    1    3    3    0    0 -0.51770493516E+02 -0.28180657595E+02  0.53433907544E+02  0.79564539443E+02  0.10000000000E+01 0.  0.
<mgrwt>
<rscale>  0 0.12500130E+03</rscale>
<asrwt>0</asrwt>
<pdfrwt beam="2">  1        4 0.60195909E-02 0.12500130E+03</pdfrwt>
<pdfrwt beam="1">  1       -4 0.15359440E-01 0.12500130E+03</pdfrwt>
<totfact> 0.10154811E+04</totfact>
</mgrwt>
</event>
<event>
 5    1  0.3317939E-002  0.1249960E+03  0.7818608E-02  0.1235076E+00
         -4   -1    0    0    0  501 -0.00000000000E+00  0.00000000000E+00  0.11812639492E+04  0.11812646319E+04  0.12700000000E+01 0.  1.
          4   -1    0    0  501    0  0.00000000000E+00 -0.00000000000E+00 -0.31839748033E+01  0.34279141688E+01  0.12700000000E+01 0.  1.
         25    2    1    2    0    0  0.00000000000E+00  0.00000000000E+00  0.11780799744E+04  0.11846925461E+04  0.12499601049E+03 0.  0.
    9000005    1    3    3    0    0 -0.61599152250E+01  0.93645377451E+01  0.11717047085E+04  0.11717587478E+04  0.10000000000E+01 0.  0.
    9000005    1    3    3    0    0  0.61599152250E+01 -0.93645377451E+01  0.63752659206E+01  0.12933798294E+02  0.10000000000E+01 0.  0.
<mgrwt>
<rscale>  0 0.12499601E+03</rscale>
<asrwt>0</asrwt>
<pdfrwt beam="2">  1        4 0.50865929E-03 0.12499601E+03</pdfrwt>
<pdfrwt beam="1">  1       -4 0.18175176E+00 0.12499601E+03</pdfrwt>
<totfact> 0.25119154E+03</totfact>
</mgrwt>
</event>
<event>
 5    1  0.3317939E-002  0.1250015E+03  0.7818608E-02  0.1235067E+00
          4   -1    0    0  501    0  0.00000000000E+00  0.00000000000E+00  0.30683119041E+01  0.33207586393E+01  0.12700000000E+01 0. -1.
         -4   -1    0    0    0  501 -0.00000000000E+00 -0.00000000000E+00 -0.12225672243E+04  0.12225678839E+04  0.12700000000E+01 0. -1.
         25    2    1    2    0    0  0.00000000000E+00  0.00000000000E+00 -0.12194989124E+04  0.12258886426E+04  0.12500146664E+03 0.  0.
    9000005    1    3    3    0    0 -0.16660364033E+02 -0.59997889875E+02 -0.55783057178E+03  0.56129605497E+03  0.10000000000E+01 0.  0.
    9000005    1    3    3    0    0  0.16660364033E+02  0.59997889875E+02 -0.66166834063E+03  0.66459258761E+03  0.10000000000E+01 0.  0.
<mgrwt>
<rscale>  0 0.12500147E+03</rscale>
<asrwt>0</asrwt>
<pdfrwt beam="1">  1        4 0.49151868E-03 0.12500147E+03</pdfrwt>
<pdfrwt beam="2">  1       -4 0.18810636E+00 0.12500147E+03</pdfrwt>
<totfact> 0.24044295E+03</totfact>
</mgrwt>
</event>
<event>
 5    1  0.3317939E-002  0.1250012E+03  0.7818608E-02  0.1235067E+00
         -4   -1    0    0    0  501 -0.00000000000E+00  0.00000000000E+00  0.21171882494E+02  0.21209938904E+02  0.12700000000E+01 0.  1.
          4   -1    0    0  501    0  0.00000000000E+00 -0.00000000000E+00 -0.18429948064E+03  0.18430385635E+03  0.12700000000E+01 0.  1.
         25    2    1    2    0    0  0.00000000000E+00  0.00000000000E+00 -0.16312759815E+03  0.20551379525E+03  0.12500122704E+03 0.  0.
    9000005    1    3    3    0    0 -0.48541125490E+02  0.38993185232E+02 -0.72768689093E+02  0.95775735292E+02  0.10000000000E+01 0.  0.
    9000005    1    3    3    0    0  0.48541125490E+02 -0.38993185232E+02 -0.90358909055E+02  0.10973805996E+03  0.10000000000E+01 0.  0.
<mgrwt>
<rscale>  0 0.12500123E+03</rscale>
<asrwt>0</asrwt>
<pdfrwt beam="2">  1        4 0.28357029E-01 0.12500123E+03</pdfrwt>
<pdfrwt beam="1">  1       -4 0.32604768E-02 0.12500123E+03</pdfrwt>
<totfact> 0.89211370E+03</totfact>
</mgrwt>
</event>
<event>
 5    1  0.3317939E-002  0.1250073E+03  0.7818608E-02  0.1235058E+00
          4   -1    0    0  501    0  0.00000000000E+00  0.00000000000E+00  0.41002379985E+03  0.41002576668E+03  0.12700000000E+01 0. -1.
         -4   -1    0    0    0  501 -0.00000000000E+00 -0.00000000000E+00 -0.94836820814E+01  0.95683397631E+01  0.12700000000E+01 0. -1.
         25    2    1    2    0    0  0.00000000000E+00  0.00000000000E+00  0.40054011777E+03  0.41959410645E+03  0.12500731267E+03 0.  0.
    9000005    1    3    3    0    0 -0.62431249464E+02  0.12437368246E+01  0.20882714824E+03  0.21796556066E+03  0.10000000000E+01 0.  0.
    9000005    1    3    3    0    0  0.62431249464E+02 -0.12437368246E+01  0.19171296953E+03  0.20162854579E+03  0.10000000000E+01 0.  0.
<mgrwt>
<rscale>  0 0.12500731E+03</rscale>
<asrwt>0</asrwt>
<pdfrwt beam="1">  1        4 0.63087260E-01 0.12500731E+03</pdfrwt>
<pdfrwt beam="2">  1       -4 0.14656911E-02 0.12500731E+03</pdfrwt>
<totfact> 0.62680563E+03</totfact>
</mgrwt>
</event>
<event>
 5    1  0.3317939E-002  0.1249885E+03  0.7818608E-02  0.1235087E+00
          4   -1    0    0  501    0  0.00000000000E+00  0.00000000000E+00  0.18225014097E+02  0.18269210132E+02  0.12700000000E+01 0. -1.
         -4   -1    0    0    0  501 -0.00000000000E+00 -0.00000000000E+00 -0.21398939279E+03  0.21399316140E+03  0.12700000000E+01 0. -1.
         25    2    1    2    0    0  0.00000000000E+00  0.00000000000E+00 -0.19576437870E+03  0.23226237154E+03  0.12498846853E+03 0.  0.
    9000005    1    3    3    0    0  0.32404992684E+02  0.52671249994E+02 -0.11452229156E+03  0.13015644198E+03  0.10000000000E+01 0.  0.
    9000005    1    3    3    0    0 -0.32404992684E+02 -0.52671249994E+02 -0.81242087140E+02  0.10210592955E+03  0.10000000000E+01 0.  0.
<mgrwt>
<rscale>  0 0.12498847E+03</rscale>
<asrwt>0</asrwt>
<pdfrwt beam="1">  1        4 0.28075381E-02 0.12498847E+03</pdfrwt>
<pdfrwt beam="2">  1       -4 0.32925133E-01 0.12498847E+03</pdfrwt>
<totfact> 0.84985274E+03</totfact>
</mgrwt>
</event>
<event>
 5    1  0.3317939E-002  0.1250017E+03  0.7818608E-02  0.1235067E+00
          4   -1    0    0  501    0  0.00000000000E+00  0.00000000000E+00  0.29778916532E+02  0.29805985469E+02  0.12700000000E+01 0. -1.
         -4   -1    0    0    0  501 -0.00000000000E+00 -0.00000000000E+00 -0.13108889008E+03  0.13109504187E+03  0.12700000000E+01 0. -1.
         25    2    1    2    0    0  0.00000000000E+00  0.00000000000E+00 -0.10130997355E+03  0.16090102734E+03  0.12500171942E+03 0.  0.
    9000005    1    3    3    0    0  0.36658248367E+02 -0.50467075457E+02 -0.45735866347E+02  0.77353231019E+02  0.10000000000E+01 0.  0.
    9000005    1    3    3    0    0 -0.36658248367E+02  0.50467075457E+02 -0.55574107201E+02  0.83547796319E+02  0.10000000000E+01 0.  0.
<mgrwt>
<rscale>  0 0.12500172E+03</rscale>
<asrwt>0</asrwt>
<pdfrwt beam="1">  1        4 0.45839273E-02 0.12500172E+03</pdfrwt>
<pdfrwt beam="2">  1       -4 0.20170077E-01 0.12500172E+03</pdfrwt>
<totfact> 0.97165600E+03</totfact>
</mgrwt>
</event>
<event>
 5    1  0.3317939E-002  0.1249876E+03  0.7818608E-02  0.1235089E+00
         -4   -1    0    0    0  501 -0.00000000000E+00  0.00000000000E+00  0.34490461885E+03  0.34490695703E+03  0.12700000000E+01 0. -1.
          4   -1    0    0  501    0  0.00000000000E+00 -0.00000000000E+00 -0.11285358451E+02  0.11356593475E+02  0.12700000000E+01 0. -1.
         25    2    1    2    0    0  0.00000000000E+00  0.00000000000E+00  0.33361926040E+03  0.35626355050E+03  0.12498762541E+03 0.  0.
    9000005    1    3    3    0    0  0.57489081785E+02  0.23476751510E+02  0.14699495794E+03  0.15957653351E+03  0.10000000000E+01 0.  0.
    9000005    1    3    3    0    0 -0.57489081785E+02 -0.23476751510E+02  0.18662430246E+03  0.19668701700E+03  0.10000000000E+01 0.  0.
<mgrwt>
<rscale>  0 0.12498763E+03</rscale>
<asrwt>0</asrwt>
<pdfrwt beam="2">  1        4 0.17418685E-02 0.12498763E+03</pdfrwt>
<pdfrwt beam="1">  1       -4 0.53067908E-01 0.12498763E+03</pdfrwt>
<totfact> 0.69059844E+03</totfact>
</mgrwt>
</event>
<event>
 5    1  0.3317939E-002  0.1249996E+03  0.7818608E-02  0.1235070E+00
          4   -1    0    0  501    0  0.00000000000E+00  0.00000000000E+00  0.19623877249E+03  0.19624288198E+03  0.12700000000E+01 0. -1.
         -4   -1    0    0    0  501 -0.00000000000E+00 -0.00000000000E+00 -0.19880878326E+02  0.19921401131E+02  0.12700000000E+01 0. -1.
         25    2    1    2    0    0  0.00000000000E+00  0.00000000000E+00  0.17635789416E+03  0.21616428311E+03  0.12499956184E+03 0.  0.
    9000005    1    3    3    0    0  0.25643646528E+02 -0.15520886744E+02 -0.66459812616E+01  0.30719108052E+02  0.10000000000E+01 0.  0.
    9000005    1    3    3    0    0 -0.25643646528E+02  0.15520886744E+02  0.18300387543E+03  0.18544517506E+03  0.10000000000E+01 0.  0.
<mgrwt>
<rscale>  0 0.12499956E+03</rscale>
<asrwt>0</asrwt>
<pdfrwt beam="1">  1        4 0.30194013E-01 0.12499956E+03</pdfrwt>
<pdfrwt beam="2">  1       -4 0.30620300E-02 0.12499956E+03</pdfrwt>
<totfact> 0.87479821E+03</totfact>
</mgrwt>
</event>
<event>
 5    1  0.3317939E-002  0.1249867E+03  0.7818608E-02  0.1235090E+00
         -4   -1    0    0    0  501 -0.00000000000E+00  0.00000000000E+00  0.73159051397E+02  0.73170073810E+02  0.12700000000E+01 0.  1.
          4   -1    0    0  501    0  0.00000000000E+00 -0.00000000000E+00 -0.53359938875E+02  0.53375050134E+02  0.12700000000E+01 0.  1.
         25    2    1    2    0    0  0.00000000000E+00  0.00000000000E+00  0.19799112522E+02  0.12654512394E+03  0.12498665344E+03 0.  0.
    9000005    1    3    3    0    0  0.27068263176E+02  0.44679293321E+02  0.44612421486E+02  0.68703699128E+02  0.10000000000E+01 0.  0.
    9000005    1    3    3    0    0 -0.27068263176E+02 -0.44679293321E+02 -0.24813308963E+02  0.57841424816E+02  0.10000000000E+01 0.  0.
<mgrwt>
<rscale>  0 0.12498665E+03</rscale>
<asrwt>0</asrwt>
<pdfrwt beam="2">  1        4 0.82112317E-02 0.12498665E+03</pdfrwt>
<pdfrwt beam="1">  1       -4 0.11257249E-01 0.12498665E+03</pdfrwt>
<totfact> 0.10422184E+04</totfact>
</mgrwt>
</event>
<event>
 5    1  0.3317939E-002  0.1250003E+03  0.7818608E-02  0.1235069E+00
          4   -1    0    0  501    0  0.00000000000E+00  0.00000000000E+00  0.10418378861E+03  0.10419152897E+03  0.12700000000E+01 0.  1.
         -4   -1    0    0    0  501 -0.00000000000E+00 -0.00000000000E+00 -0.37474114797E+02  0.37495628810E+02  0.12700000000E+01 0.  1.
         25    2    1    2    0    0  0.00000000000E+00  0.00000000000E+00  0.66709673815E+02  0.14168715778E+03  0.12500028040E+03 0.  0.
    9000005    1    3    3    0    0  0.96581788184E+01 -0.59808687695E+02  0.15982094137E+02  0.62664079622E+02  0.10000000000E+01 0.  0.
    9000005    1    3    3    0    0 -0.96581788184E+01  0.59808687695E+02  0.50727579678E+02  0.79023078159E+02  0.10000000000E+01 0.  0.
<mgrwt>
<rscale>  0 0.12500028E+03</rscale>
<asrwt>0</asrwt>
<pdfrwt beam="1">  1        4 0.16030526E-01 0.12500028E+03</pdfrwt>
<pdfrwt beam="2">  1       -4 0.57674988E-02 0.12500028E+03</pdfrwt>
<totfact> 0.10098674E+04</totfact>
</mgrwt>
</event>
<event>
 5    1  0.3317939E-002  0.1250009E+03  0.7818608E-02  0.1235068E+00
          4   -1    0    0  501    0  0.00000000000E+00  0.00000000000E+00  0.20886055156E+02  0.20924631418E+02  0.12700000000E+01 0.  1.
         -4   -1    0    0    0  501 -0.00000000000E+00 -0.00000000000E+00 -0.18681622165E+03  0.18682053841E+03  0.12700000000E+01 0.  1.
         25    2    1    2    0    0  0.00000000000E+00  0.00000000000E+00 -0.16593016649E+03  0.20774516983E+03  0.12500094173E+03 0.  0.
    9000005    1    3    3    0    0 -0.51846249892E+02 -0.88898120967E+01 -0.13903576110E+03  0.14865734174E+03  0.10000000000E+01 0.  0.
    9000005    1    3    3    0    0  0.51846249892E+02  0.88898120967E+01 -0.26894405390E+02  0.59087828089E+02  0.10000000000E+01 0.  0.
<mgrwt>
<rscale>  0 0.12500094E+03</rscale>
<asrwt>0</asrwt>
<pdfrwt beam="1">  1        4 0.32165388E-02 0.12500094E+03</pdfrwt>
<pdfrwt beam="2">  1       -4 0.28744256E-01 0.12500094E+03</pdfrwt>
<totfact> 0.88843583E+03</totfact>
</mgrwt>
</event>
<event>
 5    1  0.3317939E-002  0.1250046E+03  0.7818608E-02  0.1235062E+00
          4   -1    0    0  501    0  0.00000000000E+00  0.00000000000E+00  0.30538075975E+03  0.30538340054E+03  0.12700000000E+01 0.  1.
         -4   -1    0    0    0  501 -0.00000000000E+00 -0.00000000000E+00 -0.12758122652E+02  0.12821177544E+02  0.12700000000E+01 0.  1.
         25    2    1    2    0    0  0.00000000000E+00  0.00000000000E+00  0.29262263710E+03  0.31820457808E+03  0.12500458300E+03 0.  0.
    9000005    1    3    3    0    0 -0.20071053773E+02  0.26303235465E+02  0.28126902979E+03  0.28321012432E+03  0.10000000000E+01 0.  0.
    9000005    1    3    3    0    0  0.20071053773E+02 -0.26303235465E+02  0.11353607304E+02  0.34994453765E+02  0.10000000000E+01 0.  0.
<mgrwt>
<rscale>  0 0.12500458E+03</rscale>
<asrwt>0</asrwt>
<pdfrwt beam="1">  1        4 0.46986707E-01 0.12500458E+03</pdfrwt>
<pdfrwt beam="2">  1       -4 0.19678417E-02 0.12500458E+03</pdfrwt>
<totfact> 0.73362722E+03</totfact>
</mgrwt>
</event>
<event>
 5    1  0.3317939E-002  0.1249983E+03  0.7818608E-02  0.1235072E+00
          4   -1    0    0  501    0  0.00000000000E+00  0.00000000000E+00  0.84551248358E+02  0.84560785823E+02  0.12700000000E+01 0. -1.
         -4   -1    0    0    0  501 -0.00000000000E+00 -0.00000000000E+00 -0.46177684093E+02  0.46195144856E+02  0.12700000000E+01 0. -1.
         25    2    1    2    0    0  0.00000000000E+00  0.00000000000E+00  0.38373564265E+02  0.13075593068E+03  0.12499833188E+03 0.  0.
    9000005    1    3    3    0    0  0.28127267050E+02 -0.53504848873E+02  0.35767226260E+02  0.70243907059E+02  0.10000000000E+01 0.  0.
    9000005    1    3    3    0    0 -0.28127267050E+02  0.53504848873E+02  0.26063380053E+01  0.60512023619E+02  0.10000000000E+01 0.  0.
<mgrwt>
<rscale>  0 0.12499833E+03</rscale>
<asrwt>0</asrwt>
<pdfrwt beam="1">  1        4 0.13009961E-01 0.12499833E+03</pdfrwt>
<pdfrwt beam="2">  1       -4 0.71063359E-02 0.12499833E+03</pdfrwt>
<totfact> 0.10328713E+04</totfact>
</mgrwt>
</event>
<event>
 5    1  0.3317939E-002  0.1250012E+03  0.7818608E-02  0.1235067E+00
         -4   -1    0    0    0  501 -0.00000000000E+00  0.00000000000E+00  0.32233579989E+02  0.32258589227E+02  0.12700000000E+01 0.  1.
          4   -1    0    0  501    0  0.00000000000E+00 -0.00000000000E+00 -0.12111265449E+03  0.12111931298E+03  0.12700000000E+01 0.  1.
         25    2    1    2    0    0  0.00000000000E+00  0.00000000000E+00 -0.88879074496E+02  0.15337790221E+03  0.12500116400E+03 0.  0.
    9000005    1    3    3    0    0  0.41134482474E+01  0.47113834562E+02 -0.94562464117E+02  0.10573406964E+03  0.10000000000E+01 0.  0.
    9000005    1    3    3    0    0 -0.41134482474E+01 -0.47113834562E+02  0.56833896215E+01  0.47643832562E+02  0.10000000000E+01 0.  0.
<mgrwt>
<rscale>  0 0.12500116E+03</rscale>
<asrwt>0</asrwt>
<pdfrwt beam="2">  1        4 0.18635152E-01 0.12500116E+03</pdfrwt>
<pdfrwt beam="1">  1       -4 0.49614484E-02 0.12500116E+03</pdfrwt>
<totfact> 0.98631993E+03</totfact>
</mgrwt>
</event>
<event>
 5    1  0.3317939E-002  0.1250000E+03  0.7818608E-02  0.1235069E+00
         -4   -1    0    0    0  501 -0.00000000000E+00  0.00000000000E+00  0.83698129508E+01  0.84656168607E+01  0.12700000000E+01 0. -1.
          4   -1    0    0  501    0  0.00000000000E+00 -0.00000000000E+00 -0.46395460466E+03  0.46395634287E+03  0.12700000000E+01 0. -1.
         25    2    1    2    0    0  0.00000000000E+00  0.00000000000E+00 -0.45558479171E+03  0.47242195973E+03  0.12500002238E+03 0.  0.
    9000005    1    3    3    0    0 -0.51316298957E+02 -0.10324703272E+02 -0.35680640672E+03  0.36062691790E+03  0.10000000000E+01 0.  0.
    9000005    1    3    3    0    0  0.51316298957E+02  0.10324703272E+02 -0.98778384991E+02  0.11179504183E+03  0.10000000000E+01 0.  0.
<mgrwt>
<rscale>  0 0.12500002E+03</rscale>
<asrwt>0</asrwt>
<pdfrwt beam="2">  1        4 0.71385115E-01 0.12500002E+03</pdfrwt>
<pdfrwt beam="1">  1       -4 0.12951671E-02 0.12500002E+03</pdfrwt>
<totfact> 0.58069406E+03</totfact>
</mgrwt>
</event>
<event>
 5    1  0.3317939E-002  0.1250019E+03  0.7818608E-02  0.1235066E+00
         -4   -1    0    0    0  501 -0.00000000000E+00  0.00000000000E+00  0.45388498312E+02  0.45406262553E+02  0.12700000000E+01 0.  1.
          4   -1    0    0  501    0  0.00000000000E+00 -0.00000000000E+00 -0.86025885116E+02  0.86035259109E+02  0.12700000000E+01 0.  1.
         25    2    1    2    0    0  0.00000000000E+00  0.00000000000E+00 -0.40637386804E+02  0.13144152166E+03  0.12500190563E+03 0.  0.
    9000005    1    3    3    0    0  0.39438092772E+02  0.48394357582E+02 -0.23291360482E+02  0.66639811527E+02  0.10000000000E+01 0.  0.
    9000005    1    3    3    0    0 -0.39438092772E+02 -0.48394357582E+02 -0.17346026322E+02  0.64801710135E+02  0.10000000000E+01 0.  0.
<mgrwt>
<rscale>  0 0.12500191E+03</rscale>
<asrwt>0</asrwt>
<pdfrwt beam="2">  1        4 0.13236839E-01 0.12500191E+03</pdfrwt>
<pdfrwt beam="1">  1       -4 0.69849335E-02 0.12500191E+03</pdfrwt>
<totfact> 0.10313190E+04</totfact>
</mgrwt>
</event>
<event>
 5    1  0.3317939E-002  0.1250007E+03  0.7818608E-02  0.1235068E+00
          4   -1    0    0  501    0  0.00000000000E+00  0.00000000000E+00  0.20189396607E+02  0.20229301406E+02  0.12700000000E+01 0. -1.
         -4   -1    0    0    0  501 -0.00000000000E+00 -0.00000000000E+00 -0.19324931715E+03  0.19325349021E+03  0.12700000000E+01 0. -1.
         25    2    1    2    0    0  0.00000000000E+00  0.00000000000E+00 -0.17305992054E+03  0.21348279162E+03  0.12500066487E+03 0.  0.
    9000005    1    3    3    0    0 -0.18468687857E+02  0.59694524872E+02 -0.88021595564E+02  0.10795059063E+03  0.10000000000E+01 0.  0.
    9000005    1    3    3    0    0  0.18468687857E+02 -0.59694524872E+02 -0.85038324978E+02  0.10553220099E+03  0.10000000000E+01 0.  0.
<mgrwt>
<rscale>  0 0.12500066E+03</rscale>
<asrwt>0</asrwt>
<pdfrwt beam="1">  1        4 0.31094518E-02 0.12500066E+03</pdfrwt>
<pdfrwt beam="2">  1       -4 0.29734053E-01 0.12500066E+03</pdfrwt>
<totfact> 0.87908930E+03</totfact>
</mgrwt>
</event>
<event>
 5    1  0.3317939E-002  0.1249973E+03  0.7818608E-02  0.1235074E+00
          4   -1    0    0  501    0  0.00000000000E+00  0.00000000000E+00  0.13789643411E+01  0.18746846812E+01  0.12700000000E+01 0. -1.
         -4   -1    0    0    0  501 -0.00000000000E+00 -0.00000000000E+00 -0.24005498484E+04  0.24005501844E+04  0.12700000000E+01 0. -1.
         25    2    1    2    0    0  0.00000000000E+00  0.00000000000E+00 -0.23991708841E+04  0.24024248690E+04  0.12499728155E+03 0.  0.
    9000005    1    3    3    0    0  0.33728423686E+02  0.39700819866E+02 -0.53620421362E+03  0.53872972849E+03  0.10000000000E+01 0.  0.
    9000005    1    3    3    0    0 -0.33728423686E+02 -0.39700819866E+02 -0.18629666705E+04  0.18636951405E+04  0.10000000000E+01 0.  0.
<mgrwt>
<rscale>  0 0.12499728E+03</rscale>
<asrwt>0</asrwt>
<pdfrwt beam="1">  1        4 0.25030846E-03 0.12499728E+03</pdfrwt>
<pdfrwt beam="2">  1       -4 0.36935068E+00 0.12499728E+03</pdfrwt>
<totfact> 0.54824003E+02</totfact>
</mgrwt>
</event>
<event>
 5    1  0.3317939E-002  0.1250007E+03  0.7818608E-02  0.1235068E+00
         -4   -1    0    0    0  501 -0.00000000000E+00  0.00000000000E+00  0.48147688071E+01  0.49794476266E+01  0.12700000000E+01 0. -1.
          4   -1    0    0  501    0  0.00000000000E+00 -0.00000000000E+00 -0.79750801802E+03  0.79750902923E+03  0.12700000000E+01 0. -1.
         25    2    1    2    0    0  0.00000000000E+00  0.00000000000E+00 -0.79269324921E+03  0.80248847685E+03  0.12500067257E+03 0.  0.
    9000005    1    3    3    0    0  0.93396261929E+01 -0.20345161773E+02 -0.21779185335E+02  0.31248794199E+02  0.10000000000E+01 0.  0.
    9000005    1    3    3    0    0 -0.93396261929E+01  0.20345161773E+02 -0.77091406387E+03  0.77123968266E+03  0.10000000000E+01 0.  0.
<mgrwt>
<rscale>  0 0.12500067E+03</rscale>
<asrwt>0</asrwt>
<pdfrwt beam="2">  1        4 0.12270618E+00 0.12500067E+03</pdfrwt>
<pdfrwt beam="1">  1       -4 0.75347968E-03 0.12500067E+03</pdfrwt>
<totfact> 0.38153341E+03</totfact>
</mgrwt>
</event>
<event>
 5    1  0.3317939E-002  0.1249920E+03  0.7818608E-02  0.1235082E+00
         -4   -1    0    0    0  501 -0.00000000000E+00  0.00000000000E+00  0.74762369745E+02  0.74773155811E+02  0.12700000000E+01 0. -1.
          4   -1    0    0  501    0  0.00000000000E+00 -0.00000000000E+00 -0.52219916367E+02  0.52235357425E+02  0.12700000000E+01 0. -1.
         25    2    1    2    0    0  0.00000000000E+00  0.00000000000E+00  0.22542453379E+02  0.12700851324E+03  0.12499200066E+03 0.  0.
    9000005    1    3    3    0    0  0.87555920083E+01 -0.61522132739E+02  0.45989488552E+01  0.62320009136E+02  0.10000000000E+01 0.  0.
    9000005    1    3    3    0    0 -0.87555920083E+01  0.61522132739E+02  0.17943504523E+02  0.64688504100E+02  0.10000000000E+01 0.  0.
<mgrwt>
<rscale>  0 0.12499200E+03</rscale>
<asrwt>0</asrwt>
<pdfrwt beam="2">  1        4 0.80358508E-02 0.12499200E+03</pdfrwt>
<pdfrwt beam="1">  1       -4 0.11503920E-01 0.12499200E+03</pdfrwt>
<totfact> 0.10410840E+04</totfact>
</mgrwt>
</event>
<event>
 5    1  0.3317939E-002  0.1250185E+03  0.7818608E-02  0.1235040E+00
          4   -1    0    0  501    0  0.00000000000E+00  0.00000000000E+00  0.34175140096E+01  0.36458609417E+01  0.12700000000E+01 0. -1.
         -4   -1    0    0    0  501 -0.00000000000E+00 -0.00000000000E+00 -0.11061571223E+04  0.11061578513E+04  0.12700000000E+01 0. -1.
         25    2    1    2    0    0  0.00000000000E+00  0.00000000000E+00 -0.11027396083E+04  0.11098037123E+04  0.12501854317E+03 0.  0.
    9000005    1    3    3    0    0  0.45035397255E+02  0.26944342419E+02 -0.25004125484E+03  0.25549131828E+03  0.10000000000E+01 0.  0.
    9000005    1    3    3    0    0 -0.45035397255E+02 -0.26944342419E+02 -0.85269835342E+03  0.85431239398E+03  0.10000000000E+01 0.  0.
<mgrwt>
<rscale>  0 0.12501854E+03</rscale>
<asrwt>0</asrwt>
<pdfrwt beam="1">  1        4 0.54339350E-03 0.12501854E+03</pdfrwt>
<pdfrwt beam="2">  1       -4 0.17019536E+00 0.12501854E+03</pdfrwt>
<totfact> 0.27187280E+03</totfact>
</mgrwt>
</event>
<event>
 5    1  0.3317939E-002  0.1249965E+03  0.7818608E-02  0.1235075E+00
         -4   -1    0    0    0  501 -0.00000000000E+00  0.00000000000E+00  0.26791868330E+02  0.26821951991E+02  0.12700000000E+01 0. -1.
          4   -1    0    0  501    0  0.00000000000E+00 -0.00000000000E+00 -0.14567698054E+03  0.14568251632E+03  0.12700000000E+01 0. -1.
         25    2    1    2    0    0  0.00000000000E+00  0.00000000000E+00 -0.11888511221E+03  0.17250446831E+03  0.12499648667E+03 0.  0.
    9000005    1    3    3    0    0  0.31204315905E+02  0.50341496993E+02 -0.86942243137E+02  0.10520422659E+03  0.10000000000E+01 0.  0.
    9000005    1    3    3    0    0 -0.31204315905E+02 -0.50341496993E+02 -0.31942869077E+02  0.67300241719E+02  0.10000000000E+01 0.  0.
<mgrwt>
<rscale>  0 0.12499649E+03</rscale>
<asrwt>0</asrwt>
<pdfrwt beam="2">  1        4 0.22414583E-01 0.12499649E+03</pdfrwt>
<pdfrwt beam="1">  1       -4 0.41245659E-02 0.12499649E+03</pdfrwt>
<totfact> 0.94991377E+03</totfact>
</mgrwt>
</event>
<event>
 5    1  0.3317939E-002  0.1249714E+03  0.7818608E-02  0.1235114E+00
         -4   -1    0    0    0  501 -0.00000000000E+00  0.00000000000E+00  0.81692419095E+01  0.82673704027E+01  0.12700000000E+01 0.  1.
          4   -1    0    0  501    0  0.00000000000E+00 -0.00000000000E+00 -0.47499449973E+03  0.47499619754E+03  0.12700000000E+01 0.  1.
         25    2    1    2    0    0  0.00000000000E+00  0.00000000000E+00 -0.46682525783E+03  0.48326356794E+03  0.12497141576E+03 0.  0.
    9000005    1    3    3    0    0 -0.45572770547E+02  0.65082952873E+01 -0.70070359203E+02  0.83845635317E+02  0.10000000000E+01 0.  0.
    9000005    1    3    3    0    0  0.45572770547E+02 -0.65082952873E+01 -0.39675489862E+03  0.39941793263E+03  0.10000000000E+01 0.  0.
<mgrwt>
<rscale>  0 0.12497142E+03</rscale>
<asrwt>0</asrwt>
<pdfrwt beam="2">  1        4 0.73083735E-01 0.12497142E+03</pdfrwt>
<pdfrwt beam="1">  1       -4 0.12644858E-02 0.12497142E+03</pdfrwt>
<totfact> 0.57222686E+03</totfact>
</mgrwt>
</event>
<event>
 5    1  0.3317939E-002  0.1250083E+03  0.7818608E-02  0.1235056E+00
          4   -1    0    0  501    0  0.00000000000E+00  0.00000000000E+00  0.25586501636E+02  0.25618000819E+02  0.12700000000E+01 0. -1.
         -4   -1    0    0    0  501 -0.00000000000E+00 -0.00000000000E+00 -0.15256069503E+03  0.15256598103E+03  0.12700000000E+01 0. -1.
         25    2    1    2    0    0  0.00000000000E+00  0.00000000000E+00 -0.12697419339E+03  0.17818398185E+03  0.12500834212E+03 0.  0.
    9000005    1    3    3    0    0 -0.54008338709E+02 -0.27123835908E+02 -0.40807553344E+02  0.72930511683E+02  0.10000000000E+01 0.  0.
    9000005    1    3    3    0    0  0.54008338709E+02  0.27123835908E+02 -0.86166640050E+02  0.10525347017E+03  0.10000000000E+01 0.  0.
<mgrwt>
<rscale>  0 0.12500834E+03</rscale>
<asrwt>0</asrwt>
<pdfrwt beam="1">  1        4 0.39392146E-02 0.12500834E+03</pdfrwt>
<pdfrwt beam="2">  1       -4 0.23473705E-01 0.12500834E+03</pdfrwt>
<totfact> 0.93927345E+03</totfact>
</mgrwt>
</event>
<event>
 5    1  0.3317939E-002  0.1250008E+03  0.7818608E-02  0.1235068E+00
          4   -1    0    0  501    0  0.00000000000E+00  0.00000000000E+00  0.11089385974E+03  0.11090113177E+03  0.12700000000E+01 0.  1.
         -4   -1    0    0    0  501 -0.00000000000E+00 -0.00000000000E+00 -0.35205697540E+02  0.35228596896E+02  0.12700000000E+01 0.  1.
         25    2    1    2    0    0  0.00000000000E+00  0.00000000000E+00  0.75688162202E+02  0.14612972867E+03  0.12500079881E+03 0.  0.
    9000005    1    3    3    0    0  0.20842827478E+02  0.47286132538E+02  0.78925114279E+02  0.94342861159E+02  0.10000000000E+01 0.  0.
    9000005    1    3    3    0    0 -0.20842827478E+02 -0.47286132538E+02 -0.32369520773E+01  0.51786867510E+02  0.10000000000E+01 0.  0.
<mgrwt>
<rscale>  0 0.12500080E+03</rscale>
<asrwt>0</asrwt>
<pdfrwt beam="1">  1        4 0.17062914E-01 0.12500080E+03</pdfrwt>
<pdfrwt beam="2">  1       -4 0.54185821E-02 0.12500080E+03</pdfrwt>
<totfact> 0.10007905E+04</totfact>
</mgrwt>
</event>
<event>
 5    1  0.3317939E-002  0.1249979E+03  0.7818608E-02  0.1235073E+00
          4   -1    0    0  501    0  0.00000000000E+00  0.00000000000E+00  0.25403367897E+02  0.25435093877E+02  0.12700000000E+01 0. -1.
         -4   -1    0    0    0  501 -0.00000000000E+00 -0.00000000000E+00 -0.15363338731E+03  0.15363863641E+03  0.12700000000E+01 0. -1.
         25    2    1    2    0    0  0.00000000000E+00  0.00000000000E+00 -0.12823001942E+03  0.17907373028E+03  0.12499785198E+03 0.  0.
    9000005    1    3    3    0    0 -0.55881975381E+02 -0.16569169756E+02 -0.31832410774E+02  0.66420139525E+02  0.10000000000E+01 0.  0.
    9000005    1    3    3    0    0  0.55881975381E+02  0.16569169756E+02 -0.96397608643E+02  0.11265359076E+03  0.10000000000E+01 0.  0.
<mgrwt>
<rscale>  0 0.12499785E+03</rscale>
<asrwt>0</asrwt>
<pdfrwt beam="1">  1        4 0.39110548E-02 0.12499785E+03</pdfrwt>
<pdfrwt beam="2">  1       -4 0.23638749E-01 0.12499785E+03</pdfrwt>
<totfact> 0.93788519E+03</totfact>
</mgrwt>
</event>
<event>
 5    1  0.3317939E-002  0.1249983E+03  0.7818608E-02  0.1235072E+00
         -4   -1    0    0    0  501 -0.00000000000E+00  0.00000000000E+00  0.16195623332E+04  0.16195628311E+04  0.12700000000E+01 0.  1.
          4   -1    0    0  501    0  0.00000000000E+00 -0.00000000000E+00 -0.22441319091E+01  0.25785709270E+01  0.12700000000E+01 0.  1.
         25    2    1    2    0    0  0.00000000000E+00  0.00000000000E+00  0.16173182013E+04  0.16221414021E+04  0.12499825632E+03 0.  0.
    9000005    1    3    3    0    0  0.60960632063E+02 -0.12719771462E+02  0.74104023867E+03  0.74365289388E+03  0.10000000000E+01 0.  0.
    9000005    1    3    3    0    0 -0.60960632063E+02  0.12719771462E+02  0.87627796262E+03  0.87848850819E+03  0.10000000000E+01 0.  0.
<mgrwt>
<rscale>  0 0.12499826E+03</rscale>
<asrwt>0</asrwt>
<pdfrwt beam="2">  1        4 0.37101475E-03 0.12499826E+03</pdfrwt>
<pdfrwt beam="1">  1       -4 0.24918967E+00 0.12499826E+03</pdfrwt>
<totfact> 0.15649726E+03</totfact>
</mgrwt>
</event>
<event>
 5    1  0.3317939E-002  0.1249786E+03  0.7818608E-02  0.1235103E+00
         -4   -1    0    0    0  501 -0.00000000000E+00  0.00000000000E+00  0.22800451123E+02  0.22835793645E+02  0.12700000000E+01 0. -1.
          4   -1    0    0  501    0  0.00000000000E+00 -0.00000000000E+00 -0.17109447091E+03  0.17109918432E+03  0.12700000000E+01 0. -1.
         25    2    1    2    0    0  0.00000000000E+00  0.00000000000E+00 -0.14829401979E+03  0.19393497797E+03  0.12497863567E+03 0.  0.
    9000005    1    3    3    0    0 -0.37494310148E+02  0.36549704259E+02 -0.12704787749E+03  0.13741858444E+03  0.10000000000E+01 0.  0.
    9000005    1    3    3    0    0  0.37494310148E+02 -0.36549704259E+02 -0.21246142297E+02  0.56516393528E+02  0.10000000000E+01 0.  0.
<mgrwt>
<rscale>  0 0.12497864E+03</rscale>
<asrwt>0</asrwt>
<pdfrwt beam="2">  1        4 0.26325307E-01 0.12497864E+03</pdfrwt>
<pdfrwt beam="1">  1       -4 0.35108431E-02 0.12497864E+03</pdfrwt>
<totfact> 0.91210740E+03</totfact>
</mgrwt>
</event>
<event>
 5    1  0.3317939E-002  0.1249992E+03  0.7818608E-02  0.1235071E+00
         -4   -1    0    0    0  501 -0.00000000000E+00  0.00000000000E+00  0.22303382744E+02  0.22339511674E+02  0.12700000000E+01 0. -1.
          4   -1    0    0  501    0  0.00000000000E+00 -0.00000000000E+00 -0.17495923060E+03  0.17496383990E+03  0.12700000000E+01 0. -1.
         25    2    1    2    0    0  0.00000000000E+00  0.00000000000E+00 -0.15265584786E+03  0.19730335158E+03  0.12499921863E+03 0.  0.
    9000005    1    3    3    0    0 -0.35036658676E+02 -0.21630943609E+02 -0.21290423428E+01  0.41243156934E+02  0.10000000000E+01 0.  0.
    9000005    1    3    3    0    0  0.35036658676E+02  0.21630943609E+02 -0.15052680552E+03  0.15606019464E+03  0.10000000000E+01 0.  0.
<mgrwt>
<rscale>  0 0.12499922E+03</rscale>
<asrwt>0</asrwt>
<pdfrwt beam="2">  1        4 0.26919938E-01 0.12499922E+03</pdfrwt>
<pdfrwt beam="1">  1       -4 0.34344235E-02 0.12499922E+03</pdfrwt>
<totfact> 0.90593439E+03</totfact>
</mgrwt>
</event>
<event>
 5    1  0.3317939E-002  0.1250011E+03  0.7818608E-02  0.1235068E+00
          4   -1    0    0  501    0  0.00000000000E+00  0.00000000000E+00  0.83866232493E+02  0.83875847850E+02  0.12700000000E+01 0.  1.
         -4   -1    0    0    0  501 -0.00000000000E+00 -0.00000000000E+00 -0.46556997730E+02  0.46574316287E+02  0.12700000000E+01 0.  1.
         25    2    1    2    0    0  0.00000000000E+00  0.00000000000E+00  0.37309234763E+02  0.13045016414E+03  0.12500106529E+03 0.  0.
    9000005    1    3    3    0    0 -0.26379706776E+02  0.33552503734E+02  0.66291578116E+02  0.78849430977E+02  0.10000000000E+01 0.  0.
    9000005    1    3    3    0    0  0.26379706776E+02 -0.33552503734E+02 -0.28982343352E+02  0.51600733160E+02  0.10000000000E+01 0.  0.
<mgrwt>
<rscale>  0 0.12500107E+03</rscale>
<asrwt>0</asrwt>
<pdfrwt beam="1">  1        4 0.12904569E-01 0.12500107E+03</pdfrwt>
<pdfrwt beam="2">  1       -4 0.71646870E-02 0.12500107E+03</pdfrwt>
<totfact> 0.10334638E+04</totfact>
</mgrwt>
</event>
<event>
 5    1  0.3317939E-002  0.1250026E+03  0.7818608E-02  0.1235065E+00
         -4   -1    0    0    0  501 -0.00000000000E+00  0.00000000000E+00  0.10934687443E+02  0.11008191926E+02  0.12700000000E+01 0. -1.
          4   -1    0    0  501    0  0.00000000000E+00 -0.00000000000E+00 -0.35597838816E+03  0.35598065360E+03  0.12700000000E+01 0. -1.
         25    2    1    2    0    0  0.00000000000E+00  0.00000000000E+00 -0.34504370071E+03  0.36698884552E+03  0.12500262931E+03 0.  0.
    9000005    1    3    3    0    0  0.58773562416E+02 -0.20044093450E+02 -0.15190453584E+03  0.16410997937E+03  0.10000000000E+01 0.  0.
    9000005    1    3    3    0    0 -0.58773562416E+02  0.20044093450E+02 -0.19313916487E+03  0.20287886615E+03  0.10000000000E+01 0.  0.
<mgrwt>
<rscale>  0 0.12500263E+03</rscale>
<asrwt>0</asrwt>
<pdfrwt beam="2">  1        4 0.54771725E-01 0.12500263E+03</pdfrwt>
<pdfrwt beam="1">  1       -4 0.16880883E-02 0.12500263E+03</pdfrwt>
<totfact> 0.67891198E+03</totfact>
</mgrwt>
</event>
<event>
 5    1  0.3317939E-002  0.1249995E+03  0.7818608E-02  0.1235070E+00
          4   -1    0    0  501    0  0.00000000000E+00  0.00000000000E+00  0.15345224801E+02  0.15397688924E+02  0.12700000000E+01 0.  1.
         -4   -1    0    0    0  501 -0.00000000000E+00 -0.00000000000E+00 -0.25406761812E+03  0.25407079225E+03  0.12700000000E+01 0.  1.
         25    2    1    2    0    0  0.00000000000E+00  0.00000000000E+00 -0.23872239332E+03  0.26946848118E+03  0.12499952511E+03 0.  0.
    9000005    1    3    3    0    0 -0.17526832044E+02  0.16551763507E+02  0.49283677328E+01  0.24625992877E+02  0.10000000000E+01 0.  0.
    9000005    1    3    3    0    0  0.17526832044E+02 -0.16551763507E+02 -0.24365076105E+03  0.24484248830E+03  0.10000000000E+01 0.  0.
<mgrwt>
<rscale>  0 0.12499953E+03</rscale>
<asrwt>0</asrwt>
<pdfrwt beam="1">  1        4 0.23650839E-02 0.12499953E+03</pdfrwt>
<pdfrwt beam="2">  1       -4 0.39091603E-01 0.12499953E+03</pdfrwt>
<totfact> 0.79596229E+03</totfact>
</mgrwt>
</event>
<event>
 5    1  0.3317939E-002  0.1249937E+03  0.7818608E-02  0.1235079E+00
          4   -1    0    0  501    0  0.00000000000E+00  0.00000000000E+00  0.10443703165E+02  0.10520638564E+02  0.12700000000E+01 0. -1.
         -4   -1    0    0    0  501 -0.00000000000E+00 -0.00000000000E+00 -0.37254095084E+03  0.37254311556E+03  0.12700000000E+01 0. -1.
         25    2    1    2    0    0  0.00000000000E+00  0.00000000000E+00 -0.36209724768E+03  0.38306375413E+03  0.12499369165E+03 0.  0.
    9000005    1    3    3    0    0  0.68439527751E+01 -0.35532236284E+02 -0.24916778131E+02  0.43945708976E+02  0.10000000000E+01 0.  0.
    9000005    1    3    3    0    0 -0.68439527751E+01  0.35532236284E+02 -0.33718046954E+03  0.33911804515E+03  0.10000000000E+01 0.  0.
<mgrwt>
<rscale>  0 0.12499369E+03</rscale>
<asrwt>0</asrwt>
<pdfrwt beam="1">  1        4 0.16128085E-02 0.12499369E+03</pdfrwt>
<pdfrwt beam="2">  1       -4 0.57320067E-01 0.12499369E+03</pdfrwt>
<totfact> 0.66243245E+03</totfact>
</mgrwt>
</event>
<event>
 5    1  0.3317939E-002  0.1250019E+03  0.7818608E-02  0.1235066E+00
         -4   -1    0    0    0  501 -0.00000000000E+00  0.00000000000E+00  0.38240602960E+02  0.38261685989E+02  0.12700000000E+01 0.  1.
          4   -1    0    0  501    0  0.00000000000E+00 -0.00000000000E+00 -0.10209924157E+03  0.10210713996E+03  0.12700000000E+01 0.  1.
         25    2    1    2    0    0  0.00000000000E+00  0.00000000000E+00 -0.63858638615E+02  0.14036882595E+03  0.12500192627E+03 0.  0.
    9000005    1    3    3    0    0  0.25067897571E+02  0.44627951882E+02 -0.72187955312E+02  0.88499460281E+02  0.10000000000E+01 0.  0.
    9000005    1    3    3    0    0 -0.25067897571E+02 -0.44627951882E+02  0.83293166968E+01  0.51869365665E+02  0.10000000000E+01 0.  0.
<mgrwt>
<rscale>  0 0.12500193E+03</rscale>
<asrwt>0</asrwt>
<pdfrwt beam="2">  1        4 0.15709805E-01 0.12500193E+03</pdfrwt>
<pdfrwt beam="1">  1       -4 0.58853991E-02 0.12500193E+03</pdfrwt>
<totfact> 0.10125508E+04</totfact>
</mgrwt>
</event>
<event>
 4    1  0.3317939E-002  0.1249232E+03  0.7818608E-02  0.1235189E+00
          4   -1    0    0  501    0  0.00000000000E+00  0.00000000000E+00  0.24079679372E+03  0.24080014279E+03  0.12700000000E+01 0.  1.
         -4   -1    0    0    0  501 -0.00000000000E+00 -0.00000000000E+00 -0.16173914898E+02  0.16223699428E+02  0.12700000000E+01 0.  1.
    9000005    1    1    2    0    0  0.16063870786E+02  0.55525035293E+02  0.63650282383E+02  0.85985091362E+02  0.10000000000E+01 0.  0.
    9000005    1    1    2    0    0 -0.16063870786E+02 -0.55525035293E+02  0.16097259644E+03  0.17103875085E+03  0.10000000000E+01 0.  0.
<mgrwt>
<rscale>  0 0.12492325E+03</rscale>
<asrwt>0</asrwt>
<pdfrwt beam="1">  1        4 0.37049747E-01 0.12492325E+03</pdfrwt>
<pdfrwt beam="2">  1       -4 0.24923819E-02 0.12492325E+03</pdfrwt>
<totfact> 0.81464676E+03</totfact>
</mgrwt>
</event>
<event>
 5    1  0.3317939E-002  0.1249972E+03  0.7818608E-02  0.1235074E+00
          4   -1    0    0  501    0  0.00000000000E+00  0.00000000000E+00  0.29658798056E+03  0.29659069964E+03  0.12700000000E+01 0. -1.
         -4   -1    0    0    0  501 -0.00000000000E+00 -0.00000000000E+00 -0.13136644883E+02  0.13197891452E+02  0.12700000000E+01 0. -1.
         25    2    1    2    0    0  0.00000000000E+00  0.00000000000E+00  0.28345133568E+03  0.30978859110E+03  0.12499724587E+03 0.  0.
    9000005    1    3    3    0    0  0.22027414426E+01  0.87069107930E+01 -0.11540927626E+02  0.14657945828E+02  0.10000000000E+01 0.  0.
    9000005    1    3    3    0    0 -0.22027414426E+01 -0.87069107930E+01  0.29499226331E+03  0.29513064527E+03  0.10000000000E+01 0.  0.
<mgrwt>
<rscale>  0 0.12499725E+03</rscale>
<asrwt>0</asrwt>
<pdfrwt beam="1">  1        4 0.45633833E-01 0.12499725E+03</pdfrwt>
<pdfrwt beam="2">  1       -4 0.20259430E-02 0.12499725E+03</pdfrwt>
<totfact> 0.74391704E+03</totfact>
</mgrwt>
</event>
<event>
 5    1  0.3317939E-002  0.1249982E+03  0.7818608E-02  0.1235072E+00
         -4   -1    0    0    0  501 -0.00000000000E+00  0.00000000000E+00  0.69995403653E+02  0.70006924176E+02  0.12700000000E+01 0.  1.
          4   -1    0    0  501    0  0.00000000000E+00 -0.00000000000E+00 -0.55782262948E+02  0.55796718180E+02  0.12700000000E+01 0.  1.
         25    2    1    2    0    0  0.00000000000E+00  0.00000000000E+00  0.14213140705E+02  0.12580364236E+03  0.12499817223E+03 0.  0.
    9000005    1    3    3    0    0 -0.16490993663E+02  0.75708995010E+01  0.67290434969E+02  0.69701320143E+02  0.10000000000E+01 0.  0.
    9000005    1    3    3    0    0  0.16490993663E+02 -0.75708995010E+01 -0.53077294264E+02  0.56102322213E+02  0.10000000000E+01 0.  0.
<mgrwt>
<rscale>  0 0.12499817E+03</rscale>
<asrwt>0</asrwt>
<pdfrwt beam="2">  1        4 0.85838848E-02 0.12499817E+03</pdfrwt>
<pdfrwt beam="1">  1       -4 0.10770522E-01 0.12499817E+03</pdfrwt>
<totfact> 0.10435696E+04</totfact>
</mgrwt>
</event>
<event>
 5    1  0.3317939E-002  0.1249987E+03  0.7818608E-02  0.1235071E+00
          4   -1    0    0  501    0  0.00000000000E+00  0.00000000000E+00  0.13248196000E+02  0.13308929230E+02  0.12700000000E+01 0. -1.
         -4   -1    0    0    0  501 -0.00000000000E+00 -0.00000000000E+00 -0.29410873714E+03  0.29411147914E+03  0.12700000000E+01 0. -1.
         25    2    1    2    0    0  0.00000000000E+00  0.00000000000E+00 -0.28086054114E+03  0.30742040837E+03  0.12499865564E+03 0.  0.
    9000005    1    3    3    0    0  0.23712287372E+02 -0.35637828015E+02 -0.28458099565E+02  0.51411971261E+02  0.10000000000E+01 0.  0.
    9000005    1    3    3    0    0 -0.23712287372E+02  0.35637828015E+02 -0.25240244158E+03  0.25600843711E+03  0.10000000000E+01 0.  0.
<mgrwt>
<rscale>  0 0.12499866E+03</rscale>
<asrwt>0</asrwt>
<pdfrwt beam="1">  1        4 0.20430669E-02 0.12499866E+03</pdfrwt>
<pdfrwt beam="2">  1       -4 0.45252376E-01 0.12499866E+03</pdfrwt>
<totfact> 0.74679595E+03</totfact>
</mgrwt>
</event>
<event>
 5    1  0.3317939E-002  0.1250002E+03  0.7818608E-02  0.1235069E+00
          4   -1    0    0  501    0  0.00000000000E+00  0.00000000000E+00  0.34135293753E+02  0.34158910691E+02  0.12700000000E+01 0.  1.
         -4   -1    0    0    0  501 -0.00000000000E+00 -0.00000000000E+00 -0.11436800104E+03  0.11437505218E+03  0.12700000000E+01 0.  1.
         25    2    1    2    0    0  0.00000000000E+00  0.00000000000E+00 -0.80232707285E+02  0.14853396287E+03  0.12500020323E+03 0.  0.
    9000005    1    3    3    0    0  0.50659289243E+02 -0.19843883058E+02 -0.35856201281E+01  0.54534392388E+02  0.10000000000E+01 0.  0.
    9000005    1    3    3    0    0 -0.50659289243E+02  0.19843883058E+02 -0.76647087157E+02  0.93999570484E+02  0.10000000000E+01 0.  0.
<mgrwt>
<rscale>  0 0.12500020E+03</rscale>
<asrwt>0</asrwt>
<pdfrwt beam="1">  1        4 0.52539428E-02 0.12500020E+03</pdfrwt>
<pdfrwt beam="2">  1       -4 0.17597436E-01 0.12500020E+03</pdfrwt>
<totfact> 0.99596281E+03</totfact>
</mgrwt>
</event>
<event>
 5    1  0.3317939E-002  0.1250025E+03  0.7818608E-02  0.1235065E+00
          4   -1    0    0  501    0  0.00000000000E+00  0.00000000000E+00  0.46631626971E+03  0.46631799911E+03  0.12700000000E+01 0. -1.
         -4   -1    0    0    0  501 -0.00000000000E+00 -0.00000000000E+00 -0.83272708845E+01  0.84235586532E+01  0.12700000000E+01 0. -1.
         25    2    1    2    0    0  0.00000000000E+00  0.00000000000E+00  0.45798899883E+03  0.47474155777E+03  0.12500249447E+03 0.  0.
    9000005    1    3    3    0    0  0.40093972134E+02  0.46794064058E+02  0.18949042298E+03  0.19926071222E+03  0.10000000000E+01 0.  0.
    9000005    1    3    3    0    0 -0.40093972134E+02 -0.46794064058E+02  0.26849857585E+03  0.27548084555E+03  0.10000000000E+01 0.  0.
<mgrwt>
<rscale>  0 0.12500249E+03</rscale>
<asrwt>0</asrwt>
<pdfrwt beam="1">  1        4 0.71748530E-01 0.12500249E+03</pdfrwt>
<pdfrwt beam="2">  1       -4 0.12886579E-02 0.12500249E+03</pdfrwt>
<totfact> 0.57875596E+03</totfact>
</mgrwt>
</event>
<event>
 5    1  0.3317939E-002  0.1250031E+03  0.7818608E-02  0.1235064E+00
         -4   -1    0    0    0  501 -0.00000000000E+00  0.00000000000E+00  0.73045893024E+01  0.74141705455E+01  0.12700000000E+01 0.  1.
          4   -1    0    0  501    0  0.00000000000E+00 -0.00000000000E+00 -0.53070160937E+03  0.53070312896E+03  0.12700000000E+01 0.  1.
         25    2    1    2    0    0  0.00000000000E+00  0.00000000000E+00 -0.52339702006E+03  0.53811729950E+03  0.12500314961E+03 0.  0.
    9000005    1    3    3    0    0 -0.54657515147E+02  0.24128444161E+02 -0.34058633295E+03  0.34578848444E+03  0.10000000000E+01 0.  0.
    9000005    1    3    3    0    0  0.54657515147E+02 -0.24128444161E+02 -0.18281068712E+03  0.19232881506E+03  0.10000000000E+01 0.  0.
<mgrwt>
<rscale>  0 0.12500315E+03</rscale>
<asrwt>0</asrwt>
<pdfrwt beam="2">  1        4 0.81654917E-01 0.12500315E+03</pdfrwt>
<pdfrwt beam="1">  1       -4 0.11323296E-02 0.12500315E+03</pdfrwt>
<totfact> 0.53019993E+03</totfact>
</mgrwt>
</event>
<event>
 5    1  0.3317939E-002  0.1250004E+03  0.7818608E-02  0.1235069E+00
         -4   -1    0    0    0  501 -0.00000000000E+00  0.00000000000E+00  0.42603748572E+03  0.42603937863E+03  0.12700000000E+01 0. -1.
          4   -1    0    0  501    0  0.00000000000E+00 -0.00000000000E+00 -0.91229511603E+01  0.92109249195E+01  0.12700000000E+01 0. -1.
         25    2    1    2    0    0  0.00000000000E+00  0.00000000000E+00  0.41691453456E+03  0.43525030355E+03  0.12500039043E+03 0.  0.
    9000005    1    3    3    0    0 -0.12393308122E+02  0.52014746512E+02  0.95835079846E+02  0.10974739391E+03  0.10000000000E+01 0.  0.
    9000005    1    3    3    0    0  0.12393308122E+02 -0.52014746512E+02  0.32107945472E+03  0.32550290964E+03  0.10000000000E+01 0.  0.
<mgrwt>
<rscale>  0 0.12500039E+03</rscale>
<asrwt>0</asrwt>
<pdfrwt beam="2">  1        4 0.14104440E-02 0.12500039E+03</pdfrwt>
<pdfrwt beam="1">  1       -4 0.65551130E-01 0.12500039E+03</pdfrwt>
<totfact> 0.61262428E+03</totfact>
</mgrwt>
</event>
<event>
 5    1  0.3317939E-002  0.1249980E+03  0.7818608E-02  0.1235072E+00
          4   -1    0    0  501    0  0.00000000000E+00  0.00000000000E+00  0.92817987332E+03  0.92818074217E+03  0.12700000000E+01 0. -1.
         -4   -1    0    0    0  501 -0.00000000000E+00 -0.00000000000E+00 -0.41116678319E+01  0.43033373514E+01  0.12700000000E+01 0. -1.
         25    2    1    2    0    0  0.00000000000E+00  0.00000000000E+00  0.92406820548E+03  0.93248407952E+03  0.12499804066E+03 0.  0.
    9000005    1    3    3    0    0 -0.11933778198E+02  0.24149083768E+02  0.88268321129E+03  0.88309469753E+03  0.10000000000E+01 0.  0.
    9000005    1    3    3    0    0  0.11933778198E+02 -0.24149083768E+02  0.41384994194E+02  0.49389381989E+02  0.10000000000E+01 0.  0.
<mgrwt>
<rscale>  0 0.12499804E+03</rscale>
<asrwt>0</asrwt>
<pdfrwt beam="1">  1        4 0.14281175E+00 0.12499804E+03</pdfrwt>
<pdfrwt beam="2">  1       -4 0.64737475E-03 0.12499804E+03</pdfrwt>
<totfact> 0.32947532E+03</totfact>
</mgrwt>
</event>
<event>
 5    1  0.3317939E-002  0.1249964E+03  0.7818608E-02  0.1235075E+00
         -4   -1    0    0    0  501 -0.00000000000E+00  0.00000000000E+00  0.37403333946E+03  0.37403549555E+03  0.12700000000E+01 0.  1.
          4   -1    0    0  501    0  0.00000000000E+00 -0.00000000000E+00 -0.10402187209E+02  0.10479427405E+02  0.12700000000E+01 0.  1.
         25    2    1    2    0    0  0.00000000000E+00  0.00000000000E+00  0.36363115225E+03  0.38451492295E+03  0.12499644428E+03 0.  0.
    9000005    1    3    3    0    0  0.46974308368E+02 -0.77448005801E+01  0.30633396333E+03  0.31001300727E+03  0.10000000000E+01 0.  0.
    9000005    1    3    3    0    0 -0.46974308368E+02  0.77448005801E+01  0.57297188919E+02  0.74501915685E+02  0.10000000000E+01 0.  0.
<mgrwt>
<rscale>  0 0.12499644E+03</rscale>
<asrwt>0</asrwt>
<pdfrwt beam="2">  1        4 0.16064442E-02 0.12499644E+03</pdfrwt>
<pdfrwt beam="1">  1       -4 0.57549687E-01 0.12499644E+03</pdfrwt>
<totfact> 0.66092435E+03</totfact>
</mgrwt>
</event>
<event>
 5    1  0.3317939E-002  0.1250058E+03  0.7818608E-02  0.1235060E+00
         -4   -1    0    0    0  501 -0.00000000000E+00  0.00000000000E+00  0.47684042452E+02  0.47700951821E+02  0.12700000000E+01 0. -1.
          4   -1    0    0  501    0  0.00000000000E+00 -0.00000000000E+00 -0.81890698295E+02  0.81900545586E+02  0.12700000000E+01 0. -1.
         25    2    1    2    0    0  0.00000000000E+00  0.00000000000E+00 -0.34206655843E+02  0.12960149741E+03  0.12500581117E+03 0.  0.
    9000005    1    3    3    0    0 -0.57197760217E+02 -0.56683051015E+01  0.83322668998E+01  0.58087349124E+02  0.10000000000E+01 0.  0.
    9000005    1    3    3    0    0  0.57197760217E+02  0.56683051015E+01 -0.42538922743E+02  0.71514148283E+02  0.10000000000E+01 0.  0.
<mgrwt>
<rscale>  0 0.12500581E+03</rscale>
<asrwt>0</asrwt>
<pdfrwt beam="2">  1        4 0.12600627E-01 0.12500581E+03</pdfrwt>
<pdfrwt beam="1">  1       -4 0.73380648E-02 0.12500581E+03</pdfrwt>
<totfact> 0.10351682E+04</totfact>
</mgrwt>
</event>
<event>
 4    1  0.3317939E-002  0.1238446E+03  0.7818608E-02  0.1236886E+00
         -4   -1    0    0    0  501 -0.00000000000E+00  0.00000000000E+00  0.13172040989E+03  0.13172653219E+03  0.12700000000E+01 0. -1.
          4   -1    0    0  501    0  0.00000000000E+00 -0.00000000000E+00 -0.29089282486E+02  0.29116992557E+02  0.12700000000E+01 0. -1.
    9000005    1    1    2    0    0 -0.16644683901E+02 -0.15153861842E+02  0.12622429455E+03  0.12821956780E+03  0.10000000000E+01 0.  0.
    9000005    1    1    2    0    0  0.16644683901E+02  0.15153861842E+02 -0.23593167146E+02  0.32623956947E+02  0.10000000000E+01 0.  0.
<mgrwt>
<rscale>  0 0.12384462E+03</rscale>
<asrwt>0</asrwt>
<pdfrwt beam="2">  1        4 0.44778767E-02 0.12384462E+03</pdfrwt>
<pdfrwt beam="1">  1       -4 0.20267281E-01 0.12384462E+03</pdfrwt>
<totfact> 0.99747580E+03</totfact>
</mgrwt>
</event>
<event>
 5    1  0.3317939E-002  0.1250003E+03  0.7818608E-02  0.1235069E+00
          4   -1    0    0  501    0  0.00000000000E+00  0.00000000000E+00  0.17257425419E+03  0.17257892719E+03  0.12700000000E+01 0. -1.
         -4   -1    0    0    0  501 -0.00000000000E+00 -0.00000000000E+00 -0.22612486774E+02  0.22648122617E+02  0.12700000000E+01 0. -1.
         25    2    1    2    0    0  0.00000000000E+00  0.00000000000E+00  0.14996176741E+03  0.19522704980E+03  0.12500027716E+03 0.  0.
    9000005    1    3    3    0    0  0.15381221149E+02  0.53587889635E+01  0.16920842138E+03  0.16999349532E+03  0.10000000000E+01 0.  0.
    9000005    1    3    3    0    0 -0.15381221149E+02 -0.53587889635E+01 -0.19246653967E+02  0.25233554488E+02  0.10000000000E+01 0.  0.
<mgrwt>
<rscale>  0 0.12500028E+03</rscale>
<asrwt>0</asrwt>
<pdfrwt beam="1">  1        4 0.26552987E-01 0.12500028E+03</pdfrwt>
<pdfrwt beam="2">  1       -4 0.34819447E-02 0.12500028E+03</pdfrwt>
<totfact> 0.90945130E+03</totfact>
</mgrwt>
</event>
<event>
 5    1  0.3317939E-002  0.1249986E+03  0.7818608E-02  0.1235072E+00
          4   -1    0    0  501    0  0.00000000000E+00  0.00000000000E+00  0.30747554614E+02  0.30773771539E+02  0.12700000000E+01 0. -1.
         -4   -1    0    0    0  501 -0.00000000000E+00 -0.00000000000E+00 -0.12695615682E+03  0.12696250886E+03  0.12700000000E+01 0. -1.
         25    2    1    2    0    0  0.00000000000E+00  0.00000000000E+00 -0.96208602208E+02  0.15773628040E+03  0.12499855605E+03 0.  0.
    9000005    1    3    3    0    0  0.13316084334E+02  0.35309143777E+02  0.14752063639E+02  0.40529953342E+02  0.10000000000E+01 0.  0.
    9000005    1    3    3    0    0 -0.13316084334E+02 -0.35309143777E+02 -0.11096066585E+03  0.11720632705E+03  0.10000000000E+01 0.  0.
<mgrwt>
<rscale>  0 0.12499856E+03</rscale>
<asrwt>0</asrwt>
<pdfrwt beam="1">  1        4 0.47328984E-02 0.12499856E+03</pdfrwt>
<pdfrwt beam="2">  1       -4 0.19534221E-01 0.12499856E+03</pdfrwt>
<totfact> 0.97784170E+03</totfact>
</mgrwt>
</event>
<event>
 5    1  0.3317939E-002  0.1249992E+03  0.7818608E-02  0.1235071E+00
          4   -1    0    0  501    0  0.00000000000E+00  0.00000000000E+00  0.14149162935E+02  0.14206044902E+02  0.12700000000E+01 0. -1.
         -4   -1    0    0    0  501 -0.00000000000E+00 -0.00000000000E+00 -0.27546063060E+03  0.27546355822E+03  0.12700000000E+01 0. -1.
         25    2    1    2    0    0  0.00000000000E+00  0.00000000000E+00 -0.26131146766E+03  0.28966960313E+03  0.12499918337E+03 0.  0.
    9000005    1    3    3    0    0 -0.46392219118E+02 -0.22190940233E+02 -0.48380114622E+02  0.70613818151E+02  0.10000000000E+01 0.  0.
    9000005    1    3    3    0    0  0.46392219118E+02  0.22190940233E+02 -0.21293135304E+03  0.21905578498E+03  0.10000000000E+01 0.  0.
<mgrwt>
<rscale>  0 0.12499918E+03</rscale>
<asrwt>0</asrwt>
<pdfrwt beam="1">  1        4 0.21813952E-02 0.12499918E+03</pdfrwt>
<pdfrwt beam="2">  1       -4 0.42383155E-01 0.12499918E+03</pdfrwt>
<totfact> 0.76914607E+03</totfact>
</mgrwt>
</event>
<event>
 5    1  0.3317939E-002  0.1250018E+03  0.7818608E-02  0.1235066E+00
          4   -1    0    0  501    0  0.00000000000E+00  0.00000000000E+00  0.11331538823E+01  0.17020392830E+01  0.12700000000E+01 0. -1.
         -4   -1    0    0    0  501 -0.00000000000E+00 -0.00000000000E+00 -0.27550545550E+04  0.27550548477E+04  0.12700000000E+01 0. -1.
         25    2    1    2    0    0  0.00000000000E+00  0.00000000000E+00 -0.27539214011E+04  0.27567568870E+04  0.12500180193E+03 0.  0.
    9000005    1    3    3    0    0 -0.74382326371E+01  0.61023350139E+02 -0.11292254112E+04  0.11308979644E+04  0.10000000000E+01 0.  0.
    9000005    1    3    3    0    0  0.74382326371E+01 -0.61023350139E+02 -0.16246959899E+04  0.16258589226E+04  0.10000000000E+01 0.  0.
<mgrwt>
<rscale>  0 0.12500180E+03</rscale>
<asrwt>0</asrwt>
<pdfrwt beam="1">  1        4 0.21811650E-03 0.12500180E+03</pdfrwt>
<pdfrwt beam="2">  1       -4 0.42389404E+00 0.12500180E+03</pdfrwt>
<totfact> 0.29517061E+02</totfact>
</mgrwt>
</event>
<event>
 5    1  0.3317939E-002  0.1249968E+03  0.7818608E-02  0.1235074E+00
         -4   -1    0    0    0  501 -0.00000000000E+00  0.00000000000E+00  0.15105348982E+03  0.15105882856E+03  0.12700000000E+01 0.  1.
          4   -1    0    0  501    0  0.00000000000E+00 -0.00000000000E+00 -0.25837315606E+02  0.25868509384E+02  0.12700000000E+01 0.  1.
         25    2    1    2    0    0  0.00000000000E+00  0.00000000000E+00  0.12521617421E+03  0.17692733795E+03  0.12499677047E+03 0.  0.
    9000005    1    3    3    0    0 -0.46506189697E+02  0.35386184037E+02  0.31274355537E+02  0.66287955279E+02  0.10000000000E+01 0.  0.
    9000005    1    3    3    0    0  0.46506189697E+02 -0.35386184037E+02  0.93941818678E+02  0.11063938267E+03  0.10000000000E+01 0.  0.
<mgrwt>
<rscale>  0 0.12499677E+03</rscale>
<asrwt>0</asrwt>
<pdfrwt beam="2">  1        4 0.39777819E-02 0.12499677E+03</pdfrwt>
<pdfrwt beam="1">  1       -4 0.23241808E-01 0.12499677E+03</pdfrwt>
<totfact> 0.94179856E+03</totfact>
</mgrwt>
</event>
<event>
 5    1  0.3317939E-002  0.1249971E+03  0.7818608E-02  0.1235074E+00
         -4   -1    0    0    0  501 -0.00000000000E+00  0.00000000000E+00  0.23730463005E+02  0.23764422451E+02  0.12700000000E+01 0.  1.
          4   -1    0    0  501    0  0.00000000000E+00 -0.00000000000E+00 -0.16444729643E+03  0.16445220036E+03  0.12700000000E+01 0.  1.
         25    2    1    2    0    0  0.00000000000E+00  0.00000000000E+00 -0.14071683343E+03  0.18821662281E+03  0.12499707954E+03 0.  0.
    9000005    1    3    3    0    0 -0.39969058521E+02  0.37074524100E+02 -0.11635270844E+03  0.12849513118E+03  0.10000000000E+01 0.  0.
    9000005    1    3    3    0    0  0.39969058521E+02 -0.37074524100E+02 -0.24364124989E+02  0.59721491632E+02  0.10000000000E+01 0.  0.
<mgrwt>
<rscale>  0 0.12499708E+03</rscale>
<asrwt>0</asrwt>
<pdfrwt beam="2">  1        4 0.25302573E-01 0.12499708E+03</pdfrwt>
<pdfrwt beam="1">  1       -4 0.36538301E-02 0.12499708E+03</pdfrwt>
<totfact> 0.92164576E+03</totfact>
</mgrwt>
</event>
<event>
 5    1  0.3317939E-002  0.1249986E+03  0.7818608E-02  0.1235071E+00
         -4   -1    0    0    0  501 -0.00000000000E+00  0.00000000000E+00  0.48017394199E+01  0.49668502551E+01  0.12700000000E+01 0. -1.
          4   -1    0    0  501    0  0.00000000000E+00 -0.00000000000E+00 -0.79957426892E+03  0.79957527752E+03  0.12700000000E+01 0. -1.
         25    2    1    2    0    0  0.00000000000E+00  0.00000000000E+00 -0.79477252950E+03  0.80454212778E+03  0.12499864685E+03 0.  0.
    9000005    1    3    3    0    0 -0.35055135069E+02 -0.12270386320E+02 -0.73913405956E+02  0.82726153393E+02  0.10000000000E+01 0.  0.
    9000005    1    3    3    0    0  0.35055135069E+02  0.12270386320E+02 -0.72085912355E+03  0.72181597439E+03  0.10000000000E+01 0.  0.
<mgrwt>
<rscale>  0 0.12499865E+03</rscale>
<asrwt>0</asrwt>
<pdfrwt beam="2">  1        4 0.12302410E+00 0.12499865E+03</pdfrwt>
<pdfrwt beam="1">  1       -4 0.75150819E-03 0.12499865E+03</pdfrwt>
<totfact> 0.38063909E+03</totfact>
</mgrwt>
</event>
<event>
 5    1  0.3317939E-002  0.1250026E+03  0.7818608E-02  0.1235065E+00
          4   -1    0    0  501    0  0.00000000000E+00  0.00000000000E+00  0.14791994129E+02  0.14846413382E+02  0.12700000000E+01 0.  1.
         -4   -1    0    0    0  501 -0.00000000000E+00 -0.00000000000E+00 -0.26354892207E+03  0.26355198202E+03  0.12700000000E+01 0.  1.
         25    2    1    2    0    0  0.00000000000E+00  0.00000000000E+00 -0.24875692794E+03  0.27839839540E+03  0.12500262942E+03 0.  0.
    9000005    1    3    3    0    0 -0.43607455381E+02  0.16783945993E+02 -0.31956076535E+02  0.56617151424E+02  0.10000000000E+01 0.  0.
    9000005    1    3    3    0    0  0.43607455381E+02 -0.16783945993E+02 -0.21680085141E+03  0.22178124397E+03  0.10000000000E+01 0.  0.
<mgrwt>
<rscale>  0 0.12500263E+03</rscale>
<asrwt>0</asrwt>
<pdfrwt beam="1">  1        4 0.22801131E-02 0.12500263E+03</pdfrwt>
<pdfrwt beam="2">  1       -4 0.40550406E-01 0.12500263E+03</pdfrwt>
<totfact> 0.78386366E+03</totfact>
</mgrwt>
</event>
<event>
 5    1  0.3317939E-002  0.1250006E+03  0.7818608E-02  0.1235068E+00
          4   -1    0    0  501    0  0.00000000000E+00  0.00000000000E+00  0.67063034834E+01  0.68254967887E+01  0.12700000000E+01 0. -1.
         -4   -1    0    0    0  501 -0.00000000000E+00 -0.00000000000E+00 -0.57722928610E+03  0.57723068321E+03  0.12700000000E+01 0. -1.
         25    2    1    2    0    0  0.00000000000E+00  0.00000000000E+00 -0.57052298262E+03  0.58405618000E+03  0.12500059077E+03 0.  0.
    9000005    1    3    3    0    0  0.12838056156E+02  0.56842293641E+02 -0.17980273661E+03  0.18901292581E+03  0.10000000000E+01 0.  0.
    9000005    1    3    3    0    0 -0.12838056156E+02 -0.56842293641E+02 -0.39072024601E+03  0.39504325418E+03  0.10000000000E+01 0.  0.
<mgrwt>
<rscale>  0 0.12500059E+03</rscale>
<asrwt>0</asrwt>
<pdfrwt beam="1">  1        4 0.10410156E-02 0.12500059E+03</pdfrwt>
<pdfrwt beam="2">  1       -4 0.88813743E-01 0.12500059E+03</pdfrwt>
<totfact> 0.49889117E+03</totfact>
</mgrwt>
</event>
<event>
 5    1  0.3317939E-002  0.1249985E+03  0.7818608E-02  0.1235072E+00
         -4   -1    0    0    0  501 -0.00000000000E+00  0.00000000000E+00  0.43992827520E+02  0.44011155100E+02  0.12700000000E+01 0. -1.
          4   -1    0    0  501    0  0.00000000000E+00 -0.00000000000E+00 -0.88749367763E+02  0.88758454123E+02  0.12700000000E+01 0. -1.
         25    2    1    2    0    0  0.00000000000E+00  0.00000000000E+00 -0.44756540243E+02  0.13276960922E+03  0.12499848495E+03 0.  0.
    9000005    1    3    3    0    0 -0.37505991941E+02 -0.33972971507E+02 -0.61322301836E+02  0.79512809830E+02  0.10000000000E+01 0.  0.
    9000005    1    3    3    0    0  0.37505991941E+02  0.33972971507E+02  0.16565761593E+02  0.53256799394E+02  0.10000000000E+01 0.  0.
<mgrwt>
<rscale>  0 0.12499848E+03</rscale>
<asrwt>0</asrwt>
<pdfrwt beam="2">  1        4 0.13655858E-01 0.12499848E+03</pdfrwt>
<pdfrwt beam="1">  1       -4 0.67702361E-02 0.12499848E+03</pdfrwt>
<totfact> 0.10285650E+04</totfact>
</mgrwt>
</event>
<event>
 5    1  0.3317939E-002  0.1250034E+03  0.7818608E-02  0.1235064E+00
          4   -1    0    0  501    0  0.00000000000E+00  0.00000000000E+00  0.27313095211E+02  0.27342605399E+02  0.12700000000E+01 0. -1.
         -4   -1    0    0    0  501 -0.00000000000E+00 -0.00000000000E+00 -0.14291571330E+03  0.14292135602E+03  0.12700000000E+01 0. -1.
         25    2    1    2    0    0  0.00000000000E+00  0.00000000000E+00 -0.11560261808E+03  0.17026396142E+03  0.12500340496E+03 0.  0.
    9000005    1    3    3    0    0 -0.20794696790E+02 -0.17863770161E+02 -0.13429521803E+03  0.13706837449E+03  0.10000000000E+01 0.  0.
    9000005    1    3    3    0    0  0.20794696790E+02  0.17863770161E+02  0.18692599947E+02  0.33195586931E+02  0.10000000000E+01 0.  0.
<mgrwt>
<rscale>  0 0.12500340E+03</rscale>
<asrwt>0</asrwt>
<pdfrwt beam="1">  1        4 0.42047188E-02 0.12500340E+03</pdfrwt>
<pdfrwt beam="2">  1       -4 0.21989737E-01 0.12500340E+03</pdfrwt>
<totfact> 0.95392170E+03</totfact>
</mgrwt>
</event>
<event>
 5    1  0.3317939E-002  0.1250009E+03  0.7818608E-02  0.1235068E+00
         -4   -1    0    0    0  501 -0.00000000000E+00  0.00000000000E+00  0.47723844161E+03  0.47724013143E+03  0.12700000000E+01 0.  1.
          4   -1    0    0  501    0  0.00000000000E+00 -0.00000000000E+00 -0.81342549237E+01  0.82328004448E+01  0.12700000000E+01 0.  1.
         25    2    1    2    0    0  0.00000000000E+00  0.00000000000E+00  0.46910418668E+03  0.48547293188E+03  0.12500091847E+03 0.  0.
    9000005    1    3    3    0    0  0.46587478878E+02  0.40900458664E+02  0.20395493206E+03  0.21317095256E+03  0.10000000000E+01 0.  0.
    9000005    1    3    3    0    0 -0.46587478878E+02 -0.40900458664E+02  0.26514925463E+03  0.27230197931E+03  0.10000000000E+01 0.  0.
<mgrwt>
<rscale>  0 0.12500092E+03</rscale>
<asrwt>0</asrwt>
<pdfrwt beam="2">  1        4 0.12591341E-02 0.12500092E+03</pdfrwt>
<pdfrwt beam="1">  1       -4 0.73429017E-01 0.12500092E+03</pdfrwt>
<totfact> 0.57008214E+03</totfact>
</mgrwt>
</event>
<event>
 5    1  0.3317939E-002  0.1249949E+03  0.7818608E-02  0.1235077E+00
         -4   -1    0    0    0  501 -0.00000000000E+00  0.00000000000E+00  0.97275041734E+02  0.97283331791E+02  0.12700000000E+01 0.  1.
          4   -1    0    0  501    0  0.00000000000E+00 -0.00000000000E+00 -0.40133418266E+02  0.40153507465E+02  0.12700000000E+01 0.  1.
         25    2    1    2    0    0  0.00000000000E+00  0.00000000000E+00  0.57141623468E+02  0.13743683926E+03  0.12499487850E+03 0.  0.
    9000005    1    3    3    0    0  0.47325114975E+02 -0.13494847778E+02 -0.13774354540E+02  0.51112721185E+02  0.10000000000E+01 0.  0.
    9000005    1    3    3    0    0 -0.47325114975E+02  0.13494847778E+02  0.70915978008E+02  0.86324118071E+02  0.10000000000E+01 0.  0.
<mgrwt>
<rscale>  0 0.12499488E+03</rscale>
<asrwt>0</asrwt>
<pdfrwt beam="2">  1        4 0.61765551E-02 0.12499488E+03</pdfrwt>
<pdfrwt beam="1">  1       -4 0.14967574E-01 0.12499488E+03</pdfrwt>
<totfact> 0.10188136E+04</totfact>
</mgrwt>
</event>
<event>
 5    1  0.3317939E-002  0.1249992E+03  0.7818608E-02  0.1235070E+00
         -4   -1    0    0    0  501 -0.00000000000E+00  0.00000000000E+00  0.79754465338E+02  0.79764576357E+02  0.12700000000E+01 0.  1.
          4   -1    0    0  501    0  0.00000000000E+00 -0.00000000000E+00 -0.48956396875E+02  0.48972866927E+02  0.12700000000E+01 0.  1.
         25    2    1    2    0    0  0.00000000000E+00  0.00000000000E+00  0.30798068463E+02  0.12873744328E+03  0.12499923313E+03 0.  0.
    9000005    1    3    3    0    0 -0.33281670931E+01 -0.50996449171E+02  0.52439689165E+02  0.73230017916E+02  0.10000000000E+01 0.  0.
    9000005    1    3    3    0    0  0.33281670931E+01  0.50996449171E+02 -0.21641620702E+02  0.55507425367E+02  0.10000000000E+01 0.  0.
<mgrwt>
<rscale>  0 0.12499923E+03</rscale>
<asrwt>0</asrwt>
<pdfrwt beam="2">  1        4 0.75337981E-02 0.12499923E+03</pdfrwt>
<pdfrwt beam="1">  1       -4 0.12271962E-01 0.12499923E+03</pdfrwt>
<totfact> 0.10371772E+04</totfact>
</mgrwt>
</event>
<event>
 5    1  0.3317939E-002  0.1249992E+03  0.7818608E-02  0.1235071E+00
         -4   -1    0    0    0  501 -0.00000000000E+00  0.00000000000E+00  0.22763857671E+02  0.22799256919E+02  0.12700000000E+01 0. -1.
          4   -1    0    0  501    0  0.00000000000E+00 -0.00000000000E+00 -0.17142553708E+03  0.17143024139E+03  0.12700000000E+01 0. -1.
         25    2    1    2    0    0  0.00000000000E+00  0.00000000000E+00 -0.14866167941E+03  0.19422949831E+03  0.12499921235E+03 0.  0.
    9000005    1    3    3    0    0  0.31866741378E+02  0.52142790035E+02 -0.54021117574E+02  0.81569852903E+02  0.10000000000E+01 0.  0.
    9000005    1    3    3    0    0 -0.31866741378E+02 -0.52142790035E+02 -0.94640561837E+02  0.11265964541E+03  0.10000000000E+01 0.  0.
<mgrwt>
<rscale>  0 0.12499921E+03</rscale>
<asrwt>0</asrwt>
<pdfrwt beam="2">  1        4 0.26376244E-01 0.12499921E+03</pdfrwt>
<pdfrwt beam="1">  1       -4 0.35052169E-02 0.12499921E+03</pdfrwt>
<totfact> 0.91118167E+03</totfact>
</mgrwt>
</event>
<event>
 5    1  0.3317939E-002  0.1249998E+03  0.7818608E-02  0.1235070E+00
         -4   -1    0    0    0  501 -0.00000000000E+00  0.00000000000E+00  0.10705889079E+03  0.10706642330E+03  0.12700000000E+01 0. -1.
          4   -1    0    0  501    0  0.00000000000E+00 -0.00000000000E+00 -0.36466968042E+02  0.36489075875E+02  0.12700000000E+01 0. -1.
         25    2    1    2    0    0  0.00000000000E+00  0.00000000000E+00  0.70591922752E+02  0.14355549917E+03  0.12499984714E+03 0.  0.
    9000005    1    3    3    0    0  0.42985393100E+01 -0.57756929597E+02  0.62251422972E+02  0.85032817304E+02  0.10000000000E+01 0.  0.
    9000005    1    3    3    0    0 -0.42985393100E+01  0.57756929597E+02  0.83404997803E+01  0.58522681870E+02  0.10000000000E+01 0.  0.
<mgrwt>
<rscale>  0 0.12499985E+03</rscale>
<asrwt>0</asrwt>
<pdfrwt beam="2">  1        4 0.56125828E-02 0.12499985E+03</pdfrwt>
<pdfrwt beam="1">  1       -4 0.16472879E-01 0.12499985E+03</pdfrwt>
<totfact> 0.10060455E+04</totfact>
</mgrwt>
</event>
<event>
 5    1  0.3317939E-002  0.1249993E+03  0.7818608E-02  0.1235070E+00
          4   -1    0    0  501    0  0.00000000000E+00  0.00000000000E+00  0.17377350540E+02  0.17423696846E+02  0.12700000000E+01 0. -1.
         -4   -1    0    0    0  501 -0.00000000000E+00 -0.00000000000E+00 -0.22443979035E+03  0.22444338349E+03  0.12700000000E+01 0. -1.
         25    2    1    2    0    0  0.00000000000E+00  0.00000000000E+00 -0.20706243981E+03  0.24186708034E+03  0.12499932228E+03 0.  0.
    9000005    1    3    3    0    0 -0.55460138629E+02  0.23751145604E+01 -0.47996568670E+02  0.73390317822E+02  0.10000000000E+01 0.  0.
    9000005    1    3    3    0    0  0.55460138629E+02 -0.23751145604E+01 -0.15906587114E+03  0.16847676251E+03  0.10000000000E+01 0.  0.
<mgrwt>
<rscale>  0 0.12499932E+03</rscale>
<asrwt>0</asrwt>
<pdfrwt beam="1">  1        4 0.26772802E-02 0.12499932E+03</pdfrwt>
<pdfrwt beam="2">  1       -4 0.34533038E-01 0.12499932E+03</pdfrwt>
<totfact> 0.83521345E+03</totfact>
</mgrwt>
</event>
<event>
 5    1  0.3317939E-002  0.1250052E+03  0.7818608E-02  0.1235061E+00
          4   -1    0    0  501    0  0.00000000000E+00  0.00000000000E+00  0.16191986682E+02  0.16241715818E+02  0.12700000000E+01 0. -1.
         -4   -1    0    0    0  501 -0.00000000000E+00 -0.00000000000E+00 -0.24084464267E+03  0.24084799107E+03  0.12700000000E+01 0. -1.
         25    2    1    2    0    0  0.00000000000E+00  0.00000000000E+00 -0.22465265599E+03  0.25708970689E+03  0.12500520608E+03 0.  0.
    9000005    1    3    3    0    0  0.13739856869E+02 -0.51023579898E+02 -0.18095087166E+03  0.18851102707E+03  0.10000000000E+01 0.  0.
    9000005    1    3    3    0    0 -0.13739856869E+02  0.51023579898E+02 -0.43701784328E+02  0.68578679820E+02  0.10000000000E+01 0.  0.
<mgrwt>
<rscale>  0 0.12500521E+03</rscale>
<asrwt>0</asrwt>
<pdfrwt beam="1">  1        4 0.24951579E-02 0.12500521E+03</pdfrwt>
<pdfrwt beam="2">  1       -4 0.37057102E-01 0.12500521E+03</pdfrwt>
<totfact> 0.81306798E+03</totfact>
</mgrwt>
</event>
<event>
 5    1  0.3317939E-002  0.1249973E+03  0.7818608E-02  0.1235073E+00
         -4   -1    0    0    0  501 -0.00000000000E+00  0.00000000000E+00  0.12104919917E+02  0.12171359259E+02  0.12700000000E+01 0.  1.
          4   -1    0    0  501    0  0.00000000000E+00 -0.00000000000E+00 -0.32173472206E+03  0.32173722861E+03  0.12700000000E+01 0.  1.
         25    2    1    2    0    0  0.00000000000E+00  0.00000000000E+00 -0.30962980214E+03  0.33390858787E+03  0.12499732270E+03 0.  0.
    9000005    1    3    3    0    0  0.54609036129E+01 -0.30704781346E+02 -0.29947349183E+03  0.30109463193E+03  0.10000000000E+01 0.  0.
    9000005    1    3    3    0    0 -0.54609036129E+01  0.30704781346E+02 -0.10156310309E+02  0.32813955947E+02  0.10000000000E+01 0.  0.
<mgrwt>
<rscale>  0 0.12499732E+03</rscale>
<asrwt>0</asrwt>
<pdfrwt beam="2">  1        4 0.49502947E-01 0.12499732E+03</pdfrwt>
<pdfrwt beam="1">  1       -4 0.18675991E-02 0.12499732E+03</pdfrwt>
<totfact> 0.71536103E+03</totfact>
</mgrwt>
</event>
<event>
 5    1  0.3317939E-002  0.1249999E+03  0.7818608E-02  0.1235069E+00
          4   -1    0    0  501    0  0.00000000000E+00  0.00000000000E+00  0.10386257223E+02  0.10463615011E+02  0.12700000000E+01 0. -1.
         -4   -1    0    0    0  501 -0.00000000000E+00 -0.00000000000E+00 -0.37462379265E+03  0.37462594533E+03  0.12700000000E+01 0. -1.
         25    2    1    2    0    0  0.00000000000E+00  0.00000000000E+00 -0.36423753542E+03  0.38508956034E+03  0.12499994910E+03 0.  0.
    9000005    1    3    3    0    0  0.29894189726E+02 -0.38104506376E+02 -0.60454564781E+02  0.77468512238E+02  0.10000000000E+01 0.  0.
    9000005    1    3    3    0    0 -0.29894189726E+02  0.38104506376E+02 -0.30378297064E+03  0.30762104811E+03  0.10000000000E+01 0.  0.
<mgrwt>
<rscale>  0 0.12499995E+03</rscale>
<asrwt>0</asrwt>
<pdfrwt beam="1">  1        4 0.16040022E-02 0.12499995E+03</pdfrwt>
<pdfrwt beam="2">  1       -4 0.57640536E-01 0.12499995E+03</pdfrwt>
<totfact> 0.66029342E+03</totfact>
</mgrwt>
</event>
<event>
 5    1  0.3317939E-002  0.1249993E+03  0.7818608E-02  0.1235070E+00
          4   -1    0    0  501    0  0.00000000000E+00  0.00000000000E+00  0.46243452766E+02  0.46260888704E+02  0.12700000000E+01 0.  1.
         -4   -1    0    0    0  501 -0.00000000000E+00 -0.00000000000E+00 -0.84432288940E+02  0.84441839841E+02  0.12700000000E+01 0.  1.
         25    2    1    2    0    0  0.00000000000E+00  0.00000000000E+00 -0.38188836175E+02  0.13070272854E+03  0.12499926416E+03 0.  0.
    9000005    1    3    3    0    0 -0.14158415822E+02 -0.49499530527E+02 -0.56130020283E+02  0.76172458527E+02  0.10000000000E+01 0.  0.
    9000005    1    3    3    0    0  0.14158415822E+02  0.49499530527E+02  0.17941184108E+02  0.54530270018E+02  0.10000000000E+01 0.  0.
<mgrwt>
<rscale>  0 0.12499926E+03</rscale>
<asrwt>0</asrwt>
<pdfrwt beam="1">  1        4 0.71164533E-02 0.12499926E+03</pdfrwt>
<pdfrwt beam="2">  1       -4 0.12991659E-01 0.12499926E+03</pdfrwt>
<totfact> 0.10329638E+04</totfact>
</mgrwt>
</event>
<event>
 5    1  0.3317939E-002  0.1249975E+03  0.7818608E-02  0.1235073E+00
         -4   -1    0    0    0  501 -0.00000000000E+00  0.00000000000E+00  0.11372384785E+02  0.11443078069E+02  0.12700000000E+01 0. -1.
          4   -1    0    0  501    0  0.00000000000E+00 -0.00000000000E+00 -0.34233595978E+03  0.34233831550E+03  0.12700000000E+01 0. -1.
         25    2    1    2    0    0  0.00000000000E+00  0.00000000000E+00 -0.33096357499E+03  0.35378139357E+03  0.12499754582E+03 0.  0.
    9000005    1    3    3    0    0 -0.23916334369E+02  0.32937627530E+02 -0.29968185594E+03  0.30243527099E+03  0.10000000000E+01 0.  0.
    9000005    1    3    3    0    0  0.23916334369E+02 -0.32937627530E+02 -0.31281719053E+02  0.51346122579E+02  0.10000000000E+01 0.  0.
<mgrwt>
<rscale>  0 0.12499755E+03</rscale>
<asrwt>0</asrwt>
<pdfrwt beam="2">  1        4 0.52672682E-01 0.12499755E+03</pdfrwt>
<pdfrwt beam="1">  1       -4 0.17552171E-02 0.12499755E+03</pdfrwt>
<totfact> 0.69314317E+03</totfact>
</mgrwt>
</event>
<event>
 5    1  0.3317939E-002  0.1249970E+03  0.7818608E-02  0.1235074E+00
         -4   -1    0    0    0  501 -0.00000000000E+00  0.00000000000E+00  0.92097259363E+01  0.92968786064E+01  0.12700000000E+01 0. -1.
          4   -1    0    0  501    0  0.00000000000E+00 -0.00000000000E+00 -0.42203835218E+03  0.42204026302E+03  0.12700000000E+01 0. -1.
         25    2    1    2    0    0  0.00000000000E+00  0.00000000000E+00 -0.41282862624E+03  0.43133714163E+03  0.12499702037E+03 0.  0.
    9000005    1    3    3    0    0 -0.12242651785E+02  0.17332238054E+02 -0.35867067178E+01  0.21544221122E+02  0.10000000000E+01 0.  0.
    9000005    1    3    3    0    0  0.12242651785E+02 -0.17332238054E+02 -0.40924191953E+03  0.40979292050E+03  0.10000000000E+01 0.  0.
<mgrwt>
<rscale>  0 0.12499702E+03</rscale>
<asrwt>0</asrwt>
<pdfrwt beam="2">  1        4 0.64935813E-01 0.12499702E+03</pdfrwt>
<pdfrwt beam="1">  1       -4 0.14237323E-02 0.12499702E+03</pdfrwt>
<totfact> 0.61619029E+03</totfact>
</mgrwt>
</event>
<event>
 5    1  0.3317939E-002  0.1249918E+03  0.7818608E-02  0.1235082E+00
          4   -1    0    0  501    0  0.00000000000E+00  0.00000000000E+00  0.25076140291E+03  0.25076461890E+03  0.12700000000E+01 0. -1.
         -4   -1    0    0    0  501 -0.00000000000E+00 -0.00000000000E+00 -0.15546313893E+02  0.15598101668E+02  0.12700000000E+01 0. -1.
         25    2    1    2    0    0  0.00000000000E+00  0.00000000000E+00  0.23521508902E+03  0.26636272056E+03  0.12499184295E+03 0.  0.
    9000005    1    3    3    0    0 -0.60979844875E+02 -0.13476995656E+02  0.11305224440E+03  0.12915874286E+03  0.10000000000E+01 0.  0.
    9000005    1    3    3    0    0  0.60979844875E+02  0.13476995656E+02  0.12216284462E+03  0.13720397771E+03  0.10000000000E+01 0.  0.
<mgrwt>
<rscale>  0 0.12499184E+03</rscale>
<asrwt>0</asrwt>
<pdfrwt beam="1">  1        4 0.38582908E-01 0.12499184E+03</pdfrwt>
<pdfrwt beam="2">  1       -4 0.23959717E-02 0.12499184E+03</pdfrwt>
<totfact> 0.80035877E+03</totfact>
</mgrwt>
</event>
<event>
 5    1  0.3317939E-002  0.1249926E+03  0.7818608E-02  0.1235081E+00
         -4   -1    0    0    0  501 -0.00000000000E+00  0.00000000000E+00  0.49106108563E+02  0.49122528418E+02  0.12700000000E+01 0. -1.
          4   -1    0    0  501    0  0.00000000000E+00 -0.00000000000E+00 -0.79502948307E+02  0.79513091309E+02  0.12700000000E+01 0. -1.
         25    2    1    2    0    0  0.00000000000E+00  0.00000000000E+00 -0.30396839745E+02  0.12863561973E+03  0.12499261897E+03 0.  0.
    9000005    1    3    3    0    0  0.38288594111E+02 -0.11235215793E+02  0.34292064831E+02  0.52623114914E+02  0.10000000000E+01 0.  0.
    9000005    1    3    3    0    0 -0.38288594111E+02  0.11235215793E+02 -0.64688904575E+02  0.76012504814E+02  0.10000000000E+01 0.  0.
<mgrwt>
<rscale>  0 0.12499262E+03</rscale>
<asrwt>0</asrwt>
<pdfrwt beam="2">  1        4 0.12233266E-01 0.12499262E+03</pdfrwt>
<pdfrwt beam="1">  1       -4 0.75568293E-02 0.12499262E+03</pdfrwt>
<totfact> 0.10375512E+04</totfact>
</mgrwt>
</event>
<event>
 5    1  0.3317939E-002  0.1250008E+03  0.7818608E-02  0.1235068E+00
          4   -1    0    0  501    0  0.00000000000E+00  0.00000000000E+00  0.20470371217E+02  0.20509729344E+02  0.12700000000E+01 0.  1.
         -4   -1    0    0    0  501 -0.00000000000E+00 -0.00000000000E+00 -0.19060227111E+03  0.19060650213E+03  0.12700000000E+01 0.  1.
         25    2    1    2    0    0  0.00000000000E+00  0.00000000000E+00 -0.17013189990E+03  0.21111623147E+03  0.12500079931E+03 0.  0.
    9000005    1    3    3    0    0  0.45683992024E+02 -0.32219945512E+02 -0.13223936507E+03  0.14357368036E+03  0.10000000000E+01 0.  0.
    9000005    1    3    3    0    0 -0.45683992024E+02  0.32219945512E+02 -0.37892534825E+02  0.67542551118E+02  0.10000000000E+01 0.  0.
<mgrwt>
<rscale>  0 0.12500080E+03</rscale>
<asrwt>0</asrwt>
<pdfrwt beam="1">  1        4 0.31526410E-02 0.12500080E+03</pdfrwt>
<pdfrwt beam="2">  1       -4 0.29326778E-01 0.12500080E+03</pdfrwt>
<totfact> 0.88292332E+03</totfact>
</mgrwt>
</event>
<event>
 5    1  0.3317939E-002  0.1249993E+03  0.7818608E-02  0.1235070E+00
          4   -1    0    0  501    0  0.00000000000E+00  0.00000000000E+00  0.13498532914E+03  0.13499130336E+03  0.12700000000E+01 0.  1.
         -4   -1    0    0    0  501 -0.00000000000E+00 -0.00000000000E+00 -0.28917440588E+02  0.28945315167E+02  0.12700000000E+01 0.  1.
         25    2    1    2    0    0  0.00000000000E+00  0.00000000000E+00  0.10606788855E+03  0.16393661852E+03  0.12499927165E+03 0.  0.
    9000005    1    3    3    0    0  0.47836918442E+02  0.13288469425E+02  0.32616710684E+01  0.49765376356E+02  0.10000000000E+01 0.  0.
    9000005    1    3    3    0    0 -0.47836918442E+02 -0.13288469425E+02  0.10280621748E+03  0.11417124217E+03  0.10000000000E+01 0.  0.
<mgrwt>
<rscale>  0 0.12499927E+03</rscale>
<asrwt>0</asrwt>
<pdfrwt beam="1">  1        4 0.20769577E-01 0.12499927E+03</pdfrwt>
<pdfrwt beam="2">  1       -4 0.44514408E-02 0.12499927E+03</pdfrwt>
<totfact> 0.96590740E+03</totfact>
</mgrwt>
</event>
<event>
 5    1  0.3317939E-002  0.1249978E+03  0.7818608E-02  0.1235073E+00
         -4   -1    0    0    0  501 -0.00000000000E+00  0.00000000000E+00  0.50257084196E+02  0.50273128129E+02  0.12700000000E+01 0. -1.
          4   -1    0    0  501    0  0.00000000000E+00 -0.00000000000E+00 -0.77688991268E+02  0.77699371067E+02  0.12700000000E+01 0. -1.
         25    2    1    2    0    0  0.00000000000E+00  0.00000000000E+00 -0.27431907072E+02  0.12797249920E+03  0.12499780408E+03 0.  0.
    9000005    1    3    3    0    0 -0.59498737554E+02  0.28561357656E+01  0.56242236915E+01  0.59840531199E+02  0.10000000000E+01 0.  0.
    9000005    1    3    3    0    0  0.59498737554E+02 -0.28561357656E+01 -0.33056130764E+02  0.68131967997E+02  0.10000000000E+01 0.  0.
<mgrwt>
<rscale>  0 0.12499780E+03</rscale>
<asrwt>0</asrwt>
<pdfrwt beam="2">  1        4 0.11954185E-01 0.12499780E+03</pdfrwt>
<pdfrwt beam="1">  1       -4 0.77338917E-02 0.12499780E+03</pdfrwt>
<totfact> 0.10388596E+04</totfact>
</mgrwt>
</event>
<event>
 5    1  0.3317939E-002  0.1250013E+03  0.7818608E-02  0.1235067E+00
          4   -1    0    0  501    0  0.00000000000E+00  0.00000000000E+00  0.97078215715E+02  0.97086522578E+02  0.12700000000E+01 0.  1.
         -4   -1    0    0    0  501 -0.00000000000E+00 -0.00000000000E+00 -0.40218959825E+02  0.40239006317E+02  0.12700000000E+01 0.  1.
         25    2    1    2    0    0  0.00000000000E+00  0.00000000000E+00  0.56859255890E+02  0.13732552890E+03  0.12500130362E+03 0.  0.
    9000005    1    3    3    0    0 -0.15010037132E+02 -0.31912522157E+02 -0.28247764434E+02  0.45195646700E+02  0.10000000000E+01 0.  0.
    9000005    1    3    3    0    0  0.15010037132E+02  0.31912522157E+02  0.85107020323E+02  0.92129882196E+02  0.10000000000E+01 0.  0.
<mgrwt>
<rscale>  0 0.12500130E+03</rscale>
<asrwt>0</asrwt>
<pdfrwt beam="1">  1        4 0.14937291E-01 0.12500130E+03</pdfrwt>
<pdfrwt beam="2">  1       -4 0.61897133E-02 0.12500130E+03</pdfrwt>
<totfact> 0.10188984E+04</totfact>
</mgrwt>
</event>
<event>
 5    1  0.3317939E-002  0.1250049E+03  0.7818608E-02  0.1235062E+00
         -4   -1    0    0    0  501 -0.00000000000E+00  0.00000000000E+00  0.25598576915E+01  0.28575813901E+01  0.12700000000E+01 0.  1.
          4   -1    0    0  501    0  0.00000000000E+00 -0.00000000000E+00 -0.14419175965E+04  0.14419181557E+04  0.12700000000E+01 0.  1.
         25    2    1    2    0    0  0.00000000000E+00  0.00000000000E+00 -0.14393577388E+04  0.14447757371E+04  0.12500492180E+03 0.  0.
    9000005    1    3    3    0    0  0.23584937792E+02  0.55816674013E+02 -0.89640562130E+03  0.89845188423E+03  0.10000000000E+01 0.  0.
    9000005    1    3    3    0    0 -0.23584937792E+02 -0.55816674013E+02 -0.54295211746E+03  0.54632385290E+03  0.10000000000E+01 0.  0.
<mgrwt>
<rscale>  0 0.12500492E+03</rscale>
<asrwt>0</asrwt>
<pdfrwt beam="2">  1        4 0.22185581E+00 0.12500492E+03</pdfrwt>
<pdfrwt beam="1">  1       -4 0.41677026E-03 0.12500492E+03</pdfrwt>
<totfact> 0.19038024E+03</totfact>
</mgrwt>
</event>
<event>
 5    1  0.3317939E-002  0.1249625E+03  0.7818608E-02  0.1235128E+00
         -4   -1    0    0    0  501 -0.00000000000E+00  0.00000000000E+00  0.68398839571E+01  0.69567889537E+01  0.12700000000E+01 0.  1.
          4   -1    0    0  501    0  0.00000000000E+00 -0.00000000000E+00 -0.56580274087E+03  0.56580416618E+03  0.12700000000E+01 0.  1.
         25    2    1    2    0    0  0.00000000000E+00  0.00000000000E+00 -0.55896285691E+03  0.57276095514E+03  0.12496253969E+03 0.  0.
    9000005    1    3    3    0    0  0.96697599835E+01 -0.38055044749E+02 -0.50220267074E+03  0.50373625359E+03  0.10000000000E+01 0.  0.
    9000005    1    3    3    0    0 -0.96697599835E+01  0.38055044749E+02 -0.56760186172E+02  0.69024701544E+02  0.10000000000E+01 0.  0.
<mgrwt>
<rscale>  0 0.12496254E+03</rscale>
<asrwt>0</asrwt>
<pdfrwt beam="2">  1        4 0.87055642E-01 0.12496254E+03</pdfrwt>
<pdfrwt beam="1">  1       -4 0.10613926E-02 0.12496254E+03</pdfrwt>
<totfact> 0.50675088E+03</totfact>
</mgrwt>
</event>
<event>
 5    1  0.3317939E-002  0.1249979E+03  0.7818608E-02  0.1235073E+00
         -4   -1    0    0    0  501 -0.00000000000E+00  0.00000000000E+00  0.29596338670E+02  0.29623574441E+02  0.12700000000E+01 0.  1.
          4   -1    0    0  501    0  0.00000000000E+00 -0.00000000000E+00 -0.13188875745E+03  0.13189487193E+03  0.12700000000E+01 0.  1.
         25    2    1    2    0    0  0.00000000000E+00  0.00000000000E+00 -0.10229241878E+03  0.16151844638E+03  0.12499787830E+03 0.  0.
    9000005    1    3    3    0    0  0.12020672172E+02 -0.50314401044E+02 -0.58449896447E+01  0.52069179136E+02  0.10000000000E+01 0.  0.
    9000005    1    3    3    0    0 -0.12020672172E+02  0.50314401044E+02 -0.96447429139E+02  0.10944926724E+03  0.10000000000E+01 0.  0.
<mgrwt>
<rscale>  0 0.12499788E+03</rscale>
<asrwt>0</asrwt>
<pdfrwt beam="2">  1        4 0.20293143E-01 0.12499788E+03</pdfrwt>
<pdfrwt beam="1">  1       -4 0.45558484E-02 0.12499788E+03</pdfrwt>
<totfact> 0.97055465E+03</totfact>
</mgrwt>
</event>
<event>
 5    1  0.3317939E-002  0.1249977E+03  0.7818608E-02  0.1235073E+00
          4   -1    0    0  501    0  0.00000000000E+00  0.00000000000E+00  0.38124782370E+03  0.38124993898E+03  0.12700000000E+01 0.  1.
         -4   -1    0    0    0  501 -0.00000000000E+00 -0.00000000000E+00 -0.10204074602E+02  0.10282803046E+02  0.12700000000E+01 0.  1.
         25    2    1    2    0    0  0.00000000000E+00  0.00000000000E+00  0.37104374909E+03  0.39153274203E+03  0.12499769733E+03 0.  0.
    9000005    1    3    3    0    0  0.73540316293E+01  0.43769970244E+02  0.32331595875E+03  0.32634966103E+03  0.10000000000E+01 0.  0.
    9000005    1    3    3    0    0 -0.73540316293E+01 -0.43769970244E+02  0.47727790348E+02  0.65183080994E+02  0.10000000000E+01 0.  0.
<mgrwt>
<rscale>  0 0.12499770E+03</rscale>
<asrwt>0</asrwt>
<pdfrwt beam="1">  1        4 0.58659721E-01 0.12499770E+03</pdfrwt>
<pdfrwt beam="2">  1       -4 0.15760766E-02 0.12499770E+03</pdfrwt>
<totfact> 0.65388049E+03</totfact>
</mgrwt>
</event>
<event>
 5    1  0.3317939E-002  0.1249973E+03  0.7818608E-02  0.1235074E+00
         -4   -1    0    0    0  501 -0.00000000000E+00  0.00000000000E+00  0.21076326229E+03  0.21076708859E+03  0.12700000000E+01 0. -1.
          4   -1    0    0  501    0  0.00000000000E+00 -0.00000000000E+00 -0.18507268163E+02  0.18550791759E+02  0.12700000000E+01 0. -1.
         25    2    1    2    0    0  0.00000000000E+00  0.00000000000E+00  0.19225599413E+03  0.22931788034E+03  0.12499729184E+03 0.  0.
    9000005    1    3    3    0    0  0.61068627406E+02  0.42466950778E+01  0.73091811536E+02  0.95345815776E+02  0.10000000000E+01 0.  0.
    9000005    1    3    3    0    0 -0.61068627406E+02 -0.42466950778E+01  0.11916418259E+03  0.13397206457E+03  0.10000000000E+01 0.  0.
<mgrwt>
<rscale>  0 0.12499729E+03</rscale>
<asrwt>0</asrwt>
<pdfrwt beam="2">  1        4 0.28509144E-02 0.12499729E+03</pdfrwt>
<pdfrwt beam="1">  1       -4 0.32428759E-01 0.12499729E+03</pdfrwt>
<totfact> 0.85419608E+03</totfact>
</mgrwt>
</event>
<event>
 5    1  0.3317939E-002  0.1249981E+03  0.7818608E-02  0.1235072E+00
         -4   -1    0    0    0  501 -0.00000000000E+00  0.00000000000E+00  0.92093633250E+02  0.92102389682E+02  0.12700000000E+01 0. -1.
          4   -1    0    0  501    0  0.00000000000E+00 -0.00000000000E+00 -0.42394501619E+02  0.42413519867E+02  0.12700000000E+01 0. -1.
         25    2    1    2    0    0  0.00000000000E+00  0.00000000000E+00  0.49699131631E+02  0.13451590955E+03  0.12499810493E+03 0.  0.
    9000005    1    3    3    0    0 -0.18927411173E+02 -0.25327739696E+02  0.82855504929E+02  0.88689210104E+02  0.10000000000E+01 0.  0.
    9000005    1    3    3    0    0  0.18927411173E+02  0.25327739696E+02 -0.33156373298E+02  0.45826699446E+02  0.10000000000E+01 0.  0.
<mgrwt>
<rscale>  0 0.12499810E+03</rscale>
<asrwt>0</asrwt>
<pdfrwt beam="2">  1        4 0.65243676E-02 0.12499810E+03</pdfrwt>
<pdfrwt beam="1">  1       -4 0.14170388E-01 0.12499810E+03</pdfrwt>
<totfact> 0.10248722E+04</totfact>
</mgrwt>
</event>
<event>
 5    1  0.3317939E-002  0.1250025E+03  0.7818608E-02  0.1235065E+00
          4   -1    0    0  501    0  0.00000000000E+00  0.00000000000E+00  0.69593060011E+01  0.70742377693E+01  0.12700000000E+01 0. -1.
         -4   -1    0    0    0  501 -0.00000000000E+00 -0.00000000000E+00 -0.55660826975E+03  0.55660971861E+03  0.12700000000E+01 0. -1.
         25    2    1    2    0    0  0.00000000000E+00  0.00000000000E+00 -0.54964896374E+03  0.56368395638E+03  0.12500247730E+03 0.  0.
    9000005    1    3    3    0    0  0.30152046576E+02  0.11167965763E+02 -0.51646744134E+03  0.51746834429E+03  0.10000000000E+01 0.  0.
    9000005    1    3    3    0    0 -0.30152046576E+02 -0.11167965763E+02 -0.33181522402E+02  0.46215612091E+02  0.10000000000E+01 0.  0.
<mgrwt>
<rscale>  0 0.12500248E+03</rscale>
<asrwt>0</asrwt>
<pdfrwt beam="1">  1        4 0.10796153E-02 0.12500248E+03</pdfrwt>
<pdfrwt beam="2">  1       -4 0.85640959E-01 0.12500248E+03</pdfrwt>
<totfact> 0.51240499E+03</totfact>
</mgrwt>
</event>
<event>
 5    1  0.3317939E-002  0.1250009E+03  0.7818608E-02  0.1235068E+00
         -4   -1    0    0    0  501 -0.00000000000E+00  0.00000000000E+00  0.19877905062E+03  0.19878310760E+03  0.12700000000E+01 0. -1.
          4   -1    0    0  501    0  0.00000000000E+00 -0.00000000000E+00 -0.19626715621E+02  0.19667762101E+02  0.12700000000E+01 0. -1.
         25    2    1    2    0    0  0.00000000000E+00  0.00000000000E+00  0.17915233500E+03  0.21845086970E+03  0.12500089334E+03 0.  0.
    9000005    1    3    3    0    0 -0.87807129631E+01 -0.42453735804E+02  0.10917229171E+02  0.44716959832E+02  0.10000000000E+01 0.  0.
    9000005    1    3    3    0    0  0.87807129631E+01  0.42453735804E+02  0.16823510583E+03  0.17373390987E+03  0.10000000000E+01 0.  0.
<mgrwt>
<rscale>  0 0.12500089E+03</rscale>
<asrwt>0</asrwt>
<pdfrwt beam="2">  1        4 0.30229642E-02 0.12500089E+03</pdfrwt>
<pdfrwt beam="1">  1       -4 0.30584862E-01 0.12500089E+03</pdfrwt>
<totfact> 0.87112335E+03</totfact>
</mgrwt>
</event>
<event>
 5    1  0.3317939E-002  0.1250036E+03  0.7818608E-02  0.1235064E+00
         -4   -1    0    0    0  501 -0.00000000000E+00  0.00000000000E+00  0.10194872101E+02  0.10273671065E+02  0.12700000000E+01 0. -1.
          4   -1    0    0  501    0  0.00000000000E+00 -0.00000000000E+00 -0.38162520423E+03  0.38162731742E+03  0.12700000000E+01 0. -1.
         25    2    1    2    0    0  0.00000000000E+00  0.00000000000E+00 -0.37143033213E+03  0.39190098848E+03  0.12500357256E+03 0.  0.
    9000005    1    3    3    0    0  0.47173963241E+02  0.35939836269E+02 -0.12392718988E+03  0.13738996699E+03  0.10000000000E+01 0.  0.
    9000005    1    3    3    0    0 -0.47173963241E+02 -0.35939836269E+02 -0.24750314225E+03  0.25451102149E+03  0.10000000000E+01 0.  0.
<mgrwt>
<rscale>  0 0.12500357E+03</rscale>
<asrwt>0</asrwt>
<pdfrwt beam="2">  1        4 0.58717783E-01 0.12500357E+03</pdfrwt>
<pdfrwt beam="1">  1       -4 0.15746662E-02 0.12500357E+03</pdfrwt>
<totfact> 0.65343035E+03</totfact>
</mgrwt>
</event>
<event>
 5    1  0.3317939E-002  0.1250015E+03  0.7818608E-02  0.1235067E+00
          4   -1    0    0  501    0  0.00000000000E+00  0.00000000000E+00  0.56025128450E+02  0.56039521035E+02  0.12700000000E+01 0. -1.
         -4   -1    0    0    0  501 -0.00000000000E+00 -0.00000000000E+00 -0.69695703995E+02  0.69707274049E+02  0.12700000000E+01 0. -1.
         25    2    1    2    0    0  0.00000000000E+00  0.00000000000E+00 -0.13670575545E+02  0.12574679508E+03  0.12500148734E+03 0.  0.
    9000005    1    3    3    0    0  0.58430676932E+02  0.52548034302E+01 -0.28494711499E+02  0.65228103983E+02  0.10000000000E+01 0.  0.
    9000005    1    3    3    0    0 -0.58430676932E+02 -0.52548034302E+01  0.14824135954E+02  0.60518691101E+02  0.10000000000E+01 0.  0.
<mgrwt>
<rscale>  0 0.12500149E+03</rscale>
<asrwt>0</asrwt>
<pdfrwt beam="1">  1        4 0.86212477E-02 0.12500149E+03</pdfrwt>
<pdfrwt beam="2">  1       -4 0.10724413E-01 0.12500149E+03</pdfrwt>
<totfact> 0.10436165E+04</totfact>
</mgrwt>
</event>
<event>
 5    1  0.3317939E-002  0.1250057E+03  0.7818608E-02  0.1235060E+00
         -4   -1    0    0    0  501 -0.00000000000E+00  0.00000000000E+00  0.14988966134E+03  0.14989504154E+03  0.12700000000E+01 0. -1.
          4   -1    0    0  501    0  0.00000000000E+00 -0.00000000000E+00 -0.26041902325E+02  0.26072851334E+02  0.12700000000E+01 0. -1.
         25    2    1    2    0    0  0.00000000000E+00  0.00000000000E+00  0.12384775902E+03  0.17596789287E+03  0.12500572750E+03 0.  0.
    9000005    1    3    3    0    0  0.66608329399E+01 -0.41892998272E+02  0.12652725040E+03  0.13345237013E+03  0.10000000000E+01 0.  0.
    9000005    1    3    3    0    0 -0.66608329399E+01  0.41892998272E+02 -0.26794913844E+01  0.42515522739E+02  0.10000000000E+01 0.  0.
<mgrwt>
<rscale>  0 0.12500573E+03</rscale>
<asrwt>0</asrwt>
<pdfrwt beam="2">  1        4 0.40092412E-02 0.12500573E+03</pdfrwt>
<pdfrwt beam="1">  1       -4 0.23062742E-01 0.12500573E+03</pdfrwt>
<totfact> 0.94335752E+03</totfact>
</mgrwt>
</event>
<event>
 5    1  0.3317939E-002  0.1249971E+03  0.7818608E-02  0.1235074E+00
         -4   -1    0    0    0  501 -0.00000000000E+00  0.00000000000E+00  0.26450043182E+03  0.26450348076E+03  0.12700000000E+01 0.  1.
          4   -1    0    0  501    0  0.00000000000E+00 -0.00000000000E+00 -0.14737268784E+02  0.14791889373E+02  0.12700000000E+01 0.  1.
         25    2    1    2    0    0  0.00000000000E+00  0.00000000000E+00  0.24976316304E+03  0.27929537013E+03  0.12499706463E+03 0.  0.
    9000005    1    3    3    0    0 -0.26759514806E+02 -0.56122328813E+02  0.11087781749E+03  0.12712465471E+03  0.10000000000E+01 0.  0.
    9000005    1    3    3    0    0  0.26759514806E+02  0.56122328813E+02  0.13888534555E+03  0.15217071542E+03  0.10000000000E+01 0.  0.
<mgrwt>
<rscale>  0 0.12499706E+03</rscale>
<asrwt>0</asrwt>
<pdfrwt beam="2">  1        4 0.22717084E-02 0.12499706E+03</pdfrwt>
<pdfrwt beam="1">  1       -4 0.40696807E-01 0.12499706E+03</pdfrwt>
<totfact> 0.78276736E+03</totfact>
</mgrwt>
</event>
<event>
 5    1  0.3317939E-002  0.1250022E+03  0.7818608E-02  0.1235066E+00
          4   -1    0    0  501    0  0.00000000000E+00  0.00000000000E+00  0.94190822242E+01  0.95043153329E+01  0.12700000000E+01 0.  1.
         -4   -1    0    0    0  501 -0.00000000000E+00 -0.00000000000E+00 -0.41277705725E+03  0.41277901096E+03  0.12700000000E+01 0.  1.
         25    2    1    2    0    0  0.00000000000E+00  0.00000000000E+00 -0.40335797502E+03  0.42228332629E+03  0.12500220658E+03 0.  0.
    9000005    1    3    3    0    0 -0.82227838099E+01 -0.48435445672E+02 -0.71200522201E+02  0.86510813964E+02  0.10000000000E+01 0.  0.
    9000005    1    3    3    0    0  0.82227838099E+01  0.48435445672E+02 -0.33215745282E+03  0.33577251233E+03  0.10000000000E+01 0.  0.
<mgrwt>
<rscale>  0 0.12500221E+03</rscale>
<asrwt>0</asrwt>
<pdfrwt beam="1">  1        4 0.14557966E-02 0.12500221E+03</pdfrwt>
<pdfrwt beam="2">  1       -4 0.63510855E-01 0.12500221E+03</pdfrwt>
<totfact> 0.62438711E+03</totfact>
</mgrwt>
</event>
<event>
 5    1  0.3317939E-002  0.1249975E+03  0.7818608E-02  0.1235073E+00
          4   -1    0    0  501    0  0.00000000000E+00  0.00000000000E+00  0.36152863575E+03  0.36153086641E+03  0.12700000000E+01 0.  1.
         -4   -1    0    0    0  501 -0.00000000000E+00 -0.00000000000E+00 -0.10764795293E+02  0.10839451910E+02  0.12700000000E+01 0.  1.
         25    2    1    2    0    0  0.00000000000E+00  0.00000000000E+00  0.35076384046E+03  0.37237031832E+03  0.12499752875E+03 0.  0.
    9000005    1    3    3    0    0  0.47221698878E+02 -0.31457828636E+02  0.97378661619E+02  0.11270797472E+03  0.10000000000E+01 0.  0.
    9000005    1    3    3    0    0 -0.47221698878E+02  0.31457828636E+02  0.25338517884E+03  0.25966234360E+03  0.10000000000E+01 0.  0.
<mgrwt>
<rscale>  0 0.12499753E+03</rscale>
<asrwt>0</asrwt>
<pdfrwt beam="1">  1        4 0.55625699E-01 0.12499753E+03</pdfrwt>
<pdfrwt beam="2">  1       -4 0.16620369E-02 0.12499753E+03</pdfrwt>
<totfact> 0.67335365E+03</totfact>
</mgrwt>
</event>
<event>
 5    1  0.3317939E-002  0.1250036E+03  0.7818608E-02  0.1235064E+00
         -4   -1    0    0    0  501 -0.00000000000E+00  0.00000000000E+00  0.54483743879E+03  0.54483891896E+03  0.12700000000E+01 0.  1.
          4   -1    0    0  501    0  0.00000000000E+00 -0.00000000000E+00 -0.71122485053E+01  0.72247476635E+01  0.12700000000E+01 0.  1.
         25    2    1    2    0    0  0.00000000000E+00  0.00000000000E+00  0.53772519029E+03  0.55206366662E+03  0.12500364688E+03 0.  0.
    9000005    1    3    3    0    0  0.56949475264E+02  0.10266644174E+02  0.37307712408E+03  0.37753964987E+03  0.10000000000E+01 0.  0.
    9000005    1    3    3    0    0 -0.56949475264E+02 -0.10266644174E+02  0.16464806621E+03  0.17452401675E+03  0.10000000000E+01 0.  0.
<mgrwt>
<rscale>  0 0.12500365E+03</rscale>
<asrwt>0</asrwt>
<pdfrwt beam="2">  1        4 0.11029596E-02 0.12500365E+03</pdfrwt>
<pdfrwt beam="1">  1       -4 0.83829923E-01 0.12500365E+03</pdfrwt>
<totfact> 0.52036221E+03</totfact>
</mgrwt>
</event>
<event>
 5    1  0.3317939E-002  0.1250048E+03  0.7818608E-02  0.1235062E+00
          4   -1    0    0  501    0  0.00000000000E+00  0.00000000000E+00  0.26221102508E+02  0.26251840254E+02  0.12700000000E+01 0. -1.
         -4   -1    0    0    0  501 -0.00000000000E+00 -0.00000000000E+00 -0.14886413527E+03  0.14886955253E+03  0.12700000000E+01 0. -1.
         25    2    1    2    0    0  0.00000000000E+00  0.00000000000E+00 -0.12264303276E+03  0.17512139278E+03  0.12500475481E+03 0.  0.
    9000005    1    3    3    0    0  0.18733440763E+02 -0.50541171219E+02 -0.17016276292E+02  0.56532339858E+02  0.10000000000E+01 0.  0.
    9000005    1    3    3    0    0 -0.18733440763E+02  0.50541171219E+02 -0.10562675647E+03  0.11858905292E+03  0.10000000000E+01 0.  0.
<mgrwt>
<rscale>  0 0.12500475E+03</rscale>
<asrwt>0</asrwt>
<pdfrwt beam="1">  1        4 0.40367970E-02 0.12500475E+03</pdfrwt>
<pdfrwt beam="2">  1       -4 0.22904955E-01 0.12500475E+03</pdfrwt>
<totfact> 0.94492533E+03</totfact>
</mgrwt>
</event>
<event>
 5    1  0.3317939E-002  0.1249982E+03  0.7818608E-02  0.1235072E+00
          4   -1    0    0  501    0  0.00000000000E+00  0.00000000000E+00  0.21651995016E+02  0.21689209026E+02  0.12700000000E+01 0.  1.
         -4   -1    0    0    0  501 -0.00000000000E+00 -0.00000000000E+00 -0.18021097238E+03  0.18021544736E+03  0.12700000000E+01 0.  1.
         25    2    1    2    0    0  0.00000000000E+00  0.00000000000E+00 -0.15855897737E+03  0.20190465639E+03  0.12499816385E+03 0.  0.
    9000005    1    3    3    0    0  0.21381376423E+02  0.42689372380E+02 -0.14440454922E+03  0.15209608676E+03  0.10000000000E+01 0.  0.
    9000005    1    3    3    0    0 -0.21381376423E+02 -0.42689372380E+02 -0.14154428145E+02  0.49808569625E+02  0.10000000000E+01 0.  0.
<mgrwt>
<rscale>  0 0.12499816E+03</rscale>
<asrwt>0</asrwt>
<pdfrwt beam="1">  1        4 0.33342831E-02 0.12499816E+03</pdfrwt>
<pdfrwt beam="2">  1       -4 0.27727971E-01 0.12499816E+03</pdfrwt>
<totfact> 0.89818952E+03</totfact>
</mgrwt>
</event>
<event>
 5    1  0.3317939E-002  0.1250078E+03  0.7818608E-02  0.1235057E+00
          4   -1    0    0  501    0  0.00000000000E+00  0.00000000000E+00  0.47723947849E+02  0.47740843083E+02  0.12700000000E+01 0.  1.
         -4   -1    0    0    0  501 -0.00000000000E+00 -0.00000000000E+00 -0.81824794142E+02  0.81834649363E+02  0.12700000000E+01 0.  1.
         25    2    1    2    0    0  0.00000000000E+00  0.00000000000E+00 -0.34100846293E+02  0.12957549245E+03  0.12500776186E+03 0.  0.
    9000005    1    3    3    0    0  0.61733706376E+02 -0.45739157299E+01 -0.25952839298E+02  0.67130626957E+02  0.10000000000E+01 0.  0.
    9000005    1    3    3    0    0 -0.61733706376E+02  0.45739157299E+01 -0.81480069949E+01  0.62444865490E+02  0.10000000000E+01 0.  0.
<mgrwt>
<rscale>  0 0.12500776E+03</rscale>
<asrwt>0</asrwt>
<pdfrwt beam="1">  1        4 0.73442036E-02 0.12500776E+03</pdfrwt>
<pdfrwt beam="2">  1       -4 0.12590488E-01 0.12500776E+03</pdfrwt>
<totfact> 0.10351783E+04</totfact>
</mgrwt>
</event>
<event>
 5    1  0.3317939E-002  0.1250030E+03  0.7818608E-02  0.1235065E+00
         -4   -1    0    0    0  501 -0.00000000000E+00  0.00000000000E+00  0.36115161576E+03  0.36115384875E+03  0.12700000000E+01 0. -1.
          4   -1    0    0  501    0  0.00000000000E+00 -0.00000000000E+00 -0.10777060696E+02  0.10851632930E+02  0.12700000000E+01 0. -1.
         25    2    1    2    0    0  0.00000000000E+00  0.00000000000E+00  0.35037455507E+03  0.37200548168E+03  0.12500299822E+03 0.  0.
    9000005    1    3    3    0    0  0.48928584868E+02 -0.31854450995E+02  0.10886080720E+03  0.12353294220E+03  0.10000000000E+01 0.  0.
    9000005    1    3    3    0    0 -0.48928584868E+02  0.31854450995E+02  0.24151374787E+03  0.24847253948E+03  0.10000000000E+01 0.  0.
<mgrwt>
<rscale>  0 0.12500300E+03</rscale>
<asrwt>0</asrwt>
<pdfrwt beam="2">  1        4 0.16639172E-02 0.12500300E+03</pdfrwt>
<pdfrwt beam="1">  1       -4 0.55567702E-01 0.12500300E+03</pdfrwt>
<totfact> 0.67365176E+03</totfact>
</mgrwt>
</event>
<event>
 5    1  0.3317939E-002  0.1250058E+03  0.7818608E-02  0.1235060E+00
         -4   -1    0    0    0  501 -0.00000000000E+00  0.00000000000E+00  0.13255342395E+02  0.13316043032E+02  0.12700000000E+01 0. -1.
          4   -1    0    0  501    0  0.00000000000E+00 -0.00000000000E+00 -0.29398447660E+03  0.29398721976E+03  0.12700000000E+01 0. -1.
         25    2    1    2    0    0  0.00000000000E+00  0.00000000000E+00 -0.28072913421E+03  0.30730326279E+03  0.12500579399E+03 0.  0.
    9000005    1    3    3    0    0  0.90660752452E+01  0.20085876492E+02  0.33989060499E+01  0.22320141512E+02  0.10000000000E+01 0.  0.
    9000005    1    3    3    0    0 -0.90660752452E+01 -0.20085876492E+02 -0.28412804026E+03  0.28498312128E+03  0.10000000000E+01 0.  0.
<mgrwt>
<rscale>  0 0.12500579E+03</rscale>
<asrwt>0</asrwt>
<pdfrwt beam="2">  1        4 0.45233256E-01 0.12500579E+03</pdfrwt>
<pdfrwt beam="1">  1       -4 0.20441640E-02 0.12500579E+03</pdfrwt>
<totfact> 0.74682169E+03</totfact>
</mgrwt>
</event>
<event>
 5    1  0.3317939E-002  0.1249884E+03  0.7818608E-02  0.1235087E+00
         -4   -1    0    0    0  501 -0.00000000000E+00  0.00000000000E+00  0.74427281406E+02  0.74438116026E+02  0.12700000000E+01 0.  1.
          4   -1    0    0  501    0  0.00000000000E+00 -0.00000000000E+00 -0.52452035770E+02  0.52467408517E+02  0.12700000000E+01 0.  1.
         25    2    1    2    0    0  0.00000000000E+00  0.00000000000E+00  0.21975245636E+02  0.12690552454E+03  0.12498840242E+03 0.  0.
    9000005    1    3    3    0    0  0.22937964298E+02 -0.57578734116E+02  0.19050736712E+02  0.64848989181E+02  0.10000000000E+01 0.  0.
    9000005    1    3    3    0    0 -0.22937964298E+02  0.57578734116E+02  0.29245089235E+01  0.62056535361E+02  0.10000000000E+01 0.  0.
<mgrwt>
<rscale>  0 0.12498840E+03</rscale>
<asrwt>0</asrwt>
<pdfrwt beam="2">  1        4 0.80715600E-02 0.12498840E+03</pdfrwt>
<pdfrwt beam="1">  1       -4 0.11452367E-01 0.12498840E+03</pdfrwt>
<totfact> 0.10413925E+04</totfact>
</mgrwt>
</event>
<event>
 5    1  0.3317939E-002  0.1249955E+03  0.7818608E-02  0.1235076E+00
         -4   -1    0    0    0  501 -0.00000000000E+00  0.00000000000E+00  0.10214828297E+03  0.10215617756E+03  0.12700000000E+01 0. -1.
          4   -1    0    0  501    0  0.00000000000E+00 -0.00000000000E+00 -0.38218328411E+02  0.38239423721E+02  0.12700000000E+01 0. -1.
         25    2    1    2    0    0  0.00000000000E+00  0.00000000000E+00  0.63929954563E+02  0.14039560129E+03  0.12499554300E+03 0.  0.
    9000005    1    3    3    0    0  0.35016872954E+02 -0.21840536512E+02 -0.20739320962E+02  0.46198591543E+02  0.10000000000E+01 0.  0.
    9000005    1    3    3    0    0 -0.35016872954E+02  0.21840536512E+02  0.84669275525E+02  0.94197009743E+02  0.10000000000E+01 0.  0.
<mgrwt>
<rscale>  0 0.12499554E+03</rscale>
<asrwt>0</asrwt>
<pdfrwt beam="2">  1        4 0.58819728E-02 0.12499554E+03</pdfrwt>
<pdfrwt beam="1">  1       -4 0.15717350E-01 0.12499554E+03</pdfrwt>
<totfact> 0.10126410E+04</totfact>
</mgrwt>
</event>
<event>
 5    1  0.3317939E-002  0.1249999E+03  0.7818608E-02  0.1235069E+00
         -4   -1    0    0    0  501 -0.00000000000E+00  0.00000000000E+00  0.14625001310E+01  0.19369580876E+01  0.12700000000E+01 0.  1.
          4   -1    0    0  501    0  0.00000000000E+00 -0.00000000000E+00 -0.22976818281E+04  0.22976821791E+04  0.12700000000E+01 0.  1.
         25    2    1    2    0    0  0.00000000000E+00  0.00000000000E+00 -0.22962193280E+04  0.22996191372E+04  0.12499989563E+03 0.  0.
    9000005    1    3    3    0    0  0.46823120560E+02  0.21529479495E+02 -0.17983638766E+04  0.17991024306E+04  0.10000000000E+01 0.  0.
    9000005    1    3    3    0    0 -0.46823120560E+02 -0.21529479495E+02 -0.49785545133E+03  0.50051670654E+03  0.10000000000E+01 0.  0.
<mgrwt>
<rscale>  0 0.12499990E+03</rscale>
<asrwt>0</asrwt>
<pdfrwt beam="2">  1        4 0.35352355E+00 0.12499990E+03</pdfrwt>
<pdfrwt beam="1">  1       -4 0.26152562E-03 0.12499990E+03</pdfrwt>
<totfact> 0.64401808E+02</totfact>
</mgrwt>
</event>
<event>
 5    1  0.3317939E-002  0.1249992E+03  0.7818608E-02  0.1235071E+00
         -4   -1    0    0    0  501 -0.00000000000E+00  0.00000000000E+00  0.68779106728E+02  0.68790830947E+02  0.12700000000E+01 0.  1.
          4   -1    0    0  501    0  0.00000000000E+00 -0.00000000000E+00 -0.56769749158E+02  0.56783953010E+02  0.12700000000E+01 0.  1.
         25    2    1    2    0    0  0.00000000000E+00  0.00000000000E+00  0.12009357571E+02  0.12557478396E+03  0.12499920678E+03 0.  0.
    9000005    1    3    3    0    0  0.12613488680E+02  0.32081820755E+02  0.58368168385E+02  0.67795179772E+02  0.10000000000E+01 0.  0.
    9000005    1    3    3    0    0 -0.12613488680E+02 -0.32081820755E+02 -0.46358810814E+02  0.57779604185E+02  0.10000000000E+01 0.  0.
<mgrwt>
<rscale>  0 0.12499921E+03</rscale>
<asrwt>0</asrwt>
<pdfrwt beam="2">  1        4 0.87358020E-02 0.12499921E+03</pdfrwt>
<pdfrwt beam="1">  1       -4 0.10583395E-01 0.12499921E+03</pdfrwt>
<totfact> 0.10440490E+04</totfact>
</mgrwt>
</event>
<event>
 5    1  0.3317939E-002  0.1249940E+03  0.7818608E-02  0.1235079E+00
          4   -1    0    0  501    0  0.00000000000E+00  0.00000000000E+00  0.56829357750E+03  0.56829499657E+03  0.12700000000E+01 0. -1.
         -4   -1    0    0    0  501 -0.00000000000E+00 -0.00000000000E+00 -0.68128769799E+01  0.69302375676E+01  0.12700000000E+01 0. -1.
         25    2    1    2    0    0  0.00000000000E+00  0.00000000000E+00  0.56148070052E+03  0.57522523414E+03  0.12499397159E+03 0.  0.
    9000005    1    3    3    0    0 -0.18537538092E+02  0.58601061264E+02  0.22884785673E+03  0.23696005197E+03  0.10000000000E+01 0.  0.
    9000005    1    3    3    0    0  0.18537538092E+02 -0.58601061264E+02  0.33263284379E+03  0.33826518217E+03  0.10000000000E+01 0.  0.
<mgrwt>
<rscale>  0 0.12499397E+03</rscale>
<asrwt>0</asrwt>
<pdfrwt beam="1">  1        4 0.87438897E-01 0.12499397E+03</pdfrwt>
<pdfrwt beam="2">  1       -4 0.10572721E-02 0.12499397E+03</pdfrwt>
<totfact> 0.50476448E+03</totfact>
</mgrwt>
</event>
<event>
 5    1  0.3317939E-002  0.1250027E+03  0.7818608E-02  0.1235065E+00
          4   -1    0    0  501    0  0.00000000000E+00  0.00000000000E+00  0.69962085867E+02  0.69973611875E+02  0.12700000000E+01 0. -1.
         -4   -1    0    0    0  501 -0.00000000000E+00 -0.00000000000E+00 -0.55812850539E+02  0.55827297851E+02  0.12700000000E+01 0. -1.
         25    2    1    2    0    0  0.00000000000E+00  0.00000000000E+00  0.14149235328E+02  0.12580090973E+03  0.12500267208E+03 0.  0.
    9000005    1    3    3    0    0  0.33534443998E+02  0.19882763370E+02 -0.42079201978E+02  0.57371965738E+02  0.10000000000E+01 0.  0.
    9000005    1    3    3    0    0 -0.33534443998E+02 -0.19882763370E+02  0.56228437306E+02  0.68428943988E+02  0.10000000000E+01 0.  0.
<mgrwt>
<rscale>  0 0.12500267E+03</rscale>
<asrwt>0</asrwt>
<pdfrwt beam="1">  1        4 0.10765396E-01 0.12500267E+03</pdfrwt>
<pdfrwt beam="2">  1       -4 0.85885904E-02 0.12500267E+03</pdfrwt>
<totfact> 0.10434696E+04</totfact>
</mgrwt>
</event>
<event>
 5    1  0.3317939E-002  0.1249997E+03  0.7818608E-02  0.1235070E+00
          4   -1    0    0  501    0  0.00000000000E+00  0.00000000000E+00  0.45060890585E+01  0.46816384529E+01  0.12700000000E+01 0. -1.
         -4   -1    0    0    0  501 -0.00000000000E+00 -0.00000000000E+00 -0.85013915903E+03  0.85014010764E+03  0.12700000000E+01 0. -1.
         25    2    1    2    0    0  0.00000000000E+00  0.00000000000E+00 -0.84563306997E+03  0.85482174609E+03  0.12499971425E+03 0.  0.
    9000005    1    3    3    0    0 -0.44865375836E+02  0.14268315283E+02 -0.14178915963E+03  0.14940432577E+03  0.10000000000E+01 0.  0.
    9000005    1    3    3    0    0  0.44865375836E+02 -0.14268315283E+02 -0.70384391034E+03  0.70541742033E+03  0.10000000000E+01 0.  0.
<mgrwt>
<rscale>  0 0.12499971E+03</rscale>
<asrwt>0</asrwt>
<pdfrwt beam="1">  1        4 0.70682192E-03 0.12499971E+03</pdfrwt>
<pdfrwt beam="2">  1       -4 0.13080409E+00 0.12499971E+03</pdfrwt>
<totfact> 0.35931077E+03</totfact>
</mgrwt>
</event>
<event>
 5    1  0.3317939E-002  0.1250007E+03  0.7818608E-02  0.1235068E+00
          4   -1    0    0  501    0  0.00000000000E+00  0.00000000000E+00  0.39298327336E+03  0.39298532548E+03  0.12700000000E+01 0.  1.
         -4   -1    0    0    0  501 -0.00000000000E+00 -0.00000000000E+00 -0.98974435098E+01  0.99785914853E+01  0.12700000000E+01 0.  1.
         25    2    1    2    0    0  0.00000000000E+00  0.00000000000E+00  0.38308582985E+03  0.40296391697E+03  0.12500066137E+03 0.  0.
    9000005    1    3    3    0    0 -0.60779092773E+02 -0.14522553113E+02  0.19327493687E+03  0.20312854032E+03  0.10000000000E+01 0.  0.
    9000005    1    3    3    0    0  0.60779092773E+02  0.14522553113E+02  0.18981089298E+03  0.19983537665E+03  0.10000000000E+01 0.  0.
<mgrwt>
<rscale>  0 0.12500066E+03</rscale>
<asrwt>0</asrwt>
<pdfrwt beam="1">  1        4 0.60465363E-01 0.12500066E+03</pdfrwt>
<pdfrwt beam="2">  1       -4 0.15290837E-02 0.12500066E+03</pdfrwt>
<totfact> 0.64264601E+03</totfact>
</mgrwt>
</event>
<event>
 5    1  0.3317939E-002  0.1249995E+03  0.7818608E-02  0.1235070E+00
          4   -1    0    0  501    0  0.00000000000E+00  0.00000000000E+00  0.58445817835E+02  0.58459614457E+02  0.12700000000E+01 0. -1.
         -4   -1    0    0    0  501 -0.00000000000E+00 -0.00000000000E+00 -0.66807197679E+02  0.66819267893E+02  0.12700000000E+01 0. -1.
         25    2    1    2    0    0  0.00000000000E+00  0.00000000000E+00 -0.83613798439E+01  0.12527888235E+03  0.12499954276E+03 0.  0.
    9000005    1    3    3    0    0  0.16968395703E+02  0.52630644846E+02  0.24992952886E+02  0.60692330023E+02  0.10000000000E+01 0.  0.
    9000005    1    3    3    0    0 -0.16968395703E+02 -0.52630644846E+02 -0.33354332729E+02  0.64586552327E+02  0.10000000000E+01 0.  0.
<mgrwt>
<rscale>  0 0.12499954E+03</rscale>
<asrwt>0</asrwt>
<pdfrwt beam="1">  1        4 0.89936540E-02 0.12499954E+03</pdfrwt>
<pdfrwt beam="2">  1       -4 0.10280020E-01 0.12499954E+03</pdfrwt>
<totfact> 0.10446916E+04</totfact>
</mgrwt>
</event>
<event>
 5    1  0.3317939E-002  0.1250026E+03  0.7818608E-02  0.1235065E+00
         -4   -1    0    0    0  501 -0.00000000000E+00  0.00000000000E+00  0.17845238291E+03  0.17845690199E+03  0.12700000000E+01 0. -1.
          4   -1    0    0  501    0  0.00000000000E+00 -0.00000000000E+00 -0.21867277532E+02  0.21904125791E+02  0.12700000000E+01 0. -1.
         25    2    1    2    0    0  0.00000000000E+00  0.00000000000E+00  0.15658510538E+03  0.20036102778E+03  0.12500258488E+03 0.  0.
    9000005    1    3    3    0    0 -0.15289510351E+02 -0.36570592294E+02  0.15573275375E+03  0.16070117590E+03  0.10000000000E+01 0.  0.
    9000005    1    3    3    0    0  0.15289510351E+02  0.36570592294E+02  0.85235163596E+00  0.39659851876E+02  0.10000000000E+01 0.  0.
<mgrwt>
<rscale>  0 0.12500258E+03</rscale>
<asrwt>0</asrwt>
<pdfrwt beam="2">  1        4 0.33673785E-02 0.12500258E+03</pdfrwt>
<pdfrwt beam="1">  1       -4 0.27457396E-01 0.12500258E+03</pdfrwt>
<totfact> 0.90069440E+03</totfact>
</mgrwt>
</event>
<event>
 5    1  0.3317939E-002  0.1249995E+03  0.7818608E-02  0.1235070E+00
          4   -1    0    0  501    0  0.00000000000E+00  0.00000000000E+00  0.30145478251E+02  0.30172218331E+02  0.12700000000E+01 0.  1.
         -4   -1    0    0    0  501 -0.00000000000E+00 -0.00000000000E+00 -0.12949166306E+03  0.12949789073E+03  0.12700000000E+01 0.  1.
         25    2    1    2    0    0  0.00000000000E+00  0.00000000000E+00 -0.99346184811E+02  0.15967010906E+03  0.12499951716E+03 0.  0.
    9000005    1    3    3    0    0  0.56629371404E+02 -0.26423028719E+02 -0.49165879805E+02  0.79519468618E+02  0.10000000000E+01 0.  0.
    9000005    1    3    3    0    0 -0.56629371404E+02  0.26423028719E+02 -0.50180305005E+02  0.80150640439E+02  0.10000000000E+01 0.  0.
<mgrwt>
<rscale>  0 0.12499952E+03</rscale>
<asrwt>0</asrwt>
<pdfrwt beam="1">  1        4 0.46403019E-02 0.12499952E+03</pdfrwt>
<pdfrwt beam="2">  1       -4 0.19924330E-01 0.12499952E+03</pdfrwt>
<totfact> 0.97407480E+03</totfact>
</mgrwt>
</event>
<event>
 5    1  0.3317939E-002  0.1249960E+03  0.7818608E-02  0.1235076E+00
         -4   -1    0    0    0  501 -0.00000000000E+00  0.00000000000E+00  0.20753121401E+03  0.20753509990E+03  0.12700000000E+01 0.  1.
          4   -1    0    0  501    0  0.00000000000E+00 -0.00000000000E+00 -0.18795771417E+02  0.18838628484E+02  0.12700000000E+01 0.  1.
         25    2    1    2    0    0  0.00000000000E+00  0.00000000000E+00  0.18873544260E+03  0.22637372838E+03  0.12499599037E+03 0.  0.
    9000005    1    3    3    0    0 -0.44759497471E+02 -0.26625577036E+02  0.15691224053E+03  0.16533234770E+03  0.10000000000E+01 0.  0.
    9000005    1    3    3    0    0  0.44759497471E+02  0.26625577036E+02  0.31823202067E+02  0.61041380687E+02  0.10000000000E+01 0.  0.
<mgrwt>
<rscale>  0 0.12499599E+03</rscale>
<asrwt>0</asrwt>
<pdfrwt beam="2">  1        4 0.28952526E-02 0.12499599E+03</pdfrwt>
<pdfrwt beam="1">  1       -4 0.31931477E-01 0.12499599E+03</pdfrwt>
<totfact> 0.85877225E+03</totfact>
</mgrwt>
</event>
<event>
 5    1  0.3317939E-002  0.1249990E+03  0.7818608E-02  0.1235071E+00
         -4   -1    0    0    0  501 -0.00000000000E+00  0.00000000000E+00  0.15329159599E+02  0.15381678517E+02  0.12700000000E+01 0.  1.
          4   -1    0    0  501    0  0.00000000000E+00 -0.00000000000E+00 -0.25433093033E+03  0.25433410118E+03  0.12700000000E+01 0.  1.
         25    2    1    2    0    0  0.00000000000E+00  0.00000000000E+00 -0.23900177073E+03  0.26971577970E+03  0.12499902161E+03 0.  0.
    9000005    1    3    3    0    0  0.36373653762E+02  0.49829738699E+02 -0.98016079359E+02  0.11581967605E+03  0.10000000000E+01 0.  0.
    9000005    1    3    3    0    0 -0.36373653762E+02 -0.49829738699E+02 -0.14098569137E+03  0.15389610365E+03  0.10000000000E+01 0.  0.
<mgrwt>
<rscale>  0 0.12499902E+03</rscale>
<asrwt>0</asrwt>
<pdfrwt beam="2">  1        4 0.39132116E-01 0.12499902E+03</pdfrwt>
<pdfrwt beam="1">  1       -4 0.23626163E-02 0.12499902E+03</pdfrwt>
<totfact> 0.79563365E+03</totfact>
</mgrwt>
</event>
<event>
 5    1  0.3317939E-002  0.1249948E+03  0.7818608E-02  0.1235077E+00
         -4   -1    0    0    0  501 -0.00000000000E+00  0.00000000000E+00  0.26415722522E+03  0.26416027812E+03  0.12700000000E+01 0. -1.
          4   -1    0    0  501    0  0.00000000000E+00 -0.00000000000E+00 -0.14755941848E+02  0.14810493571E+02  0.12700000000E+01 0. -1.
         25    2    1    2    0    0  0.00000000000E+00  0.00000000000E+00  0.24940128338E+03  0.27897077169E+03  0.12499476513E+03 0.  0.
    9000005    1    3    3    0    0  0.40037505036E+02  0.19806671873E+02  0.27170245455E+02  0.52292717450E+02  0.10000000000E+01 0.  0.
    9000005    1    3    3    0    0 -0.40037505036E+02 -0.19806671873E+02  0.22223103792E+03  0.22667805424E+03  0.10000000000E+01 0.  0.
<mgrwt>
<rscale>  0 0.12499477E+03</rscale>
<asrwt>0</asrwt>
<pdfrwt beam="2">  1        4 0.22745762E-02 0.12499477E+03</pdfrwt>
<pdfrwt beam="1">  1       -4 0.40644002E-01 0.12499477E+03</pdfrwt>
<totfact> 0.78323887E+03</totfact>
</mgrwt>
</event>
<event>
 5    1  0.3317939E-002  0.1249999E+03  0.7818608E-02  0.1235070E+00
         -4   -1    0    0    0  501 -0.00000000000E+00  0.00000000000E+00  0.79064334454E+02  0.79074533718E+02  0.12700000000E+01 0.  1.
          4   -1    0    0  501    0  0.00000000000E+00 -0.00000000000E+00 -0.49384302315E+02  0.49400629704E+02  0.12700000000E+01 0.  1.
         25    2    1    2    0    0  0.00000000000E+00  0.00000000000E+00  0.29680032139E+02  0.12847516342E+03  0.12499985323E+03 0.  0.
    9000005    1    3    3    0    0  0.24411411978E+02  0.34939899075E+02 -0.32130977650E+02  0.53386452465E+02  0.10000000000E+01 0.  0.
    9000005    1    3    3    0    0 -0.24411411978E+02 -0.34939899075E+02  0.61811009789E+02  0.75088710957E+02  0.10000000000E+01 0.  0.
<mgrwt>
<rscale>  0 0.12499985E+03</rscale>
<asrwt>0</asrwt>
<pdfrwt beam="2">  1        4 0.75996256E-02 0.12499985E+03</pdfrwt>
<pdfrwt beam="1">  1       -4 0.12165784E-01 0.12499985E+03</pdfrwt>
<totfact> 0.10377273E+04</totfact>
</mgrwt>
</event>
<event>
 5    1  0.3317939E-002  0.1249998E+03  0.7818608E-02  0.1235070E+00
          4   -1    0    0  501    0  0.00000000000E+00  0.00000000000E+00  0.25851518800E+03  0.25851830752E+03  0.12700000000E+01 0.  1.
         -4   -1    0    0    0  501 -0.00000000000E+00 -0.00000000000E+00 -0.15080372205E+02  0.15133754519E+02  0.12700000000E+01 0.  1.
         25    2    1    2    0    0  0.00000000000E+00  0.00000000000E+00  0.24343481579E+03  0.27365206204E+03  0.12499976608E+03 0.  0.
    9000005    1    3    3    0    0  0.26251744856E+01 -0.56803290078E+02  0.64977722759E+02  0.86351663329E+02  0.10000000000E+01 0.  0.
    9000005    1    3    3    0    0 -0.26251744856E+01  0.56803290078E+02  0.17845709303E+03  0.18730039871E+03  0.10000000000E+01 0.  0.
<mgrwt>
<rscale>  0 0.12499977E+03</rscale>
<asrwt>0</asrwt>
<pdfrwt beam="1">  1        4 0.39775910E-01 0.12499977E+03</pdfrwt>
<pdfrwt beam="2">  1       -4 0.23244038E-02 0.12499977E+03</pdfrwt>
<totfact> 0.79027808E+03</totfact>
</mgrwt>
</event>
<event>
 5    1  0.3317939E-002  0.1250223E+03  0.7818608E-02  0.1235034E+00
         -4   -1    0    0    0  501 -0.00000000000E+00  0.00000000000E+00  0.12967869511E+02  0.13029909426E+02  0.12700000000E+01 0.  1.
          4   -1    0    0  501    0  0.00000000000E+00 -0.00000000000E+00 -0.30055016420E+03  0.30055284744E+03  0.12700000000E+01 0.  1.
         25    2    1    2    0    0  0.00000000000E+00  0.00000000000E+00 -0.28758229469E+03  0.31358275686E+03  0.12502227474E+03 0.  0.
    9000005    1    3    3    0    0  0.43171199022E+02 -0.26652281936E+02 -0.52231135608E+02  0.72822991454E+02  0.10000000000E+01 0.  0.
    9000005    1    3    3    0    0 -0.43171199022E+02  0.26652281936E+02 -0.23535115909E+03  0.24075976541E+03  0.10000000000E+01 0.  0.
<mgrwt>
<rscale>  0 0.12502227E+03</rscale>
<asrwt>0</asrwt>
<pdfrwt beam="2">  1        4 0.46243460E-01 0.12502227E+03</pdfrwt>
<pdfrwt beam="1">  1       -4 0.20000358E-02 0.12502227E+03</pdfrwt>
<totfact> 0.73889426E+03</totfact>
</mgrwt>
</event>
<event>
 5    1  0.3317939E-002  0.1249985E+03  0.7818608E-02  0.1235072E+00
          4   -1    0    0  501    0  0.00000000000E+00  0.00000000000E+00  0.10835543959E+03  0.10836288197E+03  0.12700000000E+01 0. -1.
         -4   -1    0    0    0  501 -0.00000000000E+00 -0.00000000000E+00 -0.36029618206E+02  0.36051994231E+02  0.12700000000E+01 0. -1.
         25    2    1    2    0    0  0.00000000000E+00  0.00000000000E+00  0.72325821383E+02  0.14441487620E+03  0.12499852811E+03 0.  0.
    9000005    1    3    3    0    0  0.28666558871E+02 -0.48987457646E+02  0.59555380592E+01  0.57078989460E+02  0.10000000000E+01 0.  0.
    9000005    1    3    3    0    0 -0.28666558871E+02  0.48987457646E+02  0.66370283324E+02  0.87335886740E+02  0.10000000000E+01 0.  0.
<mgrwt>
<rscale>  0 0.12499853E+03</rscale>
<asrwt>0</asrwt>
<pdfrwt beam="1">  1        4 0.16672361E-01 0.12499853E+03</pdfrwt>
<pdfrwt beam="2">  1       -4 0.55453120E-02 0.12499853E+03</pdfrwt>
<totfact> 0.10043223E+04</totfact>
</mgrwt>
</event>
<event>
 5    1  0.3317939E-002  0.1249955E+03  0.7818608E-02  0.1235076E+00
         -4   -1    0    0    0  501 -0.00000000000E+00  0.00000000000E+00  0.53690385360E+02  0.53705403640E+02  0.12700000000E+01 0.  1.
          4   -1    0    0  501    0  0.00000000000E+00 -0.00000000000E+00 -0.72719148804E+02  0.72730237885E+02  0.12700000000E+01 0.  1.
         25    2    1    2    0    0  0.00000000000E+00  0.00000000000E+00 -0.19028763444E+02  0.12643564152E+03  0.12499551036E+03 0.  0.
    9000005    1    3    3    0    0 -0.30907980757E+02 -0.44643054734E+02 -0.40800722459E+02  0.67926464383E+02  0.10000000000E+01 0.  0.
    9000005    1    3    3    0    0  0.30907980757E+02  0.44643054734E+02  0.21771959015E+02  0.58509177141E+02  0.10000000000E+01 0.  0.
<mgrwt>
<rscale>  0 0.12499551E+03</rscale>
<asrwt>0</asrwt>
<pdfrwt beam="2">  1        4 0.11189570E-01 0.12499551E+03</pdfrwt>
<pdfrwt beam="1">  1       -4 0.82620675E-02 0.12499551E+03</pdfrwt>
<totfact> 0.10422488E+04</totfact>
</mgrwt>
</event>
<event>
 5    1  0.3317939E-002  0.1250026E+03  0.7818608E-02  0.1235065E+00
          4   -1    0    0  501    0  0.00000000000E+00  0.00000000000E+00  0.10219928432E+02  0.10298535680E+02  0.12700000000E+01 0.  1.
         -4   -1    0    0    0  501 -0.00000000000E+00 -0.00000000000E+00 -0.38069082447E+03  0.38069294285E+03  0.12700000000E+01 0.  1.
         25    2    1    2    0    0  0.00000000000E+00  0.00000000000E+00 -0.37047089603E+03  0.39099147853E+03  0.12500260586E+03 0.  0.
    9000005    1    3    3    0    0 -0.26643007029E+02  0.17145968179E+02 -0.35372206563E+03  0.35513959757E+03  0.10000000000E+01 0.  0.
    9000005    1    3    3    0    0  0.26643007029E+02 -0.17145968179E+02 -0.16748830408E+02  0.35851880960E+02  0.10000000000E+01 0.  0.
<mgrwt>
<rscale>  0 0.12500261E+03</rscale>
<asrwt>0</asrwt>
<pdfrwt beam="1">  1        4 0.15785066E-02 0.12500261E+03</pdfrwt>
<pdfrwt beam="2">  1       -4 0.58574018E-01 0.12500261E+03</pdfrwt>
<totfact> 0.65434718E+03</totfact>
</mgrwt>
</event>
<event>
 5    1  0.3317939E-002  0.1250032E+03  0.7818608E-02  0.1235064E+00
          4   -1    0    0  501    0  0.00000000000E+00  0.00000000000E+00  0.74893055298E+02  0.74903822545E+02  0.12700000000E+01 0.  1.
         -4   -1    0    0    0  501 -0.00000000000E+00 -0.00000000000E+00 -0.52138099445E+02  0.52153564727E+02  0.12700000000E+01 0.  1.
         25    2    1    2    0    0  0.00000000000E+00  0.00000000000E+00  0.22754955853E+02  0.12705738727E+03  0.12500316654E+03 0.  0.
    9000005    1    3    3    0    0  0.32754463520E+02 -0.49318701803E+02  0.31712717210E+02  0.67170571390E+02  0.10000000000E+01 0.  0.
    9000005    1    3    3    0    0 -0.32754463520E+02  0.49318701803E+02 -0.89577613566E+01  0.59886815882E+02  0.10000000000E+01 0.  0.
<mgrwt>
<rscale>  0 0.12500317E+03</rscale>
<asrwt>0</asrwt>
<pdfrwt beam="1">  1        4 0.11524026E-01 0.12500317E+03</pdfrwt>
<pdfrwt beam="2">  1       -4 0.80232640E-02 0.12500317E+03</pdfrwt>
<totfact> 0.10407155E+04</totfact>
</mgrwt>
</event>
<event>
 5    1  0.3317939E-002  0.1250092E+03  0.7818608E-02  0.1235055E+00
          4   -1    0    0  501    0  0.00000000000E+00  0.00000000000E+00  0.53525892881E+03  0.53526043547E+03  0.12700000000E+01 0. -1.
         -4   -1    0    0    0  501 -0.00000000000E+00 -0.00000000000E+00 -0.72421685689E+01  0.73526801631E+01  0.12700000000E+01 0. -1.
         25    2    1    2    0    0  0.00000000000E+00  0.00000000000E+00  0.52801676025E+03  0.54261311563E+03  0.12500917627E+03 0.  0.
    9000005    1    3    3    0    0 -0.29560149019E+02  0.11413710399E+01  0.50296616644E+03  0.50383635213E+03  0.10000000000E+01 0.  0.
    9000005    1    3    3    0    0  0.29560149019E+02 -0.11413710399E+01  0.25050593803E+02  0.38776763503E+02  0.10000000000E+01 0.  0.
<mgrwt>
<rscale>  0 0.12500918E+03</rscale>
<asrwt>0</asrwt>
<pdfrwt beam="1">  1        4 0.82356155E-01 0.12500918E+03</pdfrwt>
<pdfrwt beam="2">  1       -4 0.11227964E-02 0.12500918E+03</pdfrwt>
<totfact> 0.52692715E+03</totfact>
</mgrwt>
</event>
<event>
 5    1  0.3317939E-002  0.1250009E+03  0.7818608E-02  0.1235068E+00
          4   -1    0    0  501    0  0.00000000000E+00  0.00000000000E+00  0.17817008189E+04  0.17817012715E+04  0.12700000000E+01 0. -1.
         -4   -1    0    0    0  501 -0.00000000000E+00 -0.00000000000E+00 -0.20080528941E+01  0.23759580016E+01  0.12700000000E+01 0. -1.
         25    2    1    2    0    0  0.00000000000E+00  0.00000000000E+00  0.17796927660E+04  0.17840772295E+04  0.12500087822E+03 0.  0.
    9000005    1    3    3    0    0 -0.31227333444E+02  0.30953631223E+02  0.15236540410E+04  0.15242886572E+04  0.10000000000E+01 0.  0.
    9000005    1    3    3    0    0  0.31227333444E+02 -0.30953631223E+02  0.25603872492E+03  0.25978857230E+03  0.10000000000E+01 0.  0.
<mgrwt>
<rscale>  0 0.12500088E+03</rscale>
<asrwt>0</asrwt>
<pdfrwt beam="1">  1        4 0.27413585E+00 0.12500088E+03</pdfrwt>
<pdfrwt beam="2">  1       -4 0.33726680E-03 0.12500088E+03</pdfrwt>
<totfact> 0.12950185E+03</totfact>
</mgrwt>
</event>
<event>
 5    1  0.3317939E-002  0.1250100E+03  0.7818608E-02  0.1235054E+00
         -4   -1    0    0    0  501 -0.00000000000E+00  0.00000000000E+00  0.24025833386E+02  0.24059375925E+02  0.12700000000E+01 0.  1.
          4   -1    0    0  501    0  0.00000000000E+00 -0.00000000000E+00 -0.16246206298E+03  0.16246702684E+03  0.12700000000E+01 0.  1.
         25    2    1    2    0    0  0.00000000000E+00  0.00000000000E+00 -0.13843622960E+03  0.18652640276E+03  0.12501003664E+03 0.  0.
    9000005    1    3    3    0    0 -0.10088800752E+02 -0.51815643008E+02 -0.11913593348E+03  0.13031122517E+03  0.10000000000E+01 0.  0.
    9000005    1    3    3    0    0  0.10088800752E+02  0.51815643008E+02 -0.19300296123E+02  0.56215177589E+02  0.10000000000E+01 0.  0.
<mgrwt>
<rscale>  0 0.12501004E+03</rscale>
<asrwt>0</asrwt>
<pdfrwt beam="2">  1        4 0.24997125E-01 0.12501004E+03</pdfrwt>
<pdfrwt beam="1">  1       -4 0.36992442E-02 0.12501004E+03</pdfrwt>
<totfact> 0.92434457E+03</totfact>
</mgrwt>
</event>
<event>
 5    1  0.3317939E-002  0.1250026E+03  0.7818608E-02  0.1235065E+00
          4   -1    0    0  501    0  0.00000000000E+00  0.00000000000E+00  0.69141859460E+03  0.69141976097E+03  0.12700000000E+01 0. -1.
         -4   -1    0    0    0  501 -0.00000000000E+00 -0.00000000000E+00 -0.55772998618E+01  0.57200676349E+01  0.12700000000E+01 0. -1.
         25    2    1    2    0    0  0.00000000000E+00  0.00000000000E+00  0.68584129474E+03  0.69713982860E+03  0.12500263620E+03 0.  0.
    9000005    1    3    3    0    0 -0.53949385652E+02 -0.10894038870E+02  0.50800350133E+03  0.51097727314E+03  0.10000000000E+01 0.  0.
    9000005    1    3    3    0    0  0.53949385652E+02  0.10894038870E+02  0.17783779341E+03  0.18616255547E+03  0.10000000000E+01 0.  0.
<mgrwt>
<rscale>  0 0.12500264E+03</rscale>
<asrwt>0</asrwt>
<pdfrwt beam="1">  1        4 0.10638314E+00 0.12500264E+03</pdfrwt>
<pdfrwt beam="2">  1       -4 0.86911814E-03 0.12500264E+03</pdfrwt>
<totfact> 0.43235615E+03</totfact>
</mgrwt>
</event>
<event>
 5    1  0.3317939E-002  0.1250005E+03  0.7818608E-02  0.1235069E+00
         -4   -1    0    0    0  501 -0.00000000000E+00  0.00000000000E+00  0.10937645586E+03  0.10938382877E+03  0.12700000000E+01 0.  1.
          4   -1    0    0  501    0  0.00000000000E+00 -0.00000000000E+00 -0.35694223313E+02  0.35716809459E+02  0.12700000000E+01 0.  1.
         25    2    1    2    0    0  0.00000000000E+00  0.00000000000E+00  0.73682232551E+02  0.14510063823E+03  0.12500049529E+03 0.  0.
    9000005    1    3    3    0    0  0.54259033604E+02 -0.15154994814E+02  0.68237805823E+02  0.88493585864E+02  0.10000000000E+01 0.  0.
    9000005    1    3    3    0    0 -0.54259033604E+02  0.15154994814E+02  0.54444267277E+01  0.56607052369E+02  0.10000000000E+01 0.  0.
<mgrwt>
<rscale>  0 0.12500050E+03</rscale>
<asrwt>0</asrwt>
<pdfrwt beam="2">  1        4 0.54937236E-02 0.12500050E+03</pdfrwt>
<pdfrwt beam="1">  1       -4 0.16829451E-01 0.12500050E+03</pdfrwt>
<totfact> 0.10028832E+04</totfact>
</mgrwt>
</event>
<event>
 5    1  0.3317939E-002  0.1250087E+03  0.7818608E-02  0.1235056E+00
          4   -1    0    0  501    0  0.00000000000E+00  0.00000000000E+00  0.51995968513E+03  0.51996123611E+03  0.12700000000E+01 0.  1.
         -4   -1    0    0    0  501 -0.00000000000E+00 -0.00000000000E+00 -0.74584112665E+01  0.75657649065E+01  0.12700000000E+01 0.  1.
         25    2    1    2    0    0  0.00000000000E+00  0.00000000000E+00  0.51250127386E+03  0.52752700102E+03  0.12500872407E+03 0.  0.
    9000005    1    3    3    0    0  0.11824403901E+02  0.36935092161E+01  0.51474749788E+03  0.51489750933E+03  0.10000000000E+01 0.  0.
    9000005    1    3    3    0    0 -0.11824403901E+02 -0.36935092161E+01 -0.22462240212E+01  0.12629491688E+02  0.10000000000E+01 0.  0.
<mgrwt>
<rscale>  0 0.12500872E+03</rscale>
<asrwt>0</asrwt>
<pdfrwt beam="1">  1        4 0.80002163E-01 0.12500872E+03</pdfrwt>
<pdfrwt beam="2">  1       -4 0.11558253E-02 0.12500872E+03</pdfrwt>
<totfact> 0.53779818E+03</totfact>
</mgrwt>
</event>
<event>
 5    1  0.3317939E-002  0.1249962E+03  0.7818608E-02  0.1235075E+00
          4   -1    0    0  501    0  0.00000000000E+00  0.00000000000E+00  0.14765918495E+04  0.14765923956E+04  0.12700000000E+01 0. -1.
         -4   -1    0    0    0  501 -0.00000000000E+00 -0.00000000000E+00 -0.24922789919E+01  0.27972047786E+01  0.12700000000E+01 0. -1.
         25    2    1    2    0    0  0.00000000000E+00  0.00000000000E+00  0.14740995705E+04  0.14793896004E+04  0.12499618435E+03 0.  0.
    9000005    1    3    3    0    0  0.37920725108E+02 -0.23855551452E+02  0.12526669484E+04  0.12534682095E+04  0.10000000000E+01 0.  0.
    9000005    1    3    3    0    0 -0.37920725108E+02  0.23855551452E+02  0.22143262212E+03  0.22592139090E+03  0.10000000000E+01 0.  0.
<mgrwt>
<rscale>  0 0.12499618E+03</rscale>
<asrwt>0</asrwt>
<pdfrwt beam="1">  1        4 0.22719212E+00 0.12499618E+03</pdfrwt>
<pdfrwt beam="2">  1       -4 0.40692422E-03 0.12499618E+03</pdfrwt>
<totfact> 0.18340146E+03</totfact>
</mgrwt>
</event>
<event>
 5    1  0.3317939E-002  0.1250445E+03  0.7818608E-02  0.1235000E+00
         -4   -1    0    0    0  501 -0.00000000000E+00  0.00000000000E+00  0.11294600313E+02  0.11365777414E+02  0.12700000000E+01 0.  1.
          4   -1    0    0  501    0  0.00000000000E+00 -0.00000000000E+00 -0.34493788638E+03  0.34494022433E+03  0.12700000000E+01 0.  1.
         25    2    1    2    0    0  0.00000000000E+00  0.00000000000E+00 -0.33364328607E+03  0.35630600174E+03  0.12504449025E+03 0.  0.
    9000005    1    3    3    0    0 -0.38262672561E+02  0.29648619228E+02 -0.54099308053E+02  0.72600329651E+02  0.10000000000E+01 0.  0.
    9000005    1    3    3    0    0  0.38262672561E+02 -0.29648619228E+02 -0.27954397801E+03  0.28370567209E+03  0.10000000000E+01 0.  0.
<mgrwt>
<rscale>  0 0.12504449E+03</rscale>
<asrwt>0</asrwt>
<pdfrwt beam="2">  1        4 0.53073014E-01 0.12504449E+03</pdfrwt>
<pdfrwt beam="1">  1       -4 0.17432861E-02 0.12504449E+03</pdfrwt>
<totfact> 0.68968443E+03</totfact>
</mgrwt>
</event>
<event>
 4    1  0.3317939E-002  0.1249247E+03  0.7818608E-02  0.1235187E+00
         -4   -1    0    0    0  501 -0.00000000000E+00  0.00000000000E+00  0.21231017224E+03  0.21231397065E+03  0.12700000000E+01 0. -1.
          4   -1    0    0  501    0  0.00000000000E+00 -0.00000000000E+00 -0.18350732551E+02  0.18394626530E+02  0.12700000000E+01 0. -1.
    9000005    1    1    2    0    0  0.38806358703E+02  0.99549099842E+01  0.84976422063E+01  0.40966371961E+02  0.10000000000E+01 0.  0.
    9000005    1    1    2    0    0 -0.38806358703E+02 -0.99549099842E+01  0.18546179748E+03  0.18974222522E+03  0.10000000000E+01 0.  0.
<mgrwt>
<rscale>  0 0.12492475E+03</rscale>
<asrwt>0</asrwt>
<pdfrwt beam="2">  1        4 0.28268583E-02 0.12492475E+03</pdfrwt>
<pdfrwt beam="1">  1       -4 0.32666772E-01 0.12492475E+03</pdfrwt>
<totfact> 0.85344112E+03</totfact>
</mgrwt>
</event>
<event>
 5    1  0.3317939E-002  0.1249968E+03  0.7818608E-02  0.1235074E+00
         -4   -1    0    0    0  501 -0.00000000000E+00  0.00000000000E+00  0.35357398439E+02  0.35380199609E+02  0.12700000000E+01 0. -1.
          4   -1    0    0  501    0  0.00000000000E+00 -0.00000000000E+00 -0.11041131309E+03  0.11041861690E+03  0.12700000000E+01 0. -1.
         25    2    1    2    0    0  0.00000000000E+00  0.00000000000E+00 -0.75053914650E+02  0.14579881651E+03  0.12499681912E+03 0.  0.
    9000005    1    3    3    0    0 -0.94480951187E+01 -0.29922341110E+02 -0.10056156403E+03  0.10534819011E+03  0.10000000000E+01 0.  0.
    9000005    1    3    3    0    0  0.94480951187E+01  0.29922341110E+02  0.25507649384E+02  0.40450626397E+02  0.10000000000E+01 0.  0.
<mgrwt>
<rscale>  0 0.12499682E+03</rscale>
<asrwt>0</asrwt>
<pdfrwt beam="2">  1        4 0.16988671E-01 0.12499682E+03</pdfrwt>
<pdfrwt beam="1">  1       -4 0.54419156E-02 0.12499682E+03</pdfrwt>
<totfact> 0.10015501E+04</totfact>
</mgrwt>
</event>
<event>
 5    1  0.3317939E-002  0.1249805E+03  0.7818608E-02  0.1235100E+00
         -4   -1    0    0    0  501 -0.00000000000E+00  0.00000000000E+00  0.10952786454E+02  0.11026170283E+02  0.12700000000E+01 0.  1.
          4   -1    0    0  501    0  0.00000000000E+00 -0.00000000000E+00 -0.35526822385E+03  0.35527049382E+03  0.12700000000E+01 0.  1.
         25    2    1    2    0    0  0.00000000000E+00  0.00000000000E+00 -0.34431543740E+03  0.36629666410E+03  0.12498050129E+03 0.  0.
    9000005    1    3    3    0    0  0.51710442795E+02 -0.33257953454E+02 -0.13952531139E+03  0.15247417447E+03  0.10000000000E+01 0.  0.
    9000005    1    3    3    0    0 -0.51710442795E+02  0.33257953454E+02 -0.20479012601E+03  0.21382248963E+03  0.10000000000E+01 0.  0.
<mgrwt>
<rscale>  0 0.12498050E+03</rscale>
<asrwt>0</asrwt>
<pdfrwt beam="2">  1        4 0.54662460E-01 0.12498050E+03</pdfrwt>
<pdfrwt beam="1">  1       -4 0.16908639E-02 0.12498050E+03</pdfrwt>
<totfact> 0.67997480E+03</totfact>
</mgrwt>
</event>
<event>
 5    1  0.3317939E-002  0.1249961E+03  0.7818608E-02  0.1235075E+00
          4   -1    0    0  501    0  0.00000000000E+00  0.00000000000E+00  0.10880195594E+03  0.10880936778E+03  0.12700000000E+01 0. -1.
         -4   -1    0    0    0  501 -0.00000000000E+00 -0.00000000000E+00 -0.35880269343E+02  0.35902738449E+02  0.12700000000E+01 0. -1.
         25    2    1    2    0    0  0.00000000000E+00  0.00000000000E+00  0.72921686598E+02  0.14471210623E+03  0.12499608519E+03 0.  0.
    9000005    1    3    3    0    0  0.20744331948E+02  0.53506144032E+02  0.78254769273E+01  0.57926443411E+02  0.10000000000E+01 0.  0.
    9000005    1    3    3    0    0 -0.20744331948E+02 -0.53506144032E+02  0.65096209671E+02  0.86785662818E+02  0.10000000000E+01 0.  0.
<mgrwt>
<rscale>  0 0.12499609E+03</rscale>
<asrwt>0</asrwt>
<pdfrwt beam="1">  1        4 0.16741061E-01 0.12499609E+03</pdfrwt>
<pdfrwt beam="2">  1       -4 0.55223400E-02 0.12499609E+03</pdfrwt>
<totfact> 0.10037726E+04</totfact>
</mgrwt>
</event>
<event>
 5    1  0.3317939E-002  0.1249930E+03  0.7818608E-02  0.1235080E+00
          4   -1    0    0  501    0  0.00000000000E+00  0.00000000000E+00  0.10726643385E+03  0.10727395178E+03  0.12700000000E+01 0. -1.
         -4   -1    0    0    0  501 -0.00000000000E+00 -0.00000000000E+00 -0.36392356442E+02  0.36414509572E+02  0.12700000000E+01 0. -1.
         25    2    1    2    0    0  0.00000000000E+00  0.00000000000E+00  0.70874077403E+02  0.14368846135E+03  0.12499295611E+03 0.  0.
    9000005    1    3    3    0    0 -0.11511415228E+02 -0.40917966124E+02  0.88092190676E+02  0.97816290517E+02  0.10000000000E+01 0.  0.
    9000005    1    3    3    0    0  0.11511415228E+02  0.40917966124E+02 -0.17218113273E+02  0.45872170833E+02  0.10000000000E+01 0.  0.
<mgrwt>
<rscale>  0 0.12499296E+03</rscale>
<asrwt>0</asrwt>
<pdfrwt beam="1">  1        4 0.16504811E-01 0.12499296E+03</pdfrwt>
<pdfrwt beam="2">  1       -4 0.56011065E-02 0.12499296E+03</pdfrwt>
<totfact> 0.10059300E+04</totfact>
</mgrwt>
</event>
<event>
 5    1  0.3317939E-002  0.1250008E+03  0.7818608E-02  0.1235068E+00
          4   -1    0    0  501    0  0.00000000000E+00  0.00000000000E+00  0.31163055522E+02  0.31188923185E+02  0.12700000000E+01 0.  1.
         -4   -1    0    0    0  501 -0.00000000000E+00 -0.00000000000E+00 -0.12526928197E+03  0.12527571954E+03  0.12700000000E+01 0.  1.
         25    2    1    2    0    0  0.00000000000E+00  0.00000000000E+00 -0.94106226451E+02  0.15646464272E+03  0.12500081026E+03 0.  0.
    9000005    1    3    3    0    0  0.56253237230E+02 -0.26852247601E+02 -0.52627188901E+02  0.81584869379E+02  0.10000000000E+01 0.  0.
    9000005    1    3    3    0    0 -0.56253237230E+02  0.26852247601E+02 -0.41479037550E+02  0.74879773345E+02  0.10000000000E+01 0.  0.
<mgrwt>
<rscale>  0 0.12500081E+03</rscale>
<asrwt>0</asrwt>
<pdfrwt beam="1">  1        4 0.47968013E-02 0.12500081E+03</pdfrwt>
<pdfrwt beam="2">  1       -4 0.19274682E-01 0.12500081E+03</pdfrwt>
<totfact> 0.98026950E+03</totfact>
</mgrwt>
</event>
<event>
 5    1  0.3317939E-002  0.1249997E+03  0.7818608E-02  0.1235070E+00
         -4   -1    0    0    0  501 -0.00000000000E+00  0.00000000000E+00  0.10780874364E+03  0.10781622375E+03  0.12700000000E+01 0.  1.
          4   -1    0    0  501    0  0.00000000000E+00 -0.00000000000E+00 -0.36213121112E+02  0.36235383821E+02  0.12700000000E+01 0.  1.
         25    2    1    2    0    0  0.00000000000E+00  0.00000000000E+00  0.71595622524E+02  0.14405160757E+03  0.12499972992E+03 0.  0.
    9000005    1    3    3    0    0 -0.38107232849E+01  0.31224212905E+02 -0.26430057081E+02  0.41097700676E+02  0.10000000000E+01 0.  0.
    9000005    1    3    3    0    0  0.38107232849E+01 -0.31224212905E+02  0.98025679605E+02  0.10295390690E+03  0.10000000000E+01 0.  0.
<mgrwt>
<rscale>  0 0.12499973E+03</rscale>
<asrwt>0</asrwt>
<pdfrwt beam="2">  1        4 0.55735374E-02 0.12499973E+03</pdfrwt>
<pdfrwt beam="1">  1       -4 0.16588248E-01 0.12499973E+03</pdfrwt>
<totfact> 0.10050354E+04</totfact>
</mgrwt>
</event>
<event>
 5    1  0.3317939E-002  0.1250165E+03  0.7818608E-02  0.1235044E+00
         -4   -1    0    0    0  501 -0.00000000000E+00  0.00000000000E+00  0.29590857619E+03  0.29591130152E+03  0.12700000000E+01 0. -1.
          4   -1    0    0  501    0  0.00000000000E+00 -0.00000000000E+00 -0.13171019675E+02  0.13232107137E+02  0.12700000000E+01 0. -1.
         25    2    1    2    0    0  0.00000000000E+00  0.00000000000E+00  0.28273755652E+03  0.30914340865E+03  0.12501648390E+03 0.  0.
    9000005    1    3    3    0    0  0.40891448238E+02  0.45133705245E+02  0.10665064867E+03  0.12281906509E+03  0.10000000000E+01 0.  0.
    9000005    1    3    3    0    0 -0.40891448238E+02 -0.45133705245E+02  0.17608690785E+03  0.18632434356E+03  0.10000000000E+01 0.  0.
<mgrwt>
<rscale>  0 0.12501648E+03</rscale>
<asrwt>0</asrwt>
<pdfrwt beam="2">  1        4 0.20312197E-02 0.12501648E+03</pdfrwt>
<pdfrwt beam="1">  1       -4 0.45529299E-01 0.12501648E+03</pdfrwt>
<totfact> 0.74438812E+03</totfact>
</mgrwt>
</event>
<event>
 5    1  0.3317939E-002  0.1250026E+03  0.7818608E-02  0.1235065E+00
         -4   -1    0    0    0  501 -0.00000000000E+00  0.00000000000E+00  0.24080211805E+02  0.24113678702E+02  0.12700000000E+01 0. -1.
          4   -1    0    0  501    0  0.00000000000E+00 -0.00000000000E+00 -0.16207633349E+03  0.16208130915E+03  0.12700000000E+01 0. -1.
         25    2    1    2    0    0  0.00000000000E+00  0.00000000000E+00 -0.13799612168E+03  0.18619498785E+03  0.12500257559E+03 0.  0.
    9000005    1    3    3    0    0 -0.37193535027E+02  0.90587694094E+01 -0.14257523490E+03  0.14762831015E+03  0.10000000000E+01 0.  0.
    9000005    1    3    3    0    0  0.37193535027E+02 -0.90587694094E+01  0.45791132211E+01  0.38566677701E+02  0.10000000000E+01 0.  0.
<mgrwt>
<rscale>  0 0.12500258E+03</rscale>
<asrwt>0</asrwt>
<pdfrwt beam="2">  1        4 0.24937777E-01 0.12500258E+03</pdfrwt>
<pdfrwt beam="1">  1       -4 0.37076052E-02 0.12500258E+03</pdfrwt>
<totfact> 0.92508283E+03</totfact>
</mgrwt>
</event>
<event>
 5    1  0.3317939E-002  0.1249990E+03  0.7818608E-02  0.1235071E+00
         -4   -1    0    0    0  501 -0.00000000000E+00  0.00000000000E+00  0.55964824470E+03  0.55964968569E+03  0.12700000000E+01 0. -1.
          4   -1    0    0  501    0  0.00000000000E+00 -0.00000000000E+00 -0.69204823764E+01  0.70360483456E+01  0.12700000000E+01 0. -1.
         25    2    1    2    0    0  0.00000000000E+00  0.00000000000E+00  0.55272776232E+03  0.56668573403E+03  0.12499896767E+03 0.  0.
    9000005    1    3    3    0    0 -0.28322417394E+02  0.52185688293E+02  0.36470131221E+03  0.36950446887E+03  0.10000000000E+01 0.  0.
    9000005    1    3    3    0    0  0.28322417394E+02 -0.52185688293E+02  0.18802645011E+03  0.19718126516E+03  0.10000000000E+01 0.  0.
<mgrwt>
<rscale>  0 0.12499897E+03</rscale>
<asrwt>0</asrwt>
<pdfrwt beam="2">  1        4 0.10736900E-02 0.12499897E+03</pdfrwt>
<pdfrwt beam="1">  1       -4 0.86108744E-01 0.12499897E+03</pdfrwt>
<totfact> 0.51041520E+03</totfact>
</mgrwt>
</event>
<event>
 5    1  0.3317939E-002  0.1250010E+03  0.7818608E-02  0.1235068E+00
          4   -1    0    0  501    0  0.00000000000E+00  0.00000000000E+00  0.70854295857E+01  0.71983478948E+01  0.12700000000E+01 0. -1.
         -4   -1    0    0    0  501 -0.00000000000E+00 -0.00000000000E+00 -0.54684459707E+03  0.54684607180E+03  0.12700000000E+01 0. -1.
         25    2    1    2    0    0  0.00000000000E+00  0.00000000000E+00 -0.53975916748E+03  0.55404441970E+03  0.12500104045E+03 0.  0.
    9000005    1    3    3    0    0 -0.38700324953E+02 -0.38149022399E+02 -0.40665463819E+03  0.41027071285E+03  0.10000000000E+01 0.  0.
    9000005    1    3    3    0    0  0.38700324953E+02  0.38149022399E+02 -0.13310452929E+03  0.14377370684E+03  0.10000000000E+01 0.  0.
<mgrwt>
<rscale>  0 0.12500104E+03</rscale>
<asrwt>0</asrwt>
<pdfrwt beam="1">  1        4 0.10988660E-02 0.12500104E+03</pdfrwt>
<pdfrwt beam="2">  1       -4 0.84138704E-01 0.12500104E+03</pdfrwt>
<totfact> 0.51902018E+03</totfact>
</mgrwt>
</event>
<event>
 5    1  0.3317939E-002  0.1249959E+03  0.7818608E-02  0.1235076E+00
          4   -1    0    0  501    0  0.00000000000E+00  0.00000000000E+00  0.15340690873E+02  0.15393170448E+02  0.12700000000E+01 0.  1.
         -4   -1    0    0    0  501 -0.00000000000E+00 -0.00000000000E+00 -0.25412775978E+03  0.25413093317E+03  0.12700000000E+01 0.  1.
         25    2    1    2    0    0  0.00000000000E+00  0.00000000000E+00 -0.23878706891E+03  0.26952410362E+03  0.12499591254E+03 0.  0.
    9000005    1    3    3    0    0 -0.14847856143E+02 -0.28865563681E+02 -0.23453304889E+03  0.23677083989E+03  0.10000000000E+01 0.  0.
    9000005    1    3    3    0    0  0.14847856143E+02  0.28865563681E+02 -0.42540200210E+01  0.32753263730E+02  0.10000000000E+01 0.  0.
<mgrwt>
<rscale>  0 0.12499591E+03</rscale>
<asrwt>0</asrwt>
<pdfrwt beam="1">  1        4 0.23643875E-02 0.12499591E+03</pdfrwt>
<pdfrwt beam="2">  1       -4 0.39100856E-01 0.12499591E+03</pdfrwt>
<totfact> 0.79595031E+03</totfact>
</mgrwt>
</event>
<event>
 5    1  0.3317939E-002  0.1250006E+03  0.7818608E-02  0.1235068E+00
          4   -1    0    0  501    0  0.00000000000E+00  0.00000000000E+00  0.35124047751E+03  0.35124277351E+03  0.12700000000E+01 0.  1.
         -4   -1    0    0    0  501 -0.00000000000E+00 -0.00000000000E+00 -0.11082799655E+02  0.11155328243E+02  0.12700000000E+01 0.  1.
         25    2    1    2    0    0  0.00000000000E+00  0.00000000000E+00  0.34015767785E+03  0.36239810175E+03  0.12500055339E+03 0.  0.
    9000005    1    3    3    0    0  0.38936776413E+02  0.18989538693E+02  0.30065779750E+03  0.30376435989E+03  0.10000000000E+01 0.  0.
    9000005    1    3    3    0    0 -0.38936776413E+02 -0.18989538693E+02  0.39499880350E+02  0.58633741863E+02  0.10000000000E+01 0.  0.
<mgrwt>
<rscale>  0 0.12500055E+03</rscale>
<asrwt>0</asrwt>
<pdfrwt beam="1">  1        4 0.54042736E-01 0.12500055E+03</pdfrwt>
<pdfrwt beam="2">  1       -4 0.17108024E-02 0.12500055E+03</pdfrwt>
<totfact> 0.68380980E+03</totfact>
</mgrwt>
</event>
<event>
 5    1  0.3317939E-002  0.1250010E+03  0.7818608E-02  0.1235068E+00
         -4   -1    0    0    0  501 -0.00000000000E+00  0.00000000000E+00  0.75168725074E+02  0.75179452840E+02  0.12700000000E+01 0. -1.
          4   -1    0    0  501    0  0.00000000000E+00 -0.00000000000E+00 -0.51945051871E+02  0.51960574611E+02  0.12700000000E+01 0. -1.
         25    2    1    2    0    0  0.00000000000E+00  0.00000000000E+00  0.23223673203E+02  0.12714002745E+03  0.12500099033E+03 0.  0.
    9000005    1    3    3    0    0 -0.38836072191E+02  0.10087580532E+02  0.60341085944E+02  0.72471004112E+02  0.10000000000E+01 0.  0.
    9000005    1    3    3    0    0  0.38836072191E+02 -0.10087580532E+02 -0.37117412740E+02  0.54669023338E+02  0.10000000000E+01 0.  0.
<mgrwt>
<rscale>  0 0.12500099E+03</rscale>
<asrwt>0</asrwt>
<pdfrwt beam="2">  1        4 0.79935657E-02 0.12500099E+03</pdfrwt>
<pdfrwt beam="1">  1       -4 0.11566438E-01 0.12500099E+03</pdfrwt>
<totfact> 0.10405872E+04</totfact>
</mgrwt>
</event>
<event>
 5    1  0.3317939E-002  0.1249996E+03  0.7818608E-02  0.1235070E+00
          4   -1    0    0  501    0  0.00000000000E+00  0.00000000000E+00  0.54720860271E+02  0.54735595811E+02  0.12700000000E+01 0. -1.
         -4   -1    0    0    0  501 -0.00000000000E+00 -0.00000000000E+00 -0.71354543765E+02  0.71365844883E+02  0.12700000000E+01 0. -1.
         25    2    1    2    0    0  0.00000000000E+00  0.00000000000E+00 -0.16633683494E+02  0.12610144069E+03  0.12499957567E+03 0.  0.
    9000005    1    3    3    0    0  0.54157893763E+02 -0.30536900786E+02 -0.14668668909E+02  0.63888571858E+02  0.10000000000E+01 0.  0.
    9000005    1    3    3    0    0 -0.54157893763E+02  0.30536900786E+02 -0.19650145850E+01  0.62212868836E+02  0.10000000000E+01 0.  0.
<mgrwt>
<rscale>  0 0.12499958E+03</rscale>
<asrwt>0</asrwt>
<pdfrwt beam="1">  1        4 0.84205967E-02 0.12499958E+03</pdfrwt>
<pdfrwt beam="2">  1       -4 0.10979625E-01 0.12499958E+03</pdfrwt>
<totfact> 0.10428835E+04</totfact>
</mgrwt>
</event>
<event>
 5    1  0.3317939E-002  0.1250017E+03  0.7818608E-02  0.1235067E+00
          4   -1    0    0  501    0  0.00000000000E+00  0.00000000000E+00  0.24631132544E+02  0.24663851897E+02  0.12700000000E+01 0.  1.
         -4   -1    0    0    0  501 -0.00000000000E+00 -0.00000000000E+00 -0.15845361270E+03  0.15845870212E+03  0.12700000000E+01 0.  1.
         25    2    1    2    0    0  0.00000000000E+00  0.00000000000E+00 -0.13382248016E+03  0.18312255402E+03  0.12500165437E+03 0.  0.
    9000005    1    3    3    0    0 -0.29080480607E+02 -0.52708085539E+02 -0.42330574733E+02  0.73598194208E+02  0.10000000000E+01 0.  0.
    9000005    1    3    3    0    0  0.29080480607E+02  0.52708085539E+02 -0.91491905425E+02  0.10952435981E+03  0.10000000000E+01 0.  0.
<mgrwt>
<rscale>  0 0.12500165E+03</rscale>
<asrwt>0</asrwt>
<pdfrwt beam="1">  1        4 0.37923135E-02 0.12500165E+03</pdfrwt>
<pdfrwt beam="2">  1       -4 0.24380387E-01 0.12500165E+03</pdfrwt>
<totfact> 0.93054484E+03</totfact>
</mgrwt>
</event>
<event>
 5    1  0.3317939E-002  0.1249988E+03  0.7818608E-02  0.1235071E+00
          4   -1    0    0  501    0  0.00000000000E+00  0.00000000000E+00  0.54834147533E+01  0.56285644135E+01  0.12700000000E+01 0.  1.
         -4   -1    0    0    0  501 -0.00000000000E+00 -0.00000000000E+00 -0.70291040722E+03  0.70291155452E+03  0.12700000000E+01 0.  1.
         25    2    1    2    0    0  0.00000000000E+00  0.00000000000E+00 -0.69742699247E+03  0.70854011894E+03  0.12499876126E+03 0.  0.
    9000005    1    3    3    0    0  0.53692286764E+02  0.19212544997E+02 -0.49358340278E+03  0.49686774804E+03  0.10000000000E+01 0.  0.
    9000005    1    3    3    0    0 -0.53692286764E+02 -0.19212544997E+02 -0.20384358969E+03  0.21167237090E+03  0.10000000000E+01 0.  0.
<mgrwt>
<rscale>  0 0.12499876E+03</rscale>
<asrwt>0</asrwt>
<pdfrwt beam="1">  1        4 0.85485644E-03 0.12499876E+03</pdfrwt>
<pdfrwt beam="2">  1       -4 0.10815125E+00 0.12499876E+03</pdfrwt>
<totfact> 0.42640873E+03</totfact>
</mgrwt>
</event>
<event>
 5    1  0.3317939E-002  0.1249980E+03  0.7818608E-02  0.1235072E+00
          4   -1    0    0  501    0  0.00000000000E+00  0.00000000000E+00  0.19606457665E+02  0.19647546467E+02  0.12700000000E+01 0.  1.
         -4   -1    0    0    0  501 -0.00000000000E+00 -0.00000000000E+00 -0.19897475749E+03  0.19897881047E+03  0.12700000000E+01 0.  1.
         25    2    1    2    0    0  0.00000000000E+00  0.00000000000E+00 -0.17936829982E+03  0.21862635694E+03  0.12499798785E+03 0.  0.
    9000005    1    3    3    0    0 -0.60101594197E+02  0.17076319119E+02 -0.87673179295E+02  0.10766331161E+03  0.10000000000E+01 0.  0.
    9000005    1    3    3    0    0  0.60101594197E+02 -0.17076319119E+02 -0.91695120527E+02  0.11096304533E+03  0.10000000000E+01 0.  0.
<mgrwt>
<rscale>  0 0.12499799E+03</rscale>
<asrwt>0</asrwt>
<pdfrwt beam="1">  1        4 0.30198507E-02 0.12499799E+03</pdfrwt>
<pdfrwt beam="2">  1       -4 0.30614972E-01 0.12499799E+03</pdfrwt>
<totfact> 0.87090094E+03</totfact>
</mgrwt>
</event>
<event>
 5    1  0.3317939E-002  0.1249987E+03  0.7818608E-02  0.1235071E+00
          4   -1    0    0  501    0  0.00000000000E+00  0.00000000000E+00  0.99180209387E+02  0.99188340212E+02  0.12700000000E+01 0.  1.
         -4   -1    0    0    0  501 -0.00000000000E+00 -0.00000000000E+00 -0.39364586949E+02  0.39385068308E+02  0.12700000000E+01 0.  1.
         25    2    1    2    0    0  0.00000000000E+00  0.00000000000E+00  0.59815622438E+02  0.13857340852E+03  0.12499872344E+03 0.  0.
    9000005    1    3    3    0    0 -0.20441027612E+02  0.45040354459E+02  0.72248456588E+02  0.87563169307E+02  0.10000000000E+01 0.  0.
    9000005    1    3    3    0    0  0.20441027612E+02 -0.45040354459E+02 -0.12432834150E+02  0.51010239214E+02  0.10000000000E+01 0.  0.
<mgrwt>
<rscale>  0 0.12499872E+03</rscale>
<asrwt>0</asrwt>
<pdfrwt beam="1">  1        4 0.15260695E-01 0.12499872E+03</pdfrwt>
<pdfrwt beam="2">  1       -4 0.60582913E-02 0.12499872E+03</pdfrwt>
<totfact> 0.10163531E+04</totfact>
</mgrwt>
</event>
<event>
 5    1  0.3317939E-002  0.1249959E+03  0.7818608E-02  0.1235076E+00
          4   -1    0    0  501    0  0.00000000000E+00  0.00000000000E+00  0.17539651299E+03  0.17540111080E+03  0.12700000000E+01 0. -1.
         -4   -1    0    0    0  501 -0.00000000000E+00 -0.00000000000E+00 -0.22246494707E+02  0.22282715874E+02  0.12700000000E+01 0. -1.
         25    2    1    2    0    0  0.00000000000E+00  0.00000000000E+00  0.15315001829E+03  0.19768382667E+03  0.12499586884E+03 0.  0.
    9000005    1    3    3    0    0 -0.32669722840E+02 -0.15395328832E+02  0.15722747965E+03  0.16132516015E+03  0.10000000000E+01 0.  0.
    9000005    1    3    3    0    0  0.32669722840E+02  0.15395328832E+02 -0.40774613641E+01  0.36358666525E+02  0.10000000000E+01 0.  0.
<mgrwt>
<rscale>  0 0.12499587E+03</rscale>
<asrwt>0</asrwt>
<pdfrwt beam="1">  1        4 0.26987217E-01 0.12499587E+03</pdfrwt>
<pdfrwt beam="2">  1       -4 0.34256778E-02 0.12499587E+03</pdfrwt>
<totfact> 0.90535648E+03</totfact>
</mgrwt>
</event>
<event>
 5    1  0.3317939E-002  0.1250002E+03  0.7818608E-02  0.1235069E+00
          4   -1    0    0  501    0  0.00000000000E+00  0.00000000000E+00  0.18143763915E+03  0.18144208388E+03  0.12700000000E+01 0. -1.
         -4   -1    0    0    0  501 -0.00000000000E+00 -0.00000000000E+00 -0.21506056566E+02  0.21543522669E+02  0.12700000000E+01 0. -1.
         25    2    1    2    0    0  0.00000000000E+00  0.00000000000E+00  0.15993158259E+03  0.20298560655E+03  0.12500018142E+03 0.  0.
    9000005    1    3    3    0    0 -0.52146799652E+02 -0.27367541569E+02  0.11391193892E+03  0.12823884308E+03  0.10000000000E+01 0.  0.
    9000005    1    3    3    0    0  0.52146799652E+02  0.27367541569E+02  0.46019643664E+02  0.74746763465E+02  0.10000000000E+01 0.  0.
<mgrwt>
<rscale>  0 0.12500018E+03</rscale>
<asrwt>0</asrwt>
<pdfrwt beam="1">  1        4 0.27916708E-01 0.12500018E+03</pdfrwt>
<pdfrwt beam="2">  1       -4 0.33118479E-02 0.12500018E+03</pdfrwt>
<totfact> 0.89634026E+03</totfact>
</mgrwt>
</event>
<event>
 5    1  0.3317939E-002  0.1250022E+03  0.7818608E-02  0.1235066E+00
          4   -1    0    0  501    0  0.00000000000E+00  0.00000000000E+00  0.28761644011E+02  0.28789669435E+02  0.12700000000E+01 0. -1.
         -4   -1    0    0    0  501 -0.00000000000E+00 -0.00000000000E+00 -0.13572218009E+03  0.13572812188E+03  0.12700000000E+01 0. -1.
         25    2    1    2    0    0  0.00000000000E+00  0.00000000000E+00 -0.10696053608E+03  0.16451779131E+03  0.12500218950E+03 0.  0.
    9000005    1    3    3    0    0 -0.39170843245E+02 -0.25850032337E+02  0.82951334700E+00  0.46949624330E+02  0.10000000000E+01 0.  0.
    9000005    1    3    3    0    0  0.39170843245E+02  0.25850032337E+02 -0.10779004943E+03  0.11756816698E+03  0.10000000000E+01 0.  0.
<mgrwt>
<rscale>  0 0.12500219E+03</rscale>
<asrwt>0</asrwt>
<pdfrwt beam="1">  1        4 0.44274812E-02 0.12500219E+03</pdfrwt>
<pdfrwt beam="2">  1       -4 0.20882948E-01 0.12500219E+03</pdfrwt>
<totfact> 0.96474047E+03</totfact>
</mgrwt>
</event>
<event>
 5    1  0.3317939E-002  0.1250034E+03  0.7818608E-02  0.1235064E+00
          4   -1    0    0  501    0  0.00000000000E+00  0.00000000000E+00  0.12144423484E+02  0.12210647884E+02  0.12700000000E+01 0. -1.
         -4   -1    0    0    0  501 -0.00000000000E+00 -0.00000000000E+00 -0.32072509232E+03  0.32072760677E+03  0.12700000000E+01 0. -1.
         25    2    1    2    0    0  0.00000000000E+00  0.00000000000E+00 -0.30858066883E+03  0.33293825465E+03  0.12500340888E+03 0.  0.
    9000005    1    3    3    0    0  0.25642998353E+02 -0.56966068478E+02 -0.15872055837E+03  0.17057523845E+03  0.10000000000E+01 0.  0.
    9000005    1    3    3    0    0 -0.25642998353E+02  0.56966068478E+02 -0.14986011047E+03  0.16236301621E+03  0.10000000000E+01 0.  0.
<mgrwt>
<rscale>  0 0.12500341E+03</rscale>
<asrwt>0</asrwt>
<pdfrwt beam="1">  1        4 0.18736607E-02 0.12500341E+03</pdfrwt>
<pdfrwt beam="2">  1       -4 0.49347603E-01 0.12500341E+03</pdfrwt>
<totfact> 0.71637856E+03</totfact>
</mgrwt>
</event>
<event>
 5    1  0.3317939E-002  0.1250052E+03  0.7818608E-02  0.1235061E+00
          4   -1    0    0  501    0  0.00000000000E+00  0.00000000000E+00  0.45281832611E+02  0.45299638680E+02  0.12700000000E+01 0. -1.
         -4   -1    0    0    0  501 -0.00000000000E+00 -0.00000000000E+00 -0.86233032151E+02  0.86242383629E+02  0.12700000000E+01 0. -1.
         25    2    1    2    0    0  0.00000000000E+00  0.00000000000E+00 -0.40951199541E+02  0.13154202231E+03  0.12500521145E+03 0.  0.
    9000005    1    3    3    0    0 -0.37459941999E+02  0.48066856228E+02 -0.35053012353E+02  0.70309199948E+02  0.10000000000E+01 0.  0.
    9000005    1    3    3    0    0  0.37459941999E+02 -0.48066856228E+02 -0.58981871876E+01  0.61232822362E+02  0.10000000000E+01 0.  0.
<mgrwt>
<rscale>  0 0.12500521E+03</rscale>
<asrwt>0</asrwt>
<pdfrwt beam="1">  1        4 0.69685249E-02 0.12500521E+03</pdfrwt>
<pdfrwt beam="2">  1       -4 0.13268709E-01 0.12500521E+03</pdfrwt>
<totfact> 0.10310271E+04</totfact>
</mgrwt>
</event>
<event>
 5    1  0.3317939E-002  0.1250037E+03  0.7818608E-02  0.1235063E+00
         -4   -1    0    0    0  501 -0.00000000000E+00  0.00000000000E+00  0.14002934204E+03  0.14003510107E+03  0.12700000000E+01 0.  1.
          4   -1    0    0  501    0  0.00000000000E+00 -0.00000000000E+00 -0.27876810088E+02  0.27905724156E+02  0.12700000000E+01 0.  1.
         25    2    1    2    0    0  0.00000000000E+00  0.00000000000E+00  0.11215253195E+03  0.16794082522E+03  0.12500372136E+03 0.  0.
    9000005    1    3    3    0    0 -0.60103147737E+02 -0.98527111405E+01  0.37266575275E+02  0.71409116487E+02  0.10000000000E+01 0.  0.
    9000005    1    3    3    0    0  0.60103147737E+02  0.98527111405E+01  0.74885956673E+02  0.96531708736E+02  0.10000000000E+01 0.  0.
<mgrwt>
<rscale>  0 0.12500372E+03</rscale>
<asrwt>0</asrwt>
<pdfrwt beam="2">  1        4 0.42914072E-02 0.12500372E+03</pdfrwt>
<pdfrwt beam="1">  1       -4 0.21545643E-01 0.12500372E+03</pdfrwt>
<totfact> 0.95825319E+03</totfact>
</mgrwt>
</event>
<event>
 5    1  0.3317939E-002  0.1250012E+03  0.7818608E-02  0.1235067E+00
          4   -1    0    0  501    0  0.00000000000E+00  0.00000000000E+00  0.93150911930E+01  0.94012671451E+01  0.12700000000E+01 0.  1.
         -4   -1    0    0    0  501 -0.00000000000E+00 -0.00000000000E+00 -0.41733668049E+03  0.41733861286E+03  0.12700000000E+01 0.  1.
         25    2    1    2    0    0  0.00000000000E+00  0.00000000000E+00 -0.40802158930E+03  0.42673988001E+03  0.12500123141E+03 0.  0.
    9000005    1    3    3    0    0  0.73802571099E+01  0.39967188940E+02 -0.36607087194E+03  0.36832150042E+03  0.10000000000E+01 0.  0.
    9000005    1    3    3    0    0 -0.73802571099E+01 -0.39967188940E+02 -0.41950717360E+02  0.58418379589E+02  0.10000000000E+01 0.  0.
<mgrwt>
<rscale>  0 0.12500123E+03</rscale>
<asrwt>0</asrwt>
<pdfrwt beam="1">  1        4 0.14398688E-02 0.12500123E+03</pdfrwt>
<pdfrwt beam="2">  1       -4 0.64212406E-01 0.12500123E+03</pdfrwt>
<totfact> 0.62030939E+03</totfact>
</mgrwt>
</event>
<event>
 5    1  0.3317939E-002  0.1250056E+03  0.7818608E-02  0.1235061E+00
         -4   -1    0    0    0  501 -0.00000000000E+00  0.00000000000E+00  0.32102347609E+03  0.32102598821E+03  0.12700000000E+01 0. -1.
          4   -1    0    0  501    0  0.00000000000E+00 -0.00000000000E+00 -0.12133504044E+02  0.12199787719E+02  0.12700000000E+01 0. -1.
         25    2    1    2    0    0  0.00000000000E+00  0.00000000000E+00  0.30888997205E+03  0.33322577593E+03  0.12500561151E+03 0.  0.
    9000005    1    3    3    0    0 -0.54304545829E+02  0.26835092995E+02  0.19543894755E+03  0.20461302043E+03  0.10000000000E+01 0.  0.
    9000005    1    3    3    0    0  0.54304545829E+02 -0.26835092995E+02  0.11345102450E+03  0.12861275549E+03  0.10000000000E+01 0.  0.
<mgrwt>
<rscale>  0 0.12500561E+03</rscale>
<asrwt>0</asrwt>
<pdfrwt beam="2">  1        4 0.18719851E-02 0.12500561E+03</pdfrwt>
<pdfrwt beam="1">  1       -4 0.49393515E-01 0.12500561E+03</pdfrwt>
<totfact> 0.71601324E+03</totfact>
</mgrwt>
</event>
<event>
 5    1  0.3317939E-002  0.1249982E+03  0.7818608E-02  0.1235072E+00
          4   -1    0    0  501    0  0.00000000000E+00  0.00000000000E+00  0.15247619195E+02  0.15300418005E+02  0.12700000000E+01 0. -1.
         -4   -1    0    0    0  501 -0.00000000000E+00 -0.00000000000E+00 -0.25568291953E+03  0.25568607361E+03  0.12700000000E+01 0. -1.
         25    2    1    2    0    0  0.00000000000E+00  0.00000000000E+00 -0.24043530033E+03  0.27098649161E+03  0.12499817995E+03 0.  0.
    9000005    1    3    3    0    0 -0.59000681691E+02 -0.10258874519E+02 -0.15892654811E+03  0.16983807771E+03  0.10000000000E+01 0.  0.
    9000005    1    3    3    0    0  0.59000681691E+02  0.10258874519E+02 -0.81508752225E+02  0.10114841391E+03  0.10000000000E+01 0.  0.
<mgrwt>
<rscale>  0 0.12499818E+03</rscale>
<asrwt>0</asrwt>
<pdfrwt beam="1">  1        4 0.23500918E-02 0.12499818E+03</pdfrwt>
<pdfrwt beam="2">  1       -4 0.39340135E-01 0.12499818E+03</pdfrwt>
<totfact> 0.79391779E+03</totfact>
</mgrwt>
</event>
<event>
 5    1  0.3317939E-002  0.1249993E+03  0.7818608E-02  0.1235070E+00
          4   -1    0    0  501    0  0.00000000000E+00  0.00000000000E+00  0.64926055199E+02  0.64938475065E+02  0.12700000000E+01 0.  1.
         -4   -1    0    0    0  501 -0.00000000000E+00 -0.00000000000E+00 -0.60139075534E+02  0.60152483789E+02  0.12700000000E+01 0.  1.
         25    2    1    2    0    0  0.00000000000E+00  0.00000000000E+00  0.47869796654E+01  0.12509095885E+03  0.12499933125E+03 0.  0.
    9000005    1    3    3    0    0 -0.15353969424E+02 -0.55566130311E+02  0.26533132535E+02  0.63469255052E+02  0.10000000000E+01 0.  0.
    9000005    1    3    3    0    0  0.15353969424E+02  0.55566130311E+02 -0.21746152870E+02  0.61621703802E+02  0.10000000000E+01 0.  0.
<mgrwt>
<rscale>  0 0.12499933E+03</rscale>
<asrwt>0</asrwt>
<pdfrwt beam="1">  1        4 0.99906107E-02 0.12499933E+03</pdfrwt>
<pdfrwt beam="2">  1       -4 0.92541522E-02 0.12499933E+03</pdfrwt>
<totfact> 0.10451045E+04</totfact>
</mgrwt>
</event>
<event>
 5    1  0.3317939E-002  0.1250069E+03  0.7818608E-02  0.1235058E+00
         -4   -1    0    0    0  501 -0.00000000000E+00  0.00000000000E+00  0.47682747326E+02  0.47699657153E+02  0.12700000000E+01 0. -1.
          4   -1    0    0  501    0  0.00000000000E+00 -0.00000000000E+00 -0.81894362770E+02  0.81904209620E+02  0.12700000000E+01 0. -1.
         25    2    1    2    0    0  0.00000000000E+00  0.00000000000E+00 -0.34211615444E+02  0.12960386677E+03  0.12500691041E+03 0.  0.
    9000005    1    3    3    0    0  0.54070555724E+02  0.78163214281E+01 -0.48569146132E+02  0.73107330911E+02  0.10000000000E+01 0.  0.
    9000005    1    3    3    0    0 -0.54070555724E+02 -0.78163214281E+01  0.14357530688E+02  0.56496535862E+02  0.10000000000E+01 0.  0.
<mgrwt>
<rscale>  0 0.12500691E+03</rscale>
<asrwt>0</asrwt>
<pdfrwt beam="2">  1        4 0.12601191E-01 0.12500691E+03</pdfrwt>
<pdfrwt beam="1">  1       -4 0.73378655E-02 0.12500691E+03</pdfrwt>
<totfact> 0.10351374E+04</totfact>
</mgrwt>
</event>
<event>
 5    1  0.3317939E-002  0.1249985E+03  0.7818608E-02  0.1235072E+00
          4   -1    0    0  501    0  0.00000000000E+00  0.00000000000E+00  0.60037330260E+02  0.60050761233E+02  0.12700000000E+01 0. -1.
         -4   -1    0    0    0  501 -0.00000000000E+00 -0.00000000000E+00 -0.65035235983E+02  0.65047635002E+02  0.12700000000E+01 0. -1.
         25    2    1    2    0    0  0.00000000000E+00  0.00000000000E+00 -0.49979057236E+01  0.12509839624E+03  0.12499851871E+03 0.  0.
    9000005    1    3    3    0    0 -0.17120595354E+02 -0.15855544949E+02  0.55518432323E+02  0.60231299326E+02  0.10000000000E+01 0.  0.
    9000005    1    3    3    0    0  0.17120595354E+02  0.15855544949E+02 -0.60516338047E+02  0.64867096910E+02  0.10000000000E+01 0.  0.
<mgrwt>
<rscale>  0 0.12499852E+03</rscale>
<asrwt>0</asrwt>
<pdfrwt beam="1">  1        4 0.92384993E-02 0.12499852E+03</pdfrwt>
<pdfrwt beam="2">  1       -4 0.10007408E-01 0.12499852E+03</pdfrwt>
<totfact> 0.10451076E+04</totfact>
</mgrwt>
</event>
<event>
 5    1  0.3317939E-002  0.1249833E+03  0.7818608E-02  0.1235095E+00
         -4   -1    0    0    0  501 -0.00000000000E+00  0.00000000000E+00  0.86637086384E+01  0.87562975836E+01  0.12700000000E+01 0. -1.
          4   -1    0    0  501    0  0.00000000000E+00 -0.00000000000E+00 -0.44826510784E+03  0.44826690688E+03  0.12700000000E+01 0. -1.
         25    2    1    2    0    0  0.00000000000E+00  0.00000000000E+00 -0.43960139920E+03  0.45702320447E+03  0.12498327585E+03 0.  0.
    9000005    1    3    3    0    0  0.25873119460E+02 -0.56024691593E+02 -0.18396893679E+03  0.19404575255E+03  0.10000000000E+01 0.  0.
    9000005    1    3    3    0    0 -0.25873119460E+02  0.56024691593E+02 -0.25563246241E+03  0.26297745191E+03  0.10000000000E+01 0.  0.
<mgrwt>
<rscale>  0 0.12498328E+03</rscale>
<asrwt>0</asrwt>
<pdfrwt beam="2">  1        4 0.68971105E-01 0.12498328E+03</pdfrwt>
<pdfrwt beam="1">  1       -4 0.13401392E-02 0.12498328E+03</pdfrwt>
<totfact> 0.59382043E+03</totfact>
</mgrwt>
</event>
<event>
 5    1  0.3317939E-002  0.1249992E+03  0.7818608E-02  0.1235071E+00
         -4   -1    0    0    0  501 -0.00000000000E+00  0.00000000000E+00  0.28179369679E+02  0.28207973615E+02  0.12700000000E+01 0. -1.
          4   -1    0    0  501    0  0.00000000000E+00 -0.00000000000E+00 -0.13851726416E+03  0.13852308605E+03  0.12700000000E+01 0. -1.
         25    2    1    2    0    0  0.00000000000E+00  0.00000000000E+00 -0.11033789448E+03  0.16673105967E+03  0.12499918120E+03 0.  0.
    9000005    1    3    3    0    0  0.13903524346E+02 -0.45379972190E+02 -0.10939231775E+03  0.11924902116E+03  0.10000000000E+01 0.  0.
    9000005    1    3    3    0    0 -0.13903524346E+02  0.45379972190E+02 -0.94557672540E+00  0.47482038504E+02  0.10000000000E+01 0.  0.
<mgrwt>
<rscale>  0 0.12499918E+03</rscale>
<asrwt>0</asrwt>
<pdfrwt beam="2">  1        4 0.21312996E-01 0.12499918E+03</pdfrwt>
<pdfrwt beam="1">  1       -4 0.43379359E-02 0.12499918E+03</pdfrwt>
<totfact> 0.96062325E+03</totfact>
</mgrwt>
</event>
<event>
 5    1  0.3317939E-002  0.1250141E+03  0.7818608E-02  0.1235047E+00
          4   -1    0    0  501    0  0.00000000000E+00  0.00000000000E+00  0.12882792478E+03  0.12883418453E+03  0.12700000000E+01 0.  1.
         -4   -1    0    0    0  501 -0.00000000000E+00 -0.00000000000E+00 -0.30307979863E+02  0.30334576697E+02  0.12700000000E+01 0.  1.
         25    2    1    2    0    0  0.00000000000E+00  0.00000000000E+00  0.98519944917E+02  0.15916876122E+03  0.12501405922E+03 0.  0.
    9000005    1    3    3    0    0  0.43140745848E+01  0.60124557554E+02  0.70279653804E+02  0.92594834626E+02  0.10000000000E+01 0.  0.
    9000005    1    3    3    0    0 -0.43140745848E+01 -0.60124557554E+02  0.28240291113E+02  0.66573926599E+02  0.10000000000E+01 0.  0.
<mgrwt>
<rscale>  0 0.12501406E+03</rscale>
<asrwt>0</asrwt>
<pdfrwt beam="1">  1        4 0.19822208E-01 0.12501406E+03</pdfrwt>
<pdfrwt beam="2">  1       -4 0.46652936E-02 0.12501406E+03</pdfrwt>
<totfact> 0.97472472E+03</totfact>
</mgrwt>
</event>
<event>
 5    1  0.3317939E-002  0.1250020E+03  0.7818608E-02  0.1235066E+00
         -4   -1    0    0    0  501 -0.00000000000E+00  0.00000000000E+00  0.15883360341E+02  0.15934052708E+02  0.12700000000E+01 0. -1.
          4   -1    0    0  501    0  0.00000000000E+00 -0.00000000000E+00 -0.24549733779E+03  0.24550062273E+03  0.12700000000E+01 0. -1.
         25    2    1    2    0    0  0.00000000000E+00  0.00000000000E+00 -0.22961397745E+03  0.26143467544E+03  0.12500204351E+03 0.  0.
    9000005    1    3    3    0    0  0.23691585990E+02 -0.57742728699E+02 -0.12137550441E+03  0.13648636209E+03  0.10000000000E+01 0.  0.
    9000005    1    3    3    0    0 -0.23691585990E+02  0.57742728699E+02 -0.10823847303E+03  0.12494831335E+03  0.10000000000E+01 0.  0.
<mgrwt>
<rscale>  0 0.12500204E+03</rscale>
<asrwt>0</asrwt>
<pdfrwt beam="2">  1        4 0.37772971E-01 0.12500204E+03</pdfrwt>
<pdfrwt beam="1">  1       -4 0.24477462E-02 0.12500204E+03</pdfrwt>
<totfact> 0.80701476E+03</totfact>
</mgrwt>
</event>
<event>
 5    1  0.3317939E-002  0.1250029E+03  0.7818608E-02  0.1235065E+00
         -4   -1    0    0    0  501 -0.00000000000E+00  0.00000000000E+00  0.12156935117E+03  0.12157598465E+03  0.12700000000E+01 0. -1.
          4   -1    0    0  501    0  0.00000000000E+00 -0.00000000000E+00 -0.32113300843E+02  0.32138403679E+02  0.12700000000E+01 0. -1.
         25    2    1    2    0    0  0.00000000000E+00  0.00000000000E+00  0.89456050329E+02  0.15371438833E+03  0.12500291293E+03 0.  0.
    9000005    1    3    3    0    0 -0.11810547667E+02 -0.61277048970E+02  0.48818704891E+02  0.79237817448E+02  0.10000000000E+01 0.  0.
    9000005    1    3    3    0    0  0.11810547667E+02  0.61277048970E+02  0.40637345438E+02  0.74476570885E+02  0.10000000000E+01 0.  0.
<mgrwt>
<rscale>  0 0.12500291E+03</rscale>
<asrwt>0</asrwt>
<pdfrwt beam="2">  1        4 0.49429491E-02 0.12500291E+03</pdfrwt>
<pdfrwt beam="1">  1       -4 0.18705418E-01 0.12500291E+03</pdfrwt>
<totfact> 0.98561918E+03</totfact>
</mgrwt>
</event>
<event>
 5    1  0.3317939E-002  0.1250002E+03  0.7818608E-02  0.1235069E+00
         -4   -1    0    0    0  501 -0.00000000000E+00  0.00000000000E+00  0.39351475109E+03  0.39351680044E+03  0.12700000000E+01 0. -1.
          4   -1    0    0  501    0  0.00000000000E+00 -0.00000000000E+00 -0.98838920790E+01  0.99651504067E+01  0.12700000000E+01 0. -1.
         25    2    1    2    0    0  0.00000000000E+00  0.00000000000E+00  0.38363085901E+03  0.40348195084E+03  0.12500019468E+03 0.  0.
    9000005    1    3    3    0    0  0.33108435901E+02 -0.52558265552E+02  0.21387900116E+03  0.22271903139E+03  0.10000000000E+01 0.  0.
    9000005    1    3    3    0    0 -0.33108435901E+02  0.52558265552E+02  0.16975185785E+03  0.18076291946E+03  0.10000000000E+01 0.  0.
<mgrwt>
<rscale>  0 0.12500019E+03</rscale>
<asrwt>0</asrwt>
<pdfrwt beam="2">  1        4 0.15270070E-02 0.12500019E+03</pdfrwt>
<pdfrwt beam="1">  1       -4 0.60547140E-01 0.12500019E+03</pdfrwt>
<totfact> 0.64215263E+03</totfact>
</mgrwt>
</event>
<event>
 5    1  0.3317939E-002  0.1250027E+03  0.7818608E-02  0.1235065E+00
          4   -1    0    0  501    0  0.00000000000E+00  0.00000000000E+00  0.11734257558E+03  0.11734944799E+03  0.12700000000E+01 0.  1.
         -4   -1    0    0    0  501 -0.00000000000E+00 -0.00000000000E+00 -0.33270772550E+02  0.33295002719E+02  0.12700000000E+01 0.  1.
         25    2    1    2    0    0  0.00000000000E+00  0.00000000000E+00  0.84071803028E+02  0.15064445071E+03  0.12500272983E+03 0.  0.
    9000005    1    3    3    0    0 -0.16226116864E+02 -0.46401248801E+02  0.88539806988E+02  0.10127517060E+03  0.10000000000E+01 0.  0.
    9000005    1    3    3    0    0  0.16226116864E+02  0.46401248801E+02 -0.44680039602E+01  0.49369280106E+02  0.10000000000E+01 0.  0.
<mgrwt>
<rscale>  0 0.12500273E+03</rscale>
<asrwt>0</asrwt>
<pdfrwt beam="1">  1        4 0.18055097E-01 0.12500273E+03</pdfrwt>
<pdfrwt beam="2">  1       -4 0.51209728E-02 0.12500273E+03</pdfrwt>
<totfact> 0.99169299E+03</totfact>
</mgrwt>
</event>
<event>
 5    1  0.3317939E-002  0.1250018E+03  0.7818608E-02  0.1235066E+00
          4   -1    0    0  501    0  0.00000000000E+00  0.00000000000E+00  0.73767472296E+02  0.73778403811E+02  0.12700000000E+01 0. -1.
         -4   -1    0    0    0  501 -0.00000000000E+00 -0.00000000000E+00 -0.52932631194E+02  0.52947864406E+02  0.12700000000E+01 0. -1.
         25    2    1    2    0    0  0.00000000000E+00  0.00000000000E+00  0.20834841102E+02  0.12672626822E+03  0.12500182580E+03 0.  0.
    9000005    1    3    3    0    0  0.35706368466E+02  0.25223240162E+02  0.55690023449E+02  0.70806322493E+02  0.10000000000E+01 0.  0.
    9000005    1    3    3    0    0 -0.35706368466E+02 -0.25223240162E+02 -0.34855182347E+02  0.55919945724E+02  0.10000000000E+01 0.  0.
<mgrwt>
<rscale>  0 0.12500183E+03</rscale>
<asrwt>0</asrwt>
<pdfrwt beam="1">  1        4 0.11350854E-01 0.12500183E+03</pdfrwt>
<pdfrwt beam="2">  1       -4 0.81454945E-02 0.12500183E+03</pdfrwt>
<totfact> 0.10414669E+04</totfact>
</mgrwt>
</event>
<event>
 5    1  0.3317939E-002  0.1249994E+03  0.7818608E-02  0.1235070E+00
          4   -1    0    0  501    0  0.00000000000E+00  0.00000000000E+00  0.30166491749E+03  0.30166759081E+03  0.12700000000E+01 0. -1.
         -4   -1    0    0    0  501 -0.00000000000E+00 -0.00000000000E+00 -0.12914972191E+02  0.12977264993E+02  0.12700000000E+01 0. -1.
         25    2    1    2    0    0  0.00000000000E+00  0.00000000000E+00  0.28874994530E+03  0.31464485580E+03  0.12499941749E+03 0.  0.
    9000005    1    3    3    0    0  0.52983947020E+02 -0.25842505484E+02  0.19657697961E+03  0.20522826960E+03  0.10000000000E+01 0.  0.
    9000005    1    3    3    0    0 -0.52983947020E+02  0.25842505484E+02  0.92172965689E+02  0.10941658620E+03  0.10000000000E+01 0.  0.
<mgrwt>
<rscale>  0 0.12499942E+03</rscale>
<asrwt>0</asrwt>
<pdfrwt beam="1">  1        4 0.46414986E-01 0.12499942E+03</pdfrwt>
<pdfrwt beam="2">  1       -4 0.19919161E-02 0.12499942E+03</pdfrwt>
<totfact> 0.73798558E+03</totfact>
</mgrwt>
</event>
<event>
 5    1  0.3317939E-002  0.1250027E+03  0.7818608E-02  0.1235065E+00
         -4   -1    0    0    0  501 -0.00000000000E+00  0.00000000000E+00  0.73499247036E+03  0.73499356758E+03  0.12700000000E+01 0.  1.
          4   -1    0    0  501    0  0.00000000000E+00 -0.00000000000E+00 -0.52379245706E+01  0.53896895835E+01  0.12700000000E+01 0.  1.
         25    2    1    2    0    0  0.00000000000E+00  0.00000000000E+00  0.72975454579E+03  0.74038325717E+03  0.12500268153E+03 0.  0.
    9000005    1    3    3    0    0 -0.61890496799E+02  0.14946342955E+01  0.41539618301E+03  0.41998530496E+03  0.10000000000E+01 0.  0.
    9000005    1    3    3    0    0  0.61890496799E+02 -0.14946342955E+01  0.31435836279E+03  0.32039795221E+03  0.10000000000E+01 0.  0.
<mgrwt>
<rscale>  0 0.12500268E+03</rscale>
<asrwt>0</asrwt>
<pdfrwt beam="2">  1        4 0.81759361E-03 0.12500268E+03</pdfrwt>
<pdfrwt beam="1">  1       -4 0.11308746E+00 0.12500268E+03</pdfrwt>
<totfact> 0.41035995E+03</totfact>
</mgrwt>
</event>
<event>
 5    1  0.3317939E-002  0.1249969E+03  0.7818608E-02  0.1235074E+00
          4   -1    0    0  501    0  0.00000000000E+00  0.00000000000E+00  0.91318313832E+02  0.91327144602E+02  0.12700000000E+01 0. -1.
         -4   -1    0    0    0  501 -0.00000000000E+00 -0.00000000000E+00 -0.42753720264E+02  0.42772578791E+02  0.12700000000E+01 0. -1.
         25    2    1    2    0    0  0.00000000000E+00  0.00000000000E+00  0.48564593568E+02  0.13409972339E+03  0.12499686422E+03 0.  0.
    9000005    1    3    3    0    0  0.48390527151E+02  0.54614458930E+01  0.66295179203E+02  0.82264945723E+02  0.10000000000E+01 0.  0.
    9000005    1    3    3    0    0 -0.48390527151E+02 -0.54614458930E+01 -0.17730585635E+02  0.51834777671E+02  0.10000000000E+01 0.  0.
<mgrwt>
<rscale>  0 0.12499686E+03</rscale>
<asrwt>0</asrwt>
<pdfrwt beam="1">  1        4 0.14051101E-01 0.12499686E+03</pdfrwt>
<pdfrwt beam="2">  1       -4 0.65796255E-02 0.12499686E+03</pdfrwt>
<totfact> 0.10257807E+04</totfact>
</mgrwt>
</event>
<event>
 5    1  0.3317939E-002  0.1250001E+03  0.7818608E-02  0.1235069E+00
          4   -1    0    0  501    0  0.00000000000E+00  0.00000000000E+00  0.29840932320E+03  0.29841202568E+03  0.12700000000E+01 0.  1.
         -4   -1    0    0    0  501 -0.00000000000E+00 -0.00000000000E+00 -0.13056693676E+02  0.13118313525E+02  0.12700000000E+01 0.  1.
         25    2    1    2    0    0  0.00000000000E+00  0.00000000000E+00  0.28535262952E+03  0.31153033921E+03  0.12500011628E+03 0.  0.
    9000005    1    3    3    0    0  0.18827189532E+02 -0.35796367025E+02  0.26140258519E+03  0.26451494193E+03  0.10000000000E+01 0.  0.
    9000005    1    3    3    0    0 -0.18827189532E+02  0.35796367025E+02  0.23950044330E+02  0.47015397279E+02  0.10000000000E+01 0.  0.
<mgrwt>
<rscale>  0 0.12500012E+03</rscale>
<asrwt>0</asrwt>
<pdfrwt beam="1">  1        4 0.45914071E-01 0.12500012E+03</pdfrwt>
<pdfrwt beam="2">  1       -4 0.20136701E-02 0.12500012E+03</pdfrwt>
<totfact> 0.74174698E+03</totfact>
</mgrwt>
</event>
<event>
 4    1  0.3317939E-002  0.1249353E+03  0.7818608E-02  0.1235170E+00
         -4   -1    0    0    0  501 -0.00000000000E+00  0.00000000000E+00  0.37260174614E+02  0.37281812084E+02  0.12700000000E+01 0.  1.
          4   -1    0    0  501    0  0.00000000000E+00 -0.00000000000E+00 -0.10467281885E+03  0.10468052305E+03  0.12700000000E+01 0.  1.
    9000005    1    1    2    0    0 -0.91655714927E+00 -0.38922277978E+02  0.21790844684E+02  0.44627622747E+02  0.10000000000E+01 0.  0.
    9000005    1    1    2    0    0  0.91655714927E+00  0.38922277978E+02 -0.89203488919E+02  0.97334712387E+02  0.10000000000E+01 0.  0.
<mgrwt>
<rscale>  0 0.12493534E+03</rscale>
<asrwt>0</asrwt>
<pdfrwt beam="2">  1        4 0.16105768E-01 0.12493534E+03</pdfrwt>
<pdfrwt beam="1">  1       -4 0.57345917E-02 0.12493534E+03</pdfrwt>
<totfact> 0.10107790E+04</totfact>
</mgrwt>
</event>
<event>
 5    1  0.3317939E-002  0.1250000E+03  0.7818608E-02  0.1235069E+00
          4   -1    0    0  501    0  0.00000000000E+00  0.00000000000E+00  0.24519166747E+01  0.27613032031E+01  0.12700000000E+01 0.  1.
         -4   -1    0    0    0  501 -0.00000000000E+00 -0.00000000000E+00 -0.14982852420E+04  0.14982857802E+04  0.12700000000E+01 0.  1.
         25    2    1    2    0    0  0.00000000000E+00  0.00000000000E+00 -0.14958333253E+04  0.15010470834E+04  0.12500003834E+03 0.  0.
    9000005    1    3    3    0    0  0.11712926556E+02  0.58529304283E+02 -0.97011384382E+03  0.97194894006E+03  0.10000000000E+01 0.  0.
    9000005    1    3    3    0    0 -0.11712926556E+02 -0.58529304283E+02 -0.52571948149E+03  0.52909814337E+03  0.10000000000E+01 0.  0.
<mgrwt>
<rscale>  0 0.12500004E+03</rscale>
<asrwt>0</asrwt>
<pdfrwt beam="1">  1        4 0.40105951E-03 0.12500004E+03</pdfrwt>
<pdfrwt beam="2">  1       -4 0.23052857E+00 0.12500004E+03</pdfrwt>
<totfact> 0.17909936E+03</totfact>
</mgrwt>
</event>
<event>
 5    1  0.3317939E-002  0.1249919E+03  0.7818608E-02  0.1235082E+00
         -4   -1    0    0    0  501 -0.00000000000E+00  0.00000000000E+00  0.11901366287E+03  0.11902043879E+03  0.12700000000E+01 0. -1.
          4   -1    0    0  501    0  0.00000000000E+00 -0.00000000000E+00 -0.32797606378E+02  0.32822185852E+02  0.12700000000E+01 0. -1.
         25    2    1    2    0    0  0.00000000000E+00  0.00000000000E+00  0.86216056494E+02  0.15184262464E+03  0.12499189678E+03 0.  0.
    9000005    1    3    3    0    0 -0.56073195890E+02 -0.25933487159E+01  0.76461740398E+02  0.94859509273E+02  0.10000000000E+01 0.  0.
    9000005    1    3    3    0    0  0.56073195890E+02  0.25933487159E+01  0.97543160964E+01  0.56983115371E+02  0.10000000000E+01 0.  0.
<mgrwt>
<rscale>  0 0.12499190E+03</rscale>
<asrwt>0</asrwt>
<pdfrwt beam="2">  1        4 0.50481975E-02 0.12499190E+03</pdfrwt>
<pdfrwt beam="1">  1       -4 0.18312207E-01 0.12499190E+03</pdfrwt>
<totfact> 0.98955700E+03</totfact>
</mgrwt>
</event>
<event>
 5    1  0.3317939E-002  0.1250020E+03  0.7818608E-02  0.1235066E+00
         -4   -1    0    0    0  501 -0.00000000000E+00  0.00000000000E+00  0.50323828322E+03  0.50323988574E+03  0.12700000000E+01 0. -1.
          4   -1    0    0  501    0  0.00000000000E+00 -0.00000000000E+00 -0.77089087481E+01  0.78128211350E+01  0.12700000000E+01 0. -1.
         25    2    1    2    0    0  0.00000000000E+00  0.00000000000E+00  0.49552937447E+03  0.51105270687E+03  0.12500203294E+03 0.  0.
    9000005    1    3    3    0    0 -0.84994472549E+01 -0.24894363347E+02  0.16008416811E+02  0.30809727991E+02  0.10000000000E+01 0.  0.
    9000005    1    3    3    0    0  0.84994472549E+01  0.24894363347E+02  0.47952095766E+03  0.48024297888E+03  0.10000000000E+01 0.  0.
<mgrwt>
<rscale>  0 0.12500203E+03</rscale>
<asrwt>0</asrwt>
<pdfrwt beam="2">  1        4 0.11941024E-02 0.12500203E+03</pdfrwt>
<pdfrwt beam="1">  1       -4 0.77429398E-01 0.12500203E+03</pdfrwt>
<totfact> 0.55014432E+03</totfact>
</mgrwt>
</event>
<event>
 5    1  0.3317939E-002  0.1249983E+03  0.7818608E-02  0.1235072E+00
          4   -1    0    0  501    0  0.00000000000E+00  0.00000000000E+00  0.21593395614E+03  0.21593769082E+03  0.12700000000E+01 0. -1.
         -4   -1    0    0    0  501 -0.00000000000E+00 -0.00000000000E+00 -0.18063350623E+02  0.18107941234E+02  0.12700000000E+01 0. -1.
         25    2    1    2    0    0  0.00000000000E+00  0.00000000000E+00  0.19787060552E+03  0.23404563205E+03  0.12499832540E+03 0.  0.
    9000005    1    3    3    0    0 -0.10533786792E+02 -0.15024793948E+02  0.21078519233E+03  0.21158474048E+03  0.10000000000E+01 0.  0.
    9000005    1    3    3    0    0  0.10533786792E+02  0.15024793948E+02 -0.12914586816E+02  0.22460891567E+02  0.10000000000E+01 0.  0.
<mgrwt>
<rscale>  0 0.12499833E+03</rscale>
<asrwt>0</asrwt>
<pdfrwt beam="1">  1        4 0.33224325E-01 0.12499833E+03</pdfrwt>
<pdfrwt beam="2">  1       -4 0.27826944E-02 0.12499833E+03</pdfrwt>
<totfact> 0.84695397E+03</totfact>
</mgrwt>
</event>
<event>
 5    1  0.3317939E-002  0.1250215E+03  0.7818608E-02  0.1235036E+00
         -4   -1    0    0    0  501 -0.00000000000E+00  0.00000000000E+00  0.50286827254E+03  0.50286987623E+03  0.12700000000E+01 0. -1.
          4   -1    0    0  501    0  0.00000000000E+00 -0.00000000000E+00 -0.77170965247E+01  0.78209001254E+01  0.12700000000E+01 0. -1.
         25    2    1    2    0    0  0.00000000000E+00  0.00000000000E+00  0.49515117601E+03  0.51069077636E+03  0.12502152596E+03 0.  0.
    9000005    1    3    3    0    0 -0.24031464496E+01 -0.21856042311E+02  0.85826020033E+01  0.23624621807E+02  0.10000000000E+01 0.  0.
    9000005    1    3    3    0    0  0.24031464496E+01  0.21856042311E+02  0.48656857401E+03  0.48706615455E+03  0.10000000000E+01 0.  0.
<mgrwt>
<rscale>  0 0.12502153E+03</rscale>
<asrwt>0</asrwt>
<pdfrwt beam="2">  1        4 0.11953537E-02 0.12502153E+03</pdfrwt>
<pdfrwt beam="1">  1       -4 0.77372468E-01 0.12502153E+03</pdfrwt>
<totfact> 0.55018288E+03</totfact>
</mgrwt>
</event>
<event>
 5    1  0.3317939E-002  0.1249947E+03  0.7818608E-02  0.1235078E+00
         -4   -1    0    0    0  501 -0.00000000000E+00  0.00000000000E+00  0.13875249280E+03  0.13875830482E+03  0.12700000000E+01 0.  1.
          4   -1    0    0  501    0  0.00000000000E+00 -0.00000000000E+00 -0.28129531152E+02  0.28158185717E+02  0.12700000000E+01 0.  1.
         25    2    1    2    0    0  0.00000000000E+00  0.00000000000E+00  0.11062296164E+03  0.16691649054E+03  0.12499470057E+03 0.  0.
    9000005    1    3    3    0    0  0.29234861326E+02 -0.20530106004E+02  0.12377872029E+03  0.12883452164E+03  0.10000000000E+01 0.  0.
    9000005    1    3    3    0    0 -0.29234861326E+02  0.20530106004E+02 -0.13155758651E+02  0.38081968895E+02  0.10000000000E+01 0.  0.
<mgrwt>
<rscale>  0 0.12499470E+03</rscale>
<asrwt>0</asrwt>
<pdfrwt beam="2">  1        4 0.43302715E-02 0.12499470E+03</pdfrwt>
<pdfrwt beam="1">  1       -4 0.21349189E-01 0.12499470E+03</pdfrwt>
<totfact> 0.96037096E+03</totfact>
</mgrwt>
</event>
<event>
 5    1  0.3317939E-002  0.1249994E+03  0.7818608E-02  0.1235070E+00
          4   -1    0    0  501    0  0.00000000000E+00  0.00000000000E+00  0.21917403629E+02  0.21954167756E+02  0.12700000000E+01 0. -1.
         -4   -1    0    0    0  501 -0.00000000000E+00 -0.00000000000E+00 -0.17803596291E+03  0.17804049256E+03  0.12700000000E+01 0. -1.
         25    2    1    2    0    0  0.00000000000E+00  0.00000000000E+00 -0.15611855928E+03  0.19999466031E+03  0.12499943840E+03 0.  0.
    9000005    1    3    3    0    0 -0.45434393790E+02  0.32374413850E+02 -0.33008755009E+02  0.64830276248E+02  0.10000000000E+01 0.  0.
    9000005    1    3    3    0    0  0.45434393790E+02 -0.32374413850E+02 -0.12310980427E+03  0.13516438406E+03  0.10000000000E+01 0.  0.
<mgrwt>
<rscale>  0 0.12499944E+03</rscale>
<asrwt>0</asrwt>
<pdfrwt beam="1">  1        4 0.33750848E-02 0.12499944E+03</pdfrwt>
<pdfrwt beam="2">  1       -4 0.27393324E-01 0.12499944E+03</pdfrwt>
<totfact> 0.90137540E+03</totfact>
</mgrwt>
</event>
<event>
 4    1  0.3317939E-002  0.1251245E+03  0.7818608E-02  0.1234875E+00
         -4   -1    0    0    0  501 -0.00000000000E+00  0.00000000000E+00  0.85422287642E+01  0.86361202087E+01  0.12700000000E+01 0.  1.
          4   -1    0    0  501    0  0.00000000000E+00 -0.00000000000E+00 -0.45559951363E+03  0.45560128371E+03  0.12700000000E+01 0.  1.
    9000005    1    1    2    0    0 -0.39249173597E+02 -0.20922414737E+02 -0.60330635732E+02  0.74960193931E+02  0.10000000000E+01 0.  0.
    9000005    1    1    2    0    0  0.39249173597E+02  0.20922414737E+02 -0.38672664914E+03  0.38927720999E+03  0.10000000000E+01 0.  0.
<mgrwt>
<rscale>  0 0.12512454E+03</rscale>
<asrwt>0</asrwt>
<pdfrwt beam="2">  1        4 0.70099573E-01 0.12512454E+03</pdfrwt>
<pdfrwt beam="1">  1       -4 0.13215480E-02 0.12512454E+03</pdfrwt>
<totfact> 0.58589167E+03</totfact>
</mgrwt>
</event>
<event>
 5    1  0.3317939E-002  0.1249995E+03  0.7818608E-02  0.1235070E+00
         -4   -1    0    0    0  501 -0.00000000000E+00  0.00000000000E+00  0.24783974780E+02  0.24816492618E+02  0.12700000000E+01 0. -1.
          4   -1    0    0  501    0  0.00000000000E+00 -0.00000000000E+00 -0.15747234436E+03  0.15747746549E+03  0.12700000000E+01 0. -1.
         25    2    1    2    0    0  0.00000000000E+00  0.00000000000E+00 -0.13268836958E+03  0.18229395811E+03  0.12499953497E+03 0.  0.
    9000005    1    3    3    0    0  0.60750261574E+02  0.14403306808E+02 -0.62438779894E+02  0.88304307726E+02  0.10000000000E+01 0.  0.
    9000005    1    3    3    0    0 -0.60750261574E+02 -0.14403306808E+02 -0.70249589683E+02  0.93989650382E+02  0.10000000000E+01 0.  0.
<mgrwt>
<rscale>  0 0.12499953E+03</rscale>
<asrwt>0</asrwt>
<pdfrwt beam="2">  1        4 0.24229409E-01 0.12499953E+03</pdfrwt>
<pdfrwt beam="1">  1       -4 0.38158146E-02 0.12499953E+03</pdfrwt>
<totfact> 0.93206677E+03</totfact>
</mgrwt>
</event>
<event>
 5    1  0.3317939E-002  0.1249902E+03  0.7818608E-02  0.1235085E+00
         -4   -1    0    0    0  501 -0.00000000000E+00  0.00000000000E+00  0.52806336953E+03  0.52806489671E+03  0.12700000000E+01 0. -1.
          4   -1    0    0  501    0  0.00000000000E+00 -0.00000000000E+00 -0.73400836318E+01  0.74491427508E+01  0.12700000000E+01 0. -1.
         25    2    1    2    0    0  0.00000000000E+00  0.00000000000E+00  0.52072328590E+03  0.53551403946E+03  0.12499018355E+03 0.  0.
    9000005    1    3    3    0    0  0.57834178137E+02  0.15321336981E+02  0.33761263885E+03  0.34287436393E+03  0.10000000000E+01 0.  0.
    9000005    1    3    3    0    0 -0.57834178137E+02 -0.15321336981E+02  0.18311064704E+03  0.19263967553E+03  0.10000000000E+01 0.  0.
<mgrwt>
<rscale>  0 0.12499018E+03</rscale>
<asrwt>0</asrwt>
<pdfrwt beam="2">  1        4 0.11377503E-02 0.12499018E+03</pdfrwt>
<pdfrwt beam="1">  1       -4 0.81249022E-01 0.12499018E+03</pdfrwt>
<totfact> 0.53221966E+03</totfact>
</mgrwt>
</event>
<event>
 5    1  0.3317939E-002  0.1250316E+03  0.7818608E-02  0.1235020E+00
          4   -1    0    0  501    0  0.00000000000E+00  0.00000000000E+00  0.11941916404E+03  0.11942591695E+03  0.12700000000E+01 0. -1.
         -4   -1    0    0    0  501 -0.00000000000E+00 -0.00000000000E+00 -0.32706961335E+02  0.32731608878E+02  0.12700000000E+01 0. -1.
         25    2    1    2    0    0  0.00000000000E+00  0.00000000000E+00  0.86712202704E+02  0.15215752583E+03  0.12503162228E+03 0.  0.
    9000005    1    3    3    0    0  0.18496353846E+02  0.44314859282E+02  0.92054039318E+02  0.10383095884E+03  0.10000000000E+01 0.  0.
    9000005    1    3    3    0    0 -0.18496353846E+02 -0.44314859282E+02 -0.53418366136E+01  0.48326566991E+02  0.10000000000E+01 0.  0.
<mgrwt>
<rscale>  0 0.12503162E+03</rscale>
<asrwt>0</asrwt>
<pdfrwt beam="1">  1        4 0.18374595E-01 0.12503162E+03</pdfrwt>
<pdfrwt beam="2">  1       -4 0.50342556E-02 0.12503162E+03</pdfrwt>
<totfact> 0.98805036E+03</totfact>
</mgrwt>
</event>
<event>
 5    1  0.3317939E-002  0.1250007E+03  0.7818608E-02  0.1235068E+00
         -4   -1    0    0    0  501 -0.00000000000E+00  0.00000000000E+00  0.16212927483E+04  0.16212932458E+04  0.12700000000E+01 0.  1.
          4   -1    0    0  501    0  0.00000000000E+00 -0.00000000000E+00 -0.22414810898E+01  0.25762642481E+01  0.12700000000E+01 0.  1.
         25    2    1    2    0    0  0.00000000000E+00  0.00000000000E+00  0.16190512673E+04  0.16238695100E+04  0.12500071809E+03 0.  0.
    9000005    1    3    3    0    0 -0.78310156226E+00 -0.62284738354E+02  0.87485956574E+03  0.87707483241E+03  0.10000000000E+01 0.  0.
    9000005    1    3    3    0    0  0.78310156226E+00  0.62284738354E+02  0.74419170151E+03  0.74679467759E+03  0.10000000000E+01 0.  0.
<mgrwt>
<rscale>  0 0.12500072E+03</rscale>
<asrwt>0</asrwt>
<pdfrwt beam="2">  1        4 0.37063289E-03 0.12500072E+03</pdfrwt>
<pdfrwt beam="1">  1       -4 0.24945623E+00 0.12500072E+03</pdfrwt>
<totfact> 0.15618139E+03</totfact>
</mgrwt>
</event>
<event>
 5    1  0.3317939E-002  0.1250028E+03  0.7818608E-02  0.1235065E+00
          4   -1    0    0  501    0  0.00000000000E+00  0.00000000000E+00  0.18675085601E+03  0.18675517428E+03  0.12700000000E+01 0.  1.
         -4   -1    0    0    0  501 -0.00000000000E+00 -0.00000000000E+00 -0.20894016161E+02  0.20932577752E+02  0.12700000000E+01 0.  1.
         25    2    1    2    0    0  0.00000000000E+00  0.00000000000E+00  0.16585683985E+03  0.20768775204E+03  0.12500284405E+03 0.  0.
    9000005    1    3    3    0    0  0.47357204276E+02  0.17569811604E+02  0.21791397768E+02  0.55020615166E+02  0.10000000000E+01 0.  0.
    9000005    1    3    3    0    0 -0.47357204276E+02 -0.17569811604E+02  0.14406544209E+03  0.15266713687E+03  0.10000000000E+01 0.  0.
<mgrwt>
<rscale>  0 0.12500284E+03</rscale>
<asrwt>0</asrwt>
<pdfrwt beam="1">  1        4 0.28734200E-01 0.12500284E+03</pdfrwt>
<pdfrwt beam="2">  1       -4 0.32177624E-02 0.12500284E+03</pdfrwt>
<totfact> 0.88849247E+03</totfact>
</mgrwt>
</event>
<event>
 5    1  0.3317939E-002  0.1249998E+03  0.7818608E-02  0.1235070E+00
          4   -1    0    0  501    0  0.00000000000E+00  0.00000000000E+00  0.22351053476E+02  0.22387105473E+02  0.12700000000E+01 0.  1.
         -4   -1    0    0    0  501 -0.00000000000E+00 -0.00000000000E+00 -0.17458820972E+03  0.17459282881E+03  0.12700000000E+01 0.  1.
         25    2    1    2    0    0  0.00000000000E+00  0.00000000000E+00 -0.15223715624E+03  0.19697993428E+03  0.12499977108E+03 0.  0.
    9000005    1    3    3    0    0  0.62226703012E+02 -0.15940880372E+01 -0.84826017412E+02  0.10521956526E+03  0.10000000000E+01 0.  0.
    9000005    1    3    3    0    0 -0.62226703012E+02  0.15940880372E+01 -0.67411138828E+02  0.91760369019E+02  0.10000000000E+01 0.  0.
<mgrwt>
<rscale>  0 0.12499977E+03</rscale>
<asrwt>0</asrwt>
<pdfrwt beam="1">  1        4 0.34417523E-02 0.12499977E+03</pdfrwt>
<pdfrwt beam="2">  1       -4 0.26862852E-01 0.12499977E+03</pdfrwt>
<totfact> 0.90647277E+03</totfact>
</mgrwt>
</event>
<event>
 5    1  0.3317939E-002  0.1249996E+03  0.7818608E-02  0.1235070E+00
          4   -1    0    0  501    0  0.00000000000E+00  0.00000000000E+00  0.45895283829E+01  0.47620028116E+01  0.12700000000E+01 0. -1.
         -4   -1    0    0    0  501 -0.00000000000E+00 -0.00000000000E+00 -0.83524626553E+03  0.83524723105E+03  0.12700000000E+01 0. -1.
         25    2    1    2    0    0  0.00000000000E+00  0.00000000000E+00 -0.83065673715E+03  0.84000923387E+03  0.12499959204E+03 0.  0.
    9000005    1    3    3    0    0 -0.48239563904E+02 -0.18923530561E+01 -0.14866772068E+03  0.15631291597E+03  0.10000000000E+01 0.  0.
    9000005    1    3    3    0    0  0.48239563904E+02  0.18923530561E+01 -0.68198901647E+03  0.68369631790E+03  0.10000000000E+01 0.  0.
<mgrwt>
<rscale>  0 0.12499959E+03</rscale>
<asrwt>0</asrwt>
<pdfrwt beam="1">  1        4 0.71942349E-03 0.12499959E+03</pdfrwt>
<pdfrwt beam="2">  1       -4 0.12851265E+00 0.12499959E+03</pdfrwt>
<totfact> 0.36540036E+03</totfact>
</mgrwt>
</event>
<event>
 5    1  0.3317939E-002  0.1250004E+03  0.7818608E-02  0.1235069E+00
         -4   -1    0    0    0  501 -0.00000000000E+00  0.00000000000E+00  0.14427744216E+03  0.14428303163E+03  0.12700000000E+01 0.  1.
          4   -1    0    0  501    0  0.00000000000E+00 -0.00000000000E+00 -0.27053718667E+02  0.27083511473E+02  0.12700000000E+01 0.  1.
         25    2    1    2    0    0  0.00000000000E+00  0.00000000000E+00  0.11722372349E+03  0.17136654310E+03  0.12500036298E+03 0.  0.
    9000005    1    3    3    0    0 -0.74522894646E+01  0.53907929713E+02  0.10072572749E+03  0.11449136946E+03  0.10000000000E+01 0.  0.
    9000005    1    3    3    0    0  0.74522894646E+01 -0.53907929713E+02  0.16497996008E+02  0.56875173639E+02  0.10000000000E+01 0.  0.
<mgrwt>
<rscale>  0 0.12500036E+03</rscale>
<asrwt>0</asrwt>
<pdfrwt beam="2">  1        4 0.41648322E-02 0.12500036E+03</pdfrwt>
<pdfrwt beam="1">  1       -4 0.22199251E-01 0.12500036E+03</pdfrwt>
<totfact> 0.95193767E+03</totfact>
</mgrwt>
</event>
<event>
 5    1  0.3317939E-002  0.1249987E+03  0.7818608E-02  0.1235071E+00
         -4   -1    0    0    0  501 -0.00000000000E+00  0.00000000000E+00  0.17598026122E+02  0.17643792772E+02  0.12700000000E+01 0.  1.
          4   -1    0    0  501    0  0.00000000000E+00 -0.00000000000E+00 -0.22163048410E+03  0.22163412279E+03  0.12700000000E+01 0.  1.
         25    2    1    2    0    0  0.00000000000E+00  0.00000000000E+00 -0.20403245798E+03  0.23927791556E+03  0.12499870785E+03 0.  0.
    9000005    1    3    3    0    0 -0.52106646857E+02  0.27061327277E+02 -0.14297169012E+03  0.15456171019E+03  0.10000000000E+01 0.  0.
    9000005    1    3    3    0    0  0.52106646857E+02 -0.27061327277E+02 -0.61060767862E+02  0.84716205371E+02  0.10000000000E+01 0.  0.
<mgrwt>
<rscale>  0 0.12499871E+03</rscale>
<asrwt>0</asrwt>
<pdfrwt beam="2">  1        4 0.34100796E-01 0.12499871E+03</pdfrwt>
<pdfrwt beam="1">  1       -4 0.27111892E-02 0.12499871E+03</pdfrwt>
<totfact> 0.83907445E+03</totfact>
</mgrwt>
</event>
<event>
 5    1  0.3317939E-002  0.1250013E+03  0.7818608E-02  0.1235067E+00
          4   -1    0    0  501    0  0.00000000000E+00  0.00000000000E+00  0.91635282813E+01  0.92511161793E+01  0.12700000000E+01 0. -1.
         -4   -1    0    0    0  501 -0.00000000000E+00 -0.00000000000E+00 -0.42417505530E+03  0.42417695652E+03  0.12700000000E+01 0. -1.
         25    2    1    2    0    0  0.00000000000E+00  0.00000000000E+00 -0.41501152702E+03  0.43342807270E+03  0.12500130656E+03 0.  0.
    9000005    1    3    3    0    0  0.49143747394E+02  0.11607362160E+02 -0.33516466624E+03  0.33894865727E+03  0.10000000000E+01 0.  0.
    9000005    1    3    3    0    0 -0.49143747394E+02 -0.11607362160E+02 -0.79846860779E+02  0.94479415433E+02  0.10000000000E+01 0.  0.
<mgrwt>
<rscale>  0 0.12500131E+03</rscale>
<asrwt>0</asrwt>
<pdfrwt beam="1">  1        4 0.14166577E-02 0.12500131E+03</pdfrwt>
<pdfrwt beam="2">  1       -4 0.65264570E-01 0.12500131E+03</pdfrwt>
<totfact> 0.61424720E+03</totfact>
</mgrwt>
</event>
<event>
 5    1  0.3317939E-002  0.1249968E+03  0.7818608E-02  0.1235074E+00
          4   -1    0    0  501    0  0.00000000000E+00  0.00000000000E+00  0.50430283434E+03  0.50430443348E+03  0.12700000000E+01 0. -1.
         -4   -1    0    0    0  501 -0.00000000000E+00 -0.00000000000E+00 -0.76917605339E+01  0.77959014945E+01  0.12700000000E+01 0. -1.
         25    2    1    2    0    0  0.00000000000E+00  0.00000000000E+00  0.49661107381E+03  0.51210033497E+03  0.12499677776E+03 0.  0.
    9000005    1    3    3    0    0 -0.27755218381E+02 -0.55046235582E+02  0.29020799975E+03  0.29668522599E+03  0.10000000000E+01 0.  0.
    9000005    1    3    3    0    0  0.27755218381E+02  0.55046235582E+02  0.20640307406E+03  0.21541510898E+03  0.10000000000E+01 0.  0.
<mgrwt>
<rscale>  0 0.12499678E+03</rscale>
<asrwt>0</asrwt>
<pdfrwt beam="1">  1        4 0.77593173E-01 0.12499678E+03</pdfrwt>
<pdfrwt beam="2">  1       -4 0.11914818E-02 0.12499678E+03</pdfrwt>
<totfact> 0.54941497E+03</totfact>
</mgrwt>
</event>
<event>
 5    1  0.3317939E-002  0.1249992E+03  0.7818608E-02  0.1235071E+00
          4   -1    0    0  501    0  0.00000000000E+00  0.00000000000E+00  0.24336821208E+01  0.27451245263E+01  0.12700000000E+01 0. -1.
         -4   -1    0    0    0  501 -0.00000000000E+00 -0.00000000000E+00 -0.15082207075E+04  0.15082212422E+04  0.12700000000E+01 0. -1.
         25    2    1    2    0    0  0.00000000000E+00  0.00000000000E+00 -0.15057870254E+04  0.15109663668E+04  0.12499918234E+03 0.  0.
    9000005    1    3    3    0    0 -0.48928319935E+02 -0.12379768870E+02 -0.11983354172E+04  0.11993981871E+04  0.10000000000E+01 0.  0.
    9000005    1    3    3    0    0  0.48928319935E+02  0.12379768870E+02 -0.30745160827E+03  0.31156817969E+03  0.10000000000E+01 0.  0.
<mgrwt>
<rscale>  0 0.12499918E+03</rscale>
<asrwt>0</asrwt>
<pdfrwt beam="1">  1        4 0.39841208E-03 0.12499918E+03</pdfrwt>
<pdfrwt beam="2">  1       -4 0.23205725E+00 0.12499918E+03</pdfrwt>
<totfact> 0.17716248E+03</totfact>
</mgrwt>
</event>
<event>
 5    1  0.3317939E-002  0.1250038E+03  0.7818608E-02  0.1235063E+00
         -4   -1    0    0    0  501 -0.00000000000E+00  0.00000000000E+00  0.13214991208E+02  0.13275876341E+02  0.12700000000E+01 0. -1.
          4   -1    0    0  501    0  0.00000000000E+00 -0.00000000000E+00 -0.29486848554E+03  0.29487122048E+03  0.12700000000E+01 0. -1.
         25    2    1    2    0    0  0.00000000000E+00  0.00000000000E+00 -0.28165349434E+03  0.30814709682E+03  0.12500376957E+03 0.  0.
    9000005    1    3    3    0    0 -0.29053938457E+02  0.20573038736E+02 -0.14212972929E+02  0.38345662886E+02  0.10000000000E+01 0.  0.
    9000005    1    3    3    0    0  0.29053938457E+02 -0.20573038736E+02 -0.26744052141E+03  0.26980143393E+03  0.10000000000E+01 0.  0.
<mgrwt>
<rscale>  0 0.12500377E+03</rscale>
<asrwt>0</asrwt>
<pdfrwt beam="2">  1        4 0.45369272E-01 0.12500377E+03</pdfrwt>
<pdfrwt beam="1">  1       -4 0.20379696E-02 0.12500377E+03</pdfrwt>
<totfact> 0.74581880E+03</totfact>
</mgrwt>
</event>
<event>
 5    1  0.3317939E-002  0.1249999E+03  0.7818608E-02  0.1235069E+00
          4   -1    0    0  501    0  0.00000000000E+00  0.00000000000E+00  0.17455767090E+03  0.17456229080E+03  0.12700000000E+01 0. -1.
         -4   -1    0    0    0  501 -0.00000000000E+00 -0.00000000000E+00 -0.22355007415E+02  0.22391053047E+02  0.12700000000E+01 0. -1.
         25    2    1    2    0    0  0.00000000000E+00  0.00000000000E+00  0.15220266349E+03  0.19695334385E+03  0.12499987553E+03 0.  0.
    9000005    1    3    3    0    0 -0.51684571863E+02 -0.31420525106E+02  0.10084912411E+03  0.11760140391E+03  0.10000000000E+01 0.  0.
    9000005    1    3    3    0    0  0.51684571863E+02  0.31420525106E+02  0.51353539373E+02  0.79351939943E+02  0.10000000000E+01 0.  0.
<mgrwt>
<rscale>  0 0.12499988E+03</rscale>
<asrwt>0</asrwt>
<pdfrwt beam="1">  1        4 0.26858154E-01 0.12499988E+03</pdfrwt>
<pdfrwt beam="2">  1       -4 0.34423601E-02 0.12499988E+03</pdfrwt>
<totfact> 0.90651586E+03</totfact>
</mgrwt>
</event>
<event>
 5    1  0.3317939E-002  0.1249964E+03  0.7818608E-02  0.1235075E+00
          4   -1    0    0  501    0  0.00000000000E+00  0.00000000000E+00  0.54096168674E+02  0.54111074330E+02  0.12700000000E+01 0. -1.
         -4   -1    0    0    0  501 -0.00000000000E+00 -0.00000000000E+00 -0.72174801938E+02  0.72185974641E+02  0.12700000000E+01 0. -1.
         25    2    1    2    0    0  0.00000000000E+00  0.00000000000E+00 -0.18078633265E+02  0.12629704897E+03  0.12499643034E+03 0.  0.
    9000005    1    3    3    0    0 -0.45443124198E+01 -0.14170791275E+02 -0.70363214196E+02  0.71926657177E+02  0.10000000000E+01 0.  0.
    9000005    1    3    3    0    0  0.45443124198E+01  0.14170791275E+02  0.52284580931E+02  0.54370391794E+02  0.10000000000E+01 0.  0.
<mgrwt>
<rscale>  0 0.12499643E+03</rscale>
<asrwt>0</asrwt>
<pdfrwt beam="1">  1        4 0.83244935E-02 0.12499643E+03</pdfrwt>
<pdfrwt beam="2">  1       -4 0.11105822E-01 0.12499643E+03</pdfrwt>
<totfact> 0.10425298E+04</totfact>
</mgrwt>
</event>
<event>
 5    1  0.3317939E-002  0.1249997E+03  0.7818608E-02  0.1235070E+00
          4   -1    0    0  501    0  0.00000000000E+00  0.00000000000E+00  0.88555319733E+01  0.89461358435E+01  0.12700000000E+01 0. -1.
         -4   -1    0    0    0  501 -0.00000000000E+00 -0.00000000000E+00 -0.43877003412E+03  0.43877187210E+03  0.12700000000E+01 0. -1.
         25    2    1    2    0    0  0.00000000000E+00  0.00000000000E+00 -0.42991450215E+03  0.44771800794E+03  0.12499974191E+03 0.  0.
    9000005    1    3    3    0    0  0.31670460148E+02  0.51561448281E+02 -0.15905061121E+03  0.17017549154E+03  0.10000000000E+01 0.  0.
    9000005    1    3    3    0    0 -0.31670460148E+02 -0.51561448281E+02 -0.27086389094E+03  0.27754251640E+03  0.10000000000E+01 0.  0.
<mgrwt>
<rscale>  0 0.12499974E+03</rscale>
<asrwt>0</asrwt>
<pdfrwt beam="1">  1        4 0.13695008E-02 0.12499974E+03</pdfrwt>
<pdfrwt beam="2">  1       -4 0.67510176E-01 0.12499974E+03</pdfrwt>
<totfact> 0.60162344E+03</totfact>
</mgrwt>
</event>
<event>
 5    1  0.3317939E-002  0.1250009E+03  0.7818608E-02  0.1235068E+00
         -4   -1    0    0    0  501 -0.00000000000E+00  0.00000000000E+00  0.54876354642E+02  0.54891048439E+02  0.12700000000E+01 0. -1.
          4   -1    0    0  501    0  0.00000000000E+00 -0.00000000000E+00 -0.71153834177E+02  0.71165167168E+02  0.12700000000E+01 0. -1.
         25    2    1    2    0    0  0.00000000000E+00  0.00000000000E+00 -0.16277479535E+02  0.12605621561E+03  0.12500085261E+03 0.  0.
    9000005    1    3    3    0    0  0.10447131650E+02 -0.39804572502E+02  0.39287639379E+02  0.56903999506E+02  0.10000000000E+01 0.  0.
    9000005    1    3    3    0    0 -0.10447131650E+02  0.39804572502E+02 -0.55565118915E+02  0.69152216102E+02  0.10000000000E+01 0.  0.
<mgrwt>
<rscale>  0 0.12500085E+03</rscale>
<asrwt>0</asrwt>
<pdfrwt beam="2">  1        4 0.10948746E-01 0.12500085E+03</pdfrwt>
<pdfrwt beam="1">  1       -4 0.84445181E-02 0.12500085E+03</pdfrwt>
<totfact> 0.10429525E+04</totfact>
</mgrwt>
</event>
<event>
 5    1  0.3317939E-002  0.1249980E+03  0.7818608E-02  0.1235072E+00
         -4   -1    0    0    0  501 -0.00000000000E+00  0.00000000000E+00  0.12406243717E+02  0.12471077867E+02  0.12700000000E+01 0.  1.
          4   -1    0    0  501    0  0.00000000000E+00 -0.00000000000E+00 -0.31396465114E+03  0.31396721974E+03  0.12700000000E+01 0.  1.
         25    2    1    2    0    0  0.00000000000E+00  0.00000000000E+00 -0.30155840743E+03  0.32643829760E+03  0.12499795619E+03 0.  0.
    9000005    1    3    3    0    0 -0.39159515041E+02  0.63470175859E+01 -0.27687592526E+03  0.27970525601E+03  0.10000000000E+01 0.  0.
    9000005    1    3    3    0    0  0.39159515041E+02 -0.63470175859E+01 -0.24682482164E+02  0.46733041590E+02  0.10000000000E+01 0.  0.
<mgrwt>
<rscale>  0 0.12499796E+03</rscale>
<asrwt>0</asrwt>
<pdfrwt beam="2">  1        4 0.48307433E-01 0.12499796E+03</pdfrwt>
<pdfrwt beam="1">  1       -4 0.19138380E-02 0.12499796E+03</pdfrwt>
<totfact> 0.72400144E+03</totfact>
</mgrwt>
</event>
<event>
 5    1  0.3317939E-002  0.1250045E+03  0.7818608E-02  0.1235062E+00
          4   -1    0    0  501    0  0.00000000000E+00  0.00000000000E+00  0.12503562868E+03  0.12504207828E+03  0.12700000000E+01 0.  1.
         -4   -1    0    0    0  501 -0.00000000000E+00 -0.00000000000E+00 -0.31223202061E+02  0.31249019936E+02  0.12700000000E+01 0.  1.
         25    2    1    2    0    0  0.00000000000E+00  0.00000000000E+00  0.93812426623E+02  0.15629109821E+03  0.12500454389E+03 0.  0.
    9000005    1    3    3    0    0 -0.51270013475E+02  0.34475213141E+02  0.58660166473E+02  0.85200761344E+02  0.10000000000E+01 0.  0.
    9000005    1    3    3    0    0  0.51270013475E+02 -0.34475213141E+02  0.35152260149E+02  0.71090336871E+02  0.10000000000E+01 0.  0.
<mgrwt>
<rscale>  0 0.12500454E+03</rscale>
<asrwt>0</asrwt>
<pdfrwt beam="1">  1        4 0.19238733E-01 0.12500454E+03</pdfrwt>
<pdfrwt beam="2">  1       -4 0.48060515E-02 0.12500454E+03</pdfrwt>
<totfact> 0.98052615E+03</totfact>
</mgrwt>
</event>
<event>
 5    1  0.3317939E-002  0.1249984E+03  0.7818608E-02  0.1235072E+00
         -4   -1    0    0    0  501 -0.00000000000E+00  0.00000000000E+00  0.41236335695E+03  0.41236531262E+03  0.12700000000E+01 0. -1.
          4   -1    0    0  501    0  0.00000000000E+00 -0.00000000000E+00 -0.94280387985E+01  0.95131916614E+01  0.12700000000E+01 0. -1.
         25    2    1    2    0    0  0.00000000000E+00  0.00000000000E+00  0.40293531815E+03  0.42187850428E+03  0.12499840704E+03 0.  0.
    9000005    1    3    3    0    0  0.17475569845E+02 -0.46202335234E+02  0.33065394800E+03  0.33432481908E+03  0.10000000000E+01 0.  0.
    9000005    1    3    3    0    0 -0.17475569845E+02  0.46202335234E+02  0.72281370146E+02  0.87553685203E+02  0.10000000000E+01 0.  0.
<mgrwt>
<rscale>  0 0.12499841E+03</rscale>
<asrwt>0</asrwt>
<pdfrwt beam="2">  1        4 0.14571681E-02 0.12499841E+03</pdfrwt>
<pdfrwt beam="1">  1       -4 0.63447219E-01 0.12499841E+03</pdfrwt>
<totfact> 0.62481310E+03</totfact>
</mgrwt>
</event>
<event>
 5    1  0.3317939E-002  0.1249989E+03  0.7818608E-02  0.1235071E+00
         -4   -1    0    0    0  501 -0.00000000000E+00  0.00000000000E+00  0.10349123025E+03  0.10349902240E+03  0.12700000000E+01 0.  1.
          4   -1    0    0  501    0  0.00000000000E+00 -0.00000000000E+00 -0.37724186395E+02  0.37745557874E+02  0.12700000000E+01 0.  1.
         25    2    1    2    0    0  0.00000000000E+00  0.00000000000E+00  0.65767043851E+02  0.14124458027E+03  0.12499890960E+03 0.  0.
    9000005    1    3    3    0    0 -0.42993897955E+02 -0.24129116886E+02  0.76273239507E+02  0.90825638494E+02  0.10000000000E+01 0.  0.
    9000005    1    3    3    0    0  0.42993897955E+02  0.24129116886E+02 -0.10506195656E+02  0.50418941780E+02  0.10000000000E+01 0.  0.
<mgrwt>
<rscale>  0 0.12499891E+03</rscale>
<asrwt>0</asrwt>
<pdfrwt beam="2">  1        4 0.58059644E-02 0.12499891E+03</pdfrwt>
<pdfrwt beam="1">  1       -4 0.15923971E-01 0.12499891E+03</pdfrwt>
<totfact> 0.10108104E+04</totfact>
</mgrwt>
</event>
<event>
 5    1  0.3317939E-002  0.1249808E+03  0.7818608E-02  0.1235099E+00
         -4   -1    0    0    0  501 -0.00000000000E+00  0.00000000000E+00  0.84535298956E+02  0.84544838220E+02  0.12700000000E+01 0. -1.
          4   -1    0    0  501    0  0.00000000000E+00 -0.00000000000E+00 -0.46173442926E+02  0.46190905292E+02  0.12700000000E+01 0. -1.
         25    2    1    2    0    0  0.00000000000E+00  0.00000000000E+00  0.38361856030E+02  0.13073574351E+03  0.12498080906E+03 0.  0.
    9000005    1    3    3    0    0 -0.12283507939E+02 -0.23570224137E+02 -0.39970304534E+02  0.48011095360E+02  0.10000000000E+01 0.  0.
    9000005    1    3    3    0    0  0.12283507939E+02  0.23570224137E+02  0.78332160564E+02  0.82724648151E+02  0.10000000000E+01 0.  0.
<mgrwt>
<rscale>  0 0.12498081E+03</rscale>
<asrwt>0</asrwt>
<pdfrwt beam="2">  1        4 0.71056837E-02 0.12498081E+03</pdfrwt>
<pdfrwt beam="1">  1       -4 0.13007508E-01 0.12498081E+03</pdfrwt>
<totfact> 0.10333231E+04</totfact>
</mgrwt>
</event>
<event>
 5    1  0.3317939E-002  0.1250023E+03  0.7818608E-02  0.1235066E+00
         -4   -1    0    0    0  501 -0.00000000000E+00  0.00000000000E+00  0.43972660840E+03  0.43972844237E+03  0.12700000000E+01 0. -1.
          4   -1    0    0  501    0  0.00000000000E+00 -0.00000000000E+00 -0.88364383927E+01  0.89272360486E+01  0.12700000000E+01 0. -1.
         25    2    1    2    0    0  0.00000000000E+00  0.00000000000E+00  0.43089017000E+03  0.44865567842E+03  0.12500231668E+03 0.  0.
    9000005    1    3    3    0    0  0.13310951322E+02  0.42294169900E+02  0.37350824379E+03  0.37613213956E+03  0.10000000000E+01 0.  0.
    9000005    1    3    3    0    0 -0.13310951322E+02 -0.42294169900E+02  0.57381926213E+02  0.72523538858E+02  0.10000000000E+01 0.  0.
<mgrwt>
<rscale>  0 0.12500232E+03</rscale>
<asrwt>0</asrwt>
<pdfrwt beam="2">  1        4 0.13665774E-02 0.12500232E+03</pdfrwt>
<pdfrwt beam="1">  1       -4 0.67657380E-01 0.12500232E+03</pdfrwt>
<totfact> 0.60077358E+03</totfact>
</mgrwt>
</event>
<event>
 5    1  0.3317939E-002  0.1250045E+03  0.7818608E-02  0.1235062E+00
         -4   -1    0    0    0  501 -0.00000000000E+00  0.00000000000E+00  0.86037136329E+03  0.86037230062E+03  0.12700000000E+01 0.  1.
          4   -1    0    0  501    0  0.00000000000E+00 -0.00000000000E+00 -0.44507555560E+01  0.46284041547E+01  0.12700000000E+01 0.  1.
         25    2    1    2    0    0  0.00000000000E+00  0.00000000000E+00  0.85592060773E+03  0.86500070477E+03  0.12500452997E+03 0.  0.
    9000005    1    3    3    0    0 -0.16139858361E+02  0.53162309745E+02  0.22995288489E+03  0.23657145956E+03  0.10000000000E+01 0.  0.
    9000005    1    3    3    0    0  0.16139858361E+02 -0.53162309745E+02  0.62596772284E+03  0.62842924521E+03  0.10000000000E+01 0.  0.
<mgrwt>
<rscale>  0 0.12500453E+03</rscale>
<asrwt>0</asrwt>
<pdfrwt beam="2">  1        4 0.69846889E-03 0.12500453E+03</pdfrwt>
<pdfrwt beam="1">  1       -4 0.13237858E+00 0.12500453E+03</pdfrwt>
<totfact> 0.35517704E+03</totfact>
</mgrwt>
</event>
<event>
 5    1  0.3317939E-002  0.1250001E+03  0.7818608E-02  0.1235069E+00
         -4   -1    0    0    0  501 -0.00000000000E+00  0.00000000000E+00  0.13040035140E+03  0.13040653567E+03  0.12700000000E+01 0. -1.
          4   -1    0    0  501    0  0.00000000000E+00 -0.00000000000E+00 -0.29935533641E+02  0.29962461086E+02  0.12700000000E+01 0. -1.
         25    2    1    2    0    0  0.00000000000E+00  0.00000000000E+00  0.10046481776E+03  0.16036899675E+03  0.12500014205E+03 0.  0.
    9000005    1    3    3    0    0 -0.26367375797E+02  0.77639893525E+01 -0.21770048152E+02  0.35077813980E+02  0.10000000000E+01 0.  0.
    9000005    1    3    3    0    0  0.26367375797E+02 -0.77639893525E+01  0.12223486591E+03  0.12529118277E+03  0.10000000000E+01 0.  0.
<mgrwt>
<rscale>  0 0.12500014E+03</rscale>
<asrwt>0</asrwt>
<pdfrwt beam="2">  1        4 0.46080136E-02 0.12500014E+03</pdfrwt>
<pdfrwt beam="1">  1       -4 0.20064140E-01 0.12500014E+03</pdfrwt>
<totfact> 0.97271381E+03</totfact>
</mgrwt>
</event>
<event>
 5    1  0.3317939E-002  0.1249979E+03  0.7818608E-02  0.1235073E+00
          4   -1    0    0  501    0  0.00000000000E+00  0.00000000000E+00  0.83570698919E+02  0.83580348275E+02  0.12700000000E+01 0. -1.
         -4   -1    0    0    0  501 -0.00000000000E+00 -0.00000000000E+00 -0.46719296575E+02  0.46736554992E+02  0.12700000000E+01 0. -1.
         25    2    1    2    0    0  0.00000000000E+00  0.00000000000E+00  0.36851402344E+02  0.13031690327E+03  0.12499787767E+03 0.  0.
    9000005    1    3    3    0    0  0.54209857296E+02 -0.28471267496E+02  0.31438651810E+02  0.68838292603E+02  0.10000000000E+01 0.  0.
    9000005    1    3    3    0    0 -0.54209857296E+02  0.28471267496E+02  0.54127505335E+01  0.61478610664E+02  0.10000000000E+01 0.  0.
<mgrwt>
<rscale>  0 0.12499788E+03</rscale>
<asrwt>0</asrwt>
<pdfrwt beam="1">  1        4 0.12859100E-01 0.12499788E+03</pdfrwt>
<pdfrwt beam="2">  1       -4 0.71896540E-02 0.12499788E+03</pdfrwt>
<totfact> 0.10338228E+04</totfact>
</mgrwt>
</event>
<event>
 5    1  0.3317939E-002  0.1249993E+03  0.7818608E-02  0.1235070E+00
         -4   -1    0    0    0  501 -0.00000000000E+00  0.00000000000E+00  0.20620050022E+03  0.20620441118E+03  0.12700000000E+01 0.  1.
          4   -1    0    0  501    0  0.00000000000E+00 -0.00000000000E+00 -0.18918348596E+02  0.18960928606E+02  0.12700000000E+01 0.  1.
         25    2    1    2    0    0  0.00000000000E+00  0.00000000000E+00  0.18728215162E+03  0.22516533979E+03  0.12499930370E+03 0.  0.
    9000005    1    3    3    0    0 -0.33071630726E+02 -0.51039767931E+02  0.67761007006E+02  0.91056821489E+02  0.10000000000E+01 0.  0.
    9000005    1    3    3    0    0  0.33071630726E+02  0.51039767931E+02  0.11952114462E+03  0.13410851830E+03  0.10000000000E+01 0.  0.
<mgrwt>
<rscale>  0 0.12499930E+03</rscale>
<asrwt>0</asrwt>
<pdfrwt beam="2">  1        4 0.29140912E-02 0.12499930E+03</pdfrwt>
<pdfrwt beam="1">  1       -4 0.31726732E-01 0.12499930E+03</pdfrwt>
<totfact> 0.86058870E+03</totfact>
</mgrwt>
</event>
<event>
 5    1  0.3317939E-002  0.1249996E+03  0.7818608E-02  0.1235070E+00
         -4   -1    0    0    0  501 -0.00000000000E+00  0.00000000000E+00  0.10162871524E+03  0.10163665019E+03  0.12700000000E+01 0. -1.
          4   -1    0    0  501    0  0.00000000000E+00 -0.00000000000E+00 -0.38416296939E+02  0.38437283600E+02  0.12700000000E+01 0. -1.
         25    2    1    2    0    0  0.00000000000E+00  0.00000000000E+00  0.63212418304E+02  0.14007393379E+03  0.12499958840E+03 0.  0.
    9000005    1    3    3    0    0  0.51434940484E+01  0.82376924245E+01  0.10078341896E+03  0.10125518577E+03  0.10000000000E+01 0.  0.
    9000005    1    3    3    0    0 -0.51434940484E+01 -0.82376924245E+01 -0.37571000658E+02  0.38818748021E+02  0.10000000000E+01 0.  0.
<mgrwt>
<rscale>  0 0.12499959E+03</rscale>
<asrwt>0</asrwt>
<pdfrwt beam="2">  1        4 0.59124243E-02 0.12499959E+03</pdfrwt>
<pdfrwt beam="1">  1       -4 0.15637412E-01 0.12499959E+03</pdfrwt>
<totfact> 0.10132148E+04</totfact>
</mgrwt>
</event>
<event>
 5    1  0.3317939E-002  0.1249918E+03  0.7818608E-02  0.1235082E+00
         -4   -1    0    0    0  501 -0.00000000000E+00  0.00000000000E+00  0.38872359708E+03  0.38872567168E+03  0.12700000000E+01 0.  1.
          4   -1    0    0  501    0  0.00000000000E+00 -0.00000000000E+00 -0.10005356447E+02  0.10085636203E+02  0.12700000000E+01 0.  1.
         25    2    1    2    0    0  0.00000000000E+00  0.00000000000E+00  0.37871824063E+03  0.39881130788E+03  0.12499181377E+03 0.  0.
    9000005    1    3    3    0    0  0.35021243466E+02  0.50464436957E+02  0.15275754398E+03  0.16464815254E+03  0.10000000000E+01 0.  0.
    9000005    1    3    3    0    0 -0.35021243466E+02 -0.50464436957E+02  0.22596069665E+03  0.23416315535E+03  0.10000000000E+01 0.  0.
<mgrwt>
<rscale>  0 0.12499181E+03</rscale>
<asrwt>0</asrwt>
<pdfrwt beam="2">  1        4 0.15456206E-02 0.12499181E+03</pdfrwt>
<pdfrwt beam="1">  1       -4 0.59809964E-01 0.12499181E+03</pdfrwt>
<totfact> 0.64680253E+03</totfact>
</mgrwt>
</event>
<event>
 5    1  0.3317939E-002  0.1250013E+03  0.7818608E-02  0.1235067E+00
         -4   -1    0    0    0  501 -0.00000000000E+00  0.00000000000E+00  0.11001883415E+02  0.11074941927E+02  0.12700000000E+01 0.  1.
          4   -1    0    0  501    0  0.00000000000E+00 -0.00000000000E+00 -0.35381086618E+03  0.35381314550E+03  0.12700000000E+01 0.  1.
         25    2    1    2    0    0  0.00000000000E+00  0.00000000000E+00 -0.34280898276E+03  0.36488808742E+03  0.12500127071E+03 0.  0.
    9000005    1    3    3    0    0  0.23278119008E+02 -0.55705475899E+02 -0.12430337730E+03  0.13819298274E+03  0.10000000000E+01 0.  0.
    9000005    1    3    3    0    0 -0.23278119008E+02  0.55705475899E+02 -0.21850560546E+03  0.22669510468E+03  0.10000000000E+01 0.  0.
<mgrwt>
<rscale>  0 0.12500127E+03</rscale>
<asrwt>0</asrwt>
<pdfrwt beam="2">  1        4 0.54438227E-01 0.12500127E+03</pdfrwt>
<pdfrwt beam="1">  1       -4 0.16983929E-02 0.12500127E+03</pdfrwt>
<totfact> 0.68115241E+03</totfact>
</mgrwt>
</event>
<event>
 5    1  0.3317939E-002  0.1249994E+03  0.7818608E-02  0.1235070E+00
          4   -1    0    0  501    0  0.00000000000E+00  0.00000000000E+00  0.61205138300E+01  0.62508871005E+01  0.12700000000E+01 0. -1.
         -4   -1    0    0    0  501 -0.00000000000E+00 -0.00000000000E+00 -0.63135980828E+03  0.63136108560E+03  0.12700000000E+01 0. -1.
         25    2    1    2    0    0  0.00000000000E+00  0.00000000000E+00 -0.62523929445E+03  0.63761197271E+03  0.12499940963E+03 0.  0.
    9000005    1    3    3    0    0  0.53347056010E+02  0.18782110762E+00 -0.47863632666E+03  0.48160115953E+03  0.10000000000E+01 0.  0.
    9000005    1    3    3    0    0 -0.53347056010E+02 -0.18782110762E+00 -0.14660296779E+03  0.15601081317E+03  0.10000000000E+01 0.  0.
<mgrwt>
<rscale>  0 0.12499941E+03</rscale>
<asrwt>0</asrwt>
<pdfrwt beam="1">  1        4 0.95174498E-03 0.12499941E+03</pdfrwt>
<pdfrwt beam="2">  1       -4 0.97142354E-01 0.12499941E+03</pdfrwt>
<totfact> 0.46576961E+03</totfact>
</mgrwt>
</event>
<event>
 5    1  0.3317939E-002  0.1249990E+03  0.7818608E-02  0.1235071E+00
          4   -1    0    0  501    0  0.00000000000E+00  0.00000000000E+00  0.18115523953E+03  0.18115969118E+03  0.12700000000E+01 0. -1.
         -4   -1    0    0    0  501 -0.00000000000E+00 -0.00000000000E+00 -0.21539219141E+02  0.21576627660E+02  0.12700000000E+01 0. -1.
         25    2    1    2    0    0  0.00000000000E+00  0.00000000000E+00  0.15961602039E+03  0.20273631884E+03  0.12499896405E+03 0.  0.
    9000005    1    3    3    0    0 -0.51131923268E+02  0.71166468717E+01  0.13692264052E+03  0.14633499147E+03  0.10000000000E+01 0.  0.
    9000005    1    3    3    0    0  0.51131923268E+02 -0.71166468717E+01  0.22693379863E+02  0.56401327372E+02  0.10000000000E+01 0.  0.
<mgrwt>
<rscale>  0 0.12499896E+03</rscale>
<asrwt>0</asrwt>
<pdfrwt beam="1">  1        4 0.27873258E-01 0.12499896E+03</pdfrwt>
<pdfrwt beam="2">  1       -4 0.33169459E-02 0.12499896E+03</pdfrwt>
<totfact> 0.89678125E+03</totfact>
</mgrwt>
</event>
<event>
 5    1  0.3317939E-002  0.1249760E+03  0.7818608E-02  0.1235107E+00
         -4   -1    0    0    0  501 -0.00000000000E+00  0.00000000000E+00  0.23662147884E+01  0.26854929576E+01  0.12700000000E+01 0.  1.
          4   -1    0    0  501    0  0.00000000000E+00 -0.00000000000E+00 -0.15455937915E+04  0.15455943132E+04  0.12700000000E+01 0.  1.
         25    2    1    2    0    0  0.00000000000E+00  0.00000000000E+00 -0.15432275767E+04  0.15482798062E+04  0.12497601714E+03 0.  0.
    9000005    1    3    3    0    0 -0.55098607311E+02 -0.22516622714E+02 -0.53626387776E+03  0.53955796854E+03  0.10000000000E+01 0.  0.
    9000005    1    3    3    0    0  0.55098607311E+02  0.22516622714E+02 -0.10069636989E+04  0.10087218376E+04  0.10000000000E+01 0.  0.
<mgrwt>
<rscale>  0 0.12497602E+03</rscale>
<asrwt>0</asrwt>
<pdfrwt beam="2">  1        4 0.23780750E+00 0.12497602E+03</pdfrwt>
<pdfrwt beam="1">  1       -4 0.38863427E-03 0.12497602E+03</pdfrwt>
<totfact> 0.17009667E+03</totfact>
</mgrwt>
</event>
<event>
 5    1  0.3317939E-002  0.1250011E+03  0.7818608E-02  0.1235068E+00
          4   -1    0    0  501    0  0.00000000000E+00  0.00000000000E+00  0.16486333668E+02  0.16535177586E+02  0.12700000000E+01 0.  1.
         -4   -1    0    0    0  501 -0.00000000000E+00 -0.00000000000E+00 -0.23654193223E+03  0.23654534154E+03  0.12700000000E+01 0.  1.
         25    2    1    2    0    0  0.00000000000E+00  0.00000000000E+00 -0.22005559857E+03  0.25308051913E+03  0.12500113080E+03 0.  0.
    9000005    1    3    3    0    0 -0.14711349350E+02  0.52530491272E+02 -0.48303456617E+02  0.72870434568E+02  0.10000000000E+01 0.  0.
    9000005    1    3    3    0    0  0.14711349350E+02 -0.52530491272E+02 -0.17175214195E+03  0.18021008456E+03  0.10000000000E+01 0.  0.
<mgrwt>
<rscale>  0 0.12500113E+03</rscale>
<asrwt>0</asrwt>
<pdfrwt beam="1">  1        4 0.25403787E-02 0.12500113E+03</pdfrwt>
<pdfrwt beam="2">  1       -4 0.36395083E-01 0.12500113E+03</pdfrwt>
<totfact> 0.81884965E+03</totfact>
</mgrwt>
</event>
<event>
 5    1  0.3317939E-002  0.1249992E+03  0.7818608E-02  0.1235071E+00
         -4   -1    0    0    0  501 -0.00000000000E+00  0.00000000000E+00  0.38444784649E+02  0.38465755766E+02  0.12700000000E+01 0.  1.
          4   -1    0    0  501    0  0.00000000000E+00 -0.00000000000E+00 -0.10155280043E+03  0.10156074131E+03  0.12700000000E+01 0.  1.
         25    2    1    2    0    0  0.00000000000E+00  0.00000000000E+00 -0.63108015786E+02  0.14002649708E+03  0.12499919291E+03 0.  0.
    9000005    1    3    3    0    0 -0.59983158594E+02  0.84557968592E+01 -0.48752920665E+02  0.77764561908E+02  0.10000000000E+01 0.  0.
    9000005    1    3    3    0    0  0.59983158594E+02 -0.84557968592E+01 -0.14355095121E+02  0.62261935172E+02  0.10000000000E+01 0.  0.
<mgrwt>
<rscale>  0 0.12499919E+03</rscale>
<asrwt>0</asrwt>
<pdfrwt beam="2">  1        4 0.15625732E-01 0.12499919E+03</pdfrwt>
<pdfrwt beam="1">  1       -4 0.59168063E-02 0.12499919E+03</pdfrwt>
<totfact> 0.10133221E+04</totfact>
</mgrwt>
</event>
<event>
 5    1  0.3317939E-002  0.1250028E+03  0.7818608E-02  0.1235065E+00
         -4   -1    0    0    0  501 -0.00000000000E+00  0.00000000000E+00  0.28249131574E+02  0.28277664944E+02  0.12700000000E+01 0.  1.
          4   -1    0    0  501    0  0.00000000000E+00 -0.00000000000E+00 -0.13818348032E+03  0.13818931628E+03  0.12700000000E+01 0.  1.
         25    2    1    2    0    0  0.00000000000E+00  0.00000000000E+00 -0.10993434875E+03  0.16646698122E+03  0.12500277918E+03 0.  0.
    9000005    1    3    3    0    0 -0.20775070319E+02  0.10884702115E+02 -0.13210669279E+03  0.13417622206E+03  0.10000000000E+01 0.  0.
    9000005    1    3    3    0    0  0.20775070319E+02 -0.10884702115E+02  0.22172344042E+02  0.32290759161E+02  0.10000000000E+01 0.  0.
<mgrwt>
<rscale>  0 0.12500278E+03</rscale>
<asrwt>0</asrwt>
<pdfrwt beam="2">  1        4 0.21261640E-01 0.12500278E+03</pdfrwt>
<pdfrwt beam="1">  1       -4 0.43486641E-02 0.12500278E+03</pdfrwt>
<totfact> 0.96104289E+03</totfact>
</mgrwt>
</event>
<event>
 5    1  0.3317939E-002  0.1249953E+03  0.7818608E-02  0.1235077E+00
          4   -1    0    0  501    0  0.00000000000E+00  0.00000000000E+00  0.42747521111E+01  0.44594176314E+01  0.12700000000E+01 0.  1.
         -4   -1    0    0    0  501 -0.00000000000E+00 -0.00000000000E+00 -0.89422253556E+03  0.89422343740E+03  0.12700000000E+01 0.  1.
         25    2    1    2    0    0  0.00000000000E+00  0.00000000000E+00 -0.88994778345E+03  0.89868285503E+03  0.12499526659E+03 0.  0.
    9000005    1    3    3    0    0 -0.37741936812E+02 -0.48274463488E+02 -0.35689551438E+03  0.36211915967E+03  0.10000000000E+01 0.  0.
    9000005    1    3    3    0    0  0.37741936812E+02  0.48274463488E+02 -0.53305226907E+03  0.53656369536E+03  0.10000000000E+01 0.  0.
<mgrwt>
<rscale>  0 0.12499527E+03</rscale>
<asrwt>0</asrwt>
<pdfrwt beam="1">  1        4 0.67192929E-03 0.12499527E+03</pdfrwt>
<pdfrwt beam="2">  1       -4 0.13758683E+00 0.12499527E+03</pdfrwt>
<totfact> 0.34213971E+03</totfact>
</mgrwt>
</event>
<event>
 5    1  0.3317939E-002  0.1250015E+03  0.7818608E-02  0.1235067E+00
          4   -1    0    0  501    0  0.00000000000E+00  0.00000000000E+00  0.29118895799E+03  0.29119172748E+03  0.12700000000E+01 0. -1.
         -4   -1    0    0    0  501 -0.00000000000E+00 -0.00000000000E+00 -0.13382247544E+02  0.13442375138E+02  0.12700000000E+01 0. -1.
         25    2    1    2    0    0  0.00000000000E+00  0.00000000000E+00  0.27780671044E+03  0.30463410262E+03  0.12500147244E+03 0.  0.
    9000005    1    3    3    0    0  0.36589289762E+02  0.19760951933E+02  0.25258749748E+03  0.25598967797E+03  0.10000000000E+01 0.  0.
    9000005    1    3    3    0    0 -0.36589289762E+02 -0.19760951933E+02  0.25219212965E+02  0.48644424646E+02  0.10000000000E+01 0.  0.
<mgrwt>
<rscale>  0 0.12500147E+03</rscale>
<asrwt>0</asrwt>
<pdfrwt beam="1">  1        4 0.44803136E-01 0.12500147E+03</pdfrwt>
<pdfrwt beam="2">  1       -4 0.20636457E-02 0.12500147E+03</pdfrwt>
<totfact> 0.75018748E+03</totfact>
</mgrwt>
</event>
<event>
 5    1  0.3317939E-002  0.1250114E+03  0.7818608E-02  0.1235051E+00
          4   -1    0    0  501    0  0.00000000000E+00  0.00000000000E+00  0.11399442838E+02  0.11469969356E+02  0.12700000000E+01 0. -1.
         -4   -1    0    0    0  501 -0.00000000000E+00 -0.00000000000E+00 -0.34160427009E+03  0.34160663085E+03  0.12700000000E+01 0. -1.
         25    2    1    2    0    0  0.00000000000E+00  0.00000000000E+00 -0.33020482725E+03  0.35307660021E+03  0.12501143018E+03 0.  0.
    9000005    1    3    3    0    0  0.16266558527E+02 -0.25034395938E+02 -0.32017574688E+03  0.32156621526E+03  0.10000000000E+01 0.  0.
    9000005    1    3    3    0    0 -0.16266558527E+02  0.25034395938E+02 -0.10029080365E+02  0.31510384943E+02  0.10000000000E+01 0.  0.
<mgrwt>
<rscale>  0 0.12501143E+03</rscale>
<asrwt>0</asrwt>
<pdfrwt beam="1">  1        4 0.17593674E-02 0.12501143E+03</pdfrwt>
<pdfrwt beam="2">  1       -4 0.52560102E-01 0.12501143E+03</pdfrwt>
<totfact> 0.69369871E+03</totfact>
</mgrwt>
</event>
<event>
 5    1  0.3317939E-002  0.1249991E+03  0.7818608E-02  0.1235071E+00
         -4   -1    0    0    0  501 -0.00000000000E+00  0.00000000000E+00  0.29573677857E+02  0.29600934478E+02  0.12700000000E+01 0.  1.
          4   -1    0    0  501    0  0.00000000000E+00 -0.00000000000E+00 -0.13199237966E+03  0.13199848934E+03  0.12700000000E+01 0.  1.
         25    2    1    2    0    0  0.00000000000E+00  0.00000000000E+00 -0.10241870180E+03  0.16159942382E+03  0.12499913319E+03 0.  0.
    9000005    1    3    3    0    0 -0.62364286839E+02 -0.38147369438E+01 -0.49713193646E+02  0.79851475337E+02  0.10000000000E+01 0.  0.
    9000005    1    3    3    0    0  0.62364286839E+02  0.38147369438E+01 -0.52705508154E+02  0.81747948480E+02  0.10000000000E+01 0.  0.
<mgrwt>
<rscale>  0 0.12499913E+03</rscale>
<asrwt>0</asrwt>
<pdfrwt beam="2">  1        4 0.20309086E-01 0.12499913E+03</pdfrwt>
<pdfrwt beam="1">  1       -4 0.45523633E-02 0.12499913E+03</pdfrwt>
<totfact> 0.97037202E+03</totfact>
</mgrwt>
</event>
<event>
 5    1  0.3317939E-002  0.1249997E+03  0.7818608E-02  0.1235070E+00
          4   -1    0    0  501    0  0.00000000000E+00  0.00000000000E+00  0.32840018090E+02  0.32864565844E+02  0.12700000000E+01 0. -1.
         -4   -1    0    0    0  501 -0.00000000000E+00 -0.00000000000E+00 -0.11887482802E+03  0.11888161186E+03  0.12700000000E+01 0. -1.
         25    2    1    2    0    0  0.00000000000E+00  0.00000000000E+00 -0.86034809933E+02  0.15174617770E+03  0.12499965570E+03 0.  0.
    9000005    1    3    3    0    0 -0.48175679582E+02  0.35891708687E+02 -0.63907531626E+02  0.87717064783E+02  0.10000000000E+01 0.  0.
    9000005    1    3    3    0    0  0.48175679582E+02 -0.35891708687E+02 -0.22127278307E+02  0.64029112917E+02  0.10000000000E+01 0.  0.
<mgrwt>
<rscale>  0 0.12499966E+03</rscale>
<asrwt>0</asrwt>
<pdfrwt beam="1">  1        4 0.50547206E-02 0.12499966E+03</pdfrwt>
<pdfrwt beam="2">  1       -4 0.18290845E-01 0.12499966E+03</pdfrwt>
<totfact> 0.98957523E+03</totfact>
</mgrwt>
</event>
<event>
 5    1  0.3317939E-002  0.1250073E+03  0.7818608E-02  0.1235058E+00
         -4   -1    0    0    0  501 -0.00000000000E+00  0.00000000000E+00  0.24367623436E+02  0.24400696136E+02  0.12700000000E+01 0. -1.
          4   -1    0    0  501    0  0.00000000000E+00 -0.00000000000E+00 -0.16017925882E+03  0.16018429342E+03  0.12700000000E+01 0. -1.
         25    2    1    2    0    0  0.00000000000E+00  0.00000000000E+00 -0.13581163539E+03  0.18458498955E+03  0.12500727203E+03 0.  0.
    9000005    1    3    3    0    0  0.18407419252E+02 -0.47825116250E+02 -0.12072640880E+03  0.13115616878E+03  0.10000000000E+01 0.  0.
    9000005    1    3    3    0    0 -0.18407419252E+02  0.47825116250E+02 -0.15085226590E+02  0.53428820772E+02  0.10000000000E+01 0.  0.
<mgrwt>
<rscale>  0 0.12500727E+03</rscale>
<asrwt>0</asrwt>
<pdfrwt beam="2">  1        4 0.24645894E-01 0.12500727E+03</pdfrwt>
<pdfrwt beam="1">  1       -4 0.37517966E-02 0.12500727E+03</pdfrwt>
<totfact> 0.92783018E+03</totfact>
</mgrwt>
</event>
<event>
 5    1  0.3317939E-002  0.1249966E+03  0.7818608E-02  0.1235075E+00
         -4   -1    0    0    0  501 -0.00000000000E+00  0.00000000000E+00  0.13375636708E+02  0.13435793886E+02  0.12700000000E+01 0.  1.
          4   -1    0    0  501    0  0.00000000000E+00 -0.00000000000E+00 -0.29130974177E+03  0.29131251012E+03  0.12700000000E+01 0.  1.
         25    2    1    2    0    0  0.00000000000E+00  0.00000000000E+00 -0.27793410506E+03  0.30474830400E+03  0.12499664810E+03 0.  0.
    9000005    1    3    3    0    0 -0.43908078916E+02 -0.26849886885E+02 -0.52555235922E+02  0.73565539777E+02  0.10000000000E+01 0.  0.
    9000005    1    3    3    0    0  0.43908078916E+02  0.26849886885E+02 -0.22537886914E+03  0.23118276423E+03  0.10000000000E+01 0.  0.
<mgrwt>
<rscale>  0 0.12499665E+03</rscale>
<asrwt>0</asrwt>
<pdfrwt beam="2">  1        4 0.44821719E-01 0.12499665E+03</pdfrwt>
<pdfrwt beam="1">  1       -4 0.20626309E-02 0.12499665E+03</pdfrwt>
<totfact> 0.75012636E+03</totfact>
</mgrwt>
</event>
<event>
 5    1  0.3317939E-002  0.1249977E+03  0.7818608E-02  0.1235073E+00
         -4   -1    0    0    0  501 -0.00000000000E+00  0.00000000000E+00  0.77582034308E+02  0.77592428415E+02  0.12700000000E+01 0. -1.
          4   -1    0    0  501    0  0.00000000000E+00 -0.00000000000E+00 -0.50326332987E+02  0.50342354851E+02  0.12700000000E+01 0. -1.
         25    2    1    2    0    0  0.00000000000E+00  0.00000000000E+00  0.27255701320E+02  0.12793478327E+03  0.12499774204E+03 0.  0.
    9000005    1    3    3    0    0 -0.28675355045E+02 -0.12522625941E+02  0.68991520786E+02  0.75762273513E+02  0.10000000000E+01 0.  0.
    9000005    1    3    3    0    0  0.28675355045E+02  0.12522625941E+02 -0.41735819466E+02  0.52172509753E+02  0.10000000000E+01 0.  0.
<mgrwt>
<rscale>  0 0.12499774E+03</rscale>
<asrwt>0</asrwt>
<pdfrwt beam="2">  1        4 0.77445448E-02 0.12499774E+03</pdfrwt>
<pdfrwt beam="1">  1       -4 0.11937730E-01 0.12499774E+03</pdfrwt>
<totfact> 0.10389426E+04</totfact>
</mgrwt>
</event>
<event>
 5    1  0.3317939E-002  0.1250126E+03  0.7818608E-02  0.1235050E+00
          4   -1    0    0  501    0  0.00000000000E+00  0.00000000000E+00  0.44448346663E+03  0.44448528098E+03  0.12700000000E+01 0. -1.
         -4   -1    0    0    0  501 -0.00000000000E+00 -0.00000000000E+00 -0.87423429018E+01  0.88341077315E+01  0.12700000000E+01 0. -1.
         25    2    1    2    0    0  0.00000000000E+00  0.00000000000E+00  0.43574112373E+03  0.45331938871E+03  0.12501256446E+03 0.  0.
    9000005    1    3    3    0    0  0.27030254962E+02  0.16237290224E+02  0.22198982714E+02  0.38575628454E+02  0.10000000000E+01 0.  0.
    9000005    1    3    3    0    0 -0.27030254962E+02 -0.16237290224E+02  0.41354214102E+03  0.41474376026E+03  0.10000000000E+01 0.  0.
<mgrwt>
<rscale>  0 0.12501256E+03</rscale>
<asrwt>0</asrwt>
<pdfrwt beam="1">  1        4 0.68389291E-01 0.12501256E+03</pdfrwt>
<pdfrwt beam="2">  1       -4 0.13521738E-02 0.12501256E+03</pdfrwt>
<totfact> 0.59660787E+03</totfact>
</mgrwt>
</event>
<event>
 5    1  0.3317939E-002  0.1249957E+03  0.7818608E-02  0.1235076E+00
         -4   -1    0    0    0  501 -0.00000000000E+00  0.00000000000E+00  0.47656277574E+02  0.47673196790E+02  0.12700000000E+01 0.  1.
          4   -1    0    0  501    0  0.00000000000E+00 -0.00000000000E+00 -0.81925126815E+02  0.81934969968E+02  0.12700000000E+01 0.  1.
         25    2    1    2    0    0  0.00000000000E+00  0.00000000000E+00 -0.34268849241E+02  0.12960816676E+03  0.12499569137E+03 0.  0.
    9000005    1    3    3    0    0 -0.62104555753E+02 -0.68645073183E+01 -0.18109006599E+02  0.65061766238E+02  0.10000000000E+01 0.  0.
    9000005    1    3    3    0    0  0.62104555753E+02  0.68645073183E+01 -0.16159842642E+02  0.64546400521E+02  0.10000000000E+01 0.  0.
<mgrwt>
<rscale>  0 0.12499569E+03</rscale>
<asrwt>0</asrwt>
<pdfrwt beam="2">  1        4 0.12605924E-01 0.12499569E+03</pdfrwt>
<pdfrwt beam="1">  1       -4 0.73337937E-02 0.12499569E+03</pdfrwt>
<totfact> 0.10353904E+04</totfact>
</mgrwt>
</event>
<event>
 5    1  0.3317939E-002  0.1250002E+03  0.7818608E-02  0.1235069E+00
         -4   -1    0    0    0  501 -0.00000000000E+00  0.00000000000E+00  0.13667870714E+02  0.13726747243E+02  0.12700000000E+01 0.  1.
          4   -1    0    0  501    0  0.00000000000E+00 -0.00000000000E+00 -0.28512434843E+03  0.28512717683E+03  0.12700000000E+01 0.  1.
         25    2    1    2    0    0  0.00000000000E+00  0.00000000000E+00 -0.27145647772E+03  0.29885392407E+03  0.12500019456E+03 0.  0.
    9000005    1    3    3    0    0  0.41337699770E+02  0.36382588719E+02 -0.65097023426E+02  0.85270866321E+02  0.10000000000E+01 0.  0.
    9000005    1    3    3    0    0 -0.41337699770E+02 -0.36382588719E+02 -0.20635945429E+03  0.21358305775E+03  0.10000000000E+01 0.  0.
<mgrwt>
<rscale>  0 0.12500019E+03</rscale>
<asrwt>0</asrwt>
<pdfrwt beam="2">  1        4 0.43870026E-01 0.12500019E+03</pdfrwt>
<pdfrwt beam="1">  1       -4 0.21074961E-02 0.12500019E+03</pdfrwt>
<totfact> 0.75742500E+03</totfact>
</mgrwt>
</event>
<event>
 5    1  0.3317939E-002  0.1249972E+03  0.7818608E-02  0.1235074E+00
         -4   -1    0    0    0  501 -0.00000000000E+00  0.00000000000E+00  0.50784057024E+01  0.52347974630E+01  0.12700000000E+01 0.  1.
          4   -1    0    0  501    0  0.00000000000E+00 -0.00000000000E+00 -0.75733353792E+03  0.75733460277E+03  0.12700000000E+01 0.  1.
         25    2    1    2    0    0  0.00000000000E+00  0.00000000000E+00 -0.75225513222E+03  0.76256940024E+03  0.12499722489E+03 0.  0.
    9000005    1    3    3    0    0  0.30918491180E+02 -0.30075968082E+02 -0.65198131539E+03  0.65340734046E+03  0.10000000000E+01 0.  0.
    9000005    1    3    3    0    0 -0.30918491180E+02  0.30075968082E+02 -0.10027381683E+03  0.10916205977E+03  0.10000000000E+01 0.  0.
<mgrwt>
<rscale>  0 0.12499722E+03</rscale>
<asrwt>0</asrwt>
<pdfrwt beam="2">  1        4 0.11652488E+00 0.12499722E+03</pdfrwt>
<pdfrwt beam="1">  1       -4 0.79340583E-03 0.12499722E+03</pdfrwt>
<totfact> 0.39982491E+03</totfact>
</mgrwt>
</event>
<event>
 5    1  0.3317939E-002  0.1250020E+03  0.7818608E-02  0.1235066E+00
         -4   -1    0    0    0  501 -0.00000000000E+00  0.00000000000E+00  0.33293082323E+02  0.33317296268E+02  0.12700000000E+01 0. -1.
          4   -1    0    0  501    0  0.00000000000E+00 -0.00000000000E+00 -0.11726253938E+03  0.11726941649E+03  0.12700000000E+01 0. -1.
         25    2    1    2    0    0  0.00000000000E+00  0.00000000000E+00 -0.83969457061E+02  0.15058671275E+03  0.12500195334E+03 0.  0.
    9000005    1    3    3    0    0 -0.19536104897E+02 -0.41099605952E+02 -0.93582728014E+02  0.10406519104E+03  0.10000000000E+01 0.  0.
    9000005    1    3    3    0    0  0.19536104897E+02  0.41099605952E+02  0.96132709530E+01  0.46521521712E+02  0.10000000000E+01 0.  0.
<mgrwt>
<rscale>  0 0.12500195E+03</rscale>
<asrwt>0</asrwt>
<pdfrwt beam="2">  1        4 0.18042782E-01 0.12500195E+03</pdfrwt>
<pdfrwt beam="1">  1       -4 0.51244043E-02 0.12500195E+03</pdfrwt>
<totfact> 0.99182514E+03</totfact>
</mgrwt>
</event>
<event>
 5    1  0.3317939E-002  0.1250015E+03  0.7818608E-02  0.1235067E+00
         -4   -1    0    0    0  501 -0.00000000000E+00  0.00000000000E+00  0.11781791044E+03  0.11782475513E+03  0.12700000000E+01 0.  1.
          4   -1    0    0  501    0  0.00000000000E+00 -0.00000000000E+00 -0.33135802635E+02  0.33160131427E+02  0.12700000000E+01 0.  1.
         25    2    1    2    0    0  0.00000000000E+00  0.00000000000E+00  0.84682107809E+02  0.15098488656E+03  0.12500150633E+03 0.  0.
    9000005    1    3    3    0    0 -0.10585380578E+02  0.32482531264E+02 -0.20863613501E+02  0.40043170299E+02  0.10000000000E+01 0.  0.
    9000005    1    3    3    0    0  0.10585380578E+02 -0.32482531264E+02  0.10554572131E+03  0.11094171626E+03  0.10000000000E+01 0.  0.
<mgrwt>
<rscale>  0 0.12500151E+03</rscale>
<asrwt>0</asrwt>
<pdfrwt beam="2">  1        4 0.51002137E-02 0.12500151E+03</pdfrwt>
<pdfrwt beam="1">  1       -4 0.18128230E-01 0.12500151E+03</pdfrwt>
<totfact> 0.99104378E+03</totfact>
</mgrwt>
</event>
<event>
 5    1  0.3317939E-002  0.1249980E+03  0.7818608E-02  0.1235072E+00
         -4   -1    0    0    0  501 -0.00000000000E+00  0.00000000000E+00  0.28276768467E+02  0.28305273977E+02  0.12700000000E+01 0.  1.
          4   -1    0    0  501    0  0.00000000000E+00 -0.00000000000E+00 -0.13803803046E+03  0.13804387257E+03  0.12700000000E+01 0.  1.
         25    2    1    2    0    0  0.00000000000E+00  0.00000000000E+00 -0.10976126199E+03  0.16634914654E+03  0.12499801567E+03 0.  0.
    9000005    1    3    3    0    0  0.26261937612E+01 -0.51091164356E+02 -0.71208593983E+01  0.51661500245E+02  0.10000000000E+01 0.  0.
    9000005    1    3    3    0    0 -0.26261937612E+01  0.51091164356E+02 -0.10264040259E+03  0.11468764630E+03  0.10000000000E+01 0.  0.
<mgrwt>
<rscale>  0 0.12499802E+03</rscale>
<asrwt>0</asrwt>
<pdfrwt beam="2">  1        4 0.21239262E-01 0.12499802E+03</pdfrwt>
<pdfrwt beam="1">  1       -4 0.43529143E-02 0.12499802E+03</pdfrwt>
<totfact> 0.96136779E+03</totfact>
</mgrwt>
</event>
<event>
 5    1  0.3317939E-002  0.1250017E+03  0.7818608E-02  0.1235067E+00
         -4   -1    0    0    0  501 -0.00000000000E+00  0.00000000000E+00  0.38937110879E+02  0.38957816977E+02  0.12700000000E+01 0.  1.
          4   -1    0    0  501    0  0.00000000000E+00 -0.00000000000E+00 -0.10027337642E+03  0.10028141862E+03  0.12700000000E+01 0.  1.
         25    2    1    2    0    0  0.00000000000E+00  0.00000000000E+00 -0.61336265546E+02  0.13923923559E+03  0.12500170902E+03 0.  0.
    9000005    1    3    3    0    0  0.31614346816E+02 -0.46592753025E+02 -0.60867017326E+02  0.82922526235E+02  0.10000000000E+01 0.  0.
    9000005    1    3    3    0    0 -0.31614346816E+02  0.46592753025E+02 -0.46924821962E+00  0.56316709358E+02  0.10000000000E+01 0.  0.
<mgrwt>
<rscale>  0 0.12500171E+03</rscale>
<asrwt>0</asrwt>
<pdfrwt beam="2">  1        4 0.15428885E-01 0.12500171E+03</pdfrwt>
<pdfrwt beam="1">  1       -4 0.59925362E-02 0.12500171E+03</pdfrwt>
<totfact> 0.10148987E+04</totfact>
</mgrwt>
</event>
<event>
 5    1  0.3317939E-002  0.1250016E+03  0.7818608E-02  0.1235067E+00
         -4   -1    0    0    0  501 -0.00000000000E+00  0.00000000000E+00  0.26343327603E+02  0.26373922901E+02  0.12700000000E+01 0.  1.
          4   -1    0    0  501    0  0.00000000000E+00 -0.00000000000E+00 -0.14816675482E+03  0.14817219757E+03  0.12700000000E+01 0.  1.
         25    2    1    2    0    0  0.00000000000E+00  0.00000000000E+00 -0.12182342721E+03  0.17454612047E+03  0.12500160301E+03 0.  0.
    9000005    1    3    3    0    0 -0.30329086028E+02 -0.54566940059E+02 -0.56975642508E+02  0.84525902810E+02  0.10000000000E+01 0.  0.
    9000005    1    3    3    0    0  0.30329086028E+02  0.54566940059E+02 -0.64847784706E+02  0.90020217662E+02  0.10000000000E+01 0.  0.
<mgrwt>
<rscale>  0 0.12500160E+03</rscale>
<asrwt>0</asrwt>
<pdfrwt beam="2">  1        4 0.22797657E-01 0.12500160E+03</pdfrwt>
<pdfrwt beam="1">  1       -4 0.40555919E-02 0.12500160E+03</pdfrwt>
<totfact> 0.94604631E+03</totfact>
</mgrwt>
</event>
<event>
 5    1  0.3317939E-002  0.1250247E+03  0.7818608E-02  0.1235031E+00
         -4   -1    0    0    0  501 -0.00000000000E+00  0.00000000000E+00  0.15366132822E+03  0.15366657637E+03  0.12700000000E+01 0. -1.
          4   -1    0    0  501    0  0.00000000000E+00 -0.00000000000E+00 -0.25409657159E+02  0.25441375295E+02  0.12700000000E+01 0. -1.
         25    2    1    2    0    0  0.00000000000E+00  0.00000000000E+00  0.12825167107E+03  0.17910795166E+03  0.12502466643E+03 0.  0.
    9000005    1    3    3    0    0  0.30894962314E+02 -0.54076391434E+02  0.56540323313E+02  0.84122309569E+02  0.10000000000E+01 0.  0.
    9000005    1    3    3    0    0 -0.30894962314E+02  0.54076391434E+02  0.71711347753E+02  0.94985642091E+02  0.10000000000E+01 0.  0.
<mgrwt>
<rscale>  0 0.12502467E+03</rscale>
<asrwt>0</asrwt>
<pdfrwt beam="2">  1        4 0.39120216E-02 0.12502467E+03</pdfrwt>
<pdfrwt beam="1">  1       -4 0.23643048E-01 0.12502467E+03</pdfrwt>
<totfact> 0.93725970E+03</totfact>
</mgrwt>
</event>
<event>
 5    1  0.3317939E-002  0.1250016E+03  0.7818608E-02  0.1235067E+00
         -4   -1    0    0    0  501 -0.00000000000E+00  0.00000000000E+00  0.17381587380E+02  0.17427922419E+02  0.12700000000E+01 0. -1.
          4   -1    0    0  501    0  0.00000000000E+00 -0.00000000000E+00 -0.22439356558E+03  0.22439715946E+03  0.12700000000E+01 0. -1.
         25    2    1    2    0    0  0.00000000000E+00  0.00000000000E+00 -0.20701197820E+03  0.24182508188E+03  0.12500164442E+03 0.  0.
    9000005    1    3    3    0    0  0.48728589703E+02 -0.31733265077E+02 -0.14778525073E+03  0.15881736649E+03  0.10000000000E+01 0.  0.
    9000005    1    3    3    0    0 -0.48728589703E+02  0.31733265077E+02 -0.59226727477E+02  0.83007715392E+02  0.10000000000E+01 0.  0.
<mgrwt>
<rscale>  0 0.12500164E+03</rscale>
<asrwt>0</asrwt>
<pdfrwt beam="2">  1        4 0.34525926E-01 0.12500164E+03</pdfrwt>
<pdfrwt beam="1">  1       -4 0.26779312E-02 0.12500164E+03</pdfrwt>
<totfact> 0.83523242E+03</totfact>
</mgrwt>
</event>
<event>
 5    1  0.3317939E-002  0.1249998E+03  0.7818608E-02  0.1235070E+00
          4   -1    0    0  501    0  0.00000000000E+00  0.00000000000E+00  0.75694945631E+01  0.76752946485E+01  0.12700000000E+01 0.  1.
         -4   -1    0    0    0  501 -0.00000000000E+00 -0.00000000000E+00 -0.51236177108E+03  0.51236334506E+03  0.12700000000E+01 0.  1.
         25    2    1    2    0    0  0.00000000000E+00  0.00000000000E+00 -0.50479227651E+03  0.52003863971E+03  0.12499977745E+03 0.  0.
    9000005    1    3    3    0    0 -0.31916826467E+02  0.49305755646E+02 -0.16360532038E+03  0.17383164904E+03  0.10000000000E+01 0.  0.
    9000005    1    3    3    0    0  0.31916826467E+02 -0.49305755646E+02 -0.34118695613E+03  0.34620699066E+03  0.10000000000E+01 0.  0.
<mgrwt>
<rscale>  0 0.12499978E+03</rscale>
<asrwt>0</asrwt>
<pdfrwt beam="1">  1        4 0.11727976E-02 0.12499978E+03</pdfrwt>
<pdfrwt beam="2">  1       -4 0.78833120E-01 0.12499978E+03</pdfrwt>
<totfact> 0.54342735E+03</totfact>
</mgrwt>
</event>
<event>
 5    1  0.3317939E-002  0.1249998E+03  0.7818608E-02  0.1235070E+00
         -4   -1    0    0    0  501 -0.00000000000E+00  0.00000000000E+00  0.12140350553E+03  0.12141014807E+03  0.12700000000E+01 0.  1.
          4   -1    0    0  501    0  0.00000000000E+00 -0.00000000000E+00 -0.32155585741E+02  0.32180655592E+02  0.12700000000E+01 0.  1.
         25    2    1    2    0    0  0.00000000000E+00  0.00000000000E+00  0.89247919792E+02  0.15359080367E+03  0.12499977514E+03 0.  0.
    9000005    1    3    3    0    0 -0.33585962205E+02 -0.52661657360E+02  0.47071855295E+02  0.78217814940E+02  0.10000000000E+01 0.  0.
    9000005    1    3    3    0    0  0.33585962205E+02  0.52661657360E+02  0.42176064497E+02  0.75372988727E+02  0.10000000000E+01 0.  0.
<mgrwt>
<rscale>  0 0.12499978E+03</rscale>
<asrwt>0</asrwt>
<pdfrwt beam="2">  1        4 0.49494527E-02 0.12499978E+03</pdfrwt>
<pdfrwt beam="1">  1       -4 0.18679902E-01 0.12499978E+03</pdfrwt>
<totfact> 0.98593180E+03</totfact>
</mgrwt>
</event>
<event>
 5    1  0.3317939E-002  0.1250029E+03  0.7818608E-02  0.1235065E+00
         -4   -1    0    0    0  501 -0.00000000000E+00  0.00000000000E+00  0.19418250857E+02  0.19459737058E+02  0.12700000000E+01 0. -1.
          4   -1    0    0  501    0  0.00000000000E+00 -0.00000000000E+00 -0.20091509365E+03  0.20091910750E+03  0.12700000000E+01 0. -1.
         25    2    1    2    0    0  0.00000000000E+00  0.00000000000E+00 -0.18149684280E+03  0.22037884456E+03  0.12500292470E+03 0.  0.
    9000005    1    3    3    0    0  0.20736562995E+02 -0.58948507428E+02 -0.91996566820E+02  0.11121735422E+03  0.10000000000E+01 0.  0.
    9000005    1    3    3    0    0 -0.20736562995E+02  0.58948507428E+02 -0.89500275976E+02  0.10916149034E+03  0.10000000000E+01 0.  0.
<mgrwt>
<rscale>  0 0.12500292E+03</rscale>
<asrwt>0</asrwt>
<pdfrwt beam="2">  1        4 0.30913513E-01 0.12500292E+03</pdfrwt>
<pdfrwt beam="1">  1       -4 0.29909233E-02 0.12500292E+03</pdfrwt>
<totfact> 0.86802768E+03</totfact>
</mgrwt>
</event>
<event>
 5    1  0.3317939E-002  0.1250031E+03  0.7818608E-02  0.1235064E+00
          4   -1    0    0  501    0  0.00000000000E+00  0.00000000000E+00  0.41391566413E+02  0.41411045267E+02  0.12700000000E+01 0.  1.
         -4   -1    0    0    0  501 -0.00000000000E+00 -0.00000000000E+00 -0.94331817475E+02  0.94340366165E+02  0.12700000000E+01 0.  1.
         25    2    1    2    0    0  0.00000000000E+00  0.00000000000E+00 -0.52940251062E+02  0.13575141143E+03  0.12500310206E+03 0.  0.
    9000005    1    3    3    0    0 -0.50179428973E+01 -0.62031974832E+02 -0.32641940730E+02  0.70282586372E+02  0.10000000000E+01 0.  0.
    9000005    1    3    3    0    0  0.50179428973E+01  0.62031974832E+02 -0.20298310332E+02  0.65468825061E+02  0.10000000000E+01 0.  0.
<mgrwt>
<rscale>  0 0.12500310E+03</rscale>
<asrwt>0</asrwt>
<pdfrwt beam="1">  1        4 0.63700893E-02 0.12500310E+03</pdfrwt>
<pdfrwt beam="2">  1       -4 0.14514743E-01 0.12500310E+03</pdfrwt>
<totfact> 0.10221542E+04</totfact>
</mgrwt>
</event>
<event>
 5    1  0.3317939E-002  0.1250010E+03  0.7818608E-02  0.1235068E+00
          4   -1    0    0  501    0  0.00000000000E+00  0.00000000000E+00  0.15522041767E+02  0.15573910254E+02  0.12700000000E+01 0. -1.
         -4   -1    0    0    0  501 -0.00000000000E+00 -0.00000000000E+00 -0.25118912202E+03  0.25119233253E+03  0.12700000000E+01 0. -1.
         25    2    1    2    0    0  0.00000000000E+00  0.00000000000E+00 -0.23566708025E+03  0.26676624278E+03  0.12500102229E+03 0.  0.
    9000005    1    3    3    0    0  0.51382889824E+02  0.87521332063E+01 -0.19140666785E+03  0.19837921690E+03  0.10000000000E+01 0.  0.
    9000005    1    3    3    0    0 -0.51382889824E+02 -0.87521332063E+01 -0.44260412403E+02  0.68387025878E+02  0.10000000000E+01 0.  0.
<mgrwt>
<rscale>  0 0.12500102E+03</rscale>
<asrwt>0</asrwt>
<pdfrwt beam="1">  1        4 0.23922435E-02 0.12500102E+03</pdfrwt>
<pdfrwt beam="2">  1       -4 0.38648714E-01 0.12500102E+03</pdfrwt>
<totfact> 0.79963976E+03</totfact>
</mgrwt>
</event>
<event>
 5    1  0.3317939E-002  0.1249975E+03  0.7818608E-02  0.1235073E+00
          4   -1    0    0  501    0  0.00000000000E+00  0.00000000000E+00  0.15023394797E+02  0.15076978850E+02  0.12700000000E+01 0. -1.
         -4   -1    0    0    0  501 -0.00000000000E+00 -0.00000000000E+00 -0.25948274304E+03  0.25948585094E+03  0.12700000000E+01 0. -1.
         25    2    1    2    0    0  0.00000000000E+00  0.00000000000E+00 -0.24445934825E+03  0.27456282979E+03  0.12499749820E+03 0.  0.
    9000005    1    3    3    0    0 -0.15414368954E+02 -0.58741118013E+02 -0.15458473274E+03  0.16608901623E+03  0.10000000000E+01 0.  0.
    9000005    1    3    3    0    0  0.15414368954E+02  0.58741118013E+02 -0.89874615507E+02  0.10847381356E+03  0.10000000000E+01 0.  0.
<mgrwt>
<rscale>  0 0.12499750E+03</rscale>
<asrwt>0</asrwt>
<pdfrwt beam="1">  1        4 0.23156526E-02 0.12499750E+03</pdfrwt>
<pdfrwt beam="2">  1       -4 0.39924780E-01 0.12499750E+03</pdfrwt>
<totfact> 0.78908993E+03</totfact>
</mgrwt>
</event>
<event>
 5    1  0.3317939E-002  0.1249992E+03  0.7818608E-02  0.1235070E+00
         -4   -1    0    0    0  501 -0.00000000000E+00  0.00000000000E+00  0.94361683025E+03  0.94361768489E+03  0.12700000000E+01 0. -1.
          4   -1    0    0  501    0  0.00000000000E+00 -0.00000000000E+00 -0.40413235658E+01  0.42361770694E+01  0.12700000000E+01 0. -1.
         25    2    1    2    0    0  0.00000000000E+00  0.00000000000E+00  0.93957550668E+03  0.94785386196E+03  0.12499924345E+03 0.  0.
    9000005    1    3    3    0    0  0.29028097464E+02 -0.16744172433E+01  0.88923591103E+03  0.88971171712E+03  0.10000000000E+01 0.  0.
    9000005    1    3    3    0    0 -0.29028097464E+02  0.16744172433E+01  0.50339595653E+02  0.58142144835E+02  0.10000000000E+01 0.  0.
<mgrwt>
<rscale>  0 0.12499924E+03</rscale>
<asrwt>0</asrwt>
<pdfrwt beam="2">  1        4 0.63679551E-03 0.12499924E+03</pdfrwt>
<pdfrwt beam="1">  1       -4 0.14518711E+00 0.12499924E+03</pdfrwt>
<totfact> 0.32392768E+03</totfact>
</mgrwt>
</event>
<event>
 5    1  0.3317939E-002  0.1250035E+03  0.7818608E-02  0.1235064E+00
         -4   -1    0    0    0  501 -0.00000000000E+00  0.00000000000E+00  0.79243959001E+02  0.79254135149E+02  0.12700000000E+01 0.  1.
          4   -1    0    0  501    0  0.00000000000E+00 -0.00000000000E+00 -0.49275178390E+02  0.49291541925E+02  0.12700000000E+01 0.  1.
         25    2    1    2    0    0  0.00000000000E+00  0.00000000000E+00  0.29968780612E+02  0.12854567707E+03  0.12500345308E+03 0.  0.
    9000005    1    3    3    0    0 -0.14438138782E+02 -0.60036434526E+02  0.24881699902E+02  0.66580269690E+02  0.10000000000E+01 0.  0.
    9000005    1    3    3    0    0  0.14438138782E+02  0.60036434526E+02  0.50870807094E+01  0.61965407383E+02  0.10000000000E+01 0.  0.
<mgrwt>
<rscale>  0 0.12500345E+03</rscale>
<asrwt>0</asrwt>
<pdfrwt beam="2">  1        4 0.75828383E-02 0.12500345E+03</pdfrwt>
<pdfrwt beam="1">  1       -4 0.12193420E-01 0.12500345E+03</pdfrwt>
<totfact> 0.10374911E+04</totfact>
</mgrwt>
</event>
<event>
 5    1  0.3317939E-002  0.1249981E+03  0.7818608E-02  0.1235072E+00
          4   -1    0    0  501    0  0.00000000000E+00  0.00000000000E+00  0.84916251811E+01  0.85860700100E+01  0.12700000000E+01 0.  1.
         -4   -1    0    0    0  501 -0.00000000000E+00 -0.00000000000E+00 -0.45735858893E+03  0.45736035220E+03  0.12700000000E+01 0.  1.
         25    2    1    2    0    0  0.00000000000E+00  0.00000000000E+00 -0.44886696375E+03  0.46594642221E+03  0.12499806890E+03 0.  0.
    9000005    1    3    3    0    0  0.30566691428E+02 -0.51257977595E+02 -0.29351303603E+03  0.29952062569E+03  0.10000000000E+01 0.  0.
    9000005    1    3    3    0    0 -0.30566691428E+02  0.51257977595E+02 -0.15535392772E+03  0.16642579652E+03  0.10000000000E+01 0.  0.
<mgrwt>
<rscale>  0 0.12499807E+03</rscale>
<asrwt>0</asrwt>
<pdfrwt beam="1">  1        4 0.13138049E-02 0.12499807E+03</pdfrwt>
<pdfrwt beam="2">  1       -4 0.70370241E-01 0.12499807E+03</pdfrwt>
<totfact> 0.58609327E+03</totfact>
</mgrwt>
</event>
<event>
 5    1  0.3317939E-002  0.1250018E+03  0.7818608E-02  0.1235066E+00
         -4   -1    0    0    0  501 -0.00000000000E+00  0.00000000000E+00  0.10237783027E+03  0.10238570716E+03  0.12700000000E+01 0. -1.
          4   -1    0    0  501    0  0.00000000000E+00 -0.00000000000E+00 -0.38136416683E+02  0.38157557278E+02  0.12700000000E+01 0. -1.
         25    2    1    2    0    0  0.00000000000E+00  0.00000000000E+00  0.64241413583E+02  0.14054326443E+03  0.12500179982E+03 0.  0.
    9000005    1    3    3    0    0 -0.23629231938E+02  0.57850417029E+02  0.32786949047E+02  0.70576167226E+02  0.10000000000E+01 0.  0.
    9000005    1    3    3    0    0  0.23629231938E+02 -0.57850417029E+02  0.31454464535E+02  0.69967097208E+02  0.10000000000E+01 0.  0.
<mgrwt>
<rscale>  0 0.12500180E+03</rscale>
<asrwt>0</asrwt>
<pdfrwt beam="2">  1        4 0.58693733E-02 0.12500180E+03</pdfrwt>
<pdfrwt beam="1">  1       -4 0.15752667E-01 0.12500180E+03</pdfrwt>
<totfact> 0.10121928E+04</totfact>
</mgrwt>
</event>
<event>
 5    1  0.3317939E-002  0.1249970E+03  0.7818608E-02  0.1235074E+00
         -4   -1    0    0    0  501 -0.00000000000E+00  0.00000000000E+00  0.63164938134E+02  0.63177704212E+02  0.12700000000E+01 0.  1.
          4   -1    0    0  501    0  0.00000000000E+00 -0.00000000000E+00 -0.61813533530E+02  0.61826578649E+02  0.12700000000E+01 0.  1.
         25    2    1    2    0    0  0.00000000000E+00  0.00000000000E+00  0.13514046042E+01  0.12500428286E+03  0.12499697772E+03 0.  0.
    9000005    1    3    3    0    0  0.59120374735E+02  0.14786474423E+02  0.14504112350E+02  0.62651638524E+02  0.10000000000E+01 0.  0.
    9000005    1    3    3    0    0 -0.59120374735E+02 -0.14786474423E+02 -0.13152707746E+02  0.62352644336E+02  0.10000000000E+01 0.  0.
<mgrwt>
<rscale>  0 0.12499698E+03</rscale>
<asrwt>0</asrwt>
<pdfrwt beam="2">  1        4 0.95117599E-02 0.12499698E+03</pdfrwt>
<pdfrwt beam="1">  1       -4 0.97196683E-02 0.12499698E+03</pdfrwt>
<totfact> 0.10453484E+04</totfact>
</mgrwt>
</event>
<event>
 5    1  0.3317939E-002  0.1249994E+03  0.7818608E-02  0.1235070E+00
          4   -1    0    0  501    0  0.00000000000E+00  0.00000000000E+00  0.92738577579E+01  0.93604133303E+01  0.12700000000E+01 0.  1.
         -4   -1    0    0    0  501 -0.00000000000E+00 -0.00000000000E+00 -0.41916307930E+03  0.41916500325E+03  0.12700000000E+01 0.  1.
         25    2    1    2    0    0  0.00000000000E+00  0.00000000000E+00 -0.40988922154E+03  0.42852541658E+03  0.12499943487E+03 0.  0.
    9000005    1    3    3    0    0 -0.53702914153E+02  0.30157327398E+02 -0.16870470614E+03  0.17959884537E+03  0.10000000000E+01 0.  0.
    9000005    1    3    3    0    0  0.53702914153E+02 -0.30157327398E+02 -0.24118451540E+03  0.24892657121E+03  0.10000000000E+01 0.  0.
<mgrwt>
<rscale>  0 0.12499943E+03</rscale>
<asrwt>0</asrwt>
<pdfrwt beam="1">  1        4 0.14335538E-02 0.12499943E+03</pdfrwt>
<pdfrwt beam="2">  1       -4 0.64493419E-01 0.12499943E+03</pdfrwt>
<totfact> 0.61870659E+03</totfact>
</mgrwt>
</event>
<event>
 5    1  0.3317939E-002  0.1249979E+03  0.7818608E-02  0.1235073E+00
          4   -1    0    0  501    0  0.00000000000E+00  0.00000000000E+00  0.13910606224E+03  0.13911185949E+03  0.12700000000E+01 0. -1.
         -4   -1    0    0    0  501 -0.00000000000E+00 -0.00000000000E+00 -0.28059398032E+02  0.28088124144E+02  0.12700000000E+01 0. -1.
         25    2    1    2    0    0  0.00000000000E+00  0.00000000000E+00  0.11104666421E+03  0.16719998364E+03  0.12499789157E+03 0.  0.
    9000005    1    3    3    0    0  0.29208764262E+02 -0.51259645227E+02  0.27966521636E+02  0.65298005107E+02  0.10000000000E+01 0.  0.
    9000005    1    3    3    0    0 -0.29208764262E+02  0.51259645227E+02  0.83080142572E+02  0.10190197853E+03  0.10000000000E+01 0.  0.
<mgrwt>
<rscale>  0 0.12499789E+03</rscale>
<asrwt>0</asrwt>
<pdfrwt beam="1">  1        4 0.21403588E-01 0.12499789E+03</pdfrwt>
<pdfrwt beam="2">  1       -4 0.43194862E-02 0.12499789E+03</pdfrwt>
<totfact> 0.95976910E+03</totfact>
</mgrwt>
</event>
<event>
 5    1  0.3317939E-002  0.1249507E+03  0.7818608E-02  0.1235146E+00
          4   -1    0    0  501    0  0.00000000000E+00  0.00000000000E+00  0.67389994174E+03  0.67390113843E+03  0.12700000000E+01 0. -1.
         -4   -1    0    0    0  501 -0.00000000000E+00 -0.00000000000E+00 -0.57210817512E+01  0.58603478057E+01  0.12700000000E+01 0. -1.
         25    2    1    2    0    0  0.00000000000E+00  0.00000000000E+00  0.66817885998E+03  0.67976148623E+03  0.12495074723E+03 0.  0.
    9000005    1    3    3    0    0 -0.47258471165E+02  0.15109051920E+02  0.12760932525E+03  0.13691890461E+03  0.10000000000E+01 0.  0.
    9000005    1    3    3    0    0  0.47258471165E+02 -0.15109051920E+02  0.54056953473E+03  0.54284258163E+03  0.10000000000E+01 0.  0.
<mgrwt>
<rscale>  0 0.12495075E+03</rscale>
<asrwt>0</asrwt>
<pdfrwt beam="1">  1        4 0.10368763E+00 0.12495075E+03</pdfrwt>
<pdfrwt beam="2">  1       -4 0.89097202E-03 0.12495075E+03</pdfrwt>
<totfact> 0.44224498E+03</totfact>
</mgrwt>
</event>
<event>
 5    1  0.3317939E-002  0.1250034E+03  0.7818608E-02  0.1235064E+00
         -4   -1    0    0    0  501 -0.00000000000E+00  0.00000000000E+00  0.30269506138E+03  0.30269772560E+03  0.12700000000E+01 0.  1.
          4   -1    0    0  501    0  0.00000000000E+00 -0.00000000000E+00 -0.12871631618E+02  0.12934133157E+02  0.12700000000E+01 0.  1.
         25    2    1    2    0    0  0.00000000000E+00  0.00000000000E+00  0.28982342976E+03  0.31563185875E+03  0.12500339925E+03 0.  0.
    9000005    1    3    3    0    0 -0.38326881643E+02  0.40354300320E+02  0.73136209658E+02  0.91909328003E+02  0.10000000000E+01 0.  0.
    9000005    1    3    3    0    0  0.38326881643E+02 -0.40354300320E+02  0.21668722010E+03  0.22372253075E+03  0.10000000000E+01 0.  0.
<mgrwt>
<rscale>  0 0.12500340E+03</rscale>
<asrwt>0</asrwt>
<pdfrwt beam="2">  1        4 0.19852639E-02 0.12500340E+03</pdfrwt>
<pdfrwt beam="1">  1       -4 0.46573482E-01 0.12500340E+03</pdfrwt>
<totfact> 0.73673134E+03</totfact>
</mgrwt>
</event>
<event>
 5    1  0.3317939E-002  0.1249524E+03  0.7818608E-02  0.1235144E+00
         -4   -1    0    0    0  501 -0.00000000000E+00  0.00000000000E+00  0.19625714421E+03  0.19626125332E+03  0.12700000000E+01 0. -1.
          4   -1    0    0  501    0  0.00000000000E+00 -0.00000000000E+00 -0.19863979309E+02  0.19904536517E+02  0.12700000000E+01 0. -1.
         25    2    1    2    0    0  0.00000000000E+00  0.00000000000E+00  0.17639316490E+03  0.21616578984E+03  0.12495239122E+03 0.  0.
    9000005    1    3    3    0    0  0.83032181610E+00  0.60550733232E+02  0.11472771431E+03  0.12973252930E+03  0.10000000000E+01 0.  0.
    9000005    1    3    3    0    0 -0.83032181610E+00 -0.60550733232E+02  0.61665450598E+02  0.86433260535E+02  0.10000000000E+01 0.  0.
<mgrwt>
<rscale>  0 0.12495239E+03</rscale>
<asrwt>0</asrwt>
<pdfrwt beam="2">  1        4 0.30594327E-02 0.12495239E+03</pdfrwt>
<pdfrwt beam="1">  1       -4 0.30196843E-01 0.12495239E+03</pdfrwt>
<totfact> 0.87571845E+03</totfact>
</mgrwt>
</event>
<event>
 5    1  0.3317939E-002  0.1249987E+03  0.7818608E-02  0.1235071E+00
         -4   -1    0    0    0  501 -0.00000000000E+00  0.00000000000E+00  0.69938608290E+02  0.69950138166E+02  0.12700000000E+01 0. -1.
          4   -1    0    0  501    0  0.00000000000E+00 -0.00000000000E+00 -0.55828049773E+02  0.55842493152E+02  0.12700000000E+01 0. -1.
         25    2    1    2    0    0  0.00000000000E+00  0.00000000000E+00  0.14110558517E+02  0.12579263132E+03  0.12499871292E+03 0.  0.
    9000005    1    3    3    0    0 -0.33838213516E+02 -0.24411990974E+02 -0.39761152836E+02  0.57644767951E+02  0.10000000000E+01 0.  0.
    9000005    1    3    3    0    0  0.33838213516E+02  0.24411990974E+02  0.53871711353E+02  0.68147863367E+02  0.10000000000E+01 0.  0.
<mgrwt>
<rscale>  0 0.12499871E+03</rscale>
<asrwt>0</asrwt>
<pdfrwt beam="2">  1        4 0.85909287E-02 0.12499871E+03</pdfrwt>
<pdfrwt beam="1">  1       -4 0.10761784E-01 0.12499871E+03</pdfrwt>
<totfact> 0.10435810E+04</totfact>
</mgrwt>
</event>
<event>
 5    1  0.3317939E-002  0.1249938E+03  0.7818608E-02  0.1235079E+00
         -4   -1    0    0    0  501 -0.00000000000E+00  0.00000000000E+00  0.65763207750E+03  0.65763330379E+03  0.12700000000E+01 0.  1.
          4   -1    0    0  501    0  0.00000000000E+00 -0.00000000000E+00 -0.58701418218E+01  0.60059524647E+01  0.12700000000E+01 0.  1.
         25    2    1    2    0    0  0.00000000000E+00  0.00000000000E+00  0.65176193568E+03  0.66363925626E+03  0.12499376643E+03 0.  0.
    9000005    1    3    3    0    0  0.27865997870E+02  0.55332247085E+02  0.28252280842E+03  0.28923746072E+03  0.10000000000E+01 0.  0.
    9000005    1    3    3    0    0 -0.27865997870E+02 -0.55332247085E+02  0.36923912726E+03  0.37440179554E+03  0.10000000000E+01 0.  0.
<mgrwt>
<rscale>  0 0.12499377E+03</rscale>
<asrwt>0</asrwt>
<pdfrwt beam="2">  1        4 0.91364044E-03 0.12499377E+03</pdfrwt>
<pdfrwt beam="1">  1       -4 0.10118466E+00 0.12499377E+03</pdfrwt>
<totfact> 0.45082961E+03</totfact>
</mgrwt>
</event>
<event>
 5    1  0.3317939E-002  0.1250028E+03  0.7818608E-02  0.1235065E+00
          4   -1    0    0  501    0  0.00000000000E+00  0.00000000000E+00  0.28156335431E+02  0.28184962744E+02  0.12700000000E+01 0. -1.
         -4   -1    0    0    0  501 -0.00000000000E+00 -0.00000000000E+00 -0.13863842266E+03  0.13864423947E+03  0.12700000000E+01 0. -1.
         25    2    1    2    0    0  0.00000000000E+00  0.00000000000E+00 -0.11048208723E+03  0.16682920221E+03  0.12500276442E+03 0.  0.
    9000005    1    3    3    0    0  0.56290310015E+02 -0.27132879711E+02 -0.54181217555E+02  0.82712734804E+02  0.10000000000E+01 0.  0.
    9000005    1    3    3    0    0 -0.56290310015E+02  0.27132879711E+02 -0.56300869671E+02  0.84116467405E+02  0.10000000000E+01 0.  0.
<mgrwt>
<rscale>  0 0.12500276E+03</rscale>
<asrwt>0</asrwt>
<pdfrwt beam="1">  1        4 0.43343935E-02 0.12500276E+03</pdfrwt>
<pdfrwt beam="2">  1       -4 0.21331637E-01 0.12500276E+03</pdfrwt>
<totfact> 0.96036125E+03</totfact>
</mgrwt>
</event>
<event>
 5    1  0.3317939E-002  0.1249887E+03  0.7818608E-02  0.1235087E+00
          4   -1    0    0  501    0  0.00000000000E+00  0.00000000000E+00  0.13169826395E+03  0.13170438727E+03  0.12700000000E+01 0.  1.
         -4   -1    0    0    0  501 -0.00000000000E+00 -0.00000000000E+00 -0.29634839759E+02  0.29662040178E+02  0.12700000000E+01 0.  1.
         25    2    1    2    0    0  0.00000000000E+00  0.00000000000E+00  0.10206342419E+03  0.16136642745E+03  0.12498872489E+03 0.  0.
    9000005    1    3    3    0    0  0.11647414738E+02 -0.26936917428E+02  0.12225363556E+03  0.12573070905E+03  0.10000000000E+01 0.  0.
    9000005    1    3    3    0    0 -0.11647414738E+02  0.26936917428E+02 -0.20190211372E+02  0.35635718399E+02  0.10000000000E+01 0.  0.
<mgrwt>
<rscale>  0 0.12498872E+03</rscale>
<asrwt>0</asrwt>
<pdfrwt beam="1">  1        4 0.20263835E-01 0.12498872E+03</pdfrwt>
<pdfrwt beam="2">  1       -4 0.45617695E-02 0.12498872E+03</pdfrwt>
<totfact> 0.97104597E+03</totfact>
</mgrwt>
</event>
<event>
 5    1  0.3317939E-002  0.1250010E+03  0.7818608E-02  0.1235068E+00
          4   -1    0    0  501    0  0.00000000000E+00  0.00000000000E+00  0.68615258461E+02  0.68627010671E+02  0.12700000000E+01 0.  1.
         -4   -1    0    0    0  501 -0.00000000000E+00 -0.00000000000E+00 -0.56906948422E+02  0.56921118038E+02  0.12700000000E+01 0.  1.
         25    2    1    2    0    0  0.00000000000E+00  0.00000000000E+00  0.11708310039E+02  0.12554812871E+03  0.12500099239E+03 0.  0.
    9000005    1    3    3    0    0  0.40217018160E+02  0.57214796034E+01  0.53550626017E+02  0.67222120060E+02  0.10000000000E+01 0.  0.
    9000005    1    3    3    0    0 -0.40217018160E+02 -0.57214796034E+01 -0.41842315978E+02  0.58326008649E+02  0.10000000000E+01 0.  0.
<mgrwt>
<rscale>  0 0.12500099E+03</rscale>
<asrwt>0</asrwt>
<pdfrwt beam="1">  1        4 0.10558188E-01 0.12500099E+03</pdfrwt>
<pdfrwt beam="2">  1       -4 0.87569091E-02 0.12500099E+03</pdfrwt>
<totfact> 0.10440658E+04</totfact>
</mgrwt>
</event>
<event>
 5    1  0.3317939E-002  0.1249970E+03  0.7818608E-02  0.1235074E+00
          4   -1    0    0  501    0  0.00000000000E+00  0.00000000000E+00  0.35407572130E+03  0.35407799891E+03  0.12700000000E+01 0.  1.
         -4   -1    0    0    0  501 -0.00000000000E+00 -0.00000000000E+00 -0.10992844056E+02  0.11065962247E+02  0.12700000000E+01 0.  1.
         25    2    1    2    0    0  0.00000000000E+00  0.00000000000E+00  0.34308287724E+03  0.36514396116E+03  0.12499700682E+03 0.  0.
    9000005    1    3    3    0    0  0.71620992907E+01 -0.60192741076E+02  0.12718105682E+03  0.14089174198E+03  0.10000000000E+01 0.  0.
    9000005    1    3    3    0    0 -0.71620992907E+01  0.60192741076E+02  0.21590182043E+03  0.22425221918E+03  0.10000000000E+01 0.  0.
<mgrwt>
<rscale>  0 0.12499701E+03</rscale>
<asrwt>0</asrwt>
<pdfrwt beam="1">  1        4 0.54478989E-01 0.12499701E+03</pdfrwt>
<pdfrwt beam="2">  1       -4 0.16970064E-02 0.12499701E+03</pdfrwt>
<totfact> 0.68094552E+03</totfact>
</mgrwt>
</event>
<event>
 5    1  0.3317939E-002  0.1249964E+03  0.7818608E-02  0.1235075E+00
         -4   -1    0    0    0  501 -0.00000000000E+00  0.00000000000E+00  0.33056988218E+03  0.33057232174E+03  0.12700000000E+01 0. -1.
          4   -1    0    0  501    0  0.00000000000E+00 -0.00000000000E+00 -0.11779425077E+02  0.11847689866E+02  0.12700000000E+01 0. -1.
         25    2    1    2    0    0  0.00000000000E+00  0.00000000000E+00  0.31879045710E+03  0.34242001161E+03  0.12499643520E+03 0.  0.
    9000005    1    3    3    0    0  0.34785877308E+02 -0.28009862160E+02  0.39658976064E+02  0.59736454705E+02  0.10000000000E+01 0.  0.
    9000005    1    3    3    0    0 -0.34785877308E+02  0.28009862160E+02  0.27913148103E+03  0.28268355690E+03  0.10000000000E+01 0.  0.
<mgrwt>
<rscale>  0 0.12499644E+03</rscale>
<asrwt>0</asrwt>
<pdfrwt beam="2">  1        4 0.18176583E-02 0.12499644E+03</pdfrwt>
<pdfrwt beam="1">  1       -4 0.50862338E-01 0.12499644E+03</pdfrwt>
<totfact> 0.70572148E+03</totfact>
</mgrwt>
</event>
<event>
 5    1  0.3317939E-002  0.1249988E+03  0.7818608E-02  0.1235071E+00
         -4   -1    0    0    0  501 -0.00000000000E+00  0.00000000000E+00  0.62599296432E+02  0.62612177840E+02  0.12700000000E+01 0.  1.
          4   -1    0    0  501    0  0.00000000000E+00 -0.00000000000E+00 -0.62373877551E+02  0.62386805502E+02  0.12700000000E+01 0.  1.
         25    2    1    2    0    0  0.00000000000E+00  0.00000000000E+00  0.22541888185E+00  0.12499898334E+03  0.12499878008E+03 0.  0.
    9000005    1    3    3    0    0  0.13183209244E+02 -0.60607185775E+02 -0.75126411235E+01  0.62485740375E+02  0.10000000000E+01 0.  0.
    9000005    1    3    3    0    0 -0.13183209244E+02  0.60607185775E+02  0.77380600053E+01  0.62513242967E+02  0.10000000000E+01 0.  0.
<mgrwt>
<rscale>  0 0.12499878E+03</rscale>
<asrwt>0</asrwt>
<pdfrwt beam="2">  1        4 0.95979665E-02 0.12499878E+03</pdfrwt>
<pdfrwt beam="1">  1       -4 0.96326463E-02 0.12499878E+03</pdfrwt>
<totfact> 0.10453173E+04</totfact>
</mgrwt>
</event>
<event>
 5    1  0.3317939E-002  0.1249921E+03  0.7818608E-02  0.1235082E+00
          4   -1    0    0  501    0  0.00000000000E+00  0.00000000000E+00  0.41305193055E+02  0.41324712623E+02  0.12700000000E+01 0.  1.
         -4   -1    0    0    0  501 -0.00000000000E+00 -0.00000000000E+00 -0.94512282330E+02  0.94520814699E+02  0.12700000000E+01 0.  1.
         25    2    1    2    0    0  0.00000000000E+00  0.00000000000E+00 -0.53207089275E+02  0.13584552732E+03  0.12499205152E+03 0.  0.
    9000005    1    3    3    0    0 -0.27367249723E+02 -0.53295895138E+02 -0.73039294116E+01  0.60363616366E+02  0.10000000000E+01 0.  0.
    9000005    1    3    3    0    0  0.27367249723E+02  0.53295895138E+02 -0.45903159863E+02  0.75481910955E+02  0.10000000000E+01 0.  0.
<mgrwt>
<rscale>  0 0.12499205E+03</rscale>
<asrwt>0</asrwt>
<pdfrwt beam="1">  1        4 0.63568030E-02 0.12499205E+03</pdfrwt>
<pdfrwt beam="2">  1       -4 0.14542509E-01 0.12499205E+03</pdfrwt>
<totfact> 0.10222112E+04</totfact>
</mgrwt>
</event>
<event>
 5    1  0.3317939E-002  0.1249973E+03  0.7818608E-02  0.1235073E+00
          4   -1    0    0  501    0  0.00000000000E+00  0.00000000000E+00  0.17584165232E+02  0.17629967864E+02  0.12700000000E+01 0.  1.
         -4   -1    0    0    0  501 -0.00000000000E+00 -0.00000000000E+00 -0.22179979511E+03  0.22180343102E+03  0.12700000000E+01 0.  1.
         25    2    1    2    0    0  0.00000000000E+00  0.00000000000E+00 -0.20421562988E+03  0.23943339889E+03  0.12499731603E+03 0.  0.
    9000005    1    3    3    0    0  0.44597450053E+02 -0.12714882429E+02 -0.21873816574E+02  0.51284155818E+02  0.10000000000E+01 0.  0.
    9000005    1    3    3    0    0 -0.44597450053E+02  0.12714882429E+02 -0.18234181331E+03  0.18814924307E+03  0.10000000000E+01 0.  0.
<mgrwt>
<rscale>  0 0.12499732E+03</rscale>
<asrwt>0</asrwt>
<pdfrwt beam="1">  1        4 0.27090593E-02 0.12499732E+03</pdfrwt>
<pdfrwt beam="2">  1       -4 0.34126846E-01 0.12499732E+03</pdfrwt>
<totfact> 0.83886845E+03</totfact>
</mgrwt>
</event>
<event>
 5    1  0.3317939E-002  0.1250014E+03  0.7818608E-02  0.1235067E+00
          4   -1    0    0  501    0  0.00000000000E+00  0.00000000000E+00  0.16138149065E+02  0.16188043589E+02  0.12700000000E+01 0. -1.
         -4   -1    0    0    0  501 -0.00000000000E+00 -0.00000000000E+00 -0.24163090234E+03  0.24163423985E+03  0.12700000000E+01 0. -1.
         25    2    1    2    0    0  0.00000000000E+00  0.00000000000E+00 -0.22549275328E+03  0.25782228344E+03  0.12500139222E+03 0.  0.
    9000005    1    3    3    0    0  0.47490025281E+02  0.39171254716E+02 -0.13492698128E+03  0.14831041762E+03  0.10000000000E+01 0.  0.
    9000005    1    3    3    0    0 -0.47490025281E+02 -0.39171254716E+02 -0.90565771999E+02  0.10951186582E+03  0.10000000000E+01 0.  0.
<mgrwt>
<rscale>  0 0.12500139E+03</rscale>
<asrwt>0</asrwt>
<pdfrwt beam="1">  1        4 0.24868871E-02 0.12500139E+03</pdfrwt>
<pdfrwt beam="2">  1       -4 0.37178077E-01 0.12500139E+03</pdfrwt>
<totfact> 0.81210131E+03</totfact>
</mgrwt>
</event>
<event>
 5    1  0.3317939E-002  0.1250041E+03  0.7818608E-02  0.1235063E+00
          4   -1    0    0  501    0  0.00000000000E+00  0.00000000000E+00  0.28021642780E+03  0.28021930574E+03  0.12700000000E+01 0.  1.
         -4   -1    0    0    0  501 -0.00000000000E+00 -0.00000000000E+00 -0.13909155493E+02  0.13967014947E+02  0.12700000000E+01 0.  1.
         25    2    1    2    0    0  0.00000000000E+00  0.00000000000E+00  0.26630727231E+03  0.29418632069E+03  0.12500411191E+03 0.  0.
    9000005    1    3    3    0    0 -0.39915403828E+02 -0.39770289122E+02  0.69542152565E+02  0.89509923153E+02  0.10000000000E+01 0.  0.
    9000005    1    3    3    0    0  0.39915403828E+02  0.39770289122E+02  0.19676511974E+03  0.20467639753E+03  0.10000000000E+01 0.  0.
<mgrwt>
<rscale>  0 0.12500411E+03</rscale>
<asrwt>0</asrwt>
<pdfrwt beam="1">  1        4 0.43114885E-01 0.12500411E+03</pdfrwt>
<pdfrwt beam="2">  1       -4 0.21445425E-02 0.12500411E+03</pdfrwt>
<totfact> 0.76326965E+03</totfact>
</mgrwt>
</event>
<event>
 5    1  0.3317939E-002  0.1250011E+03  0.7818608E-02  0.1235068E+00
         -4   -1    0    0    0  501 -0.00000000000E+00  0.00000000000E+00  0.75422083414E+03  0.75422190339E+03  0.12700000000E+01 0.  1.
          4   -1    0    0  501    0  0.00000000000E+00 -0.00000000000E+00 -0.51003344862E+01  0.52560738076E+01  0.12700000000E+01 0.  1.
         25    2    1    2    0    0  0.00000000000E+00  0.00000000000E+00  0.74912049965E+03  0.75947797720E+03  0.12500109937E+03 0.  0.
    9000005    1    3    3    0    0 -0.20902911221E+01  0.12642176583E+02  0.29373666340E+01  0.13184159756E+02  0.10000000000E+01 0.  0.
    9000005    1    3    3    0    0  0.20902911221E+01 -0.12642176583E+02  0.74618313302E+03  0.74629381744E+03  0.10000000000E+01 0.  0.
<mgrwt>
<rscale>  0 0.12500110E+03</rscale>
<asrwt>0</asrwt>
<pdfrwt beam="2">  1        4 0.79672881E-03 0.12500110E+03</pdfrwt>
<pdfrwt beam="1">  1       -4 0.11604607E+00 0.12500110E+03</pdfrwt>
<totfact> 0.40123883E+03</totfact>
</mgrwt>
</event>
<event>
 5    1  0.3317939E-002  0.1250023E+03  0.7818608E-02  0.1235066E+00
          4   -1    0    0  501    0  0.00000000000E+00  0.00000000000E+00  0.81915484055E+01  0.82894128429E+01  0.12700000000E+01 0. -1.
         -4   -1    0    0    0  501 -0.00000000000E+00 -0.00000000000E+00 -0.47395063202E+03  0.47395233357E+03  0.12700000000E+01 0. -1.
         25    2    1    2    0    0  0.00000000000E+00  0.00000000000E+00 -0.46575908362E+03  0.48224174641E+03  0.12500231202E+03 0.  0.
    9000005    1    3    3    0    0  0.50150366368E+02 -0.65607914960E+01 -0.37448418879E+03  0.37788557909E+03  0.10000000000E+01 0.  0.
    9000005    1    3    3    0    0 -0.50150366368E+02  0.65607914960E+01 -0.91274894829E+02  0.10435616732E+03  0.10000000000E+01 0.  0.
<mgrwt>
<rscale>  0 0.12500231E+03</rscale>
<asrwt>0</asrwt>
<pdfrwt beam="1">  1        4 0.12678975E-02 0.12500231E+03</pdfrwt>
<pdfrwt beam="2">  1       -4 0.72923120E-01 0.12500231E+03</pdfrwt>
<totfact> 0.57266098E+03</totfact>
</mgrwt>
</event>
<event>
 5    1  0.3317939E-002  0.1250023E+03  0.7818608E-02  0.1235066E+00
         -4   -1    0    0    0  501 -0.00000000000E+00  0.00000000000E+00  0.10013737532E+03  0.10014542843E+03  0.12700000000E+01 0.  1.
          4   -1    0    0  501    0  0.00000000000E+00 -0.00000000000E+00 -0.38990392933E+02  0.39011070750E+02  0.12700000000E+01 0.  1.
         25    2    1    2    0    0  0.00000000000E+00  0.00000000000E+00  0.61146982389E+02  0.13915649918E+03  0.12500231122E+03 0.  0.
    9000005    1    3    3    0    0 -0.16770142412E+02  0.59367702163E+02  0.19461639510E+02  0.64695572870E+02  0.10000000000E+01 0.  0.
    9000005    1    3    3    0    0  0.16770142412E+02 -0.59367702163E+02  0.41685342879E+02  0.74460926314E+02  0.10000000000E+01 0.  0.
<mgrwt>
<rscale>  0 0.12500231E+03</rscale>
<asrwt>0</asrwt>
<pdfrwt beam="2">  1        4 0.60007322E-02 0.12500231E+03</pdfrwt>
<pdfrwt beam="1">  1       -4 0.15407960E-01 0.12500231E+03</pdfrwt>
<totfact> 0.10150569E+04</totfact>
</mgrwt>
</event>
<event>
 5    1  0.3317939E-002  0.1250001E+03  0.7818608E-02  0.1235069E+00
         -4   -1    0    0    0  501 -0.00000000000E+00  0.00000000000E+00  0.30073802032E+03  0.30074070188E+03  0.12700000000E+01 0. -1.
          4   -1    0    0  501    0  0.00000000000E+00 -0.00000000000E+00 -0.12955114709E+02  0.13017215413E+02  0.12700000000E+01 0. -1.
         25    2    1    2    0    0  0.00000000000E+00  0.00000000000E+00  0.28778290561E+03  0.31375791729E+03  0.12500011960E+03 0.  0.
    9000005    1    3    3    0    0 -0.12572784392E+02  0.41112748922E+01 -0.94130743855E+01  0.16266021579E+02  0.10000000000E+01 0.  0.
    9000005    1    3    3    0    0  0.12572784392E+02 -0.41112748922E+01  0.29719598000E+03  0.29749189571E+03  0.10000000000E+01 0.  0.
<mgrwt>
<rscale>  0 0.12500012E+03</rscale>
<asrwt>0</asrwt>
<pdfrwt beam="2">  1        4 0.19980781E-02 0.12500012E+03</pdfrwt>
<pdfrwt beam="1">  1       -4 0.46272364E-01 0.12500012E+03</pdfrwt>
<totfact> 0.73904548E+03</totfact>
</mgrwt>
</event>
<event>
 5    1  0.3317939E-002  0.1250148E+03  0.7818608E-02  0.1235046E+00
          4   -1    0    0  501    0  0.00000000000E+00  0.00000000000E+00  0.86168901246E+01  0.87099767749E+01  0.12700000000E+01 0. -1.
         -4   -1    0    0    0  501 -0.00000000000E+00 -0.00000000000E+00 -0.45090184401E+03  0.45090363254E+03  0.12700000000E+01 0. -1.
         25    2    1    2    0    0  0.00000000000E+00  0.00000000000E+00 -0.44228495389E+03  0.45961360931E+03  0.12501475684E+03 0.  0.
    9000005    1    3    3    0    0  0.10802319601E+02  0.29153665263E+02 -0.42047204854E+03  0.42162112128E+03  0.10000000000E+01 0.  0.
    9000005    1    3    3    0    0 -0.10802319601E+02 -0.29153665263E+02 -0.21812905349E+02  0.37992488031E+02  0.10000000000E+01 0.  0.
<mgrwt>
<rscale>  0 0.12501476E+03</rscale>
<asrwt>0</asrwt>
<pdfrwt beam="1">  1        4 0.13329739E-02 0.12501476E+03</pdfrwt>
<pdfrwt beam="2">  1       -4 0.69376794E-01 0.12501476E+03</pdfrwt>
<totfact> 0.59120719E+03</totfact>
</mgrwt>
</event>
<event>
 5    1  0.3317939E-002  0.1249955E+03  0.7818608E-02  0.1235076E+00
         -4   -1    0    0    0  501 -0.00000000000E+00  0.00000000000E+00  0.55572011927E+03  0.55572157045E+03  0.12700000000E+01 0. -1.
          4   -1    0    0  501    0  0.00000000000E+00 -0.00000000000E+00 -0.69698243178E+01  0.70845854516E+01  0.12700000000E+01 0. -1.
         25    2    1    2    0    0  0.00000000000E+00  0.00000000000E+00  0.54875029496E+03  0.56280615590E+03  0.12499553156E+03 0.  0.
    9000005    1    3    3    0    0  0.39190963113E+02 -0.26188514277E+02  0.45910297515E+03  0.46151740126E+03  0.10000000000E+01 0.  0.
    9000005    1    3    3    0    0 -0.39190963113E+02  0.26188514277E+02  0.89647319804E+02  0.10128875465E+03  0.10000000000E+01 0.  0.
<mgrwt>
<rscale>  0 0.12499553E+03</rscale>
<asrwt>0</asrwt>
<pdfrwt beam="2">  1        4 0.10812196E-02 0.12499553E+03</pdfrwt>
<pdfrwt beam="1">  1       -4 0.85504379E-01 0.12499553E+03</pdfrwt>
<totfact> 0.51307850E+03</totfact>
</mgrwt>
</event>
<event>
 5    1  0.3317939E-002  0.1250034E+03  0.7818608E-02  0.1235064E+00
          4   -1    0    0  501    0  0.00000000000E+00  0.00000000000E+00  0.53290700724E+02  0.53305831610E+02  0.12700000000E+01 0.  1.
         -4   -1    0    0    0  501 -0.00000000000E+00 -0.00000000000E+00 -0.73273756057E+02  0.73284761217E+02  0.12700000000E+01 0.  1.
         25    2    1    2    0    0  0.00000000000E+00  0.00000000000E+00 -0.19983055333E+02  0.12659059283E+03  0.12500342272E+03 0.  0.
    9000005    1    3    3    0    0 -0.36017817355E+02  0.38162999286E+01  0.41582662653E+02  0.55154012959E+02  0.10000000000E+01 0.  0.
    9000005    1    3    3    0    0  0.36017817355E+02 -0.38162999286E+01 -0.61565717986E+02  0.71436579868E+02  0.10000000000E+01 0.  0.
<mgrwt>
<rscale>  0 0.12500342E+03</rscale>
<asrwt>0</asrwt>
<pdfrwt beam="1">  1        4 0.82005798E-02 0.12500342E+03</pdfrwt>
<pdfrwt beam="2">  1       -4 0.11274896E-01 0.12500342E+03</pdfrwt>
<totfact> 0.10417248E+04</totfact>
</mgrwt>
</event>
<event>
 5    1  0.3317939E-002  0.1250018E+03  0.7818608E-02  0.1235066E+00
          4   -1    0    0  501    0  0.00000000000E+00  0.00000000000E+00  0.14894847849E+03  0.14895389268E+03  0.12700000000E+01 0. -1.
         -4   -1    0    0    0  501 -0.00000000000E+00 -0.00000000000E+00 -0.26205001766E+02  0.26235758376E+02  0.12700000000E+01 0. -1.
         25    2    1    2    0    0  0.00000000000E+00  0.00000000000E+00  0.12274347672E+03  0.17518965105E+03  0.12500181102E+03 0.  0.
    9000005    1    3    3    0    0 -0.79662552845E+01 -0.29483642874E+02  0.13778374491E+03  0.14113152299E+03  0.10000000000E+01 0.  0.
    9000005    1    3    3    0    0  0.79662552845E+01  0.29483642874E+02 -0.15040268184E+02  0.34058128067E+02  0.10000000000E+01 0.  0.
<mgrwt>
<rscale>  0 0.12500181E+03</rscale>
<asrwt>0</asrwt>
<pdfrwt beam="1">  1        4 0.22917933E-01 0.12500181E+03</pdfrwt>
<pdfrwt beam="2">  1       -4 0.40343211E-02 0.12500181E+03</pdfrwt>
<totfact> 0.94486279E+03</totfact>
</mgrwt>
</event>
<event>
 5    1  0.3317939E-002  0.1249975E+03  0.7818608E-02  0.1235073E+00
         -4   -1    0    0    0  501 -0.00000000000E+00  0.00000000000E+00  0.29491153319E+02  0.29518486142E+02  0.12700000000E+01 0. -1.
          4   -1    0    0  501    0  0.00000000000E+00 -0.00000000000E+00 -0.13235788176E+03  0.13236397458E+03  0.12700000000E+01 0. -1.
         25    2    1    2    0    0  0.00000000000E+00  0.00000000000E+00 -0.10286672845E+03  0.16188246072E+03  0.12499746904E+03 0.  0.
    9000005    1    3    3    0    0 -0.36293481153E+02 -0.32162746106E+02 -0.38935082053E+00  0.48505779092E+02  0.10000000000E+01 0.  0.
    9000005    1    3    3    0    0  0.36293481153E+02  0.32162746106E+02 -0.10247737762E+03  0.11337668162E+03  0.10000000000E+01 0.  0.
<mgrwt>
<rscale>  0 0.12499747E+03</rscale>
<asrwt>0</asrwt>
<pdfrwt beam="2">  1        4 0.20365322E-01 0.12499747E+03</pdfrwt>
<pdfrwt beam="1">  1       -4 0.45396718E-02 0.12499747E+03</pdfrwt>
<totfact> 0.96986601E+03</totfact>
</mgrwt>
</event>
<event>
 4    1  0.3317939E-002  0.1249234E+03  0.7818608E-02  0.1235189E+00
         -4   -1    0    0    0  501 -0.00000000000E+00  0.00000000000E+00  0.22144481819E+03  0.22144845993E+03  0.12700000000E+01 0.  1.
          4   -1    0    0  501    0  0.00000000000E+00 -0.00000000000E+00 -0.17591550092E+02  0.17637333547E+02  0.12700000000E+01 0.  1.
    9000005    1    1    2    0    0  0.16292153919E+01 -0.52908655805E+02  0.16535842953E+03  0.17362715922E+03  0.10000000000E+01 0.  0.
    9000005    1    1    2    0    0 -0.16292153919E+01  0.52908655805E+02  0.38494838567E+02  0.65458634252E+02  0.10000000000E+01 0.  0.
<mgrwt>
<rscale>  0 0.12492342E+03</rscale>
<asrwt>0</asrwt>
<pdfrwt beam="2">  1        4 0.27101944E-02 0.12492342E+03</pdfrwt>
<pdfrwt beam="1">  1       -4 0.34072233E-01 0.12492342E+03</pdfrwt>
<totfact> 0.84077172E+03</totfact>
</mgrwt>
</event>
<event>
 5    1  0.3317939E-002  0.1250009E+03  0.7818608E-02  0.1235068E+00
         -4   -1    0    0    0  501 -0.00000000000E+00  0.00000000000E+00  0.30102743670E+02  0.30129521677E+02  0.12700000000E+01 0.  1.
          4   -1    0    0  501    0  0.00000000000E+00 -0.00000000000E+00 -0.12967825006E+03  0.12968446877E+03  0.12700000000E+01 0.  1.
         25    2    1    2    0    0  0.00000000000E+00  0.00000000000E+00 -0.99575506395E+02  0.15981399045E+03  0.12500092027E+03 0.  0.
    9000005    1    3    3    0    0  0.24043139679E+01  0.35177894627E+02 -0.11575207162E+03  0.12100746704E+03  0.10000000000E+01 0.  0.
    9000005    1    3    3    0    0 -0.24043139679E+01 -0.35177894627E+02  0.16176565226E+02  0.38806523402E+02  0.10000000000E+01 0.  0.
<mgrwt>
<rscale>  0 0.12500092E+03</rscale>
<asrwt>0</asrwt>
<pdfrwt beam="2">  1        4 0.19953038E-01 0.12500092E+03</pdfrwt>
<pdfrwt beam="1">  1       -4 0.46337296E-02 0.12500092E+03</pdfrwt>
<totfact> 0.97376644E+03</totfact>
</mgrwt>
</event>
<event>
 5    1  0.3317939E-002  0.1249943E+03  0.7818608E-02  0.1235078E+00
          4   -1    0    0  501    0  0.00000000000E+00  0.00000000000E+00  0.13138454235E+02  0.13199692409E+02  0.12700000000E+01 0.  1.
         -4   -1    0    0    0  501 -0.00000000000E+00 -0.00000000000E+00 -0.29653344506E+03  0.29653616464E+03  0.12700000000E+01 0.  1.
         25    2    1    2    0    0  0.00000000000E+00  0.00000000000E+00 -0.28339499083E+03  0.30973585705E+03  0.12499432114E+03 0.  0.
    9000005    1    3    3    0    0 -0.32190162795E+02 -0.35096349224E+02 -0.24195499972E+03  0.24659923398E+03  0.10000000000E+01 0.  0.
    9000005    1    3    3    0    0  0.32190162795E+02  0.35096349224E+02 -0.41439991103E+02  0.63136623067E+02  0.10000000000E+01 0.  0.
<mgrwt>
<rscale>  0 0.12499432E+03</rscale>
<asrwt>0</asrwt>
<pdfrwt beam="1">  1        4 0.20262207E-02 0.12499432E+03</pdfrwt>
<pdfrwt beam="2">  1       -4 0.45625445E-01 0.12499432E+03</pdfrwt>
<totfact> 0.74402973E+03</totfact>
</mgrwt>
</event>
<event>
 5    1  0.3317939E-002  0.1250029E+03  0.7818608E-02  0.1235065E+00
          4   -1    0    0  501    0  0.00000000000E+00  0.00000000000E+00  0.48451607491E+02  0.48468249076E+02  0.12700000000E+01 0. -1.
         -4   -1    0    0    0  501 -0.00000000000E+00 -0.00000000000E+00 -0.80589971164E+02  0.80599977372E+02  0.12700000000E+01 0. -1.
         25    2    1    2    0    0  0.00000000000E+00  0.00000000000E+00 -0.32138363673E+02  0.12906822645E+03  0.12500293060E+03 0.  0.
    9000005    1    3    3    0    0 -0.54629977358E+02 -0.30326664480E+02 -0.14895481312E+02  0.64241858380E+02  0.10000000000E+01 0.  0.
    9000005    1    3    3    0    0  0.54629977358E+02  0.30326664480E+02 -0.17242882361E+02  0.64826368067E+02  0.10000000000E+01 0.  0.
<mgrwt>
<rscale>  0 0.12500293E+03</rscale>
<asrwt>0</asrwt>
<pdfrwt beam="1">  1        4 0.74561433E-02 0.12500293E+03</pdfrwt>
<pdfrwt beam="2">  1       -4 0.12400507E-01 0.12500293E+03</pdfrwt>
<totfact> 0.10363795E+04</totfact>
</mgrwt>
</event>
<event>
 5    1  0.3317939E-002  0.1250018E+03  0.7818608E-02  0.1235067E+00
         -4   -1    0    0    0  501 -0.00000000000E+00  0.00000000000E+00  0.13343157084E+04  0.13343163128E+04  0.12700000000E+01 0. -1.
          4   -1    0    0  501    0  0.00000000000E+00 -0.00000000000E+00 -0.27892483422E+01  0.30647685580E+01  0.12700000000E+01 0. -1.
         25    2    1    2    0    0  0.00000000000E+00  0.00000000000E+00  0.13315264601E+04  0.13373810814E+04  0.12500177166E+03 0.  0.
    9000005    1    3    3    0    0 -0.48481052981E+02  0.36024034987E+02  0.49417442285E+03  0.49785289373E+03  0.10000000000E+01 0.  0.
    9000005    1    3    3    0    0  0.48481052981E+02 -0.36024034987E+02  0.83735203725E+03  0.83952818766E+03  0.10000000000E+01 0.  0.
<mgrwt>
<rscale>  0 0.12500177E+03</rscale>
<asrwt>0</asrwt>
<pdfrwt beam="2">  1        4 0.45035439E-03 0.12500177E+03</pdfrwt>
<pdfrwt beam="1">  1       -4 0.20530108E+00 0.12500177E+03</pdfrwt>
<totfact> 0.21362171E+03</totfact>
</mgrwt>
</event>
<event>
 5    1  0.3317939E-002  0.1250058E+03  0.7818608E-02  0.1235060E+00
         -4   -1    0    0    0  501 -0.00000000000E+00  0.00000000000E+00  0.12688668546E+03  0.12689304097E+03  0.12700000000E+01 0.  1.
          4   -1    0    0  501    0  0.00000000000E+00 -0.00000000000E+00 -0.30767952542E+02  0.30794152101E+02  0.12700000000E+01 0.  1.
         25    2    1    2    0    0  0.00000000000E+00  0.00000000000E+00  0.96118732920E+02  0.15768719308E+03  0.12500576003E+03 0.  0.
    9000005    1    3    3    0    0 -0.26537434682E+02  0.76744814907E+01  0.11877288461E+03  0.12194724771E+03  0.10000000000E+01 0.  0.
    9000005    1    3    3    0    0  0.26537434682E+02 -0.76744814907E+01 -0.22654151692E+02  0.35739945362E+02  0.10000000000E+01 0.  0.
<mgrwt>
<rscale>  0 0.12500576E+03</rscale>
<asrwt>0</asrwt>
<pdfrwt beam="2">  1        4 0.47360353E-02 0.12500576E+03</pdfrwt>
<pdfrwt beam="1">  1       -4 0.19523533E-01 0.12500576E+03</pdfrwt>
<totfact> 0.97777874E+03</totfact>
</mgrwt>
</event>
<event>
 5    1  0.3317939E-002  0.1249981E+03  0.7818608E-02  0.1235072E+00
         -4   -1    0    0    0  501 -0.00000000000E+00  0.00000000000E+00  0.23355337533E+03  0.23355682827E+03  0.12700000000E+01 0.  1.
          4   -1    0    0  501    0  0.00000000000E+00 -0.00000000000E+00 -0.16697104596E+02  0.16745333735E+02  0.12700000000E+01 0.  1.
         25    2    1    2    0    0  0.00000000000E+00  0.00000000000E+00  0.21685627074E+03  0.25030216200E+03  0.12499812056E+03 0.  0.
    9000005    1    3    3    0    0 -0.42506386242E+02 -0.36864691713E+02  0.16287608211E+03  0.17232358077E+03  0.10000000000E+01 0.  0.
    9000005    1    3    3    0    0  0.42506386242E+02  0.36864691713E+02  0.53980188630E+02  0.77978581231E+02  0.10000000000E+01 0.  0.
<mgrwt>
<rscale>  0 0.12499812E+03</rscale>
<asrwt>0</asrwt>
<pdfrwt beam="2">  1        4 0.25727611E-02 0.12499812E+03</pdfrwt>
<pdfrwt beam="1">  1       -4 0.35935260E-01 0.12499812E+03</pdfrwt>
<totfact> 0.82290023E+03</totfact>
</mgrwt>
</event>
<event>
 5    1  0.3317939E-002  0.1249878E+03  0.7818608E-02  0.1235088E+00
          4   -1    0    0  501    0  0.00000000000E+00  0.00000000000E+00  0.20617702925E+02  0.20656780338E+02  0.12700000000E+01 0. -1.
         -4   -1    0    0    0  501 -0.00000000000E+00 -0.00000000000E+00 -0.18920341894E+03  0.18920768124E+03  0.12700000000E+01 0. -1.
         25    2    1    2    0    0  0.00000000000E+00  0.00000000000E+00 -0.16858571602E+03  0.20986446157E+03  0.12498779375E+03 0.  0.
    9000005    1    3    3    0    0 -0.74551137678E+01 -0.47689484263E+02 -0.15092125889E+03  0.15845533130E+03  0.10000000000E+01 0.  0.
    9000005    1    3    3    0    0  0.74551137678E+01  0.47689484263E+02 -0.17664457125E+02  0.51409130280E+02  0.10000000000E+01 0.  0.
<mgrwt>
<rscale>  0 0.12498779E+03</rscale>
<asrwt>0</asrwt>
<pdfrwt beam="1">  1        4 0.31752882E-02 0.12498779E+03</pdfrwt>
<pdfrwt beam="2">  1       -4 0.29111551E-01 0.12498779E+03</pdfrwt>
<totfact> 0.88522176E+03</totfact>
</mgrwt>
</event>
<event>
 5    1  0.3317939E-002  0.1249969E+03  0.7818608E-02  0.1235074E+00
          4   -1    0    0  501    0  0.00000000000E+00  0.00000000000E+00  0.36966698985E+03  0.36966917140E+03  0.12700000000E+01 0.  1.
         -4   -1    0    0    0  501 -0.00000000000E+00 -0.00000000000E+00 -0.10526036741E+02  0.10602374710E+02  0.12700000000E+01 0.  1.
         25    2    1    2    0    0  0.00000000000E+00  0.00000000000E+00  0.35914095311E+03  0.38027154611E+03  0.12499689829E+03 0.  0.
    9000005    1    3    3    0    0 -0.56022419432E+02  0.24307080056E+02  0.21989725070E+03  0.22822170468E+03  0.10000000000E+01 0.  0.
    9000005    1    3    3    0    0  0.56022419432E+02 -0.24307080056E+02  0.13924370240E+03  0.15204984143E+03  0.10000000000E+01 0.  0.
<mgrwt>
<rscale>  0 0.12499690E+03</rscale>
<asrwt>0</asrwt>
<pdfrwt beam="1">  1        4 0.56877869E-01 0.12499690E+03</pdfrwt>
<pdfrwt beam="2">  1       -4 0.16254307E-02 0.12499690E+03</pdfrwt>
<totfact> 0.66522425E+03</totfact>
</mgrwt>
</event>
<event>
 5    1  0.3317939E-002  0.1250002E+03  0.7818608E-02  0.1235069E+00
          4   -1    0    0  501    0  0.00000000000E+00  0.00000000000E+00  0.96106969859E+01  0.96942455381E+01  0.12700000000E+01 0.  1.
         -4   -1    0    0    0  501 -0.00000000000E+00 -0.00000000000E+00 -0.40460554811E+03  0.40460754128E+03  0.12700000000E+01 0.  1.
         25    2    1    2    0    0  0.00000000000E+00  0.00000000000E+00 -0.39499485112E+03  0.41430178682E+03  0.12500015259E+03 0.  0.
    9000005    1    3    3    0    0  0.61300224161E+02 -0.11916914029E+02 -0.18970382788E+03  0.19972048626E+03  0.10000000000E+01 0.  0.
    9000005    1    3    3    0    0 -0.61300224161E+02  0.11916914029E+02 -0.20529102324E+03  0.21458130055E+03  0.10000000000E+01 0.  0.
<mgrwt>
<rscale>  0 0.12500015E+03</rscale>
<asrwt>0</asrwt>
<pdfrwt beam="1">  1        4 0.14851492E-02 0.12500015E+03</pdfrwt>
<pdfrwt beam="2">  1       -4 0.62253575E-01 0.12500015E+03</pdfrwt>
<totfact> 0.63184977E+03</totfact>
</mgrwt>
</event>
<event>
 5    1  0.3317939E-002  0.1249981E+03  0.7818608E-02  0.1235072E+00
          4   -1    0    0  501    0  0.00000000000E+00  0.00000000000E+00  0.79258352532E+02  0.79268526832E+02  0.12700000000E+01 0.  1.
         -4   -1    0    0    0  501 -0.00000000000E+00 -0.00000000000E+00 -0.49261980269E+02  0.49278348187E+02  0.12700000000E+01 0.  1.
         25    2    1    2    0    0  0.00000000000E+00  0.00000000000E+00  0.29996372263E+02  0.12854687502E+03  0.12499806690E+03 0.  0.
    9000005    1    3    3    0    0  0.61443566837E+02  0.70113091719E+01  0.24234191125E+02  0.66428656327E+02  0.10000000000E+01 0.  0.
    9000005    1    3    3    0    0 -0.61443566837E+02 -0.70113091719E+01  0.57621811380E+01  0.62118218692E+02  0.10000000000E+01 0.  0.
<mgrwt>
<rscale>  0 0.12499807E+03</rscale>
<asrwt>0</asrwt>
<pdfrwt beam="1">  1        4 0.12195634E-01 0.12499807E+03</pdfrwt>
<pdfrwt beam="2">  1       -4 0.75808080E-02 0.12499807E+03</pdfrwt>
<totfact> 0.10376147E+04</totfact>
</mgrwt>
</event>
<event>
 5    1  0.3317939E-002  0.1249985E+03  0.7818608E-02  0.1235072E+00
          4   -1    0    0  501    0  0.00000000000E+00  0.00000000000E+00  0.10905188812E+03  0.10905928297E+03  0.12700000000E+01 0. -1.
         -4   -1    0    0    0  501 -0.00000000000E+00 -0.00000000000E+00 -0.35799380992E+02  0.35821900834E+02  0.12700000000E+01 0. -1.
         25    2    1    2    0    0  0.00000000000E+00  0.00000000000E+00  0.73252507126E+02  0.14488118381E+03  0.12499851047E+03 0.  0.
    9000005    1    3    3    0    0 -0.16712595556E+02 -0.51809324051E+01  0.10616042954E+03  0.10759734993E+03  0.10000000000E+01 0.  0.
    9000005    1    3    3    0    0  0.16712595556E+02  0.51809324051E+01 -0.32907922417E+02  0.37283833877E+02  0.10000000000E+01 0.  0.
<mgrwt>
<rscale>  0 0.12499851E+03</rscale>
<asrwt>0</asrwt>
<pdfrwt beam="1">  1        4 0.16779515E-01 0.12499851E+03</pdfrwt>
<pdfrwt beam="2">  1       -4 0.55098982E-02 0.12499851E+03</pdfrwt>
<totfact> 0.10033740E+04</totfact>
</mgrwt>
</event>
<event>
 5    1  0.3317939E-002  0.1249969E+03  0.7818608E-02  0.1235074E+00
         -4   -1    0    0    0  501 -0.00000000000E+00  0.00000000000E+00  0.71667419204E+02  0.71678670993E+02  0.12700000000E+01 0. -1.
          4   -1    0    0  501    0  0.00000000000E+00 -0.00000000000E+00 -0.54479596784E+02  0.54494397562E+02  0.12700000000E+01 0. -1.
         25    2    1    2    0    0  0.00000000000E+00  0.00000000000E+00  0.17187822420E+02  0.12617306856E+03  0.12499688792E+03 0.  0.
    9000005    1    3    3    0    0 -0.35737999443E+02 -0.35488592243E+02  0.45934030221E+02  0.68173161258E+02  0.10000000000E+01 0.  0.
    9000005    1    3    3    0    0  0.35737999443E+02  0.35488592243E+02 -0.28746207801E+02  0.57999907297E+02  0.10000000000E+01 0.  0.
<mgrwt>
<rscale>  0 0.12499689E+03</rscale>
<asrwt>0</asrwt>
<pdfrwt beam="2">  1        4 0.83834805E-02 0.12499689E+03</pdfrwt>
<pdfrwt beam="1">  1       -4 0.11027761E-01 0.12499689E+03</pdfrwt>
<totfact> 0.10427900E+04</totfact>
</mgrwt>
</event>
<event>
 5    1  0.3317939E-002  0.1250031E+03  0.7818608E-02  0.1235064E+00
          4   -1    0    0  501    0  0.00000000000E+00  0.00000000000E+00  0.10812025267E+02  0.10886357995E+02  0.12700000000E+01 0.  1.
         -4   -1    0    0    0  501 -0.00000000000E+00 -0.00000000000E+00 -0.35999219445E+03  0.35999443463E+03  0.12700000000E+01 0.  1.
         25    2    1    2    0    0  0.00000000000E+00  0.00000000000E+00 -0.34918016918E+03  0.37088079262E+03  0.12500308711E+03 0.  0.
    9000005    1    3    3    0    0 -0.21512309977E+02 -0.52003646144E+02 -0.93973312146E+02  0.10954059562E+03  0.10000000000E+01 0.  0.
    9000005    1    3    3    0    0  0.21512309977E+02  0.52003646144E+02 -0.25520685703E+03  0.26134019700E+03  0.10000000000E+01 0.  0.
<mgrwt>
<rscale>  0 0.12500309E+03</rscale>
<asrwt>0</asrwt>
<pdfrwt beam="1">  1        4 0.16692790E-02 0.12500309E+03</pdfrwt>
<pdfrwt beam="2">  1       -4 0.55389296E-01 0.12500309E+03</pdfrwt>
<totfact> 0.67482289E+03</totfact>
</mgrwt>
</event>
<event>
 5    1  0.3317939E-002  0.1250064E+03  0.7818608E-02  0.1235059E+00
         -4   -1    0    0    0  501 -0.00000000000E+00  0.00000000000E+00  0.33096094185E+03  0.33096337853E+03  0.12700000000E+01 0.  1.
          4   -1    0    0  501    0  0.00000000000E+00 -0.00000000000E+00 -0.11767318098E+02  0.11835652717E+02  0.12700000000E+01 0.  1.
         25    2    1    2    0    0  0.00000000000E+00  0.00000000000E+00  0.31919362375E+03  0.34279903125E+03  0.12500642536E+03 0.  0.
    9000005    1    3    3    0    0 -0.20973562411E+02  0.56054521868E+01 -0.11080089867E+01  0.21760953525E+02  0.10000000000E+01 0.  0.
    9000005    1    3    3    0    0  0.20973562411E+02 -0.56054521868E+01  0.32030163274E+03  0.32103807772E+03  0.10000000000E+01 0.  0.
<mgrwt>
<rscale>  0 0.12500643E+03</rscale>
<asrwt>0</asrwt>
<pdfrwt beam="2">  1        4 0.18158005E-02 0.12500643E+03</pdfrwt>
<pdfrwt beam="1">  1       -4 0.50922513E-01 0.12500643E+03</pdfrwt>
<totfact> 0.70514050E+03</totfact>
</mgrwt>
</event>
<event>
 5    1  0.3317939E-002  0.1250003E+03  0.7818608E-02  0.1235069E+00
         -4   -1    0    0    0  501 -0.00000000000E+00  0.00000000000E+00  0.31017223754E+02  0.31043212937E+02  0.12700000000E+01 0.  1.
          4   -1    0    0  501    0  0.00000000000E+00 -0.00000000000E+00 -0.12585683073E+03  0.12586323825E+03  0.12700000000E+01 0.  1.
         25    2    1    2    0    0  0.00000000000E+00  0.00000000000E+00 -0.94839606978E+02  0.15690645118E+03  0.12500033348E+03 0.  0.
    9000005    1    3    3    0    0 -0.41378039655E+02  0.35863132345E+02 -0.96169352780E+01  0.55603883600E+02  0.10000000000E+01 0.  0.
    9000005    1    3    3    0    0  0.41378039655E+02 -0.35863132345E+02 -0.85222671700E+02  0.10130256758E+03  0.10000000000E+01 0.  0.
<mgrwt>
<rscale>  0 0.12500033E+03</rscale>
<asrwt>0</asrwt>
<pdfrwt beam="2">  1        4 0.19365081E-01 0.12500033E+03</pdfrwt>
<pdfrwt beam="1">  1       -4 0.47743727E-02 0.12500033E+03</pdfrwt>
<totfact> 0.97941799E+03</totfact>
</mgrwt>
</event>
<event>
 5    1  0.3317939E-002  0.1250017E+03  0.7818608E-02  0.1235067E+00
         -4   -1    0    0    0  501 -0.00000000000E+00  0.00000000000E+00  0.37950848200E+02  0.37972092109E+02  0.12700000000E+01 0.  1.
          4   -1    0    0  501    0  0.00000000000E+00 -0.00000000000E+00 -0.10287803938E+03  0.10288587797E+03  0.12700000000E+01 0.  1.
         25    2    1    2    0    0  0.00000000000E+00  0.00000000000E+00 -0.64927191175E+02  0.14085797008E+03  0.12500171031E+03 0.  0.
    9000005    1    3    3    0    0  0.56825365856E+02  0.13097313060E+02 -0.57778716512E+02  0.82097758166E+02  0.10000000000E+01 0.  0.
    9000005    1    3    3    0    0 -0.56825365856E+02 -0.13097313060E+02 -0.71484746633E+01  0.58760211913E+02  0.10000000000E+01 0.  0.
<mgrwt>
<rscale>  0 0.12500171E+03</rscale>
<asrwt>0</asrwt>
<pdfrwt beam="2">  1        4 0.15829628E-01 0.12500171E+03</pdfrwt>
<pdfrwt beam="1">  1       -4 0.58408292E-02 0.12500171E+03</pdfrwt>
<totfact> 0.10115445E+04</totfact>
</mgrwt>
</event>
<event>
 5    1  0.3317939E-002  0.1250053E+03  0.7818608E-02  0.1235061E+00
         -4   -1    0    0    0  501 -0.00000000000E+00  0.00000000000E+00  0.33644495841E+02  0.33668457054E+02  0.12700000000E+01 0. -1.
          4   -1    0    0  501    0  0.00000000000E+00 -0.00000000000E+00 -0.11604476539E+03  0.11605171465E+03  0.12700000000E+01 0. -1.
         25    2    1    2    0    0  0.00000000000E+00  0.00000000000E+00 -0.82400269547E+02  0.14972017171E+03  0.12500530147E+03 0.  0.
    9000005    1    3    3    0    0 -0.33177112595E+02 -0.18767491226E+02 -0.10051573773E+03  0.10750513038E+03  0.10000000000E+01 0.  0.
    9000005    1    3    3    0    0  0.33177112595E+02  0.18767491226E+02  0.18115468179E+02  0.42215041329E+02  0.10000000000E+01 0.  0.
<mgrwt>
<rscale>  0 0.12500530E+03</rscale>
<asrwt>0</asrwt>
<pdfrwt beam="2">  1        4 0.17855418E-01 0.12500530E+03</pdfrwt>
<pdfrwt beam="1">  1       -4 0.51784541E-02 0.12500530E+03</pdfrwt>
<totfact> 0.99347652E+03</totfact>
</mgrwt>
</event>
<event>
 5    1  0.3317939E-002  0.1250003E+03  0.7818608E-02  0.1235069E+00
         -4   -1    0    0    0  501 -0.00000000000E+00  0.00000000000E+00  0.70630235163E+02  0.70641652155E+02  0.12700000000E+01 0. -1.
          4   -1    0    0  501    0  0.00000000000E+00 -0.00000000000E+00 -0.55282678260E+02  0.55297264087E+02  0.12700000000E+01 0. -1.
         25    2    1    2    0    0  0.00000000000E+00  0.00000000000E+00  0.15347556903E+02  0.12593891624E+03  0.12500025249E+03 0.  0.
    9000005    1    3    3    0    0 -0.21973772687E+02  0.31960657207E+02 -0.41693513735E+02  0.56953308796E+02  0.10000000000E+01 0.  0.
    9000005    1    3    3    0    0  0.21973772687E+02 -0.31960657207E+02  0.57041070638E+02  0.68985607447E+02  0.10000000000E+01 0.  0.
<mgrwt>
<rscale>  0 0.12500025E+03</rscale>
<asrwt>0</asrwt>
<pdfrwt beam="2">  1        4 0.85070277E-02 0.12500025E+03</pdfrwt>
<pdfrwt beam="1">  1       -4 0.10868190E-01 0.12500025E+03</pdfrwt>
<totfact> 0.10432237E+04</totfact>
</mgrwt>
</event>
<event>
 5    1  0.3317939E-002  0.1250010E+03  0.7818608E-02  0.1235068E+00
          4   -1    0    0  501    0  0.00000000000E+00  0.00000000000E+00  0.57215881439E+01  0.58608421654E+01  0.12700000000E+01 0. -1.
         -4   -1    0    0    0  501 -0.00000000000E+00 -0.00000000000E+00 -0.67438407728E+03  0.67438527311E+03  0.12700000000E+01 0. -1.
         25    2    1    2    0    0  0.00000000000E+00  0.00000000000E+00 -0.66866248914E+03  0.68024611528E+03  0.12500101188E+03 0.  0.
    9000005    1    3    3    0    0 -0.12559525734E+02 -0.57268804552E+02 -0.45203991360E+03  0.45582731505E+03  0.10000000000E+01 0.  0.
    9000005    1    3    3    0    0  0.12559525734E+02  0.57268804552E+02 -0.21662257554E+03  0.22441880023E+03  0.10000000000E+01 0.  0.
<mgrwt>
<rscale>  0 0.12500101E+03</rscale>
<asrwt>0</asrwt>
<pdfrwt beam="1">  1        4 0.89104870E-03 0.12500101E+03</pdfrwt>
<pdfrwt beam="2">  1       -4 0.10376214E+00 0.12500101E+03</pdfrwt>
<totfact> 0.44149239E+03</totfact>
</mgrwt>
</event>
<event>
 5    1  0.3317939E-002  0.1250056E+03  0.7818608E-02  0.1235061E+00
          4   -1    0    0  501    0  0.00000000000E+00  0.00000000000E+00  0.25962780314E+02  0.25993823529E+02  0.12700000000E+01 0.  1.
         -4   -1    0    0    0  501 -0.00000000000E+00 -0.00000000000E+00 -0.15034557620E+03  0.15035094008E+03  0.12700000000E+01 0.  1.
         25    2    1    2    0    0  0.00000000000E+00  0.00000000000E+00 -0.12438279589E+03  0.17634476361E+03  0.12500558283E+03 0.  0.
    9000005    1    3    3    0    0  0.58221958934E+01 -0.59685335584E+02 -0.37379132308E+02  0.70671329271E+02  0.10000000000E+01 0.  0.
    9000005    1    3    3    0    0 -0.58221958934E+01  0.59685335584E+02 -0.87003663579E+02  0.10567343434E+03  0.10000000000E+01 0.  0.
<mgrwt>
<rscale>  0 0.12500558E+03</rscale>
<asrwt>0</asrwt>
<pdfrwt beam="1">  1        4 0.39970745E-02 0.12500558E+03</pdfrwt>
<pdfrwt beam="2">  1       -4 0.23132889E-01 0.12500558E+03</pdfrwt>
<totfact> 0.94267321E+03</totfact>
</mgrwt>
</event>
<event>
 5    1  0.3317939E-002  0.1249994E+03  0.7818608E-02  0.1235070E+00
          4   -1    0    0  501    0  0.00000000000E+00  0.00000000000E+00  0.63425317132E+02  0.63438030812E+02  0.12700000000E+01 0.  1.
         -4   -1    0    0    0  501 -0.00000000000E+00 -0.00000000000E+00 -0.61562135057E+02  0.61575233437E+02  0.12700000000E+01 0.  1.
         25    2    1    2    0    0  0.00000000000E+00  0.00000000000E+00  0.18631820753E+01  0.12501326425E+03  0.12499937916E+03 0.  0.
    9000005    1    3    3    0    0 -0.39935989585E+02  0.27611902825E+02  0.40279458359E+02  0.63093067824E+02  0.10000000000E+01 0.  0.
    9000005    1    3    3    0    0  0.39935989585E+02 -0.27611902825E+02 -0.38416276284E+02  0.61920196425E+02  0.10000000000E+01 0.  0.
<mgrwt>
<rscale>  0 0.12499938E+03</rscale>
<asrwt>0</asrwt>
<pdfrwt beam="1">  1        4 0.97597266E-02 0.12499938E+03</pdfrwt>
<pdfrwt beam="2">  1       -4 0.94730833E-02 0.12499938E+03</pdfrwt>
<totfact> 0.10452721E+04</totfact>
</mgrwt>
</event>
<event>
 5    1  0.3317939E-002  0.1250007E+03  0.7818608E-02  0.1235068E+00
          4   -1    0    0  501    0  0.00000000000E+00  0.00000000000E+00  0.25904622464E+03  0.25904933778E+03  0.12700000000E+01 0.  1.
         -4   -1    0    0    0  501 -0.00000000000E+00 -0.00000000000E+00 -0.15049576803E+02  0.15103067964E+02  0.12700000000E+01 0.  1.
         25    2    1    2    0    0  0.00000000000E+00  0.00000000000E+00  0.24399664784E+03  0.27415240574E+03  0.12500070966E+03 0.  0.
    9000005    1    3    3    0    0 -0.11507775453E+01  0.33501423682E+01 -0.14839969829E+02  0.15289618941E+02  0.10000000000E+01 0.  0.
    9000005    1    3    3    0    0  0.11507775453E+01 -0.33501423682E+01  0.25883661767E+03  0.25886278680E+03  0.10000000000E+01 0.  0.
<mgrwt>
<rscale>  0 0.12500071E+03</rscale>
<asrwt>0</asrwt>
<pdfrwt beam="1">  1        4 0.39857617E-01 0.12500071E+03</pdfrwt>
<pdfrwt beam="2">  1       -4 0.23196738E-02 0.12500071E+03</pdfrwt>
<totfact> 0.78958652E+03</totfact>
</mgrwt>
</event>
<event>
 5    1  0.3317939E-002  0.1249995E+03  0.7818608E-02  0.1235070E+00
          4   -1    0    0  501    0  0.00000000000E+00  0.00000000000E+00  0.10702851181E+02  0.10777936881E+02  0.12700000000E+01 0.  1.
         -4   -1    0    0    0  501 -0.00000000000E+00 -0.00000000000E+00 -0.36361821263E+03  0.36362043047E+03  0.12700000000E+01 0.  1.
         25    2    1    2    0    0  0.00000000000E+00  0.00000000000E+00 -0.35291536145E+03  0.37439836735E+03  0.12499954052E+03 0.  0.
    9000005    1    3    3    0    0 -0.50860779974E+02 -0.16638271893E+02 -0.27312280493E+03  0.27831765593E+03  0.10000000000E+01 0.  0.
    9000005    1    3    3    0    0  0.50860779974E+02  0.16638271893E+02 -0.79792556518E+02  0.96080711419E+02  0.10000000000E+01 0.  0.
<mgrwt>
<rscale>  0 0.12499954E+03</rscale>
<asrwt>0</asrwt>
<pdfrwt beam="1">  1        4 0.16525392E-02 0.12499954E+03</pdfrwt>
<pdfrwt beam="2">  1       -4 0.55947200E-01 0.12499954E+03</pdfrwt>
<totfact> 0.67121968E+03</totfact>
</mgrwt>
</event>
<event>
 5    1  0.3317939E-002  0.1249637E+03  0.7818608E-02  0.1235126E+00
          4   -1    0    0  501    0  0.00000000000E+00  0.00000000000E+00  0.25427582752E+03  0.25427899906E+03  0.12700000000E+01 0.  1.
         -4   -1    0    0    0  501 -0.00000000000E+00 -0.00000000000E+00 -0.15323800392E+02  0.15376337615E+02  0.12700000000E+01 0.  1.
         25    2    1    2    0    0  0.00000000000E+00  0.00000000000E+00  0.23895202713E+03  0.26965533667E+03  0.12496371204E+03 0.  0.
    9000005    1    3    3    0    0  0.38478224813E+02  0.48006521888E+02  0.14289484970E+03  0.15558000514E+03  0.10000000000E+01 0.  0.
    9000005    1    3    3    0    0 -0.38478224813E+02 -0.48006521888E+02  0.96057177429E+02  0.11407533153E+03  0.10000000000E+01 0.  0.
<mgrwt>
<rscale>  0 0.12496371E+03</rscale>
<asrwt>0</asrwt>
<pdfrwt beam="1">  1        4 0.39123642E-01 0.12496371E+03</pdfrwt>
<pdfrwt beam="2">  1       -4 0.23617931E-02 0.12496371E+03</pdfrwt>
<totfact> 0.79634143E+03</totfact>
</mgrwt>
</event>
<event>
 5    1  0.3317939E-002  0.1249986E+03  0.7818608E-02  0.1235071E+00
          4   -1    0    0  501    0  0.00000000000E+00  0.00000000000E+00  0.17858293163E+02  0.17903394502E+02  0.12700000000E+01 0. -1.
         -4   -1    0    0    0  501 -0.00000000000E+00 -0.00000000000E+00 -0.21840816381E+03  0.21841185618E+03  0.12700000000E+01 0. -1.
         25    2    1    2    0    0  0.00000000000E+00  0.00000000000E+00 -0.20054987065E+03  0.23631525068E+03  0.12499858834E+03 0.  0.
    9000005    1    3    3    0    0 -0.38890669994E+01  0.86446813110E+01  0.16500461792E+02  0.19055723457E+02  0.10000000000E+01 0.  0.
    9000005    1    3    3    0    0  0.38890669994E+01 -0.86446813110E+01 -0.21705033244E+03  0.21725952723E+03  0.10000000000E+01 0.  0.
<mgrwt>
<rscale>  0 0.12499859E+03</rscale>
<asrwt>0</asrwt>
<pdfrwt beam="1">  1        4 0.27511832E-02 0.12499859E+03</pdfrwt>
<pdfrwt beam="2">  1       -4 0.33605008E-01 0.12499859E+03</pdfrwt>
<totfact> 0.84351880E+03</totfact>
</mgrwt>
</event>
<event>
 5    1  0.3317939E-002  0.1249960E+03  0.7818608E-02  0.1235076E+00
         -4   -1    0    0    0  501 -0.00000000000E+00  0.00000000000E+00  0.68204719727E+02  0.68216542664E+02  0.12700000000E+01 0. -1.
          4   -1    0    0  501    0  0.00000000000E+00 -0.00000000000E+00 -0.57244892761E+02  0.57258978748E+02  0.12700000000E+01 0. -1.
         25    2    1    2    0    0  0.00000000000E+00  0.00000000000E+00  0.10959826965E+02  0.12547552141E+03  0.12499595460E+03 0.  0.
    9000005    1    3    3    0    0  0.43952228001E+02 -0.25137887964E+02  0.42243989171E+02  0.65948967988E+02  0.10000000000E+01 0.  0.
    9000005    1    3    3    0    0 -0.43952228001E+02  0.25137887964E+02 -0.31284162206E+02  0.59526553423E+02  0.10000000000E+01 0.  0.
<mgrwt>
<rscale>  0 0.12499595E+03</rscale>
<asrwt>0</asrwt>
<pdfrwt beam="2">  1        4 0.88088996E-02 0.12499595E+03</pdfrwt>
<pdfrwt beam="1">  1       -4 0.10495027E-01 0.12499595E+03</pdfrwt>
<totfact> 0.10443448E+04</totfact>
</mgrwt>
</event>
<event>
 5    1  0.3317939E-002  0.1249989E+03  0.7818608E-02  0.1235071E+00
         -4   -1    0    0    0  501 -0.00000000000E+00  0.00000000000E+00  0.61630908346E+03  0.61631039198E+03  0.12700000000E+01 0.  1.
          4   -1    0    0  501    0  0.00000000000E+00 -0.00000000000E+00 -0.62730794298E+01  0.64003457354E+01  0.12700000000E+01 0.  1.
         25    2    1    2    0    0  0.00000000000E+00  0.00000000000E+00  0.61003600403E+03  0.62271073771E+03  0.12499894658E+03 0.  0.
    9000005    1    3    3    0    0  0.25687052637E+01 -0.12567525204E+02  0.33154864991E+00  0.12870542374E+02  0.10000000000E+01 0.  0.
    9000005    1    3    3    0    0 -0.25687052637E+01  0.12567525204E+02  0.60970445538E+03  0.60984019534E+03  0.10000000000E+01 0.  0.
<mgrwt>
<rscale>  0 0.12499895E+03</rscale>
<asrwt>0</asrwt>
<pdfrwt beam="2">  1        4 0.97497973E-03 0.12499895E+03</pdfrwt>
<pdfrwt beam="1">  1       -4 0.94826652E-01 0.12499895E+03</pdfrwt>
<totfact> 0.47465825E+03</totfact>
</mgrwt>
</event>
<event>
 5    1  0.3317939E-002  0.1249940E+03  0.7818608E-02  0.1235079E+00
         -4   -1    0    0    0  501 -0.00000000000E+00  0.00000000000E+00  0.57021687746E+02  0.57035828857E+02  0.12700000000E+01 0. -1.
          4   -1    0    0  501    0  0.00000000000E+00 -0.00000000000E+00 -0.68469523030E+02  0.68481300251E+02  0.12700000000E+01 0. -1.
         25    2    1    2    0    0  0.00000000000E+00  0.00000000000E+00 -0.11447835284E+02  0.12551712911E+03  0.12499398692E+03 0.  0.
    9000005    1    3    3    0    0 -0.17938743284E+02  0.59850473094E+02 -0.47214652906E+01  0.62667135524E+02  0.10000000000E+01 0.  0.
    9000005    1    3    3    0    0  0.17938743284E+02 -0.59850473094E+02 -0.67263699938E+01  0.62849993584E+02  0.10000000000E+01 0.  0.
<mgrwt>
<rscale>  0 0.12499399E+03</rscale>
<asrwt>0</asrwt>
<pdfrwt beam="2">  1        4 0.10535766E-01 0.12499399E+03</pdfrwt>
<pdfrwt beam="1">  1       -4 0.87745611E-02 0.12499399E+03</pdfrwt>
<totfact> 0.10442992E+04</totfact>
</mgrwt>
</event>
<event>
 5    1  0.3317939E-002  0.1250001E+03  0.7818608E-02  0.1235069E+00
         -4   -1    0    0    0  501 -0.00000000000E+00  0.00000000000E+00  0.29289514977E+02  0.29317035791E+02  0.12700000000E+01 0.  1.
          4   -1    0    0  501    0  0.00000000000E+00 -0.00000000000E+00 -0.13327392180E+03  0.13327997273E+03  0.12700000000E+01 0.  1.
         25    2    1    2    0    0  0.00000000000E+00  0.00000000000E+00 -0.10398440682E+03  0.16259700852E+03  0.12500012128E+03 0.  0.
    9000005    1    3    3    0    0  0.61247551535E+02  0.92406175513E+01 -0.41218049877E+02  0.74408193214E+02  0.10000000000E+01 0.  0.
    9000005    1    3    3    0    0 -0.61247551535E+02 -0.92406175513E+01 -0.62766356945E+02  0.88188815310E+02  0.10000000000E+01 0.  0.
<mgrwt>
<rscale>  0 0.12500012E+03</rscale>
<asrwt>0</asrwt>
<pdfrwt beam="2">  1        4 0.20506262E-01 0.12500012E+03</pdfrwt>
<pdfrwt beam="1">  1       -4 0.45086617E-02 0.12500012E+03</pdfrwt>
<totfact> 0.96844162E+03</totfact>
</mgrwt>
</event>
<event>
 5    1  0.3317939E-002  0.1250007E+03  0.7818608E-02  0.1235068E+00
         -4   -1    0    0    0  501 -0.00000000000E+00  0.00000000000E+00  0.20715197109E+03  0.20715586409E+03  0.12700000000E+01 0.  1.
          4   -1    0    0  501    0  0.00000000000E+00 -0.00000000000E+00 -0.18831674469E+02  0.18874450013E+02  0.12700000000E+01 0.  1.
         25    2    1    2    0    0  0.00000000000E+00  0.00000000000E+00  0.18832029662E+03  0.22603031411E+03  0.12500067509E+03 0.  0.
    9000005    1    3    3    0    0 -0.14060091885E+02 -0.48553063737E+02  0.16060393092E+03  0.16837371769E+03  0.10000000000E+01 0.  0.
    9000005    1    3    3    0    0  0.14060091885E+02  0.48553063737E+02  0.27716365700E+02  0.57656596411E+02  0.10000000000E+01 0.  0.
<mgrwt>
<rscale>  0 0.12500068E+03</rscale>
<asrwt>0</asrwt>
<pdfrwt beam="2">  1        4 0.29007705E-02 0.12500068E+03</pdfrwt>
<pdfrwt beam="1">  1       -4 0.31873124E-01 0.12500068E+03</pdfrwt>
<totfact> 0.85921601E+03</totfact>
</mgrwt>
</event>
<event>
 5    1  0.3317939E-002  0.1250062E+03  0.7818608E-02  0.1235060E+00
          4   -1    0    0  501    0  0.00000000000E+00  0.00000000000E+00  0.68443342563E+02  0.68455124287E+02  0.12700000000E+01 0. -1.
         -4   -1    0    0    0  501 -0.00000000000E+00 -0.00000000000E+00 -0.57054661354E+02  0.57068794295E+02  0.12700000000E+01 0. -1.
         25    2    1    2    0    0  0.00000000000E+00  0.00000000000E+00  0.11388681209E+02  0.12552391858E+03  0.12500620815E+03 0.  0.
    9000005    1    3    3    0    0 -0.15162706719E+02 -0.60226939345E+02  0.12683491429E+02  0.63396079159E+02  0.10000000000E+01 0.  0.
    9000005    1    3    3    0    0  0.15162706719E+02  0.60226939345E+02 -0.12948102205E+01  0.62127839423E+02  0.10000000000E+01 0.  0.
<mgrwt>
<rscale>  0 0.12500621E+03</rscale>
<asrwt>0</asrwt>
<pdfrwt beam="1">  1        4 0.10531738E-01 0.12500621E+03</pdfrwt>
<pdfrwt beam="2">  1       -4 0.87796337E-02 0.12500621E+03</pdfrwt>
<totfact> 0.10439964E+04</totfact>
</mgrwt>
</event>
<event>
 5    1  0.3317939E-002  0.1249961E+03  0.7818608E-02  0.1235075E+00
         -4   -1    0    0    0  501 -0.00000000000E+00  0.00000000000E+00  0.70656367050E+02  0.70667779820E+02  0.12700000000E+01 0. -1.
          4   -1    0    0  501    0  0.00000000000E+00 -0.00000000000E+00 -0.55258546558E+02  0.55273138754E+02  0.12700000000E+01 0. -1.
         25    2    1    2    0    0  0.00000000000E+00  0.00000000000E+00  0.15397820492E+02  0.12594091857E+03  0.12499608832E+03 0.  0.
    9000005    1    3    3    0    0 -0.24622671954E+02  0.55306542340E+02  0.23305210984E+02  0.64878520782E+02  0.10000000000E+01 0.  0.
    9000005    1    3    3    0    0  0.24622671954E+02 -0.55306542340E+02 -0.79073904927E+01  0.61062397793E+02  0.10000000000E+01 0.  0.
<mgrwt>
<rscale>  0 0.12499609E+03</rscale>
<asrwt>0</asrwt>
<pdfrwt beam="2">  1        4 0.85033153E-02 0.12499609E+03</pdfrwt>
<pdfrwt beam="1">  1       -4 0.10872211E-01 0.12499609E+03</pdfrwt>
<totfact> 0.10433173E+04</totfact>
</mgrwt>
</event>
<event>
 5    1  0.3317939E-002  0.1249996E+03  0.7818608E-02  0.1235070E+00
          4   -1    0    0  501    0  0.00000000000E+00  0.00000000000E+00  0.21111184476E+01  0.24636803973E+01  0.12700000000E+01 0.  1.
         -4   -1    0    0    0  501 -0.00000000000E+00 -0.00000000000E+00 -0.17073612819E+04  0.17073617542E+04  0.12700000000E+01 0.  1.
         25    2    1    2    0    0  0.00000000000E+00  0.00000000000E+00 -0.17052501635E+04  0.17098254346E+04  0.12499958787E+03 0.  0.
    9000005    1    3    3    0    0 -0.60157123219E+02 -0.16463979735E+02 -0.90609817023E+03  0.90824271877E+03  0.10000000000E+01 0.  0.
    9000005    1    3    3    0    0  0.60157123219E+02  0.16463979735E+02 -0.79915199323E+03  0.80158271587E+03  0.10000000000E+01 0.  0.
<mgrwt>
<rscale>  0 0.12499959E+03</rscale>
<asrwt>0</asrwt>
<pdfrwt beam="1">  1        4 0.35194530E-03 0.12499959E+03</pdfrwt>
<pdfrwt beam="2">  1       -4 0.26269710E+00 0.12499959E+03</pdfrwt>
<totfact> 0.14144879E+03</totfact>
</mgrwt>
</event>
<event>
 5    1  0.3317939E-002  0.1250028E+03  0.7818608E-02  0.1235065E+00
          4   -1    0    0  501    0  0.00000000000E+00  0.00000000000E+00  0.24849079117E+02  0.24881511870E+02  0.12700000000E+01 0. -1.
         -4   -1    0    0    0  501 -0.00000000000E+00 -0.00000000000E+00 -0.15706857287E+03  0.15707370716E+03  0.12700000000E+01 0. -1.
         25    2    1    2    0    0  0.00000000000E+00  0.00000000000E+00 -0.13221949375E+03  0.18195521903E+03  0.12500282879E+03 0.  0.
    9000005    1    3    3    0    0  0.48600521233E+02  0.35374395869E+02 -0.90986108037E+02  0.10905425440E+03  0.10000000000E+01 0.  0.
    9000005    1    3    3    0    0 -0.48600521233E+02 -0.35374395869E+02 -0.41233385712E+02  0.72900964634E+02  0.10000000000E+01 0.  0.
<mgrwt>
<rscale>  0 0.12500283E+03</rscale>
<asrwt>0</asrwt>
<pdfrwt beam="1">  1        4 0.38258251E-02 0.12500283E+03</pdfrwt>
<pdfrwt beam="2">  1       -4 0.24167285E-01 0.12500283E+03</pdfrwt>
<totfact> 0.93260323E+03</totfact>
</mgrwt>
</event>
<event>
 5    1  0.3317939E-002  0.1250082E+03  0.7818608E-02  0.1235057E+00
          4   -1    0    0  501    0  0.00000000000E+00  0.00000000000E+00  0.24827733780E+02  0.24860194381E+02  0.12700000000E+01 0.  1.
         -4   -1    0    0    0  501 -0.00000000000E+00 -0.00000000000E+00 -0.15721686420E+03  0.15722199365E+03  0.12700000000E+01 0.  1.
         25    2    1    2    0    0  0.00000000000E+00  0.00000000000E+00 -0.13238913042E+03  0.18208218803E+03  0.12500816512E+03 0.  0.
    9000005    1    3    3    0    0  0.12412518385E+02 -0.30823405419E+02 -0.14329072055E+03  0.14709651094E+03  0.10000000000E+01 0.  0.
    9000005    1    3    3    0    0 -0.12412518385E+02  0.30823405419E+02  0.10901590135E+02  0.34985677094E+02  0.10000000000E+01 0.  0.
<mgrwt>
<rscale>  0 0.12500817E+03</rscale>
<asrwt>0</asrwt>
<pdfrwt beam="1">  1        4 0.38225430E-02 0.12500817E+03</pdfrwt>
<pdfrwt beam="2">  1       -4 0.24190101E-01 0.12500817E+03</pdfrwt>
<totfact> 0.93226475E+03</totfact>
</mgrwt>
</event>
<event>
 5    1  0.3317939E-002  0.1249965E+03  0.7818608E-02  0.1235075E+00
         -4   -1    0    0    0  501 -0.00000000000E+00  0.00000000000E+00  0.51617592978E+03  0.51617749213E+03  0.12700000000E+01 0.  1.
          4   -1    0    0  501    0  0.00000000000E+00 -0.00000000000E+00 -0.75123785366E+01  0.76189717992E+01  0.12700000000E+01 0.  1.
         25    2    1    2    0    0  0.00000000000E+00  0.00000000000E+00  0.50866355124E+03  0.52379646393E+03  0.12499650901E+03 0.  0.
    9000005    1    3    3    0    0  0.18988983165E+02 -0.76757551303E+01  0.69320092851E+01  0.21646049320E+02  0.10000000000E+01 0.  0.
    9000005    1    3    3    0    0 -0.18988983165E+02  0.76757551303E+01  0.50173154196E+03  0.50215041461E+03  0.10000000000E+01 0.  0.
<mgrwt>
<rscale>  0 0.12499651E+03</rscale>
<asrwt>0</asrwt>
<pdfrwt beam="2">  1        4 0.11640699E-02 0.12499651E+03</pdfrwt>
<pdfrwt beam="1">  1       -4 0.79420019E-01 0.12499651E+03</pdfrwt>
<totfact> 0.54068333E+03</totfact>
</mgrwt>
</event>
<event>
 5    1  0.3317939E-002  0.1249972E+03  0.7818608E-02  0.1235074E+00
         -4   -1    0    0    0  501 -0.00000000000E+00  0.00000000000E+00  0.15702129224E+02  0.15753404780E+02  0.12700000000E+01 0. -1.
          4   -1    0    0  501    0  0.00000000000E+00 -0.00000000000E+00 -0.24830238577E+03  0.24830563361E+03  0.12700000000E+01 0. -1.
         25    2    1    2    0    0  0.00000000000E+00  0.00000000000E+00 -0.23260025655E+03  0.26405903839E+03  0.12499718560E+03 0.  0.
    9000005    1    3    3    0    0  0.58360452063E+02 -0.97168452629E+01 -0.73801465215E+02  0.94593951787E+02  0.10000000000E+01 0.  0.
    9000005    1    3    3    0    0 -0.58360452063E+02  0.97168452629E+01 -0.15879879133E+03  0.16946508660E+03  0.10000000000E+01 0.  0.
<mgrwt>
<rscale>  0 0.12499719E+03</rscale>
<asrwt>0</asrwt>
<pdfrwt beam="2">  1        4 0.38204558E-01 0.12499719E+03</pdfrwt>
<pdfrwt beam="1">  1       -4 0.24199065E-02 0.12499719E+03</pdfrwt>
<totfact> 0.80344819E+03</totfact>
</mgrwt>
</event>
<event>
 5    1  0.3317939E-002  0.1249959E+03  0.7818608E-02  0.1235076E+00
          4   -1    0    0  501    0  0.00000000000E+00  0.00000000000E+00  0.87118013022E+02  0.87127269514E+02  0.12700000000E+01 0.  1.
         -4   -1    0    0    0  501 -0.00000000000E+00 -0.00000000000E+00 -0.44814995405E+02  0.44832986887E+02  0.12700000000E+01 0.  1.
         25    2    1    2    0    0  0.00000000000E+00  0.00000000000E+00  0.42303017617E+02  0.13196025640E+03  0.12499585581E+03 0.  0.
    9000005    1    3    3    0    0  0.27906931007E+02  0.40572166778E+02  0.61767037299E+02  0.79000407670E+02  0.10000000000E+01 0.  0.
    9000005    1    3    3    0    0 -0.27906931007E+02 -0.40572166778E+02 -0.19464019682E+02  0.52959848730E+02  0.10000000000E+01 0.  0.
<mgrwt>
<rscale>  0 0.12499586E+03</rscale>
<asrwt>0</asrwt>
<pdfrwt beam="1">  1        4 0.13404867E-01 0.12499586E+03</pdfrwt>
<pdfrwt beam="2">  1       -4 0.68967108E-02 0.12499586E+03</pdfrwt>
<totfact> 0.10303510E+04</totfact>
</mgrwt>
</event>
<event>
 4    1  0.3317939E-002  0.1251061E+03  0.7818608E-02  0.1234904E+00
         -4   -1    0    0    0  501 -0.00000000000E+00  0.00000000000E+00  0.46507769342E+01  0.48210606812E+01  0.12700000000E+01 0. -1.
          4   -1    0    0  501    0  0.00000000000E+00 -0.00000000000E+00 -0.82604335047E+03  0.82604432675E+03  0.12700000000E+01 0. -1.
    9000005    1    1    2    0    0 -0.57144869366E+02 -0.19404357388E+02 -0.30160562238E+03  0.30758578743E+03  0.10000000000E+01 0.  0.
    9000005    1    1    2    0    0  0.57144869366E+02  0.19404357388E+02 -0.51978695116E+03  0.52327960000E+03  0.10000000000E+01 0.  0.
<mgrwt>
<rscale>  0 0.12510608E+03</rscale>
<asrwt>0</asrwt>
<pdfrwt beam="2">  1        4 0.12709665E+00 0.12510608E+03</pdfrwt>
<pdfrwt beam="1">  1       -4 0.72867865E-03 0.12510608E+03</pdfrwt>
<totfact> 0.36837987E+03</totfact>
</mgrwt>
</event>
<event>
 5    1  0.3317939E-002  0.1249471E+03  0.7818608E-02  0.1235152E+00
          4   -1    0    0  501    0  0.00000000000E+00  0.00000000000E+00  0.15720466391E+02  0.15771682331E+02  0.12700000000E+01 0.  1.
         -4   -1    0    0    0  501 -0.00000000000E+00 -0.00000000000E+00 -0.24781499657E+03  0.24781825079E+03  0.12700000000E+01 0.  1.
         25    2    1    2    0    0  0.00000000000E+00  0.00000000000E+00 -0.23209453017E+03  0.26358993312E+03  0.12494711643E+03 0.  0.
    9000005    1    3    3    0    0  0.54980603169E+02 -0.12237381064E+02 -0.59075036436E+02  0.81630142412E+02  0.10000000000E+01 0.  0.
    9000005    1    3    3    0    0 -0.54980603169E+02  0.12237381064E+02 -0.17301949374E+03  0.18195979071E+03  0.10000000000E+01 0.  0.
<mgrwt>
<rscale>  0 0.12494712E+03</rscale>
<asrwt>0</asrwt>
<pdfrwt beam="1">  1        4 0.24227235E-02 0.12494712E+03</pdfrwt>
<pdfrwt beam="2">  1       -4 0.38129571E-01 0.12494712E+03</pdfrwt>
<totfact> 0.80499591E+03</totfact>
</mgrwt>
</event>
<event>
 5    1  0.3317939E-002  0.1250042E+03  0.7818608E-02  0.1235063E+00
          4   -1    0    0  501    0  0.00000000000E+00  0.00000000000E+00  0.71196635118E+02  0.71207961297E+02  0.12700000000E+01 0.  1.
         -4   -1    0    0    0  501 -0.00000000000E+00 -0.00000000000E+00 -0.54846340005E+02  0.54861041842E+02  0.12700000000E+01 0.  1.
         25    2    1    2    0    0  0.00000000000E+00  0.00000000000E+00  0.16350295112E+02  0.12606900314E+03  0.12500424554E+03 0.  0.
    9000005    1    3    3    0    0 -0.44273287800E+02  0.40463428184E+02  0.25877502240E+02  0.65330376972E+02  0.10000000000E+01 0.  0.
    9000005    1    3    3    0    0  0.44273287800E+02 -0.40463428184E+02 -0.95272071283E+01  0.60738626167E+02  0.10000000000E+01 0.  0.
<mgrwt>
<rscale>  0 0.12500425E+03</rscale>
<asrwt>0</asrwt>
<pdfrwt beam="1">  1        4 0.10955331E-01 0.12500425E+03</pdfrwt>
<pdfrwt beam="2">  1       -4 0.84399007E-02 0.12500425E+03</pdfrwt>
<totfact> 0.10428446E+04</totfact>
</mgrwt>
</event>
<event>
 5    1  0.3317939E-002  0.1250006E+03  0.7818608E-02  0.1235068E+00
         -4   -1    0    0    0  501 -0.00000000000E+00  0.00000000000E+00  0.22382129318E+02  0.22418131340E+02  0.12700000000E+01 0. -1.
          4   -1    0    0  501    0  0.00000000000E+00 -0.00000000000E+00 -0.17434861242E+03  0.17435323786E+03  0.12700000000E+01 0. -1.
         25    2    1    2    0    0  0.00000000000E+00  0.00000000000E+00 -0.15196648310E+03  0.19677136920E+03  0.12500063900E+03 0.  0.
    9000005    1    3    3    0    0 -0.54322643199E+02 -0.58723552903E+01 -0.12372622494E+03  0.13525757968E+03  0.10000000000E+01 0.  0.
    9000005    1    3    3    0    0  0.54322643199E+02  0.58723552903E+01 -0.28240258153E+02  0.61513789522E+02  0.10000000000E+01 0.  0.
<mgrwt>
<rscale>  0 0.12500064E+03</rscale>
<asrwt>0</asrwt>
<pdfrwt beam="2">  1        4 0.26825988E-01 0.12500064E+03</pdfrwt>
<pdfrwt beam="1">  1       -4 0.34465298E-02 0.12500064E+03</pdfrwt>
<totfact> 0.90680988E+03</totfact>
</mgrwt>
</event>
<event>
 5    1  0.3317939E-002  0.1250008E+03  0.7818608E-02  0.1235068E+00
          4   -1    0    0  501    0  0.00000000000E+00  0.00000000000E+00  0.10701151095E+03  0.10701904679E+03  0.12700000000E+01 0.  1.
         -4   -1    0    0    0  501 -0.00000000000E+00 -0.00000000000E+00 -0.36483668783E+02  0.36505766501E+02  0.12700000000E+01 0.  1.
         25    2    1    2    0    0  0.00000000000E+00  0.00000000000E+00  0.70527842168E+02  0.14352481329E+03  0.12500078204E+03 0.  0.
    9000005    1    3    3    0    0  0.34400626552E+02 -0.47130090889E+02  0.60954950251E+02  0.84386933434E+02  0.10000000000E+01 0.  0.
    9000005    1    3    3    0    0 -0.34400626552E+02  0.47130090889E+02  0.95728919174E+01  0.59137879858E+02  0.10000000000E+01 0.  0.
<mgrwt>
<rscale>  0 0.12500078E+03</rscale>
<asrwt>0</asrwt>
<pdfrwt beam="1">  1        4 0.16465589E-01 0.12500078E+03</pdfrwt>
<pdfrwt beam="2">  1       -4 0.56151517E-02 0.12500078E+03</pdfrwt>
<totfact> 0.10060870E+04</totfact>
</mgrwt>
</event>
<event>
 5    1  0.3317939E-002  0.1250013E+03  0.7818608E-02  0.1235067E+00
          4   -1    0    0  501    0  0.00000000000E+00  0.00000000000E+00  0.16963139783E+03  0.16963615189E+03  0.12700000000E+01 0. -1.
         -4   -1    0    0    0  501 -0.00000000000E+00 -0.00000000000E+00 -0.23005745719E+02  0.23040773339E+02  0.12700000000E+01 0. -1.
         25    2    1    2    0    0  0.00000000000E+00  0.00000000000E+00  0.14662565211E+03  0.19267692523E+03  0.12500126264E+03 0.  0.
    9000005    1    3    3    0    0  0.34431076576E+02  0.14294441004E+02 -0.39956954776E+01  0.37507274764E+02  0.10000000000E+01 0.  0.
    9000005    1    3    3    0    0 -0.34431076576E+02 -0.14294441004E+02  0.15062134759E+03  0.15516965047E+03  0.10000000000E+01 0.  0.
<mgrwt>
<rscale>  0 0.12500126E+03</rscale>
<asrwt>0</asrwt>
<pdfrwt beam="1">  1        4 0.26100198E-01 0.12500126E+03</pdfrwt>
<pdfrwt beam="2">  1       -4 0.35424056E-02 0.12500126E+03</pdfrwt>
<totfact> 0.91381029E+03</totfact>
</mgrwt>
</event>
<event>
 5    1  0.3317939E-002  0.1250254E+03  0.7818608E-02  0.1235030E+00
          4   -1    0    0  501    0  0.00000000000E+00  0.00000000000E+00  0.66522180904E+02  0.66534302823E+02  0.12700000000E+01 0.  1.
         -4   -1    0    0    0  501 -0.00000000000E+00 -0.00000000000E+00 -0.58720573112E+02  0.58734305194E+02  0.12700000000E+01 0.  1.
         25    2    1    2    0    0  0.00000000000E+00  0.00000000000E+00  0.78016077914E+01  0.12526860802E+03  0.12502543369E+03 0.  0.
    9000005    1    3    3    0    0 -0.56956806780E+01 -0.16473583045E+02 -0.56241106789E+02  0.58888723960E+02  0.10000000000E+01 0.  0.
    9000005    1    3    3    0    0  0.56956806780E+01  0.16473583045E+02  0.64042714581E+02  0.66379884058E+02  0.10000000000E+01 0.  0.
<mgrwt>
<rscale>  0 0.12502543E+03</rscale>
<asrwt>0</asrwt>
<pdfrwt beam="1">  1        4 0.10236170E-01 0.12502543E+03</pdfrwt>
<pdfrwt beam="2">  1       -4 0.90359231E-02 0.12502543E+03</pdfrwt>
<totfact> 0.10441029E+04</totfact>
</mgrwt>
</event>
<event>
 5    1  0.3317939E-002  0.1249980E+03  0.7818608E-02  0.1235072E+00
         -4   -1    0    0    0  501 -0.00000000000E+00  0.00000000000E+00  0.77396510446E+02  0.77406929465E+02  0.12700000000E+01 0. -1.
          4   -1    0    0  501    0  0.00000000000E+00 -0.00000000000E+00 -0.50447167038E+02  0.50463150537E+02  0.12700000000E+01 0. -1.
         25    2    1    2    0    0  0.00000000000E+00  0.00000000000E+00  0.26949343408E+02  0.12787008000E+03  0.12499796098E+03 0.  0.
    9000005    1    3    3    0    0  0.32252371659E+02  0.45890705460E+02  0.41656726743E+02  0.69874567678E+02  0.10000000000E+01 0.  0.
    9000005    1    3    3    0    0 -0.32252371659E+02 -0.45890705460E+02 -0.14707383335E+02  0.57995512325E+02  0.10000000000E+01 0.  0.
<mgrwt>
<rscale>  0 0.12499796E+03</rscale>
<asrwt>0</asrwt>
<pdfrwt beam="2">  1        4 0.77631336E-02 0.12499796E+03</pdfrwt>
<pdfrwt beam="1">  1       -4 0.11909186E-01 0.12499796E+03</pdfrwt>
<totfact> 0.10390773E+04</totfact>
</mgrwt>
</event>
<event>
 5    1  0.3317939E-002  0.1250129E+03  0.7818608E-02  0.1235049E+00
         -4   -1    0    0    0  501 -0.00000000000E+00  0.00000000000E+00  0.16836923676E+01  0.21089618273E+01  0.12700000000E+01 0. -1.
          4   -1    0    0  501    0  0.00000000000E+00 -0.00000000000E+00 -0.20599031082E+04  0.20599034997E+04  0.12700000000E+01 0. -1.
         25    2    1    2    0    0  0.00000000000E+00  0.00000000000E+00 -0.20582194158E+04  0.20620124615E+04  0.12501291045E+03 0.  0.
    9000005    1    3    3    0    0  0.39835246976E+02  0.25388345075E+02 -0.17040998124E+04  0.17047546995E+04  0.10000000000E+01 0.  0.
    9000005    1    3    3    0    0 -0.39835246976E+02 -0.25388345075E+02 -0.35411960342E+03  0.35725776198E+03  0.10000000000E+01 0.  0.
<mgrwt>
<rscale>  0 0.12501291E+03</rscale>
<asrwt>0</asrwt>
<pdfrwt beam="2">  1        4 0.31693912E+00 0.12501291E+03</pdfrwt>
<pdfrwt beam="1">  1       -4 0.29177439E-03 0.12501291E+03</pdfrwt>
<totfact> 0.90709906E+02</totfact>
</mgrwt>
</event>
<event>
 5    1  0.3317939E-002  0.1249972E+03  0.7818608E-02  0.1235074E+00
         -4   -1    0    0    0  501 -0.00000000000E+00  0.00000000000E+00  0.27720301195E+01  0.30491065877E+01  0.12700000000E+01 0. -1.
          4   -1    0    0  501    0  0.00000000000E+00 -0.00000000000E+00 -0.13417539482E+04  0.13417545493E+04  0.12700000000E+01 0. -1.
         25    2    1    2    0    0  0.00000000000E+00  0.00000000000E+00 -0.13389819181E+04  0.13448036559E+04  0.12499718311E+03 0.  0.
    9000005    1    3    3    0    0  0.63239271230E+00 -0.19652953002E+02 -0.31325271266E+02  0.36998798658E+02  0.10000000000E+01 0.  0.
    9000005    1    3    3    0    0 -0.63239271230E+00  0.19652953002E+02 -0.13076566469E+04  0.13078048572E+04  0.10000000000E+01 0.  0.
<mgrwt>
<rscale>  0 0.12499718E+03</rscale>
<asrwt>0</asrwt>
<pdfrwt beam="2">  1        4 0.20644455E+00 0.12499718E+03</pdfrwt>
<pdfrwt beam="1">  1       -4 0.44782705E-03 0.12499718E+03</pdfrwt>
<totfact> 0.21196477E+03</totfact>
</mgrwt>
</event>
<event>
 5    1  0.3317939E-002  0.1250000E+03  0.7818608E-02  0.1235069E+00
         -4   -1    0    0    0  501 -0.00000000000E+00  0.00000000000E+00  0.33695713839E+02  0.33719638657E+02  0.12700000000E+01 0. -1.
          4   -1    0    0  501    0  0.00000000000E+00 -0.00000000000E+00 -0.11585858178E+03  0.11586554221E+03  0.12700000000E+01 0. -1.
         25    2    1    2    0    0  0.00000000000E+00  0.00000000000E+00 -0.82162867942E+02  0.14958518087E+03  0.12499995787E+03 0.  0.
    9000005    1    3    3    0    0  0.51950616463E+02  0.34625427395E+02 -0.37812806712E+02  0.72997226829E+02  0.10000000000E+01 0.  0.
    9000005    1    3    3    0    0 -0.51950616463E+02 -0.34625427395E+02 -0.44350061230E+02  0.76587954042E+02  0.10000000000E+01 0.  0.
<mgrwt>
<rscale>  0 0.12499996E+03</rscale>
<asrwt>0</asrwt>
<pdfrwt beam="2">  1        4 0.17826773E-01 0.12499996E+03</pdfrwt>
<pdfrwt beam="1">  1       -4 0.51863318E-02 0.12499996E+03</pdfrwt>
<totfact> 0.99386544E+03</totfact>
</mgrwt>
</event>
<event>
 5    1  0.3317939E-002  0.1250012E+03  0.7818608E-02  0.1235067E+00
          4   -1    0    0  501    0  0.00000000000E+00  0.00000000000E+00  0.61025233534E+01  0.62332729187E+01  0.12700000000E+01 0. -1.
         -4   -1    0    0    0  501 -0.00000000000E+00 -0.00000000000E+00 -0.63320009263E+03  0.63320136624E+03  0.12700000000E+01 0. -1.
         25    2    1    2    0    0  0.00000000000E+00  0.00000000000E+00 -0.62709756928E+03  0.63943463916E+03  0.12500118544E+03 0.  0.
    9000005    1    3    3    0    0  0.42118876906E+02 -0.43680800515E+02 -0.23710573161E+03  0.24474913705E+03  0.10000000000E+01 0.  0.
    9000005    1    3    3    0    0 -0.42118876906E+02  0.43680800515E+02 -0.38999183767E+03  0.39468550211E+03  0.10000000000E+01 0.  0.
<mgrwt>
<rscale>  0 0.12500119E+03</rscale>
<asrwt>0</asrwt>
<pdfrwt beam="1">  1        4 0.94900588E-03 0.12500119E+03</pdfrwt>
<pdfrwt beam="2">  1       -4 0.97425503E-01 0.12500119E+03</pdfrwt>
<totfact> 0.46468148E+03</totfact>
</mgrwt>
</event>
<event>
 5    1  0.3317939E-002  0.1249959E+03  0.7818608E-02  0.1235076E+00
          4   -1    0    0  501    0  0.00000000000E+00  0.00000000000E+00  0.12455554324E+03  0.12456201769E+03  0.12700000000E+01 0. -1.
         -4   -1    0    0    0  501 -0.00000000000E+00 -0.00000000000E+00 -0.31339318480E+02  0.31365040774E+02  0.12700000000E+01 0. -1.
         25    2    1    2    0    0  0.00000000000E+00  0.00000000000E+00  0.93216224757E+02  0.15592705847E+03  0.12499593195E+03 0.  0.
    9000005    1    3    3    0    0 -0.61256857264E+02  0.11798900402E+02  0.51170999024E+02  0.80691311513E+02  0.10000000000E+01 0.  0.
    9000005    1    3    3    0    0  0.61256857264E+02 -0.11798900402E+02  0.42045225733E+02  0.75235746952E+02  0.10000000000E+01 0.  0.
<mgrwt>
<rscale>  0 0.12499593E+03</rscale>
<asrwt>0</asrwt>
<pdfrwt beam="1">  1        4 0.19164867E-01 0.12499593E+03</pdfrwt>
<pdfrwt beam="2">  1       -4 0.48239104E-02 0.12499593E+03</pdfrwt>
<totfact> 0.98142791E+03</totfact>
</mgrwt>
</event>
<event>
 5    1  0.3317939E-002  0.1250010E+03  0.7818608E-02  0.1235068E+00
         -4   -1    0    0    0  501 -0.00000000000E+00  0.00000000000E+00  0.23181652320E+03  0.23182000200E+03  0.12700000000E+01 0. -1.
          4   -1    0    0  501    0  0.00000000000E+00 -0.00000000000E+00 -0.16823352540E+02  0.16871220782E+02  0.12700000000E+01 0. -1.
         25    2    1    2    0    0  0.00000000000E+00  0.00000000000E+00  0.21499317066E+03  0.24869122278E+03  0.12500104343E+03 0.  0.
    9000005    1    3    3    0    0  0.21512730233E+02  0.48002557135E+02  0.40373814373E+02  0.66318081551E+02  0.10000000000E+01 0.  0.
    9000005    1    3    3    0    0 -0.21512730233E+02 -0.48002557135E+02  0.17461935628E+03  0.18237314123E+03  0.10000000000E+01 0.  0.
<mgrwt>
<rscale>  0 0.12500104E+03</rscale>
<asrwt>0</asrwt>
<pdfrwt beam="2">  1        4 0.25921579E-02 0.12500104E+03</pdfrwt>
<pdfrwt beam="1">  1       -4 0.35668029E-01 0.12500104E+03</pdfrwt>
<totfact> 0.82517837E+03</totfact>
</mgrwt>
</event>
<event>
 5    1  0.3317939E-002  0.1249997E+03  0.7818608E-02  0.1235070E+00
         -4   -1    0    0    0  501 -0.00000000000E+00  0.00000000000E+00  0.37661211363E+02  0.37682618557E+02  0.12700000000E+01 0. -1.
          4   -1    0    0  501    0  0.00000000000E+00 -0.00000000000E+00 -0.10366551937E+03  0.10367329843E+03  0.12700000000E+01 0. -1.
         25    2    1    2    0    0  0.00000000000E+00  0.00000000000E+00 -0.66004308009E+02  0.14135591698E+03  0.12499970636E+03 0.  0.
    9000005    1    3    3    0    0 -0.18070672714E+02  0.46485988232E+02 -0.75581852412E+02  0.90559995187E+02  0.10000000000E+01 0.  0.
    9000005    1    3    3    0    0  0.18070672714E+02 -0.46485988232E+02  0.95775444033E+01  0.50795921796E+02  0.10000000000E+01 0.  0.
<mgrwt>
<rscale>  0 0.12499971E+03</rscale>
<asrwt>0</asrwt>
<pdfrwt beam="2">  1        4 0.15950786E-01 0.12499971E+03</pdfrwt>
<pdfrwt beam="1">  1       -4 0.57962777E-02 0.12499971E+03</pdfrwt>
<totfact> 0.10105628E+04</totfact>
</mgrwt>
</event>
<event>
 5    1  0.3317939E-002  0.1250009E+03  0.7818608E-02  0.1235068E+00
          4   -1    0    0  501    0  0.00000000000E+00  0.00000000000E+00  0.46023395797E+03  0.46023571023E+03  0.12700000000E+01 0. -1.
         -4   -1    0    0    0  501 -0.00000000000E+00 -0.00000000000E+00 -0.84383645464E+01  0.85333988667E+01  0.12700000000E+01 0. -1.
         25    2    1    2    0    0  0.00000000000E+00  0.00000000000E+00  0.45179559342E+03  0.46876910909E+03  0.12500087761E+03 0.  0.
    9000005    1    3    3    0    0 -0.31920691233E+02  0.17082089248E+02  0.41691794019E+03  0.41848810873E+03  0.10000000000E+01 0.  0.
    9000005    1    3    3    0    0  0.31920691233E+02 -0.17082089248E+02  0.34877653235E+02  0.50281000358E+02  0.10000000000E+01 0.  0.
<mgrwt>
<rscale>  0 0.12500088E+03</rscale>
<asrwt>0</asrwt>
<pdfrwt beam="1">  1        4 0.70812681E-01 0.12500088E+03</pdfrwt>
<pdfrwt beam="2">  1       -4 0.13056548E-02 0.12500088E+03</pdfrwt>
<totfact> 0.58370490E+03</totfact>
</mgrwt>
</event>
<event>
 5    1  0.3317939E-002  0.1250079E+03  0.7818608E-02  0.1235057E+00
          4   -1    0    0  501    0  0.00000000000E+00  0.00000000000E+00  0.20224380729E+02  0.20264216636E+02  0.12700000000E+01 0.  1.
         -4   -1    0    0    0  501 -0.00000000000E+00 -0.00000000000E+00 -0.19293791492E+03  0.19294209471E+03  0.12700000000E+01 0.  1.
         25    2    1    2    0    0  0.00000000000E+00  0.00000000000E+00 -0.17271353419E+03  0.21320631135E+03  0.12500786498E+03 0.  0.
    9000005    1    3    3    0    0  0.15787437306E+02  0.59418962245E+02 -0.67220806278E+02  0.91101553486E+02  0.10000000000E+01 0.  0.
    9000005    1    3    3    0    0 -0.15787437306E+02 -0.59418962245E+02 -0.10549272791E+03  0.12210475786E+03  0.10000000000E+01 0.  0.
<mgrwt>
<rscale>  0 0.12500786E+03</rscale>
<asrwt>0</asrwt>
<pdfrwt beam="1">  1        4 0.31148291E-02 0.12500786E+03</pdfrwt>
<pdfrwt beam="2">  1       -4 0.29686141E-01 0.12500786E+03</pdfrwt>
<totfact> 0.87939452E+03</totfact>
</mgrwt>
</event>
<event>
 5    1  0.3317939E-002  0.1250000E+03  0.7818608E-02  0.1235069E+00
         -4   -1    0    0    0  501 -0.00000000000E+00  0.00000000000E+00  0.62703253067E+01  0.63976463994E+01  0.12700000000E+01 0. -1.
          4   -1    0    0  501    0  0.00000000000E+00 -0.00000000000E+00 -0.61658463261E+03  0.61658594053E+03  0.12700000000E+01 0. -1.
         25    2    1    2    0    0  0.00000000000E+00  0.00000000000E+00 -0.61031430730E+03  0.62298358693E+03  0.12499998358E+03 0.  0.
    9000005    1    3    3    0    0  0.42680644190E+02 -0.45269939967E+02 -0.33432199777E+03  0.34006352796E+03  0.10000000000E+01 0.  0.
    9000005    1    3    3    0    0 -0.42680644190E+02  0.45269939967E+02 -0.27599230953E+03  0.28292005898E+03  0.10000000000E+01 0.  0.
<mgrwt>
<rscale>  0 0.12499998E+03</rscale>
<asrwt>0</asrwt>
<pdfrwt beam="2">  1        4 0.94869021E-01 0.12499998E+03</pdfrwt>
<pdfrwt beam="1">  1       -4 0.97456046E-03 0.12499998E+03</pdfrwt>
<totfact> 0.47448267E+03</totfact>
</mgrwt>
</event>
<event>
 5    1  0.3317939E-002  0.1249965E+03  0.7818608E-02  0.1235075E+00
         -4   -1    0    0    0  501 -0.00000000000E+00  0.00000000000E+00  0.99185548011E+02  0.99193678398E+02  0.12700000000E+01 0. -1.
          4   -1    0    0  501    0  0.00000000000E+00 -0.00000000000E+00 -0.39361084479E+02  0.39381567660E+02  0.12700000000E+01 0. -1.
         25    2    1    2    0    0  0.00000000000E+00  0.00000000000E+00  0.59824463532E+02  0.13857524606E+03  0.12499652948E+03 0.  0.
    9000005    1    3    3    0    0  0.18787440557E+00 -0.27798233759E+02  0.91958594604E+02  0.96073722830E+02  0.10000000000E+01 0.  0.
    9000005    1    3    3    0    0 -0.18787440557E+00  0.27798233759E+02 -0.32134131072E+02  0.42501523228E+02  0.10000000000E+01 0.  0.
<mgrwt>
<rscale>  0 0.12499653E+03</rscale>
<asrwt>0</asrwt>
<pdfrwt beam="2">  1        4 0.60577525E-02 0.12499653E+03</pdfrwt>
<pdfrwt beam="1">  1       -4 0.15261516E-01 0.12499653E+03</pdfrwt>
<totfact> 0.10163995E+04</totfact>
</mgrwt>
</event>
<event>
 5    1  0.3317939E-002  0.1249988E+03  0.7818608E-02  0.1235071E+00
         -4   -1    0    0    0  501 -0.00000000000E+00  0.00000000000E+00  0.42293451840E+03  0.42293642519E+03  0.12700000000E+01 0. -1.
          4   -1    0    0  501    0  0.00000000000E+00 -0.00000000000E+00 -0.91902871738E+01  0.92776224506E+01  0.12700000000E+01 0. -1.
         25    2    1    2    0    0  0.00000000000E+00  0.00000000000E+00  0.41374423122E+03  0.43221404764E+03  0.12499877642E+03 0.  0.
    9000005    1    3    3    0    0  0.41248534682E+02 -0.46794265818E+02  0.21982302544E+03  0.22850450201E+03  0.10000000000E+01 0.  0.
    9000005    1    3    3    0    0 -0.41248534682E+02  0.46794265818E+02  0.19392120578E+03  0.20370954562E+03  0.10000000000E+01 0.  0.
<mgrwt>
<rscale>  0 0.12499878E+03</rscale>
<asrwt>0</asrwt>
<pdfrwt beam="2">  1        4 0.14207553E-02 0.12499878E+03</pdfrwt>
<pdfrwt beam="1">  1       -4 0.65073706E-01 0.12499878E+03</pdfrwt>
<totfact> 0.61537476E+03</totfact>
</mgrwt>
</event>
<event>
 5    1  0.3317939E-002  0.1249950E+03  0.7818608E-02  0.1235077E+00
         -4   -1    0    0    0  501 -0.00000000000E+00  0.00000000000E+00  0.20761575176E+03  0.20761963606E+03  0.12700000000E+01 0.  1.
          4   -1    0    0  501    0  0.00000000000E+00 -0.00000000000E+00 -0.18787813856E+02  0.18830689033E+02  0.12700000000E+01 0.  1.
         25    2    1    2    0    0  0.00000000000E+00  0.00000000000E+00  0.18882793790E+03  0.22645032509E+03  0.12499503831E+03 0.  0.
    9000005    1    3    3    0    0  0.49775423228E+02  0.47466915234E+01  0.26510821269E+02  0.56603422885E+02  0.10000000000E+01 0.  0.
    9000005    1    3    3    0    0 -0.49775423228E+02 -0.47466915234E+01  0.16231711663E+03  0.16984690221E+03  0.10000000000E+01 0.  0.
<mgrwt>
<rscale>  0 0.12499504E+03</rscale>
<asrwt>0</asrwt>
<pdfrwt beam="2">  1        4 0.28940298E-02 0.12499504E+03</pdfrwt>
<pdfrwt beam="1">  1       -4 0.31944482E-01 0.12499504E+03</pdfrwt>
<totfact> 0.85867158E+03</totfact>
</mgrwt>
</event>
<event>
 5    1  0.3317939E-002  0.1249882E+03  0.7818608E-02  0.1235088E+00
          4   -1    0    0  501    0  0.00000000000E+00  0.00000000000E+00  0.47695073179E+01  0.49356965117E+01  0.12700000000E+01 0. -1.
         -4   -1    0    0    0  501 -0.00000000000E+00 -0.00000000000E+00 -0.80466168035E+03  0.80466268257E+03  0.12700000000E+01 0. -1.
         25    2    1    2    0    0  0.00000000000E+00  0.00000000000E+00 -0.79989217303E+03  0.80959837909E+03  0.12498818719E+03 0.  0.
    9000005    1    3    3    0    0 -0.28112489078E+02 -0.52859912298E+02 -0.28406953158E+03  0.29031186876E+03  0.10000000000E+01 0.  0.
    9000005    1    3    3    0    0  0.28112489078E+02  0.52859912298E+02 -0.51582264146E+03  0.51928651033E+03  0.10000000000E+01 0.  0.
<mgrwt>
<rscale>  0 0.12498819E+03</rscale>
<asrwt>0</asrwt>
<pdfrwt beam="1">  1        4 0.74663187E-03 0.12498819E+03</pdfrwt>
<pdfrwt beam="2">  1       -4 0.12380686E+00 0.12498819E+03</pdfrwt>
<totfact> 0.37849600E+03</totfact>
</mgrwt>
</event>
<event>
 5    1  0.3317939E-002  0.1250111E+03  0.7818608E-02  0.1235052E+00
          4   -1    0    0  501    0  0.00000000000E+00  0.00000000000E+00  0.42473495297E+01  0.44331566663E+01  0.12700000000E+01 0.  1.
         -4   -1    0    0    0  501 -0.00000000000E+00 -0.00000000000E+00 -0.89997839706E+03  0.89997929314E+03  0.12700000000E+01 0.  1.
         25    2    1    2    0    0  0.00000000000E+00  0.00000000000E+00 -0.89573104753E+03  0.90441244980E+03  0.12501107890E+03 0.  0.
    9000005    1    3    3    0    0  0.47132394656E+02 -0.38044957349E+02 -0.33647502810E+03  0.34188496009E+03  0.10000000000E+01 0.  0.
    9000005    1    3    3    0    0 -0.47132394656E+02  0.38044957349E+02 -0.55925601944E+03  0.56252748971E+03  0.10000000000E+01 0.  0.
<mgrwt>
<rscale>  0 0.12501108E+03</rscale>
<asrwt>0</asrwt>
<pdfrwt beam="1">  1        4 0.66780089E-03 0.12501108E+03</pdfrwt>
<pdfrwt beam="2">  1       -4 0.13847243E+00 0.12501108E+03</pdfrwt>
<totfact> 0.33983340E+03</totfact>
</mgrwt>
</event>
<event>
 5    1  0.3317939E-002  0.1250062E+03  0.7818608E-02  0.1235060E+00
         -4   -1    0    0    0  501 -0.00000000000E+00  0.00000000000E+00  0.59273806309E+02  0.59287410251E+02  0.12700000000E+01 0.  1.
          4   -1    0    0  501    0  0.00000000000E+00 -0.00000000000E+00 -0.65881012882E+02  0.65893252753E+02  0.12700000000E+01 0.  1.
         25    2    1    2    0    0  0.00000000000E+00  0.00000000000E+00 -0.66072065733E+01  0.12518066300E+03  0.12500617269E+03 0.  0.
    9000005    1    3    3    0    0 -0.51736191678E+02 -0.23314384078E+01  0.31724740841E+02  0.60741487599E+02  0.10000000000E+01 0.  0.
    9000005    1    3    3    0    0  0.51736191678E+02  0.23314384078E+01 -0.38331947414E+02  0.64439175405E+02  0.10000000000E+01 0.  0.
<mgrwt>
<rscale>  0 0.12500617E+03</rscale>
<asrwt>0</asrwt>
<pdfrwt beam="2">  1        4 0.10137528E-01 0.12500617E+03</pdfrwt>
<pdfrwt beam="1">  1       -4 0.91210351E-02 0.12500617E+03</pdfrwt>
<totfact> 0.10447482E+04</totfact>
</mgrwt>
</event>
<event>
 5    1  0.3317939E-002  0.1249976E+03  0.7818608E-02  0.1235073E+00
          4   -1    0    0  501    0  0.00000000000E+00  0.00000000000E+00  0.14419227632E+03  0.14419786909E+03  0.12700000000E+01 0.  1.
         -4   -1    0    0    0  501 -0.00000000000E+00 -0.00000000000E+00 -0.27068497699E+02  0.27098274256E+02  0.12700000000E+01 0.  1.
         25    2    1    2    0    0  0.00000000000E+00  0.00000000000E+00  0.11712377862E+03  0.17129614335E+03  0.12499755681E+03 0.  0.
    9000005    1    3    3    0    0  0.53155089014E+01 -0.41325073668E+02  0.12238587788E+03  0.12928773899E+03  0.10000000000E+01 0.  0.
    9000005    1    3    3    0    0 -0.53155089014E+01  0.41325073668E+02 -0.52620992530E+01  0.42008404363E+02  0.10000000000E+01 0.  0.
<mgrwt>
<rscale>  0 0.12499756E+03</rscale>
<asrwt>0</asrwt>
<pdfrwt beam="1">  1        4 0.22186148E-01 0.12499756E+03</pdfrwt>
<pdfrwt beam="2">  1       -4 0.41671050E-02 0.12499756E+03</pdfrwt>
<totfact> 0.95212824E+03</totfact>
</mgrwt>
</event>
<event>
 5    1  0.3317939E-002  0.1249990E+03  0.7818608E-02  0.1235071E+00
          4   -1    0    0  501    0  0.00000000000E+00  0.00000000000E+00  0.11289650708E+03  0.11290365013E+03  0.12700000000E+01 0.  1.
         -4   -1    0    0    0  501 -0.00000000000E+00 -0.00000000000E+00 -0.34579814884E+02  0.34603128433E+02  0.12700000000E+01 0.  1.
         25    2    1    2    0    0  0.00000000000E+00  0.00000000000E+00  0.78316692201E+02  0.14750677856E+03  0.12499898177E+03 0.  0.
    9000005    1    3    3    0    0 -0.12269464591E+02  0.42280536913E+02  0.91495245725E+02  0.10154094521E+03  0.10000000000E+01 0.  0.
    9000005    1    3    3    0    0  0.12269464591E+02 -0.42280536913E+02 -0.13178553523E+02  0.45965833355E+02  0.10000000000E+01 0.  0.
<mgrwt>
<rscale>  0 0.12499898E+03</rscale>
<asrwt>0</asrwt>
<pdfrwt beam="1">  1        4 0.17371037E-01 0.12499898E+03</pdfrwt>
<pdfrwt beam="2">  1       -4 0.53223142E-02 0.12499898E+03</pdfrwt>
<totfact> 0.99805313E+03</totfact>
</mgrwt>
</event>
<event>
 5    1  0.3317939E-002  0.1249989E+03  0.7818608E-02  0.1235071E+00
         -4   -1    0    0    0  501 -0.00000000000E+00  0.00000000000E+00  0.25062015428E+01  0.28096167306E+01  0.12700000000E+01 0.  1.
          4   -1    0    0  501    0  0.00000000000E+00 -0.00000000000E+00 -0.14693408267E+04  0.14693413755E+04  0.12700000000E+01 0.  1.
         25    2    1    2    0    0  0.00000000000E+00  0.00000000000E+00 -0.14668346251E+04  0.14721509923E+04  0.12499890606E+03 0.  0.
    9000005    1    3    3    0    0 -0.53655362482E+02  0.18336910952E+02 -0.42404337955E+03  0.42781880273E+03  0.10000000000E+01 0.  0.
    9000005    1    3    3    0    0  0.53655362482E+02 -0.18336910952E+02 -0.10427912456E+04  0.10443321895E+04  0.10000000000E+01 0.  0.
<mgrwt>
<rscale>  0 0.12499891E+03</rscale>
<asrwt>0</asrwt>
<pdfrwt beam="2">  1        4 0.22607517E+00 0.12499891E+03</pdfrwt>
<pdfrwt beam="1">  1       -4 0.40895249E-03 0.12499891E+03</pdfrwt>
<totfact> 0.18484088E+03</totfact>
</mgrwt>
</event>
<event>
 5    1  0.3317939E-002  0.1249964E+03  0.7818608E-02  0.1235075E+00
         -4   -1    0    0    0  501 -0.00000000000E+00  0.00000000000E+00  0.57767585908E+02  0.57781544473E+02  0.12700000000E+01 0.  1.
          4   -1    0    0  501    0  0.00000000000E+00 -0.00000000000E+00 -0.67588096229E+02  0.67600027011E+02  0.12700000000E+01 0.  1.
         25    2    1    2    0    0  0.00000000000E+00  0.00000000000E+00 -0.98205103213E+01  0.12538157148E+03  0.12499638413E+03 0.  0.
    9000005    1    3    3    0    0 -0.46062103716E+02 -0.16390210617E+02 -0.43948917470E+02  0.65748488573E+02  0.10000000000E+01 0.  0.
    9000005    1    3    3    0    0  0.46062103716E+02  0.16390210617E+02  0.34128407149E+02  0.59633082910E+02  0.10000000000E+01 0.  0.
<mgrwt>
<rscale>  0 0.12499638E+03</rscale>
<asrwt>0</asrwt>
<pdfrwt beam="2">  1        4 0.10400160E-01 0.12499638E+03</pdfrwt>
<pdfrwt beam="1">  1       -4 0.88893123E-02 0.12499638E+03</pdfrwt>
<totfact> 0.10445427E+04</totfact>
</mgrwt>
</event>
<event>
 5    1  0.3317939E-002  0.1250007E+03  0.7818608E-02  0.1235068E+00
         -4   -1    0    0    0  501 -0.00000000000E+00  0.00000000000E+00  0.45877351262E+02  0.45894926286E+02  0.12700000000E+01 0. -1.
          4   -1    0    0  501    0  0.00000000000E+00 -0.00000000000E+00 -0.85107826221E+02  0.85117301321E+02  0.12700000000E+01 0. -1.
         25    2    1    2    0    0  0.00000000000E+00  0.00000000000E+00 -0.39230474959E+02  0.13101222761E+03  0.12500069447E+03 0.  0.
    9000005    1    3    3    0    0  0.46622648679E+02 -0.36186243453E+02  0.19198733563E+01  0.59057611692E+02  0.10000000000E+01 0.  0.
    9000005    1    3    3    0    0 -0.46622648679E+02  0.36186243453E+02 -0.41150348316E+02  0.71954615915E+02  0.10000000000E+01 0.  0.
<mgrwt>
<rscale>  0 0.12500069E+03</rscale>
<asrwt>0</asrwt>
<pdfrwt beam="2">  1        4 0.13095592E-01 0.12500069E+03</pdfrwt>
<pdfrwt beam="1">  1       -4 0.70601348E-02 0.12500069E+03</pdfrwt>
<totfact> 0.10322665E+04</totfact>
</mgrwt>
</event>
<event>
 5    1  0.3317939E-002  0.1250040E+03  0.7818608E-02  0.1235063E+00
          4   -1    0    0  501    0  0.00000000000E+00  0.00000000000E+00  0.10433656876E+02  0.10510665812E+02  0.12700000000E+01 0. -1.
         -4   -1    0    0    0  501 -0.00000000000E+00 -0.00000000000E+00 -0.37295859970E+03  0.37296076200E+03  0.12700000000E+01 0. -1.
         25    2    1    2    0    0  0.00000000000E+00  0.00000000000E+00 -0.36252494283E+03  0.38347142781E+03  0.12500400704E+03 0.  0.
    9000005    1    3    3    0    0  0.20056679202E+02 -0.15780954847E+02 -0.35625948241E+03  0.35717380604E+03  0.10000000000E+01 0.  0.
    9000005    1    3    3    0    0 -0.20056679202E+02  0.15780954847E+02 -0.62654604176E+01  0.26297621770E+02  0.10000000000E+01 0.  0.
<mgrwt>
<rscale>  0 0.12500401E+03</rscale>
<asrwt>0</asrwt>
<pdfrwt beam="1">  1        4 0.16112684E-02 0.12500401E+03</pdfrwt>
<pdfrwt beam="2">  1       -4 0.57384326E-01 0.12500401E+03</pdfrwt>
<totfact> 0.66186868E+03</totfact>
</mgrwt>
</event>
<event>
 5    1  0.3317939E-002  0.1249821E+03  0.7818608E-02  0.1235097E+00
         -4   -1    0    0    0  501 -0.00000000000E+00  0.00000000000E+00  0.29292034293E+04  0.29292037046E+04  0.12700000000E+01 0.  1.
          4   -1    0    0  501    0  0.00000000000E+00 -0.00000000000E+00 -0.10303796462E+01  0.16354149979E+01  0.12700000000E+01 0.  1.
         25    2    1    2    0    0  0.00000000000E+00  0.00000000000E+00  0.29281730497E+04  0.29308391196E+04  0.12498214403E+03 0.  0.
    9000005    1    3    3    0    0 -0.92301824124E+01 -0.23468055060E+02  0.28046813490E+04  0.28047948972E+04  0.10000000000E+01 0.  0.
    9000005    1    3    3    0    0  0.92301824124E+01  0.23468055060E+02  0.12349170070E+03  0.12604422246E+03  0.10000000000E+01 0.  0.
<mgrwt>
<rscale>  0 0.12498214E+03</rscale>
<asrwt>0</asrwt>
<pdfrwt beam="2">  1        4 0.20508423E-03 0.12498214E+03</pdfrwt>
<pdfrwt beam="1">  1       -4 0.45068902E+00 0.12498214E+03</pdfrwt>
<totfact> 0.20978263E+02</totfact>
</mgrwt>
</event>
<event>
 5    1  0.3317939E-002  0.1249986E+03  0.7818608E-02  0.1235071E+00
          4   -1    0    0  501    0  0.00000000000E+00  0.00000000000E+00  0.16931534918E+03  0.16932011212E+03  0.12700000000E+01 0. -1.
         -4   -1    0    0    0  501 -0.00000000000E+00 -0.00000000000E+00 -0.23047785092E+02  0.23082748919E+02  0.12700000000E+01 0. -1.
         25    2    1    2    0    0  0.00000000000E+00  0.00000000000E+00  0.14626756409E+03  0.19240286104E+03  0.12499864252E+03 0.  0.
    9000005    1    3    3    0    0  0.45396291478E+02 -0.17115088668E+02  0.12506191532E+02  0.50111419524E+02  0.10000000000E+01 0.  0.
    9000005    1    3    3    0    0 -0.45396291478E+02  0.17115088668E+02  0.13376137256E+03  0.14229144152E+03  0.10000000000E+01 0.  0.
<mgrwt>
<rscale>  0 0.12499864E+03</rscale>
<asrwt>0</asrwt>
<pdfrwt beam="1">  1        4 0.26051570E-01 0.12499864E+03</pdfrwt>
<pdfrwt beam="2">  1       -4 0.35488692E-02 0.12499864E+03</pdfrwt>
<totfact> 0.91433678E+03</totfact>
</mgrwt>
</event>
<event>
 5    1  0.3317939E-002  0.1249980E+03  0.7818608E-02  0.1235072E+00
          4   -1    0    0  501    0  0.00000000000E+00  0.00000000000E+00  0.10486833195E+02  0.10563454476E+02  0.12700000000E+01 0. -1.
         -4   -1    0    0    0  501 -0.00000000000E+00 -0.00000000000E+00 -0.37104551928E+03  0.37104769273E+03  0.12700000000E+01 0. -1.
         25    2    1    2    0    0  0.00000000000E+00  0.00000000000E+00 -0.36055868609E+03  0.38161114720E+03  0.12499800621E+03 0.  0.
    9000005    1    3    3    0    0  0.16135192618E+02 -0.56819971103E+02 -0.24256764316E+03  0.24965759565E+03  0.10000000000E+01 0.  0.
    9000005    1    3    3    0    0 -0.16135192618E+02  0.56819971103E+02 -0.11799104292E+03  0.13195355155E+03  0.10000000000E+01 0.  0.
<mgrwt>
<rscale>  0 0.12499801E+03</rscale>
<asrwt>0</asrwt>
<pdfrwt beam="1">  1        4 0.16194204E-02 0.12499801E+03</pdfrwt>
<pdfrwt beam="2">  1       -4 0.57089977E-01 0.12499801E+03</pdfrwt>
<totfact> 0.66384366E+03</totfact>
</mgrwt>
</event>
<event>
 5    1  0.3317939E-002  0.1250590E+03  0.7818608E-02  0.1234977E+00
          4   -1    0    0  501    0  0.00000000000E+00  0.00000000000E+00  0.86541444257E+03  0.86541537444E+03  0.12700000000E+01 0. -1.
         -4   -1    0    0    0  501 -0.00000000000E+00 -0.00000000000E+00 -0.44277912492E+01  0.46063255797E+01  0.12700000000E+01 0. -1.
         25    2    1    2    0    0  0.00000000000E+00  0.00000000000E+00  0.86098665132E+03  0.87002170002E+03  0.12505896507E+03 0.  0.
    9000005    1    3    3    0    0  0.51809049902E+02 -0.20901328491E+02  0.62576932814E+03  0.62825893963E+03  0.10000000000E+01 0.  0.
    9000005    1    3    3    0    0 -0.51809049902E+02  0.20901328491E+02  0.23521732318E+03  0.24176276038E+03  0.10000000000E+01 0.  0.
<mgrwt>
<rscale>  0 0.12505897E+03</rscale>
<asrwt>0</asrwt>
<pdfrwt beam="1">  1        4 0.13315451E+00 0.12505897E+03</pdfrwt>
<pdfrwt beam="2">  1       -4 0.69500363E-03 0.12505897E+03</pdfrwt>
<totfact> 0.35276296E+03</totfact>
</mgrwt>
</event>
<event>
 5    1  0.3317939E-002  0.1250023E+03  0.7818608E-02  0.1235066E+00
          4   -1    0    0  501    0  0.00000000000E+00  0.00000000000E+00  0.74228606098E+02  0.74239469713E+02  0.12700000000E+01 0.  1.
         -4   -1    0    0    0  501 -0.00000000000E+00 -0.00000000000E+00 -0.52604128563E+02  0.52619456875E+02  0.12700000000E+01 0.  1.
         25    2    1    2    0    0  0.00000000000E+00  0.00000000000E+00  0.21624477536E+02  0.12685892659E+03  0.12500227689E+03 0.  0.
    9000005    1    3    3    0    0  0.87844651565E+01  0.56836110864E+02 -0.14002564751E+02  0.59199511365E+02  0.10000000000E+01 0.  0.
    9000005    1    3    3    0    0 -0.87844651565E+01 -0.56836110864E+02  0.35627042287E+02  0.67659415223E+02  0.10000000000E+01 0.  0.
<mgrwt>
<rscale>  0 0.12500228E+03</rscale>
<asrwt>0</asrwt>
<pdfrwt beam="1">  1        4 0.11421800E-01 0.12500228E+03</pdfrwt>
<pdfrwt beam="2">  1       -4 0.80949577E-02 0.12500228E+03</pdfrwt>
<totfact> 0.10411677E+04</totfact>
</mgrwt>
</event>
<event>
 5    1  0.3317939E-002  0.1250105E+03  0.7818608E-02  0.1235053E+00
          4   -1    0    0  501    0  0.00000000000E+00  0.00000000000E+00  0.13155521788E+04  0.13155527918E+04  0.12700000000E+01 0.  1.
         -4   -1    0    0    0  501 -0.00000000000E+00 -0.00000000000E+00 -0.28333670199E+01  0.31049748259E+01  0.12700000000E+01 0.  1.
         25    2    1    2    0    0  0.00000000000E+00  0.00000000000E+00  0.13127188118E+04  0.13186577666E+04  0.12501050642E+03 0.  0.
    9000005    1    3    3    0    0 -0.44961136662E+01 -0.61270668721E+02  0.53535303434E+03  0.53886749880E+03  0.10000000000E+01 0.  0.
    9000005    1    3    3    0    0  0.44961136662E+01  0.61270668721E+02  0.77736577745E+03  0.77979026785E+03  0.10000000000E+01 0.  0.
<mgrwt>
<rscale>  0 0.12501051E+03</rscale>
<asrwt>0</asrwt>
<pdfrwt beam="1">  1        4 0.20241411E+00 0.12501051E+03</pdfrwt>
<pdfrwt beam="2">  1       -4 0.45684149E-03 0.12501051E+03</pdfrwt>
<totfact> 0.21787326E+03</totfact>
</mgrwt>
</event>
<event>
 5    1  0.3317939E-002  0.1249997E+03  0.7818608E-02  0.1235070E+00
         -4   -1    0    0    0  501 -0.00000000000E+00  0.00000000000E+00  0.15036526951E+02  0.15090064372E+02  0.12700000000E+01 0.  1.
          4   -1    0    0  501    0  0.00000000000E+00 -0.00000000000E+00 -0.25926615298E+03  0.25926926347E+03  0.12700000000E+01 0.  1.
         25    2    1    2    0    0  0.00000000000E+00  0.00000000000E+00 -0.24422962603E+03  0.27435932784E+03  0.12499972218E+03 0.  0.
    9000005    1    3    3    0    0 -0.25263417980E+01  0.55922725784E+02 -0.18307950148E+03  0.19144930798E+03  0.10000000000E+01 0.  0.
    9000005    1    3    3    0    0  0.25263417980E+01 -0.55922725784E+02 -0.61150124545E+02  0.82910019864E+02  0.10000000000E+01 0.  0.
<mgrwt>
<rscale>  0 0.12499972E+03</rscale>
<asrwt>0</asrwt>
<pdfrwt beam="2">  1        4 0.39891455E-01 0.12499972E+03</pdfrwt>
<pdfrwt beam="1">  1       -4 0.23176696E-02 0.12499972E+03</pdfrwt>
<totfact> 0.78932500E+03</totfact>
</mgrwt>
</event>
<event>
 5    1  0.3317939E-002  0.1249978E+03  0.7818608E-02  0.1235073E+00
          4   -1    0    0  501    0  0.00000000000E+00  0.00000000000E+00  0.16742112371E+03  0.16742594054E+03  0.12700000000E+01 0.  1.
         -4   -1    0    0    0  501 -0.00000000000E+00 -0.00000000000E+00 -0.23308609993E+02  0.23343183155E+02  0.12700000000E+01 0.  1.
         25    2    1    2    0    0  0.00000000000E+00  0.00000000000E+00  0.14411251372E+03  0.19076912369E+03  0.12499776776E+03 0.  0.
    9000005    1    3    3    0    0 -0.35468684707E+02  0.26150506478E+02  0.44336591712E+01  0.44300495681E+02  0.10000000000E+01 0.  0.
    9000005    1    3    3    0    0  0.35468684707E+02 -0.26150506478E+02  0.13967885455E+03  0.14646862801E+03  0.10000000000E+01 0.  0.
<mgrwt>
<rscale>  0 0.12499777E+03</rscale>
<asrwt>0</asrwt>
<pdfrwt beam="1">  1        4 0.25760125E-01 0.12499777E+03</pdfrwt>
<pdfrwt beam="2">  1       -4 0.35889701E-02 0.12499777E+03</pdfrwt>
<totfact> 0.91718248E+03</totfact>
</mgrwt>
</event>
<event>
 5    1  0.3317939E-002  0.1250056E+03  0.7818608E-02  0.1235061E+00
          4   -1    0    0  501    0  0.00000000000E+00  0.00000000000E+00  0.74481056753E+02  0.74491883551E+02  0.12700000000E+01 0.  1.
         -4   -1    0    0    0  501 -0.00000000000E+00 -0.00000000000E+00 -0.52428593020E+02  0.52443972638E+02  0.12700000000E+01 0.  1.
         25    2    1    2    0    0  0.00000000000E+00  0.00000000000E+00  0.22052463733E+02  0.12693585619E+03  0.12500560159E+03 0.  0.
    9000005    1    3    3    0    0 -0.51861603540E+02  0.20954570897E+02  0.39329191573E+02  0.68384978416E+02  0.10000000000E+01 0.  0.
    9000005    1    3    3    0    0  0.51861603540E+02 -0.20954570897E+02 -0.17276727840E+02  0.58550877774E+02  0.10000000000E+01 0.  0.
<mgrwt>
<rscale>  0 0.12500560E+03</rscale>
<asrwt>0</asrwt>
<pdfrwt beam="1">  1        4 0.11460640E-01 0.12500560E+03</pdfrwt>
<pdfrwt beam="2">  1       -4 0.80679532E-02 0.12500560E+03</pdfrwt>
<totfact> 0.10409223E+04</totfact>
</mgrwt>
</event>
<event>
 5    1  0.3317939E-002  0.1250011E+03  0.7818608E-02  0.1235068E+00
         -4   -1    0    0    0  501 -0.00000000000E+00  0.00000000000E+00  0.35273482417E+02  0.35296337797E+02  0.12700000000E+01 0. -1.
          4   -1    0    0  501    0  0.00000000000E+00 -0.00000000000E+00 -0.11068142234E+03  0.11068870833E+03  0.12700000000E+01 0. -1.
         25    2    1    2    0    0  0.00000000000E+00  0.00000000000E+00 -0.75407939924E+02  0.14598504613E+03  0.12500110515E+03 0.  0.
    9000005    1    3    3    0    0  0.28267490949E+02  0.35786032622E+02 -0.87603982007E+02  0.98768157009E+02  0.10000000000E+01 0.  0.
    9000005    1    3    3    0    0 -0.28267490949E+02 -0.35786032622E+02  0.12196042083E+02  0.47216889117E+02  0.10000000000E+01 0.  0.
<mgrwt>
<rscale>  0 0.12500111E+03</rscale>
<asrwt>0</asrwt>
<pdfrwt beam="2">  1        4 0.17030230E-01 0.12500111E+03</pdfrwt>
<pdfrwt beam="1">  1       -4 0.54290082E-02 0.12500111E+03</pdfrwt>
<totfact> 0.10010764E+04</totfact>
</mgrwt>
</event>
<event>
 5    1  0.3317939E-002  0.1249970E+03  0.7818608E-02  0.1235074E+00
          4   -1    0    0  501    0  0.00000000000E+00  0.00000000000E+00  0.30794828682E+02  0.30821005395E+02  0.12700000000E+01 0. -1.
         -4   -1    0    0    0  501 -0.00000000000E+00 -0.00000000000E+00 -0.12675833024E+03  0.12676469219E+03  0.12700000000E+01 0. -1.
         25    2    1    2    0    0  0.00000000000E+00  0.00000000000E+00 -0.95963501562E+02  0.15758569759E+03  0.12499703377E+03 0.  0.
    9000005    1    3    3    0    0  0.24150326164E+02  0.15970738416E+02 -0.11779809740E+03  0.12130826225E+03  0.10000000000E+01 0.  0.
    9000005    1    3    3    0    0 -0.24150326164E+02 -0.15970738416E+02  0.21834595835E+02  0.36277435338E+02  0.10000000000E+01 0.  0.
<mgrwt>
<rscale>  0 0.12499703E+03</rscale>
<asrwt>0</asrwt>
<pdfrwt beam="1">  1        4 0.47401690E-02 0.12499703E+03</pdfrwt>
<pdfrwt beam="2">  1       -4 0.19503784E-01 0.12499703E+03</pdfrwt>
<totfact> 0.97816796E+03</totfact>
</mgrwt>
</event>
<event>
 5    1  0.3317939E-002  0.1250011E+03  0.7818608E-02  0.1235068E+00
          4   -1    0    0  501    0  0.00000000000E+00  0.00000000000E+00  0.93978908816E+01  0.94833144534E+01  0.12700000000E+01 0.  1.
         -4   -1    0    0    0  501 -0.00000000000E+00 -0.00000000000E+00 -0.41369238234E+03  0.41369433173E+03  0.12700000000E+01 0.  1.
         25    2    1    2    0    0  0.00000000000E+00  0.00000000000E+00 -0.40429449146E+03  0.42317764619E+03  0.12500113762E+03 0.  0.
    9000005    1    3    3    0    0 -0.44163350100E+02  0.24335687940E+02 -0.32711786139E+03  0.33098296397E+03  0.10000000000E+01 0.  0.
    9000005    1    3    3    0    0  0.44163350100E+02 -0.24335687940E+02 -0.77176630071E+02  0.92194682215E+02  0.10000000000E+01 0.  0.
<mgrwt>
<rscale>  0 0.12500114E+03</rscale>
<asrwt>0</asrwt>
<pdfrwt beam="1">  1        4 0.14525507E-02 0.12500114E+03</pdfrwt>
<pdfrwt beam="2">  1       -4 0.63651689E-01 0.12500114E+03</pdfrwt>
<totfact> 0.62357744E+03</totfact>
</mgrwt>
</event>
<event>
 5    1  0.3317939E-002  0.1250008E+03  0.7818608E-02  0.1235068E+00
         -4   -1    0    0    0  501 -0.00000000000E+00  0.00000000000E+00  0.70679422474E+01  0.71811355379E+01  0.12700000000E+01 0.  1.
          4   -1    0    0  501    0  0.00000000000E+00 -0.00000000000E+00 -0.54817427903E+03  0.54817575019E+03  0.12700000000E+01 0.  1.
         25    2    1    2    0    0  0.00000000000E+00  0.00000000000E+00 -0.54110633679E+03  0.55535688573E+03  0.12500081125E+03 0.  0.
    9000005    1    3    3    0    0  0.32575952016E+02 -0.34937956829E+02 -0.91542704876E+02  0.10326141725E+03  0.10000000000E+01 0.  0.
    9000005    1    3    3    0    0 -0.32575952016E+02  0.34937956829E+02 -0.44956363191E+03  0.45209546847E+03  0.10000000000E+01 0.  0.
<mgrwt>
<rscale>  0 0.12500081E+03</rscale>
<asrwt>0</asrwt>
<pdfrwt beam="2">  1        4 0.84343292E-01 0.12500081E+03</pdfrwt>
<pdfrwt beam="1">  1       -4 0.10961965E-02 0.12500081E+03</pdfrwt>
<totfact> 0.51811672E+03</totfact>
</mgrwt>
</event>
<event>
 5    1  0.3317939E-002  0.1249976E+03  0.7818608E-02  0.1235073E+00
         -4   -1    0    0    0  501 -0.00000000000E+00  0.00000000000E+00  0.49370697051E+02  0.49387028937E+02  0.12700000000E+01 0.  1.
          4   -1    0    0  501    0  0.00000000000E+00 -0.00000000000E+00 -0.79083252653E+02  0.79093449477E+02  0.12700000000E+01 0.  1.
         25    2    1    2    0    0  0.00000000000E+00  0.00000000000E+00 -0.29712555602E+02  0.12848047841E+03  0.12499758947E+03 0.  0.
    9000005    1    3    3    0    0  0.42315565739E+01  0.58069671350E+01 -0.78662294597E+02  0.78996098192E+02  0.10000000000E+01 0.  0.
    9000005    1    3    3    0    0 -0.42315565739E+01 -0.58069671350E+01  0.48949738995E+02  0.49484380222E+02  0.10000000000E+01 0.  0.
<mgrwt>
<rscale>  0 0.12499759E+03</rscale>
<asrwt>0</asrwt>
<pdfrwt beam="2">  1        4 0.12168695E-01 0.12499759E+03</pdfrwt>
<pdfrwt beam="1">  1       -4 0.75975325E-02 0.12499759E+03</pdfrwt>
<totfact> 0.10377689E+04</totfact>
</mgrwt>
</event>
<event>
 5    1  0.3317939E-002  0.1250024E+03  0.7818608E-02  0.1235066E+00
         -4   -1    0    0    0  501 -0.00000000000E+00  0.00000000000E+00  0.31245434329E+03  0.31245692430E+03  0.12700000000E+01 0.  1.
          4   -1    0    0  501    0  0.00000000000E+00 -0.00000000000E+00 -0.12467411371E+02  0.12531929073E+02  0.12700000000E+01 0.  1.
         25    2    1    2    0    0  0.00000000000E+00  0.00000000000E+00  0.29998693192E+03  0.32498885337E+03  0.12500238195E+03 0.  0.
    9000005    1    3    3    0    0 -0.25054446005E+02 -0.56680444182E+02  0.17095435573E+03  0.18184276109E+03  0.10000000000E+01 0.  0.
    9000005    1    3    3    0    0  0.25054446005E+02  0.56680444182E+02  0.12903257620E+03  0.14314609229E+03  0.10000000000E+01 0.  0.
<mgrwt>
<rscale>  0 0.12500238E+03</rscale>
<asrwt>0</asrwt>
<pdfrwt beam="2">  1        4 0.19232249E-02 0.12500238E+03</pdfrwt>
<pdfrwt beam="1">  1       -4 0.48075057E-01 0.12500238E+03</pdfrwt>
<totfact> 0.72562840E+03</totfact>
</mgrwt>
</event>
<event>
 5    1  0.3317939E-002  0.1250001E+03  0.7818608E-02  0.1235069E+00
          4   -1    0    0  501    0  0.00000000000E+00  0.00000000000E+00  0.13354277846E+03  0.13354881721E+03  0.12700000000E+01 0. -1.
         -4   -1    0    0    0  501 -0.00000000000E+00 -0.00000000000E+00 -0.29230478685E+02  0.29258055031E+02  0.12700000000E+01 0. -1.
         25    2    1    2    0    0  0.00000000000E+00  0.00000000000E+00  0.10431229977E+03  0.16280687224E+03  0.12500008706E+03 0.  0.
    9000005    1    3    3    0    0 -0.45116228579E+02 -0.18645298715E+02  0.10297079407E+03  0.11396098313E+03  0.10000000000E+01 0.  0.
    9000005    1    3    3    0    0  0.45116228579E+02  0.18645298715E+02  0.13415057048E+01  0.48845889109E+02  0.10000000000E+01 0.  0.
<mgrwt>
<rscale>  0 0.12500009E+03</rscale>
<asrwt>0</asrwt>
<pdfrwt beam="1">  1        4 0.20547628E-01 0.12500009E+03</pdfrwt>
<pdfrwt beam="2">  1       -4 0.44995825E-02 0.12500009E+03</pdfrwt>
<totfact> 0.96804166E+03</totfact>
</mgrwt>
</event>
<event>
 5    1  0.3317939E-002  0.1249980E+03  0.7818608E-02  0.1235072E+00
         -4   -1    0    0    0  501 -0.00000000000E+00  0.00000000000E+00  0.13405863712E+03  0.13406465264E+03  0.12700000000E+01 0. -1.
          4   -1    0    0  501    0  0.00000000000E+00 -0.00000000000E+00 -0.29116931393E+02  0.29144615176E+02  0.12700000000E+01 0. -1.
         25    2    1    2    0    0  0.00000000000E+00  0.00000000000E+00  0.10494170573E+03  0.16320926781E+03  0.12499801398E+03 0.  0.
    9000005    1    3    3    0    0  0.39525091892E+01  0.33397191270E+02  0.12124183062E+03  0.12582359161E+03  0.10000000000E+01 0.  0.
    9000005    1    3    3    0    0 -0.39525091892E+01 -0.33397191270E+02 -0.16300124893E+02  0.37385676203E+02  0.10000000000E+01 0.  0.
<mgrwt>
<rscale>  0 0.12499801E+03</rscale>
<asrwt>0</asrwt>
<pdfrwt beam="2">  1        4 0.44821201E-02 0.12499801E+03</pdfrwt>
<pdfrwt beam="1">  1       -4 0.20626998E-01 0.12499801E+03</pdfrwt>
<totfact> 0.96731923E+03</totfact>
</mgrwt>
</event>
<event>
 5    1  0.3317939E-002  0.1249967E+03  0.7818608E-02  0.1235075E+00
          4   -1    0    0  501    0  0.00000000000E+00  0.00000000000E+00  0.16251684679E+03  0.16252180897E+03  0.12700000000E+01 0. -1.
         -4   -1    0    0    0  501 -0.00000000000E+00 -0.00000000000E+00 -0.24012574380E+02  0.24046135415E+02  0.12700000000E+01 0. -1.
         25    2    1    2    0    0  0.00000000000E+00  0.00000000000E+00  0.13850427241E+03  0.18656794438E+03  0.12499665754E+03 0.  0.
    9000005    1    3    3    0    0 -0.13920121673E+02  0.59408532596E+02  0.49121751677E+02  0.78339581441E+02  0.10000000000E+01 0.  0.
    9000005    1    3    3    0    0  0.13920121673E+02 -0.59408532596E+02  0.89382520731E+02  0.10822836294E+03  0.10000000000E+01 0.  0.
<mgrwt>
<rscale>  0 0.12499666E+03</rscale>
<asrwt>0</asrwt>
<pdfrwt beam="1">  1        4 0.25005554E-01 0.12499666E+03</pdfrwt>
<pdfrwt beam="2">  1       -4 0.36972057E-02 0.12499666E+03</pdfrwt>
<totfact> 0.92454859E+03</totfact>
</mgrwt>
</event>
<event>
 5    1  0.3317939E-002  0.1249938E+03  0.7818608E-02  0.1235079E+00
          4   -1    0    0  501    0  0.00000000000E+00  0.00000000000E+00  0.29540168825E+02  0.29567456336E+02  0.12700000000E+01 0.  1.
         -4   -1    0    0    0  501 -0.00000000000E+00 -0.00000000000E+00 -0.13213068547E+03  0.13213678876E+03  0.12700000000E+01 0.  1.
         25    2    1    2    0    0  0.00000000000E+00  0.00000000000E+00 -0.10259051665E+03  0.16170424509E+03  0.12499379495E+03 0.  0.
    9000005    1    3    3    0    0  0.44401809380E+02 -0.11971955922E+02  0.34392417307E+01  0.46126746997E+02  0.10000000000E+01 0.  0.
    9000005    1    3    3    0    0 -0.44401809380E+02  0.11971955922E+02 -0.10602975838E+03  0.11557749810E+03  0.10000000000E+01 0.  0.
<mgrwt>
<rscale>  0 0.12499379E+03</rscale>
<asrwt>0</asrwt>
<pdfrwt beam="1">  1        4 0.45472100E-02 0.12499379E+03</pdfrwt>
<pdfrwt beam="2">  1       -4 0.20330366E-01 0.12499379E+03</pdfrwt>
<totfact> 0.97028753E+03</totfact>
</mgrwt>
</event>
<event>
 5    1  0.3317939E-002  0.1249982E+03  0.7818608E-02  0.1235072E+00
         -4   -1    0    0    0  501 -0.00000000000E+00  0.00000000000E+00  0.68651878547E+02  0.68663624489E+02  0.12700000000E+01 0.  1.
          4   -1    0    0  501    0  0.00000000000E+00 -0.00000000000E+00 -0.56874077600E+02  0.56888255403E+02  0.12700000000E+01 0.  1.
         25    2    1    2    0    0  0.00000000000E+00  0.00000000000E+00  0.11777800947E+02  0.12555187989E+03  0.12499823178E+03 0.  0.
    9000005    1    3    3    0    0 -0.46629596936E+02  0.40755087644E+02  0.14283129577E+02  0.63563387809E+02  0.10000000000E+01 0.  0.
    9000005    1    3    3    0    0  0.46629596936E+02 -0.40755087644E+02 -0.25053286293E+01  0.61988492083E+02  0.10000000000E+01 0.  0.
<mgrwt>
<rscale>  0 0.12499823E+03</rscale>
<asrwt>0</asrwt>
<pdfrwt beam="2">  1        4 0.87518522E-02 0.12499823E+03</pdfrwt>
<pdfrwt beam="1">  1       -4 0.10563822E-01 0.12499823E+03</pdfrwt>
<totfact> 0.10441225E+04</totfact>
</mgrwt>
</event>
<event>
 5    1  0.3317939E-002  0.1249952E+03  0.7818608E-02  0.1235077E+00
         -4   -1    0    0    0  501 -0.00000000000E+00  0.00000000000E+00  0.52888327757E+02  0.52903573725E+02  0.12700000000E+01 0. -1.
          4   -1    0    0  501    0  0.00000000000E+00 -0.00000000000E+00 -0.73821401119E+02  0.73832324650E+02  0.12700000000E+01 0. -1.
         25    2    1    2    0    0  0.00000000000E+00  0.00000000000E+00 -0.20933073362E+02  0.12673589838E+03  0.12499517741E+03 0.  0.
    9000005    1    3    3    0    0 -0.10458494428E+02  0.45838356265E+02 -0.52203043985E+02  0.70261602687E+02  0.10000000000E+01 0.  0.
    9000005    1    3    3    0    0  0.10458494428E+02 -0.45838356265E+02  0.31269970623E+02  0.56474295689E+02  0.10000000000E+01 0.  0.
<mgrwt>
<rscale>  0 0.12499518E+03</rscale>
<asrwt>0</asrwt>
<pdfrwt beam="2">  1        4 0.11359152E-01 0.12499518E+03</pdfrwt>
<pdfrwt beam="1">  1       -4 0.81386789E-02 0.12499518E+03</pdfrwt>
<totfact> 0.10416023E+04</totfact>
</mgrwt>
</event>
<event>
 5    1  0.3317939E-002  0.1250027E+03  0.7818608E-02  0.1235065E+00
         -4   -1    0    0    0  501 -0.00000000000E+00  0.00000000000E+00  0.11473740308E+03  0.11474443153E+03  0.12700000000E+01 0.  1.
          4   -1    0    0  501    0  0.00000000000E+00 -0.00000000000E+00 -0.34026675968E+02  0.34050368242E+02  0.12700000000E+01 0.  1.
         25    2    1    2    0    0  0.00000000000E+00  0.00000000000E+00  0.80710727114E+02  0.14879479977E+03  0.12500268384E+03 0.  0.
    9000005    1    3    3    0    0  0.18245763020E+02 -0.21784405076E+02 -0.25897642438E+02  0.38459797926E+02  0.10000000000E+01 0.  0.
    9000005    1    3    3    0    0 -0.18245763020E+02  0.21784405076E+02  0.10660836955E+03  0.11033500184E+03  0.10000000000E+01 0.  0.
<mgrwt>
<rscale>  0 0.12500268E+03</rscale>
<asrwt>0</asrwt>
<pdfrwt beam="2">  1        4 0.52372363E-02 0.12500268E+03</pdfrwt>
<pdfrwt beam="1">  1       -4 0.17654271E-01 0.12500268E+03</pdfrwt>
<totfact> 0.99538467E+03</totfact>
</mgrwt>
</event>
<event>
 5    1  0.3317939E-002  0.1249993E+03  0.7818608E-02  0.1235070E+00
          4   -1    0    0  501    0  0.00000000000E+00  0.00000000000E+00  0.25898770704E+02  0.25929890551E+02  0.12700000000E+01 0.  1.
         -4   -1    0    0    0  501 -0.00000000000E+00 -0.00000000000E+00 -0.15070167504E+03  0.15070702624E+03  0.12700000000E+01 0.  1.
         25    2    1    2    0    0  0.00000000000E+00  0.00000000000E+00 -0.12480290433E+03  0.17663691679E+03  0.12499934178E+03 0.  0.
    9000005    1    3    3    0    0  0.42689282280E+02 -0.16800776904E+02 -0.12236378287E+03  0.13068487397E+03  0.10000000000E+01 0.  0.
    9000005    1    3    3    0    0 -0.42689282280E+02  0.16800776904E+02 -0.24391214618E+01  0.45952042823E+02  0.10000000000E+01 0.  0.
<mgrwt>
<rscale>  0 0.12499934E+03</rscale>
<asrwt>0</asrwt>
<pdfrwt beam="1">  1        4 0.39872318E-02 0.12499934E+03</pdfrwt>
<pdfrwt beam="2">  1       -4 0.23187678E-01 0.12499934E+03</pdfrwt>
<totfact> 0.94227287E+03</totfact>
</mgrwt>
</event>
<event>
 5    1  0.3317939E-002  0.1249995E+03  0.7818608E-02  0.1235070E+00
         -4   -1    0    0    0  501 -0.00000000000E+00  0.00000000000E+00  0.49748294369E+02  0.49764502335E+02  0.12700000000E+01 0.  1.
          4   -1    0    0  501    0  0.00000000000E+00 -0.00000000000E+00 -0.78485524825E+02  0.78495799296E+02  0.12700000000E+01 0.  1.
         25    2    1    2    0    0  0.00000000000E+00  0.00000000000E+00 -0.28737230456E+02  0.12826030163E+03  0.12499950624E+03 0.  0.
    9000005    1    3    3    0    0 -0.51688196001E+02 -0.30168706031E+02 -0.32821025468E+02  0.68264486684E+02  0.10000000000E+01 0.  0.
    9000005    1    3    3    0    0  0.51688196001E+02  0.30168706031E+02  0.40837950121E+01  0.59995814947E+02  0.10000000000E+01 0.  0.
<mgrwt>
<rscale>  0 0.12499951E+03</rscale>
<asrwt>0</asrwt>
<pdfrwt beam="2">  1        4 0.12076733E-01 0.12499951E+03</pdfrwt>
<pdfrwt beam="1">  1       -4 0.76556208E-02 0.12499951E+03</pdfrwt>
<totfact> 0.10381986E+04</totfact>
</mgrwt>
</event>
<event>
 5    1  0.3317939E-002  0.1250003E+03  0.7818608E-02  0.1235069E+00
         -4   -1    0    0    0  501 -0.00000000000E+00  0.00000000000E+00  0.79567821799E+02  0.79577956532E+02  0.12700000000E+01 0. -1.
          4   -1    0    0  501    0  0.00000000000E+00 -0.00000000000E+00 -0.49072098896E+02  0.49088530127E+02  0.12700000000E+01 0. -1.
         25    2    1    2    0    0  0.00000000000E+00  0.00000000000E+00  0.30495722903E+02  0.12866648666E+03  0.12500030269E+03 0.  0.
    9000005    1    3    3    0    0  0.36796304239E+02 -0.20251976015E+02  0.62877663239E+02  0.75622159931E+02  0.10000000000E+01 0.  0.
    9000005    1    3    3    0    0 -0.36796304239E+02  0.20251976015E+02 -0.32381940336E+02  0.53044326728E+02  0.10000000000E+01 0.  0.
<mgrwt>
<rscale>  0 0.12500030E+03</rscale>
<asrwt>0</asrwt>
<pdfrwt beam="2">  1        4 0.75515973E-02 0.12500030E+03</pdfrwt>
<pdfrwt beam="1">  1       -4 0.12243247E-01 0.12500030E+03</pdfrwt>
<totfact> 0.10373048E+04</totfact>
</mgrwt>
</event>
<event>
 5    1  0.3317939E-002  0.1250016E+03  0.7818608E-02  0.1235067E+00
         -4   -1    0    0    0  501 -0.00000000000E+00  0.00000000000E+00  0.17160300367E+02  0.17207231291E+02  0.12700000000E+01 0.  1.
          4   -1    0    0  501    0  0.00000000000E+00 -0.00000000000E+00 -0.22727936042E+03  0.22728290867E+03  0.12700000000E+01 0.  1.
         25    2    1    2    0    0  0.00000000000E+00  0.00000000000E+00 -0.21011906005E+03  0.24449013996E+03  0.12500163655E+03 0.  0.
    9000005    1    3    3    0    0  0.99017156267E+01 -0.35843754085E+02 -0.68250093088E+01  0.37820621774E+02  0.10000000000E+01 0.  0.
    9000005    1    3    3    0    0 -0.99017156267E+01  0.35843754085E+02 -0.20329405074E+03  0.20666951819E+03  0.10000000000E+01 0.  0.
<mgrwt>
<rscale>  0 0.12500164E+03</rscale>
<asrwt>0</asrwt>
<pdfrwt beam="2">  1        4 0.34969936E-01 0.12500164E+03</pdfrwt>
<pdfrwt beam="1">  1       -4 0.26439294E-02 0.12500164E+03</pdfrwt>
<totfact> 0.83130122E+03</totfact>
</mgrwt>
</event>
<event>
 5    1  0.3317939E-002  0.1250040E+03  0.7818608E-02  0.1235063E+00
          4   -1    0    0  501    0  0.00000000000E+00  0.00000000000E+00  0.77593364014E+02  0.77603756604E+02  0.12700000000E+01 0.  1.
         -4   -1    0    0    0  501 -0.00000000000E+00 -0.00000000000E+00 -0.50324059389E+02  0.50340081977E+02  0.12700000000E+01 0.  1.
         25    2    1    2    0    0  0.00000000000E+00  0.00000000000E+00  0.27269304625E+02  0.12794383858E+03  0.12500404336E+03 0.  0.
    9000005    1    3    3    0    0 -0.40334185080E+02 -0.32772513200E+01  0.62377262681E+02  0.74360673490E+02  0.10000000000E+01 0.  0.
    9000005    1    3    3    0    0  0.40334185080E+02  0.32772513200E+01 -0.35107958056E+02  0.53583165091E+02  0.10000000000E+01 0.  0.
<mgrwt>
<rscale>  0 0.12500404E+03</rscale>
<asrwt>0</asrwt>
<pdfrwt beam="1">  1        4 0.11939473E-01 0.12500404E+03</pdfrwt>
<pdfrwt beam="2">  1       -4 0.77441949E-02 0.12500404E+03</pdfrwt>
<totfact> 0.10387752E+04</totfact>
</mgrwt>
</event>
<event>
 5    1  0.3317939E-002  0.1249929E+03  0.7818608E-02  0.1235080E+00
         -4   -1    0    0    0  501 -0.00000000000E+00  0.00000000000E+00  0.23084993237E+03  0.23085342574E+03  0.12700000000E+01 0.  1.
          4   -1    0    0  501    0  0.00000000000E+00 -0.00000000000E+00 -0.16891785536E+02  0.16939460398E+02  0.12700000000E+01 0.  1.
         25    2    1    2    0    0  0.00000000000E+00  0.00000000000E+00  0.21395814683E+03  0.24779288614E+03  0.12499290309E+03 0.  0.
    9000005    1    3    3    0    0 -0.89527111560E+01 -0.61101743802E+02  0.88043526832E+02  0.10754643997E+03  0.10000000000E+01 0.  0.
    9000005    1    3    3    0    0  0.89527111560E+01  0.61101743802E+02  0.12591462000E+03  0.14024644617E+03  0.10000000000E+01 0.  0.
<mgrwt>
<rscale>  0 0.12499290E+03</rscale>
<asrwt>0</asrwt>
<pdfrwt beam="2">  1        4 0.26026724E-02 0.12499290E+03</pdfrwt>
<pdfrwt beam="1">  1       -4 0.35519309E-01 0.12499290E+03</pdfrwt>
<totfact> 0.82663345E+03</totfact>
</mgrwt>
</event>
<event>
 5    1  0.3317939E-002  0.1250001E+03  0.7818608E-02  0.1235069E+00
          4   -1    0    0  501    0  0.00000000000E+00  0.00000000000E+00  0.14922291064E+02  0.14976236863E+02  0.12700000000E+01 0. -1.
         -4   -1    0    0    0  501 -0.00000000000E+00 -0.00000000000E+00 -0.26124527865E+03  0.26124836558E+03  0.12700000000E+01 0. -1.
         25    2    1    2    0    0  0.00000000000E+00  0.00000000000E+00 -0.24632298758E+03  0.27622460244E+03  0.12500006712E+03 0.  0.
    9000005    1    3    3    0    0 -0.15368881882E+02 -0.12045349742E+02 -0.25434150717E+03  0.25509193490E+03  0.10000000000E+01 0.  0.
    9000005    1    3    3    0    0  0.15368881882E+02  0.12045349742E+02  0.80185195907E+01  0.21132667535E+02  0.10000000000E+01 0.  0.
<mgrwt>
<rscale>  0 0.12500007E+03</rscale>
<asrwt>0</asrwt>
<pdfrwt beam="1">  1        4 0.23001244E-02 0.12500007E+03</pdfrwt>
<pdfrwt beam="2">  1       -4 0.40195965E-01 0.12500007E+03</pdfrwt>
<totfact> 0.78681257E+03</totfact>
</mgrwt>
</event>
<event>
 5    1  0.3317939E-002  0.1249996E+03  0.7818608E-02  0.1235070E+00
         -4   -1    0    0    0  501 -0.00000000000E+00  0.00000000000E+00  0.11114650509E+04  0.11114657765E+04  0.12700000000E+01 0.  1.
          4   -1    0    0  501    0  0.00000000000E+00 -0.00000000000E+00 -0.33990008924E+01  0.36285130655E+01  0.12700000000E+01 0.  1.
         25    2    1    2    0    0  0.00000000000E+00  0.00000000000E+00  0.11080660500E+04  0.11150942895E+04  0.12499961353E+03 0.  0.
    9000005    1    3    3    0    0  0.37882937174E+02  0.31047900592E+02  0.90023945479E+03  0.90157149746E+03  0.10000000000E+01 0.  0.
    9000005    1    3    3    0    0 -0.37882937174E+02 -0.31047900592E+02  0.20782659520E+03  0.21352279207E+03  0.10000000000E+01 0.  0.
<mgrwt>
<rscale>  0 0.12499961E+03</rscale>
<asrwt>0</asrwt>
<pdfrwt beam="2">  1        4 0.54063384E-03 0.12499961E+03</pdfrwt>
<pdfrwt beam="1">  1       -4 0.17101232E+00 0.12499961E+03</pdfrwt>
<totfact> 0.27046007E+03</totfact>
</mgrwt>
</event>
<event>
 5    1  0.3317939E-002  0.1249953E+03  0.7818608E-02  0.1235077E+00
          4   -1    0    0  501    0  0.00000000000E+00  0.00000000000E+00  0.11223285826E+03  0.11224004354E+03  0.12700000000E+01 0. -1.
         -4   -1    0    0    0  501 -0.00000000000E+00 -0.00000000000E+00 -0.34782353504E+02  0.34805531389E+02  0.12700000000E+01 0. -1.
         25    2    1    2    0    0  0.00000000000E+00  0.00000000000E+00  0.77450504757E+02  0.14704557493E+03  0.12499528159E+03 0.  0.
    9000005    1    3    3    0    0 -0.33818491676E+02 -0.39283533060E+02 -0.23324121770E+01  0.51897268671E+02  0.10000000000E+01 0.  0.
    9000005    1    3    3    0    0  0.33818491676E+02  0.39283533060E+02  0.79782916934E+02  0.95148306257E+02  0.10000000000E+01 0.  0.
<mgrwt>
<rscale>  0 0.12499528E+03</rscale>
<asrwt>0</asrwt>
<pdfrwt beam="1">  1        4 0.17268929E-01 0.12499528E+03</pdfrwt>
<pdfrwt beam="2">  1       -4 0.53534670E-02 0.12499528E+03</pdfrwt>
<totfact> 0.99906525E+03</totfact>
</mgrwt>
</event>
<event>
 5    1  0.3317939E-002  0.1250002E+03  0.7818608E-02  0.1235069E+00
          4   -1    0    0  501    0  0.00000000000E+00  0.00000000000E+00  0.27120075680E+02  0.27149795669E+02  0.12700000000E+01 0.  1.
         -4   -1    0    0    0  501 -0.00000000000E+00 -0.00000000000E+00 -0.14392450452E+03  0.14393010769E+03  0.12700000000E+01 0.  1.
         25    2    1    2    0    0  0.00000000000E+00  0.00000000000E+00 -0.11680442884E+03  0.17107990336E+03  0.12500023495E+03 0.  0.
    9000005    1    3    3    0    0 -0.40750014171E+02  0.42902198854E+00 -0.12324320091E+03  0.12980999301E+03  0.10000000000E+01 0.  0.
    9000005    1    3    3    0    0  0.40750014171E+02 -0.42902198854E+00  0.64387720705E+01  0.41269910354E+02  0.10000000000E+01 0.  0.
<mgrwt>
<rscale>  0 0.12500023E+03</rscale>
<asrwt>0</asrwt>
<pdfrwt beam="1">  1        4 0.41750366E-02 0.12500023E+03</pdfrwt>
<pdfrwt beam="2">  1       -4 0.22144948E-01 0.12500023E+03</pdfrwt>
<totfact> 0.95247238E+03</totfact>
</mgrwt>
</event>
<event>
 4    1  0.3317939E-002  0.1254912E+03  0.7818608E-02  0.1234304E+00
          4   -1    0    0  501    0  0.00000000000E+00  0.00000000000E+00  0.15568343550E+03  0.15568861548E+03  0.12700000000E+01 0.  1.
         -4   -1    0    0    0  501 -0.00000000000E+00 -0.00000000000E+00 -0.25267013235E+02  0.25298910210E+02  0.12700000000E+01 0.  1.
    9000005    1    1    2    0    0  0.54030722720E+02 -0.17521807657E+02  0.26787454669E+02  0.62808442656E+02  0.10000000000E+01 0.  0.
    9000005    1    1    2    0    0 -0.54030722720E+02  0.17521807657E+02  0.10362896760E+03  0.11817908303E+03  0.10000000000E+01 0.  0.
<mgrwt>
<rscale>  0 0.12549120E+03</rscale>
<asrwt>0</asrwt>
<pdfrwt beam="1">  1        4 0.23954150E-01 0.12549120E+03</pdfrwt>
<pdfrwt beam="2">  1       -4 0.38900849E-02 0.12549120E+03</pdfrwt>
<totfact> 0.92417944E+03</totfact>
</mgrwt>
</event>
<event>
 5    1  0.3317939E-002  0.1249992E+03  0.7818608E-02  0.1235071E+00
         -4   -1    0    0    0  501 -0.00000000000E+00  0.00000000000E+00  0.10757886848E+03  0.10758636458E+03  0.12700000000E+01 0. -1.
          4   -1    0    0  501    0  0.00000000000E+00 -0.00000000000E+00 -0.36290215161E+02  0.36312430605E+02  0.12700000000E+01 0. -1.
         25    2    1    2    0    0  0.00000000000E+00  0.00000000000E+00  0.71288653318E+02  0.14389879518E+03  0.12499916465E+03 0.  0.
    9000005    1    3    3    0    0 -0.98510861973E+01 -0.42470846480E+02  0.87183826010E+02  0.97482491852E+02  0.10000000000E+01 0.  0.
    9000005    1    3    3    0    0  0.98510861973E+01  0.42470846480E+02 -0.15895172692E+02  0.46416303331E+02  0.10000000000E+01 0.  0.
<mgrwt>
<rscale>  0 0.12499916E+03</rscale>
<asrwt>0</asrwt>
<pdfrwt beam="2">  1        4 0.55853956E-02 0.12499916E+03</pdfrwt>
<pdfrwt beam="1">  1       -4 0.16552880E-01 0.12499916E+03</pdfrwt>
<totfact> 0.10053600E+04</totfact>
</mgrwt>
</event>
<event>
 5    1  0.3317939E-002  0.1249977E+03  0.7818608E-02  0.1235073E+00
          4   -1    0    0  501    0  0.00000000000E+00  0.00000000000E+00  0.41633134315E+02  0.41652500200E+02  0.12700000000E+01 0.  1.
         -4   -1    0    0    0  501 -0.00000000000E+00 -0.00000000000E+00 -0.93776501769E+02  0.93785101077E+02  0.12700000000E+01 0.  1.
         25    2    1    2    0    0  0.00000000000E+00  0.00000000000E+00 -0.52143367454E+02  0.13543760128E+03  0.12499765226E+03 0.  0.
    9000005    1    3    3    0    0  0.45969296690E+02  0.37825507656E+02 -0.46663090456E+02  0.75646475652E+02  0.10000000000E+01 0.  0.
    9000005    1    3    3    0    0 -0.45969296690E+02 -0.37825507656E+02 -0.54802769984E+01  0.59791125626E+02  0.10000000000E+01 0.  0.
<mgrwt>
<rscale>  0 0.12499765E+03</rscale>
<asrwt>0</asrwt>
<pdfrwt beam="1">  1        4 0.64072488E-02 0.12499765E+03</pdfrwt>
<pdfrwt beam="2">  1       -4 0.14429305E-01 0.12499765E+03</pdfrwt>
<totfact> 0.10229397E+04</totfact>
</mgrwt>
</event>
<event>
 5    1  0.3317939E-002  0.1250027E+03  0.7818608E-02  0.1235065E+00
          4   -1    0    0  501    0  0.00000000000E+00  0.00000000000E+00  0.21349164008E+03  0.21349541747E+03  0.12700000000E+01 0. -1.
         -4   -1    0    0    0  501 -0.00000000000E+00 -0.00000000000E+00 -0.18271791804E+02  0.18315874965E+02  0.12700000000E+01 0. -1.
         25    2    1    2    0    0  0.00000000000E+00  0.00000000000E+00  0.19521984827E+03  0.23181129244E+03  0.12500274454E+03 0.  0.
    9000005    1    3    3    0    0 -0.18839974874E+02 -0.41435069680E+02  0.18201103258E+02  0.49031518561E+02  0.10000000000E+01 0.  0.
    9000005    1    3    3    0    0  0.18839974874E+02  0.41435069680E+02  0.17701874501E+03  0.18277977388E+03  0.10000000000E+01 0.  0.
<mgrwt>
<rscale>  0 0.12500274E+03</rscale>
<asrwt>0</asrwt>
<pdfrwt beam="1">  1        4 0.32848549E-01 0.12500274E+03</pdfrwt>
<pdfrwt beam="2">  1       -4 0.28147265E-02 0.12500274E+03</pdfrwt>
<totfact> 0.85027039E+03</totfact>
</mgrwt>
</event>
<event>
 5    1  0.3317939E-002  0.1250015E+03  0.7818608E-02  0.1235067E+00
         -4   -1    0    0    0  501 -0.00000000000E+00  0.00000000000E+00  0.70070689162E+03  0.70070804253E+03  0.12700000000E+01 0.  1.
          4   -1    0    0  501    0  0.00000000000E+00 -0.00000000000E+00 -0.55013657430E+01  0.56460539351E+01  0.12700000000E+01 0.  1.
         25    2    1    2    0    0  0.00000000000E+00  0.00000000000E+00  0.69520552587E+03  0.70635409646E+03  0.12500154551E+03 0.  0.
    9000005    1    3    3    0    0  0.32958398187E+02 -0.11025167624E+02  0.64109102151E+03  0.64203310521E+03  0.10000000000E+01 0.  0.
    9000005    1    3    3    0    0 -0.32958398187E+02  0.11025167624E+02  0.54114504367E+02  0.64320991247E+02  0.10000000000E+01 0.  0.
<mgrwt>
<rscale>  0 0.12500155E+03</rscale>
<asrwt>0</asrwt>
<pdfrwt beam="2">  1        4 0.85758224E-03 0.12500155E+03</pdfrwt>
<pdfrwt beam="1">  1       -4 0.10781229E+00 0.12500155E+03</pdfrwt>
<totfact> 0.42751937E+03</totfact>
</mgrwt>
</event>
<event>
 5    1  0.3317939E-002  0.1250145E+03  0.7818608E-02  0.1235047E+00
         -4   -1    0    0    0  501 -0.00000000000E+00  0.00000000000E+00  0.26978781148E+02  0.27008656617E+02  0.12700000000E+01 0. -1.
          4   -1    0    0  501    0  0.00000000000E+00 -0.00000000000E+00 -0.14471059475E+03  0.14471616749E+03  0.12700000000E+01 0. -1.
         25    2    1    2    0    0  0.00000000000E+00  0.00000000000E+00 -0.11773181360E+03  0.17172482411E+03  0.12501454028E+03 0.  0.
    9000005    1    3    3    0    0 -0.80024134372E+01  0.40217113283E+02  0.59241961048E+01  0.41443345921E+02  0.10000000000E+01 0.  0.
    9000005    1    3    3    0    0  0.80024134372E+01 -0.40217113283E+02 -0.12365600971E+03  0.13028147818E+03  0.10000000000E+01 0.  0.
<mgrwt>
<rscale>  0 0.12501454E+03</rscale>
<asrwt>0</asrwt>
<pdfrwt beam="2">  1        4 0.22265895E-01 0.12501454E+03</pdfrwt>
<pdfrwt beam="1">  1       -4 0.41533086E-02 0.12501454E+03</pdfrwt>
<totfact> 0.95097094E+03</totfact>
</mgrwt>
</event>
<event>
 5    1  0.3317939E-002  0.1250021E+03  0.7818608E-02  0.1235066E+00
          4   -1    0    0  501    0  0.00000000000E+00  0.00000000000E+00  0.61817588823E+03  0.61817719279E+03  0.12700000000E+01 0.  1.
         -4   -1    0    0    0  501 -0.00000000000E+00 -0.00000000000E+00 -0.62540746277E+01  0.63817199444E+01  0.12700000000E+01 0.  1.
         25    2    1    2    0    0  0.00000000000E+00  0.00000000000E+00  0.61192181360E+03  0.62455891273E+03  0.12500211805E+03 0.  0.
    9000005    1    3    3    0    0 -0.50896894582E+01  0.57973164114E+02  0.19218037094E+03  0.20080111472E+03  0.10000000000E+01 0.  0.
    9000005    1    3    3    0    0  0.50896894582E+01 -0.57973164114E+02  0.41974144266E+03  0.42375779802E+03  0.10000000000E+01 0.  0.
<mgrwt>
<rscale>  0 0.12500212E+03</rscale>
<asrwt>0</asrwt>
<pdfrwt beam="1">  1        4 0.95113893E-01 0.12500212E+03</pdfrwt>
<pdfrwt beam="2">  1       -4 0.97208464E-03 0.12500212E+03</pdfrwt>
<totfact> 0.47350996E+03</totfact>
</mgrwt>
</event>
<event>
 5    1  0.3317939E-002  0.1249407E+03  0.7818608E-02  0.1235162E+00
         -4   -1    0    0    0  501 -0.00000000000E+00  0.00000000000E+00  0.35306488338E+02  0.35329322365E+02  0.12700000000E+01 0.  1.
          4   -1    0    0  501    0  0.00000000000E+00 -0.00000000000E+00 -0.11047118138E+03  0.11047848123E+03  0.12700000000E+01 0.  1.
         25    2    1    2    0    0  0.00000000000E+00  0.00000000000E+00 -0.75164693038E+02  0.14580780359E+03  0.12494072398E+03 0.  0.
    9000005    1    3    3    0    0  0.13232953564E+02 -0.52740718225E+02 -0.73454593090E+02  0.91396234413E+02  0.10000000000E+01 0.  0.
    9000005    1    3    3    0    0 -0.13232953564E+02  0.52740718225E+02 -0.17100999480E+01  0.54411569181E+02  0.10000000000E+01 0.  0.
<mgrwt>
<rscale>  0 0.12494072E+03</rscale>
<asrwt>0</asrwt>
<pdfrwt beam="2">  1        4 0.16997884E-01 0.12494072E+03</pdfrwt>
<pdfrwt beam="1">  1       -4 0.54340855E-02 0.12494072E+03</pdfrwt>
<totfact> 0.10027979E+04</totfact>
</mgrwt>
</event>
<event>
 5    1  0.3317939E-002  0.1249947E+03  0.7818608E-02  0.1235078E+00
          4   -1    0    0  501    0  0.00000000000E+00  0.00000000000E+00  0.25884097414E+02  0.25915234881E+02  0.12700000000E+01 0. -1.
         -4   -1    0    0    0  501 -0.00000000000E+00 -0.00000000000E+00 -0.15077575819E+03  0.15078110677E+03  0.12700000000E+01 0. -1.
         25    2    1    2    0    0  0.00000000000E+00  0.00000000000E+00 -0.12489166078E+03  0.17669634165E+03  0.12499468077E+03 0.  0.
    9000005    1    3    3    0    0  0.55765048523E+01  0.30628636703E+02  0.14147748516E+02  0.34210664722E+02  0.10000000000E+01 0.  0.
    9000005    1    3    3    0    0 -0.55765048523E+01 -0.30628636703E+02 -0.13903940929E+03  0.14248567693E+03  0.10000000000E+01 0.  0.
<mgrwt>
<rscale>  0 0.12499468E+03</rscale>
<asrwt>0</asrwt>
<pdfrwt beam="1">  1        4 0.39849756E-02 0.12499468E+03</pdfrwt>
<pdfrwt beam="2">  1       -4 0.23199077E-01 0.12499468E+03</pdfrwt>
<totfact> 0.94226317E+03</totfact>
</mgrwt>
</event>
<event>
 5    1  0.3317939E-002  0.1249865E+03  0.7818608E-02  0.1235090E+00
          4   -1    0    0  501    0  0.00000000000E+00  0.00000000000E+00  0.36598257903E+02  0.36620286476E+02  0.12700000000E+01 0. -1.
         -4   -1    0    0    0  501 -0.00000000000E+00 -0.00000000000E+00 -0.10665231479E+03  0.10665987601E+03  0.12700000000E+01 0. -1.
         25    2    1    2    0    0  0.00000000000E+00  0.00000000000E+00 -0.70054056884E+02  0.14328016248E+03  0.12498653557E+03 0.  0.
    9000005    1    3    3    0    0 -0.47134212925E+02  0.40065814627E+02 -0.45119270636E+02  0.76574487347E+02  0.10000000000E+01 0.  0.
    9000005    1    3    3    0    0  0.47134212925E+02 -0.40065814627E+02 -0.24934786248E+02  0.66705675134E+02  0.10000000000E+01 0.  0.
<mgrwt>
<rscale>  0 0.12498654E+03</rscale>
<asrwt>0</asrwt>
<pdfrwt beam="1">  1        4 0.56327774E-02 0.12498654E+03</pdfrwt>
<pdfrwt beam="2">  1       -4 0.16410324E-01 0.12498654E+03</pdfrwt>
<totfact> 0.10069102E+04</totfact>
</mgrwt>
</event>
<event>
 5    1  0.3317939E-002  0.1249947E+03  0.7818608E-02  0.1235078E+00
         -4   -1    0    0    0  501 -0.00000000000E+00  0.00000000000E+00  0.49403043232E+02  0.49419364430E+02  0.12700000000E+01 0. -1.
          4   -1    0    0  501    0  0.00000000000E+00 -0.00000000000E+00 -0.79027838771E+02  0.79038042744E+02  0.12700000000E+01 0. -1.
         25    2    1    2    0    0  0.00000000000E+00  0.00000000000E+00 -0.29624795539E+02  0.12845740717E+03  0.12499470768E+03 0.  0.
    9000005    1    3    3    0    0 -0.56999990898E+02 -0.27316483030E+01 -0.40982690312E+02  0.70264085920E+02  0.10000000000E+01 0.  0.
    9000005    1    3    3    0    0  0.56999990898E+02  0.27316483030E+01  0.11357894774E+02  0.58193321254E+02  0.10000000000E+01 0.  0.
<mgrwt>
<rscale>  0 0.12499471E+03</rscale>
<asrwt>0</asrwt>
<pdfrwt beam="2">  1        4 0.12160169E-01 0.12499471E+03</pdfrwt>
<pdfrwt beam="1">  1       -4 0.76025086E-02 0.12499471E+03</pdfrwt>
<totfact> 0.10378861E+04</totfact>
</mgrwt>
</event>
<event>
 5    1  0.3317939E-002  0.1249747E+03  0.7818608E-02  0.1235109E+00
          4   -1    0    0  501    0  0.00000000000E+00  0.00000000000E+00  0.34880312913E+01  0.37120428728E+01  0.12700000000E+01 0.  1.
         -4   -1    0    0    0  501 -0.00000000000E+00 -0.00000000000E+00 -0.10843953786E+04  0.10843961222E+04  0.12700000000E+01 0.  1.
         25    2    1    2    0    0  0.00000000000E+00  0.00000000000E+00 -0.10809073473E+04  0.10881081651E+04  0.12497473992E+03 0.  0.
    9000005    1    3    3    0    0 -0.86577145415E+01 -0.40143330366E+02 -0.95042647456E+03  0.95131378974E+03  0.10000000000E+01 0.  0.
    9000005    1    3    3    0    0  0.86577145415E+01  0.40143330366E+02 -0.13048087270E+03  0.13679437538E+03  0.10000000000E+01 0.  0.
<mgrwt>
<rscale>  0 0.12497474E+03</rscale>
<asrwt>0</asrwt>
<pdfrwt beam="1">  1        4 0.55390993E-03 0.12497474E+03</pdfrwt>
<pdfrwt beam="2">  1       -4 0.16684709E+00 0.12497474E+03</pdfrwt>
<totfact> 0.27849448E+03</totfact>
</mgrwt>
</event>
<event>
 5    1  0.3317939E-002  0.1250016E+03  0.7818608E-02  0.1235067E+00
         -4   -1    0    0    0  501 -0.00000000000E+00  0.00000000000E+00  0.37431182579E+02  0.37452721253E+02  0.12700000000E+01 0.  1.
          4   -1    0    0  501    0  0.00000000000E+00 -0.00000000000E+00 -0.10430537700E+03  0.10431310834E+03  0.12700000000E+01 0.  1.
         25    2    1    2    0    0  0.00000000000E+00  0.00000000000E+00 -0.66874194420E+02  0.14176582959E+03  0.12500157023E+03 0.  0.
    9000005    1    3    3    0    0  0.36462928230E+02  0.12520721890E+01 -0.90978469828E+02  0.98026500459E+02  0.10000000000E+01 0.  0.
    9000005    1    3    3    0    0 -0.36462928230E+02 -0.12520721890E+01  0.24104275409E+02  0.43739329131E+02  0.10000000000E+01 0.  0.
<mgrwt>
<rscale>  0 0.12500157E+03</rscale>
<asrwt>0</asrwt>
<pdfrwt beam="2">  1        4 0.16049233E-01 0.12500157E+03</pdfrwt>
<pdfrwt beam="1">  1       -4 0.57608950E-02 0.12500157E+03</pdfrwt>
<totfact> 0.10096761E+04</totfact>
</mgrwt>
</event>
<event>
 5    1  0.3317939E-002  0.1249992E+03  0.7818608E-02  0.1235071E+00
          4   -1    0    0  501    0  0.00000000000E+00  0.00000000000E+00  0.33276376060E+02  0.33300602152E+02  0.12700000000E+01 0.  1.
         -4   -1    0    0    0  501 -0.00000000000E+00 -0.00000000000E+00 -0.11731622812E+03  0.11732310207E+03  0.12700000000E+01 0.  1.
         25    2    1    2    0    0  0.00000000000E+00  0.00000000000E+00 -0.84039852061E+02  0.15062370423E+03  0.12499921416E+03 0.  0.
    9000005    1    3    3    0    0 -0.22114000904E+01  0.34180799155E+02 -0.10500317825E+03  0.11045308852E+03  0.10000000000E+01 0.  0.
    9000005    1    3    3    0    0  0.22114000904E+01 -0.34180799155E+02  0.20963326189E+02  0.40170615705E+02  0.10000000000E+01 0.  0.
<mgrwt>
<rscale>  0 0.12499921E+03</rscale>
<asrwt>0</asrwt>
<pdfrwt beam="1">  1        4 0.51218348E-02 0.12499921E+03</pdfrwt>
<pdfrwt beam="2">  1       -4 0.18051043E-01 0.12499921E+03</pdfrwt>
<totfact> 0.99181271E+03</totfact>
</mgrwt>
</event>
<event>
 5    1  0.3317939E-002  0.1250010E+03  0.7818608E-02  0.1235068E+00
          4   -1    0    0  501    0  0.00000000000E+00  0.00000000000E+00  0.61904393305E+01  0.63193701510E+01  0.12700000000E+01 0. -1.
         -4   -1    0    0    0  501 -0.00000000000E+00 -0.00000000000E+00 -0.62439064959E+03  0.62439194117E+03  0.12700000000E+01 0. -1.
         25    2    1    2    0    0  0.00000000000E+00  0.00000000000E+00 -0.61820021026E+03  0.63071131132E+03  0.12500103304E+03 0.  0.
    9000005    1    3    3    0    0  0.26374404091E+02 -0.56396463963E+02 -0.28186097184E+03  0.28865685127E+03  0.10000000000E+01 0.  0.
    9000005    1    3    3    0    0 -0.26374404091E+02  0.56396463963E+02 -0.33633923842E+03  0.34205446005E+03  0.10000000000E+01 0.  0.
<mgrwt>
<rscale>  0 0.12500103E+03</rscale>
<asrwt>0</asrwt>
<pdfrwt beam="1">  1        4 0.96239288E-03 0.12500103E+03</pdfrwt>
<pdfrwt beam="2">  1       -4 0.96070068E-01 0.12500103E+03</pdfrwt>
<totfact> 0.46983642E+03</totfact>
</mgrwt>
</event>
<event>
 5    1  0.3317939E-002  0.1250258E+03  0.7818608E-02  0.1235029E+00
          4   -1    0    0  501    0  0.00000000000E+00  0.00000000000E+00  0.16727689679E+03  0.16728171776E+03  0.12700000000E+01 0. -1.
         -4   -1    0    0    0  501 -0.00000000000E+00 -0.00000000000E+00 -0.23339224443E+02  0.23373752322E+02  0.12700000000E+01 0. -1.
         25    2    1    2    0    0  0.00000000000E+00  0.00000000000E+00  0.14393767234E+03  0.19065547009E+03  0.12502581635E+03 0.  0.
    9000005    1    3    3    0    0  0.85749311778E+01 -0.43680226290E+02  0.50563902317E+01  0.44811367928E+02  0.10000000000E+01 0.  0.
    9000005    1    3    3    0    0 -0.85749311778E+01  0.43680226290E+02  0.13888128211E+03  0.14584410216E+03  0.10000000000E+01 0.  0.
<mgrwt>
<rscale>  0 0.12502582E+03</rscale>
<asrwt>0</asrwt>
<pdfrwt beam="1">  1        4 0.25737934E-01 0.12502582E+03</pdfrwt>
<pdfrwt beam="2">  1       -4 0.35936768E-02 0.12502582E+03</pdfrwt>
<totfact> 0.91680366E+03</totfact>
</mgrwt>
</event>
<event>
 5    1  0.3317939E-002  0.1249995E+03  0.7818608E-02  0.1235070E+00
          4   -1    0    0  501    0  0.00000000000E+00  0.00000000000E+00  0.95633108709E+03  0.95633193037E+03  0.12700000000E+01 0. -1.
         -4   -1    0    0    0  501 -0.00000000000E+00 -0.00000000000E+00 -0.39850059407E+01  0.41824839925E+01  0.12700000000E+01 0. -1.
         25    2    1    2    0    0  0.00000000000E+00  0.00000000000E+00  0.95234608115E+03  0.96051441436E+03  0.12499952763E+03 0.  0.
    9000005    1    3    3    0    0  0.44037576241E+02 -0.44254117150E+02  0.49719654341E+03  0.50110192355E+03  0.10000000000E+01 0.  0.
    9000005    1    3    3    0    0 -0.44037576241E+02  0.44254117150E+02  0.45514953774E+03  0.45941249080E+03  0.10000000000E+01 0.  0.
<mgrwt>
<rscale>  0 0.12499953E+03</rscale>
<asrwt>0</asrwt>
<pdfrwt beam="1">  1        4 0.14714319E+00 0.12499953E+03</pdfrwt>
<pdfrwt beam="2">  1       -4 0.62833302E-03 0.12499953E+03</pdfrwt>
<totfact> 0.31945896E+03</totfact>
</mgrwt>
</event>
<event>
 5    1  0.3317939E-002  0.1249995E+03  0.7818608E-02  0.1235070E+00
          4   -1    0    0  501    0  0.00000000000E+00  0.00000000000E+00  0.39827609201E+01  0.41803450272E+01  0.12700000000E+01 0.  1.
         -4   -1    0    0    0  501 -0.00000000000E+00 -0.00000000000E+00 -0.95684454447E+03  0.95684538730E+03  0.12700000000E+01 0.  1.
         25    2    1    2    0    0  0.00000000000E+00  0.00000000000E+00 -0.95286178355E+03  0.96102573232E+03  0.12499951852E+03 0.  0.
    9000005    1    3    3    0    0 -0.35654944129E+02 -0.51289966711E+02 -0.46249803250E+03  0.46669836703E+03  0.10000000000E+01 0.  0.
    9000005    1    3    3    0    0  0.35654944129E+02  0.51289966711E+02 -0.49036375106E+03  0.49432736529E+03  0.10000000000E+01 0.  0.
<mgrwt>
<rscale>  0 0.12499952E+03</rscale>
<asrwt>0</asrwt>
<pdfrwt beam="1">  1        4 0.62799682E-03 0.12499952E+03</pdfrwt>
<pdfrwt beam="2">  1       -4 0.14722194E+00 0.12499952E+03</pdfrwt>
<totfact> 0.31928094E+03</totfact>
</mgrwt>
</event>
<event>
 5    1  0.3317939E-002  0.1250016E+03  0.7818608E-02  0.1235067E+00
         -4   -1    0    0    0  501 -0.00000000000E+00  0.00000000000E+00  0.57524334411E+02  0.57538351987E+02  0.12700000000E+01 0. -1.
          4   -1    0    0  501    0  0.00000000000E+00 -0.00000000000E+00 -0.67879579716E+02  0.67891459275E+02  0.12700000000E+01 0. -1.
         25    2    1    2    0    0  0.00000000000E+00  0.00000000000E+00 -0.10355245306E+02  0.12542981126E+03  0.12500162578E+03 0.  0.
    9000005    1    3    3    0    0 -0.48645401935E+02 -0.37511006359E+02 -0.16701774210E+02  0.63666317541E+02  0.10000000000E+01 0.  0.
    9000005    1    3    3    0    0  0.48645401935E+02  0.37511006359E+02  0.63465289043E+01  0.61763493721E+02  0.10000000000E+01 0.  0.
<mgrwt>
<rscale>  0 0.12500163E+03</rscale>
<asrwt>0</asrwt>
<pdfrwt beam="2">  1        4 0.10445004E-01 0.12500163E+03</pdfrwt>
<pdfrwt beam="1">  1       -4 0.88518897E-02 0.12500163E+03</pdfrwt>
<totfact> 0.10443124E+04</totfact>
</mgrwt>
</event>
<event>
 5    1  0.3317939E-002  0.1250050E+03  0.7818608E-02  0.1235062E+00
          4   -1    0    0  501    0  0.00000000000E+00  0.00000000000E+00  0.33271682742E+02  0.33295912249E+02  0.12700000000E+01 0. -1.
         -4   -1    0    0    0  501 -0.00000000000E+00 -0.00000000000E+00 -0.11734353753E+03  0.11735040988E+03  0.12700000000E+01 0. -1.
         25    2    1    2    0    0  0.00000000000E+00  0.00000000000E+00 -0.84071854786E+02  0.15064632213E+03  0.12500495032E+03 0.  0.
    9000005    1    3    3    0    0 -0.21885081188E+02  0.57808911830E+02 -0.53129103562E+02  0.81513978623E+02  0.10000000000E+01 0.  0.
    9000005    1    3    3    0    0  0.21885081188E+02 -0.57808911830E+02 -0.30942751224E+02  0.69132343508E+02  0.10000000000E+01 0.  0.
<mgrwt>
<rscale>  0 0.12500495E+03</rscale>
<asrwt>0</asrwt>
<pdfrwt beam="1">  1        4 0.51211129E-02 0.12500495E+03</pdfrwt>
<pdfrwt beam="2">  1       -4 0.18055244E-01 0.12500495E+03</pdfrwt>
<totfact> 0.99163972E+03</totfact>
</mgrwt>
</event>
<event>
 5    1  0.3317939E-002  0.1250008E+03  0.7818608E-02  0.1235068E+00
          4   -1    0    0  501    0  0.00000000000E+00  0.00000000000E+00  0.12409144553E+02  0.12473963626E+02  0.12700000000E+01 0.  1.
         -4   -1    0    0    0  501 -0.00000000000E+00 -0.00000000000E+00 -0.31390583607E+03  0.31390840514E+03  0.12700000000E+01 0.  1.
         25    2    1    2    0    0  0.00000000000E+00  0.00000000000E+00 -0.30149669152E+03  0.32638236877E+03  0.12500078259E+03 0.  0.
    9000005    1    3    3    0    0 -0.51979592314E+02 -0.23287781299E+02 -0.21788312753E+03  0.22520714029E+03  0.10000000000E+01 0.  0.
    9000005    1    3    3    0    0  0.51979592314E+02  0.23287781299E+02 -0.83613563983E+02  0.10117522847E+03  0.10000000000E+01 0.  0.
<mgrwt>
<rscale>  0 0.12500078E+03</rscale>
<asrwt>0</asrwt>
<pdfrwt beam="1">  1        4 0.19142831E-02 0.12500078E+03</pdfrwt>
<pdfrwt beam="2">  1       -4 0.48298383E-01 0.12500078E+03</pdfrwt>
<totfact> 0.72402150E+03</totfact>
</mgrwt>
</event>
<event>
 5    1  0.3317939E-002  0.1250035E+03  0.7818608E-02  0.1235064E+00
          4   -1    0    0  501    0  0.00000000000E+00  0.00000000000E+00  0.10692179257E+03  0.10692933473E+03  0.12700000000E+01 0.  1.
         -4   -1    0    0    0  501 -0.00000000000E+00 -0.00000000000E+00 -0.36515908702E+02  0.36537986922E+02  0.12700000000E+01 0.  1.
         25    2    1    2    0    0  0.00000000000E+00  0.00000000000E+00  0.70405883865E+02  0.14346732165E+03  0.12500353555E+03 0.  0.
    9000005    1    3    3    0    0 -0.54459839026E+02 -0.30581700076E+02  0.32807415452E+02  0.70558067964E+02  0.10000000000E+01 0.  0.
    9000005    1    3    3    0    0  0.54459839026E+02  0.30581700076E+02  0.37598468413E+02  0.72909253687E+02  0.10000000000E+01 0.  0.
<mgrwt>
<rscale>  0 0.12500354E+03</rscale>
<asrwt>0</asrwt>
<pdfrwt beam="1">  1        4 0.16451785E-01 0.12500354E+03</pdfrwt>
<pdfrwt beam="2">  1       -4 0.56201107E-02 0.12500354E+03</pdfrwt>
<totfact> 0.10061421E+04</totfact>
</mgrwt>
</event>
<event>
 5    1  0.3317939E-002  0.1250026E+03  0.7818608E-02  0.1235065E+00
          4   -1    0    0  501    0  0.00000000000E+00  0.00000000000E+00  0.25245631196E+01  0.28260075981E+01  0.12700000000E+01 0.  1.
         -4   -1    0    0    0  501 -0.00000000000E+00 -0.00000000000E+00 -0.14598830009E+04  0.14598835534E+04  0.12700000000E+01 0.  1.
         25    2    1    2    0    0  0.00000000000E+00  0.00000000000E+00 -0.14573584378E+04  0.14627095610E+04  0.12500257355E+03 0.  0.
    9000005    1    3    3    0    0 -0.57331471580E+02 -0.21988835410E+02 -0.86463979577E+03  0.86681796413E+03  0.10000000000E+01 0.  0.
    9000005    1    3    3    0    0  0.57331471580E+02  0.21988835410E+02 -0.59271864206E+03  0.59589159682E+03  0.10000000000E+01 0.  0.
<mgrwt>
<rscale>  0 0.12500257E+03</rscale>
<asrwt>0</asrwt>
<pdfrwt beam="1">  1        4 0.41162602E-03 0.12500257E+03</pdfrwt>
<pdfrwt beam="2">  1       -4 0.22461998E+00 0.12500257E+03</pdfrwt>
<totfact> 0.18672948E+03</totfact>
</mgrwt>
</event>
<event>
 5    1  0.3317939E-002  0.1250027E+03  0.7818608E-02  0.1235065E+00
         -4   -1    0    0    0  501 -0.00000000000E+00  0.00000000000E+00  0.79124170106E+01  0.80136909692E+01  0.12700000000E+01 0. -1.
          4   -1    0    0  501    0  0.00000000000E+00 -0.00000000000E+00 -0.49046587619E+03  0.49046752044E+03  0.12700000000E+01 0. -1.
         25    2    1    2    0    0  0.00000000000E+00  0.00000000000E+00 -0.48255345918E+03  0.49848121141E+03  0.12500270862E+03 0.  0.
    9000005    1    3    3    0    0 -0.30932680563E+02 -0.16494551971E+02 -0.34969484322E+02  0.49525405655E+02  0.10000000000E+01 0.  0.
    9000005    1    3    3    0    0  0.30932680563E+02  0.16494551971E+02 -0.44758397486E+03  0.44895580576E+03  0.10000000000E+01 0.  0.
<mgrwt>
<rscale>  0 0.12500271E+03</rscale>
<asrwt>0</asrwt>
<pdfrwt beam="2">  1        4 0.75464182E-01 0.12500271E+03</pdfrwt>
<pdfrwt beam="1">  1       -4 0.12252121E-02 0.12500271E+03</pdfrwt>
<totfact> 0.55979075E+03</totfact>
</mgrwt>
</event>
<event>
 5    1  0.3317939E-002  0.1250000E+03  0.7818608E-02  0.1235069E+00
          4   -1    0    0  501    0  0.00000000000E+00  0.00000000000E+00  0.14954972947E+03  0.14955512189E+03  0.12700000000E+01 0. -1.
         -4   -1    0    0    0  501 -0.00000000000E+00 -0.00000000000E+00 -0.26098775353E+02  0.26129657000E+02  0.12700000000E+01 0. -1.
         25    2    1    2    0    0  0.00000000000E+00  0.00000000000E+00  0.12345095412E+03  0.17568477889E+03  0.12500001385E+03 0.  0.
    9000005    1    3    3    0    0  0.10782447195E+02 -0.44433194373E+02  0.12159753880E+03  0.12991355346E+03  0.10000000000E+01 0.  0.
    9000005    1    3    3    0    0 -0.10782447195E+02  0.44433194373E+02  0.18534153187E+01  0.45771225437E+02  0.10000000000E+01 0.  0.
<mgrwt>
<rscale>  0 0.12500001E+03</rscale>
<asrwt>0</asrwt>
<pdfrwt beam="1">  1        4 0.23010441E-01 0.12500001E+03</pdfrwt>
<pdfrwt beam="2">  1       -4 0.40179866E-02 0.12500001E+03</pdfrwt>
<totfact> 0.94399545E+03</totfact>
</mgrwt>
</event>
<event>
 5    1  0.3317939E-002  0.1249956E+03  0.7818608E-02  0.1235076E+00
          4   -1    0    0  501    0  0.00000000000E+00  0.00000000000E+00  0.30508669634E+02  0.30535091662E+02  0.12700000000E+01 0.  1.
         -4   -1    0    0    0  501 -0.00000000000E+00 -0.00000000000E+00 -0.12794335378E+03  0.12794965680E+03  0.12700000000E+01 0.  1.
         25    2    1    2    0    0  0.00000000000E+00  0.00000000000E+00 -0.97434684144E+02  0.15848474846E+03  0.12499559121E+03 0.  0.
    9000005    1    3    3    0    0 -0.40933605680E+02  0.26195347847E+02  0.10914992033E+01  0.48620445219E+02  0.10000000000E+01 0.  0.
    9000005    1    3    3    0    0  0.40933605680E+02 -0.26195347847E+02 -0.98526183347E+02  0.10986430325E+03  0.10000000000E+01 0.  0.
<mgrwt>
<rscale>  0 0.12499559E+03</rscale>
<asrwt>0</asrwt>
<pdfrwt beam="1">  1        4 0.46961588E-02 0.12499559E+03</pdfrwt>
<pdfrwt beam="2">  1       -4 0.19686110E-01 0.12499559E+03</pdfrwt>
<totfact> 0.97645389E+03</totfact>
</mgrwt>
</event>
<event>
 5    1  0.3317939E-002  0.1249993E+03  0.7818608E-02  0.1235070E+00
         -4   -1    0    0    0  501 -0.00000000000E+00  0.00000000000E+00  0.88184876896E+02  0.88194021414E+02  0.12700000000E+01 0.  1.
          4   -1    0    0  501    0  0.00000000000E+00 -0.00000000000E+00 -0.44275124871E+02  0.44293335643E+02  0.12700000000E+01 0.  1.
         25    2    1    2    0    0  0.00000000000E+00  0.00000000000E+00  0.43909752025E+02  0.13248735706E+03  0.12499933383E+03 0.  0.
    9000005    1    3    3    0    0  0.64880175758E+00  0.10576923721E+02 -0.43321097343E+02  0.44609525151E+02  0.10000000000E+01 0.  0.
    9000005    1    3    3    0    0 -0.64880175758E+00 -0.10576923721E+02  0.87230849368E+02  0.87877831907E+02  0.10000000000E+01 0.  0.
<mgrwt>
<rscale>  0 0.12499933E+03</rscale>
<asrwt>0</asrwt>
<pdfrwt beam="2">  1        4 0.68136619E-02 0.12499933E+03</pdfrwt>
<pdfrwt beam="1">  1       -4 0.13569008E-01 0.12499933E+03</pdfrwt>
<totfact> 0.10291462E+04</totfact>
</mgrwt>
</event>
<event>
 5    1  0.3317939E-002  0.1250000E+03  0.7818608E-02  0.1235069E+00
         -4   -1    0    0    0  501 -0.00000000000E+00  0.00000000000E+00  0.15774087716E+03  0.15774598958E+03  0.12700000000E+01 0. -1.
          4   -1    0    0  501    0  0.00000000000E+00 -0.00000000000E+00 -0.24741906600E+02  0.24774479656E+02  0.12700000000E+01 0. -1.
         25    2    1    2    0    0  0.00000000000E+00  0.00000000000E+00  0.13299897056E+03  0.18252046923E+03  0.12499998208E+03 0.  0.
    9000005    1    3    3    0    0  0.17344626744E+02 -0.57888012775E+02  0.89742744726E+02  0.10819712718E+03  0.10000000000E+01 0.  0.
    9000005    1    3    3    0    0 -0.17344626744E+02  0.57888012775E+02  0.43256225837E+02  0.74323342051E+02  0.10000000000E+01 0.  0.
<mgrwt>
<rscale>  0 0.12499998E+03</rscale>
<asrwt>0</asrwt>
<pdfrwt beam="2">  1        4 0.38093460E-02 0.12499998E+03</pdfrwt>
<pdfrwt beam="1">  1       -4 0.24270726E-01 0.12499998E+03</pdfrwt>
<totfact> 0.93165305E+03</totfact>
</mgrwt>
</event>
<event>
 5    1  0.3317939E-002  0.1250115E+03  0.7818608E-02  0.1235051E+00
         -4   -1    0    0    0  501 -0.00000000000E+00  0.00000000000E+00  0.88479746178E+02  0.88488860224E+02  0.12700000000E+01 0. -1.
          4   -1    0    0  501    0  0.00000000000E+00 -0.00000000000E+00 -0.44136121690E+02  0.44154389791E+02  0.12700000000E+01 0. -1.
         25    2    1    2    0    0  0.00000000000E+00  0.00000000000E+00  0.44343624488E+02  0.13264325002E+03  0.12501149844E+03 0.  0.
    9000005    1    3    3    0    0 -0.14115509645E+02 -0.24377351266E+02  0.81367148087E+02  0.86111065810E+02  0.10000000000E+01 0.  0.
    9000005    1    3    3    0    0  0.14115509645E+02  0.24377351266E+02 -0.37023523598E+02  0.46532184205E+02  0.10000000000E+01 0.  0.
<mgrwt>
<rscale>  0 0.12501150E+03</rscale>
<asrwt>0</asrwt>
<pdfrwt beam="2">  1        4 0.67922789E-02 0.12501150E+03</pdfrwt>
<pdfrwt beam="1">  1       -4 0.13614375E-01 0.12501150E+03</pdfrwt>
<totfact> 0.10285320E+04</totfact>
</mgrwt>
</event>
<event>
 5    1  0.3317939E-002  0.1249967E+03  0.7818608E-02  0.1235074E+00
         -4   -1    0    0    0  501 -0.00000000000E+00  0.00000000000E+00  0.19514278852E+02  0.19555561335E+02  0.12700000000E+01 0. -1.
          4   -1    0    0  501    0  0.00000000000E+00 -0.00000000000E+00 -0.19990865534E+03  0.19991268939E+03  0.12700000000E+01 0. -1.
         25    2    1    2    0    0  0.00000000000E+00  0.00000000000E+00 -0.18039437649E+03  0.21946825073E+03  0.12499672799E+03 0.  0.
    9000005    1    3    3    0    0  0.84682802034E+01  0.34940700151E+02 -0.17993999428E+03  0.18349922572E+03  0.10000000000E+01 0.  0.
    9000005    1    3    3    0    0 -0.84682802034E+01 -0.34940700151E+02 -0.45438220248E+00  0.35969025005E+02  0.10000000000E+01 0.  0.
<mgrwt>
<rscale>  0 0.12499673E+03</rscale>
<asrwt>0</asrwt>
<pdfrwt beam="2">  1        4 0.30758662E-01 0.12499673E+03</pdfrwt>
<pdfrwt beam="1">  1       -4 0.30056828E-02 0.12499673E+03</pdfrwt>
<totfact> 0.86958918E+03</totfact>
</mgrwt>
</event>
<event>
 5    1  0.3317939E-002  0.1249982E+03  0.7818608E-02  0.1235072E+00
         -4   -1    0    0    0  501 -0.00000000000E+00  0.00000000000E+00  0.78919891109E+02  0.78930109037E+02  0.12700000000E+01 0. -1.
          4   -1    0    0  501    0  0.00000000000E+00 -0.00000000000E+00 -0.49473408111E+02  0.49489706102E+02  0.12700000000E+01 0. -1.
         25    2    1    2    0    0  0.00000000000E+00  0.00000000000E+00  0.29446482998E+02  0.12841981514E+03  0.12499821423E+03 0.  0.
    9000005    1    3    3    0    0  0.10670577551E+02  0.57209158813E+02  0.38114643434E+02  0.69573523135E+02  0.10000000000E+01 0.  0.
    9000005    1    3    3    0    0 -0.10670577551E+02 -0.57209158813E+02 -0.86681604361E+01  0.58846292004E+02  0.10000000000E+01 0.  0.
<mgrwt>
<rscale>  0 0.12499821E+03</rscale>
<asrwt>0</asrwt>
<pdfrwt beam="2">  1        4 0.76133333E-02 0.12499821E+03</pdfrwt>
<pdfrwt beam="1">  1       -4 0.12143561E-01 0.12499821E+03</pdfrwt>
<totfact> 0.10378850E+04</totfact>
</mgrwt>
</event>
<event>
 5    1  0.3317939E-002  0.1249697E+03  0.7818608E-02  0.1235117E+00
          4   -1    0    0  501    0  0.00000000000E+00  0.00000000000E+00  0.44921943217E+03  0.44922122739E+03  0.12700000000E+01 0. -1.
         -4   -1    0    0    0  501 -0.00000000000E+00 -0.00000000000E+00 -0.86432112890E+01  0.87360174786E+01  0.12700000000E+01 0. -1.
         25    2    1    2    0    0  0.00000000000E+00  0.00000000000E+00  0.44057622088E+03  0.45795724487E+03  0.12496972323E+03 0.  0.
    9000005    1    3    3    0    0  0.10499410912E+02 -0.60393383798E+02  0.17604572317E+03  0.18641538317E+03  0.10000000000E+01 0.  0.
    9000005    1    3    3    0    0 -0.10499410912E+02  0.60393383798E+02  0.26453049771E+03  0.27154186170E+03  0.10000000000E+01 0.  0.
<mgrwt>
<rscale>  0 0.12496972E+03</rscale>
<asrwt>0</asrwt>
<pdfrwt beam="1">  1        4 0.69117961E-01 0.12496972E+03</pdfrwt>
<pdfrwt beam="2">  1       -4 0.13370018E-02 0.12496972E+03</pdfrwt>
<totfact> 0.59320143E+03</totfact>
</mgrwt>
</event>
<event>
 5    1  0.3317939E-002  0.1250030E+03  0.7818608E-02  0.1235065E+00
          4   -1    0    0  501    0  0.00000000000E+00  0.00000000000E+00  0.15793078084E+03  0.15793588711E+03  0.12700000000E+01 0.  1.
         -4   -1    0    0    0  501 -0.00000000000E+00 -0.00000000000E+00 -0.24713296208E+02  0.24745906924E+02  0.12700000000E+01 0.  1.
         25    2    1    2    0    0  0.00000000000E+00  0.00000000000E+00  0.13321748463E+03  0.18268179403E+03  0.12500295860E+03 0.  0.
    9000005    1    3    3    0    0  0.59732011800E+02  0.16548881183E+01  0.39869032411E+02  0.71841433962E+02  0.10000000000E+01 0.  0.
    9000005    1    3    3    0    0 -0.59732011800E+02 -0.16548881183E+01  0.93348452220E+02  0.11084036007E+03  0.10000000000E+01 0.  0.
<mgrwt>
<rscale>  0 0.12500296E+03</rscale>
<asrwt>0</asrwt>
<pdfrwt beam="1">  1        4 0.24299944E-01 0.12500296E+03</pdfrwt>
<pdfrwt beam="2">  1       -4 0.38049470E-02 0.12500296E+03</pdfrwt>
<totfact> 0.93130311E+03</totfact>
</mgrwt>
</event>
<event>
 5    1  0.3317939E-002  0.1249996E+03  0.7818608E-02  0.1235070E+00
          4   -1    0    0  501    0  0.00000000000E+00  0.00000000000E+00  0.12578066356E+03  0.12578707496E+03  0.12700000000E+01 0.  1.
         -4   -1    0    0    0  501 -0.00000000000E+00 -0.00000000000E+00 -0.31035666945E+02  0.31061640696E+02  0.12700000000E+01 0.  1.
         25    2    1    2    0    0  0.00000000000E+00  0.00000000000E+00  0.94744996619E+02  0.15684871565E+03  0.12499962087E+03 0.  0.
    9000005    1    3    3    0    0  0.53838274413E+01  0.51462043359E+02  0.34027926357E+01  0.51864308559E+02  0.10000000000E+01 0.  0.
    9000005    1    3    3    0    0 -0.53838274413E+01 -0.51462043359E+02  0.91342203983E+02  0.10498440710E+03  0.10000000000E+01 0.  0.
<mgrwt>
<rscale>  0 0.12499962E+03</rscale>
<asrwt>0</asrwt>
<pdfrwt beam="1">  1        4 0.19353362E-01 0.12499962E+03</pdfrwt>
<pdfrwt beam="2">  1       -4 0.47772092E-02 0.12499962E+03</pdfrwt>
<totfact> 0.97954626E+03</totfact>
</mgrwt>
</event>
<event>
 5    1  0.3317939E-002  0.1250002E+03  0.7818608E-02  0.1235069E+00
          4   -1    0    0  501    0  0.00000000000E+00  0.00000000000E+00  0.17626743648E+03  0.17627201157E+03  0.12700000000E+01 0.  1.
         -4   -1    0    0    0  501 -0.00000000000E+00 -0.00000000000E+00 -0.22137943262E+02  0.22174341746E+02  0.12700000000E+01 0.  1.
         25    2    1    2    0    0  0.00000000000E+00  0.00000000000E+00  0.15412949322E+03  0.19844635332E+03  0.12500021786E+03 0.  0.
    9000005    1    3    3    0    0 -0.15965553471E+02  0.13496991815E+02  0.17055883790E+03  0.17183825206E+03  0.10000000000E+01 0.  0.
    9000005    1    3    3    0    0  0.15965553471E+02 -0.13496991815E+02 -0.16429344683E+02  0.26608101255E+02  0.10000000000E+01 0.  0.
<mgrwt>
<rscale>  0 0.12500022E+03</rscale>
<asrwt>0</asrwt>
<pdfrwt beam="1">  1        4 0.27121219E-01 0.12500022E+03</pdfrwt>
<pdfrwt beam="2">  1       -4 0.34089893E-02 0.12500022E+03</pdfrwt>
<totfact> 0.90397650E+03</totfact>
</mgrwt>
</event>
<event>
 5    1  0.3317939E-002  0.1249972E+03  0.7818608E-02  0.1235074E+00
          4   -1    0    0  501    0  0.00000000000E+00  0.00000000000E+00  0.22477643762E+02  0.22513493045E+02  0.12700000000E+01 0.  1.
         -4   -1    0    0    0  501 -0.00000000000E+00 -0.00000000000E+00 -0.17359923691E+03  0.17360388232E+03  0.12700000000E+01 0.  1.
         25    2    1    2    0    0  0.00000000000E+00  0.00000000000E+00 -0.15112159315E+03  0.19611737536E+03  0.12499715598E+03 0.  0.
    9000005    1    3    3    0    0 -0.39187050107E+02  0.10809965799E+02 -0.15002665646E+03  0.15543962785E+03  0.10000000000E+01 0.  0.
    9000005    1    3    3    0    0  0.39187050107E+02 -0.10809965799E+02 -0.10949366882E+01  0.40677747516E+02  0.10000000000E+01 0.  0.
<mgrwt>
<rscale>  0 0.12499716E+03</rscale>
<asrwt>0</asrwt>
<pdfrwt beam="1">  1        4 0.34612141E-02 0.12499716E+03</pdfrwt>
<pdfrwt beam="2">  1       -4 0.26710689E-01 0.12499716E+03</pdfrwt>
<totfact> 0.90799453E+03</totfact>
</mgrwt>
</event>
<event>
 5    1  0.3317939E-002  0.1250014E+03  0.7818608E-02  0.1235067E+00
          4   -1    0    0  501    0  0.00000000000E+00  0.00000000000E+00  0.13207146778E+04  0.13207152884E+04  0.12700000000E+01 0. -1.
         -4   -1    0    0    0  501 -0.00000000000E+00 -0.00000000000E+00 -0.28207795393E+01  0.30934927201E+01  0.12700000000E+01 0. -1.
         25    2    1    2    0    0  0.00000000000E+00  0.00000000000E+00  0.13178938983E+04  0.13238087812E+04  0.12500144776E+03 0.  0.
    9000005    1    3    3    0    0  0.44792422447E+02  0.41497437643E+02  0.51807460658E+03  0.52166147684E+03  0.10000000000E+01 0.  0.
    9000005    1    3    3    0    0 -0.44792422447E+02 -0.41497437643E+02  0.79981929171E+03  0.80214730432E+03  0.10000000000E+01 0.  0.
<mgrwt>
<rscale>  0 0.12500145E+03</rscale>
<asrwt>0</asrwt>
<pdfrwt beam="1">  1        4 0.20320721E+00 0.12500145E+03</pdfrwt>
<pdfrwt beam="2">  1       -4 0.45499253E-03 0.12500145E+03</pdfrwt>
<totfact> 0.21672891E+03</totfact>
</mgrwt>
</event>
<event>
 5    1  0.3317939E-002  0.1250033E+03  0.7818608E-02  0.1235064E+00
          4   -1    0    0  501    0  0.00000000000E+00  0.00000000000E+00  0.28480045308E+02  0.28508347562E+02  0.12700000000E+01 0.  1.
         -4   -1    0    0    0  501 -0.00000000000E+00 -0.00000000000E+00 -0.13706538665E+03  0.13707127021E+03  0.12700000000E+01 0.  1.
         25    2    1    2    0    0  0.00000000000E+00  0.00000000000E+00 -0.10858534134E+03  0.16557961777E+03  0.12500333383E+03 0.  0.
    9000005    1    3    3    0    0  0.11377941420E+02  0.28888117647E+02  0.17547613817E+02  0.35677719137E+02  0.10000000000E+01 0.  0.
    9000005    1    3    3    0    0 -0.11377941420E+02 -0.28888117647E+02 -0.12613295516E+03  0.12990189863E+03  0.10000000000E+01 0.  0.
<mgrwt>
<rscale>  0 0.12500333E+03</rscale>
<asrwt>0</asrwt>
<pdfrwt beam="1">  1        4 0.43841752E-02 0.12500333E+03</pdfrwt>
<pdfrwt beam="2">  1       -4 0.21089612E-01 0.12500333E+03</pdfrwt>
<totfact> 0.96270525E+03</totfact>
</mgrwt>
</event>
<event>
 5    1  0.3317939E-002  0.1250068E+03  0.7818608E-02  0.1235059E+00
          4   -1    0    0  501    0  0.00000000000E+00  0.00000000000E+00  0.85173652037E+03  0.85173746720E+03  0.12700000000E+01 0. -1.
         -4   -1    0    0    0  501 -0.00000000000E+00 -0.00000000000E+00 -0.44978384799E+01  0.46736977856E+01  0.12700000000E+01 0. -1.
         25    2    1    2    0    0  0.00000000000E+00  0.00000000000E+00  0.84723868189E+03  0.85641116498E+03  0.12500679750E+03 0.  0.
    9000005    1    3    3    0    0 -0.51107843089E+02  0.47676928281E+01  0.66785546870E+03  0.66982585020E+03  0.10000000000E+01 0.  0.
    9000005    1    3    3    0    0  0.51107843089E+02 -0.47676928281E+01  0.17938321319E+03  0.18658531478E+03  0.10000000000E+01 0.  0.
<mgrwt>
<rscale>  0 0.12500680E+03</rscale>
<asrwt>0</asrwt>
<pdfrwt beam="1">  1        4 0.13105002E+00 0.12500680E+03</pdfrwt>
<pdfrwt beam="2">  1       -4 0.70557544E-03 0.12500680E+03</pdfrwt>
<totfact> 0.35861066E+03</totfact>
</mgrwt>
</event>
<event>
 5    1  0.3317939E-002  0.1249951E+03  0.7818608E-02  0.1235077E+00
          4   -1    0    0  501    0  0.00000000000E+00  0.00000000000E+00  0.10991933771E+04  0.10991941108E+04  0.12700000000E+01 0.  1.
         -4   -1    0    0    0  501 -0.00000000000E+00 -0.00000000000E+00 -0.34392289057E+01  0.36662235973E+01  0.12700000000E+01 0.  1.
         25    2    1    2    0    0  0.00000000000E+00  0.00000000000E+00  0.10957541482E+04  0.11028603344E+04  0.12499505528E+03 0.  0.
    9000005    1    3    3    0    0  0.14735242632E+02 -0.41296700162E+02  0.15503055800E+03  0.16111492399E+03  0.10000000000E+01 0.  0.
    9000005    1    3    3    0    0 -0.14735242632E+02  0.41296700162E+02  0.94072359022E+03  0.94174541040E+03  0.10000000000E+01 0.  0.
<mgrwt>
<rscale>  0 0.12499506E+03</rscale>
<asrwt>0</asrwt>
<pdfrwt beam="1">  1        4 0.16912430E+00 0.12499506E+03</pdfrwt>
<pdfrwt beam="2">  1       -4 0.54662935E-03 0.12499506E+03</pdfrwt>
<totfact> 0.27402761E+03</totfact>
</mgrwt>
</event>
<event>
 5    1  0.3317939E-002  0.1249939E+03  0.7818608E-02  0.1235079E+00
          4   -1    0    0  501    0  0.00000000000E+00  0.00000000000E+00  0.40107222362E+02  0.40127324675E+02  0.12700000000E+01 0. -1.
         -4   -1    0    0    0  501 -0.00000000000E+00 -0.00000000000E+00 -0.97337083331E+02  0.97345368104E+02  0.12700000000E+01 0. -1.
         25    2    1    2    0    0  0.00000000000E+00  0.00000000000E+00 -0.57229860969E+02  0.13747269278E+03  0.12499393695E+03 0.  0.
    9000005    1    3    3    0    0 -0.36477560923E+02  0.44914678382E+00  0.27185373187E+02  0.45506688509E+02  0.10000000000E+01 0.  0.
    9000005    1    3    3    0    0  0.36477560923E+02 -0.44914678382E+00 -0.84415234156E+02  0.91966004270E+02  0.10000000000E+01 0.  0.
<mgrwt>
<rscale>  0 0.12499394E+03</rscale>
<asrwt>0</asrwt>
<pdfrwt beam="1">  1        4 0.61725256E-02 0.12499394E+03</pdfrwt>
<pdfrwt beam="2">  1       -4 0.14977119E-01 0.12499394E+03</pdfrwt>
<totfact> 0.10187604E+04</totfact>
</mgrwt>
</event>
<event>
 5    1  0.3317939E-002  0.1249984E+03  0.7818608E-02  0.1235072E+00
          4   -1    0    0  501    0  0.00000000000E+00  0.00000000000E+00  0.72559901226E+02  0.72571014640E+02  0.12700000000E+01 0.  1.
         -4   -1    0    0    0  501 -0.00000000000E+00 -0.00000000000E+00 -0.53810721350E+02  0.53825706054E+02  0.12700000000E+01 0.  1.
         25    2    1    2    0    0  0.00000000000E+00  0.00000000000E+00  0.18749179876E+02  0.12639672069E+03  0.12499839701E+03 0.  0.
    9000005    1    3    3    0    0 -0.22694934518E+02 -0.56466114695E+02  0.23734426083E+02  0.65328440537E+02  0.10000000000E+01 0.  0.
    9000005    1    3    3    0    0  0.22694934518E+02  0.56466114695E+02 -0.49852462079E+01  0.61068280157E+02  0.10000000000E+01 0.  0.
<mgrwt>
<rscale>  0 0.12499840E+03</rscale>
<asrwt>0</asrwt>
<pdfrwt beam="1">  1        4 0.11165069E-01 0.12499840E+03</pdfrwt>
<pdfrwt beam="2">  1       -4 0.82805800E-02 0.12499840E+03</pdfrwt>
<totfact> 0.10422658E+04</totfact>
</mgrwt>
</event>
<event>
 5    1  0.3317939E-002  0.1249985E+03  0.7818608E-02  0.1235072E+00
          4   -1    0    0  501    0  0.00000000000E+00  0.00000000000E+00  0.36678941451E+02  0.36700921595E+02  0.12700000000E+01 0. -1.
         -4   -1    0    0    0  501 -0.00000000000E+00 -0.00000000000E+00 -0.10643818873E+03  0.10644576516E+03  0.12700000000E+01 0. -1.
         25    2    1    2    0    0  0.00000000000E+00  0.00000000000E+00 -0.69759247279E+02  0.14314668675E+03  0.12499848538E+03 0.  0.
    9000005    1    3    3    0    0  0.40307303521E+01 -0.60661046830E+02 -0.51441184936E+02  0.79644239574E+02  0.10000000000E+01 0.  0.
    9000005    1    3    3    0    0 -0.40307303521E+01  0.60661046830E+02 -0.18318062343E+02  0.63502447179E+02  0.10000000000E+01 0.  0.
<mgrwt>
<rscale>  0 0.12499849E+03</rscale>
<asrwt>0</asrwt>
<pdfrwt beam="1">  1        4 0.56451877E-02 0.12499849E+03</pdfrwt>
<pdfrwt beam="2">  1       -4 0.16377379E-01 0.12499849E+03</pdfrwt>
<totfact> 0.10069124E+04</totfact>
</mgrwt>
</event>
<event>
 5    1  0.3317939E-002  0.1250004E+03  0.7818608E-02  0.1235069E+00
         -4   -1    0    0    0  501 -0.00000000000E+00  0.00000000000E+00  0.46560001882E+03  0.46560175088E+03  0.12700000000E+01 0.  1.
          4   -1    0    0  501    0  0.00000000000E+00 -0.00000000000E+00 -0.83399523266E+01  0.84360953533E+01  0.12700000000E+01 0.  1.
         25    2    1    2    0    0  0.00000000000E+00  0.00000000000E+00  0.45726006649E+03  0.47403784624E+03  0.12500044502E+03 0.  0.
    9000005    1    3    3    0    0  0.26949883040E+02  0.55887685005E+02  0.25689423829E+03  0.26428276372E+03  0.10000000000E+01 0.  0.
    9000005    1    3    3    0    0 -0.26949883040E+02 -0.55887685005E+02  0.20036582820E+03  0.20975508251E+03  0.10000000000E+01 0.  0.
<mgrwt>
<rscale>  0 0.12500045E+03</rscale>
<asrwt>0</asrwt>
<pdfrwt beam="2">  1        4 0.12905985E-02 0.12500045E+03</pdfrwt>
<pdfrwt beam="1">  1       -4 0.71638297E-01 0.12500045E+03</pdfrwt>
<totfact> 0.57935953E+03</totfact>
</mgrwt>
</event>
<event>
 5    1  0.3317939E-002  0.1249996E+03  0.7818608E-02  0.1235070E+00
         -4   -1    0    0    0  501 -0.00000000000E+00  0.00000000000E+00  0.65673322162E+02  0.65685600734E+02  0.12700000000E+01 0.  1.
          4   -1    0    0  501    0  0.00000000000E+00 -0.00000000000E+00 -0.59455003708E+02  0.59468566200E+02  0.12700000000E+01 0.  1.
         25    2    1    2    0    0  0.00000000000E+00  0.00000000000E+00  0.62183184540E+01  0.12515416693E+03  0.12499959207E+03 0.  0.
    9000005    1    3    3    0    0 -0.42704939359E+02  0.32718988784E+02 -0.28726078173E+02  0.60995341132E+02  0.10000000000E+01 0.  0.
    9000005    1    3    3    0    0  0.42704939359E+02 -0.32718988784E+02  0.34944396627E+02  0.64158825802E+02  0.10000000000E+01 0.  0.
<mgrwt>
<rscale>  0 0.12499959E+03</rscale>
<asrwt>0</asrwt>
<pdfrwt beam="2">  1        4 0.91489114E-02 0.12499959E+03</pdfrwt>
<pdfrwt beam="1">  1       -4 0.10105576E-01 0.12499959E+03</pdfrwt>
<totfact> 0.10449611E+04</totfact>
</mgrwt>
</event>
<event>
 5    1  0.3317939E-002  0.1249989E+03  0.7818608E-02  0.1235071E+00
          4   -1    0    0  501    0  0.00000000000E+00  0.00000000000E+00  0.38805690634E+03  0.38805898451E+03  0.12700000000E+01 0. -1.
         -4   -1    0    0    0  501 -0.00000000000E+00 -0.00000000000E+00 -0.10023830286E+02  0.10103963263E+02  0.12700000000E+01 0. -1.
         25    2    1    2    0    0  0.00000000000E+00  0.00000000000E+00  0.37803307606E+03  0.39816294777E+03  0.12499890555E+03 0.  0.
    9000005    1    3    3    0    0  0.22968745203E+02 -0.27235938915E+02  0.25480802155E+02  0.43813592677E+02  0.10000000000E+01 0.  0.
    9000005    1    3    3    0    0 -0.22968745203E+02  0.27235938915E+02  0.35255227390E+03  0.35434935510E+03  0.10000000000E+01 0.  0.
<mgrwt>
<rscale>  0 0.12499891E+03</rscale>
<asrwt>0</asrwt>
<pdfrwt beam="1">  1        4 0.59707381E-01 0.12499891E+03</pdfrwt>
<pdfrwt beam="2">  1       -4 0.15484518E-02 0.12499891E+03</pdfrwt>
<totfact> 0.64733418E+03</totfact>
</mgrwt>
</event>
<event>
 5    1  0.3317939E-002  0.1249416E+03  0.7818608E-02  0.1235161E+00
         -4   -1    0    0    0  501 -0.00000000000E+00  0.00000000000E+00  0.37160494639E+02  0.37182190116E+02  0.12700000000E+01 0. -1.
          4   -1    0    0  501    0  0.00000000000E+00 -0.00000000000E+00 -0.10496397325E+03  0.10497165608E+03  0.12700000000E+01 0. -1.
         25    2    1    2    0    0  0.00000000000E+00  0.00000000000E+00 -0.67803478608E+02  0.14215384619E+03  0.12494160346E+03 0.  0.
    9000005    1    3    3    0    0  0.37532777766E+01 -0.22477310462E+02 -0.10007104938E+03  0.10263786584E+03  0.10000000000E+01 0.  0.
    9000005    1    3    3    0    0 -0.37532777766E+01  0.22477310462E+02  0.32267570774E+02  0.39515980354E+02  0.10000000000E+01 0.  0.
<mgrwt>
<rscale>  0 0.12494160E+03</rscale>
<asrwt>0</asrwt>
<pdfrwt beam="2">  1        4 0.16150563E-01 0.12494160E+03</pdfrwt>
<pdfrwt beam="1">  1       -4 0.57192591E-02 0.12494160E+03</pdfrwt>
<totfact> 0.10102422E+04</totfact>
</mgrwt>
</event>
<event>
 5    1  0.3317939E-002  0.1249986E+03  0.7818608E-02  0.1235072E+00
         -4   -1    0    0    0  501 -0.00000000000E+00  0.00000000000E+00  0.28582125862E+02  0.28610327136E+02  0.12700000000E+01 0. -1.
          4   -1    0    0  501    0  0.00000000000E+00 -0.00000000000E+00 -0.13656587687E+03  0.13657178195E+03  0.12700000000E+01 0. -1.
         25    2    1    2    0    0  0.00000000000E+00  0.00000000000E+00 -0.10798375101E+03  0.16518210909E+03  0.12499855471E+03 0.  0.
    9000005    1    3    3    0    0 -0.11824044201E+02 -0.58948184278E+02 -0.31470050035E+02  0.67867963725E+02  0.10000000000E+01 0.  0.
    9000005    1    3    3    0    0  0.11824044201E+02  0.58948184278E+02 -0.76513700972E+02  0.97314145361E+02  0.10000000000E+01 0.  0.
<mgrwt>
<rscale>  0 0.12499855E+03</rscale>
<asrwt>0</asrwt>
<pdfrwt beam="2">  1        4 0.21012758E-01 0.12499855E+03</pdfrwt>
<pdfrwt beam="1">  1       -4 0.43998738E-02 0.12499855E+03</pdfrwt>
<totfact> 0.96356043E+03</totfact>
</mgrwt>
</event>
<event>
 5    1  0.3317939E-002  0.1249753E+03  0.7818608E-02  0.1235108E+00
         -4   -1    0    0    0  501 -0.00000000000E+00  0.00000000000E+00  0.33604099453E+02  0.33628089450E+02  0.12700000000E+01 0.  1.
          4   -1    0    0  501    0  0.00000000000E+00 -0.00000000000E+00 -0.11612839133E+03  0.11613533559E+03  0.12700000000E+01 0.  1.
         25    2    1    2    0    0  0.00000000000E+00  0.00000000000E+00 -0.82524291872E+02  0.14976342504E+03  0.12497529648E+03 0.  0.
    9000005    1    3    3    0    0 -0.56600206434E+02 -0.15895024122E+01 -0.72912871554E+02  0.92322243931E+02  0.10000000000E+01 0.  0.
    9000005    1    3    3    0    0  0.56600206434E+02  0.15895024122E+01 -0.96114203188E+01  0.57441181106E+02  0.10000000000E+01 0.  0.
<mgrwt>
<rscale>  0 0.12497530E+03</rscale>
<asrwt>0</asrwt>
<pdfrwt beam="2">  1        4 0.17868286E-01 0.12497530E+03</pdfrwt>
<pdfrwt beam="1">  1       -4 0.51722411E-02 0.12497530E+03</pdfrwt>
<totfact> 0.99406134E+03</totfact>
</mgrwt>
</event>
<event>
 5    1  0.3317939E-002  0.1249914E+03  0.7818608E-02  0.1235083E+00
          4   -1    0    0  501    0  0.00000000000E+00  0.00000000000E+00  0.26583475608E+01  0.29461350536E+01  0.12700000000E+01 0. -1.
         -4   -1    0    0    0  501 -0.00000000000E+00 -0.00000000000E+00 -0.13934939909E+04  0.13934945696E+04  0.12700000000E+01 0. -1.
         25    2    1    2    0    0  0.00000000000E+00  0.00000000000E+00 -0.13908356434E+04  0.13964407047E+04  0.12499141931E+03 0.  0.
    9000005    1    3    3    0    0 -0.33368065812E+02 -0.44361380430E+02 -0.10159971808E+04  0.10175129637E+04  0.10000000000E+01 0.  0.
    9000005    1    3    3    0    0  0.33368065812E+02  0.44361380430E+02 -0.37483846255E+03  0.37892774099E+03  0.10000000000E+01 0.  0.
<mgrwt>
<rscale>  0 0.12499142E+03</rscale>
<asrwt>0</asrwt>
<pdfrwt beam="1">  1        4 0.43115968E-03 0.12499142E+03</pdfrwt>
<pdfrwt beam="2">  1       -4 0.21440532E+00 0.12499142E+03</pdfrwt>
<totfact> 0.20061271E+03</totfact>
</mgrwt>
</event>
<event>
 5    1  0.3317939E-002  0.1249945E+03  0.7818608E-02  0.1235078E+00
         -4   -1    0    0    0  501 -0.00000000000E+00  0.00000000000E+00  0.58190775287E+03  0.58190913875E+03  0.12700000000E+01 0.  1.
          4   -1    0    0  501    0  0.00000000000E+00 -0.00000000000E+00 -0.66507675552E+01  0.67709385666E+01  0.12700000000E+01 0.  1.
         25    2    1    2    0    0  0.00000000000E+00  0.00000000000E+00  0.57525698532E+03  0.58868007731E+03  0.12499453694E+03 0.  0.
    9000005    1    3    3    0    0  0.53043254487E+02 -0.67698043485E+01  0.43991048598E+03  0.44314969567E+03  0.10000000000E+01 0.  0.
    9000005    1    3    3    0    0 -0.53043254487E+02  0.67698043485E+01  0.13534649934E+03  0.14553038164E+03  0.10000000000E+01 0.  0.
<mgrwt>
<rscale>  0 0.12499454E+03</rscale>
<asrwt>0</asrwt>
<pdfrwt beam="2">  1        4 0.10325456E-02 0.12499454E+03</pdfrwt>
<pdfrwt beam="1">  1       -4 0.89533613E-01 0.12499454E+03</pdfrwt>
<totfact> 0.49595988E+03</totfact>
</mgrwt>
</event>
<event>
 5    1  0.3317939E-002  0.1249913E+03  0.7818608E-02  0.1235083E+00
         -4   -1    0    0    0  501 -0.00000000000E+00  0.00000000000E+00  0.30933846749E+02  0.30959905922E+02  0.12700000000E+01 0. -1.
          4   -1    0    0  501    0  0.00000000000E+00 -0.00000000000E+00 -0.12617759973E+03  0.12618399095E+03  0.12700000000E+01 0. -1.
         25    2    1    2    0    0  0.00000000000E+00  0.00000000000E+00 -0.95243752979E+02  0.15714389688E+03  0.12499132707E+03 0.  0.
    9000005    1    3    3    0    0  0.39329876745E+02 -0.37533546206E+02 -0.88895122570E+01  0.55096549109E+02  0.10000000000E+01 0.  0.
    9000005    1    3    3    0    0 -0.39329876745E+02  0.37533546206E+02 -0.86354240722E+02  0.10204734777E+03  0.10000000000E+01 0.  0.
<mgrwt>
<rscale>  0 0.12499133E+03</rscale>
<asrwt>0</asrwt>
<pdfrwt beam="2">  1        4 0.19414434E-01 0.12499133E+03</pdfrwt>
<pdfrwt beam="1">  1       -4 0.47615496E-02 0.12499133E+03</pdfrwt>
<totfact> 0.97915355E+03</totfact>
</mgrwt>
</event>
<event>
 4    1  0.3317939E-002  0.1226863E+03  0.7818608E-02  0.1238730E+00
          4   -1    0    0  501    0  0.00000000000E+00  0.00000000000E+00  0.10653314357E+03  0.10654071325E+03  0.12700000000E+01 0.  1.
         -4   -1    0    0    0  501 -0.00000000000E+00 -0.00000000000E+00 -0.35301943892E+02  0.35324780857E+02  0.12700000000E+01 0.  1.
    9000005    1    1    2    0    0 -0.45106955244E+02  0.40919660955E+02  0.27203165903E+02  0.66708832243E+02  0.10000000000E+01 0.  0.
    9000005    1    1    2    0    0  0.45106955244E+02 -0.40919660955E+02  0.44028033779E+02  0.75156661864E+02  0.10000000000E+01 0.  0.
<mgrwt>
<rscale>  0 0.12268633E+03</rscale>
<asrwt>0</asrwt>
<pdfrwt beam="1">  1        4 0.16392053E-01 0.12268633E+03</pdfrwt>
<pdfrwt beam="2">  1       -4 0.54334072E-02 0.12268633E+03</pdfrwt>
<totfact> 0.10639722E+04</totfact>
</mgrwt>
</event>
<event>
 5    1  0.3317939E-002  0.1249841E+03  0.7818608E-02  0.1235094E+00
          4   -1    0    0  501    0  0.00000000000E+00  0.00000000000E+00  0.82599419043E+01  0.83570054602E+01  0.12700000000E+01 0.  1.
         -4   -1    0    0    0  501 -0.00000000000E+00 -0.00000000000E+00 -0.46993486659E+03  0.46993658267E+03  0.12700000000E+01 0.  1.
         25    2    1    2    0    0  0.00000000000E+00  0.00000000000E+00 -0.46167492468E+03  0.47829358813E+03  0.12498408046E+03 0.  0.
    9000005    1    3    3    0    0  0.49710818734E+02 -0.17258642870E+01 -0.86118736266E+02  0.99456426855E+02  0.10000000000E+01 0.  0.
    9000005    1    3    3    0    0 -0.49710818734E+02  0.17258642870E+01 -0.37555618842E+03  0.37883716128E+03  0.10000000000E+01 0.  0.
<mgrwt>
<rscale>  0 0.12498408E+03</rscale>
<asrwt>0</asrwt>
<pdfrwt beam="1">  1        4 0.12783591E-02 0.12498408E+03</pdfrwt>
<pdfrwt beam="2">  1       -4 0.72305249E-01 0.12498408E+03</pdfrwt>
<totfact> 0.57608933E+03</totfact>
</mgrwt>
</event>
<event>
 5    1  0.3317939E-002  0.1249998E+03  0.7818608E-02  0.1235070E+00
         -4   -1    0    0    0  501 -0.00000000000E+00  0.00000000000E+00  0.13103062277E+03  0.13103677730E+03  0.12700000000E+01 0.  1.
          4   -1    0    0  501    0  0.00000000000E+00 -0.00000000000E+00 -0.29791255593E+02  0.29818313329E+02  0.12700000000E+01 0.  1.
         25    2    1    2    0    0  0.00000000000E+00  0.00000000000E+00  0.10123936718E+03  0.16085509063E+03  0.12499980285E+03 0.  0.
    9000005    1    3    3    0    0  0.12486706482E+02  0.29446631490E+02 -0.18466105741E+02  0.36946163619E+02  0.10000000000E+01 0.  0.
    9000005    1    3    3    0    0 -0.12486706482E+02 -0.29446631490E+02  0.11970547292E+03  0.12390892701E+03  0.10000000000E+01 0.  0.
<mgrwt>
<rscale>  0 0.12499980E+03</rscale>
<asrwt>0</asrwt>
<pdfrwt beam="2">  1        4 0.45858249E-02 0.12499980E+03</pdfrwt>
<pdfrwt beam="1">  1       -4 0.20161112E-01 0.12499980E+03</pdfrwt>
<totfact> 0.97178614E+03</totfact>
</mgrwt>
</event>
<event>
 5    1  0.3317939E-002  0.1249985E+03  0.7818608E-02  0.1235072E+00
          4   -1    0    0  501    0  0.00000000000E+00  0.00000000000E+00  0.84145055651E+02  0.84154639150E+02  0.12700000000E+01 0.  1.
         -4   -1    0    0    0  501 -0.00000000000E+00 -0.00000000000E+00 -0.46400775781E+02  0.46418152625E+02  0.12700000000E+01 0.  1.
         25    2    1    2    0    0  0.00000000000E+00  0.00000000000E+00  0.37744279870E+02  0.13057279178E+03  0.12499849315E+03 0.  0.
    9000005    1    3    3    0    0 -0.49121961871E+02  0.34117324277E+02  0.37796235328E+02  0.70756726598E+02  0.10000000000E+01 0.  0.
    9000005    1    3    3    0    0  0.49121961871E+02 -0.34117324277E+02 -0.51955457816E-01  0.59816065177E+02  0.10000000000E+01 0.  0.
<mgrwt>
<rscale>  0 0.12499849E+03</rscale>
<asrwt>0</asrwt>
<pdfrwt beam="1">  1        4 0.12947467E-01 0.12499849E+03</pdfrwt>
<pdfrwt beam="2">  1       -4 0.71406548E-02 0.12499849E+03</pdfrwt>
<totfact> 0.10332608E+04</totfact>
</mgrwt>
</event>
<event>
 5    1  0.3317939E-002  0.1250010E+03  0.7818608E-02  0.1235068E+00
          4   -1    0    0  501    0  0.00000000000E+00  0.00000000000E+00  0.24076806827E+01  0.27220996069E+01  0.12700000000E+01 0. -1.
         -4   -1    0    0    0  501 -0.00000000000E+00 -0.00000000000E+00 -0.15226795176E+04  0.15226800473E+04  0.12700000000E+01 0. -1.
         25    2    1    2    0    0  0.00000000000E+00  0.00000000000E+00 -0.15202718369E+04  0.15254021469E+04  0.12500100574E+03 0.  0.
    9000005    1    3    3    0    0  0.26719736222E+02  0.87574423046E-01 -0.70755719627E+02  0.75639433056E+02  0.10000000000E+01 0.  0.
    9000005    1    3    3    0    0 -0.26719736222E+02 -0.87574423046E-01 -0.14495161173E+04  0.14497627138E+04  0.10000000000E+01 0.  0.
<mgrwt>
<rscale>  0 0.12500101E+03</rscale>
<asrwt>0</asrwt>
<pdfrwt beam="1">  1        4 0.39464044E-03 0.12500101E+03</pdfrwt>
<pdfrwt beam="2">  1       -4 0.23428189E+00 0.12500101E+03</pdfrwt>
<totfact> 0.17436134E+03</totfact>
</mgrwt>
</event>
<event>
 5    1  0.3317939E-002  0.1250027E+03  0.7818608E-02  0.1235065E+00
         -4   -1    0    0    0  501 -0.00000000000E+00  0.00000000000E+00  0.10605102826E+03  0.10605863234E+03  0.12700000000E+01 0.  1.
          4   -1    0    0  501    0  0.00000000000E+00 -0.00000000000E+00 -0.36815384990E+02  0.36837283722E+02  0.12700000000E+01 0.  1.
         25    2    1    2    0    0  0.00000000000E+00  0.00000000000E+00  0.69235643267E+02  0.14289591607E+03  0.12500267409E+03 0.  0.
    9000005    1    3    3    0    0 -0.15632007845E+02  0.46702707097E+02  0.78594137417E+02  0.92755274544E+02  0.10000000000E+01 0.  0.
    9000005    1    3    3    0    0  0.15632007845E+02 -0.46702707097E+02 -0.93584941494E+01  0.50140641521E+02  0.10000000000E+01 0.  0.
<mgrwt>
<rscale>  0 0.12500267E+03</rscale>
<asrwt>0</asrwt>
<pdfrwt beam="2">  1        4 0.56661749E-02 0.12500267E+03</pdfrwt>
<pdfrwt beam="1">  1       -4 0.16317812E-01 0.12500267E+03</pdfrwt>
<totfact> 0.10073308E+04</totfact>
</mgrwt>
</event>
<event>
 5    1  0.3317939E-002  0.1249988E+03  0.7818608E-02  0.1235071E+00
         -4   -1    0    0    0  501 -0.00000000000E+00  0.00000000000E+00  0.21654704475E+03  0.21655076885E+03  0.12700000000E+01 0. -1.
          4   -1    0    0  501    0  0.00000000000E+00 -0.00000000000E+00 -0.18012207899E+02  0.18056924804E+02  0.12700000000E+01 0. -1.
         25    2    1    2    0    0  0.00000000000E+00  0.00000000000E+00  0.19853483685E+03  0.23460769365E+03  0.12499875391E+03 0.  0.
    9000005    1    3    3    0    0  0.32676032206E+02  0.51605200062E+02  0.12405022506E+03  0.13827609371E+03  0.10000000000E+01 0.  0.
    9000005    1    3    3    0    0 -0.32676032206E+02 -0.51605200062E+02  0.74484611786E+02  0.96331599940E+02  0.10000000000E+01 0.  0.
<mgrwt>
<rscale>  0 0.12499875E+03</rscale>
<asrwt>0</asrwt>
<pdfrwt beam="2">  1        4 0.27748352E-02 0.12499875E+03</pdfrwt>
<pdfrwt beam="1">  1       -4 0.33318656E-01 0.12499875E+03</pdfrwt>
<totfact> 0.84609418E+03</totfact>
</mgrwt>
</event>
<event>
 5    1  0.3317939E-002  0.1249982E+03  0.7818608E-02  0.1235072E+00
         -4   -1    0    0    0  501 -0.00000000000E+00  0.00000000000E+00  0.24721039877E+03  0.24721366095E+03  0.12700000000E+01 0.  1.
          4   -1    0    0  501    0  0.00000000000E+00 -0.00000000000E+00 -0.15771968728E+02  0.15823017966E+02  0.12700000000E+01 0.  1.
         25    2    1    2    0    0  0.00000000000E+00  0.00000000000E+00  0.23143843004E+03  0.26303667891E+03  0.12499819020E+03 0.  0.
    9000005    1    3    3    0    0  0.30588676282E+02  0.79389241028E+01  0.22720855121E+01  0.31699463799E+02  0.10000000000E+01 0.  0.
    9000005    1    3    3    0    0 -0.30588676282E+02 -0.79389241028E+01  0.22916634453E+03  0.23133721512E+03  0.10000000000E+01 0.  0.
<mgrwt>
<rscale>  0 0.12499819E+03</rscale>
<asrwt>0</asrwt>
<pdfrwt beam="2">  1        4 0.24306347E-02 0.12499819E+03</pdfrwt>
<pdfrwt beam="1">  1       -4 0.38036545E-01 0.12499819E+03</pdfrwt>
<totfact> 0.80485028E+03</totfact>
</mgrwt>
</event>
<event>
 5    1  0.3317939E-002  0.1249851E+03  0.7818608E-02  0.1235093E+00
         -4   -1    0    0    0  501 -0.00000000000E+00  0.00000000000E+00  0.31813661098E+02  0.31839000179E+02  0.12700000000E+01 0.  1.
          4   -1    0    0  501    0  0.00000000000E+00 -0.00000000000E+00 -0.12267848787E+03  0.12268506138E+03  0.12700000000E+01 0.  1.
         25    2    1    2    0    0  0.00000000000E+00  0.00000000000E+00 -0.90864826768E+02  0.15452406156E+03  0.12498507453E+03 0.  0.
    9000005    1    3    3    0    0 -0.29954068441E+01 -0.24663108571E+02 -0.11631553294E+03  0.11894345123E+03  0.10000000000E+01 0.  0.
    9000005    1    3    3    0    0  0.29954068441E+01  0.24663108571E+02  0.25450706174E+02  0.35580610328E+02  0.10000000000E+01 0.  0.
<mgrwt>
<rscale>  0 0.12498507E+03</rscale>
<asrwt>0</asrwt>
<pdfrwt beam="2">  1        4 0.18876068E-01 0.12498507E+03</pdfrwt>
<pdfrwt beam="1">  1       -4 0.48968643E-02 0.12498507E+03</pdfrwt>
<totfact> 0.98442055E+03</totfact>
</mgrwt>
</event>
<event>
 5    1  0.3317939E-002  0.1250007E+03  0.7818608E-02  0.1235068E+00
         -4   -1    0    0    0  501 -0.00000000000E+00  0.00000000000E+00  0.13960397839E+03  0.13960975497E+03  0.12700000000E+01 0. -1.
          4   -1    0    0  501    0  0.00000000000E+00 -0.00000000000E+00 -0.27960474180E+02  0.27989301820E+02  0.12700000000E+01 0. -1.
         25    2    1    2    0    0  0.00000000000E+00  0.00000000000E+00  0.11164350421E+03  0.16759905679E+03  0.12500068721E+03 0.  0.
    9000005    1    3    3    0    0  0.43606087617E+02 -0.18934694184E+01 -0.41432302208E+01  0.43854788340E+02  0.10000000000E+01 0.  0.
    9000005    1    3    3    0    0 -0.43606087617E+02  0.18934694184E+01  0.11578673443E+03  0.12374426845E+03  0.10000000000E+01 0.  0.
<mgrwt>
<rscale>  0 0.12500069E+03</rscale>
<asrwt>0</asrwt>
<pdfrwt beam="2">  1        4 0.43042732E-02 0.12500069E+03</pdfrwt>
<pdfrwt beam="1">  1       -4 0.21480197E-01 0.12500069E+03</pdfrwt>
<totfact> 0.95895944E+03</totfact>
</mgrwt>
</event>
<event>
 5    1  0.3317939E-002  0.1249861E+03  0.7818608E-02  0.1235091E+00
         -4   -1    0    0    0  501 -0.00000000000E+00  0.00000000000E+00  0.16368131350E+02  0.16417326941E+02  0.12700000000E+01 0. -1.
          4   -1    0    0  501    0  0.00000000000E+00 -0.00000000000E+00 -0.23818772989E+03  0.23819111564E+03  0.12700000000E+01 0. -1.
         25    2    1    2    0    0  0.00000000000E+00  0.00000000000E+00 -0.22181959854E+03  0.25460844258E+03  0.12498609817E+03 0.  0.
    9000005    1    3    3    0    0  0.35185101825E+02  0.49435881529E+01 -0.62033464693E+01  0.36082017151E+02  0.10000000000E+01 0.  0.
    9000005    1    3    3    0    0 -0.35185101825E+02 -0.49435881529E+01 -0.21561625207E+03  0.21852642543E+03  0.10000000000E+01 0.  0.
<mgrwt>
<rscale>  0 0.12498610E+03</rscale>
<asrwt>0</asrwt>
<pdfrwt beam="2">  1        4 0.36648308E-01 0.12498610E+03</pdfrwt>
<pdfrwt beam="1">  1       -4 0.25222189E-02 0.12498610E+03</pdfrwt>
<totfact> 0.81693983E+03</totfact>
</mgrwt>
</event>
<event>
 5    1  0.3317939E-002  0.1250021E+03  0.7818608E-02  0.1235066E+00
          4   -1    0    0  501    0  0.00000000000E+00  0.00000000000E+00  0.44238023225E+02  0.44256249263E+02  0.12700000000E+01 0.  1.
         -4   -1    0    0    0  501 -0.00000000000E+00 -0.00000000000E+00 -0.88262662718E+02  0.88271799178E+02  0.12700000000E+01 0.  1.
         25    2    1    2    0    0  0.00000000000E+00  0.00000000000E+00 -0.44024639493E+02  0.13252804844E+03  0.12500205895E+03 0.  0.
    9000005    1    3    3    0    0  0.40661685631E+02 -0.36683942175E+02  0.99049168495E+01  0.55661401973E+02  0.10000000000E+01 0.  0.
    9000005    1    3    3    0    0 -0.40661685631E+02  0.36683942175E+02 -0.53929556343E+02  0.76866646467E+02  0.10000000000E+01 0.  0.
<mgrwt>
<rscale>  0 0.12500206E+03</rscale>
<asrwt>0</asrwt>
<pdfrwt beam="1">  1        4 0.68079545E-02 0.12500206E+03</pdfrwt>
<pdfrwt beam="2">  1       -4 0.13580976E-01 0.12500206E+03</pdfrwt>
<totfact> 0.10289962E+04</totfact>
</mgrwt>
</event>
<event>
 5    1  0.3317939E-002  0.1249964E+03  0.7818608E-02  0.1235075E+00
          4   -1    0    0  501    0  0.00000000000E+00  0.00000000000E+00  0.11383160504E+03  0.11383868940E+03  0.12700000000E+01 0.  1.
         -4   -1    0    0    0  501 -0.00000000000E+00 -0.00000000000E+00 -0.34294151076E+02  0.34317658691E+02  0.12700000000E+01 0.  1.
         25    2    1    2    0    0  0.00000000000E+00  0.00000000000E+00  0.79537453961E+02  0.14815634810E+03  0.12499638754E+03 0.  0.
    9000005    1    3    3    0    0  0.66448496705E+01  0.47112117313E+02  0.87788405497E+02  0.99857447217E+02  0.10000000000E+01 0.  0.
    9000005    1    3    3    0    0 -0.66448496705E+01 -0.47112117313E+02 -0.82509515363E+01  0.48298900879E+02  0.10000000000E+01 0.  0.
<mgrwt>
<rscale>  0 0.12499639E+03</rscale>
<asrwt>0</asrwt>
<pdfrwt beam="1">  1        4 0.17514908E-01 0.12499639E+03</pdfrwt>
<pdfrwt beam="2">  1       -4 0.52783764E-02 0.12499639E+03</pdfrwt>
<totfact> 0.99680584E+03</totfact>
</mgrwt>
</event>
<event>
 5    1  0.3317939E-002  0.1249948E+03  0.7818608E-02  0.1235077E+00
          4   -1    0    0  501    0  0.00000000000E+00  0.00000000000E+00  0.30023496874E+02  0.30050345498E+02  0.12700000000E+01 0.  1.
         -4   -1    0    0    0  501 -0.00000000000E+00 -0.00000000000E+00 -0.13000741726E+03  0.13001362022E+03  0.12700000000E+01 0.  1.
         25    2    1    2    0    0  0.00000000000E+00  0.00000000000E+00 -0.99983920381E+02  0.16006396571E+03  0.12499475503E+03 0.  0.
    9000005    1    3    3    0    0 -0.30845586266E+01 -0.43924281051E+02  0.67887400564E+01  0.44563931147E+02  0.10000000000E+01 0.  0.
    9000005    1    3    3    0    0  0.30845586266E+01  0.43924281051E+02 -0.10677266044E+03  0.11550003457E+03  0.10000000000E+01 0.  0.
<mgrwt>
<rscale>  0 0.12499476E+03</rscale>
<asrwt>0</asrwt>
<pdfrwt beam="1">  1        4 0.46215420E-02 0.12499476E+03</pdfrwt>
<pdfrwt beam="2">  1       -4 0.20003683E-01 0.12499476E+03</pdfrwt>
<totfact> 0.97341930E+03</totfact>
</mgrwt>
</event>
<event>
 5    1  0.3317939E-002  0.1249993E+03  0.7818608E-02  0.1235070E+00
          4   -1    0    0  501    0  0.00000000000E+00  0.00000000000E+00  0.23799942901E+02  0.23833803349E+02  0.12700000000E+01 0. -1.
         -4   -1    0    0    0  501 -0.00000000000E+00 -0.00000000000E+00 -0.16397361583E+03  0.16397853393E+03  0.12700000000E+01 0. -1.
         25    2    1    2    0    0  0.00000000000E+00  0.00000000000E+00 -0.14017367293E+03  0.18781233728E+03  0.12499926180E+03 0.  0.
    9000005    1    3    3    0    0 -0.22808592051E+02  0.99881018607E+01  0.16032014142E+02  0.29631394290E+02  0.10000000000E+01 0.  0.
    9000005    1    3    3    0    0  0.22808592051E+02 -0.99881018607E+01 -0.15620568707E+03  0.15818094299E+03  0.10000000000E+01 0.  0.
<mgrwt>
<rscale>  0 0.12499926E+03</rscale>
<asrwt>0</asrwt>
<pdfrwt beam="1">  1        4 0.36645127E-02 0.12499926E+03</pdfrwt>
<pdfrwt beam="2">  1       -4 0.25229692E-01 0.12499926E+03</pdfrwt>
<totfact> 0.92230885E+03</totfact>
</mgrwt>
</event>
<event>
 5    1  0.3317939E-002  0.1250025E+03  0.7818608E-02  0.1235065E+00
         -4   -1    0    0    0  501 -0.00000000000E+00  0.00000000000E+00  0.19898688405E+03  0.19899093679E+03  0.12700000000E+01 0.  1.
          4   -1    0    0  501    0  0.00000000000E+00 -0.00000000000E+00 -0.19606690039E+02  0.19647778355E+02  0.12700000000E+01 0.  1.
         25    2    1    2    0    0  0.00000000000E+00  0.00000000000E+00  0.17938019401E+03  0.21863871515E+03  0.12500253500E+03 0.  0.
    9000005    1    3    3    0    0  0.15896553460E+00  0.37677422694E+02  0.17689499936E+03  0.18086584600E+03  0.10000000000E+01 0.  0.
    9000005    1    3    3    0    0 -0.15896553460E+00 -0.37677422694E+02  0.24851946524E+01  0.37772869143E+02  0.10000000000E+01 0.  0.
<mgrwt>
<rscale>  0 0.12500253E+03</rscale>
<asrwt>0</asrwt>
<pdfrwt beam="2">  1        4 0.30198861E-02 0.12500253E+03</pdfrwt>
<pdfrwt beam="1">  1       -4 0.30616840E-01 0.12500253E+03</pdfrwt>
<totfact> 0.87079281E+03</totfact>
</mgrwt>
</event>
<event>
 5    1  0.3317939E-002  0.1249998E+03  0.7818608E-02  0.1235070E+00
          4   -1    0    0  501    0  0.00000000000E+00  0.00000000000E+00  0.11272843239E+03  0.11273558609E+03  0.12700000000E+01 0.  1.
         -4   -1    0    0    0  501 -0.00000000000E+00 -0.00000000000E+00 -0.34631843036E+02  0.34655121585E+02  0.12700000000E+01 0.  1.
         25    2    1    2    0    0  0.00000000000E+00  0.00000000000E+00  0.78096589359E+02  0.14739070767E+03  0.12499977375E+03 0.  0.
    9000005    1    3    3    0    0 -0.49596594572E+02 -0.37721393657E+02  0.44642647460E+02  0.76659583255E+02  0.10000000000E+01 0.  0.
    9000005    1    3    3    0    0  0.49596594572E+02  0.37721393657E+02  0.33453941899E+02  0.70731124416E+02  0.10000000000E+01 0.  0.
<mgrwt>
<rscale>  0 0.12499977E+03</rscale>
<asrwt>0</asrwt>
<pdfrwt beam="1">  1        4 0.17345176E-01 0.12499977E+03</pdfrwt>
<pdfrwt beam="2">  1       -4 0.53303169E-02 0.12499977E+03</pdfrwt>
<totfact> 0.99826896E+03</totfact>
</mgrwt>
</event>
<event>
 5    1  0.3317939E-002  0.1249981E+03  0.7818608E-02  0.1235072E+00
          4   -1    0    0  501    0  0.00000000000E+00  0.00000000000E+00  0.46419615895E+03  0.46419789625E+03  0.12700000000E+01 0. -1.
         -4   -1    0    0    0  501 -0.00000000000E+00 -0.00000000000E+00 -0.83651409350E+01  0.84609977463E+01  0.12700000000E+01 0. -1.
         25    2    1    2    0    0  0.00000000000E+00  0.00000000000E+00  0.45583101802E+03  0.47265889400E+03  0.12499805235E+03 0.  0.
    9000005    1    3    3    0    0 -0.25329009926E+01  0.23941196565E+02  0.98559445458E+01  0.26033365578E+02  0.10000000000E+01 0.  0.
    9000005    1    3    3    0    0  0.25329009926E+01 -0.23941196565E+02  0.44597507347E+03  0.44662552842E+03  0.10000000000E+01 0.  0.
<mgrwt>
<rscale>  0 0.12499805E+03</rscale>
<asrwt>0</asrwt>
<pdfrwt beam="1">  1        4 0.71422300E-01 0.12499805E+03</pdfrwt>
<pdfrwt beam="2">  1       -4 0.12944520E-02 0.12499805E+03</pdfrwt>
<totfact> 0.58052395E+03</totfact>
</mgrwt>
</event>
<event>
 5    1  0.3317939E-002  0.1250004E+03  0.7818608E-02  0.1235069E+00
         -4   -1    0    0    0  501 -0.00000000000E+00  0.00000000000E+00  0.65743618108E+03  0.65743740774E+03  0.12700000000E+01 0.  1.
          4   -1    0    0  501    0  0.00000000000E+00 -0.00000000000E+00 -0.58725672527E+01  0.60083230720E+01  0.12700000000E+01 0.  1.
         25    2    1    2    0    0  0.00000000000E+00  0.00000000000E+00  0.65156361383E+03  0.66344573081E+03  0.12500037946E+03 0.  0.
    9000005    1    3    3    0    0 -0.47647677797E+02  0.95544666878E+01  0.53431412451E+03  0.53652043081E+03  0.10000000000E+01 0.  0.
    9000005    1    3    3    0    0  0.47647677797E+02 -0.95544666878E+01  0.11724948932E+03  0.12692530000E+03  0.10000000000E+01 0.  0.
<mgrwt>
<rscale>  0 0.12500038E+03</rscale>
<asrwt>0</asrwt>
<pdfrwt beam="2">  1        4 0.91400953E-03 0.12500038E+03</pdfrwt>
<pdfrwt beam="1">  1       -4 0.10115451E+00 0.12500038E+03</pdfrwt>
<totfact> 0.45087414E+03</totfact>
</mgrwt>
</event>
<event>
 5    1  0.3317939E-002  0.1250016E+03  0.7818608E-02  0.1235067E+00
          4   -1    0    0  501    0  0.00000000000E+00  0.00000000000E+00  0.11313563826E+02  0.11384622367E+02  0.12700000000E+01 0. -1.
         -4   -1    0    0    0  501 -0.00000000000E+00 -0.00000000000E+00 -0.34412716286E+03  0.34412950632E+03  0.12700000000E+01 0. -1.
         25    2    1    2    0    0  0.00000000000E+00  0.00000000000E+00 -0.33281359903E+03  0.35551412869E+03  0.12500161596E+03 0.  0.
    9000005    1    3    3    0    0  0.58632155488E+02 -0.20061882448E+02 -0.18936154563E+03  0.19924608841E+03  0.10000000000E+01 0.  0.
    9000005    1    3    3    0    0 -0.58632155488E+02  0.20061882448E+02 -0.14345205341E+03  0.15626804028E+03  0.10000000000E+01 0.  0.
<mgrwt>
<rscale>  0 0.12500162E+03</rscale>
<asrwt>0</asrwt>
<pdfrwt beam="1">  1        4 0.17461949E-02 0.12500162E+03</pdfrwt>
<pdfrwt beam="2">  1       -4 0.52948279E-01 0.12500162E+03</pdfrwt>
<totfact> 0.69119697E+03</totfact>
</mgrwt>
</event>
<event>
 5    1  0.3317939E-002  0.1250012E+03  0.7818608E-02  0.1235067E+00
          4   -1    0    0  501    0  0.00000000000E+00  0.00000000000E+00  0.12678262332E+03  0.12678898405E+03  0.12700000000E+01 0. -1.
         -4   -1    0    0    0  501 -0.00000000000E+00 -0.00000000000E+00 -0.30790960979E+02  0.30817140977E+02  0.12700000000E+01 0. -1.
         25    2    1    2    0    0  0.00000000000E+00  0.00000000000E+00  0.95991662343E+02  0.15760612503E+03  0.12500116562E+03 0.  0.
    9000005    1    3    3    0    0  0.28051242066E+02 -0.26355990733E+02  0.11006965969E+03  0.11660977838E+03  0.10000000000E+01 0.  0.
    9000005    1    3    3    0    0 -0.28051242066E+02  0.26355990733E+02 -0.14077997350E+02  0.40996346646E+02  0.10000000000E+01 0.  0.
<mgrwt>
<rscale>  0 0.12500117E+03</rscale>
<asrwt>0</asrwt>
<pdfrwt beam="1">  1        4 0.19507522E-01 0.12500117E+03</pdfrwt>
<pdfrwt beam="2">  1       -4 0.47395740E-02 0.12500117E+03</pdfrwt>
<totfact> 0.97803737E+03</totfact>
</mgrwt>
</event>
<event>
 5    1  0.3317939E-002  0.1249833E+03  0.7818608E-02  0.1235095E+00
          4   -1    0    0  501    0  0.00000000000E+00  0.00000000000E+00  0.12024630461E+04  0.12024637167E+04  0.12700000000E+01 0. -1.
         -4   -1    0    0    0  501 -0.00000000000E+00 -0.00000000000E+00 -0.31228152664E+01  0.33711830547E+01  0.12700000000E+01 0. -1.
         25    2    1    2    0    0  0.00000000000E+00  0.00000000000E+00  0.11993402308E+04  0.12058348998E+04  0.12498326419E+03 0.  0.
    9000005    1    3    3    0    0  0.62072922771E+02 -0.40372504366E+01  0.65663151783E+03  0.65957205621E+03  0.10000000000E+01 0.  0.
    9000005    1    3    3    0    0 -0.62072922771E+02  0.40372504366E+01  0.54270871299E+03  0.54626284359E+03  0.10000000000E+01 0.  0.
<mgrwt>
<rscale>  0 0.12498326E+03</rscale>
<asrwt>0</asrwt>
<pdfrwt beam="1">  1        4 0.18501336E+00 0.12498326E+03</pdfrwt>
<pdfrwt beam="2">  1       -4 0.49959023E-03 0.12498326E+03</pdfrwt>
<totfact> 0.24569518E+03</totfact>
</mgrwt>
</event>
<event>
 5    1  0.3317939E-002  0.1249986E+03  0.7818608E-02  0.1235071E+00
         -4   -1    0    0    0  501 -0.00000000000E+00  0.00000000000E+00  0.96081272396E+02  0.96089665445E+02  0.12700000000E+01 0. -1.
          4   -1    0    0  501    0  0.00000000000E+00 -0.00000000000E+00 -0.40634712139E+02  0.40654553627E+02  0.12700000000E+01 0. -1.
         25    2    1    2    0    0  0.00000000000E+00  0.00000000000E+00  0.55446560257E+02  0.13674421907E+03  0.12499864161E+03 0.  0.
    9000005    1    3    3    0    0 -0.54066745244E+02 -0.27376847502E+02  0.44402592965E+02  0.75135178063E+02  0.10000000000E+01 0.  0.
    9000005    1    3    3    0    0  0.54066745244E+02  0.27376847502E+02  0.11043967292E+02  0.61609041009E+02  0.10000000000E+01 0.  0.
<mgrwt>
<rscale>  0 0.12499864E+03</rscale>
<asrwt>0</asrwt>
<pdfrwt beam="2">  1        4 0.62536662E-02 0.12499864E+03</pdfrwt>
<pdfrwt beam="1">  1       -4 0.14783906E-01 0.12499864E+03</pdfrwt>
<totfact> 0.10201749E+04</totfact>
</mgrwt>
</event>
<event>
 5    1  0.3317939E-002  0.1250001E+03  0.7818608E-02  0.1235069E+00
          4   -1    0    0  501    0  0.00000000000E+00  0.00000000000E+00  0.59705412401E+02  0.59718918024E+02  0.12700000000E+01 0. -1.
         -4   -1    0    0    0  501 -0.00000000000E+00 -0.00000000000E+00 -0.65398446239E+02  0.65410776410E+02  0.12700000000E+01 0. -1.
         25    2    1    2    0    0  0.00000000000E+00  0.00000000000E+00 -0.56930338383E+01  0.12512969443E+03  0.12500011918E+03 0.  0.
    9000005    1    3    3    0    0 -0.59460659691E+01  0.47759815635E+02  0.37055833644E+02  0.60749407380E+02  0.10000000000E+01 0.  0.
    9000005    1    3    3    0    0  0.59460659691E+01 -0.47759815635E+02 -0.42748867482E+02  0.64380287053E+02  0.10000000000E+01 0.  0.
<mgrwt>
<rscale>  0 0.12500012E+03</rscale>
<asrwt>0</asrwt>
<pdfrwt beam="1">  1        4 0.91874355E-02 0.12500012E+03</pdfrwt>
<pdfrwt beam="2">  1       -4 0.10063287E-01 0.12500012E+03</pdfrwt>
<totfact> 0.10450018E+04</totfact>
</mgrwt>
</event>
<event>
 5    1  0.3317939E-002  0.1249959E+03  0.7818608E-02  0.1235076E+00
          4   -1    0    0  501    0  0.00000000000E+00  0.00000000000E+00  0.10114055326E+03  0.10114852651E+03  0.12700000000E+01 0. -1.
         -4   -1    0    0    0  501 -0.00000000000E+00 -0.00000000000E+00 -0.38599541621E+02  0.38620428705E+02  0.12700000000E+01 0. -1.
         25    2    1    2    0    0  0.00000000000E+00  0.00000000000E+00  0.62541011642E+02  0.13976895521E+03  0.12499593075E+03 0.  0.
    9000005    1    3    3    0    0  0.33963518801E+02  0.44720600567E+02  0.61924830080E+02  0.83601060429E+02  0.10000000000E+01 0.  0.
    9000005    1    3    3    0    0 -0.33963518801E+02 -0.44720600567E+02  0.61618156158E+00  0.56167894781E+02  0.10000000000E+01 0.  0.
<mgrwt>
<rscale>  0 0.12499593E+03</rscale>
<asrwt>0</asrwt>
<pdfrwt beam="1">  1        4 0.15562305E-01 0.12499593E+03</pdfrwt>
<pdfrwt beam="2">  1       -4 0.59406110E-02 0.12499593E+03</pdfrwt>
<totfact> 0.10139306E+04</totfact>
</mgrwt>
</event>
<event>
 5    1  0.3317939E-002  0.1250022E+03  0.7818608E-02  0.1235066E+00
         -4   -1    0    0    0  501 -0.00000000000E+00  0.00000000000E+00  0.21939624753E+02  0.21976351706E+02  0.12700000000E+01 0.  1.
          4   -1    0    0  501    0  0.00000000000E+00 -0.00000000000E+00 -0.17786373670E+03  0.17786827073E+03  0.12700000000E+01 0.  1.
         25    2    1    2    0    0  0.00000000000E+00  0.00000000000E+00 -0.15592411195E+03  0.19984462244E+03  0.12500217770E+03 0.  0.
    9000005    1    3    3    0    0  0.50868936475E+02 -0.11899035972E+02 -0.13279054894E+03  0.14270096581E+03  0.10000000000E+01 0.  0.
    9000005    1    3    3    0    0 -0.50868936475E+02  0.11899035972E+02 -0.23133563004E+02  0.57143656625E+02  0.10000000000E+01 0.  0.
<mgrwt>
<rscale>  0 0.12500218E+03</rscale>
<asrwt>0</asrwt>
<pdfrwt beam="2">  1        4 0.27366825E-01 0.12500218E+03</pdfrwt>
<pdfrwt beam="1">  1       -4 0.33785009E-02 0.12500218E+03</pdfrwt>
<totfact> 0.90157325E+03</totfact>
</mgrwt>
</event>
<event>
 5    1  0.3317939E-002  0.1250012E+03  0.7818608E-02  0.1235067E+00
         -4   -1    0    0    0  501 -0.00000000000E+00  0.00000000000E+00  0.32260140838E+02  0.32285129501E+02  0.12700000000E+01 0. -1.
          4   -1    0    0  501    0  0.00000000000E+00 -0.00000000000E+00 -0.12101310045E+03  0.12101976442E+03  0.12700000000E+01 0. -1.
         25    2    1    2    0    0  0.00000000000E+00  0.00000000000E+00 -0.88752959608E+02  0.15330489392E+03  0.12500121063E+03 0.  0.
    9000005    1    3    3    0    0  0.42894300511E+02  0.25489987049E+02  0.17682470221E+01  0.49937832889E+02  0.10000000000E+01 0.  0.
    9000005    1    3    3    0    0 -0.42894300511E+02 -0.25489987049E+02 -0.90521206631E+02  0.10336706103E+03  0.10000000000E+01 0.  0.
<mgrwt>
<rscale>  0 0.12500121E+03</rscale>
<asrwt>0</asrwt>
<pdfrwt beam="2">  1        4 0.18619835E-01 0.12500121E+03</pdfrwt>
<pdfrwt beam="1">  1       -4 0.49655335E-02 0.12500121E+03</pdfrwt>
<totfact> 0.98646263E+03</totfact>
</mgrwt>
</event>
<event>
 5    1  0.3317939E-002  0.1249963E+03  0.7818608E-02  0.1235075E+00
          4   -1    0    0  501    0  0.00000000000E+00  0.00000000000E+00  0.53609322725E+01  0.55093098325E+01  0.12700000000E+01 0. -1.
         -4   -1    0    0    0  501 -0.00000000000E+00 -0.00000000000E+00 -0.71851319454E+03  0.71851431693E+03  0.12700000000E+01 0. -1.
         25    2    1    2    0    0  0.00000000000E+00  0.00000000000E+00 -0.71315226227E+03  0.72402362676E+03  0.12499625166E+03 0.  0.
    9000005    1    3    3    0    0 -0.22628494622E+02  0.22287371130E+02 -0.66830213080E+03  0.66905718269E+03  0.10000000000E+01 0.  0.
    9000005    1    3    3    0    0  0.22628494622E+02 -0.22287371130E+02 -0.44850131474E+02  0.54966444072E+02  0.10000000000E+01 0.  0.
<mgrwt>
<rscale>  0 0.12499625E+03</rscale>
<asrwt>0</asrwt>
<pdfrwt beam="1">  1        4 0.83625937E-03 0.12499625E+03</pdfrwt>
<pdfrwt beam="2">  1       -4 0.11055192E+00 0.12499625E+03</pdfrwt>
<totfact> 0.41851899E+03</totfact>
</mgrwt>
</event>
<event>
 5    1  0.3317939E-002  0.1250001E+03  0.7818608E-02  0.1235069E+00
         -4   -1    0    0    0  501 -0.00000000000E+00  0.00000000000E+00  0.18106391459E+03  0.18106836849E+03  0.12700000000E+01 0. -1.
          4   -1    0    0  501    0  0.00000000000E+00 -0.00000000000E+00 -0.21550499195E+02  0.21587888168E+02  0.12700000000E+01 0. -1.
         25    2    1    2    0    0  0.00000000000E+00  0.00000000000E+00  0.15951341540E+03  0.20265625666E+03  0.12500011468E+03 0.  0.
    9000005    1    3    3    0    0  0.38832661024E+02 -0.47818736756E+02  0.62702743204E+02  0.87904727703E+02  0.10000000000E+01 0.  0.
    9000005    1    3    3    0    0 -0.38832661024E+02  0.47818736756E+02  0.96810672192E+02  0.11475152895E+03  0.10000000000E+01 0.  0.
<mgrwt>
<rscale>  0 0.12500011E+03</rscale>
<asrwt>0</asrwt>
<pdfrwt beam="2">  1        4 0.33186801E-02 0.12500011E+03</pdfrwt>
<pdfrwt beam="1">  1       -4 0.27859205E-01 0.12500011E+03</pdfrwt>
<totfact> 0.89689203E+03</totfact>
</mgrwt>
</event>
<event>
 5    1  0.3317939E-002  0.1249980E+03  0.7818608E-02  0.1235072E+00
          4   -1    0    0  501    0  0.00000000000E+00  0.00000000000E+00  0.58972162589E+02  0.58985836100E+02  0.12700000000E+01 0.  1.
         -4   -1    0    0    0  501 -0.00000000000E+00 -0.00000000000E+00 -0.66209353523E+02  0.66221532706E+02  0.12700000000E+01 0.  1.
         25    2    1    2    0    0  0.00000000000E+00  0.00000000000E+00 -0.72371909344E+01  0.12520736881E+03  0.12499803307E+03 0.  0.
    9000005    1    3    3    0    0 -0.40216869923E+02 -0.33125484445E+02  0.30941834577E+02  0.60606034957E+02  0.10000000000E+01 0.  0.
    9000005    1    3    3    0    0  0.40216869923E+02  0.33125484445E+02 -0.38179025512E+02  0.64601333850E+02  0.10000000000E+01 0.  0.
<mgrwt>
<rscale>  0 0.12499803E+03</rscale>
<asrwt>0</asrwt>
<pdfrwt beam="1">  1        4 0.90746291E-02 0.12499803E+03</pdfrwt>
<pdfrwt beam="2">  1       -4 0.10188043E-01 0.12499803E+03</pdfrwt>
<totfact> 0.10448825E+04</totfact>
</mgrwt>
</event>
<event>
 5    1  0.3317939E-002  0.1249963E+03  0.7818608E-02  0.1235075E+00
          4   -1    0    0  501    0  0.00000000000E+00  0.00000000000E+00  0.15667853472E+02  0.15719240835E+02  0.12700000000E+01 0. -1.
         -4   -1    0    0    0  501 -0.00000000000E+00 -0.00000000000E+00 -0.24884028419E+03  0.24884352500E+03  0.12700000000E+01 0. -1.
         25    2    1    2    0    0  0.00000000000E+00  0.00000000000E+00 -0.23317243072E+03  0.26456276584E+03  0.12499629843E+03 0.  0.
    9000005    1    3    3    0    0 -0.21680601105E+02 -0.58303863101E+02 -0.12922012851E+03  0.14341628404E+03  0.10000000000E+01 0.  0.
    9000005    1    3    3    0    0  0.21680601105E+02  0.58303863101E+02 -0.10395230221E+03  0.12114648180E+03  0.10000000000E+01 0.  0.
<mgrwt>
<rscale>  0 0.12499630E+03</rscale>
<asrwt>0</asrwt>
<pdfrwt beam="1">  1        4 0.24146413E-02 0.12499630E+03</pdfrwt>
<pdfrwt beam="2">  1       -4 0.38287320E-01 0.12499630E+03</pdfrwt>
<totfact> 0.80276589E+03</totfact>
</mgrwt>
</event>
<event>
 5    1  0.3317939E-002  0.1250034E+03  0.7818608E-02  0.1235064E+00
         -4   -1    0    0    0  501 -0.00000000000E+00  0.00000000000E+00  0.32859305516E+01  0.35228169964E+01  0.12700000000E+01 0.  1.
          4   -1    0    0  501    0  0.00000000000E+00 -0.00000000000E+00 -0.11472460083E+04  0.11472467113E+04  0.12700000000E+01 0.  1.
         25    2    1    2    0    0  0.00000000000E+00  0.00000000000E+00 -0.11439600778E+04  0.11507695283E+04  0.12500339053E+03 0.  0.
    9000005    1    3    3    0    0  0.18607201295E+02 -0.59431816968E+02 -0.52406234207E+03  0.52775061079E+03  0.10000000000E+01 0.  0.
    9000005    1    3    3    0    0 -0.18607201295E+02  0.59431816968E+02 -0.61989773572E+03  0.62301891750E+03  0.10000000000E+01 0.  0.
<mgrwt>
<rscale>  0 0.12500339E+03</rscale>
<asrwt>0</asrwt>
<pdfrwt beam="2">  1        4 0.17651735E+00 0.12500339E+03</pdfrwt>
<pdfrwt beam="1">  1       -4 0.52380480E-03 0.12500339E+03</pdfrwt>
<totfact> 0.26037019E+03</totfact>
</mgrwt>
</event>
<event>
 5    1  0.3317939E-002  0.1249974E+03  0.7818608E-02  0.1235073E+00
         -4   -1    0    0    0  501 -0.00000000000E+00  0.00000000000E+00  0.11930807014E+02  0.11998210533E+02  0.12700000000E+01 0.  1.
          4   -1    0    0  501    0  0.00000000000E+00 -0.00000000000E+00 -0.32640443748E+03  0.32640690818E+03  0.12700000000E+01 0.  1.
         25    2    1    2    0    0  0.00000000000E+00  0.00000000000E+00 -0.31447363047E+03  0.33840511871E+03  0.12499744042E+03 0.  0.
    9000005    1    3    3    0    0 -0.18860610294E+02  0.53743244231E+02 -0.87630803241E+02  0.10451897721E+03  0.10000000000E+01 0.  0.
    9000005    1    3    3    0    0  0.18860610294E+02 -0.53743244231E+02 -0.22684282722E+03  0.23388614150E+03  0.10000000000E+01 0.  0.
<mgrwt>
<rscale>  0 0.12499744E+03</rscale>
<asrwt>0</asrwt>
<pdfrwt beam="2">  1        4 0.50221436E-01 0.12499744E+03</pdfrwt>
<pdfrwt beam="1">  1       -4 0.18408840E-02 0.12499744E+03</pdfrwt>
<totfact> 0.71023285E+03</totfact>
</mgrwt>
</event>
<event>
 5    1  0.3317939E-002  0.1249890E+03  0.7818608E-02  0.1235087E+00
          4   -1    0    0  501    0  0.00000000000E+00  0.00000000000E+00  0.64926780384E+02  0.64939200111E+02  0.12700000000E+01 0. -1.
         -4   -1    0    0    0  501 -0.00000000000E+00 -0.00000000000E+00 -0.60128440248E+02  0.60141850875E+02  0.12700000000E+01 0. -1.
         25    2    1    2    0    0  0.00000000000E+00  0.00000000000E+00  0.47983401354E+01  0.12508105099E+03  0.12498898051E+03 0.  0.
    9000005    1    3    3    0    0  0.21608996427E+02 -0.24757622666E+02  0.55585970201E+02  0.64580869380E+02  0.10000000000E+01 0.  0.
    9000005    1    3    3    0    0 -0.21608996427E+02  0.24757622666E+02 -0.50787630066E+02  0.60500181606E+02  0.10000000000E+01 0.  0.
<mgrwt>
<rscale>  0 0.12498898E+03</rscale>
<asrwt>0</asrwt>
<pdfrwt beam="1">  1        4 0.99907223E-02 0.12498898E+03</pdfrwt>
<pdfrwt beam="2">  1       -4 0.92525163E-02 0.12498898E+03</pdfrwt>
<totfact> 0.10453706E+04</totfact>
</mgrwt>
</event>
<event>
 5    1  0.3317939E-002  0.1249929E+03  0.7818608E-02  0.1235080E+00
         -4   -1    0    0    0  501 -0.00000000000E+00  0.00000000000E+00  0.29911520517E+02  0.29938469561E+02  0.12700000000E+01 0.  1.
          4   -1    0    0  501    0  0.00000000000E+00 -0.00000000000E+00 -0.13048980023E+03  0.13049598026E+03  0.12700000000E+01 0.  1.
         25    2    1    2    0    0  0.00000000000E+00  0.00000000000E+00 -0.10057827971E+03  0.16043444982E+03  0.12499288915E+03 0.  0.
    9000005    1    3    3    0    0 -0.44582543367E+02 -0.14163566764E+02  0.28906165772E+01  0.46878198139E+02  0.10000000000E+01 0.  0.
    9000005    1    3    3    0    0  0.44582543367E+02  0.14163566764E+02 -0.10346889629E+03  0.11355625168E+03  0.10000000000E+01 0.  0.
<mgrwt>
<rscale>  0 0.12499289E+03</rscale>
<asrwt>0</asrwt>
<pdfrwt beam="2">  1        4 0.20077902E-01 0.12499289E+03</pdfrwt>
<pdfrwt beam="1">  1       -4 0.46043209E-02 0.12499289E+03</pdfrwt>
<totfact> 0.97274638E+03</totfact>
</mgrwt>
</event>
<event>
 5    1  0.3317939E-002  0.1249996E+03  0.7818608E-02  0.1235070E+00
         -4   -1    0    0    0  501 -0.00000000000E+00  0.00000000000E+00  0.22737796096E+02  0.22773235855E+02  0.12700000000E+01 0.  1.
          4   -1    0    0  501    0  0.00000000000E+00 -0.00000000000E+00 -0.17162278121E+03  0.17162748011E+03  0.12700000000E+01 0.  1.
         25    2    1    2    0    0  0.00000000000E+00  0.00000000000E+00 -0.14888498512E+03  0.19440071597E+03  0.12499959831E+03 0.  0.
    9000005    1    3    3    0    0  0.31094865402E+02 -0.21806077265E+02 -0.15162278019E+03  0.15631015045E+03  0.10000000000E+01 0.  0.
    9000005    1    3    3    0    0 -0.31094865402E+02  0.21806077265E+02  0.27377950741E+01  0.38090565524E+02  0.10000000000E+01 0.  0.
<mgrwt>
<rscale>  0 0.12499960E+03</rscale>
<asrwt>0</asrwt>
<pdfrwt beam="2">  1        4 0.26406592E-01 0.12499960E+03</pdfrwt>
<pdfrwt beam="1">  1       -4 0.35012102E-02 0.12499960E+03</pdfrwt>
<totfact> 0.91088012E+03</totfact>
</mgrwt>
</event>
<event>
 5    1  0.3317939E-002  0.1250053E+03  0.7818608E-02  0.1235061E+00
          4   -1    0    0  501    0  0.00000000000E+00  0.00000000000E+00  0.53828443763E+03  0.53828593582E+03  0.12700000000E+01 0. -1.
         -4   -1    0    0    0  501 -0.00000000000E+00 -0.00000000000E+00 -0.72003825989E+01  0.73115258032E+01  0.12700000000E+01 0. -1.
         25    2    1    2    0    0  0.00000000000E+00  0.00000000000E+00  0.53108405503E+03  0.54559746162E+03  0.12500526635E+03 0.  0.
    9000005    1    3    3    0    0 -0.55294322950E+02 -0.75838187781E+00  0.13847741690E+03  0.14911415857E+03  0.10000000000E+01 0.  0.
    9000005    1    3    3    0    0  0.55294322950E+02  0.75838187781E+00  0.39260663813E+03  0.39648330305E+03  0.10000000000E+01 0.  0.
<mgrwt>
<rscale>  0 0.12500527E+03</rscale>
<asrwt>0</asrwt>
<pdfrwt beam="1">  1        4 0.82821625E-01 0.12500527E+03</pdfrwt>
<pdfrwt beam="2">  1       -4 0.11164163E-02 0.12500527E+03</pdfrwt>
<totfact> 0.52486302E+03</totfact>
</mgrwt>
</event>
<event>
 5    1  0.3317939E-002  0.1249985E+03  0.7818608E-02  0.1235072E+00
          4   -1    0    0  501    0  0.00000000000E+00  0.00000000000E+00  0.10570519174E+03  0.10571282070E+03  0.12700000000E+01 0. -1.
         -4   -1    0    0    0  501 -0.00000000000E+00 -0.00000000000E+00 -0.36933445270E+02  0.36955274042E+02  0.12700000000E+01 0. -1.
         25    2    1    2    0    0  0.00000000000E+00  0.00000000000E+00  0.68771746466E+02  0.14266809474E+03  0.12499852857E+03 0.  0.
    9000005    1    3    3    0    0 -0.21531095980E+02  0.29368754360E+02 -0.23577215836E+02  0.43393512572E+02  0.10000000000E+01 0.  0.
    9000005    1    3    3    0    0  0.21531095980E+02 -0.29368754360E+02  0.92348962302E+02  0.99274582170E+02  0.10000000000E+01 0.  0.
<mgrwt>
<rscale>  0 0.12499853E+03</rscale>
<asrwt>0</asrwt>
<pdfrwt beam="1">  1        4 0.16264603E-01 0.12499853E+03</pdfrwt>
<pdfrwt beam="2">  1       -4 0.56843345E-02 0.12499853E+03</pdfrwt>
<totfact> 0.10078918E+04</totfact>
</mgrwt>
</event>
<event>
 5    1  0.3317939E-002  0.1250037E+03  0.7818608E-02  0.1235064E+00
         -4   -1    0    0    0  501 -0.00000000000E+00  0.00000000000E+00  0.19908013577E+02  0.19948481260E+02  0.12700000000E+01 0. -1.
          4   -1    0    0  501    0  0.00000000000E+00 -0.00000000000E+00 -0.19598473730E+03  0.19598885212E+03  0.12700000000E+01 0. -1.
         25    2    1    2    0    0  0.00000000000E+00  0.00000000000E+00 -0.17607672373E+03  0.21593733338E+03  0.12500367718E+03 0.  0.
    9000005    1    3    3    0    0  0.49707851769E+02  0.17039609829E+02 -0.14647261435E+03  0.15561634099E+03  0.10000000000E+01 0.  0.
    9000005    1    3    3    0    0 -0.49707851769E+02 -0.17039609829E+02 -0.29604109382E+02  0.60320992390E+02  0.10000000000E+01 0.  0.
<mgrwt>
<rscale>  0 0.12500368E+03</rscale>
<asrwt>0</asrwt>
<pdfrwt beam="2">  1        4 0.30154926E-01 0.12500368E+03</pdfrwt>
<pdfrwt beam="1">  1       -4 0.30662009E-02 0.12500368E+03</pdfrwt>
<totfact> 0.87508134E+03</totfact>
</mgrwt>
</event>
<event>
 5    1  0.3317939E-002  0.1249972E+03  0.7818608E-02  0.1235074E+00
         -4   -1    0    0    0  501 -0.00000000000E+00  0.00000000000E+00  0.14642882066E+02  0.14697853421E+02  0.12700000000E+01 0. -1.
          4   -1    0    0  501    0  0.00000000000E+00 -0.00000000000E+00 -0.26619971519E+03  0.26620274466E+03  0.12700000000E+01 0. -1.
         25    2    1    2    0    0  0.00000000000E+00  0.00000000000E+00 -0.25155683312E+03  0.28090059808E+03  0.12499722282E+03 0.  0.
    9000005    1    3    3    0    0 -0.57542092770E+02  0.13541544070E+02 -0.80241107473E+02  0.99669961295E+02  0.10000000000E+01 0.  0.
    9000005    1    3    3    0    0  0.57542092770E+02 -0.13541544070E+02 -0.17131572565E+03  0.18123063679E+03  0.10000000000E+01 0.  0.
<mgrwt>
<rscale>  0 0.12499722E+03</rscale>
<asrwt>0</asrwt>
<pdfrwt beam="2">  1        4 0.40958260E-01 0.12499722E+03</pdfrwt>
<pdfrwt beam="1">  1       -4 0.22572129E-02 0.12499722E+03</pdfrwt>
<totfact> 0.78063664E+03</totfact>
</mgrwt>
</event>
<event>
 5    1  0.3317939E-002  0.1250071E+03  0.7818608E-02  0.1235058E+00
          4   -1    0    0  501    0  0.00000000000E+00  0.00000000000E+00  0.24942935748E+02  0.24975246620E+02  0.12700000000E+01 0. -1.
         -4   -1    0    0    0  501 -0.00000000000E+00 -0.00000000000E+00 -0.15648903502E+03  0.15649418834E+03  0.12700000000E+01 0. -1.
         25    2    1    2    0    0  0.00000000000E+00  0.00000000000E+00 -0.13154609928E+03  0.18146943496E+03  0.12500711815E+03 0.  0.
    9000005    1    3    3    0    0 -0.25688023277E+02  0.22267013869E+02  0.10353321188E+02  0.35551170250E+02  0.10000000000E+01 0.  0.
    9000005    1    3    3    0    0  0.25688023277E+02 -0.22267013869E+02 -0.14189942046E+03  0.14591826471E+03  0.10000000000E+01 0.  0.
<mgrwt>
<rscale>  0 0.12500712E+03</rscale>
<asrwt>0</asrwt>
<pdfrwt beam="1">  1        4 0.38402567E-02 0.12500712E+03</pdfrwt>
<pdfrwt beam="2">  1       -4 0.24078118E-01 0.12500712E+03</pdfrwt>
<totfact> 0.93338271E+03</totfact>
</mgrwt>
</event>
<event>
 5    1  0.3317939E-002  0.1249989E+03  0.7818608E-02  0.1235071E+00
          4   -1    0    0  501    0  0.00000000000E+00  0.00000000000E+00  0.27240255137E+02  0.27269844149E+02  0.12700000000E+01 0. -1.
         -4   -1    0    0    0  501 -0.00000000000E+00 -0.00000000000E+00 -0.14328710950E+03  0.14329273760E+03  0.12700000000E+01 0. -1.
         25    2    1    2    0    0  0.00000000000E+00  0.00000000000E+00 -0.11604685437E+03  0.17056258175E+03  0.12499888754E+03 0.  0.
    9000005    1    3    3    0    0 -0.37448257687E+02  0.33499034480E+02 -0.73225830679E+01  0.50785603646E+02  0.10000000000E+01 0.  0.
    9000005    1    3    3    0    0  0.37448257687E+02 -0.33499034480E+02 -0.10872427130E+03  0.11977697810E+03  0.10000000000E+01 0.  0.
<mgrwt>
<rscale>  0 0.12499889E+03</rscale>
<asrwt>0</asrwt>
<pdfrwt beam="1">  1        4 0.41935176E-02 0.12499889E+03</pdfrwt>
<pdfrwt beam="2">  1       -4 0.22046879E-01 0.12499889E+03</pdfrwt>
<totfact> 0.95346263E+03</totfact>
</mgrwt>
</event>
<event>
 5    1  0.3317939E-002  0.1250017E+03  0.7818608E-02  0.1235067E+00
          4   -1    0    0  501    0  0.00000000000E+00  0.00000000000E+00  0.16329528804E+02  0.16378840342E+02  0.12700000000E+01 0. -1.
         -4   -1    0    0    0  501 -0.00000000000E+00 -0.00000000000E+00 -0.23880891843E+03  0.23881229538E+03  0.12700000000E+01 0. -1.
         25    2    1    2    0    0  0.00000000000E+00  0.00000000000E+00 -0.22247938963E+03  0.25519113572E+03  0.12500174775E+03 0.  0.
    9000005    1    3    3    0    0  0.20865147257E+02 -0.48298103919E+02 -0.18008695176E+03  0.18761762019E+03  0.10000000000E+01 0.  0.
    9000005    1    3    3    0    0 -0.20865147257E+02  0.48298103919E+02 -0.42392437869E+02  0.67573515527E+02  0.10000000000E+01 0.  0.
<mgrwt>
<rscale>  0 0.12500175E+03</rscale>
<asrwt>0</asrwt>
<pdfrwt beam="1">  1        4 0.25162883E-02 0.12500175E+03</pdfrwt>
<pdfrwt beam="2">  1       -4 0.36743884E-01 0.12500175E+03</pdfrwt>
<totfact> 0.81582515E+03</totfact>
</mgrwt>
</event>
<event>
 5    1  0.3317939E-002  0.1250011E+03  0.7818608E-02  0.1235068E+00
         -4   -1    0    0    0  501 -0.00000000000E+00  0.00000000000E+00  0.57845186919E+02  0.57859126762E+02  0.12700000000E+01 0.  1.
          4   -1    0    0  501    0  0.00000000000E+00 -0.00000000000E+00 -0.67502495984E+02  0.67514441892E+02  0.12700000000E+01 0.  1.
         25    2    1    2    0    0  0.00000000000E+00  0.00000000000E+00 -0.96573090650E+01  0.12537356865E+03  0.12500107239E+03 0.  0.
    9000005    1    3    3    0    0 -0.52015176357E+02 -0.27010328892E+02  0.16919609440E+02  0.61011553183E+02  0.10000000000E+01 0.  0.
    9000005    1    3    3    0    0  0.52015176357E+02  0.27010328892E+02 -0.26576918505E+02  0.64362015471E+02  0.10000000000E+01 0.  0.
<mgrwt>
<rscale>  0 0.12500107E+03</rscale>
<asrwt>0</asrwt>
<pdfrwt beam="2">  1        4 0.10386991E-01 0.12500107E+03</pdfrwt>
<pdfrwt beam="1">  1       -4 0.89012507E-02 0.12500107E+03</pdfrwt>
<totfact> 0.10444500E+04</totfact>
</mgrwt>
</event>
<event>
 5    1  0.3317939E-002  0.1250108E+03  0.7818608E-02  0.1235052E+00
          4   -1    0    0  501    0  0.00000000000E+00  0.00000000000E+00  0.70040703408E+02  0.70052216481E+02  0.12700000000E+01 0.  1.
         -4   -1    0    0    0  501 -0.00000000000E+00 -0.00000000000E+00 -0.55757444631E+02  0.55771906295E+02  0.12700000000E+01 0.  1.
         25    2    1    2    0    0  0.00000000000E+00  0.00000000000E+00  0.14283258778E+02  0.12582412278E+03  0.12501079310E+03 0.  0.
    9000005    1    3    3    0    0  0.22158000634E+02 -0.91363438582E+01  0.65236082645E+02  0.69506807221E+02  0.10000000000E+01 0.  0.
    9000005    1    3    3    0    0 -0.22158000634E+02  0.91363438582E+01 -0.50952823868E+02  0.56317315555E+02  0.10000000000E+01 0.  0.
<mgrwt>
<rscale>  0 0.12501079E+03</rscale>
<asrwt>0</asrwt>
<pdfrwt beam="1">  1        4 0.10777491E-01 0.12501079E+03</pdfrwt>
<pdfrwt beam="2">  1       -4 0.85800665E-02 0.12501079E+03</pdfrwt>
<totfact> 0.10432275E+04</totfact>
</mgrwt>
</event>
<event>
 5    1  0.3317939E-002  0.1249982E+03  0.7818608E-02  0.1235072E+00
         -4   -1    0    0    0  501 -0.00000000000E+00  0.00000000000E+00  0.75661758852E+01  0.76720217366E+01  0.12700000000E+01 0. -1.
          4   -1    0    0  501    0  0.00000000000E+00 -0.00000000000E+00 -0.51257081879E+03  0.51257239213E+03  0.12700000000E+01 0. -1.
         25    2    1    2    0    0  0.00000000000E+00  0.00000000000E+00 -0.50500464290E+03  0.52024441386E+03  0.12499824321E+03 0.  0.
    9000005    1    3    3    0    0  0.49059301706E+02 -0.38702802938E+02 -0.25519370675E+03  0.26273475218E+03  0.10000000000E+01 0.  0.
    9000005    1    3    3    0    0 -0.49059301706E+02  0.38702802938E+02 -0.24981093615E+03  0.25750966168E+03  0.10000000000E+01 0.  0.
<mgrwt>
<rscale>  0 0.12499824E+03</rscale>
<asrwt>0</asrwt>
<pdfrwt beam="2">  1        4 0.78865285E-01 0.12499824E+03</pdfrwt>
<pdfrwt beam="1">  1       -4 0.11722905E-02 0.12499824E+03</pdfrwt>
<totfact> 0.54329272E+03</totfact>
</mgrwt>
</event>
<event>
 5    1  0.3317939E-002  0.1250008E+03  0.7818608E-02  0.1235068E+00
          4   -1    0    0  501    0  0.00000000000E+00  0.00000000000E+00  0.15806488154E+02  0.15857426265E+02  0.12700000000E+01 0. -1.
         -4   -1    0    0    0  501 -0.00000000000E+00 -0.00000000000E+00 -0.24668272375E+03  0.24668599290E+03  0.12700000000E+01 0. -1.
         25    2    1    2    0    0  0.00000000000E+00  0.00000000000E+00 -0.23087623559E+03  0.26254341917E+03  0.12500084315E+03 0.  0.
    9000005    1    3    3    0    0  0.28104571158E+02  0.48145456279E+02 -0.17474978720E+03  0.18342938698E+03  0.10000000000E+01 0.  0.
    9000005    1    3    3    0    0 -0.28104571158E+02 -0.48145456279E+02 -0.56126448389E+02  0.79114032188E+02  0.10000000000E+01 0.  0.
<mgrwt>
<rscale>  0 0.12500084E+03</rscale>
<asrwt>0</asrwt>
<pdfrwt beam="1">  1        4 0.24359374E-02 0.12500084E+03</pdfrwt>
<pdfrwt beam="2">  1       -4 0.37955355E-01 0.12500084E+03</pdfrwt>
<totfact> 0.80548938E+03</totfact>
</mgrwt>
</event>
<event>
 5    1  0.3317939E-002  0.1250016E+03  0.7818608E-02  0.1235067E+00
         -4   -1    0    0    0  501 -0.00000000000E+00  0.00000000000E+00  0.77906663700E+02  0.77917014501E+02  0.12700000000E+01 0.  1.
          4   -1    0    0  501    0  0.00000000000E+00 -0.00000000000E+00 -0.50119705508E+02  0.50135793403E+02  0.12700000000E+01 0.  1.
         25    2    1    2    0    0  0.00000000000E+00  0.00000000000E+00  0.27786958192E+02  0.12805280790E+03  0.12500162626E+03 0.  0.
    9000005    1    3    3    0    0 -0.82445908513E+01  0.57043003588E+02  0.38638295511E+02  0.69395932278E+02  0.10000000000E+01 0.  0.
    9000005    1    3    3    0    0  0.82445908513E+01 -0.57043003588E+02 -0.10851337320E+02  0.58656875627E+02  0.10000000000E+01 0.  0.
<mgrwt>
<rscale>  0 0.12500163E+03</rscale>
<asrwt>0</asrwt>
<pdfrwt beam="2">  1        4 0.77127577E-02 0.12500163E+03</pdfrwt>
<pdfrwt beam="1">  1       -4 0.11987674E-01 0.12500163E+03</pdfrwt>
<totfact> 0.10385966E+04</totfact>
</mgrwt>
</event>
<event>
 4    1  0.3317939E-002  0.1249254E+03  0.7818608E-02  0.1235186E+00
         -4   -1    0    0    0  501 -0.00000000000E+00  0.00000000000E+00  0.50997525035E+02  0.51013336096E+02  0.12700000000E+01 0. -1.
          4   -1    0    0  501    0  0.00000000000E+00 -0.00000000000E+00 -0.76472464174E+02  0.76483009073E+02  0.12700000000E+01 0. -1.
    9000005    1    1    2    0    0  0.40977191715E+02  0.34626928340E+01 -0.60709795724E+02  0.73333483344E+02  0.10000000000E+01 0.  0.
    9000005    1    1    2    0    0 -0.40977191715E+02 -0.34626928340E+01  0.35234856585E+02  0.54162861825E+02  0.10000000000E+01 0.  0.
<mgrwt>
<rscale>  0 0.12492536E+03</rscale>
<asrwt>0</asrwt>
<pdfrwt beam="2">  1        4 0.11767022E-01 0.12492536E+03</pdfrwt>
<pdfrwt beam="1">  1       -4 0.78478004E-02 0.12492536E+03</pdfrwt>
<totfact> 0.10415920E+04</totfact>
</mgrwt>
</event>
<event>
 5    1  0.3317939E-002  0.1249992E+03  0.7818608E-02  0.1235071E+00
         -4   -1    0    0    0  501 -0.00000000000E+00  0.00000000000E+00  0.10557434729E+03  0.10558198570E+03  0.12700000000E+01 0.  1.
          4   -1    0    0  501    0  0.00000000000E+00 -0.00000000000E+00 -0.36979649834E+02  0.37001451348E+02  0.12700000000E+01 0.  1.
         25    2    1    2    0    0  0.00000000000E+00  0.00000000000E+00  0.68594697453E+02  0.14258343705E+03  0.12499921601E+03 0.  0.
    9000005    1    3    3    0    0 -0.30355900816E+01  0.55722668951E+02  0.22167921361E+01  0.55858256414E+02  0.10000000000E+01 0.  0.
    9000005    1    3    3    0    0  0.30355900816E+01 -0.55722668951E+02  0.66377905316E+02  0.86725180636E+02  0.10000000000E+01 0.  0.
<mgrwt>
<rscale>  0 0.12499922E+03</rscale>
<asrwt>0</asrwt>
<pdfrwt beam="2">  1        4 0.56914417E-02 0.12499922E+03</pdfrwt>
<pdfrwt beam="1">  1       -4 0.16244471E-01 0.12499922E+03</pdfrwt>
<totfact> 0.10080499E+04</totfact>
</mgrwt>
</event>
<event>
 5    1  0.3317939E-002  0.1250042E+03  0.7818608E-02  0.1235063E+00
         -4   -1    0    0    0  501 -0.00000000000E+00  0.00000000000E+00  0.64998817273E+02  0.65011223238E+02  0.12700000000E+01 0. -1.
          4   -1    0    0  501    0  0.00000000000E+00 -0.00000000000E+00 -0.60076402236E+02  0.60089824477E+02  0.12700000000E+01 0. -1.
         25    2    1    2    0    0  0.00000000000E+00  0.00000000000E+00  0.49224150371E+01  0.12510104771E+03  0.12500416781E+03 0.  0.
    9000005    1    3    3    0    0  0.45186067778E+02  0.14196502737E+02 -0.38340342909E+02  0.60945084343E+02  0.10000000000E+01 0.  0.
    9000005    1    3    3    0    0 -0.45186067778E+02 -0.14196502737E+02  0.43262757946E+02  0.64155963372E+02  0.10000000000E+01 0.  0.
<mgrwt>
<rscale>  0 0.12500417E+03</rscale>
<asrwt>0</asrwt>
<pdfrwt beam="2">  1        4 0.92445102E-02 0.12500417E+03</pdfrwt>
<pdfrwt beam="1">  1       -4 0.10001805E-01 0.12500417E+03</pdfrwt>
<totfact> 0.10449684E+04</totfact>
</mgrwt>
</event>
<event>
 5    1  0.3317939E-002  0.1250017E+03  0.7818608E-02  0.1235067E+00
          4   -1    0    0  501    0  0.00000000000E+00  0.00000000000E+00  0.69126793305E+01  0.70283736046E+01  0.12700000000E+01 0.  1.
         -4   -1    0    0    0  501 -0.00000000000E+00 -0.00000000000E+00 -0.56029396043E+03  0.56029539976E+03  0.12700000000E+01 0.  1.
         25    2    1    2    0    0  0.00000000000E+00  0.00000000000E+00 -0.55338128110E+03  0.56732377337E+03  0.12500168621E+03 0.  0.
    9000005    1    3    3    0    0  0.10910565996E+02  0.93758156539E+01 -0.55269921951E+03  0.55288730643E+03  0.10000000000E+01 0.  0.
    9000005    1    3    3    0    0 -0.10910565996E+02 -0.93758156539E+01 -0.68206159204E+00  0.14436466934E+02  0.10000000000E+01 0.  0.
<mgrwt>
<rscale>  0 0.12500169E+03</rscale>
<asrwt>0</asrwt>
<pdfrwt beam="1">  1        4 0.10724999E-02 0.12500169E+03</pdfrwt>
<pdfrwt beam="2">  1       -4 0.86208045E-01 0.12500169E+03</pdfrwt>
<totfact> 0.50995528E+03</totfact>
</mgrwt>
</event>
<event>
 5    1  0.3317939E-002  0.1250007E+03  0.7818608E-02  0.1235068E+00
          4   -1    0    0  501    0  0.00000000000E+00  0.00000000000E+00  0.10457964519E+03  0.10458735625E+03  0.12700000000E+01 0. -1.
         -4   -1    0    0    0  501 -0.00000000000E+00 -0.00000000000E+00 -0.37332418397E+02  0.37354014019E+02  0.12700000000E+01 0. -1.
         25    2    1    2    0    0  0.00000000000E+00  0.00000000000E+00  0.67247226794E+02  0.14194137027E+03  0.12500065233E+03 0.  0.
    9000005    1    3    3    0    0 -0.59910836602E+02 -0.17679193506E+02  0.35726189260E+02  0.71966817523E+02  0.10000000000E+01 0.  0.
    9000005    1    3    3    0    0  0.59910836602E+02  0.17679193506E+02  0.31521037534E+02  0.69974552750E+02  0.10000000000E+01 0.  0.
<mgrwt>
<rscale>  0 0.12500065E+03</rscale>
<asrwt>0</asrwt>
<pdfrwt beam="1">  1        4 0.16091431E-01 0.12500065E+03</pdfrwt>
<pdfrwt beam="2">  1       -4 0.57457032E-02 0.12500065E+03</pdfrwt>
<totfact> 0.10093359E+04</totfact>
</mgrwt>
</event>
<event>
 5    1  0.3317939E-002  0.1249949E+03  0.7818608E-02  0.1235077E+00
         -4   -1    0    0    0  501 -0.00000000000E+00  0.00000000000E+00  0.98628905998E+02  0.98637082268E+02  0.12700000000E+01 0. -1.
          4   -1    0    0  501    0  0.00000000000E+00 -0.00000000000E+00 -0.39582305889E+02  0.39602674651E+02  0.12700000000E+01 0. -1.
         25    2    1    2    0    0  0.00000000000E+00  0.00000000000E+00  0.59046600109E+02  0.13823975692E+03  0.12499491753E+03 0.  0.
    9000005    1    3    3    0    0 -0.56779964981E+02 -0.26063762131E+02  0.30943174171E+02  0.69726351887E+02  0.10000000000E+01 0.  0.
    9000005    1    3    3    0    0  0.56779964981E+02  0.26063762131E+02  0.28103425938E+02  0.68513405032E+02  0.10000000000E+01 0.  0.
<mgrwt>
<rscale>  0 0.12499492E+03</rscale>
<asrwt>0</asrwt>
<pdfrwt beam="2">  1        4 0.60917813E-02 0.12499492E+03</pdfrwt>
<pdfrwt beam="1">  1       -4 0.15175874E-01 0.12499492E+03</pdfrwt>
<totfact> 0.10171363E+04</totfact>
</mgrwt>
</event>
<event>
 5    1  0.3317939E-002  0.1250000E+03  0.7818608E-02  0.1235069E+00
         -4   -1    0    0    0  501 -0.00000000000E+00  0.00000000000E+00  0.60767329766E+02  0.60780599428E+02  0.12700000000E+01 0.  1.
          4   -1    0    0  501    0  0.00000000000E+00 -0.00000000000E+00 -0.64255493501E+02  0.64268042953E+02  0.12700000000E+01 0.  1.
         25    2    1    2    0    0  0.00000000000E+00  0.00000000000E+00 -0.34881637351E+01  0.12504864238E+03  0.12499998270E+03 0.  0.
    9000005    1    3    3    0    0 -0.48016769045E+02 -0.38186114625E+02  0.10154221144E+02  0.62192424512E+02  0.10000000000E+01 0.  0.
    9000005    1    3    3    0    0  0.48016769045E+02  0.38186114625E+02 -0.13642384879E+02  0.62856217869E+02  0.10000000000E+01 0.  0.
<mgrwt>
<rscale>  0 0.12499998E+03</rscale>
<asrwt>0</asrwt>
<pdfrwt beam="2">  1        4 0.98874467E-02 0.12499998E+03</pdfrwt>
<pdfrwt beam="1">  1       -4 0.93508060E-02 0.12499998E+03</pdfrwt>
<totfact> 0.10451810E+04</totfact>
</mgrwt>
</event>
<event>
 5    1  0.3317939E-002  0.1250000E+03  0.7818608E-02  0.1235069E+00
          4   -1    0    0  501    0  0.00000000000E+00  0.00000000000E+00  0.54724042046E+02  0.54738776730E+02  0.12700000000E+01 0. -1.
         -4   -1    0    0    0  501 -0.00000000000E+00 -0.00000000000E+00 -0.71350887761E+02  0.71362189458E+02  0.12700000000E+01 0. -1.
         25    2    1    2    0    0  0.00000000000E+00  0.00000000000E+00 -0.16626845715E+02  0.12610096619E+03  0.12500000670E+03 0.  0.
    9000005    1    3    3    0    0  0.46678079446E+02  0.10741069657E+02 -0.48804665052E+02  0.68389392518E+02  0.10000000000E+01 0.  0.
    9000005    1    3    3    0    0 -0.46678079446E+02 -0.10741069657E+02  0.32177819337E+02  0.57711573670E+02  0.10000000000E+01 0.  0.
<mgrwt>
<rscale>  0 0.12500001E+03</rscale>
<asrwt>0</asrwt>
<pdfrwt beam="1">  1        4 0.84210862E-02 0.12500001E+03</pdfrwt>
<pdfrwt beam="2">  1       -4 0.10979062E-01 0.12500001E+03</pdfrwt>
<totfact> 0.10428744E+04</totfact>
</mgrwt>
</event>
<event>
 5    1  0.3317939E-002  0.1249988E+03  0.7818608E-02  0.1235071E+00
          4   -1    0    0  501    0  0.00000000000E+00  0.00000000000E+00  0.26830230726E+03  0.26830531299E+03  0.12700000000E+01 0. -1.
         -4   -1    0    0    0  501 -0.00000000000E+00 -0.00000000000E+00 -0.14528059884E+02  0.14583464060E+02  0.12700000000E+01 0. -1.
         25    2    1    2    0    0  0.00000000000E+00  0.00000000000E+00  0.25377424737E+03  0.28288877705E+03  0.12499876620E+03 0.  0.
    9000005    1    3    3    0    0 -0.61831023278E+02  0.65033857361E+01  0.11260903092E+03  0.12863577772E+03  0.10000000000E+01 0.  0.
    9000005    1    3    3    0    0  0.61831023278E+02 -0.65033857361E+01  0.14116521646E+03  0.15425299933E+03  0.10000000000E+01 0.  0.
<mgrwt>
<rscale>  0 0.12499877E+03</rscale>
<asrwt>0</asrwt>
<pdfrwt beam="1">  1        4 0.41281770E-01 0.12499877E+03</pdfrwt>
<pdfrwt beam="2">  1       -4 0.22395792E-02 0.12499877E+03</pdfrwt>
<totfact> 0.77798760E+03</totfact>
</mgrwt>
</event>
<event>
 5    1  0.3317939E-002  0.1250003E+03  0.7818608E-02  0.1235069E+00
         -4   -1    0    0    0  501 -0.00000000000E+00  0.00000000000E+00  0.45984997766E+03  0.45985173138E+03  0.12700000000E+01 0.  1.
          4   -1    0    0  501    0  0.00000000000E+00 -0.00000000000E+00 -0.84454116398E+01  0.85403675428E+01  0.12700000000E+01 0.  1.
         25    2    1    2    0    0  0.00000000000E+00  0.00000000000E+00  0.45140456602E+03  0.46839209892E+03  0.12500030444E+03 0.  0.
    9000005    1    3    3    0    0 -0.23283628635E+02 -0.44669703110E+02  0.87121399342E+02  0.10064118422E+03  0.10000000000E+01 0.  0.
    9000005    1    3    3    0    0  0.23283628635E+02  0.44669703110E+02  0.36428316668E+03  0.36775091470E+03  0.10000000000E+01 0.  0.
<mgrwt>
<rscale>  0 0.12500030E+03</rscale>
<asrwt>0</asrwt>
<pdfrwt beam="2">  1        4 0.13067334E-02 0.12500030E+03</pdfrwt>
<pdfrwt beam="1">  1       -4 0.70753585E-01 0.12500030E+03</pdfrwt>
<totfact> 0.58402564E+03</totfact>
</mgrwt>
</event>
<event>
 5    1  0.3317939E-002  0.1250051E+03  0.7818608E-02  0.1235061E+00
          4   -1    0    0  501    0  0.00000000000E+00  0.00000000000E+00  0.99028226451E+01  0.99839268998E+01  0.12700000000E+01 0. -1.
         -4   -1    0    0    0  501 -0.00000000000E+00 -0.00000000000E+00 -0.39279972648E+03  0.39280177955E+03  0.12700000000E+01 0. -1.
         25    2    1    2    0    0  0.00000000000E+00  0.00000000000E+00 -0.38289690383E+03  0.40278570645E+03  0.12500514533E+03 0.  0.
    9000005    1    3    3    0    0 -0.26223745706E+02 -0.30882135630E+02 -0.34476946463E+03  0.34714316194E+03  0.10000000000E+01 0.  0.
    9000005    1    3    3    0    0  0.26223745706E+02  0.30882135630E+02 -0.38127439204E+02  0.55642544516E+02  0.10000000000E+01 0.  0.
<mgrwt>
<rscale>  0 0.12500515E+03</rscale>
<asrwt>0</asrwt>
<pdfrwt beam="1">  1        4 0.15299082E-02 0.12500515E+03</pdfrwt>
<pdfrwt beam="2">  1       -4 0.60437112E-01 0.12500515E+03</pdfrwt>
<totfact> 0.64275458E+03</totfact>
</mgrwt>
</event>
<event>
 5    1  0.3317939E-002  0.1249967E+03  0.7818608E-02  0.1235074E+00
          4   -1    0    0  501    0  0.00000000000E+00  0.00000000000E+00  0.26312146787E+03  0.26312453279E+03  0.12700000000E+01 0.  1.
         -4   -1    0    0    0  501 -0.00000000000E+00 -0.00000000000E+00 -0.14814693628E+02  0.14869029803E+02  0.12700000000E+01 0.  1.
         25    2    1    2    0    0  0.00000000000E+00  0.00000000000E+00  0.24830677424E+03  0.27799356259E+03  0.12499666678E+03 0.  0.
    9000005    1    3    3    0    0  0.55288059494E+02  0.26098082813E+02  0.15290785811E+03  0.16468057724E+03  0.10000000000E+01 0.  0.
    9000005    1    3    3    0    0 -0.55288059494E+02 -0.26098082813E+02  0.95398916135E+02  0.11331298535E+03  0.10000000000E+01 0.  0.
<mgrwt>
<rscale>  0 0.12499667E+03</rscale>
<asrwt>0</asrwt>
<pdfrwt beam="1">  1        4 0.40484641E-01 0.12499667E+03</pdfrwt>
<pdfrwt beam="2">  1       -4 0.22835991E-02 0.12499667E+03</pdfrwt>
<totfact> 0.78450711E+03</totfact>
</mgrwt>
</event>
<event>
 5    1  0.3317939E-002  0.1249993E+03  0.7818608E-02  0.1235070E+00
         -4   -1    0    0    0  501 -0.00000000000E+00  0.00000000000E+00  0.32271250959E+02  0.32296231026E+02  0.12700000000E+01 0.  1.
          4   -1    0    0  501    0  0.00000000000E+00 -0.00000000000E+00 -0.12096772013E+03  0.12097438660E+03  0.12700000000E+01 0.  1.
         25    2    1    2    0    0  0.00000000000E+00  0.00000000000E+00 -0.88696469171E+02  0.15327061763E+03  0.12499927433E+03 0.  0.
    9000005    1    3    3    0    0 -0.12749159609E+02  0.19008581478E+02 -0.11564924266E+03  0.11789662662E+03  0.10000000000E+01 0.  0.
    9000005    1    3    3    0    0  0.12749159609E+02 -0.19008581478E+02  0.26952773492E+02  0.35373991003E+02  0.10000000000E+01 0.  0.
<mgrwt>
<rscale>  0 0.12499927E+03</rscale>
<asrwt>0</asrwt>
<pdfrwt beam="2">  1        4 0.18612853E-01 0.12499927E+03</pdfrwt>
<pdfrwt beam="1">  1       -4 0.49672423E-02 0.12499927E+03</pdfrwt>
<totfact> 0.98657310E+03</totfact>
</mgrwt>
</event>
<event>
 5    1  0.3317939E-002  0.1250332E+03  0.7818608E-02  0.1235017E+00
          4   -1    0    0  501    0  0.00000000000E+00  0.00000000000E+00  0.14753524456E+03  0.14754071061E+03  0.12700000000E+01 0. -1.
         -4   -1    0    0    0  501 -0.00000000000E+00 -0.00000000000E+00 -0.26469607613E+02  0.26500057116E+02  0.12700000000E+01 0. -1.
         25    2    1    2    0    0  0.00000000000E+00  0.00000000000E+00  0.12106563695E+03  0.17404076773E+03  0.12503319712E+03 0.  0.
    9000005    1    3    3    0    0  0.55288428684E+02 -0.26507060965E+02  0.43605204537E+02  0.75245255599E+02  0.10000000000E+01 0.  0.
    9000005    1    3    3    0    0 -0.55288428684E+02  0.26507060965E+02  0.77460432412E+02  0.98795512130E+02  0.10000000000E+01 0.  0.
<mgrwt>
<rscale>  0 0.12503320E+03</rscale>
<asrwt>0</asrwt>
<pdfrwt beam="1">  1        4 0.22700492E-01 0.12503320E+03</pdfrwt>
<pdfrwt beam="2">  1       -4 0.40750101E-02 0.12503320E+03</pdfrwt>
<totfact> 0.94630318E+03</totfact>
</mgrwt>
</event>
<event>
 5    1  0.3317939E-002  0.1250029E+03  0.7818608E-02  0.1235065E+00
         -4   -1    0    0    0  501 -0.00000000000E+00  0.00000000000E+00  0.65386229988E+02  0.65398562461E+02  0.12700000000E+01 0.  1.
          4   -1    0    0  501    0  0.00000000000E+00 -0.00000000000E+00 -0.59719182388E+02  0.59732684898E+02  0.12700000000E+01 0.  1.
         25    2    1    2    0    0  0.00000000000E+00  0.00000000000E+00  0.56670475996E+01  0.12513124736E+03  0.12500285452E+03 0.  0.
    9000005    1    3    3    0    0  0.33137580995E+02  0.48995308118E+02 -0.17356201016E+02  0.61651254695E+02  0.10000000000E+01 0.  0.
    9000005    1    3    3    0    0 -0.33137580995E+02 -0.48995308118E+02  0.23023248615E+02  0.63479992664E+02  0.10000000000E+01 0.  0.
<mgrwt>
<rscale>  0 0.12500285E+03</rscale>
<asrwt>0</asrwt>
<pdfrwt beam="2">  1        4 0.91895539E-02 0.12500285E+03</pdfrwt>
<pdfrwt beam="1">  1       -4 0.10061407E-01 0.12500285E+03</pdfrwt>
<totfact> 0.10449338E+04</totfact>
</mgrwt>
</event>
<event>
 5    1  0.3317939E-002  0.1250012E+03  0.7818608E-02  0.1235067E+00
         -4   -1    0    0    0  501 -0.00000000000E+00  0.00000000000E+00  0.76163208692E+02  0.76173796402E+02  0.12700000000E+01 0. -1.
          4   -1    0    0  501    0  0.00000000000E+00 -0.00000000000E+00 -0.51266859565E+02  0.51282587587E+02  0.12700000000E+01 0. -1.
         25    2    1    2    0    0  0.00000000000E+00  0.00000000000E+00  0.24896349127E+02  0.12745638399E+03  0.12500120647E+03 0.  0.
    9000005    1    3    3    0    0  0.10644249475E+01 -0.13494671905E+02 -0.49759018277E+02  0.51577117700E+02  0.10000000000E+01 0.  0.
    9000005    1    3    3    0    0 -0.10644249475E+01  0.13494671905E+02  0.74655367404E+02  0.75879266289E+02  0.10000000000E+01 0.  0.
<mgrwt>
<rscale>  0 0.12500121E+03</rscale>
<asrwt>0</asrwt>
<pdfrwt beam="2">  1        4 0.78892334E-02 0.12500121E+03</pdfrwt>
<pdfrwt beam="1">  1       -4 0.11719441E-01 0.12500121E+03</pdfrwt>
<totfact> 0.10398962E+04</totfact>
</mgrwt>
</event>
<event>
 5    1  0.3317939E-002  0.1250010E+03  0.7818608E-02  0.1235068E+00
         -4   -1    0    0    0  501 -0.00000000000E+00  0.00000000000E+00  0.94621299923E+03  0.94621385152E+03  0.12700000000E+01 0. -1.
          4   -1    0    0  501    0  0.00000000000E+00 -0.00000000000E+00 -0.40298167312E+01  0.42252009286E+01  0.12700000000E+01 0. -1.
         25    2    1    2    0    0  0.00000000000E+00  0.00000000000E+00  0.94218318250E+03  0.95043905245E+03  0.12500097215E+03 0.  0.
    9000005    1    3    3    0    0  0.26403955143E+01  0.61929290909E+02  0.41069221684E+03  0.41534480342E+03  0.10000000000E+01 0.  0.
    9000005    1    3    3    0    0 -0.26403955143E+01 -0.61929290909E+02  0.53149096566E+03  0.53509424903E+03  0.10000000000E+01 0.  0.
<mgrwt>
<rscale>  0 0.12500097E+03</rscale>
<asrwt>0</asrwt>
<pdfrwt beam="2">  1        4 0.63506665E-03 0.12500097E+03</pdfrwt>
<pdfrwt beam="1">  1       -4 0.14558639E+00 0.12500097E+03</pdfrwt>
<totfact> 0.32299686E+03</totfact>
</mgrwt>
</event>
<event>
 5    1  0.3317939E-002  0.1249901E+03  0.7818608E-02  0.1235085E+00
          4   -1    0    0  501    0  0.00000000000E+00  0.00000000000E+00  0.34657264944E+01  0.36910919975E+01  0.12700000000E+01 0. -1.
         -4   -1    0    0    0  501 -0.00000000000E+00 -0.00000000000E+00 -0.10912184890E+04  0.10912192280E+04  0.12700000000E+01 0. -1.
         25    2    1    2    0    0  0.00000000000E+00  0.00000000000E+00 -0.10877527625E+04  0.10949103200E+04  0.12499014592E+03 0.  0.
    9000005    1    3    3    0    0  0.39537695379E+02 -0.50843420047E+01 -0.96540809558E+03  0.96623127196E+03  0.10000000000E+01 0.  0.
    9000005    1    3    3    0    0 -0.39537695379E+02  0.50843420047E+01 -0.12234466692E+03  0.12867904807E+03  0.10000000000E+01 0.  0.
<mgrwt>
<rscale>  0 0.12499015E+03</rscale>
<asrwt>0</asrwt>
<pdfrwt beam="1">  1        4 0.55058222E-03 0.12499015E+03</pdfrwt>
<pdfrwt beam="2">  1       -4 0.16789689E+00 0.12499015E+03</pdfrwt>
<totfact> 0.27638816E+03</totfact>
</mgrwt>
</event>
<event>
 5    1  0.3317939E-002  0.1250019E+03  0.7818608E-02  0.1235066E+00
          4   -1    0    0  501    0  0.00000000000E+00  0.00000000000E+00  0.42888772935E+02  0.42907572104E+02  0.12700000000E+01 0. -1.
         -4   -1    0    0    0  501 -0.00000000000E+00 -0.00000000000E+00 -0.91038167379E+02  0.91047025320E+02  0.12700000000E+01 0. -1.
         25    2    1    2    0    0  0.00000000000E+00  0.00000000000E+00 -0.48149394444E+02  0.13395459742E+03  0.12500187993E+03 0.  0.
    9000005    1    3    3    0    0 -0.40904974300E+02  0.40810141385E+02  0.14353431529E+01  0.57807826220E+02  0.10000000000E+01 0.  0.
    9000005    1    3    3    0    0  0.40904974300E+02 -0.40810141385E+02 -0.49584737597E+02  0.76146771204E+02  0.10000000000E+01 0.  0.
<mgrwt>
<rscale>  0 0.12500188E+03</rscale>
<asrwt>0</asrwt>
<pdfrwt beam="1">  1        4 0.66004003E-02 0.12500188E+03</pdfrwt>
<pdfrwt beam="2">  1       -4 0.14007999E-01 0.12500188E+03</pdfrwt>
<totfact> 0.10259717E+04</totfact>
</mgrwt>
</event>
<event>
 5    1  0.3317939E-002  0.1250005E+03  0.7818608E-02  0.1235069E+00
         -4   -1    0    0    0  501 -0.00000000000E+00  0.00000000000E+00  0.19866906656E+03  0.19867312578E+03  0.12700000000E+01 0. -1.
          4   -1    0    0  501    0  0.00000000000E+00 -0.00000000000E+00 -0.19637472095E+02  0.19678496139E+02  0.12700000000E+01 0. -1.
         25    2    1    2    0    0  0.00000000000E+00  0.00000000000E+00  0.17903159446E+03  0.21835162192E+03  0.12500047591E+03 0.  0.
    9000005    1    3    3    0    0 -0.22702432087E+00 -0.62363910792E+02  0.82534942982E+02  0.10345204552E+03  0.10000000000E+01 0.  0.
    9000005    1    3    3    0    0  0.22702432087E+00  0.62363910792E+02  0.96496651481E+02  0.11489957640E+03  0.10000000000E+01 0.  0.
<mgrwt>
<rscale>  0 0.12500048E+03</rscale>
<asrwt>0</asrwt>
<pdfrwt beam="2">  1        4 0.30246175E-02 0.12500048E+03</pdfrwt>
<pdfrwt beam="1">  1       -4 0.30567940E-01 0.12500048E+03</pdfrwt>
<totfact> 0.87128930E+03</totfact>
</mgrwt>
</event>
<event>
 5    1  0.3317939E-002  0.1249961E+03  0.7818608E-02  0.1235075E+00
         -4   -1    0    0    0  501 -0.00000000000E+00  0.00000000000E+00  0.35461394218E+03  0.35461621634E+03  0.12700000000E+01 0.  1.
          4   -1    0    0  501    0  0.00000000000E+00 -0.00000000000E+00 -0.10975884287E+02  0.11049114710E+02  0.12700000000E+01 0.  1.
         25    2    1    2    0    0  0.00000000000E+00  0.00000000000E+00  0.34363805790E+03  0.36566533105E+03  0.12499607793E+03 0.  0.
    9000005    1    3    3    0    0 -0.28515092100E+02  0.71042151196E+01  0.33315303663E+03  0.33444809189E+03  0.10000000000E+01 0.  0.
    9000005    1    3    3    0    0  0.28515092100E+02 -0.71042151196E+01  0.10485021262E+02  0.31217239160E+02  0.10000000000E+01 0.  0.
<mgrwt>
<rscale>  0 0.12499608E+03</rscale>
<asrwt>0</asrwt>
<pdfrwt beam="2">  1        4 0.16944059E-02 0.12499608E+03</pdfrwt>
<pdfrwt beam="1">  1       -4 0.54561790E-01 0.12499608E+03</pdfrwt>
<totfact> 0.68040781E+03</totfact>
</mgrwt>
</event>
<event>
 5    1  0.3317939E-002  0.1250066E+03  0.7818608E-02  0.1235059E+00
         -4   -1    0    0    0  501 -0.00000000000E+00  0.00000000000E+00  0.92722636350E+02  0.92731333387E+02  0.12700000000E+01 0.  1.
          4   -1    0    0  501    0  0.00000000000E+00 -0.00000000000E+00 -0.42112525384E+02  0.42131670916E+02  0.12700000000E+01 0.  1.
         25    2    1    2    0    0  0.00000000000E+00  0.00000000000E+00  0.50610110967E+02  0.13486300430E+03  0.12500658622E+03 0.  0.
    9000005    1    3    3    0    0 -0.24327020031E+02 -0.72834556795E+01 -0.36300888498E+02  0.44312606965E+02  0.10000000000E+01 0.  0.
    9000005    1    3    3    0    0  0.24327020031E+02  0.72834556795E+01  0.86910999465E+02  0.90550397339E+02  0.10000000000E+01 0.  0.
<mgrwt>
<rscale>  0 0.12500659E+03</rscale>
<asrwt>0</asrwt>
<pdfrwt beam="2">  1        4 0.64809919E-02 0.12500659E+03</pdfrwt>
<pdfrwt beam="1">  1       -4 0.14267163E-01 0.12500659E+03</pdfrwt>
<totfact> 0.10239438E+04</totfact>
</mgrwt>
</event>
<event>
 5    1  0.3317939E-002  0.1250046E+03  0.7818608E-02  0.1235062E+00
          4   -1    0    0  501    0  0.00000000000E+00  0.00000000000E+00  0.19356316265E+03  0.19356732894E+03  0.12700000000E+01 0. -1.
         -4   -1    0    0    0  501 -0.00000000000E+00 -0.00000000000E+00 -0.20157869962E+02  0.20197837048E+02  0.12700000000E+01 0. -1.
         25    2    1    2    0    0  0.00000000000E+00  0.00000000000E+00  0.17340529269E+03  0.21376516599E+03  0.12500460255E+03 0.  0.
    9000005    1    3    3    0    0 -0.52476014326E+02  0.10663675692E+02  0.31605542307E+02  0.62188072516E+02  0.10000000000E+01 0.  0.
    9000005    1    3    3    0    0  0.52476014326E+02 -0.10663675692E+02  0.14179975038E+03  0.15157709347E+03  0.10000000000E+01 0.  0.
<mgrwt>
<rscale>  0 0.12500460E+03</rscale>
<asrwt>0</asrwt>
<pdfrwt beam="1">  1        4 0.29782345E-01 0.12500460E+03</pdfrwt>
<pdfrwt beam="2">  1       -4 0.31046055E-02 0.12500460E+03</pdfrwt>
<totfact> 0.87855609E+03</totfact>
</mgrwt>
</event>
<event>
 5    1  0.3317939E-002  0.1249988E+03  0.7818608E-02  0.1235071E+00
         -4   -1    0    0    0  501 -0.00000000000E+00  0.00000000000E+00  0.98914327420E+01  0.99726296277E+01  0.12700000000E+01 0.  1.
          4   -1    0    0  501    0  0.00000000000E+00 -0.00000000000E+00 -0.39320823190E+03  0.39321028284E+03  0.12700000000E+01 0.  1.
         25    2    1    2    0    0  0.00000000000E+00  0.00000000000E+00 -0.38331679916E+03  0.40318291247E+03  0.12499876956E+03 0.  0.
    9000005    1    3    3    0    0  0.59789014093E+02  0.40794130429E+01 -0.13452020631E+03  0.14726864473E+03  0.10000000000E+01 0.  0.
    9000005    1    3    3    0    0 -0.59789014093E+02 -0.40794130429E+01 -0.24879659285E+03  0.25591426773E+03  0.10000000000E+01 0.  0.
<mgrwt>
<rscale>  0 0.12499877E+03</rscale>
<asrwt>0</asrwt>
<pdfrwt beam="2">  1        4 0.60499966E-01 0.12499877E+03</pdfrwt>
<pdfrwt beam="1">  1       -4 0.15281629E-02 0.12499877E+03</pdfrwt>
<totfact> 0.64246146E+03</totfact>
</mgrwt>
</event>
<event>
 5    1  0.3317939E-002  0.1249990E+03  0.7818608E-02  0.1235071E+00
         -4   -1    0    0    0  501 -0.00000000000E+00  0.00000000000E+00  0.48024142644E+02  0.48040932305E+02  0.12700000000E+01 0. -1.
          4   -1    0    0  501    0  0.00000000000E+00 -0.00000000000E+00 -0.81301978032E+02  0.81311896620E+02  0.12700000000E+01 0. -1.
         25    2    1    2    0    0  0.00000000000E+00  0.00000000000E+00 -0.33277835387E+02  0.12935282892E+03  0.12499896009E+03 0.  0.
    9000005    1    3    3    0    0 -0.11516824904E+02 -0.17188124102E+02  0.44382055480E+02  0.48977910476E+02  0.10000000000E+01 0.  0.
    9000005    1    3    3    0    0  0.11516824904E+02  0.17188124102E+02 -0.77659890867E+02  0.80374918448E+02  0.10000000000E+01 0.  0.
<mgrwt>
<rscale>  0 0.12499896E+03</rscale>
<asrwt>0</asrwt>
<pdfrwt beam="2">  1        4 0.12510051E-01 0.12499896E+03</pdfrwt>
<pdfrwt beam="1">  1       -4 0.73903841E-02 0.12499896E+03</pdfrwt>
<totfact> 0.10358614E+04</totfact>
</mgrwt>
</event>
<event>
 5    1  0.3317939E-002  0.1250037E+03  0.7818608E-02  0.1235063E+00
          4   -1    0    0  501    0  0.00000000000E+00  0.00000000000E+00  0.20690446238E+04  0.20690450135E+04  0.12700000000E+01 0.  1.
         -4   -1    0    0    0  501 -0.00000000000E+00 -0.00000000000E+00 -0.16740621856E+01  0.21012815617E+01  0.12700000000E+01 0.  1.
         25    2    1    2    0    0  0.00000000000E+00  0.00000000000E+00  0.20673705616E+04  0.20711462951E+04  0.12500374716E+03 0.  0.
    9000005    1    3    3    0    0 -0.61213597434E+01  0.59313797400E+02  0.13436065599E+04  0.13449294351E+04  0.10000000000E+01 0.  0.
    9000005    1    3    3    0    0  0.61213597434E+01 -0.59313797400E+02  0.72376400164E+03  0.72621685995E+03  0.10000000000E+01 0.  0.
<mgrwt>
<rscale>  0 0.12500375E+03</rscale>
<asrwt>0</asrwt>
<pdfrwt beam="1">  1        4 0.31834637E+00 0.12500375E+03</pdfrwt>
<pdfrwt beam="2">  1       -4 0.29044202E-03 0.12500375E+03</pdfrwt>
<totfact> 0.89603818E+02</totfact>
</mgrwt>
</event>
<event>
 5    1  0.3317939E-002  0.1249947E+03  0.7818608E-02  0.1235078E+00
         -4   -1    0    0    0  501 -0.00000000000E+00  0.00000000000E+00  0.31010994789E+02  0.31036989187E+02  0.12700000000E+01 0.  1.
          4   -1    0    0  501    0  0.00000000000E+00 -0.00000000000E+00 -0.12587077482E+03  0.12587718162E+03  0.12700000000E+01 0.  1.
         25    2    1    2    0    0  0.00000000000E+00  0.00000000000E+00 -0.94859780030E+02  0.15691417081E+03  0.12499471642E+03 0.  0.
    9000005    1    3    3    0    0 -0.22301016968E+00 -0.37319773723E+02 -0.11034998430E+03  0.11649435299E+03  0.10000000000E+01 0.  0.
    9000005    1    3    3    0    0  0.22301016968E+00  0.37319773723E+02  0.15490204269E+02  0.40419817819E+02  0.10000000000E+01 0.  0.
<mgrwt>
<rscale>  0 0.12499472E+03</rscale>
<asrwt>0</asrwt>
<pdfrwt beam="2">  1        4 0.19367227E-01 0.12499472E+03</pdfrwt>
<pdfrwt beam="1">  1       -4 0.47734147E-02 0.12499472E+03</pdfrwt>
<totfact> 0.97952665E+03</totfact>
</mgrwt>
</event>
<event>
 5    1  0.3317939E-002  0.1249977E+03  0.7818608E-02  0.1235073E+00
          4   -1    0    0  501    0  0.00000000000E+00  0.00000000000E+00  0.27883545982E+02  0.27912453073E+02  0.12700000000E+01 0.  1.
         -4   -1    0    0    0  501 -0.00000000000E+00 -0.00000000000E+00 -0.13998194770E+03  0.13998770868E+03  0.12700000000E+01 0.  1.
         25    2    1    2    0    0  0.00000000000E+00  0.00000000000E+00 -0.11209840172E+03  0.16790016176E+03  0.12499765058E+03 0.  0.
    9000005    1    3    3    0    0  0.43100253183E+02 -0.39946788319E+02 -0.84597914185E+02  0.10301060531E+03  0.10000000000E+01 0.  0.
    9000005    1    3    3    0    0 -0.43100253183E+02  0.39946788319E+02 -0.27500487535E+02  0.64889556449E+02  0.10000000000E+01 0.  0.
<mgrwt>
<rscale>  0 0.12499765E+03</rscale>
<asrwt>0</asrwt>
<pdfrwt beam="1">  1        4 0.42924432E-02 0.12499765E+03</pdfrwt>
<pdfrwt beam="2">  1       -4 0.21538351E-01 0.12499765E+03</pdfrwt>
<totfact> 0.95846007E+03</totfact>
</mgrwt>
</event>
<event>
 5    1  0.3317939E-002  0.1249963E+03  0.7818608E-02  0.1235075E+00
          4   -1    0    0  501    0  0.00000000000E+00  0.00000000000E+00  0.36716353936E+02  0.36738311697E+02  0.12700000000E+01 0. -1.
         -4   -1    0    0    0  501 -0.00000000000E+00 -0.00000000000E+00 -0.10632602382E+03  0.10633360824E+03  0.12700000000E+01 0. -1.
         25    2    1    2    0    0  0.00000000000E+00  0.00000000000E+00 -0.69609669885E+02  0.14307191994E+03  0.12499627248E+03 0.  0.
    9000005    1    3    3    0    0 -0.21275731142E+02  0.34232527270E+02  0.19855444258E+02  0.44941754812E+02  0.10000000000E+01 0.  0.
    9000005    1    3    3    0    0  0.21275731142E+02 -0.34232527270E+02 -0.89465114143E+02  0.98130165126E+02  0.10000000000E+01 0.  0.
<mgrwt>
<rscale>  0 0.12499627E+03</rscale>
<asrwt>0</asrwt>
<pdfrwt beam="1">  1        4 0.56509424E-02 0.12499627E+03</pdfrwt>
<pdfrwt beam="2">  1       -4 0.16360122E-01 0.12499627E+03</pdfrwt>
<totfact> 0.10071156E+04</totfact>
</mgrwt>
</event>
<event>
 5    1  0.3317939E-002  0.1249555E+03  0.7818608E-02  0.1235139E+00
          4   -1    0    0  501    0  0.00000000000E+00  0.00000000000E+00  0.50509394272E+01  0.52081560170E+01  0.12700000000E+01 0. -1.
         -4   -1    0    0    0  501 -0.00000000000E+00 -0.00000000000E+00 -0.76081955185E+03  0.76082061182E+03  0.12700000000E+01 0. -1.
         25    2    1    2    0    0  0.00000000000E+00  0.00000000000E+00 -0.75576861242E+03  0.76602876784E+03  0.12495550263E+03 0.  0.
    9000005    1    3    3    0    0 -0.42359701797E+02 -0.45909922119E+02 -0.38178145564E+03  0.38685933510E+03  0.10000000000E+01 0.  0.
    9000005    1    3    3    0    0  0.42359701797E+02  0.45909922119E+02 -0.37398715679E+03  0.37916943274E+03  0.10000000000E+01 0.  0.
<mgrwt>
<rscale>  0 0.12495550E+03</rscale>
<asrwt>0</asrwt>
<pdfrwt beam="1">  1        4 0.78924333E-03 0.12495550E+03</pdfrwt>
<pdfrwt beam="2">  1       -4 0.11706125E+00 0.12495550E+03</pdfrwt>
<totfact> 0.39857743E+03</totfact>
</mgrwt>
</event>
<event>
 5    1  0.3317939E-002  0.1250076E+03  0.7818608E-02  0.1235057E+00
         -4   -1    0    0    0  501 -0.00000000000E+00  0.00000000000E+00  0.10151231834E+03  0.10152026238E+03  0.12700000000E+01 0. -1.
          4   -1    0    0  501    0  0.00000000000E+00 -0.00000000000E+00 -0.38465323262E+02  0.38486283188E+02  0.12700000000E+01 0. -1.
         25    2    1    2    0    0  0.00000000000E+00  0.00000000000E+00  0.63046995077E+02  0.14000654557E+03  0.12500763663E+03 0.  0.
    9000005    1    3    3    0    0  0.28503572019E+02 -0.54160733224E+02  0.17361626659E+02  0.63625975211E+02  0.10000000000E+01 0.  0.
    9000005    1    3    3    0    0 -0.28503572019E+02  0.54160733224E+02  0.45685368417E+02  0.76380570361E+02  0.10000000000E+01 0.  0.
<mgrwt>
<rscale>  0 0.12500764E+03</rscale>
<asrwt>0</asrwt>
<pdfrwt beam="2">  1        4 0.59199655E-02 0.12500764E+03</pdfrwt>
<pdfrwt beam="1">  1       -4 0.15619503E-01 0.12500764E+03</pdfrwt>
<totfact> 0.10131707E+04</totfact>
</mgrwt>
</event>
<event>
 5    1  0.3317939E-002  0.1250031E+03  0.7818608E-02  0.1235064E+00
          4   -1    0    0  501    0  0.00000000000E+00  0.00000000000E+00  0.36632432596E+03  0.36632652742E+03  0.12700000000E+01 0. -1.
         -4   -1    0    0    0  501 -0.00000000000E+00 -0.00000000000E+00 -0.10623845091E+02  0.10699485245E+02  0.12700000000E+01 0. -1.
         25    2    1    2    0    0  0.00000000000E+00  0.00000000000E+00  0.35570048087E+03  0.37702601266E+03  0.12500312850E+03 0.  0.
    9000005    1    3    3    0    0 -0.67354003791E+00  0.90615545498E+01  0.36433604201E+03  0.36445070577E+03  0.10000000000E+01 0.  0.
    9000005    1    3    3    0    0  0.67354003791E+00 -0.90615545498E+01 -0.86355611471E+01  0.12575306890E+02  0.10000000000E+01 0.  0.
<mgrwt>
<rscale>  0 0.12500313E+03</rscale>
<asrwt>0</asrwt>
<pdfrwt beam="1">  1        4 0.56363584E-01 0.12500313E+03</pdfrwt>
<pdfrwt beam="2">  1       -4 0.16404253E-02 0.12500313E+03</pdfrwt>
<totfact> 0.66845606E+03</totfact>
</mgrwt>
</event>
<event>
 5    1  0.3317939E-002  0.1250177E+03  0.7818608E-02  0.1235042E+00
         -4   -1    0    0    0  501 -0.00000000000E+00  0.00000000000E+00  0.91797556100E+03  0.91797643951E+03  0.12700000000E+01 0. -1.
          4   -1    0    0  501    0  0.00000000000E+00 -0.00000000000E+00 -0.41608586323E+01  0.43503614284E+01  0.12700000000E+01 0. -1.
         25    2    1    2    0    0  0.00000000000E+00  0.00000000000E+00  0.91381470236E+03  0.92232680093E+03  0.12501766861E+03 0.  0.
    9000005    1    3    3    0    0 -0.31658398631E+02  0.51454255649E+02  0.33873722911E+03  0.34408386334E+03  0.10000000000E+01 0.  0.
    9000005    1    3    3    0    0  0.31658398631E+02 -0.51454255649E+02  0.57507747326E+03  0.57824293759E+03  0.10000000000E+01 0.  0.
<mgrwt>
<rscale>  0 0.12501767E+03</rscale>
<asrwt>0</asrwt>
<pdfrwt beam="2">  1        4 0.65477637E-03 0.12501767E+03</pdfrwt>
<pdfrwt beam="1">  1       -4 0.14124175E+00 0.12501767E+03</pdfrwt>
<totfact> 0.33306417E+03</totfact>
</mgrwt>
</event>
<event>
 5    1  0.3317939E-002  0.1249957E+03  0.7818608E-02  0.1235076E+00
          4   -1    0    0  501    0  0.00000000000E+00  0.00000000000E+00  0.10587749810E+03  0.10588511465E+03  0.12700000000E+01 0. -1.
         -4   -1    0    0    0  501 -0.00000000000E+00 -0.00000000000E+00 -0.36871630826E+02  0.36893496172E+02  0.12700000000E+01 0. -1.
         25    2    1    2    0    0  0.00000000000E+00  0.00000000000E+00  0.69005867273E+02  0.14277861082E+03  0.12499568788E+03 0.  0.
    9000005    1    3    3    0    0 -0.15575199792E+02  0.41885421029E+02 -0.15392165855E+02  0.47274666716E+02  0.10000000000E+01 0.  0.
    9000005    1    3    3    0    0  0.15575199792E+02 -0.41885421029E+02  0.84398033127E+02  0.95503944103E+02  0.10000000000E+01 0.  0.
<mgrwt>
<rscale>  0 0.12499569E+03</rscale>
<asrwt>0</asrwt>
<pdfrwt beam="1">  1        4 0.16291114E-01 0.12499569E+03</pdfrwt>
<pdfrwt beam="2">  1       -4 0.56748265E-02 0.12499569E+03</pdfrwt>
<totfact> 0.10077298E+04</totfact>
</mgrwt>
</event>
<event>
 5    1  0.3317939E-002  0.1250006E+03  0.7818608E-02  0.1235068E+00
          4   -1    0    0  501    0  0.00000000000E+00  0.00000000000E+00  0.11326491930E+03  0.11327203911E+03  0.12700000000E+01 0. -1.
         -4   -1    0    0    0  501 -0.00000000000E+00 -0.00000000000E+00 -0.34468137659E+02  0.34491526694E+02  0.12700000000E+01 0. -1.
         25    2    1    2    0    0  0.00000000000E+00  0.00000000000E+00  0.78796781639E+02  0.14776356580E+03  0.12500055433E+03 0.  0.
    9000005    1    3    3    0    0 -0.38010085068E+02 -0.42652024157E+02  0.94623885877E+01  0.57918032851E+02  0.10000000000E+01 0.  0.
    9000005    1    3    3    0    0  0.38010085068E+02  0.42652024157E+02  0.69334393051E+02  0.89845532952E+02  0.10000000000E+01 0.  0.
<mgrwt>
<rscale>  0 0.12500055E+03</rscale>
<asrwt>0</asrwt>
<pdfrwt beam="1">  1        4 0.17427719E-01 0.12500055E+03</pdfrwt>
<pdfrwt beam="2">  1       -4 0.53051374E-02 0.12500055E+03</pdfrwt>
<totfact> 0.99750135E+03</totfact>
</mgrwt>
</event>
<event>
 5    1  0.3317939E-002  0.1249941E+03  0.7818608E-02  0.1235078E+00
          4   -1    0    0  501    0  0.00000000000E+00  0.00000000000E+00  0.93113880810E+01  0.93975979907E+01  0.12700000000E+01 0.  1.
         -4   -1    0    0    0  501 -0.00000000000E+00 -0.00000000000E+00 -0.41745376125E+03  0.41745569308E+03  0.12700000000E+01 0.  1.
         25    2    1    2    0    0  0.00000000000E+00  0.00000000000E+00 -0.40814237317E+03  0.42685329107E+03  0.12499414114E+03 0.  0.
    9000005    1    3    3    0    0  0.59823929752E+02 -0.13623006012E+02 -0.24453480768E+03  0.25211656239E+03  0.10000000000E+01 0.  0.
    9000005    1    3    3    0    0 -0.59823929752E+02  0.13623006012E+02 -0.16360756549E+03  0.17473672868E+03  0.10000000000E+01 0.  0.
<mgrwt>
<rscale>  0 0.12499414E+03</rscale>
<asrwt>0</asrwt>
<pdfrwt beam="1">  1        4 0.14393017E-02 0.12499414E+03</pdfrwt>
<pdfrwt beam="2">  1       -4 0.64230421E-01 0.12499414E+03</pdfrwt>
<totfact> 0.62030281E+03</totfact>
</mgrwt>
</event>
<event>
 5    1  0.3317939E-002  0.1249984E+03  0.7818608E-02  0.1235072E+00
          4   -1    0    0  501    0  0.00000000000E+00  0.00000000000E+00  0.18277005542E+02  0.18321076158E+02  0.12700000000E+01 0. -1.
         -4   -1    0    0    0  501 -0.00000000000E+00 -0.00000000000E+00 -0.21341602739E+03  0.21341980613E+03  0.12700000000E+01 0. -1.
         25    2    1    2    0    0  0.00000000000E+00  0.00000000000E+00 -0.19513902185E+03  0.23174088229E+03  0.12499839469E+03 0.  0.
    9000005    1    3    3    0    0 -0.38381522961E+02  0.25428891387E+02 -0.19233124414E+02  0.49906741997E+02  0.10000000000E+01 0.  0.
    9000005    1    3    3    0    0  0.38381522961E+02 -0.25428891387E+02 -0.17590589744E+03  0.18183414029E+03  0.10000000000E+01 0.  0.
<mgrwt>
<rscale>  0 0.12499839E+03</rscale>
<asrwt>0</asrwt>
<pdfrwt beam="1">  1        4 0.28155279E-02 0.12499839E+03</pdfrwt>
<pdfrwt beam="2">  1       -4 0.32836914E-01 0.12499839E+03</pdfrwt>
<totfact> 0.85046044E+03</totfact>
</mgrwt>
</event>
<event>
 5    1  0.3317939E-002  0.1249939E+03  0.7818608E-02  0.1235079E+00
         -4   -1    0    0    0  501 -0.00000000000E+00  0.00000000000E+00  0.22491298712E+03  0.22491657270E+03  0.12700000000E+01 0. -1.
          4   -1    0    0  501    0  0.00000000000E+00 -0.00000000000E+00 -0.17339177210E+02  0.17385625278E+02  0.12700000000E+01 0. -1.
         25    2    1    2    0    0  0.00000000000E+00  0.00000000000E+00  0.20757380991E+03  0.24230219797E+03  0.12499387419E+03 0.  0.
    9000005    1    3    3    0    0  0.49975969572E+02  0.52388665815E+00  0.17650038416E+03  0.18344279108E+03  0.10000000000E+01 0.  0.
    9000005    1    3    3    0    0 -0.49975969572E+02 -0.52388665815E+00  0.31073425746E+02  0.58859406890E+02  0.10000000000E+01 0.  0.
<mgrwt>
<rscale>  0 0.12499387E+03</rscale>
<asrwt>0</asrwt>
<pdfrwt beam="2">  1        4 0.26714147E-02 0.12499387E+03</pdfrwt>
<pdfrwt beam="1">  1       -4 0.34605844E-01 0.12499387E+03</pdfrwt>
<totfact> 0.83467084E+03</totfact>
</mgrwt>
</event>
<event>
 5    1  0.3317939E-002  0.1249652E+03  0.7818608E-02  0.1235124E+00
          4   -1    0    0  501    0  0.00000000000E+00  0.00000000000E+00  0.26425762959E+03  0.26426068133E+03  0.12700000000E+01 0.  1.
         -4   -1    0    0    0  501 -0.00000000000E+00 -0.00000000000E+00 -0.14743315528E+02  0.14797913797E+02  0.12700000000E+01 0.  1.
         25    2    1    2    0    0  0.00000000000E+00  0.00000000000E+00  0.24951431406E+03  0.27905859512E+03  0.12496522153E+03 0.  0.
    9000005    1    3    3    0    0 -0.45496511747E+01 -0.30605707513E+02  0.24595590621E+03  0.24789658420E+03  0.10000000000E+01 0.  0.
    9000005    1    3    3    0    0  0.45496511747E+01  0.30605707513E+02  0.35584078459E+01  0.31162010920E+02  0.10000000000E+01 0.  0.
<mgrwt>
<rscale>  0 0.12496522E+03</rscale>
<asrwt>0</asrwt>
<pdfrwt beam="1">  1        4 0.40659457E-01 0.12496522E+03</pdfrwt>
<pdfrwt beam="2">  1       -4 0.22726368E-02 0.12496522E+03</pdfrwt>
<totfact> 0.78363659E+03</totfact>
</mgrwt>
</event>
<event>
 5    1  0.3317939E-002  0.1249969E+03  0.7818608E-02  0.1235074E+00
         -4   -1    0    0    0  501 -0.00000000000E+00  0.00000000000E+00  0.73889097513E+02  0.73900011037E+02  0.12700000000E+01 0.  1.
          4   -1    0    0  501    0  0.00000000000E+00 -0.00000000000E+00 -0.52841352303E+02  0.52856611821E+02  0.12700000000E+01 0.  1.
         25    2    1    2    0    0  0.00000000000E+00  0.00000000000E+00  0.21047745210E+02  0.12675662286E+03  0.12499693540E+03 0.  0.
    9000005    1    3    3    0    0 -0.47889000348E+02 -0.24180316551E+02 -0.21974346429E+02  0.57982031388E+02  0.10000000000E+01 0.  0.
    9000005    1    3    3    0    0  0.47889000348E+02  0.24180316551E+02  0.43022091640E+02  0.68774591470E+02  0.10000000000E+01 0.  0.
<mgrwt>
<rscale>  0 0.12499694E+03</rscale>
<asrwt>0</asrwt>
<pdfrwt beam="2">  1        4 0.81314522E-02 0.12499694E+03</pdfrwt>
<pdfrwt beam="1">  1       -4 0.11369567E-01 0.12499694E+03</pdfrwt>
<totfact> 0.10415158E+04</totfact>
</mgrwt>
</event>
<event>
 5    1  0.3317939E-002  0.1250017E+03  0.7818608E-02  0.1235067E+00
          4   -1    0    0  501    0  0.00000000000E+00  0.00000000000E+00  0.10740252177E+02  0.10815078217E+02  0.12700000000E+01 0.  1.
         -4   -1    0    0    0  501 -0.00000000000E+00 -0.00000000000E+00 -0.36237333326E+03  0.36237555872E+03  0.12700000000E+01 0.  1.
         25    2    1    2    0    0  0.00000000000E+00  0.00000000000E+00 -0.35163308109E+03  0.37319063694E+03  0.12500171113E+03 0.  0.
    9000005    1    3    3    0    0  0.18965044363E+02  0.53531390298E+02 -0.25367269699E+03  0.25995407259E+03  0.10000000000E+01 0.  0.
    9000005    1    3    3    0    0 -0.18965044363E+02 -0.53531390298E+02 -0.97960384094E+02  0.11323656435E+03  0.10000000000E+01 0.  0.
<mgrwt>
<rscale>  0 0.12500171E+03</rscale>
<asrwt>0</asrwt>
<pdfrwt beam="1">  1        4 0.16582738E-02 0.12500171E+03</pdfrwt>
<pdfrwt beam="2">  1       -4 0.55755661E-01 0.12500171E+03</pdfrwt>
<totfact> 0.67243913E+03</totfact>
</mgrwt>
</event>
<event>
 4    1  0.3317939E-002  0.1248334E+03  0.7818608E-02  0.1235330E+00
         -4   -1    0    0    0  501 -0.00000000000E+00  0.00000000000E+00  0.16985294997E+02  0.17032708126E+02  0.12700000000E+01 0.  1.
          4   -1    0    0  501    0  0.00000000000E+00 -0.00000000000E+00 -0.22899679542E+03  0.22900031705E+03  0.12700000000E+01 0.  1.
    9000005    1    1    2    0    0  0.27662421864E+02  0.30738180959E+02 -0.19812880065E+03  0.20240075839E+03  0.10000000000E+01 0.  0.
    9000005    1    1    2    0    0 -0.27662421864E+02 -0.30738180959E+02 -0.13882699772E+02  0.43632266787E+02  0.10000000000E+01 0.  0.
<mgrwt>
<rscale>  0 0.12483338E+03</rscale>
<asrwt>0</asrwt>
<pdfrwt beam="2">  1        4 0.35234192E-01 0.12483338E+03</pdfrwt>
<pdfrwt beam="1">  1       -4 0.26170405E-02 0.12483338E+03</pdfrwt>
<totfact> 0.83215551E+03</totfact>
</mgrwt>
</event>
<event>
 5    1  0.3317939E-002  0.1250005E+03  0.7818608E-02  0.1235068E+00
          4   -1    0    0  501    0  0.00000000000E+00  0.00000000000E+00  0.84920787492E+01  0.85865185892E+01  0.12700000000E+01 0. -1.
         -4   -1    0    0    0  501 -0.00000000000E+00 -0.00000000000E+00 -0.45735252203E+03  0.45735428533E+03  0.12700000000E+01 0. -1.
         25    2    1    2    0    0  0.00000000000E+00  0.00000000000E+00 -0.44886044328E+03  0.46594080392E+03  0.12500054085E+03 0.  0.
    9000005    1    3    3    0    0  0.77679066494E+01  0.54833158798E+02 -0.11650813618E+03  0.12900450176E+03  0.10000000000E+01 0.  0.
    9000005    1    3    3    0    0 -0.77679066494E+01 -0.54833158798E+02 -0.33235230710E+03  0.33693630216E+03  0.10000000000E+01 0.  0.
<mgrwt>
<rscale>  0 0.12500054E+03</rscale>
<asrwt>0</asrwt>
<pdfrwt beam="1">  1        4 0.13138742E-02 0.12500054E+03</pdfrwt>
<pdfrwt beam="2">  1       -4 0.70369308E-01 0.12500054E+03</pdfrwt>
<totfact> 0.58606608E+03</totfact>
</mgrwt>
</event>
<event>
 4    1  0.3317939E-002  0.1251013E+03  0.7818608E-02  0.1234911E+00
         -4   -1    0    0    0  501 -0.00000000000E+00  0.00000000000E+00  0.27494686653E+02  0.27524002146E+02  0.12700000000E+01 0.  1.
          4   -1    0    0  501    0  0.00000000000E+00 -0.00000000000E+00 -0.14219528338E+03  0.14220095470E+03  0.12700000000E+01 0.  1.
    9000005    1    1    2    0    0 -0.59176911401E+02  0.82201581770E+01 -0.32256636506E+02  0.67904112115E+02  0.10000000000E+01 0.  0.
    9000005    1    1    2    0    0  0.59176911401E+02 -0.82201581770E+01 -0.82443960225E+02  0.10182084473E+03  0.10000000000E+01 0.  0.
<mgrwt>
<rscale>  0 0.12510130E+03</rscale>
<asrwt>0</asrwt>
<pdfrwt beam="2">  1        4 0.21878888E-01 0.12510130E+03</pdfrwt>
<pdfrwt beam="1">  1       -4 0.42326432E-02 0.12510130E+03</pdfrwt>
<totfact> 0.95283088E+03</totfact>
</mgrwt>
</event>
<event>
 5    1  0.3317939E-002  0.1250001E+03  0.7818608E-02  0.1235069E+00
          4   -1    0    0  501    0  0.00000000000E+00  0.00000000000E+00  0.73448746623E+01  0.74538636830E+01  0.12700000000E+01 0.  1.
         -4   -1    0    0    0  501 -0.00000000000E+00 -0.00000000000E+00 -0.52780783460E+03  0.52780936253E+03  0.12700000000E+01 0.  1.
         25    2    1    2    0    0  0.00000000000E+00  0.00000000000E+00 -0.52046295994E+03  0.53526322621E+03  0.12500011464E+03 0.  0.
    9000005    1    3    3    0    0  0.12080506173E+01  0.24423678401E+02 -0.50649075170E+03  0.50708170645E+03  0.10000000000E+01 0.  0.
    9000005    1    3    3    0    0 -0.12080506173E+01 -0.24423678401E+02 -0.13972208237E+02  0.28181519759E+02  0.10000000000E+01 0.  0.
<mgrwt>
<rscale>  0 0.12500011E+03</rscale>
<asrwt>0</asrwt>
<pdfrwt beam="1">  1        4 0.11384824E-02 0.12500011E+03</pdfrwt>
<pdfrwt beam="2">  1       -4 0.81209677E-01 0.12500011E+03</pdfrwt>
<totfact> 0.53228425E+03</totfact>
</mgrwt>
</event>
<event>
 5    1  0.3317939E-002  0.1249997E+03  0.7818608E-02  0.1235070E+00
          4   -1    0    0  501    0  0.00000000000E+00  0.00000000000E+00  0.11978403102E+02  0.12045540289E+02  0.12700000000E+01 0. -1.
         -4   -1    0    0    0  501 -0.00000000000E+00 -0.00000000000E+00 -0.32512657000E+03  0.32512905041E+03  0.12700000000E+01 0. -1.
         25    2    1    2    0    0  0.00000000000E+00  0.00000000000E+00 -0.31314816690E+03  0.33717459070E+03  0.12499972072E+03 0.  0.
    9000005    1    3    3    0    0 -0.15177479111E+00  0.62452074641E+02 -0.15057402483E+03  0.16301478956E+03  0.10000000000E+01 0.  0.
    9000005    1    3    3    0    0  0.15177479111E+00 -0.62452074641E+02 -0.16257414208E+03  0.17415980114E+03  0.10000000000E+01 0.  0.
<mgrwt>
<rscale>  0 0.12499972E+03</rscale>
<asrwt>0</asrwt>
<pdfrwt beam="1">  1        4 0.18481867E-02 0.12499972E+03</pdfrwt>
<pdfrwt beam="2">  1       -4 0.50024821E-01 0.12499972E+03</pdfrwt>
<totfact> 0.71159385E+03</totfact>
</mgrwt>
</event>
<event>
 5    1  0.3317939E-002  0.1250044E+03  0.7818608E-02  0.1235062E+00
         -4   -1    0    0    0  501 -0.00000000000E+00  0.00000000000E+00  0.24984792576E+01  0.28027305615E+01  0.12700000000E+01 0. -1.
          4   -1    0    0  501    0  0.00000000000E+00 -0.00000000000E+00 -0.14735187508E+04  0.14735192981E+04  0.12700000000E+01 0. -1.
         25    2    1    2    0    0  0.00000000000E+00  0.00000000000E+00 -0.14710202716E+04  0.14763220287E+04  0.12500437196E+03 0.  0.
    9000005    1    3    3    0    0 -0.61378228866E+02 -0.11642523875E+02 -0.71614754959E+03  0.71886796293E+03  0.10000000000E+01 0.  0.
    9000005    1    3    3    0    0  0.61378228866E+02  0.11642523875E+02 -0.75487272199E+03  0.75745406576E+03  0.10000000000E+01 0.  0.
<mgrwt>
<rscale>  0 0.12500437E+03</rscale>
<asrwt>0</asrwt>
<pdfrwt beam="2">  1        4 0.22671798E+00 0.12500437E+03</pdfrwt>
<pdfrwt beam="1">  1       -4 0.40782865E-03 0.12500437E+03</pdfrwt>
<totfact> 0.18398304E+03</totfact>
</mgrwt>
</event>
<event>
 5    1  0.3317939E-002  0.1250063E+03  0.7818608E-02  0.1235059E+00
          4   -1    0    0  501    0  0.00000000000E+00  0.00000000000E+00  0.46662461389E+03  0.46662634215E+03  0.12700000000E+01 0. -1.
         -4   -1    0    0    0  501 -0.00000000000E+00 -0.00000000000E+00 -0.83222189887E+01  0.84185645390E+01  0.12700000000E+01 0. -1.
         25    2    1    2    0    0  0.00000000000E+00  0.00000000000E+00  0.45830239490E+03  0.47504490669E+03  0.12500631263E+03 0.  0.
    9000005    1    3    3    0    0 -0.55290223727E+02  0.16775572624E+02  0.31965710113E+03  0.32483856142E+03  0.10000000000E+01 0.  0.
    9000005    1    3    3    0    0  0.55290223727E+02 -0.16775572624E+02  0.13864529377E+03  0.15020634527E+03  0.10000000000E+01 0.  0.
<mgrwt>
<rscale>  0 0.12500631E+03</rscale>
<asrwt>0</asrwt>
<pdfrwt beam="1">  1        4 0.71795965E-01 0.12500631E+03</pdfrwt>
<pdfrwt beam="2">  1       -4 0.12878852E-02 0.12500631E+03</pdfrwt>
<totfact> 0.57845882E+03</totfact>
</mgrwt>
</event>
<event>
 5    1  0.3317939E-002  0.1250007E+03  0.7818608E-02  0.1235068E+00
          4   -1    0    0  501    0  0.00000000000E+00  0.00000000000E+00  0.42372598754E+01  0.44234908446E+01  0.12700000000E+01 0.  1.
         -4   -1    0    0    0  501 -0.00000000000E+00 -0.00000000000E+00 -0.90188198069E+03  0.90188287488E+03  0.12700000000E+01 0.  1.
         25    2    1    2    0    0  0.00000000000E+00  0.00000000000E+00 -0.89764472082E+03  0.90630636572E+03  0.12500073495E+03 0.  0.
    9000005    1    3    3    0    0 -0.38610940382E+02  0.37756808157E+02 -0.67682604765E+03  0.67897782000E+03  0.10000000000E+01 0.  0.
    9000005    1    3    3    0    0  0.38610940382E+02 -0.37756808157E+02 -0.22081867317E+03  0.22732854572E+03  0.10000000000E+01 0.  0.
<mgrwt>
<rscale>  0 0.12500073E+03</rscale>
<asrwt>0</asrwt>
<pdfrwt beam="1">  1        4 0.66628109E-03 0.12500073E+03</pdfrwt>
<pdfrwt beam="2">  1       -4 0.13876532E+00 0.12500073E+03</pdfrwt>
<totfact> 0.33919080E+03</totfact>
</mgrwt>
</event>
<event>
 5    1  0.3317939E-002  0.1250066E+03  0.7818608E-02  0.1235059E+00
          4   -1    0    0  501    0  0.00000000000E+00  0.00000000000E+00  0.38317338792E+02  0.38338379623E+02  0.12700000000E+01 0. -1.
         -4   -1    0    0    0  501 -0.00000000000E+00 -0.00000000000E+00 -0.10190247115E+03  0.10191038478E+03  0.12700000000E+01 0. -1.
         25    2    1    2    0    0  0.00000000000E+00  0.00000000000E+00 -0.63585132359E+02  0.14024876441E+03  0.12500658727E+03 0.  0.
    9000005    1    3    3    0    0 -0.14808204884E+02 -0.45683030322E+02  0.13076812600E+02  0.49781775974E+02  0.10000000000E+01 0.  0.
    9000005    1    3    3    0    0  0.14808204884E+02  0.45683030322E+02 -0.76661944958E+02  0.90466988433E+02  0.10000000000E+01 0.  0.
<mgrwt>
<rscale>  0 0.12500659E+03</rscale>
<asrwt>0</asrwt>
<pdfrwt beam="1">  1        4 0.58972025E-02 0.12500659E+03</pdfrwt>
<pdfrwt beam="2">  1       -4 0.15679530E-01 0.12500659E+03</pdfrwt>
<totfact> 0.10126930E+04</totfact>
</mgrwt>
</event>
<event>
 5    1  0.3317939E-002  0.1250007E+03  0.7818608E-02  0.1235068E+00
         -4   -1    0    0    0  501 -0.00000000000E+00  0.00000000000E+00  0.23238759116E+02  0.23273436043E+02  0.12700000000E+01 0. -1.
          4   -1    0    0  501    0  0.00000000000E+00 -0.00000000000E+00 -0.16793158887E+03  0.16793639105E+03  0.12700000000E+01 0. -1.
         25    2    1    2    0    0  0.00000000000E+00  0.00000000000E+00 -0.14469282975E+03  0.19120982710E+03  0.12500073198E+03 0.  0.
    9000005    1    3    3    0    0 -0.64809986149E+01  0.62100359801E+02 -0.68346476847E+02  0.92578069368E+02  0.10000000000E+01 0.  0.
    9000005    1    3    3    0    0  0.64809986149E+01 -0.62100359801E+02 -0.76346352906E+02  0.98631757728E+02  0.10000000000E+01 0.  0.
<mgrwt>
<rscale>  0 0.12500073E+03</rscale>
<asrwt>0</asrwt>
<pdfrwt beam="2">  1        4 0.25838665E-01 0.12500073E+03</pdfrwt>
<pdfrwt beam="1">  1       -4 0.35782307E-02 0.12500073E+03</pdfrwt>
<totfact> 0.91635732E+03</totfact>
</mgrwt>
</event>
<event>
 5    1  0.3317939E-002  0.1250082E+03  0.7818608E-02  0.1235056E+00
          4   -1    0    0  501    0  0.00000000000E+00  0.00000000000E+00  0.12364147065E+03  0.12364799297E+03  0.12700000000E+01 0. -1.
         -4   -1    0    0    0  501 -0.00000000000E+00 -0.00000000000E+00 -0.31577391588E+02  0.31602920110E+02  0.12700000000E+01 0. -1.
         25    2    1    2    0    0  0.00000000000E+00  0.00000000000E+00  0.92064079065E+02  0.15525091308E+03  0.12500820516E+03 0.  0.
    9000005    1    3    3    0    0 -0.39150131460E+02  0.40422017836E+02  0.12268772834E+02  0.57603776839E+02  0.10000000000E+01 0.  0.
    9000005    1    3    3    0    0  0.39150131460E+02 -0.40422017836E+02  0.79795306231E+02  0.97647136239E+02  0.10000000000E+01 0.  0.
<mgrwt>
<rscale>  0 0.12500821E+03</rscale>
<asrwt>0</asrwt>
<pdfrwt beam="1">  1        4 0.19024230E-01 0.12500821E+03</pdfrwt>
<pdfrwt beam="2">  1       -4 0.48605256E-02 0.12500821E+03</pdfrwt>
<totfact> 0.98248133E+03</totfact>
</mgrwt>
</event>
<event>
 5    1  0.3317939E-002  0.1249984E+03  0.7818608E-02  0.1235072E+00
          4   -1    0    0  501    0  0.00000000000E+00  0.00000000000E+00  0.19320789930E+03  0.19321207326E+03  0.12700000000E+01 0.  1.
         -4   -1    0    0    0  501 -0.00000000000E+00 -0.00000000000E+00 -0.20193007655E+02  0.20232905332E+02  0.12700000000E+01 0.  1.
         25    2    1    2    0    0  0.00000000000E+00  0.00000000000E+00  0.17301489165E+03  0.21344497859E+03  0.12499842461E+03 0.  0.
    9000005    1    3    3    0    0 -0.23654380168E+02  0.16442765263E+02  0.18120137392E+03  0.18347978674E+03  0.10000000000E+01 0.  0.
    9000005    1    3    3    0    0  0.23654380168E+02 -0.16442765263E+02 -0.81864822748E+01  0.29965191851E+02  0.10000000000E+01 0.  0.
<mgrwt>
<rscale>  0 0.12499842E+03</rscale>
<asrwt>0</asrwt>
<pdfrwt beam="1">  1        4 0.29727682E-01 0.12499842E+03</pdfrwt>
<pdfrwt beam="2">  1       -4 0.31100067E-02 0.12499842E+03</pdfrwt>
<totfact> 0.87919438E+03</totfact>
</mgrwt>
</event>
<event>
 5    1  0.3317939E-002  0.1250038E+03  0.7818608E-02  0.1235063E+00
          4   -1    0    0  501    0  0.00000000000E+00  0.00000000000E+00  0.12331346640E+03  0.12332000606E+03  0.12700000000E+01 0. -1.
         -4   -1    0    0    0  501 -0.00000000000E+00 -0.00000000000E+00 -0.31659232098E+02  0.31684694681E+02  0.12700000000E+01 0. -1.
         25    2    1    2    0    0  0.00000000000E+00  0.00000000000E+00  0.91654234302E+02  0.15500470075E+03  0.12500383429E+03 0.  0.
    9000005    1    3    3    0    0  0.27923910568E+02 -0.42480519997E+02  0.75607022903E+00  0.50851853485E+02  0.10000000000E+01 0.  0.
    9000005    1    3    3    0    0 -0.27923910568E+02  0.42480519997E+02  0.90898164073E+02  0.10415284726E+03  0.10000000000E+01 0.  0.
<mgrwt>
<rscale>  0 0.12500383E+03</rscale>
<asrwt>0</asrwt>
<pdfrwt beam="1">  1        4 0.18973765E-01 0.12500383E+03</pdfrwt>
<pdfrwt beam="2">  1       -4 0.48731127E-02 0.12500383E+03</pdfrwt>
<totfact> 0.98306098E+03</totfact>
</mgrwt>
</event>
<event>
 5    1  0.3317939E-002  0.1249422E+03  0.7818608E-02  0.1235160E+00
          4   -1    0    0  501    0  0.00000000000E+00  0.00000000000E+00  0.15966752150E+02  0.16017180595E+02  0.12700000000E+01 0.  1.
         -4   -1    0    0    0  501 -0.00000000000E+00 -0.00000000000E+00 -0.24398548584E+03  0.24398879114E+03  0.12700000000E+01 0.  1.
         25    2    1    2    0    0  0.00000000000E+00  0.00000000000E+00 -0.22801873369E+03  0.26000597173E+03  0.12494223634E+03 0.  0.
    9000005    1    3    3    0    0 -0.37467401695E+02 -0.24886356588E+02 -0.23814863428E+02  0.50904662401E+02  0.10000000000E+01 0.  0.
    9000005    1    3    3    0    0  0.37467401695E+02  0.24886356588E+02 -0.20420387026E+03  0.20910130933E+03  0.10000000000E+01 0.  0.
<mgrwt>
<rscale>  0 0.12494224E+03</rscale>
<asrwt>0</asrwt>
<pdfrwt beam="1">  1        4 0.24605569E-02 0.12494224E+03</pdfrwt>
<pdfrwt beam="2">  1       -4 0.37540359E-01 0.12494224E+03</pdfrwt>
<totfact> 0.81009341E+03</totfact>
</mgrwt>
</event>
<event>
 5    1  0.3317939E-002  0.1250043E+03  0.7818608E-02  0.1235062E+00
         -4   -1    0    0    0  501 -0.00000000000E+00  0.00000000000E+00  0.19095288134E+02  0.19137474466E+02  0.12700000000E+01 0.  1.
          4   -1    0    0  501    0  0.00000000000E+00 -0.00000000000E+00 -0.20431049925E+03  0.20431444639E+03  0.12700000000E+01 0.  1.
         25    2    1    2    0    0  0.00000000000E+00  0.00000000000E+00 -0.18521521111E+03  0.22345192085E+03  0.12500434595E+03 0.  0.
    9000005    1    3    3    0    0 -0.37972072582E+02  0.44329899960E+02 -0.13251864134E+03  0.14480748817E+03  0.10000000000E+01 0.  0.
    9000005    1    3    3    0    0  0.37972072582E+02 -0.44329899960E+02 -0.52696569769E+02  0.78644432683E+02  0.10000000000E+01 0.  0.
<mgrwt>
<rscale>  0 0.12500435E+03</rscale>
<asrwt>0</asrwt>
<pdfrwt beam="2">  1        4 0.31435932E-01 0.12500435E+03</pdfrwt>
<pdfrwt beam="1">  1       -4 0.29412855E-02 0.12500435E+03</pdfrwt>
<totfact> 0.86316682E+03</totfact>
</mgrwt>
</event>
<event>
 5    1  0.3317939E-002  0.1250023E+03  0.7818608E-02  0.1235066E+00
         -4   -1    0    0    0  501 -0.00000000000E+00  0.00000000000E+00  0.50878722061E+02  0.50894570030E+02  0.12700000000E+01 0. -1.
          4   -1    0    0  501    0  0.00000000000E+00 -0.00000000000E+00 -0.76745424588E+02  0.76755931987E+02  0.12700000000E+01 0. -1.
         25    2    1    2    0    0  0.00000000000E+00  0.00000000000E+00 -0.25866702527E+02  0.12765050202E+03  0.12500225744E+03 0.  0.
    9000005    1    3    3    0    0  0.24675340553E+02  0.21618813044E+02  0.41383216467E+02  0.52818709886E+02  0.10000000000E+01 0.  0.
    9000005    1    3    3    0    0 -0.24675340553E+02 -0.21618813044E+02 -0.67249918994E+02  0.74831792131E+02  0.10000000000E+01 0.  0.
<mgrwt>
<rscale>  0 0.12500226E+03</rscale>
<asrwt>0</asrwt>
<pdfrwt beam="2">  1        4 0.11809016E-01 0.12500226E+03</pdfrwt>
<pdfrwt beam="1">  1       -4 0.78295230E-02 0.12500226E+03</pdfrwt>
<totfact> 0.10394513E+04</totfact>
</mgrwt>
</event>
<event>
 5    1  0.3317939E-002  0.1250090E+03  0.7818608E-02  0.1235055E+00
          4   -1    0    0  501    0  0.00000000000E+00  0.00000000000E+00  0.26624450445E+02  0.26654723062E+02  0.12700000000E+01 0.  1.
         -4   -1    0    0    0  501 -0.00000000000E+00 -0.00000000000E+00 -0.14662148638E+03  0.14662698649E+03  0.12700000000E+01 0.  1.
         25    2    1    2    0    0  0.00000000000E+00  0.00000000000E+00 -0.11999703593E+03  0.17328170956E+03  0.12500904861E+03 0.  0.
    9000005    1    3    3    0    0 -0.74497015422E+01 -0.61318294819E+02 -0.46820272429E+02  0.77514961414E+02  0.10000000000E+01 0.  0.
    9000005    1    3    3    0    0  0.74497015422E+01  0.61318294819E+02 -0.73176763505E+02  0.95766748142E+02  0.10000000000E+01 0.  0.
<mgrwt>
<rscale>  0 0.12500905E+03</rscale>
<asrwt>0</asrwt>
<pdfrwt beam="1">  1        4 0.40988212E-02 0.12500905E+03</pdfrwt>
<pdfrwt beam="2">  1       -4 0.22559903E-01 0.12500905E+03</pdfrwt>
<totfact> 0.94821235E+03</totfact>
</mgrwt>
</event>
<event>
 5    1  0.3317939E-002  0.1249924E+03  0.7818608E-02  0.1235081E+00
          4   -1    0    0  501    0  0.00000000000E+00  0.00000000000E+00  0.10671682218E+03  0.10672437882E+03  0.12700000000E+01 0. -1.
         -4   -1    0    0    0  501 -0.00000000000E+00 -0.00000000000E+00 -0.36579532318E+02  0.36601572160E+02  0.12700000000E+01 0. -1.
         25    2    1    2    0    0  0.00000000000E+00  0.00000000000E+00  0.70137289858E+02  0.14332595098E+03  0.12499235495E+03 0.  0.
    9000005    1    3    3    0    0 -0.38954561173E+02  0.47918132087E+02  0.46017284695E+02  0.77020748565E+02  0.10000000000E+01 0.  0.
    9000005    1    3    3    0    0  0.38954561173E+02 -0.47918132087E+02  0.24120005164E+02  0.66305202420E+02  0.10000000000E+01 0.  0.
<mgrwt>
<rscale>  0 0.12499235E+03</rscale>
<asrwt>0</asrwt>
<pdfrwt beam="1">  1        4 0.16420249E-01 0.12499235E+03</pdfrwt>
<pdfrwt beam="2">  1       -4 0.56298969E-02 0.12499235E+03</pdfrwt>
<totfact> 0.10066846E+04</totfact>
</mgrwt>
</event>
<event>
 5    1  0.3317939E-002  0.1250011E+03  0.7818608E-02  0.1235068E+00
          4   -1    0    0  501    0  0.00000000000E+00  0.00000000000E+00  0.10469509959E+03  0.10470280215E+03  0.12700000000E+01 0.  1.
         -4   -1    0    0    0  501 -0.00000000000E+00 -0.00000000000E+00 -0.37291482475E+02  0.37313101790E+02  0.12700000000E+01 0.  1.
         25    2    1    2    0    0  0.00000000000E+00  0.00000000000E+00  0.67403617119E+02  0.14201590394E+03  0.12500107749E+03 0.  0.
    9000005    1    3    3    0    0  0.48147942953E+02  0.32472400175E+02  0.59922162456E+02  0.83452661654E+02  0.10000000000E+01 0.  0.
    9000005    1    3    3    0    0 -0.48147942953E+02 -0.32472400175E+02  0.74814546633E+01  0.58563242291E+02  0.10000000000E+01 0.  0.
<mgrwt>
<rscale>  0 0.12500108E+03</rscale>
<asrwt>0</asrwt>
<pdfrwt beam="1">  1        4 0.16109194E-01 0.12500108E+03</pdfrwt>
<pdfrwt beam="2">  1       -4 0.57394067E-02 0.12500108E+03</pdfrwt>
<totfact> 0.10091730E+04</totfact>
</mgrwt>
</event>
<event>
 5    1  0.3317939E-002  0.1250255E+03  0.7818608E-02  0.1235029E+00
         -4   -1    0    0    0  501 -0.00000000000E+00  0.00000000000E+00  0.57994827170E+02  0.58008731054E+02  0.12700000000E+01 0. -1.
          4   -1    0    0  501    0  0.00000000000E+00 -0.00000000000E+00 -0.67354690085E+02  0.67366662204E+02  0.12700000000E+01 0. -1.
         25    2    1    2    0    0  0.00000000000E+00  0.00000000000E+00 -0.93598629153E+01  0.12537539326E+03  0.12502552620E+03 0.  0.
    9000005    1    3    3    0    0 -0.54379963028E+02 -0.30467206577E+02 -0.93204609064E+01  0.63034133983E+02  0.10000000000E+01 0.  0.
    9000005    1    3    3    0    0  0.54379963028E+02  0.30467206577E+02 -0.39402008967E-01  0.62341259275E+02  0.10000000000E+01 0.  0.
<mgrwt>
<rscale>  0 0.12502553E+03</rscale>
<asrwt>0</asrwt>
<pdfrwt beam="2">  1        4 0.10364251E-01 0.12502553E+03</pdfrwt>
<pdfrwt beam="1">  1       -4 0.89242715E-02 0.12502553E+03</pdfrwt>
<totfact> 0.10438691E+04</totfact>
</mgrwt>
</event>
<event>
 5    1  0.3317939E-002  0.1250025E+03  0.7818608E-02  0.1235065E+00
         -4   -1    0    0    0  501 -0.00000000000E+00  0.00000000000E+00  0.29103850036E+01  0.31754119212E+01  0.12700000000E+01 0. -1.
          4   -1    0    0  501    0  0.00000000000E+00 -0.00000000000E+00 -0.12835119722E+04  0.12835126006E+04  0.12700000000E+01 0. -1.
         25    2    1    2    0    0  0.00000000000E+00  0.00000000000E+00 -0.12806015872E+04  0.12866880125E+04  0.12500246485E+03 0.  0.
    9000005    1    3    3    0    0 -0.10673808852E+02 -0.26760387804E+02 -0.69476640037E+02  0.75220024339E+02  0.10000000000E+01 0.  0.
    9000005    1    3    3    0    0  0.10673808852E+02  0.26760387804E+02 -0.12111249472E+04  0.12114679881E+04  0.10000000000E+01 0.  0.
<mgrwt>
<rscale>  0 0.12500246E+03</rscale>
<asrwt>0</asrwt>
<pdfrwt beam="2">  1        4 0.19748338E+00 0.12500246E+03</pdfrwt>
<pdfrwt beam="1">  1       -4 0.46818758E-03 0.12500246E+03</pdfrwt>
<totfact> 0.22543752E+03</totfact>
</mgrwt>
</event>
<event>
 5    1  0.3317939E-002  0.1250116E+03  0.7818608E-02  0.1235051E+00
         -4   -1    0    0    0  501 -0.00000000000E+00  0.00000000000E+00  0.41477229846E+03  0.41477424278E+03  0.12700000000E+01 0.  1.
          4   -1    0    0  501    0  0.00000000000E+00 -0.00000000000E+00 -0.93747761363E+01  0.94604084270E+01  0.12700000000E+01 0.  1.
         25    2    1    2    0    0  0.00000000000E+00  0.00000000000E+00  0.40539752233E+03  0.42423465120E+03  0.12501155216E+03 0.  0.
    9000005    1    3    3    0    0 -0.47693737695E+02 -0.19129493352E+02  0.32341339957E+03  0.32747191811E+03  0.10000000000E+01 0.  0.
    9000005    1    3    3    0    0  0.47693737695E+02  0.19129493352E+02  0.81984122755E+02  0.96762733091E+02  0.10000000000E+01 0.  0.
<mgrwt>
<rscale>  0 0.12501155E+03</rscale>
<asrwt>0</asrwt>
<pdfrwt beam="2">  1        4 0.14490102E-02 0.12501155E+03</pdfrwt>
<pdfrwt beam="1">  1       -4 0.63817845E-01 0.12501155E+03</pdfrwt>
<totfact> 0.62246231E+03</totfact>
</mgrwt>
</event>
<event>
 5    1  0.3317939E-002  0.1250064E+03  0.7818608E-02  0.1235059E+00
          4   -1    0    0  501    0  0.00000000000E+00  0.00000000000E+00  0.24146291350E+02  0.24179666788E+02  0.12700000000E+01 0.  1.
         -4   -1    0    0    0  501 -0.00000000000E+00 -0.00000000000E+00 -0.16164318301E+03  0.16164817201E+03  0.12700000000E+01 0.  1.
         25    2    1    2    0    0  0.00000000000E+00  0.00000000000E+00 -0.13749689166E+03  0.18582783880E+03  0.12500636166E+03 0.  0.
    9000005    1    3    3    0    0 -0.51715275022E+02  0.37215284800E+01 -0.12061441491E+03  0.13129035200E+03  0.10000000000E+01 0.  0.
    9000005    1    3    3    0    0  0.51715275022E+02 -0.37215284800E+01 -0.16882476754E+02  0.54537486797E+02  0.10000000000E+01 0.  0.
<mgrwt>
<rscale>  0 0.12500636E+03</rscale>
<asrwt>0</asrwt>
<pdfrwt beam="1">  1        4 0.37177653E-02 0.12500636E+03</pdfrwt>
<pdfrwt beam="2">  1       -4 0.24871132E-01 0.12500636E+03</pdfrwt>
<totfact> 0.92565171E+03</totfact>
</mgrwt>
</event>
<event>
 5    1  0.3317939E-002  0.1250149E+03  0.7818608E-02  0.1235046E+00
          4   -1    0    0  501    0  0.00000000000E+00  0.00000000000E+00  0.29080408585E+02  0.29108127104E+02  0.12700000000E+01 0.  1.
         -4   -1    0    0    0  501 -0.00000000000E+00 -0.00000000000E+00 -0.13426322044E+03  0.13426922680E+03  0.12700000000E+01 0.  1.
         25    2    1    2    0    0  0.00000000000E+00  0.00000000000E+00 -0.10518281186E+03  0.16337735390E+03  0.12501494253E+03 0.  0.
    9000005    1    3    3    0    0 -0.10024163753E+02  0.52575959183E+02 -0.10416606396E+02  0.54536419316E+02  0.10000000000E+01 0.  0.
    9000005    1    3    3    0    0  0.10024163753E+02 -0.52575959183E+02 -0.94766205463E+02  0.10884093458E+03  0.10000000000E+01 0.  0.
<mgrwt>
<rscale>  0 0.12501494E+03</rscale>
<asrwt>0</asrwt>
<pdfrwt beam="1">  1        4 0.44765033E-02 0.12501494E+03</pdfrwt>
<pdfrwt beam="2">  1       -4 0.20658474E-01 0.12501494E+03</pdfrwt>
<totfact> 0.96663124E+03</totfact>
</mgrwt>
</event>
<event>
 4    1  0.3317939E-002  0.1248536E+03  0.7818608E-02  0.1235298E+00
          4   -1    0    0  501    0  0.00000000000E+00  0.00000000000E+00  0.45846276458E+03  0.45846452361E+03  0.12700000000E+01 0. -1.
         -4   -1    0    0    0  501 -0.00000000000E+00 -0.00000000000E+00 -0.84511583751E+01  0.85460504259E+01  0.12700000000E+01 0. -1.
    9000005    1    1    2    0    0  0.32500006284E+02  0.25395594131E+01  0.42410983991E+03  0.42536202943E+03  0.10000000000E+01 0.  0.
    9000005    1    1    2    0    0 -0.32500006284E+02 -0.25395594131E+01  0.25901766293E+02  0.41648544604E+02  0.10000000000E+01 0.  0.
<mgrwt>
<rscale>  0 0.12485364E+03</rscale>
<asrwt>0</asrwt>
<pdfrwt beam="1">  1        4 0.70540180E-01 0.12485364E+03</pdfrwt>
<pdfrwt beam="2">  1       -4 0.13076127E-02 0.12485364E+03</pdfrwt>
<totfact> 0.58706917E+03</totfact>
</mgrwt>
</event>
<event>
 5    1  0.3317939E-002  0.1250012E+03  0.7818608E-02  0.1235067E+00
          4   -1    0    0  501    0  0.00000000000E+00  0.00000000000E+00  0.45440698290E+02  0.45458442132E+02  0.12700000000E+01 0. -1.
         -4   -1    0    0    0  501 -0.00000000000E+00 -0.00000000000E+00 -0.85926058988E+02  0.85935443870E+02  0.12700000000E+01 0. -1.
         25    2    1    2    0    0  0.00000000000E+00  0.00000000000E+00 -0.40485360698E+02  0.13139388600E+03  0.12500115539E+03 0.  0.
    9000005    1    3    3    0    0 -0.23300976871E+02 -0.55063470900E+02 -0.11361549767E+01  0.59809800190E+02  0.10000000000E+01 0.  0.
    9000005    1    3    3    0    0  0.23300976871E+02  0.55063470900E+02 -0.39349205721E+02  0.71584085812E+02  0.10000000000E+01 0.  0.
<mgrwt>
<rscale>  0 0.12500116E+03</rscale>
<asrwt>0</asrwt>
<pdfrwt beam="1">  1        4 0.69929635E-02 0.12500116E+03</pdfrwt>
<pdfrwt beam="2">  1       -4 0.13221480E-01 0.12500116E+03</pdfrwt>
<totfact> 0.10314384E+04</totfact>
</mgrwt>
</event>
<event>
 5    1  0.3317939E-002  0.1249992E+03  0.7818608E-02  0.1235071E+00
          4   -1    0    0  501    0  0.00000000000E+00  0.00000000000E+00  0.69546631332E+01  0.70696703810E+01  0.12700000000E+01 0.  1.
         -4   -1    0    0    0  501 -0.00000000000E+00 -0.00000000000E+00 -0.55694441937E+03  0.55694586736E+03  0.12700000000E+01 0.  1.
         25    2    1    2    0    0  0.00000000000E+00  0.00000000000E+00 -0.54998975624E+03  0.56401553774E+03  0.12499917938E+03 0.  0.
    9000005    1    3    3    0    0  0.15812476420E+02 -0.54090739025E+02 -0.39685279834E+03  0.40083536022E+03  0.10000000000E+01 0.  0.
    9000005    1    3    3    0    0 -0.15812476420E+02  0.54090739025E+02 -0.15313695790E+03  0.16318017752E+03  0.10000000000E+01 0.  0.
<mgrwt>
<rscale>  0 0.12499918E+03</rscale>
<asrwt>0</asrwt>
<pdfrwt beam="1">  1        4 0.10789067E-02 0.12499918E+03</pdfrwt>
<pdfrwt beam="2">  1       -4 0.85692681E-01 0.12499918E+03</pdfrwt>
<totfact> 0.51221735E+03</totfact>
</mgrwt>
</event>
<event>
 5    1  0.3317939E-002  0.1249955E+03  0.7818608E-02  0.1235076E+00
         -4   -1    0    0    0  501 -0.00000000000E+00  0.00000000000E+00  0.38521896256E+02  0.38542825418E+02  0.12700000000E+01 0. -1.
          4   -1    0    0  501    0  0.00000000000E+00 -0.00000000000E+00 -0.10134369579E+03  0.10135165306E+03  0.12700000000E+01 0. -1.
         25    2    1    2    0    0  0.00000000000E+00  0.00000000000E+00 -0.62821799538E+02  0.13989447847E+03  0.12499554636E+03 0.  0.
    9000005    1    3    3    0    0  0.58326762188E+02  0.19260220282E+02 -0.18552106771E+02  0.64172797494E+02  0.10000000000E+01 0.  0.
    9000005    1    3    3    0    0 -0.58326762188E+02 -0.19260220282E+02 -0.44269692767E+02  0.75721680979E+02  0.10000000000E+01 0.  0.
<mgrwt>
<rscale>  0 0.12499555E+03</rscale>
<asrwt>0</asrwt>
<pdfrwt beam="2">  1        4 0.15593560E-01 0.12499555E+03</pdfrwt>
<pdfrwt beam="1">  1       -4 0.59286677E-02 0.12499555E+03</pdfrwt>
<totfact> 0.10136790E+04</totfact>
</mgrwt>
</event>
<event>
 5    1  0.3317939E-002  0.1250022E+03  0.7818608E-02  0.1235066E+00
          4   -1    0    0  501    0  0.00000000000E+00  0.00000000000E+00  0.45407802218E+02  0.45425558910E+02  0.12700000000E+01 0.  1.
         -4   -1    0    0    0  501 -0.00000000000E+00 -0.00000000000E+00 -0.85989673964E+02  0.85999051905E+02  0.12700000000E+01 0.  1.
         25    2    1    2    0    0  0.00000000000E+00  0.00000000000E+00 -0.40581871746E+02  0.13142461081E+03  0.12500216004E+03 0.  0.
    9000005    1    3    3    0    0 -0.42750065802E+02 -0.10993647547E+02 -0.66801304123E+02  0.80073982322E+02  0.10000000000E+01 0.  0.
    9000005    1    3    3    0    0  0.42750065802E+02  0.10993647547E+02  0.26219432377E+02  0.51350628493E+02  0.10000000000E+01 0.  0.
<mgrwt>
<rscale>  0 0.12500216E+03</rscale>
<asrwt>0</asrwt>
<pdfrwt beam="1">  1        4 0.69879030E-02 0.12500216E+03</pdfrwt>
<pdfrwt beam="2">  1       -4 0.13231268E-01 0.12500216E+03</pdfrwt>
<totfact> 0.10313492E+04</totfact>
</mgrwt>
</event>
<event>
 5    1  0.3317939E-002  0.1249870E+03  0.7818608E-02  0.1235090E+00
          4   -1    0    0  501    0  0.00000000000E+00  0.00000000000E+00  0.39663717194E+02  0.39684044169E+02  0.12700000000E+01 0.  1.
         -4   -1    0    0    0  501 -0.00000000000E+00 -0.00000000000E+00 -0.98414023171E+02  0.98422217292E+02  0.12700000000E+01 0.  1.
         25    2    1    2    0    0  0.00000000000E+00  0.00000000000E+00 -0.58750305977E+02  0.13810626146E+03  0.12498696333E+03 0.  0.
    9000005    1    3    3    0    0 -0.52488691088E+02  0.16688533339E+02 -0.61983153855E+02  0.82924551244E+02  0.10000000000E+01 0.  0.
    9000005    1    3    3    0    0  0.52488691088E+02 -0.16688533339E+02  0.32328478780E+01  0.55181710218E+02  0.10000000000E+01 0.  0.
<mgrwt>
<rscale>  0 0.12498696E+03</rscale>
<asrwt>0</asrwt>
<pdfrwt beam="1">  1        4 0.61043043E-02 0.12498696E+03</pdfrwt>
<pdfrwt beam="2">  1       -4 0.15142813E-01 0.12498696E+03</pdfrwt>
<totfact> 0.10175975E+04</totfact>
</mgrwt>
</event>
<event>
 5    1  0.3317939E-002  0.1250030E+03  0.7818608E-02  0.1235065E+00
          4   -1    0    0  501    0  0.00000000000E+00  0.00000000000E+00  0.34924381439E+03  0.34924612352E+03  0.12700000000E+01 0.  1.
         -4   -1    0    0    0  501 -0.00000000000E+00 -0.00000000000E+00 -0.11147016353E+02  0.11219129805E+02  0.12700000000E+01 0.  1.
         25    2    1    2    0    0  0.00000000000E+00  0.00000000000E+00  0.33809679804E+03  0.36046525332E+03  0.12500301599E+03 0.  0.
    9000005    1    3    3    0    0  0.57743191507E+02  0.19616614793E+02  0.12968355807E+03  0.14331054733E+03  0.10000000000E+01 0.  0.
    9000005    1    3    3    0    0 -0.57743191507E+02 -0.19616614793E+02  0.20841323997E+03  0.21715470599E+03  0.10000000000E+01 0.  0.
<mgrwt>
<rscale>  0 0.12500302E+03</rscale>
<asrwt>0</asrwt>
<pdfrwt beam="1">  1        4 0.53735542E-01 0.12500302E+03</pdfrwt>
<pdfrwt beam="2">  1       -4 0.17206504E-02 0.12500302E+03</pdfrwt>
<totfact> 0.68583812E+03</totfact>
</mgrwt>
</event>
<event>
 5    1  0.3317939E-002  0.1249984E+03  0.7818608E-02  0.1235072E+00
         -4   -1    0    0    0  501 -0.00000000000E+00  0.00000000000E+00  0.25701357495E+04  0.25701360633E+04  0.12700000000E+01 0. -1.
          4   -1    0    0  501    0  0.00000000000E+00 -0.00000000000E+00 -0.12541422525E+01  0.17848733259E+01  0.12700000000E+01 0. -1.
         25    2    1    2    0    0  0.00000000000E+00  0.00000000000E+00  0.25688816072E+04  0.25719209366E+04  0.12499836832E+03 0.  0.
    9000005    1    3    3    0    0  0.50501207652E+02 -0.35012923995E+02  0.10508631962E+04  0.10526588877E+04  0.10000000000E+01 0.  0.
    9000005    1    3    3    0    0 -0.50501207652E+02  0.35012923995E+02  0.15180184111E+04  0.15192620489E+04  0.10000000000E+01 0.  0.
<mgrwt>
<rscale>  0 0.12499837E+03</rscale>
<asrwt>0</asrwt>
<pdfrwt beam="2">  1        4 0.23379268E-03 0.12499837E+03</pdfrwt>
<pdfrwt beam="1">  1       -4 0.39544954E+00 0.12499837E+03</pdfrwt>
<totfact> 0.41286242E+02</totfact>
</mgrwt>
</event>
<event>
 5    1  0.3317939E-002  0.1249995E+03  0.7818608E-02  0.1235070E+00
          4   -1    0    0  501    0  0.00000000000E+00  0.00000000000E+00  0.24485269619E+03  0.24485598978E+03  0.12700000000E+01 0.  1.
         -4   -1    0    0    0  501 -0.00000000000E+00 -0.00000000000E+00 -0.15924663126E+02  0.15975224433E+02  0.12700000000E+01 0.  1.
         25    2    1    2    0    0  0.00000000000E+00  0.00000000000E+00  0.22892803306E+03  0.26083121421E+03  0.12499951194E+03 0.  0.
    9000005    1    3    3    0    0  0.59733777973E+02  0.76115651781E+01  0.14932802576E+03  0.16101527702E+03  0.10000000000E+01 0.  0.
    9000005    1    3    3    0    0 -0.59733777973E+02 -0.76115651781E+01  0.79600007297E+02  0.99815937190E+02  0.10000000000E+01 0.  0.
<mgrwt>
<rscale>  0 0.12499951E+03</rscale>
<asrwt>0</asrwt>
<pdfrwt beam="1">  1        4 0.37673783E-01 0.12499951E+03</pdfrwt>
<pdfrwt beam="2">  1       -4 0.24540912E-02 0.12499951E+03</pdfrwt>
<totfact> 0.80790434E+03</totfact>
</mgrwt>
</event>
<event>
 5    1  0.3317939E-002  0.1249997E+03  0.7818608E-02  0.1235070E+00
          4   -1    0    0  501    0  0.00000000000E+00  0.00000000000E+00  0.25865201007E+02  0.25896361195E+02  0.12700000000E+01 0. -1.
         -4   -1    0    0    0  501 -0.00000000000E+00 -0.00000000000E+00 -0.15089799728E+03  0.15090334152E+03  0.12700000000E+01 0. -1.
         25    2    1    2    0    0  0.00000000000E+00  0.00000000000E+00 -0.12503279627E+03  0.17679970272E+03  0.12499973895E+03 0.  0.
    9000005    1    3    3    0    0  0.52907811164E+02 -0.93248144413E+01 -0.17365217216E+02  0.56468924334E+02  0.10000000000E+01 0.  0.
    9000005    1    3    3    0    0 -0.52907811164E+02  0.93248144413E+01 -0.10766757905E+03  0.12033077838E+03  0.10000000000E+01 0.  0.
<mgrwt>
<rscale>  0 0.12499974E+03</rscale>
<asrwt>0</asrwt>
<pdfrwt beam="1">  1        4 0.39820698E-02 0.12499974E+03</pdfrwt>
<pdfrwt beam="2">  1       -4 0.23217884E-01 0.12499974E+03</pdfrwt>
<totfact> 0.94196811E+03</totfact>
</mgrwt>
</event>
<event>
 5    1  0.3317939E-002  0.1250113E+03  0.7818608E-02  0.1235052E+00
         -4   -1    0    0    0  501 -0.00000000000E+00  0.00000000000E+00  0.95265108651E+02  0.95273573599E+02  0.12700000000E+01 0.  1.
          4   -1    0    0  501    0  0.00000000000E+00 -0.00000000000E+00 -0.40991319360E+02  0.41010988319E+02  0.12700000000E+01 0.  1.
         25    2    1    2    0    0  0.00000000000E+00  0.00000000000E+00  0.54273789291E+02  0.13628456192E+03  0.12501134994E+03 0.  0.
    9000005    1    3    3    0    0 -0.90980045925E+01  0.32412286887E+02 -0.30267233804E+02  0.45281734408E+02  0.10000000000E+01 0.  0.
    9000005    1    3    3    0    0  0.90980045925E+01 -0.32412286887E+02  0.84541023096E+02  0.91002827510E+02  0.10000000000E+01 0.  0.
<mgrwt>
<rscale>  0 0.12501135E+03</rscale>
<asrwt>0</asrwt>
<pdfrwt beam="2">  1        4 0.63085210E-02 0.12501135E+03</pdfrwt>
<pdfrwt beam="1">  1       -4 0.14658335E-01 0.12501135E+03</pdfrwt>
<totfact> 0.10208453E+04</totfact>
</mgrwt>
</event>
<event>
 5    1  0.3317939E-002  0.1249983E+03  0.7818608E-02  0.1235072E+00
         -4   -1    0    0    0  501 -0.00000000000E+00  0.00000000000E+00  0.12359031905E+03  0.12359684406E+03  0.12700000000E+01 0.  1.
          4   -1    0    0  501    0  0.00000000000E+00 -0.00000000000E+00 -0.31585479037E+02  0.31611001028E+02  0.12700000000E+01 0.  1.
         25    2    1    2    0    0  0.00000000000E+00  0.00000000000E+00  0.92004840008E+02  0.15520784509E+03  0.12499833836E+03 0.  0.
    9000005    1    3    3    0    0  0.31745845362E+02 -0.47190427273E+02  0.78152347876E+02  0.96661908747E+02  0.10000000000E+01 0.  0.
    9000005    1    3    3    0    0 -0.31745845362E+02  0.47190427273E+02  0.13852492132E+02  0.58545936343E+02  0.10000000000E+01 0.  0.
<mgrwt>
<rscale>  0 0.12499834E+03</rscale>
<asrwt>0</asrwt>
<pdfrwt beam="2">  1        4 0.48617696E-02 0.12499834E+03</pdfrwt>
<pdfrwt beam="1">  1       -4 0.19016361E-01 0.12499834E+03</pdfrwt>
<totfact> 0.98278384E+03</totfact>
</mgrwt>
</event>
<event>
 5    1  0.3317939E-002  0.1250123E+03  0.7818608E-02  0.1235050E+00
          4   -1    0    0  501    0  0.00000000000E+00  0.00000000000E+00  0.14078599927E+02  0.14135765841E+02  0.12700000000E+01 0. -1.
         -4   -1    0    0    0  501 -0.00000000000E+00 -0.00000000000E+00 -0.27689370996E+03  0.27689662244E+03  0.12700000000E+01 0. -1.
         25    2    1    2    0    0  0.00000000000E+00  0.00000000000E+00 -0.26281511004E+03  0.29103238828E+03  0.12501227525E+03 0.  0.
    9000005    1    3    3    0    0  0.14206071339E+02 -0.36773813330E+02 -0.18506682397E+02  0.43561716025E+02  0.10000000000E+01 0.  0.
    9000005    1    3    3    0    0 -0.14206071339E+02  0.36773813330E+02 -0.24430842764E+03  0.24747067225E+03  0.10000000000E+01 0.  0.
<mgrwt>
<rscale>  0 0.12501228E+03</rscale>
<asrwt>0</asrwt>
<pdfrwt beam="1">  1        4 0.21705601E-02 0.12501228E+03</pdfrwt>
<pdfrwt beam="2">  1       -4 0.42603650E-01 0.12501228E+03</pdfrwt>
<totfact> 0.76716749E+03</totfact>
</mgrwt>
</event>
<event>
 5    1  0.3317939E-002  0.1250012E+03  0.7818608E-02  0.1235067E+00
          4   -1    0    0  501    0  0.00000000000E+00  0.00000000000E+00  0.23635089807E+02  0.23669186091E+02  0.12700000000E+01 0.  1.
         -4   -1    0    0    0  501 -0.00000000000E+00 -0.00000000000E+00 -0.16512082184E+03  0.16512570576E+03  0.12700000000E+01 0.  1.
         25    2    1    2    0    0  0.00000000000E+00  0.00000000000E+00 -0.14148573203E+03  0.18879489185E+03  0.12500119528E+03 0.  0.
    9000005    1    3    3    0    0 -0.21593352162E+02  0.57580236307E+01 -0.15888667818E+03  0.16045374472E+03  0.10000000000E+01 0.  0.
    9000005    1    3    3    0    0  0.21593352162E+02 -0.57580236307E+01  0.17400946149E+02  0.28341147129E+02  0.10000000000E+01 0.  0.
<mgrwt>
<rscale>  0 0.12500120E+03</rscale>
<asrwt>0</asrwt>
<pdfrwt beam="1">  1        4 0.36391662E-02 0.12500120E+03</pdfrwt>
<pdfrwt beam="2">  1       -4 0.25406201E-01 0.12500120E+03</pdfrwt>
<totfact> 0.92054958E+03</totfact>
</mgrwt>
</event>
<event>
 5    1  0.3317939E-002  0.1249984E+03  0.7818608E-02  0.1235072E+00
         -4   -1    0    0    0  501 -0.00000000000E+00  0.00000000000E+00  0.36197484212E+02  0.36219756532E+02  0.12700000000E+01 0.  1.
          4   -1    0    0  501    0  0.00000000000E+00 -0.00000000000E+00 -0.10785303995E+03  0.10786051700E+03  0.12700000000E+01 0.  1.
         25    2    1    2    0    0  0.00000000000E+00  0.00000000000E+00 -0.71655555739E+02  0.14408027353E+03  0.12499842620E+03 0.  0.
    9000005    1    3    3    0    0 -0.34489962102E+02 -0.41278199991E+02  0.83512004644E+00  0.53806548912E+02  0.10000000000E+01 0.  0.
    9000005    1    3    3    0    0  0.34489962102E+02  0.41278199991E+02 -0.72490675786E+02  0.90273724617E+02  0.10000000000E+01 0.  0.
<mgrwt>
<rscale>  0 0.12499843E+03</rscale>
<asrwt>0</asrwt>
<pdfrwt beam="2">  1        4 0.16595064E-01 0.12499843E+03</pdfrwt>
<pdfrwt beam="1">  1       -4 0.55711322E-02 0.12499843E+03</pdfrwt>
<totfact> 0.10050065E+04</totfact>
</mgrwt>
</event>
<event>
 5    1  0.3317939E-002  0.1250128E+03  0.7818608E-02  0.1235049E+00
         -4   -1    0    0    0  501 -0.00000000000E+00  0.00000000000E+00  0.38538067063E+03  0.38538276323E+03  0.12700000000E+01 0.  1.
          4   -1    0    0  501    0  0.00000000000E+00 -0.00000000000E+00 -0.10096248284E+02  0.10175810995E+02  0.12700000000E+01 0.  1.
         25    2    1    2    0    0  0.00000000000E+00  0.00000000000E+00  0.37528442235E+03  0.39555857422E+03  0.12501275130E+03 0.  0.
    9000005    1    3    3    0    0  0.46733579953E+02  0.32374195163E+02  0.10550041353E+03  0.11984762518E+03  0.10000000000E+01 0.  0.
    9000005    1    3    3    0    0 -0.46733579953E+02 -0.32374195163E+02  0.26978400882E+03  0.27571094904E+03  0.10000000000E+01 0.  0.
<mgrwt>
<rscale>  0 0.12501275E+03</rscale>
<asrwt>0</asrwt>
<pdfrwt beam="2">  1        4 0.15595500E-02 0.12501275E+03</pdfrwt>
<pdfrwt beam="1">  1       -4 0.59295619E-01 0.12501275E+03</pdfrwt>
<totfact> 0.64968762E+03</totfact>
</mgrwt>
</event>
<event>
 5    1  0.3317939E-002  0.1249997E+03  0.7818608E-02  0.1235070E+00
         -4   -1    0    0    0  501 -0.00000000000E+00  0.00000000000E+00  0.98785362154E+01  0.99598382396E+01  0.12700000000E+01 0.  1.
          4   -1    0    0  501    0  0.00000000000E+00 -0.00000000000E+00 -0.39372311711E+03  0.39372516538E+03  0.12700000000E+01 0.  1.
         25    2    1    2    0    0  0.00000000000E+00  0.00000000000E+00 -0.38384458090E+03  0.40368500362E+03  0.12499967943E+03 0.  0.
    9000005    1    3    3    0    0 -0.19228063347E+02  0.57966688370E+02 -0.23469010359E+03  0.24250835058E+03  0.10000000000E+01 0.  0.
    9000005    1    3    3    0    0  0.19228063347E+02 -0.57966688370E+02 -0.14915447731E+03  0.16117665303E+03  0.10000000000E+01 0.  0.
<mgrwt>
<rscale>  0 0.12499968E+03</rscale>
<asrwt>0</asrwt>
<pdfrwt beam="2">  1        4 0.60579187E-01 0.12499968E+03</pdfrwt>
<pdfrwt beam="1">  1       -4 0.15261867E-02 0.12499968E+03</pdfrwt>
<totfact> 0.64196421E+03</totfact>
</mgrwt>
</event>
<event>
 5    1  0.3317939E-002  0.1249995E+03  0.7818608E-02  0.1235070E+00
         -4   -1    0    0    0  501 -0.00000000000E+00  0.00000000000E+00  0.24919149708E+02  0.24951491382E+02  0.12700000000E+01 0.  1.
          4   -1    0    0  501    0  0.00000000000E+00 -0.00000000000E+00 -0.15661899975E+03  0.15662414879E+03  0.12700000000E+01 0.  1.
         25    2    1    2    0    0  0.00000000000E+00  0.00000000000E+00 -0.13169985005E+03  0.18157564017E+03  0.12499945040E+03 0.  0.
    9000005    1    3    3    0    0 -0.32984876634E+02 -0.51573206297E+02 -0.84075305983E+02  0.10400699385E+03  0.10000000000E+01 0.  0.
    9000005    1    3    3    0    0  0.32984876634E+02  0.51573206297E+02 -0.47624544064E+02  0.77568646318E+02  0.10000000000E+01 0.  0.
<mgrwt>
<rscale>  0 0.12499945E+03</rscale>
<asrwt>0</asrwt>
<pdfrwt beam="2">  1        4 0.24098114E-01 0.12499945E+03</pdfrwt>
<pdfrwt beam="1">  1       -4 0.38365993E-02 0.12499945E+03</pdfrwt>
<totfact> 0.93335300E+03</totfact>
</mgrwt>
</event>
<event>
 5    1  0.3317939E-002  0.1249984E+03  0.7818608E-02  0.1235072E+00
          4   -1    0    0  501    0  0.00000000000E+00  0.00000000000E+00  0.18118987543E+02  0.18163441568E+02  0.12700000000E+01 0.  1.
         -4   -1    0    0    0  501 -0.00000000000E+00 -0.00000000000E+00 -0.21527262836E+03  0.21527637450E+03  0.12700000000E+01 0.  1.
         25    2    1    2    0    0  0.00000000000E+00  0.00000000000E+00 -0.19715364081E+03  0.23343981607E+03  0.12499835856E+03 0.  0.
    9000005    1    3    3    0    0  0.39179383694E+02  0.19026393142E+02 -0.18226524976E+03  0.18739970388E+03  0.10000000000E+01 0.  0.
    9000005    1    3    3    0    0 -0.39179383694E+02 -0.19026393142E+02 -0.14888391050E+02  0.46040112192E+02  0.10000000000E+01 0.  0.
<mgrwt>
<rscale>  0 0.12499836E+03</rscale>
<asrwt>0</asrwt>
<pdfrwt beam="1">  1        4 0.27912444E-02 0.12499836E+03</pdfrwt>
<pdfrwt beam="2">  1       -4 0.33122572E-01 0.12499836E+03</pdfrwt>
<totfact> 0.84787299E+03</totfact>
</mgrwt>
</event>
<event>
 5    1  0.3317939E-002  0.1250034E+03  0.7818608E-02  0.1235064E+00
          4   -1    0    0  501    0  0.00000000000E+00  0.00000000000E+00  0.43526917921E+01  0.45341841424E+01  0.12700000000E+01 0.  1.
         -4   -1    0    0    0  501 -0.00000000000E+00 -0.00000000000E+00 -0.87897168484E+03  0.87897260233E+03  0.12700000000E+01 0.  1.
         25    2    1    2    0    0  0.00000000000E+00  0.00000000000E+00 -0.87461899304E+03  0.88350678647E+03  0.12500343494E+03 0.  0.
    9000005    1    3    3    0    0  0.19130867746E+02  0.40721322958E+02 -0.13075265035E+03  0.13828041011E+03  0.10000000000E+01 0.  0.
    9000005    1    3    3    0    0 -0.19130867746E+02 -0.40721322958E+02 -0.74386634269E+03  0.74522637637E+03  0.10000000000E+01 0.  0.
<mgrwt>
<rscale>  0 0.12500343E+03</rscale>
<asrwt>0</asrwt>
<pdfrwt beam="1">  1        4 0.68367712E-03 0.12500343E+03</pdfrwt>
<pdfrwt beam="2">  1       -4 0.13524031E+00 0.12500343E+03</pdfrwt>
<totfact> 0.34791440E+03</totfact>
</mgrwt>
</event>
<event>
 5    1  0.3317939E-002  0.1249972E+03  0.7818608E-02  0.1235074E+00
         -4   -1    0    0    0  501 -0.00000000000E+00  0.00000000000E+00  0.34752585131E+02  0.34775782857E+02  0.12700000000E+01 0.  1.
          4   -1    0    0  501    0  0.00000000000E+00 -0.00000000000E+00 -0.11233234591E+03  0.11233952483E+03  0.12700000000E+01 0.  1.
         25    2    1    2    0    0  0.00000000000E+00  0.00000000000E+00 -0.77579760781E+02  0.14711530768E+03  0.12499717785E+03 0.  0.
    9000005    1    3    3    0    0  0.16099937567E+02 -0.59010918765E+02 -0.23737024570E+02  0.65619683469E+02  0.10000000000E+01 0.  0.
    9000005    1    3    3    0    0 -0.16099937567E+02  0.59010918765E+02 -0.53842736211E+02  0.81495624213E+02  0.10000000000E+01 0.  0.
<mgrwt>
<rscale>  0 0.12499718E+03</rscale>
<asrwt>0</asrwt>
<pdfrwt beam="2">  1        4 0.17284236E-01 0.12499718E+03</pdfrwt>
<pdfrwt beam="1">  1       -4 0.53488883E-02 0.12499718E+03</pdfrwt>
<totfact> 0.99888204E+03</totfact>
</mgrwt>
</event>
<event>
 5    1  0.3317939E-002  0.1249998E+03  0.7818608E-02  0.1235070E+00
          4   -1    0    0  501    0  0.00000000000E+00  0.00000000000E+00  0.39147920317E+02  0.39168514973E+02  0.12700000000E+01 0. -1.
         -4   -1    0    0    0  501 -0.00000000000E+00 -0.00000000000E+00 -0.99730679932E+02  0.99738765883E+02  0.12700000000E+01 0. -1.
         25    2    1    2    0    0  0.00000000000E+00  0.00000000000E+00 -0.60582759615E+02  0.13890728086E+03  0.12499984765E+03 0.  0.
    9000005    1    3    3    0    0 -0.44799398589E+02 -0.13522568448E+02 -0.76316775801E+02  0.89527069873E+02  0.10000000000E+01 0.  0.
    9000005    1    3    3    0    0  0.44799398589E+02  0.13522568448E+02  0.15734016186E+02  0.49380210983E+02  0.10000000000E+01 0.  0.
<mgrwt>
<rscale>  0 0.12499985E+03</rscale>
<asrwt>0</asrwt>
<pdfrwt beam="1">  1        4 0.60249632E-02 0.12499985E+03</pdfrwt>
<pdfrwt beam="2">  1       -4 0.15345388E-01 0.12499985E+03</pdfrwt>
<totfact> 0.10156318E+04</totfact>
</mgrwt>
</event>
<event>
 5    1  0.3317939E-002  0.1249983E+03  0.7818608E-02  0.1235072E+00
          4   -1    0    0  501    0  0.00000000000E+00  0.00000000000E+00  0.18719428287E+03  0.18719859091E+03  0.12700000000E+01 0. -1.
         -4   -1    0    0    0  501 -0.00000000000E+00 -0.00000000000E+00 -0.20842898375E+02  0.20881554365E+02  0.12700000000E+01 0. -1.
         25    2    1    2    0    0  0.00000000000E+00  0.00000000000E+00  0.16635138449E+03  0.20808014527E+03  0.12499825493E+03 0.  0.
    9000005    1    3    3    0    0  0.37525205290E+02  0.24051621213E+02  0.10261882266E+02  0.45748527219E+02  0.10000000000E+01 0.  0.
    9000005    1    3    3    0    0 -0.37525205290E+02 -0.24051621213E+02  0.15608950223E+03  0.16233161805E+03  0.10000000000E+01 0.  0.
<mgrwt>
<rscale>  0 0.12499825E+03</rscale>
<asrwt>0</asrwt>
<pdfrwt beam="1">  1        4 0.28802425E-01 0.12499825E+03</pdfrwt>
<pdfrwt beam="2">  1       -4 0.32099047E-02 0.12499825E+03</pdfrwt>
<totfact> 0.88793846E+03</totfact>
</mgrwt>
</event>
<event>
 5    1  0.3317939E-002  0.1249975E+03  0.7818608E-02  0.1235073E+00
         -4   -1    0    0    0  501 -0.00000000000E+00  0.00000000000E+00  0.34538963844E+03  0.34539197333E+03  0.12700000000E+01 0.  1.
          4   -1    0    0  501    0  0.00000000000E+00 -0.00000000000E+00 -0.11271211069E+02  0.11342534944E+02  0.12700000000E+01 0.  1.
         25    2    1    2    0    0  0.00000000000E+00  0.00000000000E+00  0.33411842737E+03  0.35673450828E+03  0.12499754352E+03 0.  0.
    9000005    1    3    3    0    0  0.31451697697E+02 -0.39850297224E+02  0.27105522447E+03  0.27577017639E+03  0.10000000000E+01 0.  0.
    9000005    1    3    3    0    0 -0.31451697697E+02  0.39850297224E+02  0.63063202905E+02  0.80964331884E+02  0.10000000000E+01 0.  0.
<mgrwt>
<rscale>  0 0.12499754E+03</rscale>
<asrwt>0</asrwt>
<pdfrwt beam="2">  1        4 0.17396989E-02 0.12499754E+03</pdfrwt>
<pdfrwt beam="1">  1       -4 0.53142523E-01 0.12499754E+03</pdfrwt>
<totfact> 0.68993731E+03</totfact>
</mgrwt>
</event>
<event>
 5    1  0.3317939E-002  0.1249970E+03  0.7818608E-02  0.1235074E+00
         -4   -1    0    0    0  501 -0.00000000000E+00  0.00000000000E+00  0.64196325021E+01  0.65440493169E+01  0.12700000000E+01 0.  1.
          4   -1    0    0  501    0  0.00000000000E+00 -0.00000000000E+00 -0.60249093021E+03  0.60249226874E+03  0.12700000000E+01 0.  1.
         25    2    1    2    0    0  0.00000000000E+00  0.00000000000E+00 -0.59607129771E+03  0.60903631806E+03  0.12499697898E+03 0.  0.
    9000005    1    3    3    0    0  0.33790266079E+02  0.98717936728E+01 -0.54960610605E+03  0.55073324414E+03  0.10000000000E+01 0.  0.
    9000005    1    3    3    0    0 -0.33790266079E+02 -0.98717936728E+01 -0.46465191662E+02  0.58303073917E+02  0.10000000000E+01 0.  0.
<mgrwt>
<rscale>  0 0.12499698E+03</rscale>
<asrwt>0</asrwt>
<pdfrwt beam="2">  1        4 0.92700541E-01 0.12499698E+03</pdfrwt>
<pdfrwt beam="1">  1       -4 0.99730974E-03 0.12499698E+03</pdfrwt>
<totfact> 0.48305351E+03</totfact>
</mgrwt>
</event>
<event>
 5    1  0.3317939E-002  0.1250245E+03  0.7818608E-02  0.1235031E+00
         -4   -1    0    0    0  501 -0.00000000000E+00  0.00000000000E+00  0.98358762616E+02  0.98366961341E+02  0.12700000000E+01 0. -1.
          4   -1    0    0  501    0  0.00000000000E+00 -0.00000000000E+00 -0.39709855720E+02  0.39730159090E+02  0.12700000000E+01 0. -1.
         25    2    1    2    0    0  0.00000000000E+00  0.00000000000E+00  0.58648906896E+02  0.13809712043E+03  0.12502447917E+03 0.  0.
    9000005    1    3    3    0    0  0.40050827629E+02  0.46282870228E+02  0.15326256122E+02  0.63103621109E+02  0.10000000000E+01 0.  0.
    9000005    1    3    3    0    0 -0.40050827629E+02 -0.46282870228E+02  0.43322650774E+02  0.74993499321E+02  0.10000000000E+01 0.  0.
<mgrwt>
<rscale>  0 0.12502448E+03</rscale>
<asrwt>0</asrwt>
<pdfrwt beam="2">  1        4 0.61114011E-02 0.12502448E+03</pdfrwt>
<pdfrwt beam="1">  1       -4 0.15134310E-01 0.12502448E+03</pdfrwt>
<totfact> 0.10167568E+04</totfact>
</mgrwt>
</event>
<event>
 5    1  0.3317939E-002  0.1250011E+03  0.7818608E-02  0.1235068E+00
          4   -1    0    0  501    0  0.00000000000E+00  0.00000000000E+00  0.74374923345E+03  0.74375031775E+03  0.12700000000E+01 0.  1.
         -4   -1    0    0    0  501 -0.00000000000E+00 -0.00000000000E+00 -0.51743243228E+01  0.53279012939E+01  0.12700000000E+01 0.  1.
         25    2    1    2    0    0  0.00000000000E+00  0.00000000000E+00  0.73857490913E+03  0.74907821904E+03  0.12500112743E+03 0.  0.
    9000005    1    3    3    0    0  0.46819797059E+02 -0.28562287276E+02  0.54880702152E+03  0.55154151659E+03  0.10000000000E+01 0.  0.
    9000005    1    3    3    0    0 -0.46819797059E+02  0.28562287276E+02  0.18976788761E+03  0.19753670246E+03  0.10000000000E+01 0.  0.
<mgrwt>
<rscale>  0 0.12500113E+03</rscale>
<asrwt>0</asrwt>
<pdfrwt beam="1">  1        4 0.11443489E+00 0.12500113E+03</pdfrwt>
<pdfrwt beam="2">  1       -4 0.80794669E-03 0.12500113E+03</pdfrwt>
<totfact> 0.40617250E+03</totfact>
</mgrwt>
</event>
<event>
 5    1  0.3317939E-002  0.1249969E+03  0.7818608E-02  0.1235074E+00
         -4   -1    0    0    0  501 -0.00000000000E+00  0.00000000000E+00  0.17658758937E+03  0.17659215617E+03  0.12700000000E+01 0. -1.
          4   -1    0    0  501    0  0.00000000000E+00 -0.00000000000E+00 -0.22096555241E+02  0.22133021789E+02  0.12700000000E+01 0. -1.
         25    2    1    2    0    0  0.00000000000E+00  0.00000000000E+00  0.15449103413E+03  0.19872517796E+03  0.12499686687E+03 0.  0.
    9000005    1    3    3    0    0  0.51015139315E+02  0.25789474070E+02  0.11738429512E+03  0.13056689532E+03  0.10000000000E+01 0.  0.
    9000005    1    3    3    0    0 -0.51015139315E+02 -0.25789474070E+02  0.37106739006E+02  0.68158282635E+02  0.10000000000E+01 0.  0.
<mgrwt>
<rscale>  0 0.12499687E+03</rscale>
<asrwt>0</asrwt>
<pdfrwt beam="2">  1        4 0.34026265E-02 0.12499687E+03</pdfrwt>
<pdfrwt beam="1">  1       -4 0.27170477E-01 0.12499687E+03</pdfrwt>
<totfact> 0.90357270E+03</totfact>
</mgrwt>
</event>
<event>
 5    1  0.3317939E-002  0.1249994E+03  0.7818608E-02  0.1235070E+00
          4   -1    0    0  501    0  0.00000000000E+00  0.00000000000E+00  0.27092165987E+02  0.27121916560E+02  0.12700000000E+01 0. -1.
         -4   -1    0    0    0  501 -0.00000000000E+00 -0.00000000000E+00 -0.14407078223E+03  0.14407637972E+03  0.12700000000E+01 0. -1.
         25    2    1    2    0    0  0.00000000000E+00  0.00000000000E+00 -0.11697861624E+03  0.17119829628E+03  0.12499943996E+03 0.  0.
    9000005    1    3    3    0    0  0.27406016774E+01 -0.53028460831E+02 -0.13361568770E+02  0.54763674782E+02  0.10000000000E+01 0.  0.
    9000005    1    3    3    0    0 -0.27406016774E+01  0.53028460831E+02 -0.10361704747E+03  0.11643462150E+03  0.10000000000E+01 0.  0.
<mgrwt>
<rscale>  0 0.12499944E+03</rscale>
<asrwt>0</asrwt>
<pdfrwt beam="1">  1        4 0.41707447E-02 0.12499944E+03</pdfrwt>
<pdfrwt beam="2">  1       -4 0.22167454E-01 0.12499944E+03</pdfrwt>
<totfact> 0.95226958E+03</totfact>
</mgrwt>
</event>
<event>
 5    1  0.3317939E-002  0.1249961E+03  0.7818608E-02  0.1235075E+00
         -4   -1    0    0    0  501 -0.00000000000E+00  0.00000000000E+00  0.17599024650E+03  0.17599482880E+03  0.12700000000E+01 0.  1.
          4   -1    0    0  501    0  0.00000000000E+00 -0.00000000000E+00 -0.22171408250E+02  0.22207751885E+02  0.12700000000E+01 0.  1.
         25    2    1    2    0    0  0.00000000000E+00  0.00000000000E+00  0.15381883825E+03  0.19820258068E+03  0.12499611189E+03 0.  0.
    9000005    1    3    3    0    0 -0.14510725348E+02  0.15460912860E+01  0.17325835183E+03  0.17387469059E+03  0.10000000000E+01 0.  0.
    9000005    1    3    3    0    0  0.14510725348E+02 -0.15460912860E+01 -0.19439513577E+02  0.24327890096E+02  0.10000000000E+01 0.  0.
<mgrwt>
<rscale>  0 0.12499611E+03</rscale>
<asrwt>0</asrwt>
<pdfrwt beam="2">  1        4 0.34141341E-02 0.12499611E+03</pdfrwt>
<pdfrwt beam="1">  1       -4 0.27078570E-01 0.12499611E+03</pdfrwt>
<totfact> 0.90447226E+03</totfact>
</mgrwt>
</event>
<event>
 5    1  0.3317939E-002  0.1249730E+03  0.7818608E-02  0.1235112E+00
          4   -1    0    0  501    0  0.00000000000E+00  0.00000000000E+00  0.10994695528E+04  0.10994702863E+04  0.12700000000E+01 0. -1.
         -4   -1    0    0    0  501 -0.00000000000E+00 -0.00000000000E+00 -0.34370133384E+01  0.36641452875E+01  0.12700000000E+01 0. -1.
         25    2    1    2    0    0  0.00000000000E+00  0.00000000000E+00  0.10960325394E+04  0.11031344315E+04  0.12497298337E+03 0.  0.
    9000005    1    3    3    0    0  0.32850453571E+02 -0.52009120769E+02  0.64449350076E+03  0.64742333405E+03  0.10000000000E+01 0.  0.
    9000005    1    3    3    0    0 -0.32850453571E+02  0.52009120769E+02  0.45153903867E+03  0.45571109750E+03  0.10000000000E+01 0.  0.
<mgrwt>
<rscale>  0 0.12497298E+03</rscale>
<asrwt>0</asrwt>
<pdfrwt beam="1">  1        4 0.16916660E+00 0.12497298E+03</pdfrwt>
<pdfrwt beam="2">  1       -4 0.54629969E-03 0.12497298E+03</pdfrwt>
<totfact> 0.27407999E+03</totfact>
</mgrwt>
</event>
<event>
 5    1  0.3317939E-002  0.1249985E+03  0.7818608E-02  0.1235072E+00
          4   -1    0    0  501    0  0.00000000000E+00  0.00000000000E+00  0.17768526788E+03  0.17768980646E+03  0.12700000000E+01 0. -1.
         -4   -1    0    0    0  501 -0.00000000000E+00 -0.00000000000E+00 -0.21960394327E+02  0.21997086603E+02  0.12700000000E+01 0. -1.
         25    2    1    2    0    0  0.00000000000E+00  0.00000000000E+00  0.15572487355E+03  0.19968689306E+03  0.12499847607E+03 0.  0.
    9000005    1    3    3    0    0  0.46879496429E+02  0.39780256288E+02  0.60001767569E+02  0.85914888624E+02  0.10000000000E+01 0.  0.
    9000005    1    3    3    0    0 -0.46879496429E+02 -0.39780256288E+02  0.95723105980E+02  0.11377200444E+03  0.10000000000E+01 0.  0.
<mgrwt>
<rscale>  0 0.12499848E+03</rscale>
<asrwt>0</asrwt>
<pdfrwt beam="1">  1        4 0.27339366E-01 0.12499848E+03</pdfrwt>
<pdfrwt beam="2">  1       -4 0.33816939E-02 0.12499848E+03</pdfrwt>
<totfact> 0.90191417E+03</totfact>
</mgrwt>
</event>
<event>
 5    1  0.3317939E-002  0.1250024E+03  0.7818608E-02  0.1235066E+00
          4   -1    0    0  501    0  0.00000000000E+00  0.00000000000E+00  0.12917855578E+03  0.12918479854E+03  0.12700000000E+01 0. -1.
         -4   -1    0    0    0  501 -0.00000000000E+00 -0.00000000000E+00 -0.30219999520E+02  0.30246673718E+02  0.12700000000E+01 0. -1.
         25    2    1    2    0    0  0.00000000000E+00  0.00000000000E+00  0.98958556263E+02  0.15943147226E+03  0.12500239393E+03 0.  0.
    9000005    1    3    3    0    0  0.52687465857E+02  0.33059395112E+02  0.57185536290E+02  0.84498983570E+02  0.10000000000E+01 0.  0.
    9000005    1    3    3    0    0 -0.52687465857E+02 -0.33059395112E+02  0.41773019973E+02  0.74932488689E+02  0.10000000000E+01 0.  0.
<mgrwt>
<rscale>  0 0.12500239E+03</rscale>
<asrwt>0</asrwt>
<pdfrwt beam="1">  1        4 0.19876156E-01 0.12500239E+03</pdfrwt>
<pdfrwt beam="2">  1       -4 0.46517628E-02 0.12500239E+03</pdfrwt>
<totfact> 0.97447260E+03</totfact>
</mgrwt>
</event>
<event>
 5    1  0.3317939E-002  0.1250014E+03  0.7818608E-02  0.1235067E+00
         -4   -1    0    0    0  501 -0.00000000000E+00  0.00000000000E+00  0.33200630777E+02  0.33224912099E+02  0.12700000000E+01 0.  1.
          4   -1    0    0  501    0  0.00000000000E+00 -0.00000000000E+00 -0.11758779103E+03  0.11759464911E+03  0.12700000000E+01 0.  1.
         25    2    1    2    0    0  0.00000000000E+00  0.00000000000E+00 -0.84387160249E+02  0.15081956121E+03  0.12500138890E+03 0.  0.
    9000005    1    3    3    0    0  0.46447543966E+01  0.55744309157E+02 -0.75811236544E+02  0.94219665321E+02  0.10000000000E+01 0.  0.
    9000005    1    3    3    0    0 -0.46447543966E+01 -0.55744309157E+02 -0.85759237042E+01  0.56599895885E+02  0.10000000000E+01 0.  0.
<mgrwt>
<rscale>  0 0.12500139E+03</rscale>
<asrwt>0</asrwt>
<pdfrwt beam="2">  1        4 0.18092825E-01 0.12500139E+03</pdfrwt>
<pdfrwt beam="1">  1       -4 0.51101847E-02 0.12500139E+03</pdfrwt>
<totfact> 0.99137483E+03</totfact>
</mgrwt>
</event>
<event>
 5    1  0.3317939E-002  0.1249997E+03  0.7818608E-02  0.1235070E+00
         -4   -1    0    0    0  501 -0.00000000000E+00  0.00000000000E+00  0.17183537058E+02  0.17230404691E+02  0.12700000000E+01 0.  1.
          4   -1    0    0  501    0  0.00000000000E+00 -0.00000000000E+00 -0.22696579021E+03  0.22696934336E+03  0.12700000000E+01 0.  1.
         25    2    1    2    0    0  0.00000000000E+00  0.00000000000E+00 -0.20978225315E+03  0.24419974806E+03  0.12499969285E+03 0.  0.
    9000005    1    3    3    0    0  0.12686593416E+01  0.61011578081E+02 -0.13118930841E+03  0.14469159201E+03  0.10000000000E+01 0.  0.
    9000005    1    3    3    0    0 -0.12686593416E+01 -0.61011578081E+02 -0.78592944747E+02  0.99508156050E+02  0.10000000000E+01 0.  0.
<mgrwt>
<rscale>  0 0.12499969E+03</rscale>
<asrwt>0</asrwt>
<pdfrwt beam="2">  1        4 0.34921690E-01 0.12499969E+03</pdfrwt>
<pdfrwt beam="1">  1       -4 0.26474998E-02 0.12499969E+03</pdfrwt>
<totfact> 0.83176409E+03</totfact>
</mgrwt>
</event>
<event>
 5    1  0.3317939E-002  0.1249997E+03  0.7818608E-02  0.1235070E+00
          4   -1    0    0  501    0  0.00000000000E+00  0.00000000000E+00  0.52412604244E+02  0.52427988553E+02  0.12700000000E+01 0.  1.
         -4   -1    0    0    0  501 -0.00000000000E+00 -0.00000000000E+00 -0.74496717020E+02  0.74507541542E+02  0.12700000000E+01 0.  1.
         25    2    1    2    0    0  0.00000000000E+00  0.00000000000E+00 -0.22084112775E+02  0.12693553010E+03  0.12499968305E+03 0.  0.
    9000005    1    3    3    0    0 -0.51015948195E+02 -0.14187260266E+02  0.22658107415E+02  0.57604645262E+02  0.10000000000E+01 0.  0.
    9000005    1    3    3    0    0  0.51015948195E+02  0.14187260266E+02 -0.44742220191E+02  0.69330884833E+02  0.10000000000E+01 0.  0.
<mgrwt>
<rscale>  0 0.12499968E+03</rscale>
<asrwt>0</asrwt>
<pdfrwt beam="1">  1        4 0.80654936E-02 0.12499968E+03</pdfrwt>
<pdfrwt beam="2">  1       -4 0.11463049E-01 0.12499968E+03</pdfrwt>
<totfact> 0.10410621E+04</totfact>
</mgrwt>
</event>
<event>
 5    1  0.3317939E-002  0.1249993E+03  0.7818608E-02  0.1235070E+00
          4   -1    0    0  501    0  0.00000000000E+00  0.00000000000E+00  0.40519485953E+03  0.40519684980E+03  0.12700000000E+01 0.  1.
         -4   -1    0    0    0  501 -0.00000000000E+00 -0.00000000000E+00 -0.95964682783E+01  0.96801396383E+01  0.12700000000E+01 0.  1.
         25    2    1    2    0    0  0.00000000000E+00  0.00000000000E+00  0.39559839125E+03  0.41487698944E+03  0.12499931682E+03 0.  0.
    9000005    1    3    3    0    0 -0.50823855363E+02 -0.34612436477E+02  0.16082177945E+03  0.17217935352E+03  0.10000000000E+01 0.  0.
    9000005    1    3    3    0    0  0.50823855363E+02  0.34612436477E+02  0.23477661180E+03  0.24269763592E+03  0.10000000000E+01 0.  0.
<mgrwt>
<rscale>  0 0.12499932E+03</rscale>
<asrwt>0</asrwt>
<pdfrwt beam="1">  1        4 0.62344263E-01 0.12499932E+03</pdfrwt>
<pdfrwt beam="2">  1       -4 0.14829690E-02 0.12499932E+03</pdfrwt>
<totfact> 0.63132088E+03</totfact>
</mgrwt>
</event>
<event>
 5    1  0.3317939E-002  0.1250049E+03  0.7818608E-02  0.1235062E+00
          4   -1    0    0  501    0  0.00000000000E+00  0.00000000000E+00  0.44490361109E+02  0.44508483816E+02  0.12700000000E+01 0.  1.
         -4   -1    0    0    0  501 -0.00000000000E+00 -0.00000000000E+00 -0.87766247068E+02  0.87775435199E+02  0.12700000000E+01 0.  1.
         25    2    1    2    0    0  0.00000000000E+00  0.00000000000E+00 -0.43275885958E+02  0.13228391902E+03  0.12500493160E+03 0.  0.
    9000005    1    3    3    0    0  0.38805719459E+02 -0.18470593146E+02 -0.69650690683E+02  0.81849040229E+02  0.10000000000E+01 0.  0.
    9000005    1    3    3    0    0 -0.38805719459E+02  0.18470593146E+02  0.26374804724E+02  0.50434878786E+02  0.10000000000E+01 0.  0.
<mgrwt>
<rscale>  0 0.12500493E+03</rscale>
<asrwt>0</asrwt>
<pdfrwt beam="1">  1        4 0.68467718E-02 0.12500493E+03</pdfrwt>
<pdfrwt beam="2">  1       -4 0.13504600E-01 0.12500493E+03</pdfrwt>
<totfact> 0.10294497E+04</totfact>
</mgrwt>
</event>
<event>
 5    1  0.3317939E-002  0.1249826E+03  0.7818608E-02  0.1235097E+00
          4   -1    0    0  501    0  0.00000000000E+00  0.00000000000E+00  0.47004127203E+01  0.48689608482E+01  0.12700000000E+01 0.  1.
         -4   -1    0    0    0  501 -0.00000000000E+00 -0.00000000000E+00 -0.81600990828E+03  0.81601089656E+03  0.12700000000E+01 0.  1.
         25    2    1    2    0    0  0.00000000000E+00  0.00000000000E+00 -0.81130949556E+03  0.82087985741E+03  0.12498256966E+03 0.  0.
    9000005    1    3    3    0    0 -0.15517626692E+01 -0.37865027293E+02 -0.79366027661E+02  0.87955298908E+02  0.10000000000E+01 0.  0.
    9000005    1    3    3    0    0  0.15517626692E+01  0.37865027293E+02 -0.73194346790E+03  0.73292455850E+03  0.10000000000E+01 0.  0.
<mgrwt>
<rscale>  0 0.12498257E+03</rscale>
<asrwt>0</asrwt>
<pdfrwt beam="1">  1        4 0.73618233E-03 0.12498257E+03</pdfrwt>
<pdfrwt beam="2">  1       -4 0.12555292E+00 0.12498257E+03</pdfrwt>
<totfact> 0.37363675E+03</totfact>
</mgrwt>
</event>
<event>
 5    1  0.3317939E-002  0.1250060E+03  0.7818608E-02  0.1235060E+00
         -4   -1    0    0    0  501 -0.00000000000E+00  0.00000000000E+00  0.83887831535E+03  0.83887927669E+03  0.12700000000E+01 0. -1.
          4   -1    0    0  501    0  0.00000000000E+00 -0.00000000000E+00 -0.45693962844E+01  0.47426029144E+01  0.12700000000E+01 0. -1.
         25    2    1    2    0    0  0.00000000000E+00  0.00000000000E+00  0.83430891907E+03  0.84362187961E+03  0.12500601313E+03 0.  0.
    9000005    1    3    3    0    0 -0.34698868812E+02 -0.24030827150E+01  0.76755433960E+03  0.76834266479E+03  0.10000000000E+01 0.  0.
    9000005    1    3    3    0    0  0.34698868812E+02  0.24030827150E+01  0.66754579469E+02  0.75279214817E+02  0.10000000000E+01 0.  0.
<mgrwt>
<rscale>  0 0.12500601E+03</rscale>
<asrwt>0</asrwt>
<pdfrwt beam="2">  1        4 0.71638209E-03 0.12500601E+03</pdfrwt>
<pdfrwt beam="1">  1       -4 0.12907151E+00 0.12500601E+03</pdfrwt>
<totfact> 0.36384999E+03</totfact>
</mgrwt>
</event>
<event>
 5    1  0.3317939E-002  0.1250003E+03  0.7818608E-02  0.1235069E+00
          4   -1    0    0  501    0  0.00000000000E+00  0.00000000000E+00  0.95895019696E+02  0.95903429044E+02  0.12700000000E+01 0. -1.
         -4   -1    0    0    0  501 -0.00000000000E+00 -0.00000000000E+00 -0.40714747137E+02  0.40734549641E+02  0.12700000000E+01 0. -1.
         25    2    1    2    0    0  0.00000000000E+00  0.00000000000E+00  0.55180272559E+02  0.13663797869E+03  0.12500029896E+03 0.  0.
    9000005    1    3    3    0    0 -0.42882373111E+02  0.44270449795E+02  0.16309562850E+02  0.63763410268E+02  0.10000000000E+01 0.  0.
    9000005    1    3    3    0    0  0.42882373111E+02 -0.44270449795E+02  0.38870709709E+02  0.72874568417E+02  0.10000000000E+01 0.  0.
<mgrwt>
<rscale>  0 0.12500030E+03</rscale>
<asrwt>0</asrwt>
<pdfrwt beam="1">  1        4 0.14755250E-01 0.12500030E+03</pdfrwt>
<pdfrwt beam="2">  1       -4 0.62659774E-02 0.12500030E+03</pdfrwt>
<totfact> 0.10203592E+04</totfact>
</mgrwt>
</event>
<event>
 5    1  0.3317939E-002  0.1250039E+03  0.7818608E-02  0.1235063E+00
         -4   -1    0    0    0  501 -0.00000000000E+00  0.00000000000E+00  0.27574045510E+02  0.27603276722E+02  0.12700000000E+01 0. -1.
          4   -1    0    0  501    0  0.00000000000E+00 -0.00000000000E+00 -0.14156570486E+03  0.14157140140E+03  0.12700000000E+01 0. -1.
         25    2    1    2    0    0  0.00000000000E+00  0.00000000000E+00 -0.11399165935E+03  0.16917467812E+03  0.12500389320E+03 0.  0.
    9000005    1    3    3    0    0 -0.48524718466E+02 -0.24981535675E+02 -0.15795820614E+02  0.56826344030E+02  0.10000000000E+01 0.  0.
    9000005    1    3    3    0    0  0.48524718466E+02  0.24981535675E+02 -0.98195838740E+02  0.11234833409E+03  0.10000000000E+01 0.  0.
<mgrwt>
<rscale>  0 0.12500389E+03</rscale>
<asrwt>0</asrwt>
<pdfrwt beam="2">  1        4 0.21782026E-01 0.12500389E+03</pdfrwt>
<pdfrwt beam="1">  1       -4 0.42448477E-02 0.12500389E+03</pdfrwt>
<totfact> 0.95594207E+03</totfact>
</mgrwt>
</event>
<event>
 5    1  0.3317939E-002  0.1250069E+03  0.7818608E-02  0.1235059E+00
         -4   -1    0    0    0  501 -0.00000000000E+00  0.00000000000E+00  0.58362085303E+02  0.58375901714E+02  0.12700000000E+01 0. -1.
          4   -1    0    0  501    0  0.00000000000E+00 -0.00000000000E+00 -0.66910901159E+02  0.66922952669E+02  0.12700000000E+01 0. -1.
         25    2    1    2    0    0  0.00000000000E+00  0.00000000000E+00 -0.85488158559E+01  0.12529885438E+03  0.12500688244E+03 0.  0.
    9000005    1    3    3    0    0  0.43281273387E+02 -0.42532940209E+02  0.10705750171E+02  0.61627369857E+02  0.10000000000E+01 0.  0.
    9000005    1    3    3    0    0 -0.43281273387E+02  0.42532940209E+02 -0.19254566027E+02  0.63671484526E+02  0.10000000000E+01 0.  0.
<mgrwt>
<rscale>  0 0.12500688E+03</rscale>
<asrwt>0</asrwt>
<pdfrwt beam="2">  1        4 0.10295975E-01 0.12500688E+03</pdfrwt>
<pdfrwt beam="1">  1       -4 0.89807722E-02 0.12500688E+03</pdfrwt>
<totfact> 0.10444750E+04</totfact>
</mgrwt>
</event>
<event>
 5    1  0.3317939E-002  0.1249965E+03  0.7818608E-02  0.1235075E+00
          4   -1    0    0  501    0  0.00000000000E+00  0.00000000000E+00  0.12316466173E+02  0.12381770431E+02  0.12700000000E+01 0. -1.
         -4   -1    0    0    0  501 -0.00000000000E+00 -0.00000000000E+00 -0.31623402463E+03  0.31623657479E+03  0.12700000000E+01 0. -1.
         25    2    1    2    0    0  0.00000000000E+00  0.00000000000E+00 -0.30391755846E+03  0.32861834522E+03  0.12499653786E+03 0.  0.
    9000005    1    3    3    0    0 -0.11379780259E+02  0.79196639760E+01 -0.31215245497E+03  0.31246179866E+03  0.10000000000E+01 0.  0.
    9000005    1    3    3    0    0  0.11379780259E+02 -0.79196639760E+01  0.82348965130E+01  0.16156546562E+02  0.10000000000E+01 0.  0.
<mgrwt>
<rscale>  0 0.12499654E+03</rscale>
<asrwt>0</asrwt>
<pdfrwt beam="1">  1        4 0.19000608E-02 0.12499654E+03</pdfrwt>
<pdfrwt beam="2">  1       -4 0.48656602E-01 0.12499654E+03</pdfrwt>
<totfact> 0.72148215E+03</totfact>
</mgrwt>
</event>
<event>
 5    1  0.3317939E-002  0.1250058E+03  0.7818608E-02  0.1235060E+00
          4   -1    0    0  501    0  0.00000000000E+00  0.00000000000E+00  0.47144474170E+02  0.47161576996E+02  0.12700000000E+01 0. -1.
         -4   -1    0    0    0  501 -0.00000000000E+00 -0.00000000000E+00 -0.82827643304E+02  0.82837379216E+02  0.12700000000E+01 0. -1.
         25    2    1    2    0    0  0.00000000000E+00  0.00000000000E+00 -0.35683169134E+02  0.12999895621E+03  0.12500576009E+03 0.  0.
    9000005    1    3    3    0    0 -0.13563682728E+02  0.44734961050E+02  0.25293142487E+02  0.53159507956E+02  0.10000000000E+01 0.  0.
    9000005    1    3    3    0    0  0.13563682728E+02 -0.44734961050E+02 -0.60976311622E+02  0.76839448256E+02  0.10000000000E+01 0.  0.
<mgrwt>
<rscale>  0 0.12500576E+03</rscale>
<asrwt>0</asrwt>
<pdfrwt beam="1">  1        4 0.72550605E-02 0.12500576E+03</pdfrwt>
<pdfrwt beam="2">  1       -4 0.12744779E-01 0.12500576E+03</pdfrwt>
<totfact> 0.10343185E+04</totfact>
</mgrwt>
</event>
<event>
 5    1  0.3317939E-002  0.1249976E+03  0.7818608E-02  0.1235073E+00
          4   -1    0    0  501    0  0.00000000000E+00  0.00000000000E+00  0.10625464900E+03  0.10626223852E+03  0.12700000000E+01 0. -1.
         -4   -1    0    0    0  501 -0.00000000000E+00 -0.00000000000E+00 -0.36741795036E+02  0.36763737602E+02  0.12700000000E+01 0. -1.
         25    2    1    2    0    0  0.00000000000E+00  0.00000000000E+00  0.69512853969E+02  0.14302597612E+03  0.12499757189E+03 0.  0.
    9000005    1    3    3    0    0 -0.20762973715E+02  0.10364695566E+02  0.10114711731E+03  0.10377989850E+03  0.10000000000E+01 0.  0.
    9000005    1    3    3    0    0  0.20762973715E+02 -0.10364695566E+02 -0.31634263342E+02  0.39246077624E+02  0.10000000000E+01 0.  0.
<mgrwt>
<rscale>  0 0.12499757E+03</rscale>
<asrwt>0</asrwt>
<pdfrwt beam="1">  1        4 0.16349141E-01 0.12499757E+03</pdfrwt>
<pdfrwt beam="2">  1       -4 0.56548555E-02 0.12499757E+03</pdfrwt>
<totfact> 0.10071802E+04</totfact>
</mgrwt>
</event>
<event>
 5    1  0.3317939E-002  0.1249919E+03  0.7818608E-02  0.1235082E+00
          4   -1    0    0  501    0  0.00000000000E+00  0.00000000000E+00  0.28422433948E+02  0.28450793513E+02  0.12700000000E+01 0.  1.
         -4   -1    0    0    0  501 -0.00000000000E+00 -0.00000000000E+00 -0.13731787976E+03  0.13732375250E+03  0.12700000000E+01 0.  1.
         25    2    1    2    0    0  0.00000000000E+00  0.00000000000E+00 -0.10889544581E+03  0.16577454602E+03  0.12499192769E+03 0.  0.
    9000005    1    3    3    0    0  0.16182114949E+02 -0.60074250913E+02 -0.62177686622E+02  0.87964999747E+02  0.10000000000E+01 0.  0.
    9000005    1    3    3    0    0 -0.16182114949E+02  0.60074250913E+02 -0.46717759189E+02  0.77809546269E+02  0.10000000000E+01 0.  0.
<mgrwt>
<rscale>  0 0.12499193E+03</rscale>
<asrwt>0</asrwt>
<pdfrwt beam="1">  1        4 0.43753155E-02 0.12499193E+03</pdfrwt>
<pdfrwt beam="2">  1       -4 0.21128461E-01 0.12499193E+03</pdfrwt>
<totfact> 0.96258360E+03</totfact>
</mgrwt>
</event>
<event>
 5    1  0.3317939E-002  0.1250041E+03  0.7818608E-02  0.1235063E+00
          4   -1    0    0  501    0  0.00000000000E+00  0.00000000000E+00  0.42826597585E+02  0.42845424035E+02  0.12700000000E+01 0.  1.
         -4   -1    0    0    0  501 -0.00000000000E+00 -0.00000000000E+00 -0.91173555354E+02  0.91182400143E+02  0.12700000000E+01 0.  1.
         25    2    1    2    0    0  0.00000000000E+00  0.00000000000E+00 -0.48346957768E+02  0.13402782418E+03  0.12500411725E+03 0.  0.
    9000005    1    3    3    0    0  0.52502740950E+02 -0.11306618762E+01 -0.60496600268E+02  0.80116507959E+02  0.10000000000E+01 0.  0.
    9000005    1    3    3    0    0 -0.52502740950E+02  0.11306618762E+01  0.12149642500E+02  0.53911316219E+02  0.10000000000E+01 0.  0.
<mgrwt>
<rscale>  0 0.12500412E+03</rscale>
<asrwt>0</asrwt>
<pdfrwt beam="1">  1        4 0.65908359E-02 0.12500412E+03</pdfrwt>
<pdfrwt beam="2">  1       -4 0.14028829E-01 0.12500412E+03</pdfrwt>
<totfact> 0.10257650E+04</totfact>
</mgrwt>
</event>
<event>
 5    1  0.3317939E-002  0.1249976E+03  0.7818608E-02  0.1235073E+00
          4   -1    0    0  501    0  0.00000000000E+00  0.00000000000E+00  0.10913601585E+03  0.10914340500E+03  0.12700000000E+01 0.  1.
         -4   -1    0    0    0  501 -0.00000000000E+00 -0.00000000000E+00 -0.35771238317E+02  0.35793775865E+02  0.12700000000E+01 0.  1.
         25    2    1    2    0    0  0.00000000000E+00  0.00000000000E+00  0.73364777530E+02  0.14493718087E+03  0.12499758324E+03 0.  0.
    9000005    1    3    3    0    0 -0.25968812802E+02 -0.19132137082E+02 -0.25378262789E+02  0.41054526302E+02  0.10000000000E+01 0.  0.
    9000005    1    3    3    0    0  0.25968812802E+02  0.19132137082E+02  0.98743040319E+02  0.10388265456E+03  0.10000000000E+01 0.  0.
<mgrwt>
<rscale>  0 0.12499758E+03</rscale>
<asrwt>0</asrwt>
<pdfrwt beam="1">  1        4 0.16792458E-01 0.12499758E+03</pdfrwt>
<pdfrwt beam="2">  1       -4 0.55055695E-02 0.12499758E+03</pdfrwt>
<totfact> 0.10032811E+04</totfact>
</mgrwt>
</event>
<event>
 5    1  0.3317939E-002  0.1249971E+03  0.7818608E-02  0.1235074E+00
          4   -1    0    0  501    0  0.00000000000E+00  0.00000000000E+00  0.46195822660E+01  0.47909748812E+01  0.12700000000E+01 0. -1.
         -4   -1    0    0    0  501 -0.00000000000E+00 -0.00000000000E+00 -0.82997385427E+03  0.82997482593E+03  0.12700000000E+01 0. -1.
         25    2    1    2    0    0  0.00000000000E+00  0.00000000000E+00 -0.82535427200E+03  0.83476580081E+03  0.12499707150E+03 0.  0.
    9000005    1    3    3    0    0  0.30368255479E+02  0.49884326091E+02 -0.26418629509E+03  0.27056621268E+03  0.10000000000E+01 0.  0.
    9000005    1    3    3    0    0 -0.30368255479E+02 -0.49884326091E+02 -0.56116797692E+03  0.56419958813E+03  0.10000000000E+01 0.  0.
<mgrwt>
<rscale>  0 0.12499707E+03</rscale>
<asrwt>0</asrwt>
<pdfrwt beam="1">  1        4 0.72396442E-03 0.12499707E+03</pdfrwt>
<pdfrwt beam="2">  1       -4 0.12770143E+00 0.12499707E+03</pdfrwt>
<totfact> 0.36761340E+03</totfact>
</mgrwt>
</event>
<event>
 5    1  0.3317939E-002  0.1249926E+03  0.7818608E-02  0.1235081E+00
         -4   -1    0    0    0  501 -0.00000000000E+00  0.00000000000E+00  0.45380552386E+02  0.45398319736E+02  0.12700000000E+01 0. -1.
          4   -1    0    0  501    0  0.00000000000E+00 -0.00000000000E+00 -0.86028103912E+02  0.86037477663E+02  0.12700000000E+01 0. -1.
         25    2    1    2    0    0  0.00000000000E+00  0.00000000000E+00 -0.40647551526E+02  0.13143579740E+03  0.12499258135E+03 0.  0.
    9000005    1    3    3    0    0  0.15483665942E+01  0.29857362423E+02 -0.78024269187E+02  0.83562228981E+02  0.10000000000E+01 0.  0.
    9000005    1    3    3    0    0 -0.15483665942E+01 -0.29857362423E+02  0.37376717662E+02  0.47873568419E+02  0.10000000000E+01 0.  0.
<mgrwt>
<rscale>  0 0.12499258E+03</rscale>
<asrwt>0</asrwt>
<pdfrwt beam="2">  1        4 0.13237181E-01 0.12499258E+03</pdfrwt>
<pdfrwt beam="1">  1       -4 0.69837112E-02 0.12499258E+03</pdfrwt>
<totfact> 0.10315482E+04</totfact>
</mgrwt>
</event>
<event>
 5    1  0.3317939E-002  0.1250009E+03  0.7818608E-02  0.1235068E+00
          4   -1    0    0  501    0  0.00000000000E+00  0.00000000000E+00  0.62691345408E+02  0.62704207905E+02  0.12700000000E+01 0.  1.
         -4   -1    0    0    0  501 -0.00000000000E+00 -0.00000000000E+00 -0.62284386155E+02  0.62297332677E+02  0.12700000000E+01 0.  1.
         25    2    1    2    0    0  0.00000000000E+00  0.00000000000E+00  0.40695925254E+00  0.12500154058E+03  0.12500087813E+03 0.  0.
    9000005    1    3    3    0    0 -0.14293344215E+02 -0.59305376426E+02 -0.13356736823E+02  0.62456623191E+02  0.10000000000E+01 0.  0.
    9000005    1    3    3    0    0  0.14293344215E+02  0.59305376426E+02  0.13763696076E+02  0.62544917392E+02  0.10000000000E+01 0.  0.
<mgrwt>
<rscale>  0 0.12500088E+03</rscale>
<asrwt>0</asrwt>
<pdfrwt beam="1">  1        4 0.96468076E-02 0.12500088E+03</pdfrwt>
<pdfrwt beam="2">  1       -4 0.95841986E-02 0.12500088E+03</pdfrwt>
<totfact> 0.10452622E+04</totfact>
</mgrwt>
</event>
<event>
 5    1  0.3317939E-002  0.1250007E+03  0.7818608E-02  0.1235068E+00
         -4   -1    0    0    0  501 -0.00000000000E+00  0.00000000000E+00  0.28894191088E+03  0.28894470191E+03  0.12700000000E+01 0. -1.
          4   -1    0    0  501    0  0.00000000000E+00 -0.00000000000E+00 -0.13486613218E+02  0.13546277573E+02  0.12700000000E+01 0. -1.
         25    2    1    2    0    0  0.00000000000E+00  0.00000000000E+00  0.27545529766E+03  0.30249097948E+03  0.12500068664E+03 0.  0.
    9000005    1    3    3    0    0 -0.35334477813E+02  0.12562792216E+02  0.25869781522E+03  0.26140372734E+03  0.10000000000E+01 0.  0.
    9000005    1    3    3    0    0  0.35334477813E+02 -0.12562792216E+02  0.16757482444E+02  0.41087252140E+02  0.10000000000E+01 0.  0.
<mgrwt>
<rscale>  0 0.12500069E+03</rscale>
<asrwt>0</asrwt>
<pdfrwt beam="2">  1        4 0.20796679E-02 0.12500069E+03</pdfrwt>
<pdfrwt beam="1">  1       -4 0.44457405E-01 0.12500069E+03</pdfrwt>
<totfact> 0.75286285E+03</totfact>
</mgrwt>
</event>
<event>
 5    1  0.3317939E-002  0.1250046E+03  0.7818608E-02  0.1235062E+00
          4   -1    0    0  501    0  0.00000000000E+00  0.00000000000E+00  0.95343229141E+01  0.96185348900E+01  0.12700000000E+01 0. -1.
         -4   -1    0    0    0  501 -0.00000000000E+00 -0.00000000000E+00 -0.40784715656E+03  0.40784913388E+03  0.12700000000E+01 0. -1.
         25    2    1    2    0    0  0.00000000000E+00  0.00000000000E+00 -0.39831283364E+03  0.41746766877E+03  0.12500456403E+03 0.  0.
    9000005    1    3    3    0    0 -0.26418173679E+02 -0.55041738842E+02 -0.24371529331E+03  0.25124819821E+03  0.10000000000E+01 0.  0.
    9000005    1    3    3    0    0  0.26418173679E+02  0.55041738842E+02 -0.15459754034E+03  0.16621947056E+03  0.10000000000E+01 0.  0.
<mgrwt>
<rscale>  0 0.12500456E+03</rscale>
<asrwt>0</asrwt>
<pdfrwt beam="1">  1        4 0.14734492E-02 0.12500456E+03</pdfrwt>
<pdfrwt beam="2">  1       -4 0.62752333E-01 0.12500456E+03</pdfrwt>
<totfact> 0.62882310E+03</totfact>
</mgrwt>
</event>
<event>
 5    1  0.3317939E-002  0.1249943E+03  0.7818608E-02  0.1235078E+00
          4   -1    0    0  501    0  0.00000000000E+00  0.00000000000E+00  0.18305757413E+02  0.18349758976E+02  0.12700000000E+01 0. -1.
         -4   -1    0    0    0  501 -0.00000000000E+00 -0.00000000000E+00 -0.21306763498E+03  0.21307141989E+03  0.12700000000E+01 0. -1.
         25    2    1    2    0    0  0.00000000000E+00  0.00000000000E+00 -0.19476187756E+03  0.23142117887E+03  0.12499429217E+03 0.  0.
    9000005    1    3    3    0    0 -0.39582891860E+02 -0.28261357607E+02 -0.17002269725E+03  0.17684520701E+03  0.10000000000E+01 0.  0.
    9000005    1    3    3    0    0  0.39582891860E+02  0.28261357607E+02 -0.24739180315E+02  0.54575971860E+02  0.10000000000E+01 0.  0.
<mgrwt>
<rscale>  0 0.12499429E+03</rscale>
<asrwt>0</asrwt>
<pdfrwt beam="1">  1        4 0.28199464E-02 0.12499429E+03</pdfrwt>
<pdfrwt beam="2">  1       -4 0.32783310E-01 0.12499429E+03</pdfrwt>
<totfact> 0.85102687E+03</totfact>
</mgrwt>
</event>
<event>
 5    1  0.3317939E-002  0.1249993E+03  0.7818608E-02  0.1235070E+00
          4   -1    0    0  501    0  0.00000000000E+00  0.00000000000E+00  0.33645152491E+02  0.33669113237E+02  0.12700000000E+01 0. -1.
         -4   -1    0    0    0  501 -0.00000000000E+00 -0.00000000000E+00 -0.11603144216E+03  0.11603839222E+03  0.12700000000E+01 0. -1.
         25    2    1    2    0    0  0.00000000000E+00  0.00000000000E+00 -0.82386289664E+02  0.14970750546E+03  0.12499934586E+03 0.  0.
    9000005    1    3    3    0    0 -0.38629601939E+01 -0.60494687351E+02 -0.59383462938E+02  0.84864158098E+02  0.10000000000E+01 0.  0.
    9000005    1    3    3    0    0  0.38629601939E+01  0.60494687351E+02 -0.23002826726E+02  0.64843347358E+02  0.10000000000E+01 0.  0.
<mgrwt>
<rscale>  0 0.12499935E+03</rscale>
<asrwt>0</asrwt>
<pdfrwt beam="1">  1        4 0.51785551E-02 0.12499935E+03</pdfrwt>
<pdfrwt beam="2">  1       -4 0.17853369E-01 0.12499935E+03</pdfrwt>
<totfact> 0.99363497E+03</totfact>
</mgrwt>
</event>
<event>
 5    1  0.3317939E-002  0.1250046E+03  0.7818608E-02  0.1235062E+00
         -4   -1    0    0    0  501 -0.00000000000E+00  0.00000000000E+00  0.32111891034E+02  0.32136994972E+02  0.12700000000E+01 0.  1.
          4   -1    0    0  501    0  0.00000000000E+00 -0.00000000000E+00 -0.12157802417E+03  0.12158465718E+03  0.12700000000E+01 0.  1.
         25    2    1    2    0    0  0.00000000000E+00  0.00000000000E+00 -0.89466133139E+02  0.15372165215E+03  0.12500462936E+03 0.  0.
    9000005    1    3    3    0    0  0.38136043514E+02 -0.47827125901E+02 -0.60469139397E+02  0.86019233932E+02  0.10000000000E+01 0.  0.
    9000005    1    3    3    0    0 -0.38136043514E+02  0.47827125901E+02 -0.28996993742E+02  0.67702418221E+02  0.10000000000E+01 0.  0.
<mgrwt>
<rscale>  0 0.12500463E+03</rscale>
<asrwt>0</asrwt>
<pdfrwt beam="2">  1        4 0.18706752E-01 0.12500463E+03</pdfrwt>
<pdfrwt beam="1">  1       -4 0.49427323E-02 0.12500463E+03</pdfrwt>
<totfact> 0.98556684E+03</totfact>
</mgrwt>
</event>
<event>
 5    1  0.3317939E-002  0.1250055E+03  0.7818608E-02  0.1235061E+00
          4   -1    0    0  501    0  0.00000000000E+00  0.00000000000E+00  0.22374080323E+02  0.22410095276E+02  0.12700000000E+01 0.  1.
         -4   -1    0    0    0  501 -0.00000000000E+00 -0.00000000000E+00 -0.17442490413E+03  0.17442952754E+03  0.12700000000E+01 0.  1.
         25    2    1    2    0    0  0.00000000000E+00  0.00000000000E+00 -0.15205082380E+03  0.19683962282E+03  0.12500553625E+03 0.  0.
    9000005    1    3    3    0    0 -0.40932990548E+02  0.15321318625E+02 -0.14636375154E+03  0.15275339696E+03  0.10000000000E+01 0.  0.
    9000005    1    3    3    0    0  0.40932990548E+02 -0.15321318625E+02 -0.56870722677E+01  0.44086225860E+02  0.10000000000E+01 0.  0.
<mgrwt>
<rscale>  0 0.12500554E+03</rscale>
<asrwt>0</asrwt>
<pdfrwt beam="1">  1        4 0.34452923E-02 0.12500554E+03</pdfrwt>
<pdfrwt beam="2">  1       -4 0.26837726E-01 0.12500554E+03</pdfrwt>
<totfact> 0.90659438E+03</totfact>
</mgrwt>
</event>
<event>
 5    1  0.3317939E-002  0.1249984E+03  0.7818608E-02  0.1235072E+00
         -4   -1    0    0    0  501 -0.00000000000E+00  0.00000000000E+00  0.19744370362E+03  0.19744778803E+03  0.12700000000E+01 0.  1.
          4   -1    0    0  501    0  0.00000000000E+00 -0.00000000000E+00 -0.19758936260E+02  0.19799708638E+02  0.12700000000E+01 0.  1.
         25    2    1    2    0    0  0.00000000000E+00  0.00000000000E+00  0.17768476736E+03  0.21724749667E+03  0.12499839302E+03 0.  0.
    9000005    1    3    3    0    0 -0.11808264817E+02  0.13605276037E+02 -0.15156557174E+02  0.23563952966E+02  0.10000000000E+01 0.  0.
    9000005    1    3    3    0    0  0.11808264817E+02 -0.13605276037E+02  0.19284132453E+03  0.19368354370E+03  0.10000000000E+01 0.  0.
<mgrwt>
<rscale>  0 0.12499839E+03</rscale>
<asrwt>0</asrwt>
<pdfrwt beam="2">  1        4 0.30432869E-02 0.12499839E+03</pdfrwt>
<pdfrwt beam="1">  1       -4 0.30379405E-01 0.12499839E+03</pdfrwt>
<totfact> 0.87308914E+03</totfact>
</mgrwt>
</event>
<event>
 5    1  0.3317939E-002  0.1250009E+03  0.7818608E-02  0.1235068E+00
         -4   -1    0    0    0  501 -0.00000000000E+00  0.00000000000E+00  0.12036581982E+04  0.12036588682E+04  0.12700000000E+01 0.  1.
          4   -1    0    0  501    0  0.00000000000E+00 -0.00000000000E+00 -0.31204163937E+01  0.33689610372E+01  0.12700000000E+01 0.  1.
         25    2    1    2    0    0  0.00000000000E+00  0.00000000000E+00  0.12005377818E+04  0.12070278292E+04  0.12500086002E+03 0.  0.
    9000005    1    3    3    0    0 -0.30590504431E+02 -0.53142097757E+02  0.71672158869E+03  0.71934045987E+03  0.10000000000E+01 0.  0.
    9000005    1    3    3    0    0  0.30590504431E+02  0.53142097757E+02  0.48381619311E+03  0.48768736936E+03  0.10000000000E+01 0.  0.
<mgrwt>
<rscale>  0 0.12500086E+03</rscale>
<asrwt>0</asrwt>
<pdfrwt beam="2">  1        4 0.49923490E-03 0.12500086E+03</pdfrwt>
<pdfrwt beam="1">  1       -4 0.18519718E+00 0.12500086E+03</pdfrwt>
<totfact> 0.24529103E+03</totfact>
</mgrwt>
</event>
<event>
 5    1  0.3317939E-002  0.1249928E+03  0.7818608E-02  0.1235081E+00
          4   -1    0    0  501    0  0.00000000000E+00  0.00000000000E+00  0.78287296200E+02  0.78297596683E+02  0.12700000000E+01 0.  1.
         -4   -1    0    0    0  501 -0.00000000000E+00 -0.00000000000E+00 -0.49868921268E+02  0.49885090041E+02  0.12700000000E+01 0.  1.
         25    2    1    2    0    0  0.00000000000E+00  0.00000000000E+00  0.28418374932E+02  0.12818268672E+03  0.12499278836E+03 0.  0.
    9000005    1    3    3    0    0  0.42346035549E+02  0.21435166275E+02  0.55893116933E+02  0.73332759395E+02  0.10000000000E+01 0.  0.
    9000005    1    3    3    0    0 -0.42346035549E+02 -0.21435166275E+02 -0.27474742001E+02  0.54849927329E+02  0.10000000000E+01 0.  0.
<mgrwt>
<rscale>  0 0.12499279E+03</rscale>
<asrwt>0</asrwt>
<pdfrwt beam="1">  1        4 0.12046235E-01 0.12499279E+03</pdfrwt>
<pdfrwt beam="2">  1       -4 0.76741779E-02 0.12499279E+03</pdfrwt>
<totfact> 0.10385235E+04</totfact>
</mgrwt>
</event>
<event>
 5    1  0.3317939E-002  0.1249991E+03  0.7818608E-02  0.1235071E+00
          4   -1    0    0  501    0  0.00000000000E+00  0.00000000000E+00  0.25637085580E+03  0.25637400142E+03  0.12700000000E+01 0. -1.
         -4   -1    0    0    0  501 -0.00000000000E+00 -0.00000000000E+00 -0.15206796037E+02  0.15259736096E+02  0.12700000000E+01 0. -1.
         25    2    1    2    0    0  0.00000000000E+00  0.00000000000E+00  0.24116405977E+03  0.27163373752E+03  0.12499913454E+03 0.  0.
    9000005    1    3    3    0    0  0.22614029995E+01 -0.42377954367E+02  0.20899448189E+02  0.47315873600E+02  0.10000000000E+01 0.  0.
    9000005    1    3    3    0    0 -0.22614029995E+01  0.42377954367E+02  0.22026461158E+03  0.22431786392E+03  0.10000000000E+01 0.  0.
<mgrwt>
<rscale>  0 0.12499913E+03</rscale>
<asrwt>0</asrwt>
<pdfrwt beam="1">  1        4 0.39445986E-01 0.12499913E+03</pdfrwt>
<pdfrwt beam="2">  1       -4 0.23438213E-02 0.12499913E+03</pdfrwt>
<totfact> 0.79302175E+03</totfact>
</mgrwt>
</event>
<event>
 5    1  0.3317939E-002  0.1250004E+03  0.7818608E-02  0.1235069E+00
          4   -1    0    0  501    0  0.00000000000E+00  0.00000000000E+00  0.15126950402E+03  0.15127483514E+03  0.12700000000E+01 0. -1.
         -4   -1    0    0    0  501 -0.00000000000E+00 -0.00000000000E+00 -0.25801895312E+02  0.25833131860E+02  0.12700000000E+01 0. -1.
         25    2    1    2    0    0  0.00000000000E+00  0.00000000000E+00  0.12546760871E+03  0.17710796700E+03  0.12500044456E+03 0.  0.
    9000005    1    3    3    0    0  0.22007655716E+02 -0.39057712682E+02  0.12441902146E+03  0.13225329761E+03  0.10000000000E+01 0.  0.
    9000005    1    3    3    0    0 -0.22007655716E+02  0.39057712682E+02  0.10485872507E+01  0.44854669382E+02  0.10000000000E+01 0.  0.
<mgrwt>
<rscale>  0 0.12500044E+03</rscale>
<asrwt>0</asrwt>
<pdfrwt beam="1">  1        4 0.23275044E-01 0.12500044E+03</pdfrwt>
<pdfrwt beam="2">  1       -4 0.39723353E-02 0.12500044E+03</pdfrwt>
<totfact> 0.94139245E+03</totfact>
</mgrwt>
</event>
<event>
 5    1  0.3317939E-002  0.1249974E+03  0.7818608E-02  0.1235073E+00
         -4   -1    0    0    0  501 -0.00000000000E+00  0.00000000000E+00  0.71551612383E+01  0.72669961020E+01  0.12700000000E+01 0.  1.
          4   -1    0    0  501    0  0.00000000000E+00 -0.00000000000E+00 -0.54156605903E+03  0.54156754814E+03  0.12700000000E+01 0.  1.
         25    2    1    2    0    0  0.00000000000E+00  0.00000000000E+00 -0.53441089779E+03  0.54883454424E+03  0.12499739705E+03 0.  0.
    9000005    1    3    3    0    0  0.46986462416E+02 -0.17018163942E+01 -0.44794640560E+03  0.45040826604E+03  0.10000000000E+01 0.  0.
    9000005    1    3    3    0    0 -0.46986462416E+02  0.17018163942E+01 -0.86464492197E+02  0.98426278200E+02  0.10000000000E+01 0.  0.
<mgrwt>
<rscale>  0 0.12499740E+03</rscale>
<asrwt>0</asrwt>
<pdfrwt beam="2">  1        4 0.83326540E-01 0.12499740E+03</pdfrwt>
<pdfrwt beam="1">  1       -4 0.11095117E-02 0.12499740E+03</pdfrwt>
<totfact> 0.52268259E+03</totfact>
</mgrwt>
</event>
<event>
 5    1  0.3317939E-002  0.1249965E+03  0.7818608E-02  0.1235075E+00
         -4   -1    0    0    0  501 -0.00000000000E+00  0.00000000000E+00  0.78551539313E+01  0.79571567337E+01  0.12700000000E+01 0.  1.
          4   -1    0    0  501    0  0.00000000000E+00 -0.00000000000E+00 -0.49394657494E+03  0.49394820760E+03  0.12700000000E+01 0.  1.
         25    2    1    2    0    0  0.00000000000E+00  0.00000000000E+00 -0.48609142101E+03  0.50190536434E+03  0.12499650064E+03 0.  0.
    9000005    1    3    3    0    0  0.36390905227E+02 -0.42001593740E+02 -0.12830209776E+03  0.13982439040E+03  0.10000000000E+01 0.  0.
    9000005    1    3    3    0    0 -0.36390905227E+02  0.42001593740E+02 -0.35778932324E+03  0.36208097394E+03  0.10000000000E+01 0.  0.
<mgrwt>
<rscale>  0 0.12499650E+03</rscale>
<asrwt>0</asrwt>
<pdfrwt beam="2">  1        4 0.75999728E-01 0.12499650E+03</pdfrwt>
<pdfrwt beam="1">  1       -4 0.12164576E-02 0.12499650E+03</pdfrwt>
<totfact> 0.55721134E+03</totfact>
</mgrwt>
</event>
<event>
 5    1  0.3317939E-002  0.1250243E+03  0.7818608E-02  0.1235031E+00
         -4   -1    0    0    0  501 -0.00000000000E+00  0.00000000000E+00  0.11437483576E+03  0.11438188648E+03  0.12700000000E+01 0.  1.
          4   -1    0    0  501    0  0.00000000000E+00 -0.00000000000E+00 -0.34146426750E+02  0.34170035994E+02  0.12700000000E+01 0.  1.
         25    2    1    2    0    0  0.00000000000E+00  0.00000000000E+00  0.80228409005E+02  0.14855192247E+03  0.12502430187E+03 0.  0.
    9000005    1    3    3    0    0 -0.32914576493E+02 -0.52711084529E+02  0.32148827287E+02  0.69974101451E+02  0.10000000000E+01 0.  0.
    9000005    1    3    3    0    0  0.32914576493E+02  0.52711084529E+02  0.48079581718E+02  0.78577821019E+02  0.10000000000E+01 0.  0.
<mgrwt>
<rscale>  0 0.12502430E+03</rscale>
<asrwt>0</asrwt>
<pdfrwt beam="2">  1        4 0.52556549E-02 0.12502430E+03</pdfrwt>
<pdfrwt beam="1">  1       -4 0.17598487E-01 0.12502430E+03</pdfrwt>
<totfact> 0.99538677E+03</totfact>
</mgrwt>
</event>
<event>
 5    1  0.3317939E-002  0.1249998E+03  0.7818608E-02  0.1235070E+00
          4   -1    0    0  501    0  0.00000000000E+00  0.00000000000E+00  0.92492133382E+01  0.93359973959E+01  0.12700000000E+01 0.  1.
         -4   -1    0    0    0  501 -0.00000000000E+00 -0.00000000000E+00 -0.42027183459E+03  0.42027375347E+03  0.12700000000E+01 0.  1.
         25    2    1    2    0    0  0.00000000000E+00  0.00000000000E+00 -0.41102262126E+03  0.42960975086E+03  0.12499977141E+03 0.  0.
    9000005    1    3    3    0    0 -0.44750699474E+01 -0.41865914152E+02 -0.36422150287E+03  0.36664844766E+03  0.10000000000E+01 0.  0.
    9000005    1    3    3    0    0  0.44750699474E+01  0.41865914152E+02 -0.46801118387E+02  0.62961303203E+02  0.10000000000E+01 0.  0.
<mgrwt>
<rscale>  0 0.12499977E+03</rscale>
<asrwt>0</asrwt>
<pdfrwt beam="1">  1        4 0.14297795E-02 0.12499977E+03</pdfrwt>
<pdfrwt beam="2">  1       -4 0.64664014E-01 0.12499977E+03</pdfrwt>
<totfact> 0.61771699E+03</totfact>
</mgrwt>
</event>
<event>
 5    1  0.3317939E-002  0.1250010E+03  0.7818608E-02  0.1235068E+00
          4   -1    0    0  501    0  0.00000000000E+00  0.00000000000E+00  0.62125196810E+02  0.62138176500E+02  0.12700000000E+01 0. -1.
         -4   -1    0    0    0  501 -0.00000000000E+00 -0.00000000000E+00 -0.62852091072E+02  0.62864920680E+02  0.12700000000E+01 0. -1.
         25    2    1    2    0    0  0.00000000000E+00  0.00000000000E+00 -0.72689426137E+00  0.12500309718E+03  0.12500098371E+03 0.  0.
    9000005    1    3    3    0    0 -0.30476789886E+02  0.53321300261E+02 -0.11909884122E+02  0.62568691237E+02  0.10000000000E+01 0.  0.
    9000005    1    3    3    0    0  0.30476789886E+02 -0.53321300261E+02  0.11182989861E+02  0.62434405943E+02  0.10000000000E+01 0.  0.
<mgrwt>
<rscale>  0 0.12500098E+03</rscale>
<asrwt>0</asrwt>
<pdfrwt beam="1">  1        4 0.95597079E-02 0.12500098E+03</pdfrwt>
<pdfrwt beam="2">  1       -4 0.96715379E-02 0.12500098E+03</pdfrwt>
<totfact> 0.10452563E+04</totfact>
</mgrwt>
</event>
<event>
 5    1  0.3317939E-002  0.1250006E+03  0.7818608E-02  0.1235068E+00
         -4   -1    0    0    0  501 -0.00000000000E+00  0.00000000000E+00  0.41037527861E+02  0.41057174683E+02  0.12700000000E+01 0. -1.
          4   -1    0    0  501    0  0.00000000000E+00 -0.00000000000E+00 -0.95141523896E+02  0.95149999838E+02  0.12700000000E+01 0. -1.
         25    2    1    2    0    0  0.00000000000E+00  0.00000000000E+00 -0.54103996035E+02  0.13620717452E+03  0.12500060801E+03 0.  0.
    9000005    1    3    3    0    0  0.14364070216E+02  0.37334919780E+02 -0.79367388425E+02  0.88884222973E+02  0.10000000000E+01 0.  0.
    9000005    1    3    3    0    0 -0.14364070216E+02 -0.37334919780E+02  0.25263392390E+02  0.47322951548E+02  0.10000000000E+01 0.  0.
<mgrwt>
<rscale>  0 0.12500061E+03</rscale>
<asrwt>0</asrwt>
<pdfrwt beam="2">  1        4 0.14639321E-01 0.12500061E+03</pdfrwt>
<pdfrwt beam="1">  1       -4 0.63156292E-02 0.12500061E+03</pdfrwt>
<totfact> 0.10212549E+04</totfact>
</mgrwt>
</event>
<event>
 5    1  0.3317939E-002  0.1250010E+03  0.7818608E-02  0.1235068E+00
          4   -1    0    0  501    0  0.00000000000E+00  0.00000000000E+00  0.41121795641E+03  0.41121991753E+03  0.12700000000E+01 0. -1.
         -4   -1    0    0    0  501 -0.00000000000E+00 -0.00000000000E+00 -0.94549255664E+01  0.95398384402E+01  0.12700000000E+01 0. -1.
         25    2    1    2    0    0  0.00000000000E+00  0.00000000000E+00  0.40176303085E+03  0.42075975597E+03  0.12500095717E+03 0.  0.
    9000005    1    3    3    0    0  0.19465653456E+02  0.58938897036E+02  0.22529515975E+03  0.23369127980E+03  0.10000000000E+01 0.  0.
    9000005    1    3    3    0    0 -0.19465653456E+02 -0.58938897036E+02  0.17646787110E+03  0.18706847617E+03  0.10000000000E+01 0.  0.
<mgrwt>
<rscale>  0 0.12500096E+03</rscale>
<asrwt>0</asrwt>
<pdfrwt beam="1">  1        4 0.63270993E-01 0.12500096E+03</pdfrwt>
<pdfrwt beam="2">  1       -4 0.14612863E-02 0.12500096E+03</pdfrwt>
<totfact> 0.62581259E+03</totfact>
</mgrwt>
</event>
<event>
 5    1  0.3317939E-002  0.1250345E+03  0.7818608E-02  0.1235015E+00
          4   -1    0    0  501    0  0.00000000000E+00  0.00000000000E+00  0.28520203701E+01  0.31220057962E+01  0.12700000000E+01 0.  1.
         -4   -1    0    0    0  501 -0.00000000000E+00 -0.00000000000E+00 -0.13081954033E+04  0.13081960198E+04  0.12700000000E+01 0.  1.
         25    2    1    2    0    0  0.00000000000E+00  0.00000000000E+00 -0.13053433829E+04  0.13113180256E+04  0.12503446241E+03 0.  0.
    9000005    1    3    3    0    0  0.14052229640E+02  0.72948254334E+01 -0.18474339456E+02  0.24351198210E+02  0.10000000000E+01 0.  0.
    9000005    1    3    3    0    0 -0.14052229640E+02 -0.72948254334E+01 -0.12868690435E+04  0.12869668273E+04  0.10000000000E+01 0.  0.
<mgrwt>
<rscale>  0 0.12503446E+03</rscale>
<asrwt>0</asrwt>
<pdfrwt beam="1">  1        4 0.45958894E-03 0.12503446E+03</pdfrwt>
<pdfrwt beam="2">  1       -4 0.20128119E+00 0.12503446E+03</pdfrwt>
<totfact> 0.21946515E+03</totfact>
</mgrwt>
</event>
<event>
 5    1  0.3317939E-002  0.1249764E+03  0.7818608E-02  0.1235106E+00
          4   -1    0    0  501    0  0.00000000000E+00  0.00000000000E+00  0.76835677087E+02  0.76846172146E+02  0.12700000000E+01 0.  1.
         -4   -1    0    0    0  501 -0.00000000000E+00 -0.00000000000E+00 -0.50797895653E+02  0.50813768830E+02  0.12700000000E+01 0.  1.
         25    2    1    2    0    0  0.00000000000E+00  0.00000000000E+00  0.26037781434E+02  0.12765994098E+03  0.12497637564E+03 0.  0.
    9000005    1    3    3    0    0 -0.52149110097E+02  0.31143843193E+02  0.27972389827E+02  0.66879916607E+02  0.10000000000E+01 0.  0.
    9000005    1    3    3    0    0  0.52149110097E+02 -0.31143843193E+02 -0.19346083921E+01  0.60780024369E+02  0.10000000000E+01 0.  0.
<mgrwt>
<rscale>  0 0.12497638E+03</rscale>
<asrwt>0</asrwt>
<pdfrwt beam="1">  1        4 0.11822902E-01 0.12497638E+03</pdfrwt>
<pdfrwt beam="2">  1       -4 0.78170892E-02 0.12497638E+03</pdfrwt>
<totfact> 0.10400384E+04</totfact>
</mgrwt>
</event>
<event>
 5    1  0.3317939E-002  0.1250041E+03  0.7818608E-02  0.1235063E+00
         -4   -1    0    0    0  501 -0.00000000000E+00  0.00000000000E+00  0.38782652661E+03  0.38782860602E+03  0.12700000000E+01 0. -1.
          4   -1    0    0  501    0  0.00000000000E+00 -0.00000000000E+00 -0.10030679138E+02  0.10110757833E+02  0.12700000000E+01 0. -1.
         25    2    1    2    0    0  0.00000000000E+00  0.00000000000E+00  0.37779584748E+03  0.39793936385E+03  0.12500413966E+03 0.  0.
    9000005    1    3    3    0    0  0.37847839359E+02 -0.17807661991E+02  0.41085637220E+02  0.58639588637E+02  0.10000000000E+01 0.  0.
    9000005    1    3    3    0    0 -0.37847839359E+02  0.17807661991E+02  0.33671021026E+03  0.33929977521E+03  0.10000000000E+01 0.  0.
<mgrwt>
<rscale>  0 0.12500414E+03</rscale>
<asrwt>0</asrwt>
<pdfrwt beam="2">  1        4 0.15495012E-02 0.12500414E+03</pdfrwt>
<pdfrwt beam="1">  1       -4 0.59671941E-01 0.12500414E+03</pdfrwt>
<totfact> 0.64747778E+03</totfact>
</mgrwt>
</event>
<event>
 5    1  0.3317939E-002  0.1250086E+03  0.7818608E-02  0.1235056E+00
         -4   -1    0    0    0  501 -0.00000000000E+00  0.00000000000E+00  0.54709660637E+02  0.54724399193E+02  0.12700000000E+01 0.  1.
          4   -1    0    0  501    0  0.00000000000E+00 -0.00000000000E+00 -0.71379438845E+02  0.71390736022E+02  0.12700000000E+01 0.  1.
         25    2    1    2    0    0  0.00000000000E+00  0.00000000000E+00 -0.16669778208E+02  0.12611513522E+03  0.12500858300E+03 0.  0.
    9000005    1    3    3    0    0  0.21137335933E+02 -0.53920133433E+02 -0.32029351873E+02  0.66189479082E+02  0.10000000000E+01 0.  0.
    9000005    1    3    3    0    0 -0.21137335933E+02  0.53920133433E+02  0.15359573665E+02  0.59925656133E+02  0.10000000000E+01 0.  0.
<mgrwt>
<rscale>  0 0.12500858E+03</rscale>
<asrwt>0</asrwt>
<pdfrwt beam="2">  1        4 0.10983455E-01 0.12500858E+03</pdfrwt>
<pdfrwt beam="1">  1       -4 0.84188736E-02 0.12500858E+03</pdfrwt>
<totfact> 0.10426416E+04</totfact>
</mgrwt>
</event>
<event>
 5    1  0.3317939E-002  0.1250005E+03  0.7818608E-02  0.1235069E+00
         -4   -1    0    0    0  501 -0.00000000000E+00  0.00000000000E+00  0.33679657838E+01  0.35994573925E+01  0.12700000000E+01 0. -1.
          4   -1    0    0  501    0  0.00000000000E+00 -0.00000000000E+00 -0.11210663116E+04  0.11210670310E+04  0.12700000000E+01 0. -1.
         25    2    1    2    0    0  0.00000000000E+00  0.00000000000E+00 -0.11176983458E+04  0.11246664884E+04  0.12500047113E+03 0.  0.
    9000005    1    3    3    0    0 -0.40420110224E+02  0.40942523653E+02 -0.33934388548E+03  0.34418795471E+03  0.10000000000E+01 0.  0.
    9000005    1    3    3    0    0  0.40420110224E+02 -0.40942523653E+02 -0.77835446035E+03  0.78047853365E+03  0.10000000000E+01 0.  0.
<mgrwt>
<rscale>  0 0.12500047E+03</rscale>
<asrwt>0</asrwt>
<pdfrwt beam="2">  1        4 0.17248931E+00 0.12500047E+03</pdfrwt>
<pdfrwt beam="1">  1       -4 0.53601186E-03 0.12500047E+03</pdfrwt>
<totfact> 0.26772234E+03</totfact>
</mgrwt>
</event>
<event>
 5    1  0.3317939E-002  0.1250056E+03  0.7818608E-02  0.1235061E+00
         -4   -1    0    0    0  501 -0.00000000000E+00  0.00000000000E+00  0.12642609017E+03  0.12643246883E+03  0.12700000000E+01 0.  1.
          4   -1    0    0  501    0  0.00000000000E+00 -0.00000000000E+00 -0.30880032677E+02  0.30906137225E+02  0.12700000000E+01 0.  1.
         25    2    1    2    0    0  0.00000000000E+00  0.00000000000E+00  0.95546057489E+02  0.15733860606E+03  0.12500555129E+03 0.  0.
    9000005    1    3    3    0    0 -0.10914394183E+01 -0.59876239791E+02  0.25284255801E+02  0.65012682785E+02  0.10000000000E+01 0.  0.
    9000005    1    3    3    0    0  0.10914394183E+01  0.59876239791E+02  0.70261801688E+02  0.92325923272E+02  0.10000000000E+01 0.  0.
<mgrwt>
<rscale>  0 0.12500555E+03</rscale>
<asrwt>0</asrwt>
<pdfrwt beam="2">  1        4 0.47532730E-02 0.12500555E+03</pdfrwt>
<pdfrwt beam="1">  1       -4 0.19452666E-01 0.12500555E+03</pdfrwt>
<totfact> 0.97846135E+03</totfact>
</mgrwt>
</event>
<event>
 5    1  0.3317939E-002  0.1250004E+03  0.7818608E-02  0.1235069E+00
         -4   -1    0    0    0  501 -0.00000000000E+00  0.00000000000E+00  0.11879030132E+03  0.11879708998E+03  0.12700000000E+01 0. -1.
          4   -1    0    0  501    0  0.00000000000E+00 -0.00000000000E+00 -0.32863811144E+02  0.32888341139E+02  0.12700000000E+01 0. -1.
         25    2    1    2    0    0  0.00000000000E+00  0.00000000000E+00  0.85926490179E+02  0.15168543112E+03  0.12500043320E+03 0.  0.
    9000005    1    3    3    0    0  0.24209620831E+02 -0.25293659588E+02  0.10577650026E+03  0.11142505536E+03  0.10000000000E+01 0.  0.
    9000005    1    3    3    0    0 -0.24209620831E+02  0.25293659588E+02 -0.19850010077E+02  0.40260375759E+02  0.10000000000E+01 0.  0.
<mgrwt>
<rscale>  0 0.12500043E+03</rscale>
<asrwt>0</asrwt>
<pdfrwt beam="2">  1        4 0.50583801E-02 0.12500043E+03</pdfrwt>
<pdfrwt beam="1">  1       -4 0.18277840E-01 0.12500043E+03</pdfrwt>
<totfact> 0.98967823E+03</totfact>
</mgrwt>
</event>
<event>
 5    1  0.3317939E-002  0.1250029E+03  0.7818608E-02  0.1235065E+00
         -4   -1    0    0    0  501 -0.00000000000E+00  0.00000000000E+00  0.19720939833E+02  0.19761790604E+02  0.12700000000E+01 0.  1.
          4   -1    0    0  501    0  0.00000000000E+00 -0.00000000000E+00 -0.19783776311E+03  0.19784183939E+03  0.12700000000E+01 0.  1.
         25    2    1    2    0    0  0.00000000000E+00  0.00000000000E+00 -0.17811682328E+03  0.21760362999E+03  0.12500294817E+03 0.  0.
    9000005    1    3    3    0    0  0.37549357096E+01 -0.34433521872E+02  0.14904668794E+01  0.34684124066E+02  0.10000000000E+01 0.  0.
    9000005    1    3    3    0    0 -0.37549357096E+01  0.34433521872E+02 -0.17960729016E+03  0.18291950593E+03  0.10000000000E+01 0.  0.
<mgrwt>
<rscale>  0 0.12500295E+03</rscale>
<asrwt>0</asrwt>
<pdfrwt beam="2">  1        4 0.30440034E-01 0.12500295E+03</pdfrwt>
<pdfrwt beam="1">  1       -4 0.30374468E-02 0.12500295E+03</pdfrwt>
<totfact> 0.87243224E+03</totfact>
</mgrwt>
</event>
<event>
 5    1  0.3317939E-002  0.1250003E+03  0.7818608E-02  0.1235069E+00
          4   -1    0    0  501    0  0.00000000000E+00  0.00000000000E+00  0.80628501662E+01  0.81622578251E+01  0.12700000000E+01 0.  1.
         -4   -1    0    0    0  501 -0.00000000000E+00 -0.00000000000E+00 -0.48140892658E+03  0.48141060176E+03  0.12700000000E+01 0.  1.
         25    2    1    2    0    0  0.00000000000E+00  0.00000000000E+00 -0.47334607641E+03  0.48957285959E+03  0.12500030716E+03 0.  0.
    9000005    1    3    3    0    0  0.16500290007E+02 -0.35469702896E+02 -0.45806492469E+02  0.60246113121E+02  0.10000000000E+01 0.  0.
    9000005    1    3    3    0    0 -0.16500290007E+02  0.35469702896E+02 -0.42753958394E+03  0.42932674647E+03  0.10000000000E+01 0.  0.
<mgrwt>
<rscale>  0 0.12500031E+03</rscale>
<asrwt>0</asrwt>
<pdfrwt beam="1">  1        4 0.12482145E-02 0.12500031E+03</pdfrwt>
<pdfrwt beam="2">  1       -4 0.74070665E-01 0.12500031E+03</pdfrwt>
<totfact> 0.56682185E+03</totfact>
</mgrwt>
</event>
<event>
 5    1  0.3317939E-002  0.1250487E+03  0.7818608E-02  0.1234993E+00
          4   -1    0    0  501    0  0.00000000000E+00  0.00000000000E+00  0.65248892443E+01  0.66473362823E+01  0.12700000000E+01 0.  1.
         -4   -1    0    0    0  501 -0.00000000000E+00 -0.00000000000E+00 -0.59344313815E+03  0.59344449708E+03  0.12700000000E+01 0.  1.
         25    2    1    2    0    0  0.00000000000E+00  0.00000000000E+00 -0.58691824890E+03  0.60009183336E+03  0.12504870080E+03 0.  0.
    9000005    1    3    3    0    0  0.23243101194E+02 -0.27581266480E+02 -0.53849870017E+03  0.53970623314E+03  0.10000000000E+01 0.  0.
    9000005    1    3    3    0    0 -0.23243101194E+02  0.27581266480E+02 -0.48419548736E+02  0.60385600217E+02  0.10000000000E+01 0.  0.
<mgrwt>
<rscale>  0 0.12504870E+03</rscale>
<asrwt>0</asrwt>
<pdfrwt beam="1">  1        4 0.10133531E-02 0.12504870E+03</pdfrwt>
<pdfrwt beam="2">  1       -4 0.91308426E-01 0.12504870E+03</pdfrwt>
<totfact> 0.48809690E+03</totfact>
</mgrwt>
</event>
<event>
 5    1  0.3317939E-002  0.1249978E+03  0.7818608E-02  0.1235073E+00
          4   -1    0    0  501    0  0.00000000000E+00  0.00000000000E+00  0.44207255143E+01  0.45995341147E+01  0.12700000000E+01 0. -1.
         -4   -1    0    0    0  501 -0.00000000000E+00 -0.00000000000E+00 -0.86589629848E+03  0.86589722982E+03  0.12700000000E+01 0. -1.
         25    2    1    2    0    0  0.00000000000E+00  0.00000000000E+00 -0.86147557296E+03  0.87049676394E+03  0.12499781284E+03 0.  0.
    9000005    1    3    3    0    0 -0.21290616887E+02  0.50985765905E+02 -0.63404581205E+03  0.63644947204E+03  0.10000000000E+01 0.  0.
    9000005    1    3    3    0    0  0.21290616887E+02 -0.50985765905E+02 -0.22742976092E+03  0.23404729189E+03  0.10000000000E+01 0.  0.
<mgrwt>
<rscale>  0 0.12499781E+03</rscale>
<asrwt>0</asrwt>
<pdfrwt beam="1">  1        4 0.69393846E-03 0.12499781E+03</pdfrwt>
<pdfrwt beam="2">  1       -4 0.13322851E+00 0.12499781E+03</pdfrwt>
<totfact> 0.35304665E+03</totfact>
</mgrwt>
</event>
<event>
 5    1  0.3317939E-002  0.1250013E+03  0.7818608E-02  0.1235067E+00
          4   -1    0    0  501    0  0.00000000000E+00  0.00000000000E+00  0.12559420229E+04  0.12559426650E+04  0.12700000000E+01 0. -1.
         -4   -1    0    0    0  501 -0.00000000000E+00 -0.00000000000E+00 -0.29799661891E+01  0.32393052477E+01  0.12700000000E+01 0. -1.
         25    2    1    2    0    0  0.00000000000E+00  0.00000000000E+00  0.12529620567E+04  0.12591819702E+04  0.12500127463E+03 0.  0.
    9000005    1    3    3    0    0  0.23535848349E+02 -0.21928015794E+02  0.86775285923E+02  0.92551198161E+02  0.10000000000E+01 0.  0.
    9000005    1    3    3    0    0 -0.23535848349E+02  0.21928015794E+02  0.11661867707E+04  0.11666307721E+04  0.10000000000E+01 0.  0.
<mgrwt>
<rscale>  0 0.12500127E+03</rscale>
<asrwt>0</asrwt>
<pdfrwt beam="1">  1        4 0.19324179E+00 0.12500127E+03</pdfrwt>
<pdfrwt beam="2">  1       -4 0.47845504E-03 0.12500127E+03</pdfrwt>
<totfact> 0.23212218E+03</totfact>
</mgrwt>
</event>
<event>
 5    1  0.3317939E-002  0.1250022E+03  0.7818608E-02  0.1235066E+00
          4   -1    0    0  501    0  0.00000000000E+00  0.00000000000E+00  0.83637898090E+02  0.83647539694E+02  0.12700000000E+01 0.  1.
         -4   -1    0    0    0  501 -0.00000000000E+00 -0.00000000000E+00 -0.46684998003E+02  0.46702269094E+02  0.12700000000E+01 0.  1.
         25    2    1    2    0    0  0.00000000000E+00  0.00000000000E+00  0.36952900087E+02  0.13034980879E+03  0.12500222329E+03 0.  0.
    9000005    1    3    3    0    0 -0.20596612704E+02 -0.14903268681E+02 -0.41053965111E+02  0.48298612025E+02  0.10000000000E+01 0.  0.
    9000005    1    3    3    0    0  0.20596612704E+02  0.14903268681E+02  0.78006865198E+02  0.82051196763E+02  0.10000000000E+01 0.  0.
<mgrwt>
<rscale>  0 0.12500222E+03</rscale>
<asrwt>0</asrwt>
<pdfrwt beam="1">  1        4 0.12869439E-01 0.12500222E+03</pdfrwt>
<pdfrwt beam="2">  1       -4 0.71843776E-02 0.12500222E+03</pdfrwt>
<totfact> 0.10336511E+04</totfact>
</mgrwt>
</event>
<event>
 5    1  0.3317939E-002  0.1250005E+03  0.7818608E-02  0.1235068E+00
          4   -1    0    0  501    0  0.00000000000E+00  0.00000000000E+00  0.61382921192E+02  0.61396057806E+02  0.12700000000E+01 0.  1.
         -4   -1    0    0    0  501 -0.00000000000E+00 -0.00000000000E+00 -0.63611644836E+02  0.63624321283E+02  0.12700000000E+01 0.  1.
         25    2    1    2    0    0  0.00000000000E+00  0.00000000000E+00 -0.22287236437E+01  0.12502037909E+03  0.12500051191E+03 0.  0.
    9000005    1    3    3    0    0 -0.19089143249E+02 -0.46753058909E+02  0.35702330755E+02  0.61853862681E+02  0.10000000000E+01 0.  0.
    9000005    1    3    3    0    0  0.19089143249E+02  0.46753058909E+02 -0.37931054398E+02  0.63166516408E+02  0.10000000000E+01 0.  0.
<mgrwt>
<rscale>  0 0.12500051E+03</rscale>
<asrwt>0</asrwt>
<pdfrwt beam="1">  1        4 0.94455119E-02 0.12500051E+03</pdfrwt>
<pdfrwt beam="2">  1       -4 0.97883925E-02 0.12500051E+03</pdfrwt>
<totfact> 0.10452299E+04</totfact>
</mgrwt>
</event>
<event>
 5    1  0.3317939E-002  0.1250007E+03  0.7818608E-02  0.1235068E+00
          4   -1    0    0  501    0  0.00000000000E+00  0.00000000000E+00  0.32496820546E+04  0.32496823028E+04  0.12700000000E+01 0. -1.
         -4   -1    0    0    0  501 -0.00000000000E+00 -0.00000000000E+00 -0.86629106709E+00  0.15373224167E+01  0.12700000000E+01 0. -1.
         25    2    1    2    0    0  0.00000000000E+00  0.00000000000E+00  0.32488157635E+04  0.32512196252E+04  0.12500074309E+03 0.  0.
    9000005    1    3    3    0    0  0.51839820792E+02  0.10164358055E+02  0.75605509355E+03  0.75789906034E+03  0.10000000000E+01 0.  0.
    9000005    1    3    3    0    0 -0.51839820792E+02 -0.10164358055E+02  0.24927606700E+04  0.24933205648E+04  0.10000000000E+01 0.  0.
<mgrwt>
<rscale>  0 0.12500074E+03</rscale>
<asrwt>0</asrwt>
<pdfrwt beam="1">  1        4 0.50000284E+00 0.12500074E+03</pdfrwt>
<pdfrwt beam="2">  1       -4 0.18491239E-03 0.12500074E+03</pdfrwt>
<totfact> 0.10469828E+02</totfact>
</mgrwt>
</event>
<event>
 5    1  0.3317939E-002  0.1249757E+03  0.7818608E-02  0.1235107E+00
         -4   -1    0    0    0  501 -0.00000000000E+00  0.00000000000E+00  0.35364812390E+02  0.35387608783E+02  0.12700000000E+01 0.  1.
          4   -1    0    0  501    0  0.00000000000E+00 -0.00000000000E+00 -0.11035088030E+03  0.11035818812E+03  0.12700000000E+01 0.  1.
         25    2    1    2    0    0  0.00000000000E+00  0.00000000000E+00 -0.74986067915E+02  0.14574579690E+03  0.12497570537E+03 0.  0.
    9000005    1    3    3    0    0 -0.57884840610E+01 -0.33068224506E+02 -0.98945074435E+02  0.10448991231E+03  0.10000000000E+01 0.  0.
    9000005    1    3    3    0    0  0.57884840610E+01  0.33068224506E+02  0.23959006520E+02  0.41255884588E+02  0.10000000000E+01 0.  0.
<mgrwt>
<rscale>  0 0.12497571E+03</rscale>
<asrwt>0</asrwt>
<pdfrwt beam="2">  1        4 0.16979374E-01 0.12497571E+03</pdfrwt>
<pdfrwt beam="1">  1       -4 0.54430561E-02 0.12497571E+03</pdfrwt>
<totfact> 0.10021338E+04</totfact>
</mgrwt>
</event>
<event>
 4    1  0.3317939E-002  0.1251295E+03  0.7818608E-02  0.1234867E+00
          4   -1    0    0  501    0  0.00000000000E+00  0.00000000000E+00  0.13090976453E+03  0.13091592474E+03  0.12700000000E+01 0. -1.
         -4   -1    0    0    0  501 -0.00000000000E+00 -0.00000000000E+00 -0.29880751870E+02  0.29907728638E+02  0.12700000000E+01 0. -1.
    9000005    1    1    2    0    0 -0.33207126776E+02 -0.45323721606E+02  0.15166559678E+02  0.58206335922E+02  0.10000000000E+01 0.  0.
    9000005    1    1    2    0    0  0.33207126776E+02  0.45323721606E+02  0.85862452983E+02  0.10261731745E+03  0.10000000000E+01 0.  0.
<mgrwt>
<rscale>  0 0.12512948E+03</rscale>
<asrwt>0</asrwt>
<pdfrwt beam="1">  1        4 0.20142513E-01 0.12512948E+03</pdfrwt>
<pdfrwt beam="2">  1       -4 0.45995877E-02 0.12512948E+03</pdfrwt>
<totfact> 0.96901956E+03</totfact>
</mgrwt>
</event>
<event>
 5    1  0.3317939E-002  0.1250015E+03  0.7818608E-02  0.1235067E+00
          4   -1    0    0  501    0  0.00000000000E+00  0.00000000000E+00  0.26559365996E+02  0.26589712712E+02  0.12700000000E+01 0. -1.
         -4   -1    0    0    0  501 -0.00000000000E+00 -0.00000000000E+00 -0.14696269896E+03  0.14696818631E+03  0.12700000000E+01 0. -1.
         25    2    1    2    0    0  0.00000000000E+00  0.00000000000E+00 -0.12040333297E+03  0.17355789902E+03  0.12500152688E+03 0.  0.
    9000005    1    3    3    0    0 -0.37192598961E+02 -0.46310303360E+02 -0.87175136039E+02  0.10549141177E+03  0.10000000000E+01 0.  0.
    9000005    1    3    3    0    0  0.37192598961E+02  0.46310303360E+02 -0.33228196928E+02  0.68066487245E+02  0.10000000000E+01 0.  0.
<mgrwt>
<rscale>  0 0.12500153E+03</rscale>
<asrwt>0</asrwt>
<pdfrwt beam="1">  1        4 0.40888129E-02 0.12500153E+03</pdfrwt>
<pdfrwt beam="2">  1       -4 0.22612402E-01 0.12500153E+03</pdfrwt>
<totfact> 0.94786376E+03</totfact>
</mgrwt>
</event>
<event>
 5    1  0.3317939E-002  0.1249984E+03  0.7818608E-02  0.1235072E+00
         -4   -1    0    0    0  501 -0.00000000000E+00  0.00000000000E+00  0.56000384507E+01  0.57422409083E+01  0.12700000000E+01 0.  1.
          4   -1    0    0  501    0  0.00000000000E+00 -0.00000000000E+00 -0.68863441524E+03  0.68863558632E+03  0.12700000000E+01 0.  1.
         25    2    1    2    0    0  0.00000000000E+00  0.00000000000E+00 -0.68303437679E+03  0.69437782723E+03  0.12499842830E+03 0.  0.
    9000005    1    3    3    0    0 -0.18702657432E+02  0.58575311304E+02 -0.40344968827E+03  0.40810967577E+03  0.10000000000E+01 0.  0.
    9000005    1    3    3    0    0  0.18702657432E+02 -0.58575311304E+02 -0.27958468851E+03  0.28626815146E+03  0.10000000000E+01 0.  0.
<mgrwt>
<rscale>  0 0.12499843E+03</rscale>
<asrwt>0</asrwt>
<pdfrwt beam="2">  1        4 0.10595472E+00 0.12499843E+03</pdfrwt>
<pdfrwt beam="1">  1       -4 0.87257366E-03 0.12499843E+03</pdfrwt>
<totfact> 0.43386655E+03</totfact>
</mgrwt>
</event>
<event>
 5    1  0.3317939E-002  0.1250000E+03  0.7818608E-02  0.1235069E+00
          4   -1    0    0  501    0  0.00000000000E+00  0.00000000000E+00  0.22346966124E+02  0.22383024705E+02  0.12700000000E+01 0. -1.
         -4   -1    0    0    0  501 -0.00000000000E+00 -0.00000000000E+00 -0.17462080087E+03  0.17462541910E+03  0.12700000000E+01 0. -1.
         25    2    1    2    0    0  0.00000000000E+00  0.00000000000E+00 -0.15227383475E+03  0.19700844381E+03  0.12500002473E+03 0.  0.
    9000005    1    3    3    0    0  0.35585924651E+02 -0.29298167407E+02 -0.14264080900E+03  0.14990710803E+03  0.10000000000E+01 0.  0.
    9000005    1    3    3    0    0 -0.35585924651E+02  0.29298167407E+02 -0.96330257466E+01  0.47101335774E+02  0.10000000000E+01 0.  0.
<mgrwt>
<rscale>  0 0.12500002E+03</rscale>
<asrwt>0</asrwt>
<pdfrwt beam="1">  1        4 0.34411239E-02 0.12500002E+03</pdfrwt>
<pdfrwt beam="2">  1       -4 0.26867867E-01 0.12500002E+03</pdfrwt>
<totfact> 0.90641916E+03</totfact>
</mgrwt>
</event>
<event>
 5    1  0.3317939E-002  0.1249950E+03  0.7818608E-02  0.1235077E+00
          4   -1    0    0  501    0  0.00000000000E+00  0.00000000000E+00  0.11634502421E+03  0.11635195554E+03  0.12700000000E+01 0.  1.
         -4   -1    0    0    0  501 -0.00000000000E+00 -0.00000000000E+00 -0.33552052148E+02  0.33576079333E+02  0.12700000000E+01 0.  1.
         25    2    1    2    0    0  0.00000000000E+00  0.00000000000E+00  0.82792972064E+02  0.14992803488E+03  0.12499495757E+03 0.  0.
    9000005    1    3    3    0    0  0.49702479372E+02  0.99990396421E+01 -0.24231514082E+01  0.50766021237E+02  0.10000000000E+01 0.  0.
    9000005    1    3    3    0    0 -0.49702479372E+02 -0.99990396421E+01  0.85216123472E+02  0.99162013640E+02  0.10000000000E+01 0.  0.
<mgrwt>
<rscale>  0 0.12499496E+03</rscale>
<asrwt>0</asrwt>
<pdfrwt beam="1">  1        4 0.17901616E-01 0.12499496E+03</pdfrwt>
<pdfrwt beam="2">  1       -4 0.51642356E-02 0.12499496E+03</pdfrwt>
<totfact> 0.99329317E+03</totfact>
</mgrwt>
</event>
<event>
 5    1  0.3317939E-002  0.1250009E+03  0.7818608E-02  0.1235068E+00
          4   -1    0    0  501    0  0.00000000000E+00  0.00000000000E+00  0.10415901479E+02  0.10493040723E+02  0.12700000000E+01 0. -1.
         -4   -1    0    0    0  501 -0.00000000000E+00 -0.00000000000E+00 -0.37357140396E+03  0.37357356271E+03  0.12700000000E+01 0. -1.
         25    2    1    2    0    0  0.00000000000E+00  0.00000000000E+00 -0.36315550248E+03  0.38406660344E+03  0.12500094756E+03 0.  0.
    9000005    1    3    3    0    0 -0.38525603992E+02 -0.24100349997E+02 -0.31338304552E+03  0.31666225265E+03  0.10000000000E+01 0.  0.
    9000005    1    3    3    0    0  0.38525603992E+02  0.24100349997E+02 -0.49772456964E+02  0.67404350788E+02  0.10000000000E+01 0.  0.
<mgrwt>
<rscale>  0 0.12500095E+03</rscale>
<asrwt>0</asrwt>
<pdfrwt beam="1">  1        4 0.16085465E-02 0.12500095E+03</pdfrwt>
<pdfrwt beam="2">  1       -4 0.57478613E-01 0.12500095E+03</pdfrwt>
<totfact> 0.66131145E+03</totfact>
</mgrwt>
</event>
<event>
 5    1  0.3317939E-002  0.1249509E+03  0.7818608E-02  0.1235146E+00
         -4   -1    0    0    0  501 -0.00000000000E+00  0.00000000000E+00  0.87983489373E+02  0.87992654819E+02  0.12700000000E+01 0. -1.
          4   -1    0    0  501    0  0.00000000000E+00 -0.00000000000E+00 -0.44342104925E+02  0.44360288199E+02  0.12700000000E+01 0. -1.
         25    2    1    2    0    0  0.00000000000E+00  0.00000000000E+00  0.43641384448E+02  0.13235294302E+03  0.12495091472E+03 0.  0.
    9000005    1    3    3    0    0 -0.36693479813E+02 -0.27332337639E+02 -0.23227688919E+02  0.51322448052E+02  0.10000000000E+01 0.  0.
    9000005    1    3    3    0    0  0.36693479813E+02  0.27332337639E+02  0.66869073367E+02  0.81030494967E+02  0.10000000000E+01 0.  0.
<mgrwt>
<rscale>  0 0.12495091E+03</rscale>
<asrwt>0</asrwt>
<pdfrwt beam="2">  1        4 0.68239662E-02 0.12495091E+03</pdfrwt>
<pdfrwt beam="1">  1       -4 0.13538025E-01 0.12495091E+03</pdfrwt>
<totfact> 0.10305578E+04</totfact>
</mgrwt>
</event>
<event>
 5    1  0.3317939E-002  0.1249998E+03  0.7818608E-02  0.1235070E+00
          4   -1    0    0  501    0  0.00000000000E+00  0.00000000000E+00  0.94060913299E+02  0.94069486608E+02  0.12700000000E+01 0. -1.
         -4   -1    0    0    0  501 -0.00000000000E+00 -0.00000000000E+00 -0.41508604374E+02  0.41528028331E+02  0.12700000000E+01 0. -1.
         25    2    1    2    0    0  0.00000000000E+00  0.00000000000E+00  0.52552308925E+02  0.13559751494E+03  0.12499976354E+03 0.  0.
    9000005    1    3    3    0    0 -0.35646362705E+02  0.35536868187E+02 -0.13900390895E+02  0.52227895245E+02  0.10000000000E+01 0.  0.
    9000005    1    3    3    0    0  0.35646362705E+02 -0.35536868187E+02  0.66452699820E+02  0.83369619695E+02  0.10000000000E+01 0.  0.
<mgrwt>
<rscale>  0 0.12499976E+03</rscale>
<asrwt>0</asrwt>
<pdfrwt beam="1">  1        4 0.14473063E-01 0.12499976E+03</pdfrwt>
<pdfrwt beam="2">  1       -4 0.63880928E-02 0.12499976E+03</pdfrwt>
<totfact> 0.10225547E+04</totfact>
</mgrwt>
</event>
<event>
 5    1  0.3317939E-002  0.1249962E+03  0.7818608E-02  0.1235075E+00
          4   -1    0    0  501    0  0.00000000000E+00  0.00000000000E+00  0.57612097213E+03  0.57612237192E+03  0.12700000000E+01 0. -1.
         -4   -1    0    0    0  501 -0.00000000000E+00 -0.00000000000E+00 -0.67189508088E+01  0.68379236593E+01  0.12700000000E+01 0. -1.
         25    2    1    2    0    0  0.00000000000E+00  0.00000000000E+00  0.56940202132E+03  0.58296029558E+03  0.12499617730E+03 0.  0.
    9000005    1    3    3    0    0  0.53583411687E+02 -0.58906749584E+01  0.13728215585E+03  0.14748990601E+03  0.10000000000E+01 0.  0.
    9000005    1    3    3    0    0 -0.53583411687E+02  0.58906749584E+01  0.43211986547E+03  0.43547038957E+03  0.10000000000E+01 0.  0.
<mgrwt>
<rscale>  0 0.12499618E+03</rscale>
<asrwt>0</asrwt>
<pdfrwt beam="1">  1        4 0.88643224E-01 0.12499618E+03</pdfrwt>
<pdfrwt beam="2">  1       -4 0.10429445E-02 0.12499618E+03</pdfrwt>
<totfact> 0.49965381E+03</totfact>
</mgrwt>
</event>
<event>
 5    1  0.3317939E-002  0.1250001E+03  0.7818608E-02  0.1235069E+00
         -4   -1    0    0    0  501 -0.00000000000E+00  0.00000000000E+00  0.28885407929E+02  0.28913313391E+02  0.12700000000E+01 0. -1.
          4   -1    0    0  501    0  0.00000000000E+00 -0.00000000000E+00 -0.13513666157E+03  0.13514262910E+03  0.12700000000E+01 0. -1.
         25    2    1    2    0    0  0.00000000000E+00  0.00000000000E+00 -0.10625125364E+03  0.16405594249E+03  0.12500009347E+03 0.  0.
    9000005    1    3    3    0    0  0.19974613922E+02 -0.28677558453E+02 -0.12111831741E+03  0.12606361241E+03  0.10000000000E+01 0.  0.
    9000005    1    3    3    0    0 -0.19974613922E+02  0.28677558453E+02  0.14867063771E+02  0.37992330085E+02  0.10000000000E+01 0.  0.
<mgrwt>
<rscale>  0 0.12500009E+03</rscale>
<asrwt>0</asrwt>
<pdfrwt beam="2">  1        4 0.20792861E-01 0.12500009E+03</pdfrwt>
<pdfrwt beam="1">  1       -4 0.44465146E-02 0.12500009E+03</pdfrwt>
<totfact> 0.96566278E+03</totfact>
</mgrwt>
</event>
<event>
 5    1  0.3317939E-002  0.1250006E+03  0.7818608E-02  0.1235068E+00
         -4   -1    0    0    0  501 -0.00000000000E+00  0.00000000000E+00  0.14660023930E+02  0.14714931248E+02  0.12700000000E+01 0. -1.
          4   -1    0    0  501    0  0.00000000000E+00 -0.00000000000E+00 -0.26590377627E+03  0.26590680912E+03  0.12700000000E+01 0. -1.
         25    2    1    2    0    0  0.00000000000E+00  0.00000000000E+00 -0.25124375234E+03  0.28062174037E+03  0.12500055230E+03 0.  0.
    9000005    1    3    3    0    0 -0.14992821282E+01 -0.47172736021E+02 -0.33666833857E+02  0.57982502297E+02  0.10000000000E+01 0.  0.
    9000005    1    3    3    0    0  0.14992821282E+01  0.47172736021E+02 -0.21757691849E+03  0.22263923807E+03  0.10000000000E+01 0.  0.
<mgrwt>
<rscale>  0 0.12500055E+03</rscale>
<asrwt>0</asrwt>
<pdfrwt beam="2">  1        4 0.40912727E-01 0.12500055E+03</pdfrwt>
<pdfrwt beam="1">  1       -4 0.22598454E-02 0.12500055E+03</pdfrwt>
<totfact> 0.78094782E+03</totfact>
</mgrwt>
</event>
<event>
 5    1  0.3317939E-002  0.1249902E+03  0.7818608E-02  0.1235085E+00
          4   -1    0    0  501    0  0.00000000000E+00  0.00000000000E+00  0.22171847106E+01  0.25551532323E+01  0.12700000000E+01 0.  1.
         -4   -1    0    0    0  501 -0.00000000000E+00 -0.00000000000E+00 -0.16364442844E+04  0.16364447772E+04  0.12700000000E+01 0.  1.
         25    2    1    2    0    0  0.00000000000E+00  0.00000000000E+00 -0.16342270996E+04  0.16389999304E+04  0.12499023409E+03 0.  0.
    9000005    1    3    3    0    0 -0.28645742542E+02 -0.11822737050E+02 -0.10558439251E+03  0.11004280812E+03  0.10000000000E+01 0.  0.
    9000005    1    3    3    0    0  0.28645742542E+02  0.11822737050E+02 -0.15286427071E+04  0.15289571223E+04  0.10000000000E+01 0.  0.
<mgrwt>
<rscale>  0 0.12499023E+03</rscale>
<asrwt>0</asrwt>
<pdfrwt beam="1">  1        4 0.36714214E-03 0.12499023E+03</pdfrwt>
<pdfrwt beam="2">  1       -4 0.25178580E+00 0.12499023E+03</pdfrwt>
<totfact> 0.15354848E+03</totfact>
</mgrwt>
</event>
<event>
 5    1  0.3317939E-002  0.1249991E+03  0.7818608E-02  0.1235071E+00
         -4   -1    0    0    0  501 -0.00000000000E+00  0.00000000000E+00  0.15578012105E+04  0.15578017281E+04  0.12700000000E+01 0.  1.
          4   -1    0    0  501    0  0.00000000000E+00 -0.00000000000E+00 -0.23461465697E+01  0.26678275294E+01  0.12700000000E+01 0.  1.
         25    2    1    2    0    0  0.00000000000E+00  0.00000000000E+00  0.15554550639E+04  0.15604695557E+04  0.12499911361E+03 0.  0.
    9000005    1    3    3    0    0  0.52310508422E+02 -0.44121958184E+01  0.35450164969E+03  0.35836891103E+03  0.10000000000E+01 0.  0.
    9000005    1    3    3    0    0 -0.52310508422E+02  0.44121958184E+01  0.12009534142E+04  0.12021006446E+04  0.10000000000E+01 0.  0.
<mgrwt>
<rscale>  0 0.12499911E+03</rscale>
<asrwt>0</asrwt>
<pdfrwt beam="2">  1        4 0.38573070E-03 0.12499911E+03</pdfrwt>
<pdfrwt beam="1">  1       -4 0.23968616E+00 0.12499911E+03</pdfrwt>
<totfact> 0.16772288E+03</totfact>
</mgrwt>
</event>
<event>
 5    1  0.3317939E-002  0.1250016E+03  0.7818608E-02  0.1235067E+00
         -4   -1    0    0    0  501 -0.00000000000E+00  0.00000000000E+00  0.81014892672E+02  0.81024846403E+02  0.12700000000E+01 0.  1.
          4   -1    0    0  501    0  0.00000000000E+00 -0.00000000000E+00 -0.48196395558E+02  0.48213125233E+02  0.12700000000E+01 0.  1.
         25    2    1    2    0    0  0.00000000000E+00  0.00000000000E+00  0.32818497114E+02  0.12923797164E+03  0.12500159823E+03 0.  0.
    9000005    1    3    3    0    0  0.11679553911E+02  0.10070971208E+02 -0.46203162103E+02  0.48719283954E+02  0.10000000000E+01 0.  0.
    9000005    1    3    3    0    0 -0.11679553911E+02 -0.10070971208E+02  0.79021659217E+02  0.80518687682E+02  0.10000000000E+01 0.  0.
<mgrwt>
<rscale>  0 0.12500160E+03</rscale>
<asrwt>0</asrwt>
<pdfrwt beam="2">  1        4 0.74168827E-02 0.12500160E+03</pdfrwt>
<pdfrwt beam="1">  1       -4 0.12465882E-01 0.12500160E+03</pdfrwt>
<totfact> 0.10360462E+04</totfact>
</mgrwt>
</event>
<event>
 5    1  0.3317939E-002  0.1250011E+03  0.7818608E-02  0.1235068E+00
         -4   -1    0    0    0  501 -0.00000000000E+00  0.00000000000E+00  0.20074099302E+01  0.23754146223E+01  0.12700000000E+01 0.  1.
          4   -1    0    0  501    0  0.00000000000E+00 -0.00000000000E+00 -0.17821901128E+04  0.17821905653E+04  0.12700000000E+01 0.  1.
         25    2    1    2    0    0  0.00000000000E+00  0.00000000000E+00 -0.17801827029E+04  0.17845659799E+04  0.12500112446E+03 0.  0.
    9000005    1    3    3    0    0  0.60235909001E+02  0.16635698373E+02 -0.89661936020E+03  0.89879496454E+03  0.10000000000E+01 0.  0.
    9000005    1    3    3    0    0 -0.60235909001E+02 -0.16635698373E+02 -0.88356334265E+03  0.88577101537E+03  0.10000000000E+01 0.  0.
<mgrwt>
<rscale>  0 0.12500112E+03</rscale>
<asrwt>0</asrwt>
<pdfrwt beam="2">  1        4 0.27421028E+00 0.12500112E+03</pdfrwt>
<pdfrwt beam="1">  1       -4 0.33717658E-03 0.12500112E+03</pdfrwt>
<totfact> 0.12942575E+03</totfact>
</mgrwt>
</event>
<event>
 5    1  0.3317939E-002  0.1250000E+03  0.7818608E-02  0.1235069E+00
          4   -1    0    0  501    0  0.00000000000E+00  0.00000000000E+00  0.53714304441E+03  0.53714454577E+03  0.12700000000E+01 0.  1.
         -4   -1    0    0    0  501 -0.00000000000E+00 -0.00000000000E+00 -0.72152965039E+01  0.73262134584E+01  0.12700000000E+01 0.  1.
         25    2    1    2    0    0  0.00000000000E+00  0.00000000000E+00  0.52992774790E+03  0.54447075923E+03  0.12499995865E+03 0.  0.
    9000005    1    3    3    0    0 -0.17874906663E+01  0.31980334364E+01 -0.67684708706E+01  0.77611042171E+01  0.10000000000E+01 0.  0.
    9000005    1    3    3    0    0  0.17874906663E+01 -0.31980334364E+01  0.53669621877E+03  0.53670965502E+03  0.10000000000E+01 0.  0.
<mgrwt>
<rscale>  0 0.12499996E+03</rscale>
<asrwt>0</asrwt>
<pdfrwt beam="1">  1        4 0.82646067E-01 0.12499996E+03</pdfrwt>
<pdfrwt beam="2">  1       -4 0.11186928E-02 0.12499996E+03</pdfrwt>
<totfact> 0.52571894E+03</totfact>
</mgrwt>
</event>
<event>
 5    1  0.3317939E-002  0.1250002E+03  0.7818608E-02  0.1235069E+00
          4   -1    0    0  501    0  0.00000000000E+00  0.00000000000E+00  0.37334410446E+02  0.37356004917E+02  0.12700000000E+01 0.  1.
         -4   -1    0    0    0  501 -0.00000000000E+00 -0.00000000000E+00 -0.10457331674E+03  0.10458102827E+03  0.12700000000E+01 0.  1.
         25    2    1    2    0    0  0.00000000000E+00  0.00000000000E+00 -0.67238906295E+02  0.14193703319E+03  0.12500020348E+03 0.  0.
    9000005    1    3    3    0    0  0.41579293431E+02  0.35914523194E+02  0.19030258556E+00  0.54952041214E+02  0.10000000000E+01 0.  0.
    9000005    1    3    3    0    0 -0.41579293431E+02 -0.35914523194E+02 -0.67429208881E+02  0.86984991974E+02  0.10000000000E+01 0.  0.
<mgrwt>
<rscale>  0 0.12500020E+03</rscale>
<asrwt>0</asrwt>
<pdfrwt beam="1">  1        4 0.57460098E-02 0.12500020E+03</pdfrwt>
<pdfrwt beam="2">  1       -4 0.16090457E-01 0.12500020E+03</pdfrwt>
<totfact> 0.10093550E+04</totfact>
</mgrwt>
</event>
<event>
 5    1  0.3317939E-002  0.1249969E+03  0.7818608E-02  0.1235074E+00
          4   -1    0    0  501    0  0.00000000000E+00  0.00000000000E+00  0.38198529348E+02  0.38219635586E+02  0.12700000000E+01 0.  1.
         -4   -1    0    0    0  501 -0.00000000000E+00 -0.00000000000E+00 -0.10220348807E+03  0.10221137840E+03  0.12700000000E+01 0.  1.
         25    2    1    2    0    0  0.00000000000E+00  0.00000000000E+00 -0.64004958721E+02  0.14043101398E+03  0.12499693975E+03 0.  0.
    9000005    1    3    3    0    0 -0.82368468144E+00 -0.11286780581E+02 -0.10104815813E+03  0.10168480778E+03  0.10000000000E+01 0.  0.
    9000005    1    3    3    0    0  0.82368468144E+00  0.11286780581E+02  0.37043199409E+02  0.38746206199E+02  0.10000000000E+01 0.  0.
<mgrwt>
<rscale>  0 0.12499694E+03</rscale>
<asrwt>0</asrwt>
<pdfrwt beam="1">  1        4 0.58789274E-02 0.12499694E+03</pdfrwt>
<pdfrwt beam="2">  1       -4 0.15725844E-01 0.12499694E+03</pdfrwt>
<totfact> 0.10125359E+04</totfact>
</mgrwt>
</event>
<event>
 5    1  0.3317939E-002  0.1250004E+03  0.7818608E-02  0.1235069E+00
          4   -1    0    0  501    0  0.00000000000E+00  0.00000000000E+00  0.60063111047E+02  0.60076536257E+02  0.12700000000E+01 0. -1.
         -4   -1    0    0    0  501 -0.00000000000E+00 -0.00000000000E+00 -0.65009280025E+02  0.65021683994E+02  0.12700000000E+01 0. -1.
         25    2    1    2    0    0  0.00000000000E+00  0.00000000000E+00 -0.49461689778E+01  0.12509822025E+03  0.12500040049E+03 0.  0.
    9000005    1    3    3    0    0  0.41560729375E+01  0.51564370137E+02 -0.37559296588E+02  0.63936358749E+02  0.10000000000E+01 0.  0.
    9000005    1    3    3    0    0 -0.41560729375E+01 -0.51564370137E+02  0.32613127611E+02  0.61161861502E+02  0.10000000000E+01 0.  0.
<mgrwt>
<rscale>  0 0.12500040E+03</rscale>
<asrwt>0</asrwt>
<pdfrwt beam="1">  1        4 0.92424654E-02 0.12500040E+03</pdfrwt>
<pdfrwt beam="2">  1       -4 0.10003415E-01 0.12500040E+03</pdfrwt>
<totfact> 0.10450635E+04</totfact>
</mgrwt>
</event>
<event>
 5    1  0.3317939E-002  0.1250035E+03  0.7818608E-02  0.1235064E+00
          4   -1    0    0  501    0  0.00000000000E+00  0.00000000000E+00  0.29150139709E+02  0.29177791983E+02  0.12700000000E+01 0.  1.
         -4   -1    0    0    0  501 -0.00000000000E+00 -0.00000000000E+00 -0.13391782326E+03  0.13392384510E+03  0.12700000000E+01 0.  1.
         25    2    1    2    0    0  0.00000000000E+00  0.00000000000E+00 -0.10476768355E+03  0.16310163708E+03  0.12500350596E+03 0.  0.
    9000005    1    3    3    0    0 -0.48590396597E+02 -0.29855025528E+02 -0.85728985696E+02  0.10296993823E+03  0.10000000000E+01 0.  0.
    9000005    1    3    3    0    0  0.48590396597E+02  0.29855025528E+02 -0.19038697852E+02  0.60131698851E+02  0.10000000000E+01 0.  0.
<mgrwt>
<rscale>  0 0.12500351E+03</rscale>
<asrwt>0</asrwt>
<pdfrwt beam="1">  1        4 0.44872272E-02 0.12500351E+03</pdfrwt>
<pdfrwt beam="2">  1       -4 0.20605332E-01 0.12500351E+03</pdfrwt>
<totfact> 0.96740504E+03</totfact>
</mgrwt>
</event>
<event>
 5    1  0.3317939E-002  0.1249983E+03  0.7818608E-02  0.1235072E+00
          4   -1    0    0  501    0  0.00000000000E+00  0.00000000000E+00  0.35471875253E+02  0.35494602885E+02  0.12700000000E+01 0. -1.
         -4   -1    0    0    0  501 -0.00000000000E+00 -0.00000000000E+00 -0.11005783072E+03  0.11006515798E+03  0.12700000000E+01 0. -1.
         25    2    1    2    0    0  0.00000000000E+00  0.00000000000E+00 -0.74585955463E+02  0.14555976087E+03  0.12499831691E+03 0.  0.
    9000005    1    3    3    0    0  0.49192947035E+02 -0.24807792536E+02 -0.29498433526E+01  0.55182190825E+02  0.10000000000E+01 0.  0.
    9000005    1    3    3    0    0 -0.49192947035E+02  0.24807792536E+02 -0.71636112111E+02  0.90377570043E+02  0.10000000000E+01 0.  0.
<mgrwt>
<rscale>  0 0.12499832E+03</rscale>
<asrwt>0</asrwt>
<pdfrwt beam="1">  1        4 0.54595235E-02 0.12499832E+03</pdfrwt>
<pdfrwt beam="2">  1       -4 0.16934286E-01 0.12499832E+03</pdfrwt>
<totfact> 0.10020007E+04</totfact>
</mgrwt>
</event>
<event>
 5    1  0.3317939E-002  0.1249949E+03  0.7818608E-02  0.1235077E+00
         -4   -1    0    0    0  501 -0.00000000000E+00  0.00000000000E+00  0.55247674596E+02  0.55262269663E+02  0.12700000000E+01 0.  1.
          4   -1    0    0  501    0  0.00000000000E+00 -0.00000000000E+00 -0.70668977413E+02  0.70680388147E+02  0.12700000000E+01 0.  1.
         25    2    1    2    0    0  0.00000000000E+00  0.00000000000E+00 -0.15421302817E+02  0.12594265781E+03  0.12499494580E+03 0.  0.
    9000005    1    3    3    0    0  0.48181557770E+02 -0.29862105580E+02  0.18789449835E+02  0.59726470546E+02  0.10000000000E+01 0.  0.
    9000005    1    3    3    0    0 -0.48181557770E+02  0.29862105580E+02 -0.34210752651E+02  0.66216187264E+02  0.10000000000E+01 0.  0.
<mgrwt>
<rscale>  0 0.12499495E+03</rscale>
<asrwt>0</asrwt>
<pdfrwt beam="2">  1        4 0.10874151E-01 0.12499495E+03</pdfrwt>
<pdfrwt beam="1">  1       -4 0.85016427E-02 0.12499495E+03</pdfrwt>
<totfact> 0.10433404E+04</totfact>
</mgrwt>
</event>
<event>
 5    1  0.3317939E-002  0.1249970E+03  0.7818608E-02  0.1235074E+00
          4   -1    0    0  501    0  0.00000000000E+00  0.00000000000E+00  0.12699933366E+03  0.12700568354E+03  0.12700000000E+01 0. -1.
         -4   -1    0    0    0  501 -0.00000000000E+00 -0.00000000000E+00 -0.30736325905E+02  0.30762552399E+02  0.12700000000E+01 0. -1.
         25    2    1    2    0    0  0.00000000000E+00  0.00000000000E+00  0.96263007757E+02  0.15776823594E+03  0.12499699840E+03 0.  0.
    9000005    1    3    3    0    0 -0.44736653519E+02  0.19205554806E+02 -0.13168304485E+01  0.48712991551E+02  0.10000000000E+01 0.  0.
    9000005    1    3    3    0    0  0.44736653519E+02 -0.19205554806E+02  0.97579838205E+02  0.10905524438E+03  0.10000000000E+01 0.  0.
<mgrwt>
<rscale>  0 0.12499700E+03</rscale>
<asrwt>0</asrwt>
<pdfrwt beam="1">  1        4 0.19540865E-01 0.12499700E+03</pdfrwt>
<pdfrwt beam="2">  1       -4 0.47311715E-02 0.12499700E+03</pdfrwt>
<totfact> 0.97781383E+03</totfact>
</mgrwt>
</event>
<event>
 5    1  0.3317939E-002  0.1249968E+03  0.7818608E-02  0.1235074E+00
         -4   -1    0    0    0  501 -0.00000000000E+00  0.00000000000E+00  0.75216659111E+03  0.75216766328E+03  0.12700000000E+01 0.  1.
          4   -1    0    0  501    0  0.00000000000E+00 -0.00000000000E+00 -0.51143248474E+01  0.52696507137E+01  0.12700000000E+01 0.  1.
         25    2    1    2    0    0  0.00000000000E+00  0.00000000000E+00  0.74705226626E+03  0.75743731399E+03  0.12499678436E+03 0.  0.
    9000005    1    3    3    0    0 -0.16641159155E+02  0.57645007484E+02  0.26766864329E+03  0.27431255470E+03  0.10000000000E+01 0.  0.
    9000005    1    3    3    0    0  0.16641159155E+02 -0.57645007484E+02  0.47938362297E+03  0.48312475929E+03  0.10000000000E+01 0.  0.
<mgrwt>
<rscale>  0 0.12499678E+03</rscale>
<asrwt>0</asrwt>
<pdfrwt beam="2">  1        4 0.79884965E-03 0.12499678E+03</pdfrwt>
<pdfrwt beam="1">  1       -4 0.11572999E+00 0.12499678E+03</pdfrwt>
<totfact> 0.40223732E+03</totfact>
</mgrwt>
</event>
<event>
 5    1  0.3317939E-002  0.1249996E+03  0.7818608E-02  0.1235070E+00
         -4   -1    0    0    0  501 -0.00000000000E+00  0.00000000000E+00  0.34941345367E+02  0.34964417856E+02  0.12700000000E+01 0.  1.
          4   -1    0    0  501    0  0.00000000000E+00 -0.00000000000E+00 -0.11173021399E+03  0.11173743159E+03  0.12700000000E+01 0.  1.
         25    2    1    2    0    0  0.00000000000E+00  0.00000000000E+00 -0.76788868628E+02  0.14670184945E+03  0.12499960915E+03 0.  0.
    9000005    1    3    3    0    0 -0.24019808183E+02 -0.48629367931E+01 -0.10586092287E+03  0.10866523975E+03  0.10000000000E+01 0.  0.
    9000005    1    3    3    0    0  0.24019808183E+02  0.48629367931E+01  0.29072054243E+02  0.38036609698E+02  0.10000000000E+01 0.  0.
<mgrwt>
<rscale>  0 0.12499961E+03</rscale>
<asrwt>0</asrwt>
<pdfrwt beam="2">  1        4 0.17191593E-01 0.12499961E+03</pdfrwt>
<pdfrwt beam="1">  1       -4 0.53779217E-02 0.12499961E+03</pdfrwt>
<totfact> 0.99966125E+03</totfact>
</mgrwt>
</event>
<event>
 5    1  0.3317939E-002  0.1250013E+03  0.7818608E-02  0.1235067E+00
         -4   -1    0    0    0  501 -0.00000000000E+00  0.00000000000E+00  0.66036158809E+02  0.66048369928E+02  0.12700000000E+01 0.  1.
          4   -1    0    0  501    0  0.00000000000E+00 -0.00000000000E+00 -0.59129954241E+02  0.59143591271E+02  0.12700000000E+01 0.  1.
         25    2    1    2    0    0  0.00000000000E+00  0.00000000000E+00  0.69062045681E+01  0.12519196120E+03  0.12500132594E+03 0.  0.
    9000005    1    3    3    0    0 -0.73614314740E+01  0.19191380315E+02 -0.55652433163E+02  0.59335428445E+02  0.10000000000E+01 0.  0.
    9000005    1    3    3    0    0  0.73614314740E+01 -0.19191380315E+02  0.62558637731E+02  0.65856532755E+02  0.10000000000E+01 0.  0.
<mgrwt>
<rscale>  0 0.12500133E+03</rscale>
<asrwt>0</asrwt>
<pdfrwt beam="2">  1        4 0.90989044E-02 0.12500133E+03</pdfrwt>
<pdfrwt beam="1">  1       -4 0.10161397E-01 0.12500133E+03</pdfrwt>
<totfact> 0.10448382E+04</totfact>
</mgrwt>
</event>
<event>
 5    1  0.3317939E-002  0.1249973E+03  0.7818608E-02  0.1235074E+00
          4   -1    0    0  501    0  0.00000000000E+00  0.00000000000E+00  0.23405715448E+01  0.26629260516E+01  0.12700000000E+01 0. -1.
         -4   -1    0    0    0  501 -0.00000000000E+00 -0.00000000000E+00 -0.15610173080E+04  0.15610178246E+04  0.12700000000E+01 0. -1.
         25    2    1    2    0    0  0.00000000000E+00  0.00000000000E+00 -0.15586767365E+04  0.15636807507E+04  0.12499728497E+03 0.  0.
    9000005    1    3    3    0    0 -0.27198226811E+02  0.23245016513E+01 -0.76126034972E+02  0.80878427594E+02  0.10000000000E+01 0.  0.
    9000005    1    3    3    0    0  0.27198226811E+02 -0.23245016513E+01 -0.14825507015E+04  0.14828023231E+04  0.10000000000E+01 0.  0.
<mgrwt>
<rscale>  0 0.12499728E+03</rscale>
<asrwt>0</asrwt>
<pdfrwt beam="1">  1        4 0.38492542E-03 0.12499728E+03</pdfrwt>
<pdfrwt beam="2">  1       -4 0.24018057E+00 0.12499728E+03</pdfrwt>
<totfact> 0.16713144E+03</totfact>
</mgrwt>
</event>
<event>
 5    1  0.3317939E-002  0.1249611E+03  0.7818608E-02  0.1235130E+00
         -4   -1    0    0    0  501 -0.00000000000E+00  0.00000000000E+00  0.67718691732E+03  0.67718810820E+03  0.12700000000E+01 0.  1.
          4   -1    0    0  501    0  0.00000000000E+00 -0.00000000000E+00 -0.56935979740E+01  0.58335201970E+01  0.12700000000E+01 0.  1.
         25    2    1    2    0    0  0.00000000000E+00  0.00000000000E+00  0.67149331935E+03  0.68302162840E+03  0.12496106167E+03 0.  0.
    9000005    1    3    3    0    0  0.58193203325E+02 -0.21366781576E+02  0.37802458635E+03  0.38307515732E+03  0.10000000000E+01 0.  0.
    9000005    1    3    3    0    0 -0.58193203325E+02  0.21366781576E+02  0.29346873299E+03  0.29994647108E+03  0.10000000000E+01 0.  0.
<mgrwt>
<rscale>  0 0.12496106E+03</rscale>
<asrwt>0</asrwt>
<pdfrwt beam="2">  1        4 0.88679292E-03 0.12496106E+03</pdfrwt>
<pdfrwt beam="1">  1       -4 0.10419347E+00 0.12496106E+03</pdfrwt>
<totfact> 0.44035755E+03</totfact>
</mgrwt>
</event>
<event>
 5    1  0.3317939E-002  0.1250039E+03  0.7818608E-02  0.1235063E+00
         -4   -1    0    0    0  501 -0.00000000000E+00  0.00000000000E+00  0.50364968180E+03  0.50365128301E+03  0.12700000000E+01 0. -1.
          4   -1    0    0  501    0  0.00000000000E+00 -0.00000000000E+00 -0.77027571530E+01  0.78067514216E+01  0.12700000000E+01 0. -1.
         25    2    1    2    0    0  0.00000000000E+00  0.00000000000E+00  0.49594692464E+03  0.51145803443E+03  0.12500387561E+03 0.  0.
    9000005    1    3    3    0    0  0.51658446059E+02  0.25793959344E+02  0.15015500710E+03  0.16087712561E+03  0.10000000000E+01 0.  0.
    9000005    1    3    3    0    0 -0.51658446059E+02 -0.25793959344E+02  0.34579191755E+03  0.35058090882E+03  0.10000000000E+01 0.  0.
<mgrwt>
<rscale>  0 0.12500388E+03</rscale>
<asrwt>0</asrwt>
<pdfrwt beam="2">  1        4 0.11931619E-02 0.12500388E+03</pdfrwt>
<pdfrwt beam="1">  1       -4 0.77492712E-01 0.12500388E+03</pdfrwt>
<totfact> 0.54981499E+03</totfact>
</mgrwt>
</event>
<event>
 5    1  0.3317939E-002  0.1250004E+03  0.7818608E-02  0.1235069E+00
         -4   -1    0    0    0  501 -0.00000000000E+00  0.00000000000E+00  0.47030565531E+01  0.48715132086E+01  0.12700000000E+01 0.  1.
          4   -1    0    0  501    0  0.00000000000E+00 -0.00000000000E+00 -0.81579925664E+03  0.81580024518E+03  0.12700000000E+01 0.  1.
         25    2    1    2    0    0  0.00000000000E+00  0.00000000000E+00 -0.81109620009E+03  0.82067175839E+03  0.12500035688E+03 0.  0.
    9000005    1    3    3    0    0 -0.99100042596E+01 -0.23062604556E+02 -0.78127807891E+03  0.78168185888E+03  0.10000000000E+01 0.  0.
    9000005    1    3    3    0    0  0.99100042596E+01  0.23062604556E+02 -0.29818121179E+02  0.38989899512E+02  0.10000000000E+01 0.  0.
<mgrwt>
<rscale>  0 0.12500036E+03</rscale>
<asrwt>0</asrwt>
<pdfrwt beam="2">  1        4 0.12552050E+00 0.12500036E+03</pdfrwt>
<pdfrwt beam="1">  1       -4 0.73658206E-03 0.12500036E+03</pdfrwt>
<totfact> 0.37358119E+03</totfact>
</mgrwt>
</event>
<event>
 5    1  0.3317939E-002  0.1249992E+03  0.7818608E-02  0.1235071E+00
          4   -1    0    0  501    0  0.00000000000E+00  0.00000000000E+00  0.74277386047E+02  0.74288242528E+02  0.12700000000E+01 0.  1.
         -4   -1    0    0    0  501 -0.00000000000E+00 -0.00000000000E+00 -0.52566958703E+02  0.52582297851E+02  0.12700000000E+01 0.  1.
         25    2    1    2    0    0  0.00000000000E+00  0.00000000000E+00  0.21710427344E+02  0.12687054038E+03  0.12499916544E+03 0.  0.
    9000005    1    3    3    0    0  0.35841687700E+02 -0.49723609751E+02  0.23208454247E+02  0.65549189868E+02  0.10000000000E+01 0.  0.
    9000005    1    3    3    0    0 -0.35841687700E+02  0.49723609751E+02 -0.14980269032E+01  0.61321350511E+02  0.10000000000E+01 0.  0.
<mgrwt>
<rscale>  0 0.12499917E+03</rscale>
<asrwt>0</asrwt>
<pdfrwt beam="1">  1        4 0.11429305E-01 0.12499917E+03</pdfrwt>
<pdfrwt beam="2">  1       -4 0.80892394E-02 0.12499917E+03</pdfrwt>
<totfact> 0.10412156E+04</totfact>
</mgrwt>
</event>
<event>
 5    1  0.3317939E-002  0.1249884E+03  0.7818608E-02  0.1235087E+00
         -4   -1    0    0    0  501 -0.00000000000E+00  0.00000000000E+00  0.49499849311E+02  0.49516138599E+02  0.12700000000E+01 0. -1.
          4   -1    0    0  501    0  0.00000000000E+00 -0.00000000000E+00 -0.78865367727E+02  0.78875592719E+02  0.12700000000E+01 0. -1.
         25    2    1    2    0    0  0.00000000000E+00  0.00000000000E+00 -0.29365518416E+02  0.12839173132E+03  0.12498841146E+03 0.  0.
    9000005    1    3    3    0    0 -0.47451966648E+02 -0.32034222447E+01  0.26949489660E+02  0.54673814992E+02  0.10000000000E+01 0.  0.
    9000005    1    3    3    0    0  0.47451966648E+02  0.32034222447E+01 -0.56315008076E+02  0.73717916326E+02  0.10000000000E+01 0.  0.
<mgrwt>
<rscale>  0 0.12498841E+03</rscale>
<asrwt>0</asrwt>
<pdfrwt beam="2">  1        4 0.12135173E-01 0.12498841E+03</pdfrwt>
<pdfrwt beam="1">  1       -4 0.76174010E-02 0.12498841E+03</pdfrwt>
<totfact> 0.10381752E+04</totfact>
</mgrwt>
</event>
<event>
 5    1  0.3317939E-002  0.1250016E+03  0.7818608E-02  0.1235067E+00
          4   -1    0    0  501    0  0.00000000000E+00  0.00000000000E+00  0.46233278885E+02  0.46250718658E+02  0.12700000000E+01 0. -1.
         -4   -1    0    0    0  501 -0.00000000000E+00 -0.00000000000E+00 -0.84454045651E+02  0.84463594091E+02  0.12700000000E+01 0. -1.
         25    2    1    2    0    0  0.00000000000E+00  0.00000000000E+00 -0.38220766766E+02  0.13071431275E+03  0.12500161817E+03 0.  0.
    9000005    1    3    3    0    0  0.12334216132E+01 -0.62480531783E+02 -0.18991359079E+02  0.65322353758E+02  0.10000000000E+01 0.  0.
    9000005    1    3    3    0    0 -0.12334216132E+01  0.62480531783E+02 -0.19229407687E+02  0.65391958992E+02  0.10000000000E+01 0.  0.
<mgrwt>
<rscale>  0 0.12500162E+03</rscale>
<asrwt>0</asrwt>
<pdfrwt beam="1">  1        4 0.71148882E-02 0.12500162E+03</pdfrwt>
<pdfrwt beam="2">  1       -4 0.12995006E-01 0.12500162E+03</pdfrwt>
<totfact> 0.10328841E+04</totfact>
</mgrwt>
</event>
<event>
 5    1  0.3317939E-002  0.1249952E+03  0.7818608E-02  0.1235077E+00
         -4   -1    0    0    0  501 -0.00000000000E+00  0.00000000000E+00  0.43301343384E+02  0.43319963514E+02  0.12700000000E+01 0.  1.
          4   -1    0    0  501    0  0.00000000000E+00 -0.00000000000E+00 -0.90161345433E+02  0.90170289510E+02  0.12700000000E+01 0.  1.
         25    2    1    2    0    0  0.00000000000E+00  0.00000000000E+00 -0.46860002049E+02  0.13349025302E+03  0.12499515135E+03 0.  0.
    9000005    1    3    3    0    0 -0.26981109286E+02  0.46608568472E+02  0.10419690621E+02  0.54862636338E+02  0.10000000000E+01 0.  0.
    9000005    1    3    3    0    0  0.26981109286E+02 -0.46608568472E+02 -0.57279692670E+02  0.78627616686E+02  0.10000000000E+01 0.  0.
<mgrwt>
<rscale>  0 0.12499515E+03</rscale>
<asrwt>0</asrwt>
<pdfrwt beam="2">  1        4 0.13873097E-01 0.12499515E+03</pdfrwt>
<pdfrwt beam="1">  1       -4 0.66638655E-02 0.12499515E+03</pdfrwt>
<totfact> 0.10271115E+04</totfact>
</mgrwt>
</event>
<event>
 5    1  0.3317939E-002  0.1250002E+03  0.7818608E-02  0.1235069E+00
         -4   -1    0    0    0  501 -0.00000000000E+00  0.00000000000E+00  0.13615031652E+03  0.13615623963E+03  0.12700000000E+01 0.  1.
          4   -1    0    0  501    0  0.00000000000E+00 -0.00000000000E+00 -0.28670202200E+02  0.28698316922E+02  0.12700000000E+01 0.  1.
         25    2    1    2    0    0  0.00000000000E+00  0.00000000000E+00  0.10748011432E+03  0.16485455655E+03  0.12500019936E+03 0.  0.
    9000005    1    3    3    0    0  0.21743636989E+02 -0.40271347145E+02  0.10985944669E+03  0.11901539891E+03  0.10000000000E+01 0.  0.
    9000005    1    3    3    0    0 -0.21743636989E+02  0.40271347145E+02 -0.23793323701E+01  0.45839157637E+02  0.10000000000E+01 0.  0.
<mgrwt>
<rscale>  0 0.12500020E+03</rscale>
<asrwt>0</asrwt>
<pdfrwt beam="2">  1        4 0.44134187E-02 0.12500020E+03</pdfrwt>
<pdfrwt beam="1">  1       -4 0.20948820E-01 0.12500020E+03</pdfrwt>
<totfact> 0.96414512E+03</totfact>
</mgrwt>
</event>
<event>
 5    1  0.3317939E-002  0.1250003E+03  0.7818608E-02  0.1235069E+00
          4   -1    0    0  501    0  0.00000000000E+00  0.00000000000E+00  0.16601994131E+02  0.16650498765E+02  0.12700000000E+01 0.  1.
         -4   -1    0    0    0  501 -0.00000000000E+00 -0.00000000000E+00 -0.23489563742E+03  0.23489907062E+03  0.12700000000E+01 0.  1.
         25    2    1    2    0    0  0.00000000000E+00  0.00000000000E+00 -0.21829364329E+03  0.25154956939E+03  0.12500028463E+03 0.  0.
    9000005    1    3    3    0    0  0.38592651697E+02 -0.35323570528E+02 -0.17792590423E+03  0.18546097917E+03  0.10000000000E+01 0.  0.
    9000005    1    3    3    0    0 -0.38592651697E+02  0.35323570528E+02 -0.40367739061E+02  0.66088590216E+02  0.10000000000E+01 0.  0.
<mgrwt>
<rscale>  0 0.12500028E+03</rscale>
<asrwt>0</asrwt>
<pdfrwt beam="1">  1        4 0.25581483E-02 0.12500028E+03</pdfrwt>
<pdfrwt beam="2">  1       -4 0.36141783E-01 0.12500028E+03</pdfrwt>
<totfact> 0.82106262E+03</totfact>
</mgrwt>
</event>
<event>
 5    1  0.3317939E-002  0.1250066E+03  0.7818608E-02  0.1235059E+00
          4   -1    0    0  501    0  0.00000000000E+00  0.00000000000E+00  0.48456693353E+02  0.48473333192E+02  0.12700000000E+01 0.  1.
         -4   -1    0    0    0  501 -0.00000000000E+00 -0.00000000000E+00 -0.80586236897E+02  0.80596243568E+02  0.12700000000E+01 0.  1.
         25    2    1    2    0    0  0.00000000000E+00  0.00000000000E+00 -0.32129543544E+02  0.12906957676E+03  0.12500659213E+03 0.  0.
    9000005    1    3    3    0    0 -0.11264552092E+02 -0.60234067277E+02 -0.28736775795E+02  0.67689255259E+02  0.10000000000E+01 0.  0.
    9000005    1    3    3    0    0  0.11264552092E+02  0.60234067277E+02 -0.33927677497E+01  0.61380321501E+02  0.10000000000E+01 0.  0.
<mgrwt>
<rscale>  0 0.12500659E+03</rscale>
<asrwt>0</asrwt>
<pdfrwt beam="1">  1        4 0.74569256E-02 0.12500659E+03</pdfrwt>
<pdfrwt beam="2">  1       -4 0.12399932E-01 0.12500659E+03</pdfrwt>
<totfact> 0.10362910E+04</totfact>
</mgrwt>
</event>
<event>
 5    1  0.3317939E-002  0.1249995E+03  0.7818608E-02  0.1235070E+00
         -4   -1    0    0    0  501 -0.00000000000E+00  0.00000000000E+00  0.96856835353E+01  0.97685907656E+01  0.12700000000E+01 0.  1.
          4   -1    0    0  501    0  0.00000000000E+00 -0.00000000000E+00 -0.40149565496E+03  0.40149766357E+03  0.12700000000E+01 0.  1.
         25    2    1    2    0    0  0.00000000000E+00  0.00000000000E+00 -0.39180997143E+03  0.41126625434E+03  0.12499951299E+03 0.  0.
    9000005    1    3    3    0    0  0.10607452261E+02 -0.13310038112E+02  0.19293206587E+01  0.17158013761E+02  0.10000000000E+01 0.  0.
    9000005    1    3    3    0    0 -0.10607452261E+02  0.13310038112E+02 -0.39373929209E+03  0.39410824058E+03  0.10000000000E+01 0.  0.
<mgrwt>
<rscale>  0 0.12499951E+03</rscale>
<asrwt>0</asrwt>
<pdfrwt beam="2">  1        4 0.61775081E-01 0.12499951E+03</pdfrwt>
<pdfrwt beam="1">  1       -4 0.14966375E-02 0.12499951E+03</pdfrwt>
<totfact> 0.63472288E+03</totfact>
</mgrwt>
</event>
<event>
 5    1  0.3317939E-002  0.1250045E+03  0.7818608E-02  0.1235062E+00
          4   -1    0    0  501    0  0.00000000000E+00  0.00000000000E+00  0.17655376320E+02  0.17700994690E+02  0.12700000000E+01 0.  1.
         -4   -1    0    0    0  501 -0.00000000000E+00 -0.00000000000E+00 -0.22093293950E+03  0.22093658967E+03  0.12700000000E+01 0.  1.
         25    2    1    2    0    0  0.00000000000E+00  0.00000000000E+00 -0.20327756318E+03  0.23863758436E+03  0.12500451583E+03 0.  0.
    9000005    1    3    3    0    0 -0.15247406866E+02  0.60442801507E+02 -0.11011552176E+03  0.12653949503E+03  0.10000000000E+01 0.  0.
    9000005    1    3    3    0    0  0.15247406866E+02 -0.60442801507E+02 -0.93162041423E+02  0.11209808933E+03  0.10000000000E+01 0.  0.
<mgrwt>
<rscale>  0 0.12500452E+03</rscale>
<asrwt>0</asrwt>
<pdfrwt beam="1">  1        4 0.27200018E-02 0.12500452E+03</pdfrwt>
<pdfrwt beam="2">  1       -4 0.33993471E-01 0.12500452E+03</pdfrwt>
<totfact> 0.83992238E+03</totfact>
</mgrwt>
</event>
<event>
 5    1  0.3317939E-002  0.1250046E+03  0.7818608E-02  0.1235062E+00
         -4   -1    0    0    0  501 -0.00000000000E+00  0.00000000000E+00  0.10076837539E+03  0.10077637808E+03  0.12700000000E+01 0. -1.
          4   -1    0    0  501    0  0.00000000000E+00 -0.00000000000E+00 -0.38747519331E+02  0.38768326690E+02  0.12700000000E+01 0. -1.
         25    2    1    2    0    0  0.00000000000E+00  0.00000000000E+00  0.62020856057E+02  0.13954470477E+03  0.12500455209E+03 0.  0.
    9000005    1    3    3    0    0  0.45832828068E+02  0.23003946021E+02  0.70881933685E+02  0.87493303653E+02  0.10000000000E+01 0.  0.
    9000005    1    3    3    0    0 -0.45832828068E+02 -0.23003946021E+02 -0.88610776275E+01  0.52051401114E+02  0.10000000000E+01 0.  0.
<mgrwt>
<rscale>  0 0.12500455E+03</rscale>
<asrwt>0</asrwt>
<pdfrwt beam="2">  1        4 0.59633730E-02 0.12500455E+03</pdfrwt>
<pdfrwt beam="1">  1       -4 0.15505043E-01 0.12500455E+03</pdfrwt>
<totfact> 0.10141990E+04</totfact>
</mgrwt>
</event>
<event>
 5    1  0.3317939E-002  0.1249991E+03  0.7818608E-02  0.1235071E+00
         -4   -1    0    0    0  501 -0.00000000000E+00  0.00000000000E+00  0.34580840708E+03  0.34581073914E+03  0.12700000000E+01 0.  1.
          4   -1    0    0  501    0  0.00000000000E+00 -0.00000000000E+00 -0.11257754953E+02  0.11329163543E+02  0.12700000000E+01 0.  1.
         25    2    1    2    0    0  0.00000000000E+00  0.00000000000E+00  0.33455065212E+03  0.35713990268E+03  0.12499908501E+03 0.  0.
    9000005    1    3    3    0    0  0.49247787823E+02 -0.24660386152E+02  0.82918847207E+02  0.99549055610E+02  0.10000000000E+01 0.  0.
    9000005    1    3    3    0    0 -0.49247787823E+02  0.24660386152E+02  0.25163180492E+03  0.25759084707E+03  0.10000000000E+01 0.  0.
<mgrwt>
<rscale>  0 0.12499909E+03</rscale>
<asrwt>0</asrwt>
<pdfrwt beam="2">  1        4 0.17376347E-02 0.12499909E+03</pdfrwt>
<pdfrwt beam="1">  1       -4 0.53206964E-01 0.12499909E+03</pdfrwt>
<totfact> 0.68947551E+03</totfact>
</mgrwt>
</event>
<event>
 5    1  0.3317939E-002  0.1250008E+03  0.7818608E-02  0.1235068E+00
          4   -1    0    0  501    0  0.00000000000E+00  0.00000000000E+00  0.31665691878E+02  0.31691149270E+02  0.12700000000E+01 0.  1.
         -4   -1    0    0    0  501 -0.00000000000E+00 -0.00000000000E+00 -0.12328230107E+03  0.12328884239E+03  0.12700000000E+01 0.  1.
         25    2    1    2    0    0  0.00000000000E+00  0.00000000000E+00 -0.91616609195E+02  0.15497999166E+03  0.12500077894E+03 0.  0.
    9000005    1    3    3    0    0 -0.49492036068E+02 -0.12972997261E+02 -0.13202917292E+01  0.51190853307E+02  0.10000000000E+01 0.  0.
    9000005    1    3    3    0    0  0.49492036068E+02  0.12972997261E+02 -0.90296317466E+02  0.10378913835E+03  0.10000000000E+01 0.  0.
<mgrwt>
<rscale>  0 0.12500078E+03</rscale>
<asrwt>0</asrwt>
<pdfrwt beam="1">  1        4 0.48741064E-02 0.12500078E+03</pdfrwt>
<pdfrwt beam="2">  1       -4 0.18968969E-01 0.12500078E+03</pdfrwt>
<totfact> 0.98317705E+03</totfact>
</mgrwt>
</event>
<event>
 5    1  0.3317939E-002  0.1249951E+03  0.7818608E-02  0.1235077E+00
          4   -1    0    0  501    0  0.00000000000E+00  0.00000000000E+00  0.25639517630E+03  0.25639832162E+03  0.12700000000E+01 0.  1.
         -4   -1    0    0    0  501 -0.00000000000E+00 -0.00000000000E+00 -0.15204355841E+02  0.15257304367E+02  0.12700000000E+01 0.  1.
         25    2    1    2    0    0  0.00000000000E+00  0.00000000000E+00  0.24119082046E+03  0.27165562598E+03  0.12499506893E+03 0.  0.
    9000005    1    3    3    0    0 -0.62118063290E+02  0.67425079089E+01  0.11861945418E+03  0.13407345043E+03  0.10000000000E+01 0.  0.
    9000005    1    3    3    0    0  0.62118063290E+02 -0.67425079089E+01  0.12257136628E+03  0.13758217556E+03  0.10000000000E+01 0.  0.
<mgrwt>
<rscale>  0 0.12499507E+03</rscale>
<asrwt>0</asrwt>
<pdfrwt beam="1">  1        4 0.39449721E-01 0.12499507E+03</pdfrwt>
<pdfrwt beam="2">  1       -4 0.23434469E-02 0.12499507E+03</pdfrwt>
<totfact> 0.79306380E+03</totfact>
</mgrwt>
</event>
<event>
 5    1  0.3317939E-002  0.1250010E+03  0.7818608E-02  0.1235068E+00
          4   -1    0    0  501    0  0.00000000000E+00  0.00000000000E+00  0.30590680967E+02  0.30617032221E+02  0.12700000000E+01 0.  1.
         -4   -1    0    0    0  501 -0.00000000000E+00 -0.00000000000E+00 -0.12761159624E+03  0.12761791565E+03  0.12700000000E+01 0.  1.
         25    2    1    2    0    0  0.00000000000E+00  0.00000000000E+00 -0.97020915278E+02  0.15823494788E+03  0.12500096291E+03 0.  0.
    9000005    1    3    3    0    0 -0.46896411811E+02 -0.31916266446E+02 -0.15321757984E+02  0.58767999560E+02  0.10000000000E+01 0.  0.
    9000005    1    3    3    0    0  0.46896411811E+02  0.31916266446E+02 -0.81699157294E+02  0.99466948315E+02  0.10000000000E+01 0.  0.
<mgrwt>
<rscale>  0 0.12500096E+03</rscale>
<asrwt>0</asrwt>
<pdfrwt beam="1">  1        4 0.47087718E-02 0.12500096E+03</pdfrwt>
<pdfrwt beam="2">  1       -4 0.19635066E-01 0.12500096E+03</pdfrwt>
<totfact> 0.97682041E+03</totfact>
</mgrwt>
</event>
<event>
 5    1  0.3317939E-002  0.1250015E+03  0.7818608E-02  0.1235067E+00
          4   -1    0    0  501    0  0.00000000000E+00  0.00000000000E+00  0.27010851905E+02  0.27040691940E+02  0.12700000000E+01 0.  1.
         -4   -1    0    0    0  501 -0.00000000000E+00 -0.00000000000E+00 -0.14450889641E+03  0.14451447692E+03  0.12700000000E+01 0.  1.
         25    2    1    2    0    0  0.00000000000E+00  0.00000000000E+00 -0.11749804450E+03  0.17155516886E+03  0.12500154200E+03 0.  0.
    9000005    1    3    3    0    0 -0.20640642058E+02 -0.21492093767E+02 -0.13413748591E+03  0.13741110336E+03  0.10000000000E+01 0.  0.
    9000005    1    3    3    0    0  0.20640642058E+02  0.21492093767E+02  0.16639441409E+02  0.34144065509E+02  0.10000000000E+01 0.  0.
<mgrwt>
<rscale>  0 0.12500154E+03</rscale>
<asrwt>0</asrwt>
<pdfrwt beam="1">  1        4 0.41582404E-02 0.12500154E+03</pdfrwt>
<pdfrwt beam="2">  1       -4 0.22234862E-01 0.12500154E+03</pdfrwt>
<totfact> 0.95156274E+03</totfact>
</mgrwt>
</event>
<event>
 5    1  0.3317939E-002  0.1250021E+03  0.7818608E-02  0.1235066E+00
          4   -1    0    0  501    0  0.00000000000E+00  0.00000000000E+00  0.29753956105E+01  0.32351010863E+01  0.12700000000E+01 0.  1.
         -4   -1    0    0    0  501 -0.00000000000E+00 -0.00000000000E+00 -0.12577329345E+04  0.12577335757E+04  0.12700000000E+01 0.  1.
         25    2    1    2    0    0  0.00000000000E+00  0.00000000000E+00 -0.12547575389E+04  0.12609686768E+04  0.12500208966E+03 0.  0.
    9000005    1    3    3    0    0 -0.51849148541E+02  0.12478740968E+02 -0.95601218348E+03  0.95749900687E+03  0.10000000000E+01 0.  0.
    9000005    1    3    3    0    0  0.51849148541E+02 -0.12478740968E+02 -0.29874535538E+03  0.30346966989E+03  0.10000000000E+01 0.  0.
<mgrwt>
<rscale>  0 0.12500209E+03</rscale>
<asrwt>0</asrwt>
<pdfrwt beam="1">  1        4 0.47778084E-03 0.12500209E+03</pdfrwt>
<pdfrwt beam="2">  1       -4 0.19351699E+00 0.12500209E+03</pdfrwt>
<totfact> 0.23167882E+03</totfact>
</mgrwt>
</event>
<event>
 5    1  0.3317939E-002  0.1249978E+03  0.7818608E-02  0.1235073E+00
         -4   -1    0    0    0  501 -0.00000000000E+00  0.00000000000E+00  0.10202958815E+03  0.10203749192E+03  0.12700000000E+01 0. -1.
          4   -1    0    0  501    0  0.00000000000E+00 -0.00000000000E+00 -0.38264195486E+02  0.38285265523E+02  0.12700000000E+01 0. -1.
         25    2    1    2    0    0  0.00000000000E+00  0.00000000000E+00  0.63765392664E+02  0.14032275745E+03  0.12499780380E+03 0.  0.
    9000005    1    3    3    0    0 -0.45553526310E+02 -0.41546669723E+02  0.20441890691E+02  0.64962453921E+02  0.10000000000E+01 0.  0.
    9000005    1    3    3    0    0  0.45553526310E+02  0.41546669723E+02  0.43323501973E+02  0.75360303526E+02  0.10000000000E+01 0.  0.
<mgrwt>
<rscale>  0 0.12499780E+03</rscale>
<asrwt>0</asrwt>
<pdfrwt beam="2">  1        4 0.58890281E-02 0.12499780E+03</pdfrwt>
<pdfrwt beam="1">  1       -4 0.15699088E-01 0.12499780E+03</pdfrwt>
<totfact> 0.10127402E+04</totfact>
</mgrwt>
</event>
<event>
 5    1  0.3317939E-002  0.1250063E+03  0.7818608E-02  0.1235059E+00
          4   -1    0    0  501    0  0.00000000000E+00  0.00000000000E+00  0.12001673930E+02  0.12068681665E+02  0.12700000000E+01 0.  1.
         -4   -1    0    0    0  501 -0.00000000000E+00 -0.00000000000E+00 -0.32453378853E+03  0.32453627347E+03  0.12700000000E+01 0.  1.
         25    2    1    2    0    0  0.00000000000E+00  0.00000000000E+00 -0.31253211460E+03  0.33660495513E+03  0.12500629250E+03 0.  0.
    9000005    1    3    3    0    0 -0.44517692474E+02 -0.37342561426E+02 -0.94313293550E+02  0.11078036458E+03  0.10000000000E+01 0.  0.
    9000005    1    3    3    0    0  0.44517692474E+02  0.37342561426E+02 -0.21821882105E+03  0.22582459055E+03  0.10000000000E+01 0.  0.
<mgrwt>
<rscale>  0 0.12500629E+03</rscale>
<asrwt>0</asrwt>
<pdfrwt beam="1">  1        4 0.18517572E-02 0.12500629E+03</pdfrwt>
<pdfrwt beam="2">  1       -4 0.49933614E-01 0.12500629E+03</pdfrwt>
<totfact> 0.71213835E+03</totfact>
</mgrwt>
</event>
<event>
 5    1  0.3317939E-002  0.1249979E+03  0.7818608E-02  0.1235073E+00
          4   -1    0    0  501    0  0.00000000000E+00  0.00000000000E+00  0.28270608373E+03  0.28270893632E+03  0.12700000000E+01 0.  1.
         -4   -1    0    0    0  501 -0.00000000000E+00 -0.00000000000E+00 -0.13784778192E+02  0.13843157509E+02  0.12700000000E+01 0.  1.
         25    2    1    2    0    0  0.00000000000E+00  0.00000000000E+00  0.26892130553E+03  0.29655209383E+03  0.12499790312E+03 0.  0.
    9000005    1    3    3    0    0 -0.26051922333E+02 -0.78693260978E+00  0.26920693321E+03  0.27046754853E+03  0.10000000000E+01 0.  0.
    9000005    1    3    3    0    0  0.26051922333E+02  0.78693260978E+00 -0.28562767849E+00  0.26084545297E+02  0.10000000000E+01 0.  0.
<mgrwt>
<rscale>  0 0.12499790E+03</rscale>
<asrwt>0</asrwt>
<pdfrwt beam="1">  1        4 0.43497956E-01 0.12499790E+03</pdfrwt>
<pdfrwt beam="2">  1       -4 0.21254452E-02 0.12499790E+03</pdfrwt>
<totfact> 0.76036920E+03</totfact>
</mgrwt>
</event>
<event>
 5    1  0.3317939E-002  0.1249967E+03  0.7818608E-02  0.1235075E+00
          4   -1    0    0  501    0  0.00000000000E+00  0.00000000000E+00  0.58690649990E+01  0.60048999960E+01  0.12700000000E+01 0. -1.
         -4   -1    0    0    0  501 -0.00000000000E+00 -0.00000000000E+00 -0.65778043030E+03  0.65778165631E+03  0.12700000000E+01 0. -1.
         25    2    1    2    0    0  0.00000000000E+00  0.00000000000E+00 -0.65191136530E+03  0.66378655631E+03  0.12499665648E+03 0.  0.
    9000005    1    3    3    0    0  0.30025888516E+02  0.51359682343E+02 -0.22440688859E+03  0.23216119959E+03  0.10000000000E+01 0.  0.
    9000005    1    3    3    0    0 -0.30025888516E+02 -0.51359682343E+02 -0.42750447671E+03  0.43162535672E+03  0.10000000000E+01 0.  0.
<mgrwt>
<rscale>  0 0.12499666E+03</rscale>
<asrwt>0</asrwt>
<pdfrwt beam="1">  1        4 0.91347675E-03 0.12499666E+03</pdfrwt>
<pdfrwt beam="2">  1       -4 0.10120747E+00 0.12499666E+03</pdfrwt>
<totfact> 0.45071762E+03</totfact>
</mgrwt>
</event>
<event>
 5    1  0.3317939E-002  0.1250014E+03  0.7818608E-02  0.1235067E+00
         -4   -1    0    0    0  501 -0.00000000000E+00  0.00000000000E+00  0.85041743433E+01  0.85984813346E+01  0.12700000000E+01 0. -1.
          4   -1    0    0  501    0  0.00000000000E+00 -0.00000000000E+00 -0.45671521861E+03  0.45671698437E+03  0.12700000000E+01 0. -1.
         25    2    1    2    0    0  0.00000000000E+00  0.00000000000E+00 -0.44821104427E+03  0.46531546570E+03  0.12500136967E+03 0.  0.
    9000005    1    3    3    0    0  0.47419293744E+02 -0.37143275372E+02 -0.16213727364E+03  0.17296736058E+03  0.10000000000E+01 0.  0.
    9000005    1    3    3    0    0 -0.47419293744E+02  0.37143275372E+02 -0.28607377063E+03  0.29234810512E+03  0.10000000000E+01 0.  0.
<mgrwt>
<rscale>  0 0.12500137E+03</rscale>
<asrwt>0</asrwt>
<pdfrwt beam="2">  1        4 0.70271251E-01 0.12500137E+03</pdfrwt>
<pdfrwt beam="1">  1       -4 0.13157251E-02 0.12500137E+03</pdfrwt>
<totfact> 0.58657844E+03</totfact>
</mgrwt>
</event>
<event>
 5    1  0.3317939E-002  0.1249979E+03  0.7818608E-02  0.1235073E+00
         -4   -1    0    0    0  501 -0.00000000000E+00  0.00000000000E+00  0.54354040530E+01  0.55818023271E+01  0.12700000000E+01 0. -1.
          4   -1    0    0  501    0  0.00000000000E+00 -0.00000000000E+00 -0.70894759766E+03  0.70894873519E+03  0.12700000000E+01 0. -1.
         25    2    1    2    0    0  0.00000000000E+00  0.00000000000E+00 -0.70351219360E+03  0.71453053751E+03  0.12499792995E+03 0.  0.
    9000005    1    3    3    0    0 -0.28326826705E+02 -0.27809014686E+02 -0.75865287994E+02  0.85628805500E+02  0.10000000000E+01 0.  0.
    9000005    1    3    3    0    0  0.28326826705E+02  0.27809014686E+02 -0.62764690561E+03  0.62890173201E+03  0.10000000000E+01 0.  0.
<mgrwt>
<rscale>  0 0.12499793E+03</rscale>
<asrwt>0</asrwt>
<pdfrwt beam="2">  1        4 0.10908014E+00 0.12499793E+03</pdfrwt>
<pdfrwt beam="1">  1       -4 0.84756548E-03 0.12499793E+03</pdfrwt>
<totfact> 0.42332608E+03</totfact>
</mgrwt>
</event>
<event>
 5    1  0.3317939E-002  0.1249991E+03  0.7818608E-02  0.1235071E+00
         -4   -1    0    0    0  501 -0.00000000000E+00  0.00000000000E+00  0.18399525427E+01  0.22356934851E+01  0.12700000000E+01 0. -1.
          4   -1    0    0  501    0  0.00000000000E+00 -0.00000000000E+00 -0.19164500523E+04  0.19164504731E+04  0.12700000000E+01 0. -1.
         25    2    1    2    0    0  0.00000000000E+00  0.00000000000E+00 -0.19146100998E+04  0.19186861666E+04  0.12499908707E+03 0.  0.
    9000005    1    3    3    0    0 -0.46634920417E+02 -0.26076355442E+02 -0.14547839101E+04  0.14557650969E+04  0.10000000000E+01 0.  0.
    9000005    1    3    3    0    0  0.46634920417E+02  0.26076355442E+02 -0.45982618964E+03  0.46292106972E+03  0.10000000000E+01 0.  0.
<mgrwt>
<rscale>  0 0.12499909E+03</rscale>
<asrwt>0</asrwt>
<pdfrwt beam="2">  1        4 0.29486750E+00 0.12499909E+03</pdfrwt>
<pdfrwt beam="1">  1       -4 0.31354514E-03 0.12499909E+03</pdfrwt>
<totfact> 0.10960478E+03</totfact>
</mgrwt>
</event>
<event>
 5    1  0.3317939E-002  0.1249992E+03  0.7818608E-02  0.1235071E+00
         -4   -1    0    0    0  501 -0.00000000000E+00  0.00000000000E+00  0.31646981916E+02  0.31672454348E+02  0.12700000000E+01 0. -1.
          4   -1    0    0  501    0  0.00000000000E+00 -0.00000000000E+00 -0.12335200847E+03  0.12335854609E+03  0.12700000000E+01 0. -1.
         25    2    1    2    0    0  0.00000000000E+00  0.00000000000E+00 -0.91705026552E+02  0.15503100044E+03  0.12499919680E+03 0.  0.
    9000005    1    3    3    0    0 -0.46318331880E+02  0.15490929822E+02  0.24990694403E+01  0.48914232315E+02  0.10000000000E+01 0.  0.
    9000005    1    3    3    0    0  0.46318331880E+02 -0.15490929822E+02 -0.94204095992E+02  0.10611676812E+03  0.10000000000E+01 0.  0.
<mgrwt>
<rscale>  0 0.12499920E+03</rscale>
<asrwt>0</asrwt>
<pdfrwt beam="2">  1        4 0.18979694E-01 0.12499920E+03</pdfrwt>
<pdfrwt beam="1">  1       -4 0.48712288E-02 0.12499920E+03</pdfrwt>
<totfact> 0.98311189E+03</totfact>
</mgrwt>
</event>
<event>
 5    1  0.3317939E-002  0.1249995E+03  0.7818608E-02  0.1235070E+00
          4   -1    0    0  501    0  0.00000000000E+00  0.00000000000E+00  0.68717419280E+02  0.68729154022E+02  0.12700000000E+01 0.  1.
         -4   -1    0    0    0  501 -0.00000000000E+00 -0.00000000000E+00 -0.56820980470E+02  0.56835171519E+02  0.12700000000E+01 0.  1.
         25    2    1    2    0    0  0.00000000000E+00  0.00000000000E+00  0.11896438810E+02  0.12556432554E+03  0.12499949837E+03 0.  0.
    9000005    1    3    3    0    0 -0.55369333848E+02  0.52254219420E+01 -0.22678807849E+02  0.60069930004E+02  0.10000000000E+01 0.  0.
    9000005    1    3    3    0    0  0.55369333848E+02 -0.52254219420E+01  0.34575246658E+02  0.65494395537E+02  0.10000000000E+01 0.  0.
<mgrwt>
<rscale>  0 0.12499950E+03</rscale>
<asrwt>0</asrwt>
<pdfrwt beam="1">  1        4 0.10573905E-01 0.12499950E+03</pdfrwt>
<pdfrwt beam="2">  1       -4 0.87436836E-02 0.12499950E+03</pdfrwt>
<totfact> 0.10440652E+04</totfact>
</mgrwt>
</event>
<event>
 5    1  0.3317939E-002  0.1250009E+03  0.7818608E-02  0.1235068E+00
         -4   -1    0    0    0  501 -0.00000000000E+00  0.00000000000E+00  0.18808435965E+03  0.18808864731E+03  0.12700000000E+01 0. -1.
          4   -1    0    0  501    0  0.00000000000E+00 -0.00000000000E+00 -0.20744972650E+02  0.20783810773E+02  0.12700000000E+01 0. -1.
         25    2    1    2    0    0  0.00000000000E+00  0.00000000000E+00  0.16733938701E+03  0.20887245808E+03  0.12500093320E+03 0.  0.
    9000005    1    3    3    0    0 -0.20449961719E+02 -0.32052894163E+02  0.16654224358E+03  0.17083005547E+03  0.10000000000E+01 0.  0.
    9000005    1    3    3    0    0  0.20449961719E+02  0.32052894163E+02  0.79714343021E+00  0.38042402607E+02  0.10000000000E+01 0.  0.
<mgrwt>
<rscale>  0 0.12500093E+03</rscale>
<asrwt>0</asrwt>
<pdfrwt beam="2">  1        4 0.31948515E-02 0.12500093E+03</pdfrwt>
<pdfrwt beam="1">  1       -4 0.28939374E-01 0.12500093E+03</pdfrwt>
<totfact> 0.88658503E+03</totfact>
</mgrwt>
</event>
<event>
 5    1  0.3317939E-002  0.1249987E+03  0.7818608E-02  0.1235071E+00
          4   -1    0    0  501    0  0.00000000000E+00  0.00000000000E+00  0.68374445236E+02  0.68386238830E+02  0.12700000000E+01 0. -1.
         -4   -1    0    0    0  501 -0.00000000000E+00 -0.00000000000E+00 -0.57105301684E+02  0.57119422095E+02  0.12700000000E+01 0. -1.
         25    2    1    2    0    0  0.00000000000E+00  0.00000000000E+00  0.11269143552E+02  0.12550566092E+03  0.12499870930E+03 0.  0.
    9000005    1    3    3    0    0 -0.34397546027E+02 -0.51906410112E+02  0.10919258122E+02  0.63227342039E+02  0.10000000000E+01 0.  0.
    9000005    1    3    3    0    0  0.34397546027E+02  0.51906410112E+02  0.34988542982E+00  0.62278318886E+02  0.10000000000E+01 0.  0.
<mgrwt>
<rscale>  0 0.12499871E+03</rscale>
<asrwt>0</asrwt>
<pdfrwt beam="1">  1        4 0.10521139E-01 0.12499871E+03</pdfrwt>
<pdfrwt beam="2">  1       -4 0.87874245E-02 0.12499871E+03</pdfrwt>
<totfact> 0.10442133E+04</totfact>
</mgrwt>
</event>
<event>
 5    1  0.3317939E-002  0.1249988E+03  0.7818608E-02  0.1235071E+00
          4   -1    0    0  501    0  0.00000000000E+00  0.00000000000E+00  0.45312806548E+02  0.45330600451E+02  0.12700000000E+01 0.  1.
         -4   -1    0    0    0  501 -0.00000000000E+00 -0.00000000000E+00 -0.86165271861E+02  0.86174630691E+02  0.12700000000E+01 0.  1.
         25    2    1    2    0    0  0.00000000000E+00  0.00000000000E+00 -0.40852465312E+02  0.13150523114E+03  0.12499880758E+03 0.  0.
    9000005    1    3    3    0    0 -0.25518466210E+02  0.45378122237E+02  0.15939008362E+02  0.54455652444E+02  0.10000000000E+01 0.  0.
    9000005    1    3    3    0    0  0.25518466210E+02 -0.45378122237E+02 -0.56791473675E+02  0.77049578699E+02  0.10000000000E+01 0.  0.
<mgrwt>
<rscale>  0 0.12499881E+03</rscale>
<asrwt>0</asrwt>
<pdfrwt beam="1">  1        4 0.69732897E-02 0.12499881E+03</pdfrwt>
<pdfrwt beam="2">  1       -4 0.13258284E-01 0.12499881E+03</pdfrwt>
<totfact> 0.10312548E+04</totfact>
</mgrwt>
</event>
<event>
 5    1  0.3317939E-002  0.1249987E+03  0.7818608E-02  0.1235071E+00
         -4   -1    0    0    0  501 -0.00000000000E+00  0.00000000000E+00  0.97074823826E+02  0.97083130980E+02  0.12700000000E+01 0. -1.
          4   -1    0    0  501    0  0.00000000000E+00 -0.00000000000E+00 -0.40218662176E+02  0.40238708817E+02  0.12700000000E+01 0. -1.
         25    2    1    2    0    0  0.00000000000E+00  0.00000000000E+00  0.56856161650E+02  0.13732183980E+03  0.12499865826E+03 0.  0.
    9000005    1    3    3    0    0  0.48640992208E+02 -0.39112499539E+02  0.25054078805E+02  0.67263962178E+02  0.10000000000E+01 0.  0.
    9000005    1    3    3    0    0 -0.48640992208E+02  0.39112499539E+02  0.31802082845E+02  0.70057877619E+02  0.10000000000E+01 0.  0.
<mgrwt>
<rscale>  0 0.12499866E+03</rscale>
<asrwt>0</asrwt>
<pdfrwt beam="2">  1        4 0.61896676E-02 0.12499866E+03</pdfrwt>
<pdfrwt beam="1">  1       -4 0.14936769E-01 0.12499866E+03</pdfrwt>
<totfact> 0.10189669E+04</totfact>
</mgrwt>
</event>
<event>
 5    1  0.3317939E-002  0.1250149E+03  0.7818608E-02  0.1235046E+00
          4   -1    0    0  501    0  0.00000000000E+00  0.00000000000E+00  0.62306527981E+01  0.63587682998E+01  0.12700000000E+01 0.  1.
         -4   -1    0    0    0  501 -0.00000000000E+00 -0.00000000000E+00 -0.62057946770E+03  0.62058076721E+03  0.12700000000E+01 0.  1.
         25    2    1    2    0    0  0.00000000000E+00  0.00000000000E+00 -0.61434881490E+03  0.62693953550E+03  0.12501485837E+03 0.  0.
    9000005    1    3    3    0    0 -0.57361115023E+02  0.15507225727E+02 -0.40434062276E+03  0.40868461041E+03  0.10000000000E+01 0.  0.
    9000005    1    3    3    0    0  0.57361115023E+02 -0.15507225727E+02 -0.21000819213E+03  0.21825492510E+03  0.10000000000E+01 0.  0.
<mgrwt>
<rscale>  0 0.12501486E+03</rscale>
<asrwt>0</asrwt>
<pdfrwt beam="1">  1        4 0.96851746E-03 0.12501486E+03</pdfrwt>
<pdfrwt beam="2">  1       -4 0.95483671E-01 0.12501486E+03</pdfrwt>
<totfact> 0.47194748E+03</totfact>
</mgrwt>
</event>
<event>
 4    1  0.3317939E-002  0.1237369E+03  0.7818608E-02  0.1237057E+00
          4   -1    0    0  501    0  0.00000000000E+00  0.00000000000E+00  0.19193430859E+03  0.19193851025E+03  0.12700000000E+01 0.  1.
         -4   -1    0    0    0  501 -0.00000000000E+00 -0.00000000000E+00 -0.19918130952E+02  0.19958578121E+02  0.12700000000E+01 0.  1.
    9000005    1    1    2    0    0 -0.47675785163E+02  0.88448081275E+00  0.15349246173E+03  0.16073175979E+03  0.10000000000E+01 0.  0.
    9000005    1    1    2    0    0  0.47675785163E+02 -0.88448081275E+00  0.18523715913E+02  0.51165328578E+02  0.10000000000E+01 0.  0.
<mgrwt>
<rscale>  0 0.12373686E+03</rscale>
<asrwt>0</asrwt>
<pdfrwt beam="1">  1        4 0.29531790E-01 0.12373686E+03</pdfrwt>
<pdfrwt beam="2">  1       -4 0.30677623E-02 0.12373686E+03</pdfrwt>
<totfact> 0.90703317E+03</totfact>
</mgrwt>
</event>
<event>
 5    1  0.3317939E-002  0.1249586E+03  0.7818608E-02  0.1235134E+00
         -4   -1    0    0    0  501 -0.00000000000E+00  0.00000000000E+00  0.17833669629E+02  0.17878833083E+02  0.12700000000E+01 0.  1.
          4   -1    0    0  501    0  0.00000000000E+00 -0.00000000000E+00 -0.21856897614E+03  0.21857266579E+03  0.12700000000E+01 0.  1.
         25    2    1    2    0    0  0.00000000000E+00  0.00000000000E+00 -0.20073530651E+03  0.23645149887E+03  0.12495858530E+03 0.  0.
    9000005    1    3    3    0    0 -0.30493512088E+01 -0.57855232252E+02 -0.56146893235E+02  0.80684571398E+02  0.10000000000E+01 0.  0.
    9000005    1    3    3    0    0  0.30493512088E+01  0.57855232252E+02 -0.14458841327E+03  0.15576692747E+03  0.10000000000E+01 0.  0.
<mgrwt>
<rscale>  0 0.12495859E+03</rscale>
<asrwt>0</asrwt>
<pdfrwt beam="2">  1        4 0.33629752E-01 0.12495859E+03</pdfrwt>
<pdfrwt beam="1">  1       -4 0.27473996E-02 0.12495859E+03</pdfrwt>
<totfact> 0.84406637E+03</totfact>
</mgrwt>
</event>
<event>
 5    1  0.3317939E-002  0.1249996E+03  0.7818608E-02  0.1235070E+00
          4   -1    0    0  501    0  0.00000000000E+00  0.00000000000E+00  0.16195184637E+02  0.16244903983E+02  0.12700000000E+01 0. -1.
         -4   -1    0    0    0  501 -0.00000000000E+00 -0.00000000000E+00 -0.24077568028E+03  0.24077902964E+03  0.12700000000E+01 0. -1.
         25    2    1    2    0    0  0.00000000000E+00  0.00000000000E+00 -0.22458049565E+03  0.25702393362E+03  0.12499961373E+03 0.  0.
    9000005    1    3    3    0    0 -0.15693169623E+02 -0.42975593587E+02 -0.19981881529E+03  0.20499203926E+03  0.10000000000E+01 0.  0.
    9000005    1    3    3    0    0  0.15693169623E+02  0.42975593587E+02 -0.24761680357E+02  0.52031894364E+02  0.10000000000E+01 0.  0.
<mgrwt>
<rscale>  0 0.12499961E+03</rscale>
<asrwt>0</asrwt>
<pdfrwt beam="1">  1        4 0.24956492E-02 0.12499961E+03</pdfrwt>
<pdfrwt beam="2">  1       -4 0.37046492E-01 0.12499961E+03</pdfrwt>
<totfact> 0.81326232E+03</totfact>
</mgrwt>
</event>
<event>
 5    1  0.3317939E-002  0.1250038E+03  0.7818608E-02  0.1235063E+00
          4   -1    0    0  501    0  0.00000000000E+00  0.00000000000E+00  0.31725372022E+03  0.31725626218E+03  0.12700000000E+01 0.  1.
         -4   -1    0    0    0  501 -0.00000000000E+00 -0.00000000000E+00 -0.12278110295E+02  0.12343617477E+02  0.12700000000E+01 0.  1.
         25    2    1    2    0    0  0.00000000000E+00  0.00000000000E+00  0.30497560992E+03  0.32959987966E+03  0.12500383203E+03 0.  0.
    9000005    1    3    3    0    0  0.46032401144E+01 -0.49003415111E+02  0.50949673422E+02  0.70847679807E+02  0.10000000000E+01 0.  0.
    9000005    1    3    3    0    0 -0.46032401144E+01  0.49003415111E+02  0.25402593650E+03  0.25875219985E+03  0.10000000000E+01 0.  0.
<mgrwt>
<rscale>  0 0.12500383E+03</rscale>
<asrwt>0</asrwt>
<pdfrwt beam="1">  1        4 0.48813496E-01 0.12500383E+03</pdfrwt>
<pdfrwt beam="2">  1       -4 0.18941747E-02 0.12500383E+03</pdfrwt>
<totfact> 0.72022595E+03</totfact>
</mgrwt>
</event>
<event>
 5    1  0.3317939E-002  0.1250304E+03  0.7818608E-02  0.1235022E+00
          4   -1    0    0  501    0  0.00000000000E+00  0.00000000000E+00  0.33824663560E+03  0.33824901980E+03  0.12700000000E+01 0. -1.
         -4   -1    0    0    0  501 -0.00000000000E+00 -0.00000000000E+00 -0.11516809016E+02  0.11586621160E+02  0.12700000000E+01 0. -1.
         25    2    1    2    0    0  0.00000000000E+00  0.00000000000E+00  0.32672982659E+03  0.34983564096E+03  0.12503038073E+03 0.  0.
    9000005    1    3    3    0    0  0.93991394897E+01 -0.54514871002E+02  0.81937002115E+02  0.98868029712E+02  0.10000000000E+01 0.  0.
    9000005    1    3    3    0    0 -0.93991394897E+01  0.54514871002E+02  0.24479282447E+03  0.25096761125E+03  0.10000000000E+01 0.  0.
<mgrwt>
<rscale>  0 0.12503038E+03</rscale>
<asrwt>0</asrwt>
<pdfrwt beam="1">  1        4 0.52043498E-01 0.12503038E+03</pdfrwt>
<pdfrwt beam="2">  1       -4 0.17773703E-02 0.12503038E+03</pdfrwt>
<totfact> 0.69695769E+03</totfact>
</mgrwt>
</event>
<event>
 5    1  0.3317939E-002  0.1250008E+03  0.7818608E-02  0.1235068E+00
         -4   -1    0    0    0  501 -0.00000000000E+00  0.00000000000E+00  0.39316978913E+02  0.39337485060E+02  0.12700000000E+01 0.  1.
          4   -1    0    0  501    0  0.00000000000E+00 -0.00000000000E+00 -0.99303515485E+02  0.99311636215E+02  0.12700000000E+01 0.  1.
         25    2    1    2    0    0  0.00000000000E+00  0.00000000000E+00 -0.59986536573E+02  0.13864912127E+03  0.12500077704E+03 0.  0.
    9000005    1    3    3    0    0  0.23787350817E+02 -0.27661864569E+02 -0.86270463951E+02  0.93672887009E+02  0.10000000000E+01 0.  0.
    9000005    1    3    3    0    0 -0.23787350817E+02  0.27661864569E+02  0.26283927378E+02  0.44976234266E+02  0.10000000000E+01 0.  0.
<mgrwt>
<rscale>  0 0.12500078E+03</rscale>
<asrwt>0</asrwt>
<pdfrwt beam="2">  1        4 0.15279666E-01 0.12500078E+03</pdfrwt>
<pdfrwt beam="1">  1       -4 0.60509681E-02 0.12500078E+03</pdfrwt>
<totfact> 0.10161482E+04</totfact>
</mgrwt>
</event>
<event>
 5    1  0.3317939E-002  0.1250068E+03  0.7818608E-02  0.1235059E+00
          4   -1    0    0  501    0  0.00000000000E+00  0.00000000000E+00  0.10352653499E+03  0.10353432449E+03  0.12700000000E+01 0. -1.
         -4   -1    0    0    0  501 -0.00000000000E+00 -0.00000000000E+00 -0.37716072692E+02  0.37737448765E+02  0.12700000000E+01 0. -1.
         25    2    1    2    0    0  0.00000000000E+00  0.00000000000E+00  0.65810462298E+02  0.14127177325E+03  0.12500678770E+03 0.  0.
    9000005    1    3    3    0    0 -0.30749963253E+02  0.53874343307E+02  0.41487330193E+02  0.74633797126E+02  0.10000000000E+01 0.  0.
    9000005    1    3    3    0    0  0.30749963253E+02 -0.53874343307E+02  0.24323132104E+02  0.66637976126E+02  0.10000000000E+01 0.  0.
<mgrwt>
<rscale>  0 0.12500679E+03</rscale>
<asrwt>0</asrwt>
<pdfrwt beam="1">  1        4 0.15929403E-01 0.12500679E+03</pdfrwt>
<pdfrwt beam="2">  1       -4 0.58047162E-02 0.12500679E+03</pdfrwt>
<totfact> 0.10105750E+04</totfact>
</mgrwt>
</event>
<event>
 5    1  0.3317939E-002  0.1249999E+03  0.7818608E-02  0.1235070E+00
         -4   -1    0    0    0  501 -0.00000000000E+00  0.00000000000E+00  0.10218388257E+03  0.10219177441E+03  0.12700000000E+01 0.  1.
          4   -1    0    0  501    0  0.00000000000E+00 -0.00000000000E+00 -0.38207645133E+02  0.38228746339E+02  0.12700000000E+01 0.  1.
         25    2    1    2    0    0  0.00000000000E+00  0.00000000000E+00  0.63976237438E+02  0.14042052075E+03  0.12499985476E+03 0.  0.
    9000005    1    3    3    0    0 -0.59866945171E+02 -0.83578967885E+01  0.49797460451E+02  0.78324278676E+02  0.10000000000E+01 0.  0.
    9000005    1    3    3    0    0  0.59866945171E+02  0.83578967885E+01  0.14178776988E+02  0.62096242074E+02  0.10000000000E+01 0.  0.
<mgrwt>
<rscale>  0 0.12499985E+03</rscale>
<asrwt>0</asrwt>
<pdfrwt beam="2">  1        4 0.58803295E-02 0.12499985E+03</pdfrwt>
<pdfrwt beam="1">  1       -4 0.15722827E-01 0.12499985E+03</pdfrwt>
<totfact> 0.10124911E+04</totfact>
</mgrwt>
</event>
<event>
 5    1  0.3317939E-002  0.1249966E+03  0.7818608E-02  0.1235075E+00
          4   -1    0    0  501    0  0.00000000000E+00  0.00000000000E+00  0.10757133939E+03  0.10757883601E+03  0.12700000000E+01 0.  1.
         -4   -1    0    0    0  501 -0.00000000000E+00 -0.00000000000E+00 -0.36291252165E+02  0.36313466975E+02  0.12700000000E+01 0.  1.
         25    2    1    2    0    0  0.00000000000E+00  0.00000000000E+00  0.71280087225E+02  0.14389230299E+03  0.12499657605E+03 0.  0.
    9000005    1    3    3    0    0  0.44469431286E+02 -0.43228889296E+02  0.44465007218E+02  0.76317783350E+02  0.10000000000E+01 0.  0.
    9000005    1    3    3    0    0 -0.44469431286E+02  0.43228889296E+02  0.26815080007E+02  0.67574519639E+02  0.10000000000E+01 0.  0.
<mgrwt>
<rscale>  0 0.12499658E+03</rscale>
<asrwt>0</asrwt>
<pdfrwt beam="1">  1        4 0.16551722E-01 0.12499658E+03</pdfrwt>
<pdfrwt beam="2">  1       -4 0.55855551E-02 0.12499658E+03</pdfrwt>
<totfact> 0.10054318E+04</totfact>
</mgrwt>
</event>
<event>
 5    1  0.3317939E-002  0.1250000E+03  0.7818608E-02  0.1235069E+00
         -4   -1    0    0    0  501 -0.00000000000E+00  0.00000000000E+00  0.68295706328E+03  0.68295824410E+03  0.12700000000E+01 0.  1.
          4   -1    0    0  501    0  0.00000000000E+00 -0.00000000000E+00 -0.56479138342E+01  0.57889403761E+01  0.12700000000E+01 0.  1.
         25    2    1    2    0    0  0.00000000000E+00  0.00000000000E+00  0.67730914945E+03  0.68874718448E+03  0.12500000080E+03 0.  0.
    9000005    1    3    3    0    0  0.52916265912E+02 -0.32682426794E+02  0.30514873266E+03  0.31142418221E+03  0.10000000000E+01 0.  0.
    9000005    1    3    3    0    0 -0.52916265912E+02  0.32682426794E+02  0.37216041678E+03  0.37732300227E+03  0.10000000000E+01 0.  0.
<mgrwt>
<rscale>  0 0.12500000E+03</rscale>
<asrwt>0</asrwt>
<pdfrwt beam="2">  1        4 0.87984959E-03 0.12500000E+03</pdfrwt>
<pdfrwt beam="1">  1       -4 0.10508117E+00 0.12500000E+03</pdfrwt>
<totfact> 0.43687435E+03</totfact>
</mgrwt>
</event>
<event>
 4    1  0.3317939E-002  0.1252499E+03  0.7818608E-02  0.1234679E+00
         -4   -1    0    0    0  501 -0.00000000000E+00  0.00000000000E+00  0.11447880887E+02  0.11518110818E+02  0.12700000000E+01 0. -1.
          4   -1    0    0  501    0  0.00000000000E+00 -0.00000000000E+00 -0.34146679941E+03  0.34146916113E+03  0.12700000000E+01 0. -1.
    9000005    1    1    2    0    0  0.54421860084E+02  0.25354043568E+02 -0.21513303441E+03  0.22335574511E+03  0.10000000000E+01 0.  0.
    9000005    1    1    2    0    0 -0.54421860084E+02 -0.25354043568E+02 -0.11488588412E+03  0.12963152684E+03  0.10000000000E+01 0.  0.
<mgrwt>
<rscale>  0 0.12524986E+03</rscale>
<asrwt>0</asrwt>
<pdfrwt beam="2">  1        4 0.52538930E-01 0.12524986E+03</pdfrwt>
<pdfrwt beam="1">  1       -4 0.17667967E-02 0.12524986E+03</pdfrwt>
<totfact> 0.69014892E+03</totfact>
</mgrwt>
</event>
<event>
 5    1  0.3317939E-002  0.1250014E+03  0.7818608E-02  0.1235067E+00
         -4   -1    0    0    0  501 -0.00000000000E+00  0.00000000000E+00  0.37971094571E+01  0.40038656607E+01  0.12700000000E+01 0. -1.
          4   -1    0    0  501    0  0.00000000000E+00 -0.00000000000E+00 -0.10012926362E+04  0.10012934416E+04  0.12700000000E+01 0. -1.
         25    2    1    2    0    0  0.00000000000E+00  0.00000000000E+00 -0.99749552677E+03  0.10052973073E+04  0.12500140052E+03 0.  0.
    9000005    1    3    3    0    0 -0.38611690322E+02 -0.45508351060E+02 -0.64779393078E+03  0.65053812294E+03  0.10000000000E+01 0.  0.
    9000005    1    3    3    0    0  0.38611690322E+02  0.45508351060E+02 -0.34970159598E+03  0.35475918435E+03  0.10000000000E+01 0.  0.
<mgrwt>
<rscale>  0 0.12500140E+03</rscale>
<asrwt>0</asrwt>
<pdfrwt beam="2">  1        4 0.15406078E+00 0.12500140E+03</pdfrwt>
<pdfrwt beam="1">  1       -4 0.60013776E-03 0.12500140E+03</pdfrwt>
<totfact> 0.30429326E+03</totfact>
</mgrwt>
</event>
<event>
 5    1  0.3317939E-002  0.1249985E+03  0.7818608E-02  0.1235072E+00
          4   -1    0    0  501    0  0.00000000000E+00  0.00000000000E+00  0.24189778683E+02  0.24223094202E+02  0.12700000000E+01 0. -1.
         -4   -1    0    0    0  501 -0.00000000000E+00 -0.00000000000E+00 -0.16133257145E+03  0.16133757005E+03  0.12700000000E+01 0. -1.
         25    2    1    2    0    0  0.00000000000E+00  0.00000000000E+00 -0.13714279276E+03  0.18556066425E+03  0.12499845803E+03 0.  0.
    9000005    1    3    3    0    0  0.48993749826E+02  0.20676800900E+02 -0.19848096483E+02  0.56770278768E+02  0.10000000000E+01 0.  0.
    9000005    1    3    3    0    0 -0.48993749826E+02 -0.20676800900E+02 -0.11729469628E+03  0.12879038548E+03  0.10000000000E+01 0.  0.
<mgrwt>
<rscale>  0 0.12499846E+03</rscale>
<asrwt>0</asrwt>
<pdfrwt beam="1">  1        4 0.37244518E-02 0.12499846E+03</pdfrwt>
<pdfrwt beam="2">  1       -4 0.24823342E-01 0.12499846E+03</pdfrwt>
<totfact> 0.92628735E+03</totfact>
</mgrwt>
</event>
<event>
 5    1  0.3317939E-002  0.1249885E+03  0.7818608E-02  0.1235087E+00
         -4   -1    0    0    0  501 -0.00000000000E+00  0.00000000000E+00  0.89689080246E+02  0.89698071414E+02  0.12700000000E+01 0.  1.
          4   -1    0    0  501    0  0.00000000000E+00 -0.00000000000E+00 -0.43524787644E+02  0.43543312225E+02  0.12700000000E+01 0.  1.
         25    2    1    2    0    0  0.00000000000E+00  0.00000000000E+00  0.46164292601E+02  0.13324138364E+03  0.12498849708E+03 0.  0.
    9000005    1    3    3    0    0  0.37211560330E+02  0.11747922638E+02  0.75108489424E+02  0.84646317652E+02  0.10000000000E+01 0.  0.
    9000005    1    3    3    0    0 -0.37211560330E+02 -0.11747922638E+02 -0.28944196823E+02  0.48595065986E+02  0.10000000000E+01 0.  0.
<mgrwt>
<rscale>  0 0.12498850E+03</rscale>
<asrwt>0</asrwt>
<pdfrwt beam="2">  1        4 0.66982378E-02 0.12498850E+03</pdfrwt>
<pdfrwt beam="1">  1       -4 0.13800437E-01 0.12498850E+03</pdfrwt>
<totfact> 0.10277939E+04</totfact>
</mgrwt>
</event>
<event>
 5    1  0.3317939E-002  0.1250203E+03  0.7818608E-02  0.1235038E+00
         -4   -1    0    0    0  501 -0.00000000000E+00  0.00000000000E+00  0.11871821211E+02  0.11939557734E+02  0.12700000000E+01 0. -1.
          4   -1    0    0  501    0  0.00000000000E+00 -0.00000000000E+00 -0.32813679808E+03  0.32813925573E+03  0.12700000000E+01 0. -1.
         25    2    1    2    0    0  0.00000000000E+00  0.00000000000E+00 -0.31626497686E+03  0.34007881346E+03  0.12502025346E+03 0.  0.
    9000005    1    3    3    0    0 -0.15745584714E+02 -0.52649656315E+02 -0.23912867698E+03  0.24536388059E+03  0.10000000000E+01 0.  0.
    9000005    1    3    3    0    0  0.15745584714E+02  0.52649656315E+02 -0.77136299888E+02  0.94714932870E+02  0.10000000000E+01 0.  0.
<mgrwt>
<rscale>  0 0.12502025E+03</rscale>
<asrwt>0</asrwt>
<pdfrwt beam="2">  1        4 0.50487977E-01 0.12502025E+03</pdfrwt>
<pdfrwt beam="1">  1       -4 0.18318338E-02 0.12502025E+03</pdfrwt>
<totfact> 0.70798225E+03</totfact>
</mgrwt>
</event>
<event>
 5    1  0.3317939E-002  0.1250083E+03  0.7818608E-02  0.1235056E+00
          4   -1    0    0  501    0  0.00000000000E+00  0.00000000000E+00  0.14321711406E+03  0.14322274491E+03  0.12700000000E+01 0. -1.
         -4   -1    0    0    0  501 -0.00000000000E+00 -0.00000000000E+00 -0.27257703624E+02  0.27287273716E+02  0.12700000000E+01 0. -1.
         25    2    1    2    0    0  0.00000000000E+00  0.00000000000E+00  0.11595941044E+03  0.17051001863E+03  0.12500832605E+03 0.  0.
    9000005    1    3    3    0    0  0.12469208196E+01  0.43659762922E+02  0.11894927434E+03  0.12671882092E+03  0.10000000000E+01 0.  0.
    9000005    1    3    3    0    0 -0.12469208196E+01 -0.43659762922E+02 -0.29898639056E+01  0.43791197702E+02  0.10000000000E+01 0.  0.
<mgrwt>
<rscale>  0 0.12500833E+03</rscale>
<asrwt>0</asrwt>
<pdfrwt beam="1">  1        4 0.22036110E-01 0.12500833E+03</pdfrwt>
<pdfrwt beam="2">  1       -4 0.41962006E-02 0.12500833E+03</pdfrwt>
<totfact> 0.95335844E+03</totfact>
</mgrwt>
</event>
<event>
 5    1  0.3317939E-002  0.1250001E+03  0.7818608E-02  0.1235069E+00
          4   -1    0    0  501    0  0.00000000000E+00  0.00000000000E+00  0.10105649775E+03  0.10106447762E+03  0.12700000000E+01 0. -1.
         -4   -1    0    0    0  501 -0.00000000000E+00 -0.00000000000E+00 -0.38634235323E+02  0.38655103661E+02  0.12700000000E+01 0. -1.
         25    2    1    2    0    0  0.00000000000E+00  0.00000000000E+00  0.62422262426E+02  0.13971958128E+03  0.12500009019E+03 0.  0.
    9000005    1    3    3    0    0  0.88191164845E+01  0.11246248308E+02  0.99210758752E+02  0.10023986018E+03  0.10000000000E+01 0.  0.
    9000005    1    3    3    0    0 -0.88191164845E+01 -0.11246248308E+02 -0.36788496326E+02  0.39479721105E+02  0.10000000000E+01 0.  0.
<mgrwt>
<rscale>  0 0.12500009E+03</rscale>
<asrwt>0</asrwt>
<pdfrwt beam="1">  1        4 0.15549373E-01 0.12500009E+03</pdfrwt>
<pdfrwt beam="2">  1       -4 0.59459476E-02 0.12500009E+03</pdfrwt>
<totfact> 0.10139380E+04</totfact>
</mgrwt>
</event>
<event>
 5    1  0.3317939E-002  0.1250009E+03  0.7818608E-02  0.1235068E+00
         -4   -1    0    0    0  501 -0.00000000000E+00  0.00000000000E+00  0.17340193944E+02  0.17386639296E+02  0.12700000000E+01 0. -1.
          4   -1    0    0  501    0  0.00000000000E+00 -0.00000000000E+00 -0.22492498210E+03  0.22492856749E+03  0.12700000000E+01 0. -1.
         25    2    1    2    0    0  0.00000000000E+00  0.00000000000E+00 -0.20758478816E+03  0.24231520679E+03  0.12500086066E+03 0.  0.
    9000005    1    3    3    0    0  0.51300558676E+02  0.31564129560E+02 -0.13607086815E+03  0.14880968636E+03  0.10000000000E+01 0.  0.
    9000005    1    3    3    0    0 -0.51300558676E+02 -0.31564129560E+02 -0.71513920003E+02  0.93505520423E+02  0.10000000000E+01 0.  0.
<mgrwt>
<rscale>  0 0.12500086E+03</rscale>
<asrwt>0</asrwt>
<pdfrwt beam="2">  1        4 0.34607690E-01 0.12500086E+03</pdfrwt>
<pdfrwt beam="1">  1       -4 0.26715708E-02 0.12500086E+03</pdfrwt>
<totfact> 0.83452162E+03</totfact>
</mgrwt>
</event>
<event>
 5    1  0.3317939E-002  0.1249646E+03  0.7818608E-02  0.1235125E+00
         -4   -1    0    0    0  501 -0.00000000000E+00  0.00000000000E+00  0.22553423848E+03  0.22553781418E+03  0.12700000000E+01 0. -1.
          4   -1    0    0  501    0  0.00000000000E+00 -0.00000000000E+00 -0.17283157464E+02  0.17329755680E+02  0.12700000000E+01 0. -1.
         25    2    1    2    0    0  0.00000000000E+00  0.00000000000E+00  0.20825108102E+03  0.24286756986E+03  0.12496456997E+03 0.  0.
    9000005    1    3    3    0    0  0.59518085409E+02 -0.16482553102E+02  0.85794914197E+02  0.10571586612E+03  0.10000000000E+01 0.  0.
    9000005    1    3    3    0    0 -0.59518085409E+02  0.16482553102E+02  0.12245616682E+03  0.13715170374E+03  0.10000000000E+01 0.  0.
<mgrwt>
<rscale>  0 0.12496457E+03</rscale>
<asrwt>0</asrwt>
<pdfrwt beam="2">  1        4 0.26628069E-02 0.12496457E+03</pdfrwt>
<pdfrwt beam="1">  1       -4 0.34701433E-01 0.12496457E+03</pdfrwt>
<totfact> 0.83438011E+03</totfact>
</mgrwt>
</event>
<event>
 5    1  0.3317939E-002  0.1249765E+03  0.7818608E-02  0.1235106E+00
          4   -1    0    0  501    0  0.00000000000E+00  0.00000000000E+00  0.57662455780E+03  0.57662595637E+03  0.12700000000E+01 0.  1.
         -4   -1    0    0    0  501 -0.00000000000E+00 -0.00000000000E+00 -0.67108297040E+01  0.68299440200E+01  0.12700000000E+01 0.  1.
         25    2    1    2    0    0  0.00000000000E+00  0.00000000000E+00  0.56991372810E+03  0.58345590039E+03  0.12497651870E+03 0.  0.
    9000005    1    3    3    0    0  0.47801774075E+02 -0.13600519282E+02  0.10818069272E+03  0.11905480254E+03  0.10000000000E+01 0.  0.
    9000005    1    3    3    0    0 -0.47801774075E+02  0.13600519282E+02  0.46173303537E+03  0.46440109785E+03  0.10000000000E+01 0.  0.
<mgrwt>
<rscale>  0 0.12497652E+03</rscale>
<asrwt>0</asrwt>
<pdfrwt beam="1">  1        4 0.88720764E-01 0.12497652E+03</pdfrwt>
<pdfrwt beam="2">  1       -4 0.10417053E-02 0.12497652E+03</pdfrwt>
<totfact> 0.49954572E+03</totfact>
</mgrwt>
</event>
<event>
 5    1  0.3317939E-002  0.1249975E+03  0.7818608E-02  0.1235073E+00
          4   -1    0    0  501    0  0.00000000000E+00  0.00000000000E+00  0.38872802711E+03  0.38873010169E+03  0.12700000000E+01 0. -1.
         -4   -1    0    0    0  501 -0.00000000000E+00 -0.00000000000E+00 -0.10006165698E+02  0.10086439014E+02  0.12700000000E+01 0. -1.
         25    2    1    2    0    0  0.00000000000E+00  0.00000000000E+00  0.37872186141E+03  0.39881654071E+03  0.12499753929E+03 0.  0.
    9000005    1    3    3    0    0 -0.46856755567E+02  0.31454970389E+02  0.10374081817E+03  0.11810219329E+03  0.10000000000E+01 0.  0.
    9000005    1    3    3    0    0  0.46856755567E+02 -0.31454970389E+02  0.27498104324E+03  0.28071434742E+03  0.10000000000E+01 0.  0.
<mgrwt>
<rscale>  0 0.12499754E+03</rscale>
<asrwt>0</asrwt>
<pdfrwt beam="1">  1        4 0.59810653E-01 0.12499754E+03</pdfrwt>
<pdfrwt beam="2">  1       -4 0.15457444E-02 0.12499754E+03</pdfrwt>
<totfact> 0.64671561E+03</totfact>
</mgrwt>
</event>
<event>
 5    1  0.3317939E-002  0.1249998E+03  0.7818608E-02  0.1235070E+00
         -4   -1    0    0    0  501 -0.00000000000E+00  0.00000000000E+00  0.31748697522E+02  0.31774088411E+02  0.12700000000E+01 0.  1.
          4   -1    0    0  501    0  0.00000000000E+00 -0.00000000000E+00 -0.12295833190E+03  0.12296489045E+03  0.12700000000E+01 0.  1.
         25    2    1    2    0    0  0.00000000000E+00  0.00000000000E+00 -0.91209634373E+02  0.15473897886E+03  0.12499981670E+03 0.  0.
    9000005    1    3    3    0    0  0.33093705136E+02 -0.56933190413E+01  0.19637240878E+02  0.38913088166E+02  0.10000000000E+01 0.  0.
    9000005    1    3    3    0    0 -0.33093705136E+02  0.56933190413E+01 -0.11084687525E+03  0.11582589069E+03  0.10000000000E+01 0.  0.
<mgrwt>
<rscale>  0 0.12499982E+03</rscale>
<asrwt>0</asrwt>
<pdfrwt beam="2">  1        4 0.18919124E-01 0.12499982E+03</pdfrwt>
<pdfrwt beam="1">  1       -4 0.48868727E-02 0.12499982E+03</pdfrwt>
<totfact> 0.98367171E+03</totfact>
</mgrwt>
</event>
<event>
 5    1  0.3317939E-002  0.1249983E+03  0.7818608E-02  0.1235072E+00
          4   -1    0    0  501    0  0.00000000000E+00  0.00000000000E+00  0.81738788375E+02  0.81748653964E+02  0.12700000000E+01 0.  1.
         -4   -1    0    0    0  501 -0.00000000000E+00 -0.00000000000E+00 -0.47766912376E+02  0.47783792419E+02  0.12700000000E+01 0.  1.
         25    2    1    2    0    0  0.00000000000E+00  0.00000000000E+00  0.33971875998E+02  0.12953244638E+03  0.12499826522E+03 0.  0.
    9000005    1    3    3    0    0 -0.41099233969E+02  0.60655318907E+01 -0.31389344313E+02  0.52079061496E+02  0.10000000000E+01 0.  0.
    9000005    1    3    3    0    0  0.41099233969E+02 -0.60655318907E+01  0.65361220311E+02  0.77453384887E+02  0.10000000000E+01 0.  0.
<mgrwt>
<rscale>  0 0.12499827E+03</rscale>
<asrwt>0</asrwt>
<pdfrwt beam="1">  1        4 0.12577255E-01 0.12499827E+03</pdfrwt>
<pdfrwt beam="2">  1       -4 0.73508132E-02 0.12499827E+03</pdfrwt>
<totfact> 0.10354925E+04</totfact>
</mgrwt>
</event>
<event>
 5    1  0.3317939E-002  0.1249962E+03  0.7818608E-02  0.1235075E+00
          4   -1    0    0  501    0  0.00000000000E+00  0.00000000000E+00  0.75788642215E+01  0.76845353072E+01  0.12700000000E+01 0.  1.
         -4   -1    0    0    0  501 -0.00000000000E+00 -0.00000000000E+00 -0.51170751192E+03  0.51170908792E+03  0.12700000000E+01 0.  1.
         25    2    1    2    0    0  0.00000000000E+00  0.00000000000E+00 -0.50412864770E+03  0.51939362323E+03  0.12499616960E+03 0.  0.
    9000005    1    3    3    0    0  0.58939000365E+02  0.20630154862E+02 -0.24222978466E+03  0.25015130947E+03  0.10000000000E+01 0.  0.
    9000005    1    3    3    0    0 -0.58939000365E+02 -0.20630154862E+02 -0.26189886304E+03  0.26924231375E+03  0.10000000000E+01 0.  0.
<mgrwt>
<rscale>  0 0.12499617E+03</rscale>
<asrwt>0</asrwt>
<pdfrwt beam="1">  1        4 0.11742293E-02 0.12499617E+03</pdfrwt>
<pdfrwt beam="2">  1       -4 0.78732455E-01 0.12499617E+03</pdfrwt>
<totfact> 0.54395033E+03</totfact>
</mgrwt>
</event>
<event>
 5    1  0.3317939E-002  0.1249988E+03  0.7818608E-02  0.1235071E+00
         -4   -1    0    0    0  501 -0.00000000000E+00  0.00000000000E+00  0.76359832809E+02  0.76370393260E+02  0.12700000000E+01 0. -1.
          4   -1    0    0  501    0  0.00000000000E+00 -0.00000000000E+00 -0.51132866713E+02  0.51148635938E+02  0.12700000000E+01 0. -1.
         25    2    1    2    0    0  0.00000000000E+00  0.00000000000E+00  0.25226966096E+02  0.12751902920E+03  0.12499881195E+03 0.  0.
    9000005    1    3    3    0    0 -0.57586036803E+02 -0.23953443952E+02  0.16598209361E+02  0.64547809148E+02  0.10000000000E+01 0.  0.
    9000005    1    3    3    0    0  0.57586036803E+02  0.23953443952E+02  0.86287567348E+01  0.62971220050E+02  0.10000000000E+01 0.  0.
<mgrwt>
<rscale>  0 0.12499881E+03</rscale>
<asrwt>0</asrwt>
<pdfrwt beam="2">  1        4 0.78686202E-02 0.12499881E+03</pdfrwt>
<pdfrwt beam="1">  1       -4 0.11749692E-01 0.12499881E+03</pdfrwt>
<totfact> 0.10398167E+04</totfact>
</mgrwt>
</event>
<event>
 5    1  0.3317939E-002  0.1250009E+03  0.7818608E-02  0.1235068E+00
         -4   -1    0    0    0  501 -0.00000000000E+00  0.00000000000E+00  0.28249081849E+02  0.28277615269E+02  0.12700000000E+01 0.  1.
          4   -1    0    0  501    0  0.00000000000E+00 -0.00000000000E+00 -0.13817946651E+03  0.13818530264E+03  0.12700000000E+01 0.  1.
         25    2    1    2    0    0  0.00000000000E+00  0.00000000000E+00 -0.10993038466E+03  0.16646291791E+03  0.12500085426E+03 0.  0.
    9000005    1    3    3    0    0  0.25785690580E+02  0.47288187237E+02 -0.97166011372E+02  0.11110044220E+03  0.10000000000E+01 0.  0.
    9000005    1    3    3    0    0 -0.25785690580E+02 -0.47288187237E+02 -0.12764373287E+02  0.55362475706E+02  0.10000000000E+01 0.  0.
<mgrwt>
<rscale>  0 0.12500085E+03</rscale>
<asrwt>0</asrwt>
<pdfrwt beam="2">  1        4 0.21261023E-01 0.12500085E+03</pdfrwt>
<pdfrwt beam="1">  1       -4 0.43486565E-02 0.12500085E+03</pdfrwt>
<totfact> 0.96109210E+03</totfact>
</mgrwt>
</event>
<event>
 5    1  0.3317939E-002  0.1249999E+03  0.7818608E-02  0.1235069E+00
          4   -1    0    0  501    0  0.00000000000E+00  0.00000000000E+00  0.27266111803E+02  0.27295672787E+02  0.12700000000E+01 0.  1.
         -4   -1    0    0    0  501 -0.00000000000E+00 -0.00000000000E+00 -0.14315370283E+03  0.14315933618E+03  0.12700000000E+01 0.  1.
         25    2    1    2    0    0  0.00000000000E+00  0.00000000000E+00 -0.11588759103E+03  0.17045500897E+03  0.12499990531E+03 0.  0.
    9000005    1    3    3    0    0  0.38381545233E+02 -0.46643725297E+02 -0.36105775800E+02  0.70380445936E+02  0.10000000000E+01 0.  0.
    9000005    1    3    3    0    0 -0.38381545233E+02  0.46643725297E+02 -0.79781815231E+02  0.10007456303E+03  0.10000000000E+01 0.  0.
<mgrwt>
<rscale>  0 0.12499991E+03</rscale>
<asrwt>0</asrwt>
<pdfrwt beam="1">  1        4 0.41974938E-02 0.12499991E+03</pdfrwt>
<pdfrwt beam="2">  1       -4 0.22026353E-01 0.12499991E+03</pdfrwt>
<totfact> 0.95364100E+03</totfact>
</mgrwt>
</event>
<event>
 5    1  0.3317939E-002  0.1249981E+03  0.7818608E-02  0.1235072E+00
         -4   -1    0    0    0  501 -0.00000000000E+00  0.00000000000E+00  0.59253666867E+02  0.59267275432E+02  0.12700000000E+01 0. -1.
          4   -1    0    0  501    0  0.00000000000E+00 -0.00000000000E+00 -0.65894892345E+02  0.65907129638E+02  0.12700000000E+01 0. -1.
         25    2    1    2    0    0  0.00000000000E+00  0.00000000000E+00 -0.66412254780E+01  0.12517440507E+03  0.12499810322E+03 0.  0.
    9000005    1    3    3    0    0 -0.29722726570E+02  0.53133287920E+02  0.10789849920E+02  0.61838560957E+02  0.10000000000E+01 0.  0.
    9000005    1    3    3    0    0  0.29722726570E+02 -0.53133287920E+02 -0.17431075398E+02  0.63335844113E+02  0.10000000000E+01 0.  0.
<mgrwt>
<rscale>  0 0.12499810E+03</rscale>
<asrwt>0</asrwt>
<pdfrwt beam="2">  1        4 0.10139664E-01 0.12499810E+03</pdfrwt>
<pdfrwt beam="1">  1       -4 0.91179369E-02 0.12499810E+03</pdfrwt>
<totfact> 0.10449524E+04</totfact>
</mgrwt>
</event>
<event>
 5    1  0.3317939E-002  0.1249886E+03  0.7818608E-02  0.1235087E+00
         -4   -1    0    0    0  501 -0.00000000000E+00  0.00000000000E+00  0.45824505276E+02  0.45842100560E+02  0.12700000000E+01 0. -1.
          4   -1    0    0  501    0  0.00000000000E+00 -0.00000000000E+00 -0.85189456367E+02  0.85198922388E+02  0.12700000000E+01 0. -1.
         25    2    1    2    0    0  0.00000000000E+00  0.00000000000E+00 -0.39364951091E+02  0.13104102295E+03  0.12498860076E+03 0.  0.
    9000005    1    3    3    0    0 -0.48512120220E+02  0.18272890921E+01 -0.60929295572E+02  0.77911127912E+02  0.10000000000E+01 0.  0.
    9000005    1    3    3    0    0  0.48512120220E+02 -0.18272890921E+01  0.21564344480E+02  0.53129895036E+02  0.10000000000E+01 0.  0.
<mgrwt>
<rscale>  0 0.12498860E+03</rscale>
<asrwt>0</asrwt>
<pdfrwt beam="2">  1        4 0.13108152E-01 0.12498860E+03</pdfrwt>
<pdfrwt beam="1">  1       -4 0.70520055E-02 0.12498860E+03</pdfrwt>
<totfact> 0.10324865E+04</totfact>
</mgrwt>
</event>
<event>
 5    1  0.3317939E-002  0.1250438E+03  0.7818608E-02  0.1235001E+00
          4   -1    0    0  501    0  0.00000000000E+00  0.00000000000E+00  0.10116705728E+03  0.10117502844E+03  0.12700000000E+01 0.  1.
         -4   -1    0    0    0  501 -0.00000000000E+00 -0.00000000000E+00 -0.38618998240E+02  0.38639874807E+02  0.12700000000E+01 0.  1.
         25    2    1    2    0    0  0.00000000000E+00  0.00000000000E+00  0.62548059041E+02  0.13981490324E+03  0.12504378225E+03 0.  0.
    9000005    1    3    3    0    0 -0.31416026424E+02 -0.53181143979E+02  0.20503606148E+02  0.65089159283E+02  0.10000000000E+01 0.  0.
    9000005    1    3    3    0    0  0.31416026424E+02  0.53181143979E+02  0.42044452893E+02  0.74725743959E+02  0.10000000000E+01 0.  0.
<mgrwt>
<rscale>  0 0.12504378E+03</rscale>
<asrwt>0</asrwt>
<pdfrwt beam="1">  1        4 0.15566382E-01 0.12504378E+03</pdfrwt>
<pdfrwt beam="2">  1       -4 0.59436034E-02 0.12504378E+03</pdfrwt>
<totfact> 0.10127430E+04</totfact>
</mgrwt>
</event>
<event>
 4    1  0.3317939E-002  0.1248753E+03  0.7818608E-02  0.1235264E+00
          4   -1    0    0  501    0  0.00000000000E+00  0.00000000000E+00  0.14178641826E+02  0.14235406002E+02  0.12700000000E+01 0.  1.
         -4   -1    0    0    0  501 -0.00000000000E+00 -0.00000000000E+00 -0.27434538195E+03  0.27434832148E+03  0.12700000000E+01 0.  1.
    9000005    1    1    2    0    0 -0.27992831563E+02  0.33961902667E+02 -0.27760389974E+02  0.52044679874E+02  0.10000000000E+01 0.  0.
    9000005    1    1    2    0    0  0.27992831563E+02 -0.33961902667E+02 -0.23240635015E+03  0.23653904761E+03  0.10000000000E+01 0.  0.
<mgrwt>
<rscale>  0 0.12487528E+03</rscale>
<asrwt>0</asrwt>
<pdfrwt beam="1">  1        4 0.21859223E-02 0.12487528E+03</pdfrwt>
<pdfrwt beam="2">  1       -4 0.42211570E-01 0.12487528E+03</pdfrwt>
<totfact> 0.77267449E+03</totfact>
</mgrwt>
</event>
<event>
 5    1  0.3317939E-002  0.1249982E+03  0.7818608E-02  0.1235072E+00
          4   -1    0    0  501    0  0.00000000000E+00  0.00000000000E+00  0.30698130058E+03  0.30698392760E+03  0.12700000000E+01 0. -1.
         -4   -1    0    0    0  501 -0.00000000000E+00 -0.00000000000E+00 -0.12689966887E+02  0.12753358757E+02  0.12700000000E+01 0. -1.
         25    2    1    2    0    0  0.00000000000E+00  0.00000000000E+00  0.29429133369E+03  0.31973728636E+03  0.12499817279E+03 0.  0.
    9000005    1    3    3    0    0  0.31935855744E+01  0.55941355139E+02  0.76373471009E+02  0.94728777452E+02  0.10000000000E+01 0.  0.
    9000005    1    3    3    0    0 -0.31935855744E+01 -0.55941355139E+02  0.21791786268E+03  0.22500850891E+03  0.10000000000E+01 0.  0.
<mgrwt>
<rscale>  0 0.12499817E+03</rscale>
<asrwt>0</asrwt>
<pdfrwt beam="1">  1        4 0.47232973E-01 0.12499817E+03</pdfrwt>
<pdfrwt beam="2">  1       -4 0.19573809E-02 0.12499817E+03</pdfrwt>
<totfact> 0.73190343E+03</totfact>
</mgrwt>
</event>
<event>
 5    1  0.3317939E-002  0.1250012E+03  0.7818608E-02  0.1235067E+00
          4   -1    0    0  501    0  0.00000000000E+00  0.00000000000E+00  0.80651048809E+02  0.80661047439E+02  0.12700000000E+01 0.  1.
         -4   -1    0    0    0  501 -0.00000000000E+00 -0.00000000000E+00 -0.48413581201E+02  0.48430235852E+02  0.12700000000E+01 0.  1.
         25    2    1    2    0    0  0.00000000000E+00  0.00000000000E+00  0.32237467609E+02  0.12909128329E+03  0.12500122041E+03 0.  0.
    9000005    1    3    3    0    0  0.15370489665E+02 -0.87323753757E+01 -0.45782654795E+02  0.49087246942E+02  0.10000000000E+01 0.  0.
    9000005    1    3    3    0    0 -0.15370489665E+02  0.87323753757E+01  0.78020122404E+02  0.80004036349E+02  0.10000000000E+01 0.  0.
<mgrwt>
<rscale>  0 0.12500122E+03</rscale>
<asrwt>0</asrwt>
<pdfrwt beam="1">  1        4 0.12409904E-01 0.12500122E+03</pdfrwt>
<pdfrwt beam="2">  1       -4 0.74502936E-02 0.12500122E+03</pdfrwt>
<totfact> 0.10363700E+04</totfact>
</mgrwt>
</event>
<event>
 5    1  0.3317939E-002  0.1249992E+03  0.7818608E-02  0.1235071E+00
          4   -1    0    0  501    0  0.00000000000E+00  0.00000000000E+00  0.25939820307E+03  0.25940131198E+03  0.12700000000E+01 0. -1.
         -4   -1    0    0    0  501 -0.00000000000E+00 -0.00000000000E+00 -0.15028723371E+02  0.15082288492E+02  0.12700000000E+01 0. -1.
         25    2    1    2    0    0  0.00000000000E+00  0.00000000000E+00  0.24436947970E+03  0.27448360047E+03  0.12499921727E+03 0.  0.
    9000005    1    3    3    0    0 -0.13905403715E+02 -0.50418666793E+02  0.19728902319E+03  0.20410624901E+03  0.10000000000E+01 0.  0.
    9000005    1    3    3    0    0  0.13905403715E+02  0.50418666793E+02  0.47080456511E+02  0.70377351462E+02  0.10000000000E+01 0.  0.
<mgrwt>
<rscale>  0 0.12499922E+03</rscale>
<asrwt>0</asrwt>
<pdfrwt beam="1">  1        4 0.39911772E-01 0.12499922E+03</pdfrwt>
<pdfrwt beam="2">  1       -4 0.23164710E-02 0.12499922E+03</pdfrwt>
<totfact> 0.78916646E+03</totfact>
</mgrwt>
</event>
<event>
 5    1  0.3317939E-002  0.1249968E+03  0.7818608E-02  0.1235074E+00
         -4   -1    0    0    0  501 -0.00000000000E+00  0.00000000000E+00  0.26114000787E+02  0.26144864450E+02  0.12700000000E+01 0. -1.
          4   -1    0    0  501    0  0.00000000000E+00 -0.00000000000E+00 -0.14945483673E+03  0.14946023257E+03  0.12700000000E+01 0. -1.
         25    2    1    2    0    0  0.00000000000E+00  0.00000000000E+00 -0.12334083594E+03  0.17560509702E+03  0.12499675312E+03 0.  0.
    9000005    1    3    3    0    0  0.31029302029E+02  0.30362590723E+02 -0.12481715191E+03  0.13215530981E+03  0.10000000000E+01 0.  0.
    9000005    1    3    3    0    0 -0.31029302029E+02 -0.30362590723E+02  0.14763159735E+01  0.43449787211E+02  0.10000000000E+01 0.  0.
<mgrwt>
<rscale>  0 0.12499675E+03</rscale>
<asrwt>0</asrwt>
<pdfrwt beam="2">  1        4 0.22995841E-01 0.12499675E+03</pdfrwt>
<pdfrwt beam="1">  1       -4 0.40203279E-02 0.12499675E+03</pdfrwt>
<totfact> 0.94421012E+03</totfact>
</mgrwt>
</event>
<event>
 5    1  0.3317939E-002  0.1249986E+03  0.7818608E-02  0.1235072E+00
          4   -1    0    0  501    0  0.00000000000E+00  0.00000000000E+00  0.11307577050E+03  0.11308290222E+03  0.12700000000E+01 0.  1.
         -4   -1    0    0    0  501 -0.00000000000E+00 -0.00000000000E+00 -0.34524722813E+02  0.34548073539E+02  0.12700000000E+01 0.  1.
         25    2    1    2    0    0  0.00000000000E+00  0.00000000000E+00  0.78551047684E+02  0.14763097575E+03  0.12499855163E+03 0.  0.
    9000005    1    3    3    0    0 -0.52041680664E+02  0.32729151589E+02  0.26037853486E+02  0.66772027858E+02  0.10000000000E+01 0.  0.
    9000005    1    3    3    0    0  0.52041680664E+02 -0.32729151589E+02  0.52513194198E+02  0.80858947897E+02  0.10000000000E+01 0.  0.
<mgrwt>
<rscale>  0 0.12499855E+03</rscale>
<asrwt>0</asrwt>
<pdfrwt beam="1">  1        4 0.17398617E-01 0.12499855E+03</pdfrwt>
<pdfrwt beam="2">  1       -4 0.53138406E-02 0.12499855E+03</pdfrwt>
<totfact> 0.99781294E+03</totfact>
</mgrwt>
</event>
<event>
 5    1  0.3317939E-002  0.1249993E+03  0.7818608E-02  0.1235070E+00
          4   -1    0    0  501    0  0.00000000000E+00  0.00000000000E+00  0.17170333795E+03  0.17170803465E+03  0.12700000000E+01 0.  1.
         -4   -1    0    0    0  501 -0.00000000000E+00 -0.00000000000E+00 -0.22726993020E+02  0.22762449599E+02  0.12700000000E+01 0.  1.
         25    2    1    2    0    0  0.00000000000E+00  0.00000000000E+00  0.14897634493E+03  0.19447048425E+03  0.12499927158E+03 0.  0.
    9000005    1    3    3    0    0  0.22707166392E+02  0.57847803082E+02  0.84716210773E+02  0.10507054818E+03  0.10000000000E+01 0.  0.
    9000005    1    3    3    0    0 -0.22707166392E+02 -0.57847803082E+02  0.64260134154E+02  0.89399936066E+02  0.10000000000E+01 0.  0.
<mgrwt>
<rscale>  0 0.12499927E+03</rscale>
<asrwt>0</asrwt>
<pdfrwt beam="1">  1        4 0.26418987E-01 0.12499927E+03</pdfrwt>
<pdfrwt beam="2">  1       -4 0.34995491E-02 0.12499927E+03</pdfrwt>
<totfact> 0.91076716E+03</totfact>
</mgrwt>
</event>
<event>
 5    1  0.3317939E-002  0.1249979E+03  0.7818608E-02  0.1235073E+00
          4   -1    0    0  501    0  0.00000000000E+00  0.00000000000E+00  0.17322046044E+03  0.17322511601E+03  0.12700000000E+01 0. -1.
         -4   -1    0    0    0  501 -0.00000000000E+00 -0.00000000000E+00 -0.22527140857E+02  0.22562911496E+02  0.12700000000E+01 0. -1.
         25    2    1    2    0    0  0.00000000000E+00  0.00000000000E+00  0.15069331959E+03  0.19578802750E+03  0.12499790057E+03 0.  0.
    9000005    1    3    3    0    0  0.49202902763E+02 -0.30186783865E+02  0.37854346380E+02  0.69037084964E+02  0.10000000000E+01 0.  0.
    9000005    1    3    3    0    0 -0.49202902763E+02  0.30186783865E+02  0.11283897321E+03  0.12675094254E+03  0.10000000000E+01 0.  0.
<mgrwt>
<rscale>  0 0.12499790E+03</rscale>
<asrwt>0</asrwt>
<pdfrwt beam="1">  1        4 0.26652412E-01 0.12499790E+03</pdfrwt>
<pdfrwt beam="2">  1       -4 0.34688237E-02 0.12499790E+03</pdfrwt>
<totfact> 0.90854126E+03</totfact>
</mgrwt>
</event>
<event>
 5    1  0.3317939E-002  0.1250017E+03  0.7818608E-02  0.1235067E+00
         -4   -1    0    0    0  501 -0.00000000000E+00  0.00000000000E+00  0.93945228353E+01  0.94799767565E+01  0.12700000000E+01 0.  1.
          4   -1    0    0  501    0  0.00000000000E+00 -0.00000000000E+00 -0.41384281154E+03  0.41384476022E+03  0.12700000000E+01 0.  1.
         25    2    1    2    0    0  0.00000000000E+00  0.00000000000E+00 -0.40444828870E+03  0.42332473698E+03  0.12500165880E+03 0.  0.
    9000005    1    3    3    0    0  0.55388603467E+02 -0.93008744940E+01 -0.10942085150E+03  0.12299726177E+03  0.10000000000E+01 0.  0.
    9000005    1    3    3    0    0 -0.55388603467E+02  0.93008744940E+01 -0.29502743721E+03  0.30032747521E+03  0.10000000000E+01 0.  0.
<mgrwt>
<rscale>  0 0.12500166E+03</rscale>
<asrwt>0</asrwt>
<pdfrwt beam="2">  1        4 0.63674834E-01 0.12500166E+03</pdfrwt>
<pdfrwt beam="1">  1       -4 0.14520348E-02 0.12500166E+03</pdfrwt>
<totfact> 0.62343485E+03</totfact>
</mgrwt>
</event>
<event>
 5    1  0.3317939E-002  0.1249988E+03  0.7818608E-02  0.1235071E+00
         -4   -1    0    0    0  501 -0.00000000000E+00  0.00000000000E+00  0.20766126253E+04  0.20766130136E+04  0.12700000000E+01 0.  1.
          4   -1    0    0  501    0  0.00000000000E+00 -0.00000000000E+00 -0.16662339560E+01  0.20950502610E+01  0.12700000000E+01 0.  1.
         25    2    1    2    0    0  0.00000000000E+00  0.00000000000E+00  0.20749463913E+04  0.20787080639E+04  0.12499875204E+03 0.  0.
    9000005    1    3    3    0    0 -0.57278779771E+02  0.20411612549E+02  0.79781924047E+03  0.80013375944E+03  0.10000000000E+01 0.  0.
    9000005    1    3    3    0    0  0.57278779771E+02 -0.20411612549E+02  0.12771271509E+04  0.12785743045E+04  0.10000000000E+01 0.  0.
<mgrwt>
<rscale>  0 0.12499875E+03</rscale>
<asrwt>0</asrwt>
<pdfrwt beam="2">  1        4 0.28935867E-03 0.12499875E+03</pdfrwt>
<pdfrwt beam="1">  1       -4 0.31951271E+00 0.12499875E+03</pdfrwt>
<totfact> 0.88688656E+02</totfact>
</mgrwt>
</event>
<event>
 5    1  0.3317939E-002  0.1249978E+03  0.7818608E-02  0.1235073E+00
          4   -1    0    0  501    0  0.00000000000E+00  0.00000000000E+00  0.20701075494E+03  0.20701465059E+03  0.12700000000E+01 0.  1.
         -4   -1    0    0    0  501 -0.00000000000E+00 -0.00000000000E+00 -0.18843691062E+02  0.18886439391E+02  0.12700000000E+01 0.  1.
         25    2    1    2    0    0  0.00000000000E+00  0.00000000000E+00  0.18816706388E+03  0.22590108998E+03  0.12499783409E+03 0.  0.
    9000005    1    3    3    0    0  0.32494493537E+02  0.30781726214E+02  0.15272368537E+02  0.47303826692E+02  0.10000000000E+01 0.  0.
    9000005    1    3    3    0    0 -0.32494493537E+02 -0.30781726214E+02  0.17289469534E+03  0.17859726329E+03  0.10000000000E+01 0.  0.
<mgrwt>
<rscale>  0 0.12499783E+03</rscale>
<asrwt>0</asrwt>
<pdfrwt beam="1">  1        4 0.31851394E-01 0.12499783E+03</pdfrwt>
<pdfrwt beam="2">  1       -4 0.29026176E-02 0.12499783E+03</pdfrwt>
<totfact> 0.85947145E+03</totfact>
</mgrwt>
</event>
<event>
 5    1  0.3317939E-002  0.1249970E+03  0.7818608E-02  0.1235074E+00
          4   -1    0    0  501    0  0.00000000000E+00  0.00000000000E+00  0.11960545257E+03  0.11961219496E+03  0.12700000000E+01 0. -1.
         -4   -1    0    0    0  501 -0.00000000000E+00 -0.00000000000E+00 -0.32637871774E+02  0.32662571453E+02  0.12700000000E+01 0. -1.
         25    2    1    2    0    0  0.00000000000E+00  0.00000000000E+00  0.86967580792E+02  0.15227476641E+03  0.12499697747E+03 0.  0.
    9000005    1    3    3    0    0  0.11063001377E+02 -0.40050295937E+02 -0.13378147199E+02  0.43662237993E+02  0.10000000000E+01 0.  0.
    9000005    1    3    3    0    0 -0.11063001377E+02  0.40050295937E+02  0.10034572799E+03  0.10861252842E+03  0.10000000000E+01 0.  0.
<mgrwt>
<rscale>  0 0.12499698E+03</rscale>
<asrwt>0</asrwt>
<pdfrwt beam="1">  1        4 0.18403257E-01 0.12499698E+03</pdfrwt>
<pdfrwt beam="2">  1       -4 0.50236298E-02 0.12499698E+03</pdfrwt>
<totfact> 0.98858899E+03</totfact>
</mgrwt>
</event>
<event>
 5    1  0.3317939E-002  0.1249989E+03  0.7818608E-02  0.1235071E+00
          4   -1    0    0  501    0  0.00000000000E+00  0.00000000000E+00  0.34735491289E+03  0.34735723457E+03  0.12700000000E+01 0. -1.
         -4   -1    0    0    0  501 -0.00000000000E+00 -0.00000000000E+00 -0.11207280531E+02  0.11279008684E+02  0.12700000000E+01 0. -1.
         25    2    1    2    0    0  0.00000000000E+00  0.00000000000E+00  0.33614763236E+03  0.35863624325E+03  0.12499889694E+03 0.  0.
    9000005    1    3    3    0    0 -0.17840062997E+02  0.52403380042E+02  0.25126821387E+03  0.25729573916E+03  0.10000000000E+01 0.  0.
    9000005    1    3    3    0    0  0.17840062997E+02 -0.52403380042E+02  0.84879418487E+02  0.10134050410E+03  0.10000000000E+01 0.  0.
<mgrwt>
<rscale>  0 0.12499890E+03</rscale>
<asrwt>0</asrwt>
<pdfrwt beam="1">  1        4 0.53444905E-01 0.12499890E+03</pdfrwt>
<pdfrwt beam="2">  1       -4 0.17298934E-02 0.12499890E+03</pdfrwt>
<totfact> 0.68786480E+03</totfact>
</mgrwt>
</event>
<event>
 5    1  0.3317939E-002  0.1249997E+03  0.7818608E-02  0.1235070E+00
         -4   -1    0    0    0  501 -0.00000000000E+00  0.00000000000E+00  0.37975633780E+02  0.37996863831E+02  0.12700000000E+01 0.  1.
          4   -1    0    0  501    0  0.00000000000E+00 -0.00000000000E+00 -0.10280767529E+03  0.10281551925E+03  0.12700000000E+01 0.  1.
         25    2    1    2    0    0  0.00000000000E+00  0.00000000000E+00 -0.64832041508E+02  0.14081238308E+03  0.12499973449E+03 0.  0.
    9000005    1    3    3    0    0  0.49723757340E+01  0.33356019581E+02 -0.91682041219E+02  0.97693117695E+02  0.10000000000E+01 0.  0.
    9000005    1    3    3    0    0 -0.49723757340E+01 -0.33356019581E+02  0.26849999712E+02  0.43119265384E+02  0.10000000000E+01 0.  0.
<mgrwt>
<rscale>  0 0.12499973E+03</rscale>
<asrwt>0</asrwt>
<pdfrwt beam="2">  1        4 0.15818802E-01 0.12499973E+03</pdfrwt>
<pdfrwt beam="1">  1       -4 0.58446417E-02 0.12499973E+03</pdfrwt>
<totfact> 0.10116837E+04</totfact>
</mgrwt>
</event>
<event>
 5    1  0.3317939E-002  0.1250002E+03  0.7818608E-02  0.1235069E+00
          4   -1    0    0  501    0  0.00000000000E+00  0.00000000000E+00  0.94623163020E+02  0.94631685391E+02  0.12700000000E+01 0.  1.
         -4   -1    0    0    0  501 -0.00000000000E+00 -0.00000000000E+00 -0.41262177136E+02  0.41281717043E+02  0.12700000000E+01 0.  1.
         25    2    1    2    0    0  0.00000000000E+00  0.00000000000E+00  0.53360985884E+02  0.13591340243E+03  0.12500023259E+03 0.  0.
    9000005    1    3    3    0    0  0.18037702603E+02 -0.45959563437E+02  0.68334704453E+02  0.84310568846E+02  0.10000000000E+01 0.  0.
    9000005    1    3    3    0    0 -0.18037702603E+02  0.45959563437E+02 -0.14973718569E+02  0.51602833588E+02  0.10000000000E+01 0.  0.
<mgrwt>
<rscale>  0 0.12500023E+03</rscale>
<asrwt>0</asrwt>
<pdfrwt beam="1">  1        4 0.14559568E-01 0.12500023E+03</pdfrwt>
<pdfrwt beam="2">  1       -4 0.63501859E-02 0.12500023E+03</pdfrwt>
<totfact> 0.10218801E+04</totfact>
</mgrwt>
</event>
<event>
 5    1  0.3317939E-002  0.1249941E+03  0.7818608E-02  0.1235079E+00
          4   -1    0    0  501    0  0.00000000000E+00  0.00000000000E+00  0.10596662341E+02  0.10672495152E+02  0.12700000000E+01 0.  1.
         -4   -1    0    0    0  501 -0.00000000000E+00 -0.00000000000E+00 -0.36720427936E+03  0.36720647554E+03  0.12700000000E+01 0.  1.
         25    2    1    2    0    0  0.00000000000E+00  0.00000000000E+00 -0.35660761702E+03  0.37787897069E+03  0.12499409577E+03 0.  0.
    9000005    1    3    3    0    0 -0.56799759762E+02 -0.12196430120E+02 -0.10871065990E+03  0.12326383571E+03  0.10000000000E+01 0.  0.
    9000005    1    3    3    0    0  0.56799759762E+02  0.12196430120E+02 -0.24789695711E+03  0.25461513498E+03  0.10000000000E+01 0.  0.
<mgrwt>
<rscale>  0 0.12499410E+03</rscale>
<asrwt>0</asrwt>
<pdfrwt beam="1">  1        4 0.16362583E-02 0.12499410E+03</pdfrwt>
<pdfrwt beam="2">  1       -4 0.56498959E-01 0.12499410E+03</pdfrwt>
<totfact> 0.66771342E+03</totfact>
</mgrwt>
</event>
<event>
 5    1  0.3317939E-002  0.1250005E+03  0.7818608E-02  0.1235068E+00
         -4   -1    0    0    0  501 -0.00000000000E+00  0.00000000000E+00  0.88243755756E+02  0.88252894173E+02  0.12700000000E+01 0. -1.
          4   -1    0    0  501    0  0.00000000000E+00 -0.00000000000E+00 -0.44246402797E+02  0.44264625385E+02  0.12700000000E+01 0. -1.
         25    2    1    2    0    0  0.00000000000E+00  0.00000000000E+00  0.43997352959E+02  0.13251751956E+03  0.12500050369E+03 0.  0.
    9000005    1    3    3    0    0 -0.23769420687E+02 -0.33190427142E+02  0.72158809159E+02  0.82912505407E+02  0.10000000000E+01 0.  0.
    9000005    1    3    3    0    0  0.23769420687E+02  0.33190427142E+02 -0.28161456200E+02  0.49605014151E+02  0.10000000000E+01 0.  0.
<mgrwt>
<rscale>  0 0.12500050E+03</rscale>
<asrwt>0</asrwt>
<pdfrwt beam="2">  1        4 0.68092437E-02 0.12500050E+03</pdfrwt>
<pdfrwt beam="1">  1       -4 0.13578067E-01 0.12500050E+03</pdfrwt>
<totfact> 0.10290548E+04</totfact>
</mgrwt>
</event>
<event>
 5    1  0.3317939E-002  0.1249997E+03  0.7818608E-02  0.1235070E+00
         -4   -1    0    0    0  501 -0.00000000000E+00  0.00000000000E+00  0.48390464199E+01  0.50029261691E+01  0.12700000000E+01 0.  1.
          4   -1    0    0  501    0  0.00000000000E+00 -0.00000000000E+00 -0.79362545741E+03  0.79362647357E+03  0.12700000000E+01 0.  1.
         25    2    1    2    0    0  0.00000000000E+00  0.00000000000E+00 -0.78878641099E+03  0.79862939974E+03  0.12499966385E+03 0.  0.
    9000005    1    3    3    0    0 -0.44510214689E+02 -0.34512495087E+02 -0.56736521621E+03  0.57015485624E+03  0.10000000000E+01 0.  0.
    9000005    1    3    3    0    0  0.44510214689E+02  0.34512495087E+02 -0.22142119478E+03  0.22847454350E+03  0.10000000000E+01 0.  0.
<mgrwt>
<rscale>  0 0.12499966E+03</rscale>
<asrwt>0</asrwt>
<pdfrwt beam="2">  1        4 0.12210881E+00 0.12499966E+03</pdfrwt>
<pdfrwt beam="1">  1       -4 0.75715361E-03 0.12499966E+03</pdfrwt>
<totfact> 0.38326295E+03</totfact>
</mgrwt>
</event>
<event>
 5    1  0.3317939E-002  0.1250050E+03  0.7818608E-02  0.1235061E+00
          4   -1    0    0  501    0  0.00000000000E+00  0.00000000000E+00  0.88527972557E+01  0.89434288307E+01  0.12700000000E+01 0.  1.
         -4   -1    0    0    0  501 -0.00000000000E+00 -0.00000000000E+00 -0.43894135810E+03  0.43894319535E+03  0.12700000000E+01 0.  1.
         25    2    1    2    0    0  0.00000000000E+00  0.00000000000E+00 -0.43008856084E+03  0.44788662418E+03  0.12500503173E+03 0.  0.
    9000005    1    3    3    0    0  0.41098522899E+02  0.36701366275E+02 -0.32069483950E+03  0.32539554231E+03  0.10000000000E+01 0.  0.
    9000005    1    3    3    0    0 -0.41098522899E+02 -0.36701366275E+02 -0.10939372134E+03  0.12249108188E+03  0.10000000000E+01 0.  0.
<mgrwt>
<rscale>  0 0.12500503E+03</rscale>
<asrwt>0</asrwt>
<pdfrwt beam="1">  1        4 0.13690821E-02 0.12500503E+03</pdfrwt>
<pdfrwt beam="2">  1       -4 0.67536536E-01 0.12500503E+03</pdfrwt>
<totfact> 0.60140655E+03</totfact>
</mgrwt>
</event>
<event>
 5    1  0.3317939E-002  0.1249859E+03  0.7818608E-02  0.1235091E+00
          4   -1    0    0  501    0  0.00000000000E+00  0.00000000000E+00  0.13062301399E+02  0.13123894918E+02  0.12700000000E+01 0. -1.
         -4   -1    0    0    0  501 -0.00000000000E+00 -0.00000000000E+00 -0.29821383136E+03  0.29821653561E+03  0.12700000000E+01 0. -1.
         25    2    1    2    0    0  0.00000000000E+00  0.00000000000E+00 -0.28515152996E+03  0.31134043053E+03  0.12498587378E+03 0.  0.
    9000005    1    3    3    0    0 -0.46588944871E+02 -0.33156897474E+02 -0.79831235344E+02  0.98203542557E+02  0.10000000000E+01 0.  0.
    9000005    1    3    3    0    0  0.46588944871E+02  0.33156897474E+02 -0.20532029462E+03  0.21313688797E+03  0.10000000000E+01 0.  0.
<mgrwt>
<rscale>  0 0.12498587E+03</rscale>
<asrwt>0</asrwt>
<pdfrwt beam="1">  1        4 0.20145310E-02 0.12498587E+03</pdfrwt>
<pdfrwt beam="2">  1       -4 0.45883992E-01 0.12498587E+03</pdfrwt>
<totfact> 0.74221242E+03</totfact>
</mgrwt>
</event>
<event>
 5    1  0.3317939E-002  0.1250032E+03  0.7818608E-02  0.1235064E+00
         -4   -1    0    0    0  501 -0.00000000000E+00  0.00000000000E+00  0.79217973167E+02  0.79228152652E+02  0.12700000000E+01 0. -1.
          4   -1    0    0  501    0  0.00000000000E+00 -0.00000000000E+00 -0.49291114229E+02  0.49307472476E+02  0.12700000000E+01 0. -1.
         25    2    1    2    0    0  0.00000000000E+00  0.00000000000E+00  0.29926858938E+02  0.12853562513E+03  0.12500316012E+03 0.  0.
    9000005    1    3    3    0    0  0.51134146778E+02 -0.35702235836E+02  0.19088901470E+02  0.65228343300E+02  0.10000000000E+01 0.  0.
    9000005    1    3    3    0    0 -0.51134146778E+02  0.35702235836E+02  0.10837957468E+02  0.63307281828E+02  0.10000000000E+01 0.  0.
<mgrwt>
<rscale>  0 0.12500316E+03</rscale>
<asrwt>0</asrwt>
<pdfrwt beam="2">  1        4 0.75852898E-02 0.12500316E+03</pdfrwt>
<pdfrwt beam="1">  1       -4 0.12189422E-01 0.12500316E+03</pdfrwt>
<totfact> 0.10375196E+04</totfact>
</mgrwt>
</event>
<event>
 5    1  0.3317939E-002  0.1249995E+03  0.7818608E-02  0.1235070E+00
          4   -1    0    0  501    0  0.00000000000E+00  0.00000000000E+00  0.71202209137E+03  0.71202322399E+03  0.12700000000E+01 0. -1.
         -4   -1    0    0    0  501 -0.00000000000E+00 -0.00000000000E+00 -0.54114420151E+01  0.55584714340E+01  0.12700000000E+01 0. -1.
         25    2    1    2    0    0  0.00000000000E+00  0.00000000000E+00  0.70661064936E+03  0.71758169542E+03  0.12499951929E+03 0.  0.
    9000005    1    3    3    0    0 -0.27412287707E+02  0.22711402477E+02  0.64815363686E+03  0.64913124889E+03  0.10000000000E+01 0.  0.
    9000005    1    3    3    0    0  0.27412287707E+02 -0.22711402477E+02  0.58457012500E+02  0.68450446530E+02  0.10000000000E+01 0.  0.
<mgrwt>
<rscale>  0 0.12499952E+03</rscale>
<asrwt>0</asrwt>
<pdfrwt beam="1">  1        4 0.10955317E+00 0.12499952E+03</pdfrwt>
<pdfrwt beam="2">  1       -4 0.84392733E-03 0.12499952E+03</pdfrwt>
<totfact> 0.42175156E+03</totfact>
</mgrwt>
</event>
<event>
 5    1  0.3317939E-002  0.1250003E+03  0.7818608E-02  0.1235069E+00
         -4   -1    0    0    0  501 -0.00000000000E+00  0.00000000000E+00  0.30265496670E+02  0.30292130805E+02  0.12700000000E+01 0. -1.
          4   -1    0    0  501    0  0.00000000000E+00 -0.00000000000E+00 -0.12898013863E+03  0.12898639100E+03  0.12700000000E+01 0. -1.
         25    2    1    2    0    0  0.00000000000E+00  0.00000000000E+00 -0.98714641964E+02  0.15927852180E+03  0.12500026788E+03 0.  0.
    9000005    1    3    3    0    0  0.46215331293E+02 -0.20570916765E+02 -0.26044061742E+01  0.50663620030E+02  0.10000000000E+01 0.  0.
    9000005    1    3    3    0    0 -0.46215331293E+02  0.20570916765E+02 -0.96110235790E+02  0.10861490177E+03  0.10000000000E+01 0.  0.
<mgrwt>
<rscale>  0 0.12500027E+03</rscale>
<asrwt>0</asrwt>
<pdfrwt beam="2">  1        4 0.19845628E-01 0.12500027E+03</pdfrwt>
<pdfrwt beam="1">  1       -4 0.46587601E-02 0.12500027E+03</pdfrwt>
<totfact> 0.97481474E+03</totfact>
</mgrwt>
</event>
<event>
 5    1  0.3317939E-002  0.1249977E+03  0.7818608E-02  0.1235073E+00
         -4   -1    0    0    0  501 -0.00000000000E+00  0.00000000000E+00  0.20295163213E+03  0.20295560570E+03  0.12700000000E+01 0. -1.
          4   -1    0    0  501    0  0.00000000000E+00 -0.00000000000E+00 -0.19221360918E+02  0.19263271153E+02  0.12700000000E+01 0. -1.
         25    2    1    2    0    0  0.00000000000E+00  0.00000000000E+00  0.18373027121E+03  0.22221887685E+03  0.12499766665E+03 0.  0.
    9000005    1    3    3    0    0  0.36207726863E+02  0.20623628213E+02  0.17465665541E+03  0.17956135666E+03  0.10000000000E+01 0.  0.
    9000005    1    3    3    0    0 -0.36207726863E+02 -0.20623628213E+02  0.90736157989E+01  0.42657520192E+02  0.10000000000E+01 0.  0.
<mgrwt>
<rscale>  0 0.12499767E+03</rscale>
<asrwt>0</asrwt>
<pdfrwt beam="2">  1        4 0.29606619E-02 0.12499767E+03</pdfrwt>
<pdfrwt beam="1">  1       -4 0.31226859E-01 0.12499767E+03</pdfrwt>
<totfact> 0.86522962E+03</totfact>
</mgrwt>
</event>
<event>
 5    1  0.3317939E-002  0.1250014E+03  0.7818608E-02  0.1235067E+00
         -4   -1    0    0    0  501 -0.00000000000E+00  0.00000000000E+00  0.14669083781E+03  0.14669633532E+03  0.12700000000E+01 0. -1.
          4   -1    0    0  501    0  0.00000000000E+00 -0.00000000000E+00 -0.26608601176E+02  0.26638891804E+02  0.12700000000E+01 0. -1.
         25    2    1    2    0    0  0.00000000000E+00  0.00000000000E+00  0.12008223663E+03  0.17333522712E+03  0.12500142962E+03 0.  0.
    9000005    1    3    3    0    0 -0.47203392224E+02 -0.40150858839E+02  0.48853924904E+02  0.78917410509E+02  0.10000000000E+01 0.  0.
    9000005    1    3    3    0    0  0.47203392224E+02  0.40150858839E+02  0.71228311727E+02  0.94417816616E+02  0.10000000000E+01 0.  0.
<mgrwt>
<rscale>  0 0.12500143E+03</rscale>
<asrwt>0</asrwt>
<pdfrwt beam="2">  1        4 0.40963838E-02 0.12500143E+03</pdfrwt>
<pdfrwt beam="1">  1       -4 0.22570575E-01 0.12500143E+03</pdfrwt>
<totfact> 0.94827584E+03</totfact>
</mgrwt>
</event>
<event>
 5    1  0.3317939E-002  0.1250017E+03  0.7818608E-02  0.1235067E+00
         -4   -1    0    0    0  501 -0.00000000000E+00  0.00000000000E+00  0.38736802901E+02  0.38757616013E+02  0.12700000000E+01 0.  1.
          4   -1    0    0  501    0  0.00000000000E+00 -0.00000000000E+00 -0.10079168784E+03  0.10079968868E+03  0.12700000000E+01 0.  1.
         25    2    1    2    0    0  0.00000000000E+00  0.00000000000E+00 -0.62054884942E+02  0.13955730469E+03  0.12500173018E+03 0.  0.
    9000005    1    3    3    0    0 -0.40238760080E+02  0.46228602461E+02 -0.17394186092E+02  0.63716553643E+02  0.10000000000E+01 0.  0.
    9000005    1    3    3    0    0  0.40238760080E+02 -0.46228602461E+02 -0.44660698850E+02  0.75840751052E+02  0.10000000000E+01 0.  0.
<mgrwt>
<rscale>  0 0.12500173E+03</rscale>
<asrwt>0</asrwt>
<pdfrwt beam="2">  1        4 0.15508630E-01 0.12500173E+03</pdfrwt>
<pdfrwt beam="1">  1       -4 0.59617246E-02 0.12500173E+03</pdfrwt>
<totfact> 0.10142374E+04</totfact>
</mgrwt>
</event>
<event>
 5    1  0.3317939E-002  0.1250011E+03  0.7818608E-02  0.1235068E+00
          4   -1    0    0  501    0  0.00000000000E+00  0.00000000000E+00  0.18838167139E+03  0.18838595228E+03  0.12700000000E+01 0. -1.
         -4   -1    0    0    0  501 -0.00000000000E+00 -0.00000000000E+00 -0.20712212958E+02  0.20751112395E+02  0.12700000000E+01 0. -1.
         25    2    1    2    0    0  0.00000000000E+00  0.00000000000E+00  0.16766945844E+03  0.20913706468E+03  0.12500105811E+03 0.  0.
    9000005    1    3    3    0    0 -0.14220021908E+02 -0.43973757311E+02  0.15421197500E+03  0.16099140843E+03  0.10000000000E+01 0.  0.
    9000005    1    3    3    0    0  0.14220021908E+02  0.43973757311E+02  0.13457483437E+02  0.48145656248E+02  0.10000000000E+01 0.  0.
<mgrwt>
<rscale>  0 0.12500106E+03</rscale>
<asrwt>0</asrwt>
<pdfrwt beam="1">  1        4 0.28985116E-01 0.12500106E+03</pdfrwt>
<pdfrwt beam="2">  1       -4 0.31898160E-02 0.12500106E+03</pdfrwt>
<totfact> 0.88614908E+03</totfact>
</mgrwt>
</event>
<event>
 5    1  0.3317939E-002  0.1250001E+03  0.7818608E-02  0.1235069E+00
         -4   -1    0    0    0  501 -0.00000000000E+00  0.00000000000E+00  0.97126773231E+02  0.97135075942E+02  0.12700000000E+01 0. -1.
          4   -1    0    0  501    0  0.00000000000E+00 -0.00000000000E+00 -0.40198085472E+02  0.40218142369E+02  0.12700000000E+01 0. -1.
         25    2    1    2    0    0  0.00000000000E+00  0.00000000000E+00  0.56928687759E+02  0.13735321831E+03  0.12500012436E+03 0.  0.
    9000005    1    3    3    0    0  0.54949690208E+02 -0.29618007422E+02  0.25248905256E+02  0.67343908665E+02  0.10000000000E+01 0.  0.
    9000005    1    3    3    0    0 -0.54949690208E+02  0.29618007422E+02  0.31679782503E+02  0.70009309646E+02  0.10000000000E+01 0.  0.
<mgrwt>
<rscale>  0 0.12500012E+03</rscale>
<asrwt>0</asrwt>
<pdfrwt beam="2">  1        4 0.61865024E-02 0.12500012E+03</pdfrwt>
<pdfrwt beam="1">  1       -4 0.14944762E-01 0.12500012E+03</pdfrwt>
<totfact> 0.10188677E+04</totfact>
</mgrwt>
</event>
<event>
 5    1  0.3317939E-002  0.1250019E+03  0.7818608E-02  0.1235066E+00
         -4   -1    0    0    0  501 -0.00000000000E+00  0.00000000000E+00  0.23977204767E+02  0.24010815238E+02  0.12700000000E+01 0. -1.
          4   -1    0    0  501    0  0.00000000000E+00 -0.00000000000E+00 -0.16276999052E+03  0.16277494499E+03  0.12700000000E+01 0. -1.
         25    2    1    2    0    0  0.00000000000E+00  0.00000000000E+00 -0.13879278576E+03  0.18678576022E+03  0.12500193136E+03 0.  0.
    9000005    1    3    3    0    0 -0.26161045854E+02 -0.47817520262E+02 -0.23718477949E+02  0.59451507638E+02  0.10000000000E+01 0.  0.
    9000005    1    3    3    0    0  0.26161045854E+02  0.47817520262E+02 -0.11507430781E+03  0.12733425259E+03  0.10000000000E+01 0.  0.
<mgrwt>
<rscale>  0 0.12500193E+03</rscale>
<asrwt>0</asrwt>
<pdfrwt beam="2">  1        4 0.25044503E-01 0.12500193E+03</pdfrwt>
<pdfrwt beam="1">  1       -4 0.36917674E-02 0.12500193E+03</pdfrwt>
<totfact> 0.92405610E+03</totfact>
</mgrwt>
</event>
<event>
 5    1  0.3317939E-002  0.1250049E+03  0.7818608E-02  0.1235062E+00
         -4   -1    0    0    0  501 -0.00000000000E+00  0.00000000000E+00  0.10944650579E+04  0.10944657948E+04  0.12700000000E+01 0.  1.
          4   -1    0    0  501    0  0.00000000000E+00 -0.00000000000E+00 -0.34556433915E+01  0.36816261691E+01  0.12700000000E+01 0.  1.
         25    2    1    2    0    0  0.00000000000E+00  0.00000000000E+00  0.10910094145E+04  0.10981474209E+04  0.12500486195E+03 0.  0.
    9000005    1    3    3    0    0 -0.35775473564E+02 -0.35009161436E+02  0.21680289428E+03  0.22250847369E+03  0.10000000000E+01 0.  0.
    9000005    1    3    3    0    0  0.35775473564E+02  0.35009161436E+02  0.87420652025E+03  0.87563894725E+03  0.10000000000E+01 0.  0.
<mgrwt>
<rscale>  0 0.12500486E+03</rscale>
<asrwt>0</asrwt>
<pdfrwt beam="2">  1        4 0.54907685E-03 0.12500486E+03</pdfrwt>
<pdfrwt beam="1">  1       -4 0.16839685E+00 0.12500486E+03</pdfrwt>
<totfact> 0.27534717E+03</totfact>
</mgrwt>
</event>
<event>
 4    1  0.3317939E-002  0.1249371E+03  0.7818608E-02  0.1235168E+00
         -4   -1    0    0    0  501 -0.00000000000E+00  0.00000000000E+00  0.15645438421E+02  0.15696899165E+02  0.12700000000E+01 0.  1.
          4   -1    0    0  501    0  0.00000000000E+00 -0.00000000000E+00 -0.24895940907E+03  0.24896264833E+03  0.12700000000E+01 0.  1.
    9000005    1    1    2    0    0  0.26867793801E+02  0.38411407108E+01  0.25115194544E+01  0.27275271504E+02  0.10000000000E+01 0.  0.
    9000005    1    1    2    0    0 -0.26867793801E+02 -0.38411407108E+01 -0.23582549010E+03  0.23738427599E+03  0.10000000000E+01 0.  0.
<mgrwt>
<rscale>  0 0.12493705E+03</rscale>
<asrwt>0</asrwt>
<pdfrwt beam="2">  1        4 0.38305652E-01 0.12493705E+03</pdfrwt>
<pdfrwt beam="1">  1       -4 0.24111984E-02 0.12493705E+03</pdfrwt>
<totfact> 0.80369096E+03</totfact>
</mgrwt>
</event>
<event>
 5    1  0.3317939E-002  0.1249980E+03  0.7818608E-02  0.1235072E+00
          4   -1    0    0  501    0  0.00000000000E+00  0.00000000000E+00  0.16837512412E+03  0.16837991365E+03  0.12700000000E+01 0. -1.
         -4   -1    0    0    0  501 -0.00000000000E+00 -0.00000000000E+00 -0.23176429226E+02  0.23211199272E+02  0.12700000000E+01 0. -1.
         25    2    1    2    0    0  0.00000000000E+00  0.00000000000E+00  0.14519869489E+03  0.19159111293E+03  0.12499797420E+03 0.  0.
    9000005    1    3    3    0    0 -0.17384684224E+02 -0.31316133799E+02 -0.58889580604E+01  0.36312632908E+02  0.10000000000E+01 0.  0.
    9000005    1    3    3    0    0  0.17384684224E+02  0.31316133799E+02  0.15108765295E+03  0.15527848002E+03  0.10000000000E+01 0.  0.
<mgrwt>
<rscale>  0 0.12499797E+03</rscale>
<asrwt>0</asrwt>
<pdfrwt beam="1">  1        4 0.25906910E-01 0.12499797E+03</pdfrwt>
<pdfrwt beam="2">  1       -4 0.35686474E-02 0.12499797E+03</pdfrwt>
<totfact> 0.91575354E+03</totfact>
</mgrwt>
</event>
<event>
 5    1  0.3317939E-002  0.1249998E+03  0.7818608E-02  0.1235070E+00
         -4   -1    0    0    0  501 -0.00000000000E+00  0.00000000000E+00  0.12542891931E+03  0.12543534868E+03  0.12700000000E+01 0.  1.
          4   -1    0    0  501    0  0.00000000000E+00 -0.00000000000E+00 -0.31122856494E+02  0.31148757541E+02  0.12700000000E+01 0.  1.
         25    2    1    2    0    0  0.00000000000E+00  0.00000000000E+00  0.94306062812E+02  0.15658410622E+03  0.12499979535E+03 0.  0.
    9000005    1    3    3    0    0  0.11793610398E+01 -0.24978295854E+02  0.11889457769E+03  0.12149990436E+03  0.10000000000E+01 0.  0.
    9000005    1    3    3    0    0 -0.11793610398E+01  0.24978295854E+02 -0.24588514876E+02  0.35084201859E+02  0.10000000000E+01 0.  0.
<mgrwt>
<rscale>  0 0.12499980E+03</rscale>
<asrwt>0</asrwt>
<pdfrwt beam="2">  1        4 0.47906188E-02 0.12499980E+03</pdfrwt>
<pdfrwt beam="1">  1       -4 0.19299244E-01 0.12499980E+03</pdfrwt>
<totfact> 0.98005865E+03</totfact>
</mgrwt>
</event>
<event>
 5    1  0.3317939E-002  0.1250019E+03  0.7818608E-02  0.1235066E+00
         -4   -1    0    0    0  501 -0.00000000000E+00  0.00000000000E+00  0.47560363188E+02  0.47577316513E+02  0.12700000000E+01 0.  1.
          4   -1    0    0  501    0  0.00000000000E+00 -0.00000000000E+00 -0.82098457937E+02  0.82108280311E+02  0.12700000000E+01 0.  1.
         25    2    1    2    0    0  0.00000000000E+00  0.00000000000E+00 -0.34538094749E+02  0.12968559682E+03  0.12500189613E+03 0.  0.
    9000005    1    3    3    0    0  0.56259399365E+02  0.27107693589E+02 -0.14853405905E+02  0.64199460555E+02  0.10000000000E+01 0.  0.
    9000005    1    3    3    0    0 -0.56259399365E+02 -0.27107693589E+02 -0.19684688844E+02  0.65486136269E+02  0.10000000000E+01 0.  0.
<mgrwt>
<rscale>  0 0.12500190E+03</rscale>
<asrwt>0</asrwt>
<pdfrwt beam="2">  1        4 0.12632592E-01 0.12500190E+03</pdfrwt>
<pdfrwt beam="1">  1       -4 0.73190386E-02 0.12500190E+03</pdfrwt>
<totfact> 0.10350795E+04</totfact>
</mgrwt>
</event>
<event>
 5    1  0.3317939E-002  0.1249970E+03  0.7818608E-02  0.1235074E+00
         -4   -1    0    0    0  501 -0.00000000000E+00  0.00000000000E+00  0.49713607012E+03  0.49713769231E+03  0.12700000000E+01 0. -1.
          4   -1    0    0  501    0  0.00000000000E+00 -0.00000000000E+00 -0.78041672573E+01  0.79068278456E+01  0.12700000000E+01 0. -1.
         25    2    1    2    0    0  0.00000000000E+00  0.00000000000E+00  0.48933190287E+03  0.50504452016E+03  0.12499702468E+03 0.  0.
    9000005    1    3    3    0    0  0.97997435296E+01  0.58911862966E+02  0.31899506331E+03  0.32453889287E+03  0.10000000000E+01 0.  0.
    9000005    1    3    3    0    0 -0.97997435296E+01 -0.58911862966E+02  0.17033683956E+03  0.18050562729E+03  0.10000000000E+01 0.  0.
<mgrwt>
<rscale>  0 0.12499702E+03</rscale>
<asrwt>0</asrwt>
<pdfrwt beam="2">  1        4 0.12086626E-02 0.12499702E+03</pdfrwt>
<pdfrwt beam="1">  1       -4 0.76490512E-01 0.12499702E+03</pdfrwt>
<totfact> 0.55478706E+03</totfact>
</mgrwt>
</event>
<event>
 5    1  0.3317939E-002  0.1249993E+03  0.7818608E-02  0.1235070E+00
          4   -1    0    0  501    0  0.00000000000E+00  0.00000000000E+00  0.35606904733E+01  0.37803990063E+01  0.12700000000E+01 0. -1.
         -4   -1    0    0    0  501 -0.00000000000E+00 -0.00000000000E+00 -0.10639829156E+04  0.10639836736E+04  0.12700000000E+01 0. -1.
         25    2    1    2    0    0  0.00000000000E+00  0.00000000000E+00 -0.10604222252E+04  0.10677640726E+04  0.12499927643E+03 0.  0.
    9000005    1    3    3    0    0 -0.37600872178E+02  0.46347150044E+02 -0.68848814821E+03  0.69107077361E+03  0.10000000000E+01 0.  0.
    9000005    1    3    3    0    0  0.37600872178E+02 -0.46347150044E+02 -0.37193407695E+03  0.37669329899E+03  0.10000000000E+01 0.  0.
<mgrwt>
<rscale>  0 0.12499928E+03</rscale>
<asrwt>0</asrwt>
<pdfrwt beam="1">  1        4 0.56475834E-03 0.12499928E+03</pdfrwt>
<pdfrwt beam="2">  1       -4 0.16370639E+00 0.12499928E+03</pdfrwt>
<totfact> 0.28447024E+03</totfact>
</mgrwt>
</event>
<event>
 5    1  0.3317939E-002  0.1250004E+03  0.7818608E-02  0.1235069E+00
         -4   -1    0    0    0  501 -0.00000000000E+00  0.00000000000E+00  0.35552445472E+02  0.35575121631E+02  0.12700000000E+01 0. -1.
          4   -1    0    0  501    0  0.00000000000E+00 -0.00000000000E+00 -0.10981225663E+03  0.10981960028E+03  0.12700000000E+01 0. -1.
         25    2    1    2    0    0  0.00000000000E+00  0.00000000000E+00 -0.74259811155E+02  0.14539472191E+03  0.12500042242E+03 0.  0.
    9000005    1    3    3    0    0 -0.87001579378E+01  0.54875992006E+02 -0.38586394832E+01  0.55704186068E+02  0.10000000000E+01 0.  0.
    9000005    1    3    3    0    0  0.87001579378E+01 -0.54875992006E+02 -0.70401171671E+02  0.89690535841E+02  0.10000000000E+01 0.  0.
<mgrwt>
<rscale>  0 0.12500042E+03</rscale>
<asrwt>0</asrwt>
<pdfrwt beam="2">  1        4 0.16896502E-01 0.12500042E+03</pdfrwt>
<pdfrwt beam="1">  1       -4 0.54719163E-02 0.12500042E+03</pdfrwt>
<totfact> 0.10022879E+04</totfact>
</mgrwt>
</event>
<event>
 5    1  0.3317939E-002  0.1249998E+03  0.7818608E-02  0.1235070E+00
         -4   -1    0    0    0  501 -0.00000000000E+00  0.00000000000E+00  0.20744687579E+03  0.20745076326E+03  0.12700000000E+01 0.  1.
          4   -1    0    0  501    0  0.00000000000E+00 -0.00000000000E+00 -0.18804569615E+02  0.18847406676E+02  0.12700000000E+01 0.  1.
         25    2    1    2    0    0  0.00000000000E+00  0.00000000000E+00  0.18864230618E+03  0.22629816993E+03  0.12499976814E+03 0.  0.
    9000005    1    3    3    0    0 -0.26494524303E+02  0.51097664917E+02  0.50261173819E+02  0.76420656707E+02  0.10000000000E+01 0.  0.
    9000005    1    3    3    0    0  0.26494524303E+02 -0.51097664917E+02  0.13838113236E+03  0.14987751322E+03  0.10000000000E+01 0.  0.
<mgrwt>
<rscale>  0 0.12499977E+03</rscale>
<asrwt>0</asrwt>
<pdfrwt beam="2">  1        4 0.28966050E-02 0.12499977E+03</pdfrwt>
<pdfrwt beam="1">  1       -4 0.31918497E-01 0.12499977E+03</pdfrwt>
<totfact> 0.85881722E+03</totfact>
</mgrwt>
</event>
<event>
 5    1  0.3317939E-002  0.1250005E+03  0.7818608E-02  0.1235068E+00
          4   -1    0    0  501    0  0.00000000000E+00  0.00000000000E+00  0.34268936482E+02  0.34292461382E+02  0.12700000000E+01 0. -1.
         -4   -1    0    0    0  501 -0.00000000000E+00 -0.00000000000E+00 -0.11392285403E+03  0.11392993273E+03  0.12700000000E+01 0. -1.
         25    2    1    2    0    0  0.00000000000E+00  0.00000000000E+00 -0.79653917552E+02  0.14822239411E+03  0.12500052614E+03 0.  0.
    9000005    1    3    3    0    0 -0.48771859911E+02  0.13655642514E+02  0.35813163994E+01  0.50783823397E+02  0.10000000000E+01 0.  0.
    9000005    1    3    3    0    0  0.48771859911E+02 -0.13655642514E+02 -0.83235233951E+02  0.97438570713E+02  0.10000000000E+01 0.  0.
<mgrwt>
<rscale>  0 0.12500053E+03</rscale>
<asrwt>0</asrwt>
<pdfrwt beam="1">  1        4 0.52744983E-02 0.12500053E+03</pdfrwt>
<pdfrwt beam="2">  1       -4 0.17528947E-01 0.12500053E+03</pdfrwt>
<totfact> 0.99658044E+03</totfact>
</mgrwt>
</event>
<event>
 5    1  0.3317939E-002  0.1249998E+03  0.7818608E-02  0.1235070E+00
         -4   -1    0    0    0  501 -0.00000000000E+00  0.00000000000E+00  0.21528534261E+02  0.21565961314E+02  0.12700000000E+01 0.  1.
          4   -1    0    0  501    0  0.00000000000E+00 -0.00000000000E+00 -0.18124731061E+03  0.18125176001E+03  0.12700000000E+01 0.  1.
         25    2    1    2    0    0  0.00000000000E+00  0.00000000000E+00 -0.15971877635E+03  0.20281772132E+03  0.12499976225E+03 0.  0.
    9000005    1    3    3    0    0  0.42191650211E+02 -0.11130360132E+02 -0.72749410149E+01  0.44248672647E+02  0.10000000000E+01 0.  0.
    9000005    1    3    3    0    0 -0.42191650211E+02  0.11130360132E+02 -0.15244383534E+03  0.15856904867E+03  0.10000000000E+01 0.  0.
<mgrwt>
<rscale>  0 0.12499976E+03</rscale>
<asrwt>0</asrwt>
<pdfrwt beam="2">  1        4 0.27887422E-01 0.12499976E+03</pdfrwt>
<pdfrwt beam="1">  1       -4 0.33153036E-02 0.12499976E+03</pdfrwt>
<totfact> 0.89662919E+03</totfact>
</mgrwt>
</event>
<event>
 5    1  0.3317939E-002  0.1250006E+03  0.7818608E-02  0.1235068E+00
          4   -1    0    0  501    0  0.00000000000E+00  0.00000000000E+00  0.14659445480E+02  0.14714354957E+02  0.12700000000E+01 0. -1.
         -4   -1    0    0    0  501 -0.00000000000E+00 -0.00000000000E+00 -0.26591461188E+03  0.26591764460E+03  0.12700000000E+01 0. -1.
         25    2    1    2    0    0  0.00000000000E+00  0.00000000000E+00 -0.25125516640E+03  0.28063199956E+03  0.12500064214E+03 0.  0.
    9000005    1    3    3    0    0  0.10737550916E+02 -0.46349734334E+02 -0.34663178118E+02  0.58873837906E+02  0.10000000000E+01 0.  0.
    9000005    1    3    3    0    0 -0.10737550916E+02  0.46349734334E+02 -0.21659198828E+03  0.22175816165E+03  0.10000000000E+01 0.  0.
<mgrwt>
<rscale>  0 0.12500064E+03</rscale>
<asrwt>0</asrwt>
<pdfrwt beam="1">  1        4 0.22597566E-02 0.12500064E+03</pdfrwt>
<pdfrwt beam="2">  1       -4 0.40914394E-01 0.12500064E+03</pdfrwt>
<totfact> 0.78093268E+03</totfact>
</mgrwt>
</event>
<event>
 5    1  0.3317939E-002  0.1250030E+03  0.7818608E-02  0.1235065E+00
         -4   -1    0    0    0  501 -0.00000000000E+00  0.00000000000E+00  0.16961617161E+02  0.17009096294E+02  0.12700000000E+01 0.  1.
          4   -1    0    0  501    0  0.00000000000E+00 -0.00000000000E+00 -0.22993931085E+03  0.22994281805E+03  0.12700000000E+01 0.  1.
         25    2    1    2    0    0  0.00000000000E+00  0.00000000000E+00 -0.21297769369E+03  0.24695191435E+03  0.12500299993E+03 0.  0.
    9000005    1    3    3    0    0 -0.21045825128E+02  0.22723045006E+02 -0.21372004419E+03  0.21595490459E+03  0.10000000000E+01 0.  0.
    9000005    1    3    3    0    0  0.21045825128E+02 -0.22723045006E+02  0.74235049681E+00  0.30997009757E+02  0.10000000000E+01 0.  0.
<mgrwt>
<rscale>  0 0.12500300E+03</rscale>
<asrwt>0</asrwt>
<pdfrwt beam="2">  1        4 0.35379198E-01 0.12500300E+03</pdfrwt>
<pdfrwt beam="1">  1       -4 0.26134017E-02 0.12500300E+03</pdfrwt>
<totfact> 0.82767245E+03</totfact>
</mgrwt>
</event>
<event>
 5    1  0.3317939E-002  0.1250062E+03  0.7818608E-02  0.1235060E+00
          4   -1    0    0  501    0  0.00000000000E+00  0.00000000000E+00  0.55354077981E+01  0.56792287761E+01  0.12700000000E+01 0. -1.
         -4   -1    0    0    0  501 -0.00000000000E+00 -0.00000000000E+00 -0.69655855347E+03  0.69655971123E+03  0.12700000000E+01 0. -1.
         25    2    1    2    0    0  0.00000000000E+00  0.00000000000E+00 -0.69102314567E+03  0.70223894001E+03  0.12500616389E+03 0.  0.
    9000005    1    3    3    0    0  0.28786658903E+02 -0.50550154246E+01 -0.65582730005E+03  0.65647899616E+03  0.10000000000E+01 0.  0.
    9000005    1    3    3    0    0 -0.28786658903E+02  0.50550154246E+01 -0.35195845621E+02  0.45759943845E+02  0.10000000000E+01 0.  0.
<mgrwt>
<rscale>  0 0.12500616E+03</rscale>
<asrwt>0</asrwt>
<pdfrwt beam="1">  1        4 0.86275396E-03 0.12500616E+03</pdfrwt>
<pdfrwt beam="2">  1       -4 0.10717394E+00 0.12500616E+03</pdfrwt>
<totfact> 0.42962993E+03</totfact>
</mgrwt>
</event>
<event>
 5    1  0.3317939E-002  0.1250003E+03  0.7818608E-02  0.1235069E+00
          4   -1    0    0  501    0  0.00000000000E+00  0.00000000000E+00  0.39653370137E+01  0.41637480270E+01  0.12700000000E+01 0.  1.
         -4   -1    0    0    0  501 -0.00000000000E+00 -0.00000000000E+00 -0.96086093031E+03  0.96086176961E+03  0.12700000000E+01 0.  1.
         25    2    1    2    0    0  0.00000000000E+00  0.00000000000E+00 -0.95689559329E+03  0.96502551763E+03  0.12500029288E+03 0.  0.
    9000005    1    3    3    0    0  0.40869667865E+02  0.44526307966E+02 -0.35580942700E+03  0.36090756461E+03  0.10000000000E+01 0.  0.
    9000005    1    3    3    0    0 -0.40869667865E+02 -0.44526307966E+02 -0.60108616630E+03  0.60411795302E+03  0.10000000000E+01 0.  0.
<mgrwt>
<rscale>  0 0.12500029E+03</rscale>
<asrwt>0</asrwt>
<pdfrwt beam="1">  1        4 0.62537956E-03 0.12500029E+03</pdfrwt>
<pdfrwt beam="2">  1       -4 0.14783990E+00 0.12500029E+03</pdfrwt>
<totfact> 0.31788278E+03</totfact>
</mgrwt>
</event>
<event>
 5    1  0.3317939E-002  0.1250025E+03  0.7818608E-02  0.1235065E+00
          4   -1    0    0  501    0  0.00000000000E+00  0.00000000000E+00  0.46828251284E+01  0.48519842521E+01  0.12700000000E+01 0.  1.
         -4   -1    0    0    0  501 -0.00000000000E+00 -0.00000000000E+00 -0.81922872897E+03  0.81922971337E+03  0.12700000000E+01 0.  1.
         25    2    1    2    0    0  0.00000000000E+00  0.00000000000E+00 -0.81454590384E+03  0.82408169763E+03  0.12500245954E+03 0.  0.
    9000005    1    3    3    0    0  0.54485997377E+01  0.58959169047E+02 -0.53904641745E+03  0.54228950849E+03  0.10000000000E+01 0.  0.
    9000005    1    3    3    0    0 -0.54485997377E+01 -0.58959169047E+02 -0.27549948640E+03  0.28179218914E+03  0.10000000000E+01 0.  0.
<mgrwt>
<rscale>  0 0.12500246E+03</rscale>
<asrwt>0</asrwt>
<pdfrwt beam="1">  1        4 0.73352325E-03 0.12500246E+03</pdfrwt>
<pdfrwt beam="2">  1       -4 0.12604817E+00 0.12500246E+03</pdfrwt>
<totfact> 0.37210031E+03</totfact>
</mgrwt>
</event>
<event>
 5    1  0.3317939E-002  0.1249990E+03  0.7818608E-02  0.1235071E+00
         -4   -1    0    0    0  501 -0.00000000000E+00  0.00000000000E+00  0.71348404885E+03  0.71348517915E+03  0.12700000000E+01 0.  1.
          4   -1    0    0  501    0  0.00000000000E+00 -0.00000000000E+00 -0.54000102366E+01  0.55473426571E+01  0.12700000000E+01 0.  1.
         25    2    1    2    0    0  0.00000000000E+00  0.00000000000E+00  0.70808403862E+03  0.71903252181E+03  0.12499904669E+03 0.  0.
    9000005    1    3    3    0    0 -0.22192644480E+02  0.25181295533E+02  0.50825239326E+02  0.60916467940E+02  0.10000000000E+01 0.  0.
    9000005    1    3    3    0    0  0.22192644480E+02 -0.25181295533E+02  0.65725879929E+03  0.65811605387E+03  0.10000000000E+01 0.  0.
<mgrwt>
<rscale>  0 0.12499905E+03</rscale>
<asrwt>0</asrwt>
<pdfrwt beam="2">  1        4 0.84219134E-03 0.12499905E+03</pdfrwt>
<pdfrwt beam="1">  1       -4 0.10977815E+00 0.12499905E+03</pdfrwt>
<totfact> 0.42101734E+03</totfact>
</mgrwt>
</event>
<event>
 5    1  0.3317939E-002  0.1250001E+03  0.7818608E-02  0.1235069E+00
          4   -1    0    0  501    0  0.00000000000E+00  0.00000000000E+00  0.30914761589E+02  0.30940836836E+02  0.12700000000E+01 0. -1.
         -4   -1    0    0    0  501 -0.00000000000E+00 -0.00000000000E+00 -0.12627308447E+03  0.12627947086E+03  0.12700000000E+01 0. -1.
         25    2    1    2    0    0  0.00000000000E+00  0.00000000000E+00 -0.95358322878E+02  0.15722030770E+03  0.12500006164E+03 0.  0.
    9000005    1    3    3    0    0  0.42970459246E+02 -0.38255046832E+02 -0.78368160579E+02  0.97223852878E+02  0.10000000000E+01 0.  0.
    9000005    1    3    3    0    0 -0.42970459246E+02  0.38255046832E+02 -0.16990162299E+02  0.59996454819E+02  0.10000000000E+01 0.  0.
<mgrwt>
<rscale>  0 0.12500006E+03</rscale>
<asrwt>0</asrwt>
<pdfrwt beam="1">  1        4 0.47586143E-02 0.12500006E+03</pdfrwt>
<pdfrwt beam="2">  1       -4 0.19429125E-01 0.12500006E+03</pdfrwt>
<totfact> 0.97881244E+03</totfact>
</mgrwt>
</event>
<event>
 5    1  0.3317939E-002  0.1249958E+03  0.7818608E-02  0.1235076E+00
          4   -1    0    0  501    0  0.00000000000E+00  0.00000000000E+00  0.25142343623E+02  0.25174398560E+02  0.12700000000E+01 0.  1.
         -4   -1    0    0    0  501 -0.00000000000E+00 -0.00000000000E+00 -0.15522139136E+03  0.15522658676E+03  0.12700000000E+01 0.  1.
         25    2    1    2    0    0  0.00000000000E+00  0.00000000000E+00 -0.13007904774E+03  0.18040098532E+03  0.12499582730E+03 0.  0.
    9000005    1    3    3    0    0  0.55317576406E+02 -0.16760274913E+02 -0.99316418871E+02  0.11491602209E+03  0.10000000000E+01 0.  0.
    9000005    1    3    3    0    0 -0.55317576406E+02  0.16760274913E+02 -0.30762628868E+02  0.65484963231E+02  0.10000000000E+01 0.  0.
<mgrwt>
<rscale>  0 0.12499583E+03</rscale>
<asrwt>0</asrwt>
<pdfrwt beam="1">  1        4 0.38709184E-02 0.12499583E+03</pdfrwt>
<pdfrwt beam="2">  1       -4 0.23883079E-01 0.12499583E+03</pdfrwt>
<totfact> 0.93553627E+03</totfact>
</mgrwt>
</event>
<event>
 5    1  0.3317939E-002  0.1249980E+03  0.7818608E-02  0.1235072E+00
          4   -1    0    0  501    0  0.00000000000E+00  0.00000000000E+00  0.11676434704E+03  0.11677125349E+03  0.12700000000E+01 0.  1.
         -4   -1    0    0    0  501 -0.00000000000E+00 -0.00000000000E+00 -0.33433128397E+02  0.33457240986E+02  0.12700000000E+01 0.  1.
         25    2    1    2    0    0  0.00000000000E+00  0.00000000000E+00  0.83331218647E+02  0.15022849447E+03  0.12499803419E+03 0.  0.
    9000005    1    3    3    0    0  0.27956904622E+02 -0.53694448273E+02  0.23029430539E+02  0.64776824269E+02  0.10000000000E+01 0.  0.
    9000005    1    3    3    0    0 -0.27956904622E+02  0.53694448273E+02  0.60301788108E+02  0.85451670203E+02  0.10000000000E+01 0.  0.
<mgrwt>
<rscale>  0 0.12499803E+03</rscale>
<asrwt>0</asrwt>
<pdfrwt beam="1">  1        4 0.17966132E-01 0.12499803E+03</pdfrwt>
<pdfrwt beam="2">  1       -4 0.51459443E-02 0.12499803E+03</pdfrwt>
<totfact> 0.99262562E+03</totfact>
</mgrwt>
</event>
<event>
 5    1  0.3317939E-002  0.1250015E+03  0.7818608E-02  0.1235067E+00
         -4   -1    0    0    0  501 -0.00000000000E+00  0.00000000000E+00  0.48284737249E+02  0.48301436326E+02  0.12700000000E+01 0. -1.
          4   -1    0    0  501    0  0.00000000000E+00 -0.00000000000E+00 -0.80866614892E+02  0.80876586872E+02  0.12700000000E+01 0. -1.
         25    2    1    2    0    0  0.00000000000E+00  0.00000000000E+00 -0.32581877643E+02  0.12917802320E+03  0.12500153170E+03 0.  0.
    9000005    1    3    3    0    0  0.32832429738E+02 -0.51392984750E+02 -0.30390035767E+02  0.68145150950E+02  0.10000000000E+01 0.  0.
    9000005    1    3    3    0    0 -0.32832429738E+02  0.51392984750E+02 -0.21918418760E+01  0.61032872248E+02  0.10000000000E+01 0.  0.
<mgrwt>
<rscale>  0 0.12500153E+03</rscale>
<asrwt>0</asrwt>
<pdfrwt beam="2">  1        4 0.12443069E-01 0.12500153E+03</pdfrwt>
<pdfrwt beam="1">  1       -4 0.74304727E-02 0.12500153E+03</pdfrwt>
<totfact> 0.10361765E+04</totfact>
</mgrwt>
</event>
<event>
 5    1  0.3317939E-002  0.1250058E+03  0.7818608E-02  0.1235060E+00
          4   -1    0    0  501    0  0.00000000000E+00  0.00000000000E+00  0.31448416172E+02  0.31474049306E+02  0.12700000000E+01 0. -1.
         -4   -1    0    0    0  501 -0.00000000000E+00 -0.00000000000E+00 -0.12414335451E+03  0.12414985046E+03  0.12700000000E+01 0. -1.
         25    2    1    2    0    0  0.00000000000E+00  0.00000000000E+00 -0.92694938339E+02  0.15562389977E+03  0.12500578621E+03 0.  0.
    9000005    1    3    3    0    0 -0.10119459124E+02 -0.59760668729E+02 -0.65304446170E+02  0.89103376308E+02  0.10000000000E+01 0.  0.
    9000005    1    3    3    0    0  0.10119459124E+02  0.59760668729E+02 -0.27390492169E+02  0.66520523458E+02  0.10000000000E+01 0.  0.
<mgrwt>
<rscale>  0 0.12500579E+03</rscale>
<asrwt>0</asrwt>
<pdfrwt beam="1">  1        4 0.48406894E-02 0.12500579E+03</pdfrwt>
<pdfrwt beam="2">  1       -4 0.19101449E-01 0.12500579E+03</pdfrwt>
<totfact> 0.98180383E+03</totfact>
</mgrwt>
</event>
<event>
 5    1  0.3317939E-002  0.1249978E+03  0.7818608E-02  0.1235073E+00
         -4   -1    0    0    0  501 -0.00000000000E+00  0.00000000000E+00  0.78202340492E+03  0.78202443615E+03  0.12700000000E+01 0. -1.
          4   -1    0    0  501    0  0.00000000000E+00 -0.00000000000E+00 -0.49130987552E+01  0.50745876067E+01  0.12700000000E+01 0. -1.
         25    2    1    2    0    0  0.00000000000E+00  0.00000000000E+00  0.77711030616E+03  0.78709902376E+03  0.12499778101E+03 0.  0.
    9000005    1    3    3    0    0 -0.61721729054E+02 -0.22822570661E+00  0.32702328757E+03  0.33279851944E+03  0.10000000000E+01 0.  0.
    9000005    1    3    3    0    0  0.61721729054E+02  0.22822570661E+00  0.45008701859E+03  0.45430050432E+03  0.10000000000E+01 0.  0.
<mgrwt>
<rscale>  0 0.12499778E+03</rscale>
<asrwt>0</asrwt>
<pdfrwt beam="2">  1        4 0.76836304E-03 0.12499778E+03</pdfrwt>
<pdfrwt beam="1">  1       -4 0.12032377E+00 0.12499778E+03</pdfrwt>
<totfact> 0.38849080E+03</totfact>
</mgrwt>
</event>
<event>
 5    1  0.3317939E-002  0.1250010E+03  0.7818608E-02  0.1235068E+00
          4   -1    0    0  501    0  0.00000000000E+00  0.00000000000E+00  0.10540708269E+02  0.10616940747E+02  0.12700000000E+01 0.  1.
         -4   -1    0    0    0  501 -0.00000000000E+00 -0.00000000000E+00 -0.36918046545E+03  0.36918264987E+03  0.12700000000E+01 0.  1.
         25    2    1    2    0    0  0.00000000000E+00  0.00000000000E+00 -0.35863975718E+03  0.37979959062E+03  0.12500101442E+03 0.  0.
    9000005    1    3    3    0    0  0.41717592542E+02  0.15926607897E+02 -0.46487094553E+02  0.64467544754E+02  0.10000000000E+01 0.  0.
    9000005    1    3    3    0    0 -0.41717592542E+02 -0.15926607897E+02 -0.31215266263E+03  0.31533204587E+03  0.10000000000E+01 0.  0.
<mgrwt>
<rscale>  0 0.12500101E+03</rscale>
<asrwt>0</asrwt>
<pdfrwt beam="1">  1        4 0.16276798E-02 0.12500101E+03</pdfrwt>
<pdfrwt beam="2">  1       -4 0.56803017E-01 0.12500101E+03</pdfrwt>
<totfact> 0.66564539E+03</totfact>
</mgrwt>
</event>
<event>
 5    1  0.3317939E-002  0.1250003E+03  0.7818608E-02  0.1235069E+00
         -4   -1    0    0    0  501 -0.00000000000E+00  0.00000000000E+00  0.15787665151E+03  0.15788175953E+03  0.12700000000E+01 0.  1.
          4   -1    0    0  501    0  0.00000000000E+00 -0.00000000000E+00 -0.24720730422E+02  0.24753331344E+02  0.12700000000E+01 0.  1.
         25    2    1    2    0    0  0.00000000000E+00  0.00000000000E+00  0.13315592109E+03  0.18263509087E+03  0.12500030839E+03 0.  0.
    9000005    1    3    3    0    0 -0.47414724547E+02 -0.18927605557E+02  0.11923472027E+03  0.12970863068E+03  0.10000000000E+01 0.  0.
    9000005    1    3    3    0    0  0.47414724547E+02  0.18927605557E+02  0.13921200820E+02  0.52926460190E+02  0.10000000000E+01 0.  0.
<mgrwt>
<rscale>  0 0.12500031E+03</rscale>
<asrwt>0</asrwt>
<pdfrwt beam="2">  1        4 0.38060899E-02 0.12500031E+03</pdfrwt>
<pdfrwt beam="1">  1       -4 0.24291617E-01 0.12500031E+03</pdfrwt>
<totfact> 0.93144172E+03</totfact>
</mgrwt>
</event>
<event>
 5    1  0.3317939E-002  0.1249945E+03  0.7818608E-02  0.1235078E+00
         -4   -1    0    0    0  501 -0.00000000000E+00  0.00000000000E+00  0.83260723591E+02  0.83270408868E+02  0.12700000000E+01 0. -1.
          4   -1    0    0  501    0  0.00000000000E+00 -0.00000000000E+00 -0.46890736738E+02  0.46907932078E+02  0.12700000000E+01 0. -1.
         25    2    1    2    0    0  0.00000000000E+00  0.00000000000E+00  0.36369986853E+02  0.13017834095E+03  0.12499449791E+03 0.  0.
    9000005    1    3    3    0    0  0.24882858749E+02  0.60573742169E+01  0.77549456896E+02  0.81674761749E+02  0.10000000000E+01 0.  0.
    9000005    1    3    3    0    0 -0.24882858749E+02 -0.60573742169E+01 -0.41179470042E+02  0.48503579197E+02  0.10000000000E+01 0.  0.
<mgrwt>
<rscale>  0 0.12499450E+03</rscale>
<asrwt>0</asrwt>
<pdfrwt beam="2">  1        4 0.72160273E-02 0.12499450E+03</pdfrwt>
<pdfrwt beam="1">  1       -4 0.12811410E-01 0.12499450E+03</pdfrwt>
<totfact> 0.10341978E+04</totfact>
</mgrwt>
</event>
<event>
 5    1  0.3317939E-002  0.1249992E+03  0.7818608E-02  0.1235071E+00
          4   -1    0    0  501    0  0.00000000000E+00  0.00000000000E+00  0.15195417947E+03  0.15195948657E+03  0.12700000000E+01 0.  1.
         -4   -1    0    0    0  501 -0.00000000000E+00 -0.00000000000E+00 -0.25684988094E+02  0.25716366644E+02  0.12700000000E+01 0.  1.
         25    2    1    2    0    0  0.00000000000E+00  0.00000000000E+00  0.12626919138E+03  0.17767585321E+03  0.12499920049E+03 0.  0.
    9000005    1    3    3    0    0  0.51325157415E+02 -0.33363657995E+02  0.80989897895E+02  0.10152718365E+03  0.10000000000E+01 0.  0.
    9000005    1    3    3    0    0 -0.51325157415E+02  0.33363657995E+02  0.45279293482E+02  0.76148669566E+02  0.10000000000E+01 0.  0.
<mgrwt>
<rscale>  0 0.12499920E+03</rscale>
<asrwt>0</asrwt>
<pdfrwt beam="1">  1        4 0.23380388E-01 0.12499920E+03</pdfrwt>
<pdfrwt beam="2">  1       -4 0.39543585E-02 0.12499920E+03</pdfrwt>
<totfact> 0.94038723E+03</totfact>
</mgrwt>
</event>
<event>
 5    1  0.3317939E-002  0.1250012E+03  0.7818608E-02  0.1235067E+00
          4   -1    0    0  501    0  0.00000000000E+00  0.00000000000E+00  0.20927852442E+03  0.20928237786E+03  0.12700000000E+01 0.  1.
         -4   -1    0    0    0  501 -0.00000000000E+00 -0.00000000000E+00 -0.18640048304E+02  0.18683262584E+02  0.12700000000E+01 0.  1.
         25    2    1    2    0    0  0.00000000000E+00  0.00000000000E+00  0.19063847611E+03  0.22796564044E+03  0.12500121858E+03 0.  0.
    9000005    1    3    3    0    0 -0.11565353113E+02  0.40336233636E+02  0.17977396199E+03  0.18460890159E+03  0.10000000000E+01 0.  0.
    9000005    1    3    3    0    0  0.11565353113E+02 -0.40336233636E+02  0.10864514119E+02  0.43356738849E+02  0.10000000000E+01 0.  0.
<mgrwt>
<rscale>  0 0.12500122E+03</rscale>
<asrwt>0</asrwt>
<pdfrwt beam="1">  1        4 0.32200316E-01 0.12500122E+03</pdfrwt>
<pdfrwt beam="2">  1       -4 0.28713204E-02 0.12500122E+03</pdfrwt>
<totfact> 0.85620628E+03</totfact>
</mgrwt>
</event>
<event>
 5    1  0.3317939E-002  0.1250398E+03  0.7818608E-02  0.1235007E+00
          4   -1    0    0  501    0  0.00000000000E+00  0.00000000000E+00  0.85013396474E+03  0.85013491335E+03  0.12700000000E+01 0. -1.
         -4   -1    0    0    0  501 -0.00000000000E+00 -0.00000000000E+00 -0.45091198123E+01  0.46845556334E+01  0.12700000000E+01 0. -1.
         25    2    1    2    0    0  0.00000000000E+00  0.00000000000E+00  0.84562484493E+03  0.85481946899E+03  0.12503977848E+03 0.  0.
    9000005    1    3    3    0    0 -0.10829996765E+02 -0.61347763714E+02  0.38735565136E+03  0.39233434413E+03  0.10000000000E+01 0.  0.
    9000005    1    3    3    0    0  0.10829996765E+02  0.61347763714E+02  0.45826919356E+03  0.46248512486E+03  0.10000000000E+01 0.  0.
<mgrwt>
<rscale>  0 0.12503978E+03</rscale>
<asrwt>0</asrwt>
<pdfrwt beam="1">  1        4 0.13080343E+00 0.12503978E+03</pdfrwt>
<pdfrwt beam="2">  1       -4 0.70727867E-03 0.12503978E+03</pdfrwt>
<totfact> 0.35899716E+03</totfact>
</mgrwt>
</event>
<event>
 5    1  0.3317939E-002  0.1250007E+03  0.7818608E-02  0.1235068E+00
          4   -1    0    0  501    0  0.00000000000E+00  0.00000000000E+00  0.83525997725E+01  0.84485988755E+01  0.12700000000E+01 0.  1.
         -4   -1    0    0    0  501 -0.00000000000E+00 -0.00000000000E+00 -0.46490491612E+03  0.46490665077E+03  0.12700000000E+01 0.  1.
         25    2    1    2    0    0  0.00000000000E+00  0.00000000000E+00 -0.45655231635E+03  0.47335524965E+03  0.12500069923E+03 0.  0.
    9000005    1    3    3    0    0  0.43042605153E+02  0.81008041113E+01 -0.39707684736E+03  0.39948630965E+03  0.10000000000E+01 0.  0.
    9000005    1    3    3    0    0 -0.43042605153E+02 -0.81008041113E+01 -0.59475468984E+02  0.73868939998E+02  0.10000000000E+01 0.  0.
<mgrwt>
<rscale>  0 0.12500070E+03</rscale>
<asrwt>0</asrwt>
<pdfrwt beam="1">  1        4 0.12925337E-02 0.12500070E+03</pdfrwt>
<pdfrwt beam="2">  1       -4 0.71531331E-01 0.12500070E+03</pdfrwt>
<totfact> 0.57991722E+03</totfact>
</mgrwt>
</event>
<event>
 5    1  0.3317939E-002  0.1249996E+03  0.7818608E-02  0.1235070E+00
         -4   -1    0    0    0  501 -0.00000000000E+00  0.00000000000E+00  0.60660833867E+02  0.60674126821E+02  0.12700000000E+01 0.  1.
          4   -1    0    0  501    0  0.00000000000E+00 -0.00000000000E+00 -0.64367945295E+02  0.64380472828E+02  0.12700000000E+01 0.  1.
         25    2    1    2    0    0  0.00000000000E+00  0.00000000000E+00 -0.37071114278E+01  0.12505459965E+03  0.12499964087E+03 0.  0.
    9000005    1    3    3    0    0 -0.38075038158E+02  0.36606470820E+02 -0.35267122236E+02  0.63517809687E+02  0.10000000000E+01 0.  0.
    9000005    1    3    3    0    0  0.38075038158E+02 -0.36606470820E+02  0.31560010808E+02  0.61536789962E+02  0.10000000000E+01 0.  0.
<mgrwt>
<rscale>  0 0.12499964E+03</rscale>
<asrwt>0</asrwt>
<pdfrwt beam="2">  1        4 0.99047470E-02 0.12499964E+03</pdfrwt>
<pdfrwt beam="1">  1       -4 0.93344221E-02 0.12499964E+03</pdfrwt>
<totfact> 0.10451762E+04</totfact>
</mgrwt>
</event>
<event>
 5    1  0.3317939E-002  0.1249904E+03  0.7818608E-02  0.1235084E+00
         -4   -1    0    0    0  501 -0.00000000000E+00  0.00000000000E+00  0.13836812873E+02  0.13894973569E+02  0.12700000000E+01 0. -1.
          4   -1    0    0  501    0  0.00000000000E+00 -0.00000000000E+00 -0.28161337049E+03  0.28161623415E+03  0.12700000000E+01 0. -1.
         25    2    1    2    0    0  0.00000000000E+00  0.00000000000E+00 -0.26777655762E+03  0.29551120772E+03  0.12499035595E+03 0.  0.
    9000005    1    3    3    0    0  0.30301655482E+02 -0.54433917344E+02 -0.14532646673E+03  0.15812028211E+03  0.10000000000E+01 0.  0.
    9000005    1    3    3    0    0 -0.30301655482E+02  0.54433917344E+02 -0.12245009088E+03  0.13739092561E+03  0.10000000000E+01 0.  0.
<mgrwt>
<rscale>  0 0.12499036E+03</rscale>
<asrwt>0</asrwt>
<pdfrwt beam="2">  1        4 0.43329824E-01 0.12499036E+03</pdfrwt>
<pdfrwt beam="1">  1       -4 0.21334348E-02 0.12499036E+03</pdfrwt>
<totfact> 0.76181692E+03</totfact>
</mgrwt>
</event>
<event>
 5    1  0.3317939E-002  0.1250177E+03  0.7818608E-02  0.1235042E+00
          4   -1    0    0  501    0  0.00000000000E+00  0.00000000000E+00  0.45497630691E+03  0.45497807942E+03  0.12700000000E+01 0.  1.
         -4   -1    0    0    0  501 -0.00000000000E+00 -0.00000000000E+00 -0.85392876761E+01  0.86332111069E+01  0.12700000000E+01 0.  1.
         25    2    1    2    0    0  0.00000000000E+00  0.00000000000E+00  0.44643701923E+03  0.46361129052E+03  0.12501766498E+03 0.  0.
    9000005    1    3    3    0    0 -0.25945776154E+02  0.16835612365E+01  0.43398739582E+03  0.43476669308E+03  0.10000000000E+01 0.  0.
    9000005    1    3    3    0    0  0.25945776154E+02 -0.16835612365E+01  0.12449623413E+02  0.28844597446E+02  0.10000000000E+01 0.  0.
<mgrwt>
<rscale>  0 0.12501766E+03</rscale>
<asrwt>0</asrwt>
<pdfrwt beam="1">  1        4 0.70003698E-01 0.12501766E+03</pdfrwt>
<pdfrwt beam="2">  1       -4 0.13210981E-02 0.12501766E+03</pdfrwt>
<totfact> 0.58779668E+03</totfact>
</mgrwt>
</event>
<event>
 5    1  0.3317939E-002  0.1250036E+03  0.7818608E-02  0.1235064E+00
          4   -1    0    0  501    0  0.00000000000E+00  0.00000000000E+00  0.38398643843E+01  0.40444354971E+01  0.12700000000E+01 0.  1.
         -4   -1    0    0    0  501 -0.00000000000E+00 -0.00000000000E+00 -0.99074501261E+03  0.99074582659E+03  0.12700000000E+01 0.  1.
         25    2    1    2    0    0  0.00000000000E+00  0.00000000000E+00 -0.98690514823E+03  0.99479026209E+03  0.12500357577E+03 0.  0.
    9000005    1    3    3    0    0 -0.18840475523E+02 -0.30611428222E+02 -0.86619527604E+02  0.93786809403E+02  0.10000000000E+01 0.  0.
    9000005    1    3    3    0    0  0.18840475523E+02  0.30611428222E+02 -0.90028562062E+03  0.90100345269E+03  0.10000000000E+01 0.  0.
<mgrwt>
<rscale>  0 0.12500358E+03</rscale>
<asrwt>0</asrwt>
<pdfrwt beam="1">  1        4 0.60654801E-03 0.12500358E+03</pdfrwt>
<pdfrwt beam="2">  1       -4 0.15243791E+00 0.12500358E+03</pdfrwt>
<totfact> 0.30774764E+03</totfact>
</mgrwt>
</event>
<event>
 5    1  0.3317939E-002  0.1249975E+03  0.7818608E-02  0.1235073E+00
          4   -1    0    0  501    0  0.00000000000E+00  0.00000000000E+00  0.63620285465E+03  0.63620412225E+03  0.12700000000E+01 0.  1.
         -4   -1    0    0    0  501 -0.00000000000E+00 -0.00000000000E+00 -0.60727342064E+01  0.62041115997E+01  0.12700000000E+01 0.  1.
         25    2    1    2    0    0  0.00000000000E+00  0.00000000000E+00  0.63013012044E+03  0.64240823384E+03  0.12499748087E+03 0.  0.
    9000005    1    3    3    0    0 -0.59419835091E+02 -0.18978203727E+02  0.29569602030E+03  0.30220527037E+03  0.10000000000E+01 0.  0.
    9000005    1    3    3    0    0  0.59419835091E+02  0.18978203727E+02  0.33443410014E+03  0.34020296347E+03  0.10000000000E+01 0.  0.
<mgrwt>
<rscale>  0 0.12499748E+03</rscale>
<asrwt>0</asrwt>
<pdfrwt beam="1">  1        4 0.97887581E-01 0.12499748E+03</pdfrwt>
<pdfrwt beam="2">  1       -4 0.94447012E-03 0.12499748E+03</pdfrwt>
<totfact> 0.46298082E+03</totfact>
</mgrwt>
</event>
<event>
 5    1  0.3317939E-002  0.1249769E+03  0.7818608E-02  0.1235105E+00
         -4   -1    0    0    0  501 -0.00000000000E+00  0.00000000000E+00  0.55048289644E+03  0.55048436143E+03  0.12700000000E+01 0.  1.
          4   -1    0    0  501    0  0.00000000000E+00 -0.00000000000E+00 -0.70350881523E+01  0.71488016696E+01  0.12700000000E+01 0.  1.
         25    2    1    2    0    0  0.00000000000E+00  0.00000000000E+00  0.54344780829E+03  0.55763316310E+03  0.12497689486E+03 0.  0.
    9000005    1    3    3    0    0 -0.54828226242E+02  0.22838450199E+02  0.18519580345E+03  0.19448962650E+03  0.10000000000E+01 0.  0.
    9000005    1    3    3    0    0  0.54828226242E+02 -0.22838450199E+02  0.35825200484E+03  0.36314353659E+03  0.10000000000E+01 0.  0.
<mgrwt>
<rscale>  0 0.12497689E+03</rscale>
<asrwt>0</asrwt>
<pdfrwt beam="2">  1        4 0.10911809E-02 0.12497689E+03</pdfrwt>
<pdfrwt beam="1">  1       -4 0.84698554E-01 0.12497689E+03</pdfrwt>
<totfact> 0.51682202E+03</totfact>
</mgrwt>
</event>
<event>
 5    1  0.3317939E-002  0.1250316E+03  0.7818608E-02  0.1235020E+00
         -4   -1    0    0    0  501 -0.00000000000E+00  0.00000000000E+00  0.67242350278E+02  0.67254342394E+02  0.12700000000E+01 0.  1.
          4   -1    0    0  501    0  0.00000000000E+00 -0.00000000000E+00 -0.58097391423E+02  0.58111270767E+02  0.12700000000E+01 0.  1.
         25    2    1    2    0    0  0.00000000000E+00  0.00000000000E+00  0.91449588547E+01  0.12536561316E+03  0.12503162276E+03 0.  0.
    9000005    1    3    3    0    0 -0.58266299776E+02 -0.12574726155E+02 -0.14296430716E+02  0.61306389216E+02  0.10000000000E+01 0.  0.
    9000005    1    3    3    0    0  0.58266299776E+02  0.12574726155E+02  0.23441389571E+02  0.64059223945E+02  0.10000000000E+01 0.  0.
<mgrwt>
<rscale>  0 0.12503162E+03</rscale>
<asrwt>0</asrwt>
<pdfrwt beam="2">  1        4 0.89400504E-02 0.12503162E+03</pdfrwt>
<pdfrwt beam="1">  1       -4 0.10346967E-01 0.12503162E+03</pdfrwt>
<totfact> 0.10437466E+04</totfact>
</mgrwt>
</event>
<event>
 5    1  0.3317939E-002  0.1250014E+03  0.7818608E-02  0.1235067E+00
          4   -1    0    0  501    0  0.00000000000E+00  0.00000000000E+00  0.50776964266E+03  0.50777123088E+03  0.12700000000E+01 0. -1.
         -4   -1    0    0    0  501 -0.00000000000E+00 -0.00000000000E+00 -0.76391066823E+01  0.77439557658E+01  0.12700000000E+01 0. -1.
         25    2    1    2    0    0  0.00000000000E+00  0.00000000000E+00  0.50013053598E+03  0.51551518665E+03  0.12500141856E+03 0.  0.
    9000005    1    3    3    0    0 -0.49181988278E+02 -0.23572087959E+02  0.37588857398E+03  0.37982592243E+03  0.10000000000E+01 0.  0.
    9000005    1    3    3    0    0  0.49181988278E+02  0.23572087959E+02  0.12424196200E+03  0.13568926422E+03  0.10000000000E+01 0.  0.
<mgrwt>
<rscale>  0 0.12500142E+03</rscale>
<asrwt>0</asrwt>
<pdfrwt beam="1">  1        4 0.78126595E-01 0.12500142E+03</pdfrwt>
<pdfrwt beam="2">  1       -4 0.11834347E-02 0.12500142E+03</pdfrwt>
<totfact> 0.54678652E+03</totfact>
</mgrwt>
</event>
<event>
 5    1  0.3317939E-002  0.1249976E+03  0.7818608E-02  0.1235073E+00
         -4   -1    0    0    0  501 -0.00000000000E+00  0.00000000000E+00  0.38159838386E+03  0.38160049720E+03  0.12700000000E+01 0.  1.
          4   -1    0    0  501    0  0.00000000000E+00 -0.00000000000E+00 -0.10194618449E+02  0.10273419358E+02  0.12700000000E+01 0.  1.
         25    2    1    2    0    0  0.00000000000E+00  0.00000000000E+00  0.37140376541E+03  0.39187391656E+03  0.12499763805E+03 0.  0.
    9000005    1    3    3    0    0 -0.22785735671E+02 -0.29484870010E+02  0.28431200725E+02  0.46881558040E+02  0.10000000000E+01 0.  0.
    9000005    1    3    3    0    0  0.22785735671E+02  0.29484870010E+02  0.34297256468E+03  0.34499235852E+03  0.10000000000E+01 0.  0.
<mgrwt>
<rscale>  0 0.12499764E+03</rscale>
<asrwt>0</asrwt>
<pdfrwt beam="2">  1        4 0.15746270E-02 0.12499764E+03</pdfrwt>
<pdfrwt beam="1">  1       -4 0.58713670E-01 0.12499764E+03</pdfrwt>
<totfact> 0.65354276E+03</totfact>
</mgrwt>
</event>
<event>
 5    1  0.3317939E-002  0.1250022E+03  0.7818608E-02  0.1235066E+00
         -4   -1    0    0    0  501 -0.00000000000E+00  0.00000000000E+00  0.43697704427E+02  0.43716155734E+02  0.12700000000E+01 0.  1.
          4   -1    0    0  501    0  0.00000000000E+00 -0.00000000000E+00 -0.89353872858E+02  0.89362897752E+02  0.12700000000E+01 0.  1.
         25    2    1    2    0    0  0.00000000000E+00  0.00000000000E+00 -0.45656168431E+02  0.13307905349E+03  0.12500219502E+03 0.  0.
    9000005    1    3    3    0    0  0.24224408586E+02 -0.57602263980E+02 -0.23613595483E+02  0.66809016447E+02  0.10000000000E+01 0.  0.
    9000005    1    3    3    0    0 -0.24224408586E+02  0.57602263980E+02 -0.22042572948E+02  0.66270037039E+02  0.10000000000E+01 0.  0.
<mgrwt>
<rscale>  0 0.12500220E+03</rscale>
<asrwt>0</asrwt>
<pdfrwt beam="2">  1        4 0.13748863E-01 0.12500220E+03</pdfrwt>
<pdfrwt beam="1">  1       -4 0.67248373E-02 0.12500220E+03</pdfrwt>
<totfact> 0.10278211E+04</totfact>
</mgrwt>
</event>
<event>
 5    1  0.3317939E-002  0.1250022E+03  0.7818608E-02  0.1235066E+00
         -4   -1    0    0    0  501 -0.00000000000E+00  0.00000000000E+00  0.39480441833E+03  0.39480646098E+03  0.12700000000E+01 0. -1.
          4   -1    0    0  501    0  0.00000000000E+00 -0.00000000000E+00 -0.98516542412E+01  0.99331762940E+01  0.12700000000E+01 0. -1.
         25    2    1    2    0    0  0.00000000000E+00  0.00000000000E+00  0.38495276409E+03  0.40473963727E+03  0.12500217359E+03 0.  0.
    9000005    1    3    3    0    0  0.16274431603E+02 -0.53714649452E+02  0.10349320672E+03  0.11773684439E+03  0.10000000000E+01 0.  0.
    9000005    1    3    3    0    0 -0.16274431603E+02  0.53714649452E+02  0.28145955737E+03  0.28700279288E+03  0.10000000000E+01 0.  0.
<mgrwt>
<rscale>  0 0.12500217E+03</rscale>
<asrwt>0</asrwt>
<pdfrwt beam="2">  1        4 0.15220674E-02 0.12500217E+03</pdfrwt>
<pdfrwt beam="1">  1       -4 0.60745560E-01 0.12500217E+03</pdfrwt>
<totfact> 0.64091342E+03</totfact>
</mgrwt>
</event>
<event>
 5    1  0.3317939E-002  0.1249962E+03  0.7818608E-02  0.1235075E+00
         -4   -1    0    0    0  501 -0.00000000000E+00  0.00000000000E+00  0.19379080353E+03  0.19379496493E+03  0.12700000000E+01 0. -1.
          4   -1    0    0  501    0  0.00000000000E+00 -0.00000000000E+00 -0.20131438202E+02  0.20171457659E+02  0.12700000000E+01 0. -1.
         25    2    1    2    0    0  0.00000000000E+00  0.00000000000E+00  0.17365936532E+03  0.21396642259E+03  0.12499621926E+03 0.  0.
    9000005    1    3    3    0    0  0.13208063171E+02  0.31964097125E+02 -0.22629535371E+01  0.34673871957E+02  0.10000000000E+01 0.  0.
    9000005    1    3    3    0    0 -0.13208063171E+02 -0.31964097125E+02  0.17592231886E+03  0.17929255063E+03  0.10000000000E+01 0.  0.
<mgrwt>
<rscale>  0 0.12499622E+03</rscale>
<asrwt>0</asrwt>
<pdfrwt beam="2">  1        4 0.31005429E-02 0.12499622E+03</pdfrwt>
<pdfrwt beam="1">  1       -4 0.29817368E-01 0.12499622E+03</pdfrwt>
<totfact> 0.87839603E+03</totfact>
</mgrwt>
</event>
<event>
 5    1  0.3317939E-002  0.1250016E+03  0.7818608E-02  0.1235067E+00
          4   -1    0    0  501    0  0.00000000000E+00  0.00000000000E+00  0.35089704416E+03  0.35089934240E+03  0.12700000000E+01 0.  1.
         -4   -1    0    0    0  501 -0.00000000000E+00 -0.00000000000E+00 -0.11093911442E+02  0.11166367856E+02  0.12700000000E+01 0.  1.
         25    2    1    2    0    0  0.00000000000E+00  0.00000000000E+00  0.33980313271E+03  0.36206571026E+03  0.12500163816E+03 0.  0.
    9000005    1    3    3    0    0  0.15076278703E+01 -0.61258350103E+02  0.20543451638E+03  0.21438096679E+03  0.10000000000E+01 0.  0.
    9000005    1    3    3    0    0 -0.15076278703E+01  0.61258350103E+02  0.13436861633E+03  0.14768474347E+03  0.10000000000E+01 0.  0.
<mgrwt>
<rscale>  0 0.12500164E+03</rscale>
<asrwt>0</asrwt>
<pdfrwt beam="1">  1        4 0.53989909E-01 0.12500164E+03</pdfrwt>
<pdfrwt beam="2">  1       -4 0.17125060E-02 0.12500164E+03</pdfrwt>
<totfact> 0.68414784E+03</totfact>
</mgrwt>
</event>
<event>
 5    1  0.3317939E-002  0.1250038E+03  0.7818608E-02  0.1235063E+00
         -4   -1    0    0    0  501 -0.00000000000E+00  0.00000000000E+00  0.33752224649E+01  0.36062482842E+01  0.12700000000E+01 0. -1.
          4   -1    0    0  501    0  0.00000000000E+00 -0.00000000000E+00 -0.11188705052E+04  0.11188712259E+04  0.12700000000E+01 0. -1.
         25    2    1    2    0    0  0.00000000000E+00  0.00000000000E+00 -0.11154952827E+04  0.11224774742E+04  0.12500381757E+03 0.  0.
    9000005    1    3    3    0    0 -0.36330413524E+02 -0.49644804064E+02 -0.45897954486E+03  0.46308501176E+03  0.10000000000E+01 0.  0.
    9000005    1    3    3    0    0  0.36330413524E+02  0.49644804064E+02 -0.65651573784E+03  0.65939246246E+03  0.10000000000E+01 0.  0.
<mgrwt>
<rscale>  0 0.12500382E+03</rscale>
<asrwt>0</asrwt>
<pdfrwt beam="2">  1        4 0.17215146E+00 0.12500382E+03</pdfrwt>
<pdfrwt beam="1">  1       -4 0.53709255E-03 0.12500382E+03</pdfrwt>
<totfact> 0.26832498E+03</totfact>
</mgrwt>
</event>
<event>
 5    1  0.3317939E-002  0.1249990E+03  0.7818608E-02  0.1235071E+00
          4   -1    0    0  501    0  0.00000000000E+00  0.00000000000E+00  0.17599175025E+03  0.17599633251E+03  0.12700000000E+01 0.  1.
         -4   -1    0    0    0  501 -0.00000000000E+00 -0.00000000000E+00 -0.22172256906E+02  0.22208599152E+02  0.12700000000E+01 0.  1.
         25    2    1    2    0    0  0.00000000000E+00  0.00000000000E+00  0.15381949334E+03  0.19820493166E+03  0.12499903360E+03 0.  0.
    9000005    1    3    3    0    0  0.60468332092E+02  0.13326474095E+02  0.63532304821E+02  0.88720729560E+02  0.10000000000E+01 0.  0.
    9000005    1    3    3    0    0 -0.60468332092E+02 -0.13326474095E+02  0.90287188522E+02  0.10948420210E+03  0.10000000000E+01 0.  0.
<mgrwt>
<rscale>  0 0.12499903E+03</rscale>
<asrwt>0</asrwt>
<pdfrwt beam="1">  1        4 0.27078801E-01 0.12499903E+03</pdfrwt>
<pdfrwt beam="2">  1       -4 0.34142646E-02 0.12499903E+03</pdfrwt>
<totfact> 0.90440914E+03</totfact>
</mgrwt>
</event>
<event>
 5    1  0.3317939E-002  0.1249984E+03  0.7818608E-02  0.1235072E+00
         -4   -1    0    0    0  501 -0.00000000000E+00  0.00000000000E+00  0.19647561713E+03  0.19647972167E+03  0.12700000000E+01 0.  1.
          4   -1    0    0  501    0  0.00000000000E+00 -0.00000000000E+00 -0.19856483712E+02  0.19897056200E+02  0.12700000000E+01 0.  1.
         25    2    1    2    0    0  0.00000000000E+00  0.00000000000E+00  0.17661913342E+03  0.21637677786E+03  0.12499836683E+03 0.  0.
    9000005    1    3    3    0    0  0.32363421714E+02  0.53168671424E+02  0.97924107734E+02  0.11603632863E+03  0.10000000000E+01 0.  0.
    9000005    1    3    3    0    0 -0.32363421714E+02 -0.53168671424E+02  0.78695025681E+02  0.10034044924E+03  0.10000000000E+01 0.  0.
<mgrwt>
<rscale>  0 0.12499837E+03</rscale>
<asrwt>0</asrwt>
<pdfrwt beam="2">  1        4 0.30582805E-02 0.12499837E+03</pdfrwt>
<pdfrwt beam="1">  1       -4 0.30230453E-01 0.12499837E+03</pdfrwt>
<totfact> 0.87448136E+03</totfact>
</mgrwt>
</event>
<event>
 5    1  0.3317939E-002  0.1250019E+03  0.7818608E-02  0.1235066E+00
         -4   -1    0    0    0  501 -0.00000000000E+00  0.00000000000E+00  0.21811240996E+01  0.25239259771E+01  0.12700000000E+01 0.  1.
          4   -1    0    0  501    0  0.00000000000E+00 -0.00000000000E+00 -0.16601564584E+04  0.16601569442E+04  0.12700000000E+01 0.  1.
         25    2    1    2    0    0  0.00000000000E+00  0.00000000000E+00 -0.16579753343E+04  0.16626808701E+04  0.12500186717E+03 0.  0.
    9000005    1    3    3    0    0  0.58771489147E+01  0.47530811270E+02 -0.13629707148E+04  0.13638122628E+04  0.10000000000E+01 0.  0.
    9000005    1    3    3    0    0 -0.58771489147E+01 -0.47530811270E+02 -0.29500461952E+03  0.29886860731E+03  0.10000000000E+01 0.  0.
<mgrwt>
<rscale>  0 0.12500187E+03</rscale>
<asrwt>0</asrwt>
<pdfrwt beam="2">  1        4 0.25543416E+00 0.12500187E+03</pdfrwt>
<pdfrwt beam="1">  1       -4 0.36196562E-03 0.12500187E+03</pdfrwt>
<totfact> 0.14939637E+03</totfact>
</mgrwt>
</event>
<event>
 5    1  0.3317939E-002  0.1249958E+03  0.7818608E-02  0.1235076E+00
         -4   -1    0    0    0  501 -0.00000000000E+00  0.00000000000E+00  0.59142630462E+02  0.59156264571E+02  0.12700000000E+01 0. -1.
          4   -1    0    0  501    0  0.00000000000E+00 -0.00000000000E+00 -0.66016183637E+02  0.66028398450E+02  0.12700000000E+01 0. -1.
         25    2    1    2    0    0  0.00000000000E+00  0.00000000000E+00 -0.68735531747E+01  0.12518466302E+03  0.12499581642E+03 0.  0.
    9000005    1    3    3    0    0  0.43236337822E+02 -0.10595392644E+02 -0.47358995762E+02  0.65003982441E+02  0.10000000000E+01 0.  0.
    9000005    1    3    3    0    0 -0.43236337822E+02  0.10595392644E+02  0.40485442587E+02  0.60180680580E+02  0.10000000000E+01 0.  0.
<mgrwt>
<rscale>  0 0.12499582E+03</rscale>
<asrwt>0</asrwt>
<pdfrwt beam="2">  1        4 0.10158324E-01 0.12499582E+03</pdfrwt>
<pdfrwt beam="1">  1       -4 0.91008546E-02 0.12499582E+03</pdfrwt>
<totfact> 0.10449841E+04</totfact>
</mgrwt>
</event>
<event>
 5    1  0.3317939E-002  0.1249985E+03  0.7818608E-02  0.1235072E+00
          4   -1    0    0  501    0  0.00000000000E+00  0.00000000000E+00  0.32490594715E+02  0.32515406270E+02  0.12700000000E+01 0.  1.
         -4   -1    0    0    0  501 -0.00000000000E+00 -0.00000000000E+00 -0.12015025084E+03  0.12015696267E+03  0.12700000000E+01 0.  1.
         25    2    1    2    0    0  0.00000000000E+00  0.00000000000E+00 -0.87659656128E+02  0.15267236894E+03  0.12499854769E+03 0.  0.
    9000005    1    3    3    0    0  0.50394237343E+02 -0.33370148783E+02 -0.24440303528E+02  0.65203331385E+02  0.10000000000E+01 0.  0.
    9000005    1    3    3    0    0 -0.50394237343E+02  0.33370148783E+02 -0.63219352600E+02  0.87469037553E+02  0.10000000000E+01 0.  0.
<mgrwt>
<rscale>  0 0.12499855E+03</rscale>
<asrwt>0</asrwt>
<pdfrwt beam="1">  1        4 0.50009780E-02 0.12499855E+03</pdfrwt>
<pdfrwt beam="2">  1       -4 0.18487079E-01 0.12499855E+03</pdfrwt>
<totfact> 0.98776872E+03</totfact>
</mgrwt>
</event>
<event>
 5    1  0.3317939E-002  0.1250032E+03  0.7818608E-02  0.1235064E+00
          4   -1    0    0  501    0  0.00000000000E+00  0.00000000000E+00  0.59777808379E+02  0.59791297649E+02  0.12700000000E+01 0.  1.
         -4   -1    0    0    0  501 -0.00000000000E+00 -0.00000000000E+00 -0.65322474495E+02  0.65334819003E+02  0.12700000000E+01 0.  1.
         25    2    1    2    0    0  0.00000000000E+00  0.00000000000E+00 -0.55446661161E+01  0.12512611665E+03  0.12500320694E+03 0.  0.
    9000005    1    3    3    0    0 -0.21965095993E+02  0.58442149634E+02 -0.31001812825E-01  0.62441582755E+02  0.10000000000E+01 0.  0.
    9000005    1    3    3    0    0  0.21965095993E+02 -0.58442149634E+02 -0.55136643033E+01  0.62684533897E+02  0.10000000000E+01 0.  0.
<mgrwt>
<rscale>  0 0.12500321E+03</rscale>
<asrwt>0</asrwt>
<pdfrwt beam="1">  1        4 0.91985731E-02 0.12500321E+03</pdfrwt>
<pdfrwt beam="2">  1       -4 0.10051599E-01 0.12500321E+03</pdfrwt>
<totfact> 0.10449367E+04</totfact>
</mgrwt>
</event>
<event>
 5    1  0.3317939E-002  0.1250042E+03  0.7818608E-02  0.1235063E+00
          4   -1    0    0  501    0  0.00000000000E+00  0.00000000000E+00  0.11721383338E+02  0.11789984197E+02  0.12700000000E+01 0.  1.
         -4   -1    0    0    0  501 -0.00000000000E+00 -0.00000000000E+00 -0.33223838377E+03  0.33224081109E+03  0.12700000000E+01 0.  1.
         25    2    1    2    0    0  0.00000000000E+00  0.00000000000E+00 -0.32051700043E+03  0.34403079528E+03  0.12500416208E+03 0.  0.
    9000005    1    3    3    0    0  0.60907873354E+02 -0.13990726904E+02 -0.16032910892E+03  0.17208118039E+03  0.10000000000E+01 0.  0.
    9000005    1    3    3    0    0 -0.60907873354E+02  0.13990726904E+02 -0.16018789151E+03  0.17194961489E+03  0.10000000000E+01 0.  0.
<mgrwt>
<rscale>  0 0.12500416E+03</rscale>
<asrwt>0</asrwt>
<pdfrwt beam="1">  1        4 0.18087537E-02 0.12500416E+03</pdfrwt>
<pdfrwt beam="2">  1       -4 0.51119054E-01 0.12500416E+03</pdfrwt>
<totfact> 0.70379790E+03</totfact>
</mgrwt>
</event>
<event>
 5    1  0.3317939E-002  0.1249861E+03  0.7818608E-02  0.1235091E+00
         -4   -1    0    0    0  501 -0.00000000000E+00  0.00000000000E+00  0.55129835349E+02  0.55144461604E+02  0.12700000000E+01 0.  1.
          4   -1    0    0  501    0  0.00000000000E+00 -0.00000000000E+00 -0.70810030240E+02  0.70821418247E+02  0.12700000000E+01 0.  1.
         25    2    1    2    0    0  0.00000000000E+00  0.00000000000E+00 -0.15680194891E+02  0.12596587985E+03  0.12498613673E+03 0.  0.
    9000005    1    3    3    0    0 -0.37561404738E+02  0.14763957692E+02  0.40236560873E+02  0.56998371938E+02  0.10000000000E+01 0.  0.
    9000005    1    3    3    0    0  0.37561404738E+02 -0.14763957692E+02 -0.55916755764E+02  0.68967507913E+02  0.10000000000E+01 0.  0.
<mgrwt>
<rscale>  0 0.12498614E+03</rscale>
<asrwt>0</asrwt>
<pdfrwt beam="2">  1        4 0.10895852E-01 0.12498614E+03</pdfrwt>
<pdfrwt beam="1">  1       -4 0.84835142E-02 0.12498614E+03</pdfrwt>
<totfact> 0.10434969E+04</totfact>
</mgrwt>
</event>
<event>
 5    1  0.3317939E-002  0.1249985E+03  0.7818608E-02  0.1235072E+00
          4   -1    0    0  501    0  0.00000000000E+00  0.00000000000E+00  0.75941885496E+03  0.75941991689E+03  0.12700000000E+01 0.  1.
         -4   -1    0    0    0  501 -0.00000000000E+00 -0.00000000000E+00 -0.50641369095E+01  0.52209561038E+01  0.12700000000E+01 0.  1.
         25    2    1    2    0    0  0.00000000000E+00  0.00000000000E+00  0.75435471805E+03  0.76464087299E+03  0.12499849602E+03 0.  0.
    9000005    1    3    3    0    0  0.40393297702E+02 -0.46043171949E+02  0.45298224067E+03  0.45710557046E+03  0.10000000000E+01 0.  0.
    9000005    1    3    3    0    0 -0.40393297702E+02  0.46043171949E+02  0.30137247737E+03  0.30753530253E+03  0.10000000000E+01 0.  0.
<mgrwt>
<rscale>  0 0.12499850E+03</rscale>
<asrwt>0</asrwt>
<pdfrwt beam="1">  1        4 0.11684577E+00 0.12499850E+03</pdfrwt>
<pdfrwt beam="2">  1       -4 0.79124300E-03 0.12499850E+03</pdfrwt>
<totfact> 0.39884788E+03</totfact>
</mgrwt>
</event>
<event>
 5    1  0.3317939E-002  0.1249899E+03  0.7818608E-02  0.1235085E+00
          4   -1    0    0  501    0  0.00000000000E+00  0.00000000000E+00  0.35261473974E+02  0.35284337132E+02  0.12700000000E+01 0. -1.
         -4   -1    0    0    0  501 -0.00000000000E+00 -0.00000000000E+00 -0.11069926781E+03  0.11070655262E+03  0.12700000000E+01 0. -1.
         25    2    1    2    0    0  0.00000000000E+00  0.00000000000E+00 -0.75437793838E+02  0.14599088976E+03  0.12498991620E+03 0.  0.
    9000005    1    3    3    0    0  0.57328550520E+00 -0.45239161204E+02  0.12624170165E+02  0.46981698937E+02  0.10000000000E+01 0.  0.
    9000005    1    3    3    0    0 -0.57328550520E+00  0.45239161204E+02 -0.88061964003E+02  0.99009190819E+02  0.10000000000E+01 0.  0.
<mgrwt>
<rscale>  0 0.12498992E+03</rscale>
<asrwt>0</asrwt>
<pdfrwt beam="1">  1        4 0.54271613E-02 0.12498992E+03</pdfrwt>
<pdfrwt beam="2">  1       -4 0.17032975E-01 0.12498992E+03</pdfrwt>
<totfact> 0.10013168E+04</totfact>
</mgrwt>
</event>
<event>
 5    1  0.3317939E-002  0.1249995E+03  0.7818608E-02  0.1235070E+00
          4   -1    0    0  501    0  0.00000000000E+00  0.00000000000E+00  0.30895373932E+03  0.30895634957E+03  0.12700000000E+01 0. -1.
         -4   -1    0    0    0  501 -0.00000000000E+00 -0.00000000000E+00 -0.12608823411E+02  0.12672621189E+02  0.12700000000E+01 0. -1.
         25    2    1    2    0    0  0.00000000000E+00  0.00000000000E+00  0.29634491591E+03  0.32162897076E+03  0.12499954258E+03 0.  0.
    9000005    1    3    3    0    0  0.43010843284E+02  0.35453849555E+02  0.22087229307E+03  0.22779920530E+03  0.10000000000E+01 0.  0.
    9000005    1    3    3    0    0 -0.43010843284E+02 -0.35453849555E+02  0.75472622836E+02  0.93829765459E+02  0.10000000000E+01 0.  0.
<mgrwt>
<rscale>  0 0.12499954E+03</rscale>
<asrwt>0</asrwt>
<pdfrwt beam="1">  1        4 0.47536449E-01 0.12499954E+03</pdfrwt>
<pdfrwt beam="2">  1       -4 0.19449275E-02 0.12499954E+03</pdfrwt>
<totfact> 0.72963540E+03</totfact>
</mgrwt>
</event>
<event>
 5    1  0.3317939E-002  0.1249988E+03  0.7818608E-02  0.1235071E+00
         -4   -1    0    0    0  501 -0.00000000000E+00  0.00000000000E+00  0.93867132769E+03  0.93867218683E+03  0.12700000000E+01 0. -1.
          4   -1    0    0  501    0  0.00000000000E+00 -0.00000000000E+00 -0.40636079296E+01  0.42574416503E+01  0.12700000000E+01 0. -1.
         25    2    1    2    0    0  0.00000000000E+00  0.00000000000E+00  0.93460771976E+03  0.94292962848E+03  0.12499877771E+03 0.  0.
    9000005    1    3    3    0    0 -0.44920816527E+02 -0.40942699117E+02  0.57687688921E+03  0.58007079712E+03  0.10000000000E+01 0.  0.
    9000005    1    3    3    0    0  0.44920816527E+02  0.40942699117E+02  0.35773083055E+03  0.36285883136E+03  0.10000000000E+01 0.  0.
<mgrwt>
<rscale>  0 0.12499878E+03</rscale>
<asrwt>0</asrwt>
<pdfrwt beam="2">  1        4 0.64014639E-03 0.12499878E+03</pdfrwt>
<pdfrwt beam="1">  1       -4 0.14442605E+00 0.12499878E+03</pdfrwt>
<totfact> 0.32569180E+03</totfact>
</mgrwt>
</event>
<event>
 5    1  0.3317939E-002  0.1250025E+03  0.7818608E-02  0.1235065E+00
          4   -1    0    0  501    0  0.00000000000E+00  0.00000000000E+00  0.11034236456E+02  0.11107082163E+02  0.12700000000E+01 0. -1.
         -4   -1    0    0    0  501 -0.00000000000E+00 -0.00000000000E+00 -0.35278743140E+03  0.35278971733E+03  0.12700000000E+01 0. -1.
         25    2    1    2    0    0  0.00000000000E+00  0.00000000000E+00 -0.34175319495E+03  0.36389679950E+03  0.12500253768E+03 0.  0.
    9000005    1    3    3    0    0  0.59069478410E+02 -0.89819127849E+01 -0.11755226182E+03  0.13186892089E+03  0.10000000000E+01 0.  0.
    9000005    1    3    3    0    0 -0.59069478410E+02  0.89819127849E+01 -0.22420093312E+03  0.23202787861E+03  0.10000000000E+01 0.  0.
<mgrwt>
<rscale>  0 0.12500254E+03</rscale>
<asrwt>0</asrwt>
<pdfrwt beam="1">  1        4 0.17033545E-02 0.12500254E+03</pdfrwt>
<pdfrwt beam="2">  1       -4 0.54280760E-01 0.12500254E+03</pdfrwt>
<totfact> 0.68218492E+03</totfact>
</mgrwt>
</event>
<event>
 4    1  0.3317939E-002  0.1248684E+03  0.7818608E-02  0.1235275E+00
         -4   -1    0    0    0  501 -0.00000000000E+00  0.00000000000E+00  0.86526844917E+03  0.86526938119E+03  0.12700000000E+01 0.  1.
          4   -1    0    0  501    0  0.00000000000E+00 -0.00000000000E+00 -0.44145356147E+01  0.45935851678E+01  0.12700000000E+01 0.  1.
    9000005    1    1    2    0    0 -0.56186173448E+02  0.22010792533E+02  0.31903927051E+03  0.32469742407E+03  0.10000000000E+01 0.  0.
    9000005    1    1    2    0    0  0.56186173448E+02 -0.22010792533E+02  0.54181464304E+03  0.54516554228E+03  0.10000000000E+01 0.  0.
<mgrwt>
<rscale>  0 0.12486841E+03</rscale>
<asrwt>0</asrwt>
<pdfrwt beam="2">  1        4 0.69300418E-03 0.12486841E+03</pdfrwt>
<pdfrwt beam="1">  1       -4 0.13313204E+00 0.12486841E+03</pdfrwt>
<totfact> 0.35429711E+03</totfact>
</mgrwt>
</event>
<event>
 5    1  0.3317939E-002  0.1250063E+03  0.7818608E-02  0.1235059E+00
          4   -1    0    0  501    0  0.00000000000E+00  0.00000000000E+00  0.14249003740E+02  0.14305488722E+02  0.12700000000E+01 0.  1.
         -4   -1    0    0    0  501 -0.00000000000E+00 -0.00000000000E+00 -0.27356930789E+03  0.27357225575E+03  0.12700000000E+01 0.  1.
         25    2    1    2    0    0  0.00000000000E+00  0.00000000000E+00 -0.25932030415E+03  0.28787774447E+03  0.12500630233E+03 0.  0.
    9000005    1    3    3    0    0  0.56568034619E+02  0.25299789349E+02 -0.14831539854E+03  0.16074352033E+03  0.10000000000E+01 0.  0.
    9000005    1    3    3    0    0 -0.56568034619E+02 -0.25299789349E+02 -0.11100490560E+03  0.12713422415E+03  0.10000000000E+01 0.  0.
<mgrwt>
<rscale>  0 0.12500630E+03</rscale>
<asrwt>0</asrwt>
<pdfrwt beam="1">  1        4 0.21967264E-02 0.12500630E+03</pdfrwt>
<pdfrwt beam="2">  1       -4 0.42092154E-01 0.12500630E+03</pdfrwt>
<totfact> 0.77134237E+03</totfact>
</mgrwt>
</event>
<event>
 5    1  0.3317939E-002  0.1250006E+03  0.7818608E-02  0.1235068E+00
         -4   -1    0    0    0  501 -0.00000000000E+00  0.00000000000E+00  0.40749611321E+01  0.42682793053E+01  0.12700000000E+01 0.  1.
          4   -1    0    0  501    0  0.00000000000E+00 -0.00000000000E+00 -0.93620184821E+03  0.93620270962E+03  0.12700000000E+01 0.  1.
         25    2    1    2    0    0  0.00000000000E+00  0.00000000000E+00 -0.93212688708E+03  0.94047098892E+03  0.12500058955E+03 0.  0.
    9000005    1    3    3    0    0 -0.61735571810E+02 -0.84825978230E+01 -0.43073268616E+03  0.43521820070E+03  0.10000000000E+01 0.  0.
    9000005    1    3    3    0    0  0.61735571810E+02  0.84825978230E+01 -0.50139420092E+03  0.50525278822E+03  0.10000000000E+01 0.  0.
<mgrwt>
<rscale>  0 0.12500059E+03</rscale>
<asrwt>0</asrwt>
<pdfrwt beam="2">  1        4 0.14404582E+00 0.12500059E+03</pdfrwt>
<pdfrwt beam="1">  1       -4 0.64185474E-03 0.12500059E+03</pdfrwt>
<totfact> 0.32656343E+03</totfact>
</mgrwt>
</event>
<event>
 5    1  0.3317939E-002  0.1249994E+03  0.7818608E-02  0.1235070E+00
         -4   -1    0    0    0  501 -0.00000000000E+00  0.00000000000E+00  0.53968712397E+02  0.53983653246E+02  0.12700000000E+01 0. -1.
          4   -1    0    0  501    0  0.00000000000E+00 -0.00000000000E+00 -0.72348658232E+02  0.72359804090E+02  0.12700000000E+01 0. -1.
         25    2    1    2    0    0  0.00000000000E+00  0.00000000000E+00 -0.18379945835E+02  0.12634345734E+03  0.12499938721E+03 0.  0.
    9000005    1    3    3    0    0  0.86184555894E+01  0.21633376972E+02  0.49424362674E+02  0.54644747247E+02  0.10000000000E+01 0.  0.
    9000005    1    3    3    0    0 -0.86184555894E+01 -0.21633376972E+02 -0.67804308509E+02  0.71698710089E+02  0.10000000000E+01 0.  0.
<mgrwt>
<rscale>  0 0.12499939E+03</rscale>
<asrwt>0</asrwt>
<pdfrwt beam="2">  1        4 0.11132570E-01 0.12499939E+03</pdfrwt>
<pdfrwt beam="1">  1       -4 0.83048855E-02 0.12499939E+03</pdfrwt>
<totfact> 0.10423588E+04</totfact>
</mgrwt>
</event>
<event>
 5    1  0.3317939E-002  0.1249966E+03  0.7818608E-02  0.1235075E+00
         -4   -1    0    0    0  501 -0.00000000000E+00  0.00000000000E+00  0.10464978632E+03  0.10465749221E+03  0.12700000000E+01 0. -1.
          4   -1    0    0  501    0  0.00000000000E+00 -0.00000000000E+00 -0.37304956168E+02  0.37326567679E+02  0.12700000000E+01 0. -1.
         25    2    1    2    0    0  0.00000000000E+00  0.00000000000E+00  0.67344830150E+02  0.14198405989E+03  0.12499658842E+03 0.  0.
    9000005    1    3    3    0    0  0.58329259845E+02  0.80517189234E+01  0.99023204825E+01  0.59717574320E+02  0.10000000000E+01 0.  0.
    9000005    1    3    3    0    0 -0.58329259845E+02 -0.80517189234E+01  0.57442509668E+02  0.82266485573E+02  0.10000000000E+01 0.  0.
<mgrwt>
<rscale>  0 0.12499659E+03</rscale>
<asrwt>0</asrwt>
<pdfrwt beam="2">  1        4 0.57414792E-02 0.12499659E+03</pdfrwt>
<pdfrwt beam="1">  1       -4 0.16102222E-01 0.12499659E+03</pdfrwt>
<totfact> 0.10093405E+04</totfact>
</mgrwt>
</event>
<event>
 5    1  0.3317939E-002  0.1250023E+03  0.7818608E-02  0.1235066E+00
          4   -1    0    0  501    0  0.00000000000E+00  0.00000000000E+00  0.26551091619E+03  0.26551395352E+03  0.12700000000E+01 0.  1.
         -4   -1    0    0    0  501 -0.00000000000E+00 -0.00000000000E+00 -0.14682216071E+02  0.14737040706E+02  0.12700000000E+01 0.  1.
         25    2    1    2    0    0  0.00000000000E+00  0.00000000000E+00  0.25082870012E+03  0.28025099423E+03  0.12500233183E+03 0.  0.
    9000005    1    3    3    0    0  0.45520459676E+02 -0.10377436319E+02  0.32282518193E+02  0.56771158299E+02  0.10000000000E+01 0.  0.
    9000005    1    3    3    0    0 -0.45520459676E+02  0.10377436319E+02  0.21854618192E+03  0.22347983593E+03  0.10000000000E+01 0.  0.
<mgrwt>
<rscale>  0 0.12500233E+03</rscale>
<asrwt>0</asrwt>
<pdfrwt beam="1">  1        4 0.40852279E-01 0.12500233E+03</pdfrwt>
<pdfrwt beam="2">  1       -4 0.22632537E-02 0.12500233E+03</pdfrwt>
<totfact> 0.78140790E+03</totfact>
</mgrwt>
</event>
<event>
 5    1  0.3317939E-002  0.1249753E+03  0.7818608E-02  0.1235108E+00
          4   -1    0    0  501    0  0.00000000000E+00  0.00000000000E+00  0.10746405854E+03  0.10747156265E+03  0.12700000000E+01 0.  1.
         -4   -1    0    0    0  501 -0.00000000000E+00 -0.00000000000E+00 -0.36315101659E+02  0.36337301888E+02  0.12700000000E+01 0.  1.
         25    2    1    2    0    0  0.00000000000E+00  0.00000000000E+00  0.71148956884E+02  0.14380886454E+03  0.12497525937E+03 0.  0.
    9000005    1    3    3    0    0  0.15559616095E+02 -0.10906817245E+02 -0.32915233397E+02  0.38019375390E+02  0.10000000000E+01 0.  0.
    9000005    1    3    3    0    0 -0.15559616095E+02  0.10906817245E+02  0.10406419028E+03  0.10578948915E+03  0.10000000000E+01 0.  0.
<mgrwt>
<rscale>  0 0.12497526E+03</rscale>
<asrwt>0</asrwt>
<pdfrwt beam="1">  1        4 0.16535217E-01 0.12497526E+03</pdfrwt>
<pdfrwt beam="2">  1       -4 0.55892238E-02 0.12497526E+03</pdfrwt>
<totfact> 0.10060851E+04</totfact>
</mgrwt>
</event>
<event>
 5    1  0.3317939E-002  0.1250031E+03  0.7818608E-02  0.1235065E+00
          4   -1    0    0  501    0  0.00000000000E+00  0.00000000000E+00  0.11753202116E+02  0.11821618332E+02  0.12700000000E+01 0.  1.
         -4   -1    0    0    0  501 -0.00000000000E+00 -0.00000000000E+00 -0.33133824477E+03  0.33134067868E+03  0.12700000000E+01 0.  1.
         25    2    1    2    0    0  0.00000000000E+00  0.00000000000E+00 -0.31958504266E+03  0.34316229702E+03  0.12500305037E+03 0.  0.
    9000005    1    3    3    0    0  0.99820778343E+01 -0.61624826099E+02 -0.15194116875E+03  0.16426922972E+03  0.10000000000E+01 0.  0.
    9000005    1    3    3    0    0 -0.99820778343E+01  0.61624826099E+02 -0.16764387390E+03  0.17889306730E+03  0.10000000000E+01 0.  0.
<mgrwt>
<rscale>  0 0.12500305E+03</rscale>
<asrwt>0</asrwt>
<pdfrwt beam="1">  1        4 0.18136352E-02 0.12500305E+03</pdfrwt>
<pdfrwt beam="2">  1       -4 0.50980558E-01 0.12500305E+03</pdfrwt>
<totfact> 0.70478639E+03</totfact>
</mgrwt>
</event>
<event>
 5    1  0.3317939E-002  0.1249988E+03  0.7818608E-02  0.1235071E+00
          4   -1    0    0  501    0  0.00000000000E+00  0.00000000000E+00  0.55512141796E+01  0.56946359733E+01  0.12700000000E+01 0. -1.
         -4   -1    0    0    0  501 -0.00000000000E+00 -0.00000000000E+00 -0.69454301603E+03  0.69454417716E+03  0.12700000000E+01 0. -1.
         25    2    1    2    0    0  0.00000000000E+00  0.00000000000E+00 -0.68899180185E+03  0.70023881313E+03  0.12499876956E+03 0.  0.
    9000005    1    3    3    0    0  0.58224334595E+02 -0.22454324873E+02 -0.32599816875E+03  0.33191877903E+03  0.10000000000E+01 0.  0.
    9000005    1    3    3    0    0 -0.58224334595E+02  0.22454324873E+02 -0.36299363310E+03  0.36832003410E+03  0.10000000000E+01 0.  0.
<mgrwt>
<rscale>  0 0.12499877E+03</rscale>
<asrwt>0</asrwt>
<pdfrwt beam="1">  1        4 0.86515526E-03 0.12499877E+03</pdfrwt>
<pdfrwt beam="2">  1       -4 0.10686383E+00 0.12499877E+03</pdfrwt>
<totfact> 0.43075268E+03</totfact>
</mgrwt>
</event>
<event>
 5    1  0.3317939E-002  0.1250369E+03  0.7818608E-02  0.1235012E+00
         -4   -1    0    0    0  501 -0.00000000000E+00  0.00000000000E+00  0.26352816745E+03  0.26353122764E+03  0.12700000000E+01 0.  1.
          4   -1    0    0  501    0  0.00000000000E+00 -0.00000000000E+00 -0.14801314454E+02  0.14855699565E+02  0.12700000000E+01 0.  1.
         25    2    1    2    0    0  0.00000000000E+00  0.00000000000E+00  0.24872685300E+03  0.27838692720E+03  0.12503692989E+03 0.  0.
    9000005    1    3    3    0    0 -0.28508009350E+02 -0.91090346832E+01  0.21752518781E+01  0.30023537944E+02  0.10000000000E+01 0.  0.
    9000005    1    3    3    0    0  0.28508009350E+02  0.91090346832E+01  0.24655160112E+03  0.24836338926E+03  0.10000000000E+01 0.  0.
<mgrwt>
<rscale>  0 0.12503693E+03</rscale>
<asrwt>0</asrwt>
<pdfrwt beam="2">  1        4 0.22815444E-02 0.12503693E+03</pdfrwt>
<pdfrwt beam="1">  1       -4 0.40547210E-01 0.12503693E+03</pdfrwt>
<totfact> 0.78328152E+03</totfact>
</mgrwt>
</event>
<event>
 5    1  0.3317939E-002  0.1249986E+03  0.7818608E-02  0.1235071E+00
         -4   -1    0    0    0  501 -0.00000000000E+00  0.00000000000E+00  0.14634854057E+04  0.14634859567E+04  0.12700000000E+01 0.  1.
          4   -1    0    0  501    0  0.00000000000E+00 -0.00000000000E+00 -0.25174271795E+01  0.28196346579E+01  0.12700000000E+01 0.  1.
         25    2    1    2    0    0  0.00000000000E+00  0.00000000000E+00  0.14609679785E+04  0.14663055914E+04  0.12499861249E+03 0.  0.
    9000005    1    3    3    0    0  0.34441241337E+02 -0.91778107584E+01  0.12835779784E+03  0.13321845060E+03  0.10000000000E+01 0.  0.
    9000005    1    3    3    0    0 -0.34441241337E+02  0.91778107584E+01  0.13326101807E+04  0.13330871408E+04  0.10000000000E+01 0.  0.
<mgrwt>
<rscale>  0 0.12499861E+03</rscale>
<asrwt>0</asrwt>
<pdfrwt beam="2">  1        4 0.41058512E-03 0.12499861E+03</pdfrwt>
<pdfrwt beam="1">  1       -4 0.22517516E+00 0.12499861E+03</pdfrwt>
<totfact> 0.18601753E+03</totfact>
</mgrwt>
</event>
<event>
 5    1  0.3317939E-002  0.1250056E+03  0.7818608E-02  0.1235061E+00
         -4   -1    0    0    0  501 -0.00000000000E+00  0.00000000000E+00  0.11083470365E+03  0.11084197956E+03  0.12700000000E+01 0. -1.
          4   -1    0    0  501    0  0.00000000000E+00 -0.00000000000E+00 -0.35227205844E+02  0.35250091228E+02  0.12700000000E+01 0. -1.
         25    2    1    2    0    0  0.00000000000E+00  0.00000000000E+00  0.75607497807E+02  0.14609207079E+03  0.12500559757E+03 0.  0.
    9000005    1    3    3    0    0  0.48728732350E+01 -0.57138887480E+02  0.66833321809E+02  0.88069803338E+02  0.10000000000E+01 0.  0.
    9000005    1    3    3    0    0 -0.48728732350E+01  0.57138887480E+02  0.87741759978E+01  0.58022267453E+02  0.10000000000E+01 0.  0.
<mgrwt>
<rscale>  0 0.12500560E+03</rscale>
<asrwt>0</asrwt>
<pdfrwt beam="2">  1        4 0.54218902E-02 0.12500560E+03</pdfrwt>
<pdfrwt beam="1">  1       -4 0.17053813E-01 0.12500560E+03</pdfrwt>
<totfact> 0.10007586E+04</totfact>
</mgrwt>
</event>
<event>
 5    1  0.3317939E-002  0.1249800E+03  0.7818608E-02  0.1235101E+00
         -4   -1    0    0    0  501 -0.00000000000E+00  0.00000000000E+00  0.11066608309E+03  0.11067337009E+03  0.12700000000E+01 0.  1.
          4   -1    0    0  501    0  0.00000000000E+00 -0.00000000000E+00 -0.35266466124E+02  0.35289326047E+02  0.12700000000E+01 0.  1.
         25    2    1    2    0    0  0.00000000000E+00  0.00000000000E+00  0.75399616969E+02  0.14596269614E+03  0.12498002410E+03 0.  0.
    9000005    1    3    3    0    0 -0.61659582041E+02 -0.86887335482E+01  0.43723605346E+02  0.76093047071E+02  0.10000000000E+01 0.  0.
    9000005    1    3    3    0    0  0.61659582041E+02  0.86887335482E+01  0.31676011623E+02  0.69869649065E+02  0.10000000000E+01 0.  0.
<mgrwt>
<rscale>  0 0.12498002E+03</rscale>
<asrwt>0</asrwt>
<pdfrwt beam="2">  1        4 0.54279291E-02 0.12498002E+03</pdfrwt>
<pdfrwt beam="1">  1       -4 0.17027870E-01 0.12498002E+03</pdfrwt>
<totfact> 0.10015969E+04</totfact>
</mgrwt>
</event>
<event>
 5    1  0.3317939E-002  0.1249989E+03  0.7818608E-02  0.1235071E+00
         -4   -1    0    0    0  501 -0.00000000000E+00  0.00000000000E+00  0.10261747896E+02  0.10340037228E+02  0.12700000000E+01 0. -1.
          4   -1    0    0  501    0  0.00000000000E+00 -0.00000000000E+00 -0.37912878139E+03  0.37913090850E+03  0.12700000000E+01 0. -1.
         25    2    1    2    0    0  0.00000000000E+00  0.00000000000E+00 -0.36886703350E+03  0.38947094573E+03  0.12499891666E+03 0.  0.
    9000005    1    3    3    0    0  0.43182270908E+02  0.24138614874E+02 -0.65468863157E+02  0.82064324112E+02  0.10000000000E+01 0.  0.
    9000005    1    3    3    0    0 -0.43182270908E+02 -0.24138614874E+02 -0.30339817034E+03  0.30740662162E+03  0.10000000000E+01 0.  0.
<mgrwt>
<rscale>  0 0.12499892E+03</rscale>
<asrwt>0</asrwt>
<pdfrwt beam="2">  1        4 0.58333680E-01 0.12499892E+03</pdfrwt>
<pdfrwt beam="1">  1       -4 0.15849166E-02 0.12499892E+03</pdfrwt>
<totfact> 0.65591452E+03</totfact>
</mgrwt>
</event>
<event>
 5    1  0.3317939E-002  0.1249999E+03  0.7818608E-02  0.1235069E+00
          4   -1    0    0  501    0  0.00000000000E+00  0.00000000000E+00  0.13655351837E+03  0.13655942399E+03  0.12700000000E+01 0.  1.
         -4   -1    0    0    0  501 -0.00000000000E+00 -0.00000000000E+00 -0.28585348007E+02  0.28613546104E+02  0.12700000000E+01 0.  1.
         25    2    1    2    0    0  0.00000000000E+00  0.00000000000E+00  0.10796817037E+03  0.16517297009E+03  0.12499993695E+03 0.  0.
    9000005    1    3    3    0    0 -0.34876418685E+01  0.30742523457E+02 -0.17760879476E+02  0.35689147286E+02  0.10000000000E+01 0.  0.
    9000005    1    3    3    0    0  0.34876418685E+01 -0.30742523457E+02  0.12572904984E+03  0.12948382281E+03  0.10000000000E+01 0.  0.
<mgrwt>
<rscale>  0 0.12499994E+03</rscale>
<asrwt>0</asrwt>
<pdfrwt beam="1">  1        4 0.21010856E-01 0.12499994E+03</pdfrwt>
<pdfrwt beam="2">  1       -4 0.44003693E-02 0.12499994E+03</pdfrwt>
<totfact> 0.96354781E+03</totfact>
</mgrwt>
</event>
<event>
 5    1  0.3317939E-002  0.1250074E+03  0.7818608E-02  0.1235058E+00
          4   -1    0    0  501    0  0.00000000000E+00  0.00000000000E+00  0.71015379543E+03  0.71015493102E+03  0.12700000000E+01 0.  1.
         -4   -1    0    0    0  501 -0.00000000000E+00 -0.00000000000E+00 -0.54267702129E+01  0.55733952797E+01  0.12700000000E+01 0.  1.
         25    2    1    2    0    0  0.00000000000E+00  0.00000000000E+00  0.70472702521E+03  0.71572832630E+03  0.12500742781E+03 0.  0.
    9000005    1    3    3    0    0  0.27121299887E+02  0.54814885477E+02  0.42601509654E+03  0.43038366495E+03  0.10000000000E+01 0.  0.
    9000005    1    3    3    0    0 -0.27121299887E+02 -0.54814885477E+02  0.27871192867E+03  0.28534466135E+03  0.10000000000E+01 0.  0.
<mgrwt>
<rscale>  0 0.12500743E+03</rscale>
<asrwt>0</asrwt>
<pdfrwt beam="1">  1        4 0.10926582E+00 0.12500743E+03</pdfrwt>
<pdfrwt beam="2">  1       -4 0.84625377E-03 0.12500743E+03</pdfrwt>
<totfact> 0.42262446E+03</totfact>
</mgrwt>
</event>
<event>
 5    1  0.3317939E-002  0.1250029E+03  0.7818608E-02  0.1235065E+00
         -4   -1    0    0    0  501 -0.00000000000E+00  0.00000000000E+00  0.11256749911E+03  0.11257466303E+03  0.12700000000E+01 0. -1.
          4   -1    0    0  501    0  0.00000000000E+00 -0.00000000000E+00 -0.34683132291E+02  0.34706376439E+02  0.12700000000E+01 0. -1.
         25    2    1    2    0    0  0.00000000000E+00  0.00000000000E+00  0.77884366819E+02  0.14728103947E+03  0.12500291993E+03 0.  0.
    9000005    1    3    3    0    0 -0.50420074120E+02  0.36443660844E+02  0.45923398421E+02  0.77332288293E+02  0.10000000000E+01 0.  0.
    9000005    1    3    3    0    0  0.50420074120E+02 -0.36443660844E+02  0.31960968398E+02  0.69948751175E+02  0.10000000000E+01 0.  0.
<mgrwt>
<rscale>  0 0.12500292E+03</rscale>
<asrwt>0</asrwt>
<pdfrwt beam="2">  1        4 0.53382056E-02 0.12500292E+03</pdfrwt>
<pdfrwt beam="1">  1       -4 0.17320416E-01 0.12500292E+03</pdfrwt>
<totfact> 0.99841906E+03</totfact>
</mgrwt>
</event>
<event>
 5    1  0.3317939E-002  0.1249931E+03  0.7818608E-02  0.1235080E+00
          4   -1    0    0  501    0  0.00000000000E+00  0.00000000000E+00  0.20577435375E+02  0.20616589112E+02  0.12700000000E+01 0.  1.
         -4   -1    0    0    0  501 -0.00000000000E+00 -0.00000000000E+00 -0.18958898498E+03  0.18959323861E+03  0.12700000000E+01 0.  1.
         25    2    1    2    0    0  0.00000000000E+00  0.00000000000E+00 -0.16901154961E+03  0.21020982772E+03  0.12499307089E+03 0.  0.
    9000005    1    3    3    0    0 -0.48355162278E+02 -0.27301843947E+02 -0.36311799679E+02  0.66356304883E+02  0.10000000000E+01 0.  0.
    9000005    1    3    3    0    0  0.48355162278E+02  0.27301843947E+02 -0.13269974993E+03  0.14385352284E+03  0.10000000000E+01 0.  0.
<mgrwt>
<rscale>  0 0.12499307E+03</rscale>
<asrwt>0</asrwt>
<pdfrwt beam="1">  1        4 0.31690984E-02 0.12499307E+03</pdfrwt>
<pdfrwt beam="2">  1       -4 0.29170874E-01 0.12499307E+03</pdfrwt>
<totfact> 0.88455327E+03</totfact>
</mgrwt>
</event>
<event>
 5    1  0.3317939E-002  0.1250014E+03  0.7818608E-02  0.1235067E+00
          4   -1    0    0  501    0  0.00000000000E+00  0.00000000000E+00  0.11626173479E+03  0.11626867108E+03  0.12700000000E+01 0.  1.
         -4   -1    0    0    0  501 -0.00000000000E+00 -0.00000000000E+00 -0.33579543427E+02  0.33603550955E+02  0.12700000000E+01 0.  1.
         25    2    1    2    0    0  0.00000000000E+00  0.00000000000E+00  0.82682191360E+02  0.14987222204E+03  0.12500135268E+03 0.  0.
    9000005    1    3    3    0    0  0.50330005089E+02 -0.82998410639E+01  0.84625846723E+02  0.98815639994E+02  0.10000000000E+01 0.  0.
    9000005    1    3    3    0    0 -0.50330005089E+02  0.82998410639E+01 -0.19436553623E+01  0.51056582045E+02  0.10000000000E+01 0.  0.
<mgrwt>
<rscale>  0 0.12500135E+03</rscale>
<asrwt>0</asrwt>
<pdfrwt beam="1">  1        4 0.17888801E-01 0.12500135E+03</pdfrwt>
<pdfrwt beam="2">  1       -4 0.51684639E-02 0.12500135E+03</pdfrwt>
<totfact> 0.99326151E+03</totfact>
</mgrwt>
</event>
<event>
 5    1  0.3317939E-002  0.1249752E+03  0.7818608E-02  0.1235108E+00
          4   -1    0    0  501    0  0.00000000000E+00  0.00000000000E+00  0.69381435353E+03  0.69381551587E+03  0.12700000000E+01 0.  1.
         -4   -1    0    0    0  501 -0.00000000000E+00 -0.00000000000E+00 -0.55550421623E+01  0.56983676105E+01  0.12700000000E+01 0.  1.
         25    2    1    2    0    0  0.00000000000E+00  0.00000000000E+00  0.68825931136E+03  0.69951388348E+03  0.12497517153E+03 0.  0.
    9000005    1    3    3    0    0  0.50071709508E+02 -0.37144260999E+02  0.36708929507E+03  0.37234718043E+03  0.10000000000E+01 0.  0.
    9000005    1    3    3    0    0 -0.50071709508E+02  0.37144260999E+02  0.32117001629E+03  0.32716670305E+03  0.10000000000E+01 0.  0.
<mgrwt>
<rscale>  0 0.12497517E+03</rscale>
<asrwt>0</asrwt>
<pdfrwt beam="1">  1        4 0.10675171E+00 0.12497517E+03</pdfrwt>
<pdfrwt beam="2">  1       -4 0.86573692E-03 0.12497517E+03</pdfrwt>
<totfact> 0.43135816E+03</totfact>
</mgrwt>
</event>
<event>
 5    1  0.3317939E-002  0.1250009E+03  0.7818608E-02  0.1235068E+00
         -4   -1    0    0    0  501 -0.00000000000E+00  0.00000000000E+00  0.46023673235E+03  0.46023848460E+03  0.12700000000E+01 0. -1.
          4   -1    0    0  501    0  0.00000000000E+00 -0.00000000000E+00 -0.84383168587E+01  0.85333517101E+01  0.12700000000E+01 0. -1.
         25    2    1    2    0    0  0.00000000000E+00  0.00000000000E+00  0.45179841549E+03  0.46877183631E+03  0.12500090509E+03 0.  0.
    9000005    1    3    3    0    0  0.77187654326E+01 -0.17993435616E+02  0.44845596227E+03  0.44888427591E+03  0.10000000000E+01 0.  0.
    9000005    1    3    3    0    0 -0.77187654326E+01  0.17993435616E+02  0.33424532252E+01  0.19887560400E+02  0.10000000000E+01 0.  0.
<mgrwt>
<rscale>  0 0.12500091E+03</rscale>
<asrwt>0</asrwt>
<pdfrwt beam="2">  1        4 0.13056478E-02 0.12500091E+03</pdfrwt>
<pdfrwt beam="1">  1       -4 0.70813096E-01 0.12500091E+03</pdfrwt>
<totfact> 0.58370234E+03</totfact>
</mgrwt>
</event>
<event>
 5    1  0.3317939E-002  0.1249998E+03  0.7818608E-02  0.1235070E+00
          4   -1    0    0  501    0  0.00000000000E+00  0.00000000000E+00  0.22651113003E+03  0.22651469031E+03  0.12700000000E+01 0.  1.
         -4   -1    0    0    0  501 -0.00000000000E+00 -0.00000000000E+00 -0.17218138582E+02  0.17264912286E+02  0.12700000000E+01 0.  1.
         25    2    1    2    0    0  0.00000000000E+00  0.00000000000E+00  0.20929299144E+03  0.24377960259E+03  0.12499975349E+03 0.  0.
    9000005    1    3    3    0    0  0.15230623626E+02 -0.58497764666E+02  0.13556099243E+03  0.14843093692E+03  0.10000000000E+01 0.  0.
    9000005    1    3    3    0    0 -0.15230623626E+02  0.58497764666E+02  0.73731999014E+02  0.95348665673E+02  0.10000000000E+01 0.  0.
<mgrwt>
<rscale>  0 0.12499975E+03</rscale>
<asrwt>0</asrwt>
<pdfrwt beam="1">  1        4 0.34851735E-01 0.12499975E+03</pdfrwt>
<pdfrwt beam="2">  1       -4 0.26528165E-02 0.12499975E+03</pdfrwt>
<totfact> 0.83238122E+03</totfact>
</mgrwt>
</event>
<event>
 5    1  0.3317939E-002  0.1249992E+03  0.7818608E-02  0.1235071E+00
         -4   -1    0    0    0  501 -0.00000000000E+00  0.00000000000E+00  0.41918720156E+03  0.41918912540E+03  0.12700000000E+01 0.  1.
          4   -1    0    0  501    0  0.00000000000E+00 -0.00000000000E+00 -0.92732789309E+01  0.93598398561E+01  0.12700000000E+01 0.  1.
         25    2    1    2    0    0  0.00000000000E+00  0.00000000000E+00  0.40991392263E+03  0.42854896525E+03  0.12499916662E+03 0.  0.
    9000005    1    3    3    0    0  0.48213681368E+02 -0.32437616001E+02  0.28376874172E+03  0.28965920800E+03  0.10000000000E+01 0.  0.
    9000005    1    3    3    0    0 -0.48213681368E+02  0.32437616001E+02  0.12614518091E+03  0.13888975725E+03  0.10000000000E+01 0.  0.
<mgrwt>
<rscale>  0 0.12499917E+03</rscale>
<asrwt>0</asrwt>
<pdfrwt beam="2">  1        4 0.14334643E-02 0.12499917E+03</pdfrwt>
<pdfrwt beam="1">  1       -4 0.64497168E-01 0.12499917E+03</pdfrwt>
<totfact> 0.61868861E+03</totfact>
</mgrwt>
</event>
<event>
 5    1  0.3317939E-002  0.1250208E+03  0.7818608E-02  0.1235037E+00
         -4   -1    0    0    0  501 -0.00000000000E+00  0.00000000000E+00  0.11582515714E+03  0.11583211958E+03  0.12700000000E+01 0.  1.
          4   -1    0    0  501    0  0.00000000000E+00 -0.00000000000E+00 -0.33716683203E+02  0.33740593151E+02  0.12700000000E+01 0.  1.
         25    2    1    2    0    0  0.00000000000E+00  0.00000000000E+00  0.82108473936E+02  0.14957271273E+03  0.12502077788E+03 0.  0.
    9000005    1    3    3    0    0  0.22548638721E+02 -0.33498531839E+02  0.98130049487E+02  0.10611832714E+03  0.10000000000E+01 0.  0.
    9000005    1    3    3    0    0 -0.22548638721E+02  0.33498531839E+02 -0.16021575551E+02  0.43454385586E+02  0.10000000000E+01 0.  0.
<mgrwt>
<rscale>  0 0.12502078E+03</rscale>
<asrwt>0</asrwt>
<pdfrwt beam="2">  1        4 0.51895569E-02 0.12502078E+03</pdfrwt>
<pdfrwt beam="1">  1       -4 0.17821629E-01 0.12502078E+03</pdfrwt>
<totfact> 0.99342475E+03</totfact>
</mgrwt>
</event>
<event>
 5    1  0.3317939E-002  0.1249871E+03  0.7818608E-02  0.1235090E+00
          4   -1    0    0  501    0  0.00000000000E+00  0.00000000000E+00  0.41529349384E+02  0.41548763643E+02  0.12700000000E+01 0.  1.
         -4   -1    0    0    0  501 -0.00000000000E+00 -0.00000000000E+00 -0.93994817508E+02  0.94003396845E+02  0.12700000000E+01 0.  1.
         25    2    1    2    0    0  0.00000000000E+00  0.00000000000E+00 -0.52465468124E+02  0.13555216049E+03  0.12498705080E+03 0.  0.
    9000005    1    3    3    0    0  0.15437030623E+02  0.77199760064E+01 -0.91363599140E+02  0.92984983690E+02  0.10000000000E+01 0.  0.
    9000005    1    3    3    0    0 -0.15437030623E+02 -0.77199760064E+01  0.38898131016E+02  0.42567176798E+02  0.10000000000E+01 0.  0.
<mgrwt>
<rscale>  0 0.12498705E+03</rscale>
<asrwt>0</asrwt>
<pdfrwt beam="1">  1        4 0.63912840E-02 0.12498705E+03</pdfrwt>
<pdfrwt beam="2">  1       -4 0.14462894E-01 0.12498705E+03</pdfrwt>
<totfact> 0.10229433E+04</totfact>
</mgrwt>
</event>
<event>
 5    1  0.3317939E-002  0.1249974E+03  0.7818608E-02  0.1235073E+00
         -4   -1    0    0    0  501 -0.00000000000E+00  0.00000000000E+00  0.17636150473E+03  0.17636607738E+03  0.12700000000E+01 0.  1.
          4   -1    0    0  501    0  0.00000000000E+00 -0.00000000000E+00 -0.22125132314E+02  0.22161551839E+02  0.12700000000E+01 0.  1.
         25    2    1    2    0    0  0.00000000000E+00  0.00000000000E+00  0.15423637242E+03  0.19852762922E+03  0.12499744392E+03 0.  0.
    9000005    1    3    3    0    0 -0.57469275888E+01  0.61913254910E+02  0.87012882784E+02  0.10695101720E+03  0.10000000000E+01 0.  0.
    9000005    1    3    3    0    0  0.57469275888E+01 -0.61913254910E+02  0.67223489632E+02  0.91576612017E+02  0.10000000000E+01 0.  0.
<mgrwt>
<rscale>  0 0.12499744E+03</rscale>
<asrwt>0</asrwt>
<pdfrwt beam="2">  1        4 0.34070197E-02 0.12499744E+03</pdfrwt>
<pdfrwt beam="1">  1       -4 0.27135693E-01 0.12499744E+03</pdfrwt>
<totfact> 0.90389511E+03</totfact>
</mgrwt>
</event>
<event>
 5    1  0.3317939E-002  0.1249957E+03  0.7818608E-02  0.1235076E+00
         -4   -1    0    0    0  501 -0.00000000000E+00  0.00000000000E+00  0.57326110142E+02  0.57340176177E+02  0.12700000000E+01 0.  1.
          4   -1    0    0  501    0  0.00000000000E+00 -0.00000000000E+00 -0.68107780423E+02  0.68119620185E+02  0.12700000000E+01 0.  1.
         25    2    1    2    0    0  0.00000000000E+00  0.00000000000E+00 -0.10781670281E+02  0.12545979636E+03  0.12499566428E+03 0.  0.
    9000005    1    3    3    0    0 -0.19559575192E+02  0.97392032352E+01  0.53371835632E+02  0.57679995666E+02  0.10000000000E+01 0.  0.
    9000005    1    3    3    0    0  0.19559575192E+02 -0.97392032352E+01 -0.64153505913E+02  0.67779800695E+02  0.10000000000E+01 0.  0.
<mgrwt>
<rscale>  0 0.12499566E+03</rscale>
<asrwt>0</asrwt>
<pdfrwt beam="2">  1        4 0.10480113E-01 0.12499566E+03</pdfrwt>
<pdfrwt beam="1">  1       -4 0.88213943E-02 0.12499566E+03</pdfrwt>
<totfact> 0.10443864E+04</totfact>
</mgrwt>
</event>
<event>
 5    1  0.3317939E-002  0.1249995E+03  0.7818608E-02  0.1235070E+00
          4   -1    0    0  501    0  0.00000000000E+00  0.00000000000E+00  0.32546501931E+03  0.32546749714E+03  0.12700000000E+01 0. -1.
         -4   -1    0    0    0  501 -0.00000000000E+00 -0.00000000000E+00 -0.11965836722E+02  0.12033044023E+02  0.12700000000E+01 0. -1.
         25    2    1    2    0    0  0.00000000000E+00  0.00000000000E+00  0.31349918259E+03  0.33750054116E+03  0.12499951121E+03 0.  0.
    9000005    1    3    3    0    0  0.38700958972E+02  0.26490166133E+02  0.45237789125E+02  0.65168632731E+02  0.10000000000E+01 0.  0.
    9000005    1    3    3    0    0 -0.38700958972E+02 -0.26490166133E+02  0.26826139346E+03  0.27233190843E+03  0.10000000000E+01 0.  0.
<mgrwt>
<rscale>  0 0.12499951E+03</rscale>
<asrwt>0</asrwt>
<pdfrwt beam="1">  1        4 0.50076903E-01 0.12499951E+03</pdfrwt>
<pdfrwt beam="2">  1       -4 0.18462583E-02 0.12499951E+03</pdfrwt>
<totfact> 0.71122666E+03</totfact>
</mgrwt>
</event>
<event>
 5    1  0.3317939E-002  0.1249951E+03  0.7818608E-02  0.1235077E+00
         -4   -1    0    0    0  501 -0.00000000000E+00  0.00000000000E+00  0.40690124560E+01  0.42626004231E+01  0.12700000000E+01 0.  1.
          4   -1    0    0  501    0  0.00000000000E+00 -0.00000000000E+00 -0.93742576659E+03  0.93742662687E+03  0.12700000000E+01 0.  1.
         25    2    1    2    0    0  0.00000000000E+00  0.00000000000E+00 -0.93335675413E+03  0.94168922729E+03  0.12499508116E+03 0.  0.
    9000005    1    3    3    0    0 -0.17230961840E+02 -0.56073157187E+02 -0.62893321067E+03  0.63166374638E+03  0.10000000000E+01 0.  0.
    9000005    1    3    3    0    0  0.17230961840E+02  0.56073157187E+02 -0.30442354346E+03  0.31002548091E+03  0.10000000000E+01 0.  0.
<mgrwt>
<rscale>  0 0.12499508E+03</rscale>
<asrwt>0</asrwt>
<pdfrwt beam="2">  1        4 0.14423414E+00 0.12499508E+03</pdfrwt>
<pdfrwt beam="1">  1       -4 0.64096022E-03 0.12499508E+03</pdfrwt>
<totfact> 0.32616426E+03</totfact>
</mgrwt>
</event>
<event>
 5    1  0.3317939E-002  0.1250003E+03  0.7818608E-02  0.1235069E+00
          4   -1    0    0  501    0  0.00000000000E+00  0.00000000000E+00  0.14451216690E+03  0.14451774729E+03  0.12700000000E+01 0.  1.
         -4   -1    0    0    0  501 -0.00000000000E+00 -0.00000000000E+00 -0.27009691251E+02  0.27039532568E+02  0.12700000000E+01 0.  1.
         25    2    1    2    0    0  0.00000000000E+00  0.00000000000E+00  0.11750247565E+03  0.17155727986E+03  0.12500027396E+03 0.  0.
    9000005    1    3    3    0    0  0.15568718418E+02 -0.51863090692E+02  0.10156440522E+03  0.11510210066E+03  0.10000000000E+01 0.  0.
    9000005    1    3    3    0    0 -0.15568718418E+02  0.51863090692E+02  0.15938070431E+02  0.56455179199E+02  0.10000000000E+01 0.  0.
<mgrwt>
<rscale>  0 0.12500027E+03</rscale>
<asrwt>0</asrwt>
<pdfrwt beam="1">  1        4 0.22235366E-01 0.12500027E+03</pdfrwt>
<pdfrwt beam="2">  1       -4 0.41580618E-02 0.12500027E+03</pdfrwt>
<totfact> 0.95158590E+03</totfact>
</mgrwt>
</event>
<event>
 5    1  0.3317939E-002  0.1249992E+03  0.7818608E-02  0.1235071E+00
         -4   -1    0    0    0  501 -0.00000000000E+00  0.00000000000E+00  0.11484612641E+03  0.11485314820E+03  0.12700000000E+01 0.  1.
          4   -1    0    0  501    0  0.00000000000E+00 -0.00000000000E+00 -0.33992547896E+02  0.34016263941E+02  0.12700000000E+01 0.  1.
         25    2    1    2    0    0  0.00000000000E+00  0.00000000000E+00  0.80853578517E+02  0.14886941214E+03  0.12499920285E+03 0.  0.
    9000005    1    3    3    0    0 -0.33376733897E+02 -0.24852677773E+02 -0.15097354590E+02  0.44278573529E+02  0.10000000000E+01 0.  0.
    9000005    1    3    3    0    0  0.33376733897E+02  0.24852677773E+02  0.95950933107E+02  0.10459083862E+03  0.10000000000E+01 0.  0.
<mgrwt>
<rscale>  0 0.12499920E+03</rscale>
<asrwt>0</asrwt>
<pdfrwt beam="2">  1        4 0.52319871E-02 0.12499920E+03</pdfrwt>
<pdfrwt beam="1">  1       -4 0.17671000E-01 0.12499920E+03</pdfrwt>
<totfact> 0.99531328E+03</totfact>
</mgrwt>
</event>
<event>
 5    1  0.3317939E-002  0.1249773E+03  0.7818608E-02  0.1235105E+00
          4   -1    0    0  501    0  0.00000000000E+00  0.00000000000E+00  0.14606139866E+03  0.14606691987E+03  0.12700000000E+01 0.  1.
         -4   -1    0    0    0  501 -0.00000000000E+00 -0.00000000000E+00 -0.26713060954E+02  0.26743233267E+02  0.12700000000E+01 0.  1.
         25    2    1    2    0    0  0.00000000000E+00  0.00000000000E+00  0.11934833771E+03  0.17281015313E+03  0.12497729119E+03 0.  0.
    9000005    1    3    3    0    0  0.12011753587E+02  0.44761084160E+02  0.11761699249E+03  0.12642228364E+03  0.10000000000E+01 0.  0.
    9000005    1    3    3    0    0 -0.12011753587E+02 -0.44761084160E+02  0.17313452174E+01  0.46387869488E+02  0.10000000000E+01 0.  0.
<mgrwt>
<rscale>  0 0.12497729E+03</rscale>
<asrwt>0</asrwt>
<pdfrwt beam="1">  1        4 0.22473730E-01 0.12497729E+03</pdfrwt>
<pdfrwt beam="2">  1       -4 0.41124473E-02 0.12497729E+03</pdfrwt>
<totfact> 0.94975829E+03</totfact>
</mgrwt>
</event>
<event>
 5    1  0.3317939E-002  0.1249966E+03  0.7818608E-02  0.1235075E+00
         -4   -1    0    0    0  501 -0.00000000000E+00  0.00000000000E+00  0.14161912242E+03  0.14162481680E+03  0.12700000000E+01 0.  1.
          4   -1    0    0  501    0  0.00000000000E+00 -0.00000000000E+00 -0.27560419186E+02  0.27589664835E+02  0.12700000000E+01 0.  1.
         25    2    1    2    0    0  0.00000000000E+00  0.00000000000E+00  0.11405870323E+03  0.16921448164E+03  0.12499661201E+03 0.  0.
    9000005    1    3    3    0    0 -0.39922672151E+01  0.58576219650E+02  0.85998597962E+02  0.10413390686E+03  0.10000000000E+01 0.  0.
    9000005    1    3    3    0    0  0.39922672151E+01 -0.58576219650E+02  0.28060105270E+02  0.65080574781E+02  0.10000000000E+01 0.  0.
<mgrwt>
<rscale>  0 0.12499661E+03</rscale>
<asrwt>0</asrwt>
<pdfrwt beam="2">  1        4 0.42427522E-02 0.12499661E+03</pdfrwt>
<pdfrwt beam="1">  1       -4 0.21790245E-01 0.12499661E+03</pdfrwt>
<totfact> 0.95602408E+03</totfact>
</mgrwt>
</event>
<event>
 5    1  0.3317939E-002  0.1249960E+03  0.7818608E-02  0.1235076E+00
         -4   -1    0    0    0  501 -0.00000000000E+00  0.00000000000E+00  0.10498976411E+02  0.10575509712E+02  0.12700000000E+01 0. -1.
          4   -1    0    0  501    0  0.00000000000E+00 -0.00000000000E+00 -0.37060761444E+03  0.37060979046E+03  0.12700000000E+01 0. -1.
         25    2    1    2    0    0  0.00000000000E+00  0.00000000000E+00 -0.36010863803E+03  0.38118530017E+03  0.12499600746E+03 0.  0.
    9000005    1    3    3    0    0  0.12354282744E+02 -0.35970520513E+02 -0.33126224752E+03  0.33343992454E+03  0.10000000000E+01 0.  0.
    9000005    1    3    3    0    0 -0.12354282744E+02  0.35970520513E+02 -0.28846390513E+02  0.47745375626E+02  0.10000000000E+01 0.  0.
<mgrwt>
<rscale>  0 0.12499601E+03</rscale>
<asrwt>0</asrwt>
<pdfrwt beam="2">  1        4 0.57022601E-01 0.12499601E+03</pdfrwt>
<pdfrwt beam="1">  1       -4 0.16212820E-02 0.12499601E+03</pdfrwt>
<totfact> 0.66430620E+03</totfact>
</mgrwt>
</event>
<event>
 5    1  0.3317939E-002  0.1249962E+03  0.7818608E-02  0.1235075E+00
         -4   -1    0    0    0  501 -0.00000000000E+00  0.00000000000E+00  0.11654665161E+02  0.11723656427E+02  0.12700000000E+01 0.  1.
          4   -1    0    0  501    0  0.00000000000E+00 -0.00000000000E+00 -0.33408677335E+03  0.33408918723E+03  0.12700000000E+01 0.  1.
         25    2    1    2    0    0  0.00000000000E+00  0.00000000000E+00 -0.32243210818E+03  0.34581284366E+03  0.12499623374E+03 0.  0.
    9000005    1    3    3    0    0  0.22581177051E+02 -0.43945500734E+02 -0.26706818457E+03  0.27160178903E+03  0.10000000000E+01 0.  0.
    9000005    1    3    3    0    0 -0.22581177051E+02  0.43945500734E+02 -0.55363923613E+02  0.74211054632E+02  0.10000000000E+01 0.  0.
<mgrwt>
<rscale>  0 0.12499623E+03</rscale>
<asrwt>0</asrwt>
<pdfrwt beam="2">  1        4 0.51403451E-01 0.12499623E+03</pdfrwt>
<pdfrwt beam="1">  1       -4 0.17985184E-02 0.12499623E+03</pdfrwt>
<totfact> 0.70193518E+03</totfact>
</mgrwt>
</event>
<event>
 5    1  0.3317939E-002  0.1250137E+03  0.7818608E-02  0.1235048E+00
         -4   -1    0    0    0  501 -0.00000000000E+00  0.00000000000E+00  0.34871583916E+03  0.34871815178E+03  0.12700000000E+01 0. -1.
          4   -1    0    0  501    0  0.00000000000E+00 -0.00000000000E+00 -0.11165929719E+02  0.11237921805E+02  0.12700000000E+01 0. -1.
         25    2    1    2    0    0  0.00000000000E+00  0.00000000000E+00  0.33754990944E+03  0.35995607359E+03  0.12501373344E+03 0.  0.
    9000005    1    3    3    0    0  0.38907251311E+02 -0.44065749780E+02  0.10765819407E+03  0.12266560748E+03  0.10000000000E+01 0.  0.
    9000005    1    3    3    0    0 -0.38907251311E+02  0.44065749780E+02  0.22989171537E+03  0.23729046610E+03  0.10000000000E+01 0.  0.
<mgrwt>
<rscale>  0 0.12501373E+03</rscale>
<asrwt>0</asrwt>
<pdfrwt beam="2">  1        4 0.17235512E-02 0.12501373E+03</pdfrwt>
<pdfrwt beam="1">  1       -4 0.53654304E-01 0.12501373E+03</pdfrwt>
<totfact> 0.68622129E+03</totfact>
</mgrwt>
</event>
<event>
 5    1  0.3317939E-002  0.1250003E+03  0.7818608E-02  0.1235069E+00
         -4   -1    0    0    0  501 -0.00000000000E+00  0.00000000000E+00  0.14004489062E+03  0.14005064901E+03  0.12700000000E+01 0.  1.
          4   -1    0    0  501    0  0.00000000000E+00 -0.00000000000E+00 -0.27872184845E+02  0.27901103706E+02  0.12700000000E+01 0.  1.
         25    2    1    2    0    0  0.00000000000E+00  0.00000000000E+00  0.11217270577E+03  0.16795175272E+03  0.12500030128E+03 0.  0.
    9000005    1    3    3    0    0  0.34338144008E+02  0.20816298605E+02 -0.82506141487E+01  0.41006085589E+02  0.10000000000E+01 0.  0.
    9000005    1    3    3    0    0 -0.34338144008E+02 -0.20816298605E+02  0.12042331992E+03  0.12694566713E+03  0.10000000000E+01 0.  0.
<mgrwt>
<rscale>  0 0.12500030E+03</rscale>
<asrwt>0</asrwt>
<pdfrwt beam="2">  1        4 0.42906959E-02 0.12500030E+03</pdfrwt>
<pdfrwt beam="1">  1       -4 0.21548035E-01 0.12500030E+03</pdfrwt>
<totfact> 0.95830631E+03</totfact>
</mgrwt>
</event>
<event>
 5    1  0.3317939E-002  0.1249945E+03  0.7818608E-02  0.1235078E+00
         -4   -1    0    0    0  501 -0.00000000000E+00  0.00000000000E+00  0.14136205670E+03  0.14136776144E+03  0.12700000000E+01 0.  1.
          4   -1    0    0  501    0  0.00000000000E+00 -0.00000000000E+00 -0.27609633589E+02  0.27638827163E+02  0.12700000000E+01 0.  1.
         25    2    1    2    0    0  0.00000000000E+00  0.00000000000E+00  0.11375242311E+03  0.16900658860E+03  0.12499445279E+03 0.  0.
    9000005    1    3    3    0    0  0.20184310640E+02  0.31278263572E+02  0.12474051366E+03  0.13018038222E+03  0.10000000000E+01 0.  0.
    9000005    1    3    3    0    0 -0.20184310640E+02 -0.31278263572E+02 -0.10988090545E+02  0.38826206381E+02  0.10000000000E+01 0.  0.
<mgrwt>
<rscale>  0 0.12499445E+03</rscale>
<asrwt>0</asrwt>
<pdfrwt beam="2">  1        4 0.42503204E-02 0.12499445E+03</pdfrwt>
<pdfrwt beam="1">  1       -4 0.21750693E-01 0.12499445E+03</pdfrwt>
<totfact> 0.95645855E+03</totfact>
</mgrwt>
</event>
<event>
 5    1  0.3317939E-002  0.1249991E+03  0.7818608E-02  0.1235071E+00
         -4   -1    0    0    0  501 -0.00000000000E+00  0.00000000000E+00  0.11302014436E+03  0.11302727959E+03  0.12700000000E+01 0. -1.
          4   -1    0    0  501    0  0.00000000000E+00 -0.00000000000E+00 -0.34542056564E+02  0.34565395580E+02  0.12700000000E+01 0. -1.
         25    2    1    2    0    0  0.00000000000E+00  0.00000000000E+00  0.78478087801E+02  0.14759267517E+03  0.12499915000E+03 0.  0.
    9000005    1    3    3    0    0  0.58200208414E+02 -0.22756118007E+02  0.38881472130E+02  0.73606209257E+02  0.10000000000E+01 0.  0.
    9000005    1    3    3    0    0 -0.58200208414E+02  0.22756118007E+02  0.39596615671E+02  0.73986465916E+02  0.10000000000E+01 0.  0.
<mgrwt>
<rscale>  0 0.12499915E+03</rscale>
<asrwt>0</asrwt>
<pdfrwt beam="2">  1        4 0.53165067E-02 0.12499915E+03</pdfrwt>
<pdfrwt beam="1">  1       -4 0.17390059E-01 0.12499915E+03</pdfrwt>
<totfact> 0.99787654E+03</totfact>
</mgrwt>
</event>
<event>
 5    1  0.3317939E-002  0.1250016E+03  0.7818608E-02  0.1235067E+00
          4   -1    0    0  501    0  0.00000000000E+00  0.00000000000E+00  0.15858392696E+02  0.15909164620E+02  0.12700000000E+01 0.  1.
         -4   -1    0    0    0  501 -0.00000000000E+00 -0.00000000000E+00 -0.24588104946E+03  0.24588432927E+03  0.12700000000E+01 0.  1.
         25    2    1    2    0    0  0.00000000000E+00  0.00000000000E+00 -0.23002265676E+03  0.26179349389E+03  0.12500164328E+03 0.  0.
    9000005    1    3    3    0    0  0.18372045920E+02 -0.27501827516E+02 -0.22605910379E+03  0.22846794303E+03  0.10000000000E+01 0.  0.
    9000005    1    3    3    0    0 -0.18372045920E+02  0.27501827516E+02 -0.39635529733E+01  0.33325550861E+02  0.10000000000E+01 0.  0.
<mgrwt>
<rscale>  0 0.12500164E+03</rscale>
<asrwt>0</asrwt>
<pdfrwt beam="1">  1        4 0.24439107E-02 0.12500164E+03</pdfrwt>
<pdfrwt beam="2">  1       -4 0.37832009E-01 0.12500164E+03</pdfrwt>
<totfact> 0.80652078E+03</totfact>
</mgrwt>
</event>
<event>
 5    1  0.3317939E-002  0.1249742E+03  0.7818608E-02  0.1235110E+00
         -4   -1    0    0    0  501 -0.00000000000E+00  0.00000000000E+00  0.26483154879E+02  0.26513588825E+02  0.12700000000E+01 0.  1.
          4   -1    0    0  501    0  0.00000000000E+00 -0.00000000000E+00 -0.14732069068E+03  0.14732616469E+03  0.12700000000E+01 0.  1.
         25    2    1    2    0    0  0.00000000000E+00  0.00000000000E+00 -0.12083753580E+03  0.17383975351E+03  0.12497419671E+03 0.  0.
    9000005    1    3    3    0    0  0.60616035211E+02 -0.15135554609E+02 -0.61112491734E+02  0.87402090272E+02  0.10000000000E+01 0.  0.
    9000005    1    3    3    0    0 -0.60616035211E+02  0.15135554609E+02 -0.59725044065E+02  0.86437663241E+02  0.10000000000E+01 0.  0.
<mgrwt>
<rscale>  0 0.12497420E+03</rscale>
<asrwt>0</asrwt>
<pdfrwt beam="2">  1        4 0.22667483E-01 0.12497420E+03</pdfrwt>
<pdfrwt beam="1">  1       -4 0.40770938E-02 0.12497420E+03</pdfrwt>
<totfact> 0.94792634E+03</totfact>
</mgrwt>
</event>
<event>
 5    1  0.3317939E-002  0.1249888E+03  0.7818608E-02  0.1235087E+00
         -4   -1    0    0    0  501 -0.00000000000E+00  0.00000000000E+00  0.45343543997E+02  0.45361325843E+02  0.12700000000E+01 0. -1.
          4   -1    0    0  501    0  0.00000000000E+00 -0.00000000000E+00 -0.86093133903E+02  0.86102500574E+02  0.12700000000E+01 0. -1.
         25    2    1    2    0    0  0.00000000000E+00  0.00000000000E+00 -0.40749589905E+02  0.13146382642E+03  0.12498883382E+03 0.  0.
    9000005    1    3    3    0    0 -0.61313534878E+02  0.65539696499E+00 -0.77193068375E+01  0.61809115852E+02  0.10000000000E+01 0.  0.
    9000005    1    3    3    0    0  0.61313534878E+02 -0.65539696499E+00 -0.33030283068E+02  0.69654710565E+02  0.10000000000E+01 0.  0.
<mgrwt>
<rscale>  0 0.12498883E+03</rscale>
<asrwt>0</asrwt>
<pdfrwt beam="2">  1        4 0.13247186E-01 0.12498883E+03</pdfrwt>
<pdfrwt beam="1">  1       -4 0.69780182E-02 0.12498883E+03</pdfrwt>
<totfact> 0.10315754E+04</totfact>
</mgrwt>
</event>
<event>
 5    1  0.3317939E-002  0.1249929E+03  0.7818608E-02  0.1235080E+00
         -4   -1    0    0    0  501 -0.00000000000E+00  0.00000000000E+00  0.40098070834E+02  0.40118177733E+02  0.12700000000E+01 0. -1.
          4   -1    0    0  501    0  0.00000000000E+00 -0.00000000000E+00 -0.97357703522E+02  0.97365986541E+02  0.12700000000E+01 0. -1.
         25    2    1    2    0    0  0.00000000000E+00  0.00000000000E+00 -0.57259632688E+02  0.13748416427E+03  0.12499291936E+03 0.  0.
    9000005    1    3    3    0    0  0.49937209201E+02  0.37242962508E+02 -0.34023355285E+02  0.70988392178E+02  0.10000000000E+01 0.  0.
    9000005    1    3    3    0    0 -0.49937209201E+02 -0.37242962508E+02 -0.23236277403E+02  0.66495772096E+02  0.10000000000E+01 0.  0.
<mgrwt>
<rscale>  0 0.12499292E+03</rscale>
<asrwt>0</asrwt>
<pdfrwt beam="2">  1        4 0.14980292E-01 0.12499292E+03</pdfrwt>
<pdfrwt beam="1">  1       -4 0.61711178E-02 0.12499292E+03</pdfrwt>
<totfact> 0.10187598E+04</totfact>
</mgrwt>
</event>
<event>
 5    1  0.3317939E-002  0.1249966E+03  0.7818608E-02  0.1235075E+00
          4   -1    0    0  501    0  0.00000000000E+00  0.00000000000E+00  0.21011785180E+03  0.21012168985E+03  0.12700000000E+01 0. -1.
         -4   -1    0    0    0  501 -0.00000000000E+00 -0.00000000000E+00 -0.18564042349E+02  0.18607433148E+02  0.12700000000E+01 0. -1.
         25    2    1    2    0    0  0.00000000000E+00  0.00000000000E+00  0.19155380945E+03  0.22872912300E+03  0.12499659912E+03 0.  0.
    9000005    1    3    3    0    0 -0.36125631010E+02 -0.38178302642E+02  0.15762568197E+03  0.16616106531E+03  0.10000000000E+01 0.  0.
    9000005    1    3    3    0    0  0.36125631010E+02  0.38178302642E+02  0.33928127483E+02  0.62568057689E+02  0.10000000000E+01 0.  0.
<mgrwt>
<rscale>  0 0.12499660E+03</rscale>
<asrwt>0</asrwt>
<pdfrwt beam="1">  1        4 0.32329457E-01 0.12499660E+03</pdfrwt>
<pdfrwt beam="2">  1       -4 0.28596394E-02 0.12499660E+03</pdfrwt>
<totfact> 0.85511611E+03</totfact>
</mgrwt>
</event>
<event>
 5    1  0.3317939E-002  0.1249980E+03  0.7818608E-02  0.1235072E+00
          4   -1    0    0  501    0  0.00000000000E+00  0.00000000000E+00  0.27148296956E+02  0.27177986085E+02  0.12700000000E+01 0. -1.
         -4   -1    0    0    0  501 -0.00000000000E+00 -0.00000000000E+00 -0.14376984662E+03  0.14377545583E+03  0.12700000000E+01 0. -1.
         25    2    1    2    0    0  0.00000000000E+00  0.00000000000E+00 -0.11662154967E+03  0.17095344191E+03  0.12499797380E+03 0.  0.
    9000005    1    3    3    0    0 -0.22911925386E+02 -0.20221111561E+02  0.16238977384E+02  0.34620139575E+02  0.10000000000E+01 0.  0.
    9000005    1    3    3    0    0  0.22911925386E+02  0.20221111561E+02 -0.13286052705E+03  0.13633330234E+03  0.10000000000E+01 0.  0.
<mgrwt>
<rscale>  0 0.12499797E+03</rscale>
<asrwt>0</asrwt>
<pdfrwt beam="1">  1        4 0.41793764E-02 0.12499797E+03</pdfrwt>
<pdfrwt beam="2">  1       -4 0.22121153E-01 0.12499797E+03</pdfrwt>
<totfact> 0.95275559E+03</totfact>
</mgrwt>
</event>
<event>
 5    1  0.3317939E-002  0.1249977E+03  0.7818608E-02  0.1235073E+00
         -4   -1    0    0    0  501 -0.00000000000E+00  0.00000000000E+00  0.21723692532E+03  0.21724063760E+03  0.12700000000E+01 0.  1.
          4   -1    0    0  501    0  0.00000000000E+00 -0.00000000000E+00 -0.17954563978E+02  0.17999424092E+02  0.12700000000E+01 0.  1.
         25    2    1    2    0    0  0.00000000000E+00  0.00000000000E+00  0.19928236135E+03  0.23524006169E+03  0.12499770830E+03 0.  0.
    9000005    1    3    3    0    0  0.28335072397E+02  0.51645248128E+02  0.60389951867E+02  0.84368562086E+02  0.10000000000E+01 0.  0.
    9000005    1    3    3    0    0 -0.28335072397E+02 -0.51645248128E+02  0.13889240948E+03  0.15087149960E+03  0.10000000000E+01 0.  0.
<mgrwt>
<rscale>  0 0.12499771E+03</rscale>
<asrwt>0</asrwt>
<pdfrwt beam="2">  1        4 0.27659770E-02 0.12499771E+03</pdfrwt>
<pdfrwt beam="1">  1       -4 0.33424801E-01 0.12499771E+03</pdfrwt>
<totfact> 0.84515741E+03</totfact>
</mgrwt>
</event>
<event>
 5    1  0.3317939E-002  0.1250013E+03  0.7818608E-02  0.1235067E+00
          4   -1    0    0  501    0  0.00000000000E+00  0.00000000000E+00  0.25598266964E+03  0.25598582003E+03  0.12700000000E+01 0. -1.
         -4   -1    0    0    0  501 -0.00000000000E+00 -0.00000000000E+00 -0.15230471118E+02  0.15283329169E+02  0.12700000000E+01 0. -1.
         25    2    1    2    0    0  0.00000000000E+00  0.00000000000E+00  0.24075219853E+03  0.27126914920E+03  0.12500132085E+03 0.  0.
    9000005    1    3    3    0    0  0.55634178982E+02 -0.22089337264E+02  0.81420486208E+02  0.10106134902E+03  0.10000000000E+01 0.  0.
    9000005    1    3    3    0    0 -0.55634178982E+02  0.22089337264E+02  0.15933171232E+03  0.17020780018E+03  0.10000000000E+01 0.  0.
<mgrwt>
<rscale>  0 0.12500132E+03</rscale>
<asrwt>0</asrwt>
<pdfrwt beam="1">  1        4 0.39386253E-01 0.12500132E+03</pdfrwt>
<pdfrwt beam="2">  1       -4 0.23474580E-02 0.12500132E+03</pdfrwt>
<totfact> 0.79347824E+03</totfact>
</mgrwt>
</event>
<event>
 5    1  0.3317939E-002  0.1250011E+03  0.7818608E-02  0.1235068E+00
          4   -1    0    0  501    0  0.00000000000E+00  0.00000000000E+00  0.58137960662E+01  0.59508927649E+01  0.12700000000E+01 0.  1.
         -4   -1    0    0    0  501 -0.00000000000E+00 -0.00000000000E+00 -0.66393745854E+03  0.66393867318E+03  0.12700000000E+01 0.  1.
         25    2    1    2    0    0  0.00000000000E+00  0.00000000000E+00 -0.65812366247E+03  0.66988956595E+03  0.12500110184E+03 0.  0.
    9000005    1    3    3    0    0  0.12804967266E+02  0.45383027885E+02 -0.10929212612E+03  0.11903510087E+03  0.10000000000E+01 0.  0.
    9000005    1    3    3    0    0 -0.12804967266E+02 -0.45383027885E+02 -0.54883153635E+03  0.55085446508E+03  0.10000000000E+01 0.  0.
<mgrwt>
<rscale>  0 0.12500110E+03</rscale>
<asrwt>0</asrwt>
<pdfrwt beam="1">  1        4 0.90507002E-03 0.12500110E+03</pdfrwt>
<pdfrwt beam="2">  1       -4 0.10215480E+00 0.12500110E+03</pdfrwt>
<totfact> 0.44723479E+03</totfact>
</mgrwt>
</event>
<event>
 5    1  0.3317939E-002  0.1250001E+03  0.7818608E-02  0.1235069E+00
         -4   -1    0    0    0  501 -0.00000000000E+00  0.00000000000E+00  0.67488777725E+01  0.68673321740E+01  0.12700000000E+01 0. -1.
          4   -1    0    0  501    0  0.00000000000E+00 -0.00000000000E+00 -0.57364654821E+03  0.57364795404E+03  0.12700000000E+01 0. -1.
         25    2    1    2    0    0  0.00000000000E+00  0.00000000000E+00 -0.56689767044E+03  0.58051528621E+03  0.12500011512E+03 0.  0.
    9000005    1    3    3    0    0 -0.38528484734E+02 -0.18977012386E+02 -0.72630119295E+02  0.84384272017E+02  0.10000000000E+01 0.  0.
    9000005    1    3    3    0    0  0.38528484734E+02  0.18977012386E+02 -0.49426755114E+03  0.49613101419E+03  0.10000000000E+01 0.  0.
<mgrwt>
<rscale>  0 0.12500012E+03</rscale>
<asrwt>0</asrwt>
<pdfrwt beam="2">  1        4 0.88262497E-01 0.12500012E+03</pdfrwt>
<pdfrwt beam="1">  1       -4 0.10475094E-02 0.12500012E+03</pdfrwt>
<totfact> 0.50120991E+03</totfact>
</mgrwt>
</event>
<event>
 5    1  0.3317939E-002  0.1249951E+03  0.7818608E-02  0.1235077E+00
         -4   -1    0    0    0  501 -0.00000000000E+00  0.00000000000E+00  0.96398093256E+02  0.96406458722E+02  0.12700000000E+01 0.  1.
          4   -1    0    0  501    0  0.00000000000E+00 -0.00000000000E+00 -0.40498826706E+02  0.40518734736E+02  0.12700000000E+01 0.  1.
         25    2    1    2    0    0  0.00000000000E+00  0.00000000000E+00  0.55899266550E+02  0.13692519346E+03  0.12499512232E+03 0.  0.
    9000005    1    3    3    0    0 -0.36200487257E+02 -0.78856167658E-02  0.83747116225E+02  0.91241738342E+02  0.10000000000E+01 0.  0.
    9000005    1    3    3    0    0  0.36200487257E+02  0.78856167658E-02 -0.27847849675E+02  0.45683455116E+02  0.10000000000E+01 0.  0.
<mgrwt>
<rscale>  0 0.12499512E+03</rscale>
<asrwt>0</asrwt>
<pdfrwt beam="2">  1        4 0.62327637E-02 0.12499512E+03</pdfrwt>
<pdfrwt beam="1">  1       -4 0.14832651E-01 0.12499512E+03</pdfrwt>
<totfact> 0.10198772E+04</totfact>
</mgrwt>
</event>
<event>
 5    1  0.3317939E-002  0.1250046E+03  0.7818608E-02  0.1235062E+00
         -4   -1    0    0    0  501 -0.00000000000E+00  0.00000000000E+00  0.44806647750E+02  0.44824642582E+02  0.12700000000E+01 0.  1.
          4   -1    0    0  501    0  0.00000000000E+00 -0.00000000000E+00 -0.87146445045E+02  0.87155698517E+02  0.12700000000E+01 0.  1.
         25    2    1    2    0    0  0.00000000000E+00  0.00000000000E+00 -0.42339797296E+02  0.13198034110E+03  0.12500460792E+03 0.  0.
    9000005    1    3    3    0    0  0.15340205661E+02 -0.32127019870E+02  0.33058457312E+02  0.48593506926E+02  0.10000000000E+01 0.  0.
    9000005    1    3    3    0    0 -0.15340205661E+02  0.32127019870E+02 -0.75398254608E+02  0.83386834173E+02  0.10000000000E+01 0.  0.
<mgrwt>
<rscale>  0 0.12500461E+03</rscale>
<asrwt>0</asrwt>
<pdfrwt beam="2">  1        4 0.13409241E-01 0.12500461E+03</pdfrwt>
<pdfrwt beam="1">  1       -4 0.68954265E-02 0.12500461E+03</pdfrwt>
<totfact> 0.10301047E+04</totfact>
</mgrwt>
</event>
<event>
 5    1  0.3317939E-002  0.1249999E+03  0.7818608E-02  0.1235069E+00
          4   -1    0    0  501    0  0.00000000000E+00  0.00000000000E+00  0.20700777326E+02  0.20739698211E+02  0.12700000000E+01 0. -1.
         -4   -1    0    0    0  501 -0.00000000000E+00 -0.00000000000E+00 -0.18848218086E+03  0.18848645947E+03  0.12700000000E+01 0. -1.
         25    2    1    2    0    0  0.00000000000E+00  0.00000000000E+00 -0.16778140354E+03  0.20922615768E+03  0.12499994274E+03 0.  0.
    9000005    1    3    3    0    0  0.29582692227E+02 -0.85031666882E+01  0.71406672684E+01  0.31613741508E+02  0.10000000000E+01 0.  0.
    9000005    1    3    3    0    0 -0.29582692227E+02  0.85031666882E+01 -0.17492207081E+03  0.17761241617E+03  0.10000000000E+01 0.  0.
<mgrwt>
<rscale>  0 0.12499994E+03</rscale>
<asrwt>0</asrwt>
<pdfrwt beam="1">  1        4 0.31880581E-02 0.12499994E+03</pdfrwt>
<pdfrwt beam="2">  1       -4 0.29000580E-01 0.12499994E+03</pdfrwt>
<totfact> 0.88602530E+03</totfact>
</mgrwt>
</event>
<event>
 5    1  0.3317939E-002  0.1250001E+03  0.7818608E-02  0.1235069E+00
         -4   -1    0    0    0  501 -0.00000000000E+00  0.00000000000E+00  0.20617338767E+03  0.20617729915E+03  0.12700000000E+01 0.  1.
          4   -1    0    0  501    0  0.00000000000E+00 -0.00000000000E+00 -0.18921098678E+02  0.18963672513E+02  0.12700000000E+01 0.  1.
         25    2    1    2    0    0  0.00000000000E+00  0.00000000000E+00  0.18725228899E+03  0.22514097166E+03  0.12500014955E+03 0.  0.
    9000005    1    3    3    0    0  0.26239570747E+02 -0.56673711048E+02  0.89665817825E+02  0.10927663741E+03  0.10000000000E+01 0.  0.
    9000005    1    3    3    0    0 -0.26239570747E+02  0.56673711048E+02  0.97586471167E+02  0.11586433425E+03  0.10000000000E+01 0.  0.
<mgrwt>
<rscale>  0 0.12500015E+03</rscale>
<asrwt>0</asrwt>
<pdfrwt beam="2">  1        4 0.29145143E-02 0.12500015E+03</pdfrwt>
<pdfrwt beam="1">  1       -4 0.31722556E-01 0.12500015E+03</pdfrwt>
<totfact> 0.86061048E+03</totfact>
</mgrwt>
</event>
<event>
 5    1  0.3317939E-002  0.1250021E+03  0.7818608E-02  0.1235066E+00
          4   -1    0    0  501    0  0.00000000000E+00  0.00000000000E+00  0.36623557275E+02  0.36645570640E+02  0.12700000000E+01 0.  1.
         -4   -1    0    0    0  501 -0.00000000000E+00 -0.00000000000E+00 -0.10660515626E+03  0.10661272083E+03  0.12700000000E+01 0.  1.
         25    2    1    2    0    0  0.00000000000E+00  0.00000000000E+00 -0.69981598987E+02  0.14325829146E+03  0.12500205549E+03 0.  0.
    9000005    1    3    3    0    0 -0.37839826614E+02 -0.49280782906E+02 -0.42672774441E+02  0.75381786398E+02  0.10000000000E+01 0.  0.
    9000005    1    3    3    0    0  0.37839826614E+02  0.49280782906E+02 -0.27308824546E+02  0.67876505067E+02  0.10000000000E+01 0.  0.
<mgrwt>
<rscale>  0 0.12500206E+03</rscale>
<asrwt>0</asrwt>
<pdfrwt beam="1">  1        4 0.56366687E-02 0.12500206E+03</pdfrwt>
<pdfrwt beam="2">  1       -4 0.16403068E-01 0.12500206E+03</pdfrwt>
<totfact> 0.10066031E+04</totfact>
</mgrwt>
</event>
<event>
 5    1  0.3317939E-002  0.1250016E+03  0.7818608E-02  0.1235067E+00
          4   -1    0    0  501    0  0.00000000000E+00  0.00000000000E+00  0.23637355354E+02  0.23671448374E+02  0.12700000000E+01 0. -1.
         -4   -1    0    0    0  501 -0.00000000000E+00 -0.00000000000E+00 -0.16510601632E+03  0.16511090068E+03  0.12700000000E+01 0. -1.
         25    2    1    2    0    0  0.00000000000E+00  0.00000000000E+00 -0.14146866096E+03  0.18878234905E+03  0.12500157311E+03 0.  0.
    9000005    1    3    3    0    0  0.37694117834E+02 -0.49760156039E+02 -0.66349775915E+02  0.91105501547E+02  0.10000000000E+01 0.  0.
    9000005    1    3    3    0    0 -0.37694117834E+02  0.49760156039E+02 -0.75118885047E+02  0.97676847507E+02  0.10000000000E+01 0.  0.
<mgrwt>
<rscale>  0 0.12500157E+03</rscale>
<asrwt>0</asrwt>
<pdfrwt beam="1">  1        4 0.36395146E-02 0.12500157E+03</pdfrwt>
<pdfrwt beam="2">  1       -4 0.25403923E-01 0.12500157E+03</pdfrwt>
<totfact> 0.92056370E+03</totfact>
</mgrwt>
</event>
<event>
 5    1  0.3317939E-002  0.1250037E+03  0.7818608E-02  0.1235064E+00
          4   -1    0    0  501    0  0.00000000000E+00  0.00000000000E+00  0.11675017743E+03  0.11675708471E+03  0.12700000000E+01 0. -1.
         -4   -1    0    0    0  501 -0.00000000000E+00 -0.00000000000E+00 -0.33440205913E+02  0.33464313402E+02  0.12700000000E+01 0. -1.
         25    2    1    2    0    0  0.00000000000E+00  0.00000000000E+00  0.83309971514E+02  0.15022139811E+03  0.12500366833E+03 0.  0.
    9000005    1    3    3    0    0  0.57966286096E+02  0.19136500950E+01  0.69625421997E+02  0.90622578691E+02  0.10000000000E+01 0.  0.
    9000005    1    3    3    0    0 -0.57966286096E+02 -0.19136500950E+01  0.13684549518E+02  0.59598819418E+02  0.10000000000E+01 0.  0.
<mgrwt>
<rscale>  0 0.12500367E+03</rscale>
<asrwt>0</asrwt>
<pdfrwt beam="1">  1        4 0.17963952E-01 0.12500367E+03</pdfrwt>
<pdfrwt beam="2">  1       -4 0.51470328E-02 0.12500367E+03</pdfrwt>
<totfact> 0.99251390E+03</totfact>
</mgrwt>
</event>
<event>
 5    1  0.3317939E-002  0.1250027E+03  0.7818608E-02  0.1235065E+00
          4   -1    0    0  501    0  0.00000000000E+00  0.00000000000E+00  0.71329013508E+01  0.72450798257E+01  0.12700000000E+01 0. -1.
         -4   -1    0    0    0  501 -0.00000000000E+00 -0.00000000000E+00 -0.54327572402E+03  0.54327720844E+03  0.12700000000E+01 0. -1.
         25    2    1    2    0    0  0.00000000000E+00  0.00000000000E+00 -0.53614282267E+03  0.55052228827E+03  0.12500265428E+03 0.  0.
    9000005    1    3    3    0    0 -0.42493065896E+02  0.87534617558E-01 -0.66263021871E+02  0.78723925074E+02  0.10000000000E+01 0.  0.
    9000005    1    3    3    0    0  0.42493065896E+02 -0.87534617558E-01 -0.46987980080E+03  0.47179836319E+03  0.10000000000E+01 0.  0.
<mgrwt>
<rscale>  0 0.12500265E+03</rscale>
<asrwt>0</asrwt>
<pdfrwt beam="1">  1        4 0.11061132E-02 0.12500265E+03</pdfrwt>
<pdfrwt beam="2">  1       -4 0.83589592E-01 0.12500265E+03</pdfrwt>
<totfact> 0.52144520E+03</totfact>
</mgrwt>
</event>
<event>
 5    1  0.3317939E-002  0.1250030E+03  0.7818608E-02  0.1235065E+00
         -4   -1    0    0    0  501 -0.00000000000E+00  0.00000000000E+00  0.10657523061E+03  0.10658279730E+03  0.12700000000E+01 0.  1.
          4   -1    0    0  501    0  0.00000000000E+00 -0.00000000000E+00 -0.36634380052E+02  0.36656386917E+02  0.12700000000E+01 0.  1.
         25    2    1    2    0    0  0.00000000000E+00  0.00000000000E+00  0.69940850560E+02  0.14323918422E+03  0.12500296524E+03 0.  0.
    9000005    1    3    3    0    0  0.23216072055E+02  0.14282277669E+02  0.99410264405E+02  0.10308428651E+03  0.10000000000E+01 0.  0.
    9000005    1    3    3    0    0 -0.23216072055E+02 -0.14282277669E+02 -0.29469413845E+02  0.40154897701E+02  0.10000000000E+01 0.  0.
<mgrwt>
<rscale>  0 0.12500297E+03</rscale>
<asrwt>0</asrwt>
<pdfrwt beam="2">  1        4 0.56383334E-02 0.12500297E+03</pdfrwt>
<pdfrwt beam="1">  1       -4 0.16398464E-01 0.12500297E+03</pdfrwt>
<totfact> 0.10066215E+04</totfact>
</mgrwt>
</event>
<event>
 5    1  0.3317939E-002  0.1250004E+03  0.7818608E-02  0.1235069E+00
         -4   -1    0    0    0  501 -0.00000000000E+00  0.00000000000E+00  0.24028646435E+04  0.24028649791E+04  0.12700000000E+01 0. -1.
          4   -1    0    0  501    0  0.00000000000E+00 -0.00000000000E+00 -0.13772507052E+01  0.18734245395E+01  0.12700000000E+01 0. -1.
         25    2    1    2    0    0  0.00000000000E+00  0.00000000000E+00  0.24014873928E+04  0.24047384037E+04  0.12500036913E+03 0.  0.
    9000005    1    3    3    0    0 -0.13190529378E+01 -0.62435301757E+02  0.12453085607E+04  0.12468738181E+04  0.10000000000E+01 0.  0.
    9000005    1    3    3    0    0  0.13190529378E+01  0.62435301757E+02  0.11561788320E+04  0.11578645856E+04  0.10000000000E+01 0.  0.
<mgrwt>
<rscale>  0 0.12500037E+03</rscale>
<asrwt>0</asrwt>
<pdfrwt beam="2">  1        4 0.25007834E-03 0.12500037E+03</pdfrwt>
<pdfrwt beam="1">  1       -4 0.36970881E+00 0.12500037E+03</pdfrwt>
<totfact> 0.54615700E+02</totfact>
</mgrwt>
</event>
<event>
 5    1  0.3317939E-002  0.1250015E+03  0.7818608E-02  0.1235067E+00
         -4   -1    0    0    0  501 -0.00000000000E+00  0.00000000000E+00  0.24008668454E+03  0.24009004351E+03  0.12700000000E+01 0. -1.
          4   -1    0    0  501    0  0.00000000000E+00 -0.00000000000E+00 -0.16242299830E+02  0.16291875392E+02  0.12700000000E+01 0. -1.
         25    2    1    2    0    0  0.00000000000E+00  0.00000000000E+00  0.22384438471E+03  0.25638191890E+03  0.12500151909E+03 0.  0.
    9000005    1    3    3    0    0  0.15081472734E+02  0.95043523228E+01 -0.10926849849E+02  0.20932739441E+02  0.10000000000E+01 0.  0.
    9000005    1    3    3    0    0 -0.15081472734E+02 -0.95043523228E+01  0.23477123456E+03  0.23544917946E+03  0.10000000000E+01 0.  0.
<mgrwt>
<rscale>  0 0.12500152E+03</rscale>
<asrwt>0</asrwt>
<pdfrwt beam="2">  1        4 0.25028871E-02 0.12500152E+03</pdfrwt>
<pdfrwt beam="1">  1       -4 0.36940487E-01 0.12500152E+03</pdfrwt>
<totfact> 0.81413747E+03</totfact>
</mgrwt>
</event>
<event>
 5    1  0.3317939E-002  0.1249988E+03  0.7818608E-02  0.1235071E+00
         -4   -1    0    0    0  501 -0.00000000000E+00  0.00000000000E+00  0.13394917503E+03  0.13395519546E+03  0.12700000000E+01 0. -1.
          4   -1    0    0  501    0  0.00000000000E+00 -0.00000000000E+00 -0.29141117564E+02  0.29168778392E+02  0.12700000000E+01 0. -1.
         25    2    1    2    0    0  0.00000000000E+00  0.00000000000E+00  0.10480805747E+03  0.16312397385E+03  0.12499880774E+03 0.  0.
    9000005    1    3    3    0    0 -0.54541807860E+02 -0.28859721529E+02  0.65288799757E+02  0.89840523736E+02  0.10000000000E+01 0.  0.
    9000005    1    3    3    0    0  0.54541807860E+02  0.28859721529E+02  0.39519257710E+02  0.73283450119E+02  0.10000000000E+01 0.  0.
<mgrwt>
<rscale>  0 0.12499881E+03</rscale>
<asrwt>0</asrwt>
<pdfrwt beam="2">  1        4 0.44858399E-02 0.12499881E+03</pdfrwt>
<pdfrwt beam="1">  1       -4 0.20610156E-01 0.12499881E+03</pdfrwt>
<totfact> 0.96746458E+03</totfact>
</mgrwt>
</event>
<event>
 5    1  0.3317939E-002  0.1250013E+03  0.7818608E-02  0.1235067E+00
         -4   -1    0    0    0  501 -0.00000000000E+00  0.00000000000E+00  0.47040160340E+02  0.47057301079E+02  0.12700000000E+01 0.  1.
          4   -1    0    0  501    0  0.00000000000E+00 -0.00000000000E+00 -0.83005349075E+02  0.83015064145E+02  0.12700000000E+01 0.  1.
         25    2    1    2    0    0  0.00000000000E+00  0.00000000000E+00 -0.35965188734E+02  0.13007236522E+03  0.12500130157E+03 0.  0.
    9000005    1    3    3    0    0 -0.51416462566E+02  0.29701157578E+02  0.22889957153E+01  0.59431059940E+02  0.10000000000E+01 0.  0.
    9000005    1    3    3    0    0  0.51416462566E+02 -0.29701157578E+02 -0.38254184450E+02  0.70641305284E+02  0.10000000000E+01 0.  0.
<mgrwt>
<rscale>  0 0.12500130E+03</rscale>
<asrwt>0</asrwt>
<pdfrwt beam="2">  1        4 0.12772120E-01 0.12500130E+03</pdfrwt>
<pdfrwt beam="1">  1       -4 0.72390136E-02 0.12500130E+03</pdfrwt>
<totfact> 0.10342656E+04</totfact>
</mgrwt>
</event>
<event>
 5    1  0.3317939E-002  0.1250082E+03  0.7818608E-02  0.1235057E+00
         -4   -1    0    0    0  501 -0.00000000000E+00  0.00000000000E+00  0.77594042314E+02  0.77604434813E+02  0.12700000000E+01 0. -1.
          4   -1    0    0  501    0  0.00000000000E+00 -0.00000000000E+00 -0.50326931643E+02  0.50342953316E+02  0.12700000000E+01 0. -1.
         25    2    1    2    0    0  0.00000000000E+00  0.00000000000E+00  0.27267110672E+02  0.12794738813E+03  0.12500815495E+03 0.  0.
    9000005    1    3    3    0    0  0.43894629677E+02  0.44336549771E+02  0.99020785041E+01  0.63178471956E+02  0.10000000000E+01 0.  0.
    9000005    1    3    3    0    0 -0.43894629677E+02 -0.44336549771E+02  0.17365032168E+02  0.64768916173E+02  0.10000000000E+01 0.  0.
<mgrwt>
<rscale>  0 0.12500815E+03</rscale>
<asrwt>0</asrwt>
<pdfrwt beam="2">  1        4 0.77446367E-02 0.12500815E+03</pdfrwt>
<pdfrwt beam="1">  1       -4 0.11939577E-01 0.12500815E+03</pdfrwt>
<totfact> 0.10386712E+04</totfact>
</mgrwt>
</event>
<event>
 5    1  0.3317939E-002  0.1250023E+03  0.7818608E-02  0.1235066E+00
          4   -1    0    0  501    0  0.00000000000E+00  0.00000000000E+00  0.73756166310E+02  0.73767099501E+02  0.12700000000E+01 0. -1.
         -4   -1    0    0    0  501 -0.00000000000E+00 -0.00000000000E+00 -0.52941163667E+02  0.52956394424E+02  0.12700000000E+01 0. -1.
         25    2    1    2    0    0  0.00000000000E+00  0.00000000000E+00  0.20815002643E+02  0.12672349393E+03  0.12500231829E+03 0.  0.
    9000005    1    3    3    0    0 -0.38829163712E+02 -0.47176441314E+02 -0.28908287451E+01  0.61177426069E+02  0.10000000000E+01 0.  0.
    9000005    1    3    3    0    0  0.38829163712E+02  0.47176441314E+02  0.23705831388E+02  0.65546067856E+02  0.10000000000E+01 0.  0.
<mgrwt>
<rscale>  0 0.12500232E+03</rscale>
<asrwt>0</asrwt>
<pdfrwt beam="1">  1        4 0.11349115E-01 0.12500232E+03</pdfrwt>
<pdfrwt beam="2">  1       -4 0.81468070E-02 0.12500232E+03</pdfrwt>
<totfact> 0.10414614E+04</totfact>
</mgrwt>
</event>
<event>
 5    1  0.3317939E-002  0.1249803E+03  0.7818608E-02  0.1235100E+00
          4   -1    0    0  501    0  0.00000000000E+00  0.00000000000E+00  0.39403035122E+02  0.39423496507E+02  0.12700000000E+01 0.  1.
         -4   -1    0    0    0  501 -0.00000000000E+00 -0.00000000000E+00 -0.99054249806E+02  0.99062390970E+02  0.12700000000E+01 0.  1.
         25    2    1    2    0    0  0.00000000000E+00  0.00000000000E+00 -0.59651214684E+02  0.13848588748E+03  0.12498029292E+03 0.  0.
    9000005    1    3    3    0    0 -0.56888875052E+02  0.25835740319E+02 -0.29344114274E+02  0.69035546098E+02  0.10000000000E+01 0.  0.
    9000005    1    3    3    0    0  0.56888875052E+02 -0.25835740319E+02 -0.30307100410E+02  0.69450341380E+02  0.10000000000E+01 0.  0.
<mgrwt>
<rscale>  0 0.12498029E+03</rscale>
<asrwt>0</asrwt>
<pdfrwt beam="1">  1        4 0.60642056E-02 0.12498029E+03</pdfrwt>
<pdfrwt beam="2">  1       -4 0.15241315E-01 0.12498029E+03</pdfrwt>
<totfact> 0.10169578E+04</totfact>
</mgrwt>
</event>
<event>
 5    1  0.3317939E-002  0.1250184E+03  0.7818608E-02  0.1235041E+00
         -4   -1    0    0    0  501 -0.00000000000E+00  0.00000000000E+00  0.12827437977E+04  0.12827444264E+04  0.12700000000E+01 0.  1.
          4   -1    0    0  501    0  0.00000000000E+00 -0.00000000000E+00 -0.29130944183E+01  0.31778953869E+01  0.12700000000E+01 0.  1.
         25    2    1    2    0    0  0.00000000000E+00  0.00000000000E+00  0.12798307033E+04  0.12859223218E+04  0.12501835299E+03 0.  0.
    9000005    1    3    3    0    0 -0.52829490826E+02  0.27014675969E+02  0.43792191826E+03  0.44192460252E+03  0.10000000000E+01 0.  0.
    9000005    1    3    3    0    0  0.52829490826E+02 -0.27014675969E+02  0.84190878503E+03  0.84399771927E+03  0.10000000000E+01 0.  0.
<mgrwt>
<rscale>  0 0.12501835E+03</rscale>
<asrwt>0</asrwt>
<pdfrwt beam="2">  1        4 0.46858582E-03 0.12501835E+03</pdfrwt>
<pdfrwt beam="1">  1       -4 0.19736571E+00 0.12501835E+03</pdfrwt>
<totfact> 0.22554182E+03</totfact>
</mgrwt>
</event>
<event>
 5    1  0.3317939E-002  0.1249994E+03  0.7818608E-02  0.1235070E+00
         -4   -1    0    0    0  501 -0.00000000000E+00  0.00000000000E+00  0.62488360277E+03  0.62488489333E+03  0.12700000000E+01 0. -1.
          4   -1    0    0  501    0  0.00000000000E+00 -0.00000000000E+00 -0.61852890245E+01  0.63143250088E+01  0.12700000000E+01 0. -1.
         25    2    1    2    0    0  0.00000000000E+00  0.00000000000E+00  0.61869831375E+03  0.63119921834E+03  0.12499939919E+03 0.  0.
    9000005    1    3    3    0    0 -0.22167682979E+02  0.40915788254E+02  0.51996754113E+03  0.52204669496E+03  0.10000000000E+01 0.  0.
    9000005    1    3    3    0    0  0.22167682979E+02 -0.40915788254E+02  0.98730772622E+02  0.10915252338E+03  0.10000000000E+01 0.  0.
<mgrwt>
<rscale>  0 0.12499940E+03</rscale>
<asrwt>0</asrwt>
<pdfrwt beam="2">  1        4 0.96160819E-03 0.12499940E+03</pdfrwt>
<pdfrwt beam="1">  1       -4 0.96145950E-01 0.12499940E+03</pdfrwt>
<totfact> 0.46956268E+03</totfact>
</mgrwt>
</event>
<event>
 5    1  0.3317939E-002  0.1250003E+03  0.7818608E-02  0.1235069E+00
         -4   -1    0    0    0  501 -0.00000000000E+00  0.00000000000E+00  0.36629714363E+02  0.36651724029E+02  0.12700000000E+01 0. -1.
          4   -1    0    0  501    0  0.00000000000E+00 -0.00000000000E+00 -0.10658419063E+03  0.10659175668E+03  0.12700000000E+01 0. -1.
         25    2    1    2    0    0  0.00000000000E+00  0.00000000000E+00 -0.69954476269E+02  0.14324348071E+03  0.12500026406E+03 0.  0.
    9000005    1    3    3    0    0  0.17229698804E+02 -0.16863545714E+02  0.31091507778E+02  0.39356366078E+02  0.10000000000E+01 0.  0.
    9000005    1    3    3    0    0 -0.17229698804E+02  0.16863545714E+02 -0.10104598405E+03  0.10388711463E+03  0.10000000000E+01 0.  0.
<mgrwt>
<rscale>  0 0.12500026E+03</rscale>
<asrwt>0</asrwt>
<pdfrwt beam="2">  1        4 0.16399843E-01 0.12500026E+03</pdfrwt>
<pdfrwt beam="1">  1       -4 0.56376158E-02 0.12500026E+03</pdfrwt>
<totfact> 0.10066740E+04</totfact>
</mgrwt>
</event>
<event>
 5    1  0.3317939E-002  0.1250001E+03  0.7818608E-02  0.1235069E+00
         -4   -1    0    0    0  501 -0.00000000000E+00  0.00000000000E+00  0.23439194794E+02  0.23473575624E+02  0.12700000000E+01 0.  1.
          4   -1    0    0  501    0  0.00000000000E+00 -0.00000000000E+00 -0.16649590573E+03  0.16650074932E+03  0.12700000000E+01 0.  1.
         25    2    1    2    0    0  0.00000000000E+00  0.00000000000E+00 -0.14305671094E+03  0.18997432495E+03  0.12500008638E+03 0.  0.
    9000005    1    3    3    0    0 -0.41273752876E+02 -0.45817775952E+02 -0.56144311115E+02  0.83402487614E+02  0.10000000000E+01 0.  0.
    9000005    1    3    3    0    0  0.41273752876E+02  0.45817775952E+02 -0.86912399823E+02  0.10657183733E+03  0.10000000000E+01 0.  0.
<mgrwt>
<rscale>  0 0.12500009E+03</rscale>
<asrwt>0</asrwt>
<pdfrwt beam="2">  1        4 0.25617771E-01 0.12500009E+03</pdfrwt>
<pdfrwt beam="1">  1       -4 0.36090473E-02 0.12500009E+03</pdfrwt>
<totfact> 0.91851605E+03</totfact>
</mgrwt>
</event>
<event>
 5    1  0.3317939E-002  0.1250025E+03  0.7818608E-02  0.1235065E+00
          4   -1    0    0  501    0  0.00000000000E+00  0.00000000000E+00  0.18888575100E+03  0.18889002046E+03  0.12700000000E+01 0. -1.
         -4   -1    0    0    0  501 -0.00000000000E+00 -0.00000000000E+00 -0.20657307872E+02  0.20696310505E+02  0.12700000000E+01 0. -1.
         25    2    1    2    0    0  0.00000000000E+00  0.00000000000E+00  0.16822844313E+03  0.20958633097E+03  0.12500248418E+03 0.  0.
    9000005    1    3    3    0    0  0.78236371059E+01  0.60721762380E+02  0.10512692834E+03  0.12165941306E+03  0.10000000000E+01 0.  0.
    9000005    1    3    3    0    0 -0.78236371059E+01 -0.60721762380E+02  0.63101514785E+02  0.87926917905E+02  0.10000000000E+01 0.  0.
<mgrwt>
<rscale>  0 0.12500248E+03</rscale>
<asrwt>0</asrwt>
<pdfrwt beam="1">  1        4 0.29062676E-01 0.12500248E+03</pdfrwt>
<pdfrwt beam="2">  1       -4 0.31813759E-02 0.12500248E+03</pdfrwt>
<totfact> 0.88538564E+03</totfact>
</mgrwt>
</event>
<event>
 5    1  0.3317939E-002  0.1250101E+03  0.7818608E-02  0.1235053E+00
         -4   -1    0    0    0  501 -0.00000000000E+00  0.00000000000E+00  0.60318962828E+03  0.60319096526E+03  0.12700000000E+01 0. -1.
          4   -1    0    0  501    0  0.00000000000E+00 -0.00000000000E+00 -0.64134277136E+01  0.65379626060E+01  0.12700000000E+01 0. -1.
         25    2    1    2    0    0  0.00000000000E+00  0.00000000000E+00  0.59677620057E+03  0.60972892786E+03  0.12501012722E+03 0.  0.
    9000005    1    3    3    0    0  0.26047263299E+02  0.20795943207E+02  0.40531196175E+02  0.52485322164E+02  0.10000000000E+01 0.  0.
    9000005    1    3    3    0    0 -0.26047263299E+02 -0.20795943207E+02  0.55624500440E+03  0.55724360570E+03  0.10000000000E+01 0.  0.
<mgrwt>
<rscale>  0 0.12501013E+03</rscale>
<asrwt>0</asrwt>
<pdfrwt beam="2">  1        4 0.99636380E-03 0.12501013E+03</pdfrwt>
<pdfrwt beam="1">  1       -4 0.92808072E-01 0.12501013E+03</pdfrwt>
<totfact> 0.48248488E+03</totfact>
</mgrwt>
</event>
<event>
 5    1  0.3317939E-002  0.1250020E+03  0.7818608E-02  0.1235066E+00
          4   -1    0    0  501    0  0.00000000000E+00  0.00000000000E+00  0.20722854073E+03  0.20723243229E+03  0.12700000000E+01 0.  1.
         -4   -1    0    0    0  501 -0.00000000000E+00 -0.00000000000E+00 -0.18825111509E+02  0.18867901933E+02  0.12700000000E+01 0.  1.
         25    2    1    2    0    0  0.00000000000E+00  0.00000000000E+00  0.18840342922E+03  0.22610033422E+03  0.12500203596E+03 0.  0.
    9000005    1    3    3    0    0 -0.53680445878E+02 -0.23311313084E+01  0.15192263531E+03  0.16114748388E+03  0.10000000000E+01 0.  0.
    9000005    1    3    3    0    0  0.53680445878E+02  0.23311313084E+01  0.36480793912E+02  0.64952850340E+02  0.10000000000E+01 0.  0.
<mgrwt>
<rscale>  0 0.12500204E+03</rscale>
<asrwt>0</asrwt>
<pdfrwt beam="1">  1        4 0.31884904E-01 0.12500204E+03</pdfrwt>
<pdfrwt beam="2">  1       -4 0.28997620E-02 0.12500204E+03</pdfrwt>
<totfact> 0.85908109E+03</totfact>
</mgrwt>
</event>
<event>
 5    1  0.3317939E-002  0.1250003E+03  0.7818608E-02  0.1235069E+00
          4   -1    0    0  501    0  0.00000000000E+00  0.00000000000E+00  0.88139021303E+02  0.88148170578E+02  0.12700000000E+01 0.  1.
         -4   -1    0    0    0  501 -0.00000000000E+00 -0.00000000000E+00 -0.44298842002E+02  0.44317043028E+02  0.12700000000E+01 0.  1.
         25    2    1    2    0    0  0.00000000000E+00  0.00000000000E+00  0.43840179301E+02  0.13246521361E+03  0.12500028598E+03 0.  0.
    9000005    1    3    3    0    0 -0.55079289841E+01 -0.62241696483E+02  0.22926438535E+02  0.66565664172E+02  0.10000000000E+01 0.  0.
    9000005    1    3    3    0    0  0.55079289841E+01  0.62241696483E+02  0.20913740766E+02  0.65899549434E+02  0.10000000000E+01 0.  0.
<mgrwt>
<rscale>  0 0.12500029E+03</rscale>
<asrwt>0</asrwt>
<pdfrwt beam="1">  1        4 0.13561953E-01 0.12500029E+03</pdfrwt>
<pdfrwt beam="2">  1       -4 0.68173104E-02 0.12500029E+03</pdfrwt>
<totfact> 0.10291712E+04</totfact>
</mgrwt>
</event>
<event>
 5    1  0.3317939E-002  0.1250088E+03  0.7818608E-02  0.1235056E+00
         -4   -1    0    0    0  501 -0.00000000000E+00  0.00000000000E+00  0.14085465397E+02  0.14142603560E+02  0.12700000000E+01 0. -1.
          4   -1    0    0  501    0  0.00000000000E+00 -0.00000000000E+00 -0.27674378751E+03  0.27674670156E+03  0.12700000000E+01 0. -1.
         25    2    1    2    0    0  0.00000000000E+00  0.00000000000E+00 -0.26265832211E+03  0.29088930512E+03  0.12500877433E+03 0.  0.
    9000005    1    3    3    0    0 -0.44442764801E+02 -0.21504780649E+02 -0.22049067288E+03  0.22595298573E+03  0.10000000000E+01 0.  0.
    9000005    1    3    3    0    0  0.44442764801E+02  0.21504780649E+02 -0.42167649228E+02  0.64936319385E+02  0.10000000000E+01 0.  0.
<mgrwt>
<rscale>  0 0.12500877E+03</rscale>
<asrwt>0</asrwt>
<pdfrwt beam="2">  1        4 0.42580583E-01 0.12500877E+03</pdfrwt>
<pdfrwt beam="1">  1       -4 0.21716143E-02 0.12500877E+03</pdfrwt>
<totfact> 0.76741110E+03</totfact>
</mgrwt>
</event>
<event>
 5    1  0.3317939E-002  0.1249995E+03  0.7818608E-02  0.1235070E+00
          4   -1    0    0  501    0  0.00000000000E+00  0.00000000000E+00  0.58367541739E+01  0.59733239730E+01  0.12700000000E+01 0. -1.
         -4   -1    0    0    0  501 -0.00000000000E+00 -0.00000000000E+00 -0.66136916225E+03  0.66137038161E+03  0.12700000000E+01 0. -1.
         25    2    1    2    0    0  0.00000000000E+00  0.00000000000E+00 -0.65553240808E+03  0.66734370559E+03  0.12499953339E+03 0.  0.
    9000005    1    3    3    0    0  0.32009024626E+02 -0.41597089600E+02 -0.50883829453E+03  0.51153915344E+03  0.10000000000E+01 0.  0.
    9000005    1    3    3    0    0 -0.32009024626E+02  0.41597089600E+02 -0.14669411354E+03  0.15580455214E+03  0.10000000000E+01 0.  0.
<mgrwt>
<rscale>  0 0.12499953E+03</rscale>
<asrwt>0</asrwt>
<pdfrwt beam="1">  1        4 0.90856187E-03 0.12499953E+03</pdfrwt>
<pdfrwt beam="2">  1       -4 0.10175964E+00 0.12499953E+03</pdfrwt>
<totfact> 0.44867983E+03</totfact>
</mgrwt>
</event>
<event>
 5    1  0.3317939E-002  0.1249953E+03  0.7818608E-02  0.1235077E+00
         -4   -1    0    0    0  501 -0.00000000000E+00  0.00000000000E+00  0.12323317842E+02  0.12388585982E+02  0.12700000000E+01 0.  1.
          4   -1    0    0  501    0  0.00000000000E+00 -0.00000000000E+00 -0.31605310421E+03  0.31605565583E+03  0.12700000000E+01 0.  1.
         25    2    1    2    0    0  0.00000000000E+00  0.00000000000E+00 -0.30372978637E+03  0.32844424181E+03  0.12499534732E+03 0.  0.
    9000005    1    3    3    0    0 -0.18433981518E+02  0.43145964187E+02 -0.26031955356E+03  0.26451588963E+03  0.10000000000E+01 0.  0.
    9000005    1    3    3    0    0  0.18433981518E+02 -0.43145964187E+02 -0.43410232810E+02  0.63928352183E+02  0.10000000000E+01 0.  0.
<mgrwt>
<rscale>  0 0.12499535E+03</rscale>
<asrwt>0</asrwt>
<pdfrwt beam="2">  1        4 0.48628765E-01 0.12499535E+03</pdfrwt>
<pdfrwt beam="1">  1       -4 0.19011122E-02 0.12499535E+03</pdfrwt>
<totfact> 0.72170366E+03</totfact>
</mgrwt>
</event>
<event>
 5    1  0.3317939E-002  0.1250030E+03  0.7818608E-02  0.1235065E+00
         -4   -1    0    0    0  501 -0.00000000000E+00  0.00000000000E+00  0.12488770083E+02  0.12553178012E+02  0.12700000000E+01 0.  1.
          4   -1    0    0  501    0  0.00000000000E+00 -0.00000000000E+00 -0.31192558341E+03  0.31192816879E+03  0.12700000000E+01 0.  1.
         25    2    1    2    0    0  0.00000000000E+00  0.00000000000E+00 -0.29943681332E+03  0.32448134680E+03  0.12500295696E+03 0.  0.
    9000005    1    3    3    0    0 -0.36995223224E+02  0.40078704252E+02 -0.22890001328E+03  0.23531078419E+03  0.10000000000E+01 0.  0.
    9000005    1    3    3    0    0  0.36995223224E+02 -0.40078704252E+02 -0.70536800040E+02  0.89170562608E+02  0.10000000000E+01 0.  0.
<mgrwt>
<rscale>  0 0.12500296E+03</rscale>
<asrwt>0</asrwt>
<pdfrwt beam="2">  1        4 0.47993699E-01 0.12500296E+03</pdfrwt>
<pdfrwt beam="1">  1       -4 0.19265028E-02 0.12500296E+03</pdfrwt>
<totfact> 0.72621523E+03</totfact>
</mgrwt>
</event>
<event>
 5    1  0.3317939E-002  0.1250001E+03  0.7818608E-02  0.1235069E+00
          4   -1    0    0  501    0  0.00000000000E+00  0.00000000000E+00  0.60636107028E+02  0.60649405401E+02  0.12700000000E+01 0. -1.
         -4   -1    0    0    0  501 -0.00000000000E+00 -0.00000000000E+00 -0.64394693330E+02  0.64407215660E+02  0.12700000000E+01 0. -1.
         25    2    1    2    0    0  0.00000000000E+00  0.00000000000E+00 -0.37585863023E+01  0.12505662106E+03  0.12500012600E+03 0.  0.
    9000005    1    3    3    0    0  0.18677681308E+02 -0.52147186719E+02  0.27065997163E+02  0.61658357618E+02  0.10000000000E+01 0.  0.
    9000005    1    3    3    0    0 -0.18677681308E+02  0.52147186719E+02 -0.30824583466E+02  0.63398263443E+02  0.10000000000E+01 0.  0.
<mgrwt>
<rscale>  0 0.12500013E+03</rscale>
<asrwt>0</asrwt>
<pdfrwt beam="1">  1        4 0.93306181E-02 0.12500013E+03</pdfrwt>
<pdfrwt beam="2">  1       -4 0.99088620E-02 0.12500013E+03</pdfrwt>
<totfact> 0.10451603E+04</totfact>
</mgrwt>
</event>
<event>
 5    1  0.3317939E-002  0.1250005E+03  0.7818608E-02  0.1235069E+00
          4   -1    0    0  501    0  0.00000000000E+00  0.00000000000E+00  0.16866815054E+02  0.16914560298E+02  0.12700000000E+01 0. -1.
         -4   -1    0    0    0  501 -0.00000000000E+00 -0.00000000000E+00 -0.23121868483E+03  0.23122217263E+03  0.12700000000E+01 0. -1.
         25    2    1    2    0    0  0.00000000000E+00  0.00000000000E+00 -0.21435186978E+03  0.24813673293E+03  0.12500045660E+03 0.  0.
    9000005    1    3    3    0    0  0.24775064823E+02 -0.56157717987E+02 -0.83874585140E+02  0.10393959380E+03  0.10000000000E+01 0.  0.
    9000005    1    3    3    0    0 -0.24775064823E+02  0.56157717987E+02 -0.13047728464E+03  0.14419713913E+03  0.10000000000E+01 0.  0.
<mgrwt>
<rscale>  0 0.12500046E+03</rscale>
<asrwt>0</asrwt>
<pdfrwt beam="1">  1        4 0.25988358E-02 0.12500046E+03</pdfrwt>
<pdfrwt beam="2">  1       -4 0.35576044E-01 0.12500046E+03</pdfrwt>
<totfact> 0.82599436E+03</totfact>
</mgrwt>
</event>
<event>
 5    1  0.3317939E-002  0.1250000E+03  0.7818608E-02  0.1235069E+00
         -4   -1    0    0    0  501 -0.00000000000E+00  0.00000000000E+00  0.13261698479E+02  0.13322370155E+02  0.12700000000E+01 0. -1.
          4   -1    0    0  501    0  0.00000000000E+00 -0.00000000000E+00 -0.29381710306E+03  0.29381984778E+03  0.12700000000E+01 0. -1.
         25    2    1    2    0    0  0.00000000000E+00  0.00000000000E+00 -0.28055540458E+03  0.30714221794E+03  0.12500002800E+03 0.  0.
    9000005    1    3    3    0    0  0.45209039128E+01  0.44572427314E+02 -0.33226804995E+02  0.55786740531E+02  0.10000000000E+01 0.  0.
    9000005    1    3    3    0    0 -0.45209039128E+01 -0.44572427314E+02 -0.24732859959E+03  0.25135547741E+03  0.10000000000E+01 0.  0.
<mgrwt>
<rscale>  0 0.12500003E+03</rscale>
<asrwt>0</asrwt>
<pdfrwt beam="2">  1        4 0.45207505E-01 0.12500003E+03</pdfrwt>
<pdfrwt beam="1">  1       -4 0.20451397E-02 0.12500003E+03</pdfrwt>
<totfact> 0.74711533E+03</totfact>
</mgrwt>
</event>
<event>
 5    1  0.3317939E-002  0.1250004E+03  0.7818608E-02  0.1235069E+00
         -4   -1    0    0    0  501 -0.00000000000E+00  0.00000000000E+00  0.73154054197E+03  0.73154164437E+03  0.12700000000E+01 0. -1.
          4   -1    0    0  501    0  0.00000000000E+00 -0.00000000000E+00 -0.52631585927E+01  0.54142163212E+01  0.12700000000E+01 0. -1.
         25    2    1    2    0    0  0.00000000000E+00  0.00000000000E+00  0.72627738338E+03  0.73695586069E+03  0.12500041200E+03 0.  0.
    9000005    1    3    3    0    0 -0.96317277678E+01 -0.44611249735E+02  0.61481652759E+03  0.61650895888E+03  0.10000000000E+01 0.  0.
    9000005    1    3    3    0    0  0.96317277678E+01  0.44611249735E+02  0.11146085580E+03  0.12044690182E+03  0.10000000000E+01 0.  0.
<mgrwt>
<rscale>  0 0.12500041E+03</rscale>
<asrwt>0</asrwt>
<pdfrwt beam="2">  1        4 0.82142154E-03 0.12500041E+03</pdfrwt>
<pdfrwt beam="1">  1       -4 0.11255637E+00 0.12500041E+03</pdfrwt>
<totfact> 0.41205582E+03</totfact>
</mgrwt>
</event>
<event>
 5    1  0.3317939E-002  0.1249991E+03  0.7818608E-02  0.1235071E+00
         -4   -1    0    0    0  501 -0.00000000000E+00  0.00000000000E+00  0.71625385382E+03  0.71625497975E+03  0.12700000000E+01 0.  1.
          4   -1    0    0  501    0  0.00000000000E+00 -0.00000000000E+00 -0.53785585018E+01  0.55264628432E+01  0.12700000000E+01 0.  1.
         25    2    1    2    0    0  0.00000000000E+00  0.00000000000E+00  0.71087529532E+03  0.72178144259E+03  0.12499906149E+03 0.  0.
    9000005    1    3    3    0    0 -0.42440119076E+02  0.45695103638E+02  0.37852409873E+03  0.38362833514E+03  0.10000000000E+01 0.  0.
    9000005    1    3    3    0    0  0.42440119076E+02 -0.45695103638E+02  0.33235119659E+03  0.33815310745E+03  0.10000000000E+01 0.  0.
<mgrwt>
<rscale>  0 0.12499906E+03</rscale>
<asrwt>0</asrwt>
<pdfrwt beam="2">  1        4 0.83893495E-03 0.12499906E+03</pdfrwt>
<pdfrwt beam="1">  1       -4 0.11020429E+00 0.12499906E+03</pdfrwt>
<totfact> 0.41962405E+03</totfact>
</mgrwt>
</event>
<event>
 5    1  0.3317939E-002  0.1249995E+03  0.7818608E-02  0.1235070E+00
         -4   -1    0    0    0  501 -0.00000000000E+00  0.00000000000E+00  0.51584748982E+03  0.51584905316E+03  0.12700000000E+01 0. -1.
          4   -1    0    0  501    0  0.00000000000E+00 -0.00000000000E+00 -0.75175982749E+01  0.76241185604E+01  0.12700000000E+01 0. -1.
         25    2    1    2    0    0  0.00000000000E+00  0.00000000000E+00  0.50832989154E+03  0.52347317172E+03  0.12499953152E+03 0.  0.
    9000005    1    3    3    0    0 -0.51772019036E+02  0.21973939263E+02  0.36824119714E+03  0.37251278532E+03  0.10000000000E+01 0.  0.
    9000005    1    3    3    0    0  0.51772019036E+02 -0.21973939263E+02  0.14008869441E+03  0.15096038640E+03  0.10000000000E+01 0.  0.
<mgrwt>
<rscale>  0 0.12499953E+03</rscale>
<asrwt>0</asrwt>
<pdfrwt beam="2">  1        4 0.11648675E-02 0.12499953E+03</pdfrwt>
<pdfrwt beam="1">  1       -4 0.79369479E-01 0.12499953E+03</pdfrwt>
<totfact> 0.54088597E+03</totfact>
</mgrwt>
</event>
<event>
 5    1  0.3317939E-002  0.1250008E+03  0.7818608E-02  0.1235068E+00
          4   -1    0    0  501    0  0.00000000000E+00  0.00000000000E+00  0.23909808289E+03  0.23910145575E+03  0.12700000000E+01 0.  1.
         -4   -1    0    0    0  501 -0.00000000000E+00 -0.00000000000E+00 -0.16309467121E+02  0.16358839132E+02  0.12700000000E+01 0.  1.
         25    2    1    2    0    0  0.00000000000E+00  0.00000000000E+00  0.22278861577E+03  0.25546029489E+03  0.12500077978E+03 0.  0.
    9000005    1    3    3    0    0 -0.60668843634E+01 -0.28524546332E+02 -0.15605872668E+01  0.29221434974E+02  0.10000000000E+01 0.  0.
    9000005    1    3    3    0    0  0.60668843634E+01  0.28524546332E+02  0.22434920304E+03  0.22623885991E+03  0.10000000000E+01 0.  0.
<mgrwt>
<rscale>  0 0.12500078E+03</rscale>
<asrwt>0</asrwt>
<pdfrwt beam="1">  1        4 0.36788376E-01 0.12500078E+03</pdfrwt>
<pdfrwt beam="2">  1       -4 0.25132062E-02 0.12500078E+03</pdfrwt>
<totfact> 0.81545980E+03</totfact>
</mgrwt>
</event>
<event>
 5    1  0.3317939E-002  0.1249980E+03  0.7818608E-02  0.1235072E+00
         -4   -1    0    0    0  501 -0.00000000000E+00  0.00000000000E+00  0.15161579208E+03  0.15162111102E+03  0.12700000000E+01 0.  1.
          4   -1    0    0  501    0  0.00000000000E+00 -0.00000000000E+00 -0.25741893037E+02  0.25773202306E+02  0.12700000000E+01 0.  1.
         25    2    1    2    0    0  0.00000000000E+00  0.00000000000E+00  0.12587389904E+03  0.17739431333E+03  0.12499801575E+03 0.  0.
    9000005    1    3    3    0    0  0.25732038446E+02 -0.35883548023E+02  0.18173113158E+00  0.44167859892E+02  0.10000000000E+01 0.  0.
    9000005    1    3    3    0    0 -0.25732038446E+02  0.35883548023E+02  0.12569216791E+03  0.13322645344E+03  0.10000000000E+01 0.  0.
<mgrwt>
<rscale>  0 0.12499802E+03</rscale>
<asrwt>0</asrwt>
<pdfrwt beam="2">  1        4 0.39631088E-02 0.12499802E+03</pdfrwt>
<pdfrwt beam="1">  1       -4 0.23328324E-01 0.12499802E+03</pdfrwt>
<totfact> 0.94092336E+03</totfact>
</mgrwt>
</event>
<event>
 5    1  0.3317939E-002  0.1250000E+03  0.7818608E-02  0.1235069E+00
         -4   -1    0    0    0  501 -0.00000000000E+00  0.00000000000E+00  0.68904749450E+01  0.70065358750E+01  0.12700000000E+01 0. -1.
          4   -1    0    0  501    0  0.00000000000E+00 -0.00000000000E+00 -0.56205476066E+03  0.56205619548E+03  0.12700000000E+01 0. -1.
         25    2    1    2    0    0  0.00000000000E+00  0.00000000000E+00 -0.55516428571E+03  0.56906273135E+03  0.12500003235E+03 0.  0.
    9000005    1    3    3    0    0  0.15788593366E+02 -0.38398842475E+02 -0.49021371513E+03  0.49196975241E+03  0.10000000000E+01 0.  0.
    9000005    1    3    3    0    0 -0.15788593366E+02  0.38398842475E+02 -0.64950570585E+02  0.77092978949E+02  0.10000000000E+01 0.  0.
<mgrwt>
<rscale>  0 0.12500003E+03</rscale>
<asrwt>0</asrwt>
<pdfrwt beam="2">  1        4 0.86478966E-01 0.12500003E+03</pdfrwt>
<pdfrwt beam="1">  1       -4 0.10691116E-02 0.12500003E+03</pdfrwt>
<totfact> 0.50880543E+03</totfact>
</mgrwt>
</event>
<event>
 5    1  0.3317939E-002  0.1249937E+03  0.7818608E-02  0.1235079E+00
         -4   -1    0    0    0  501 -0.00000000000E+00  0.00000000000E+00  0.54125241276E+02  0.54140138929E+02  0.12700000000E+01 0.  1.
          4   -1    0    0  501    0  0.00000000000E+00 -0.00000000000E+00 -0.72132877475E+02  0.72144056670E+02  0.12700000000E+01 0.  1.
         25    2    1    2    0    0  0.00000000000E+00  0.00000000000E+00 -0.18007636199E+02  0.12628419560E+03  0.12499369223E+03 0.  0.
    9000005    1    3    3    0    0  0.20559480809E+02 -0.58542824420E+02 -0.16489854768E+02  0.64209577576E+02  0.10000000000E+01 0.  0.
    9000005    1    3    3    0    0 -0.20559480809E+02  0.58542824420E+02 -0.15177814315E+01  0.62074618023E+02  0.10000000000E+01 0.  0.
<mgrwt>
<rscale>  0 0.12499369E+03</rscale>
<asrwt>0</asrwt>
<pdfrwt beam="2">  1        4 0.11099372E-01 0.12499369E+03</pdfrwt>
<pdfrwt beam="1">  1       -4 0.83289661E-02 0.12499369E+03</pdfrwt>
<totfact> 0.10426223E+04</totfact>
</mgrwt>
</event>
<event>
 5    1  0.3317939E-002  0.1250045E+03  0.7818608E-02  0.1235062E+00
         -4   -1    0    0    0  501 -0.00000000000E+00  0.00000000000E+00  0.27378841055E+02  0.27408280455E+02  0.12700000000E+01 0.  1.
          4   -1    0    0  501    0  0.00000000000E+00 -0.00000000000E+00 -0.14257535486E+03  0.14258101105E+03  0.12700000000E+01 0.  1.
         25    2    1    2    0    0  0.00000000000E+00  0.00000000000E+00 -0.11519651380E+03  0.16998929151E+03  0.12500448966E+03 0.  0.
    9000005    1    3    3    0    0 -0.38049653648E+02 -0.16686301292E+02 -0.12108113903E+03  0.12801504217E+03  0.10000000000E+01 0.  0.
    9000005    1    3    3    0    0  0.38049653648E+02  0.16686301292E+02  0.58846252233E+01  0.41974249339E+02  0.10000000000E+01 0.  0.
<mgrwt>
<rscale>  0 0.12500449E+03</rscale>
<asrwt>0</asrwt>
<pdfrwt beam="2">  1        4 0.21937369E-01 0.12500449E+03</pdfrwt>
<pdfrwt beam="1">  1       -4 0.42148291E-02 0.12500449E+03</pdfrwt>
<totfact> 0.95441014E+03</totfact>
</mgrwt>
</event>
<event>
 5    1  0.3317939E-002  0.1250006E+03  0.7818608E-02  0.1235068E+00
          4   -1    0    0  501    0  0.00000000000E+00  0.00000000000E+00  0.40559361373E+02  0.40579239705E+02  0.12700000000E+01 0.  1.
         -4   -1    0    0    0  501 -0.00000000000E+00 -0.00000000000E+00 -0.96262787311E+02  0.96271164535E+02  0.12700000000E+01 0.  1.
         25    2    1    2    0    0  0.00000000000E+00  0.00000000000E+00 -0.55703425938E+02  0.13685040424E+03  0.12500064592E+03 0.  0.
    9000005    1    3    3    0    0 -0.57196038261E+02  0.24728771695E+02 -0.22671176704E+02  0.66316522794E+02  0.10000000000E+01 0.  0.
    9000005    1    3    3    0    0  0.57196038261E+02 -0.24728771695E+02 -0.33032249233E+02  0.70533881445E+02  0.10000000000E+01 0.  0.
<mgrwt>
<rscale>  0 0.12500065E+03</rscale>
<asrwt>0</asrwt>
<pdfrwt beam="1">  1        4 0.62420753E-02 0.12500065E+03</pdfrwt>
<pdfrwt beam="2">  1       -4 0.14811833E-01 0.12500065E+03</pdfrwt>
<totfact> 0.10199066E+04</totfact>
</mgrwt>
</event>
<event>
 5    1  0.3317939E-002  0.1250215E+03  0.7818608E-02  0.1235036E+00
         -4   -1    0    0    0  501 -0.00000000000E+00  0.00000000000E+00  0.26265964746E+02  0.26296650053E+02  0.12700000000E+01 0. -1.
          4   -1    0    0  501    0  0.00000000000E+00 -0.00000000000E+00 -0.14864992717E+03  0.14865535223E+03  0.12700000000E+01 0. -1.
         25    2    1    2    0    0  0.00000000000E+00  0.00000000000E+00 -0.12238396242E+03  0.17495200228E+03  0.12502147354E+03 0.  0.
    9000005    1    3    3    0    0  0.23541039262E+02 -0.53430456001E+02 -0.29976240815E+02  0.65639692042E+02  0.10000000000E+01 0.  0.
    9000005    1    3    3    0    0 -0.23541039262E+02  0.53430456001E+02 -0.92407721607E+02  0.10931231024E+03  0.10000000000E+01 0.  0.
<mgrwt>
<rscale>  0 0.12502147E+03</rscale>
<asrwt>0</asrwt>
<pdfrwt beam="2">  1        4 0.22871997E-01 0.12502147E+03</pdfrwt>
<pdfrwt beam="1">  1       -4 0.40436955E-02 0.12502147E+03</pdfrwt>
<totfact> 0.94488107E+03</totfact>
</mgrwt>
</event>
<event>
 5    1  0.3317939E-002  0.1250009E+03  0.7818608E-02  0.1235068E+00
         -4   -1    0    0    0  501 -0.00000000000E+00  0.00000000000E+00  0.12459692152E+02  0.12524249619E+02  0.12700000000E+01 0.  1.
          4   -1    0    0  501    0  0.00000000000E+00 -0.00000000000E+00 -0.31263948484E+03  0.31264206431E+03  0.12700000000E+01 0.  1.
         25    2    1    2    0    0  0.00000000000E+00  0.00000000000E+00 -0.30017979269E+03  0.32516631393E+03  0.12500089512E+03 0.  0.
    9000005    1    3    3    0    0 -0.52664995275E+02  0.27659820605E+02 -0.10028047648E+03  0.11660120654E+03  0.10000000000E+01 0.  0.
    9000005    1    3    3    0    0  0.52664995275E+02 -0.27659820605E+02 -0.19989931621E+03  0.20856510740E+03  0.10000000000E+01 0.  0.
<mgrwt>
<rscale>  0 0.12500090E+03</rscale>
<asrwt>0</asrwt>
<pdfrwt beam="2">  1        4 0.48103541E-01 0.12500090E+03</pdfrwt>
<pdfrwt beam="1">  1       -4 0.19220403E-02 0.12500090E+03</pdfrwt>
<totfact> 0.72544409E+03</totfact>
</mgrwt>
</event>
<event>
 5    1  0.3317939E-002  0.1249998E+03  0.7818608E-02  0.1235070E+00
          4   -1    0    0  501    0  0.00000000000E+00  0.00000000000E+00  0.42968457682E+03  0.42968645366E+03  0.12700000000E+01 0.  1.
         -4   -1    0    0    0  501 -0.00000000000E+00 -0.00000000000E+00 -0.90446816773E+01  0.91334093659E+01  0.12700000000E+01 0.  1.
         25    2    1    2    0    0  0.00000000000E+00  0.00000000000E+00  0.42063989514E+03  0.43881986303E+03  0.12499980319E+03 0.  0.
    9000005    1    3    3    0    0 -0.60902839881E+02  0.19002937705E+00  0.25947357687E+03  0.26652716393E+03  0.10000000000E+01 0.  0.
    9000005    1    3    3    0    0  0.60902839881E+02 -0.19002937705E+00  0.16116631827E+03  0.17229269910E+03  0.10000000000E+01 0.  0.
<mgrwt>
<rscale>  0 0.12499980E+03</rscale>
<asrwt>0</asrwt>
<pdfrwt beam="1">  1        4 0.66112294E-01 0.12499980E+03</pdfrwt>
<pdfrwt beam="2">  1       -4 0.13984590E-02 0.12499980E+03</pdfrwt>
<totfact> 0.60944841E+03</totfact>
</mgrwt>
</event>
<event>
 5    1  0.3317939E-002  0.1250006E+03  0.7818608E-02  0.1235068E+00
          4   -1    0    0  501    0  0.00000000000E+00  0.00000000000E+00  0.13342191439E+02  0.13402498737E+02  0.12700000000E+01 0. -1.
         -4   -1    0    0    0  501 -0.00000000000E+00 -0.00000000000E+00 -0.29205519740E+03  0.29205795868E+03  0.12700000000E+01 0. -1.
         25    2    1    2    0    0  0.00000000000E+00  0.00000000000E+00 -0.27871300596E+03  0.30546045742E+03  0.12500060541E+03 0.  0.
    9000005    1    3    3    0    0 -0.52563429740E+02  0.42568511811E+00 -0.56769343251E+02  0.77374761305E+02  0.10000000000E+01 0.  0.
    9000005    1    3    3    0    0  0.52563429740E+02 -0.42568511811E+00 -0.22194366271E+03  0.22808569612E+03  0.10000000000E+01 0.  0.
<mgrwt>
<rscale>  0 0.12500061E+03</rscale>
<asrwt>0</asrwt>
<pdfrwt beam="1">  1        4 0.20574965E-02 0.12500061E+03</pdfrwt>
<pdfrwt beam="2">  1       -4 0.44936415E-01 0.12500061E+03</pdfrwt>
<totfact> 0.74917950E+03</totfact>
</mgrwt>
</event>
<event>
 5    1  0.3317939E-002  0.1249998E+03  0.7818608E-02  0.1235070E+00
          4   -1    0    0  501    0  0.00000000000E+00  0.00000000000E+00  0.57558944649E+02  0.57572953799E+02  0.12700000000E+01 0.  1.
         -4   -1    0    0    0  501 -0.00000000000E+00 -0.00000000000E+00 -0.67836809845E+02  0.67848696892E+02  0.12700000000E+01 0.  1.
         25    2    1    2    0    0  0.00000000000E+00  0.00000000000E+00 -0.10277865195E+02  0.12542165069E+03  0.12499982380E+03 0.  0.
    9000005    1    3    3    0    0 -0.18339890512E+02  0.47737985023E+02 -0.41176318896E+02  0.65663962992E+02  0.10000000000E+01 0.  0.
    9000005    1    3    3    0    0  0.18339890512E+02 -0.47737985023E+02  0.30898453700E+02  0.59757687699E+02  0.10000000000E+01 0.  0.
<mgrwt>
<rscale>  0 0.12499982E+03</rscale>
<asrwt>0</asrwt>
<pdfrwt beam="1">  1        4 0.88572143E-02 0.12499982E+03</pdfrwt>
<pdfrwt beam="2">  1       -4 0.10438424E-01 0.12499982E+03</pdfrwt>
<totfact> 0.10443729E+04</totfact>
</mgrwt>
</event>
<event>
 5    1  0.3317939E-002  0.1249759E+03  0.7818608E-02  0.1235107E+00
         -4   -1    0    0    0  501 -0.00000000000E+00  0.00000000000E+00  0.15149215558E+03  0.15149747886E+03  0.12700000000E+01 0. -1.
          4   -1    0    0  501    0  0.00000000000E+00 -0.00000000000E+00 -0.25753800308E+02  0.25785095119E+02  0.12700000000E+01 0. -1.
         25    2    1    2    0    0  0.00000000000E+00  0.00000000000E+00  0.12573835527E+03  0.17728257398E+03  0.12497590588E+03 0.  0.
    9000005    1    3    3    0    0 -0.17691430623E+02 -0.58584148424E+02  0.45001554979E+02  0.75968606112E+02  0.10000000000E+01 0.  0.
    9000005    1    3    3    0    0  0.17691430623E+02  0.58584148424E+02  0.80736800291E+02  0.10131396787E+03  0.10000000000E+01 0.  0.
<mgrwt>
<rscale>  0 0.12497591E+03</rscale>
<asrwt>0</asrwt>
<pdfrwt beam="2">  1        4 0.39649399E-02 0.12497591E+03</pdfrwt>
<pdfrwt beam="1">  1       -4 0.23309302E-01 0.12497591E+03</pdfrwt>
<totfact> 0.94159321E+03</totfact>
</mgrwt>
</event>
<event>
 5    1  0.3317939E-002  0.1250087E+03  0.7818608E-02  0.1235056E+00
          4   -1    0    0  501    0  0.00000000000E+00  0.00000000000E+00  0.90379637074E+03  0.90379726303E+03  0.12700000000E+01 0. -1.
         -4   -1    0    0    0  501 -0.00000000000E+00 -0.00000000000E+00 -0.42284524026E+01  0.44150548945E+01  0.12700000000E+01 0. -1.
         25    2    1    2    0    0  0.00000000000E+00  0.00000000000E+00  0.89956791834E+03  0.90821231793E+03  0.12500869862E+03 0.  0.
    9000005    1    3    3    0    0  0.42539452241E+02  0.21615623747E+02  0.74300929800E+03  0.74454056780E+03  0.10000000000E+01 0.  0.
    9000005    1    3    3    0    0 -0.42539452241E+02 -0.21615623747E+02  0.15655862034E+03  0.16367175013E+03  0.10000000000E+01 0.  0.
<mgrwt>
<rscale>  0 0.12500870E+03</rscale>
<asrwt>0</asrwt>
<pdfrwt beam="1">  1        4 0.13906004E+00 0.12500870E+03</pdfrwt>
<pdfrwt beam="2">  1       -4 0.66495372E-03 0.12500870E+03</pdfrwt>
<totfact> 0.33840975E+03</totfact>
</mgrwt>
</event>
<event>
 5    1  0.3317939E-002  0.1250002E+03  0.7818608E-02  0.1235069E+00
         -4   -1    0    0    0  501 -0.00000000000E+00  0.00000000000E+00  0.35531531617E+03  0.35531758583E+03  0.12700000000E+01 0. -1.
          4   -1    0    0  501    0  0.00000000000E+00 -0.00000000000E+00 -0.10954806947E+02  0.11028177331E+02  0.12700000000E+01 0. -1.
         25    2    1    2    0    0  0.00000000000E+00  0.00000000000E+00  0.34436050922E+03  0.36634576316E+03  0.12500023151E+03 0.  0.
    9000005    1    3    3    0    0 -0.55949666173E+02 -0.90960437222E+01  0.24928551653E+03  0.25565087895E+03  0.10000000000E+01 0.  0.
    9000005    1    3    3    0    0  0.55949666173E+02  0.90960437222E+01  0.95074992691E+02  0.11069488422E+03  0.10000000000E+01 0.  0.
<mgrwt>
<rscale>  0 0.12500023E+03</rscale>
<asrwt>0</asrwt>
<pdfrwt beam="2">  1        4 0.16911733E-02 0.12500023E+03</pdfrwt>
<pdfrwt beam="1">  1       -4 0.54669715E-01 0.12500023E+03</pdfrwt>
<totfact> 0.67962628E+03</totfact>
</mgrwt>
</event>
<event>
 5    1  0.3317939E-002  0.1249953E+03  0.7818608E-02  0.1235077E+00
         -4   -1    0    0    0  501 -0.00000000000E+00  0.00000000000E+00  0.76443488969E+01  0.77491270513E+01  0.12700000000E+01 0. -1.
          4   -1    0    0  501    0  0.00000000000E+00 -0.00000000000E+00 -0.50737646973E+03  0.50737805918E+03  0.12700000000E+01 0. -1.
         25    2    1    2    0    0  0.00000000000E+00  0.00000000000E+00 -0.49973212083E+03  0.51512718623E+03  0.12499530151E+03 0.  0.
    9000005    1    3    3    0    0  0.25104949303E+02 -0.30218510975E+02 -0.45013720785E+03  0.45184944703E+03  0.10000000000E+01 0.  0.
    9000005    1    3    3    0    0 -0.25104949303E+02  0.30218510975E+02 -0.49594912979E+02  0.63277739201E+02  0.10000000000E+01 0.  0.
<mgrwt>
<rscale>  0 0.12499530E+03</rscale>
<asrwt>0</asrwt>
<pdfrwt beam="2">  1        4 0.78066074E-01 0.12499530E+03</pdfrwt>
<pdfrwt beam="1">  1       -4 0.11842362E-02 0.12499530E+03</pdfrwt>
<totfact> 0.54715154E+03</totfact>
</mgrwt>
</event>
<event>
 4    1  0.3317939E-002  0.1248976E+03  0.7818608E-02  0.1235229E+00
         -4   -1    0    0    0  501 -0.00000000000E+00  0.00000000000E+00  0.35252593965E+01  0.37470460115E+01  0.12700000000E+01 0.  1.
          4   -1    0    0  501    0  0.00000000000E+00 -0.00000000000E+00 -0.10722988519E+04  0.10722996040E+04  0.12700000000E+01 0.  1.
    9000005    1    1    2    0    0 -0.42285595087E+01  0.58996349572E+02 -0.70678165511E+03  0.70925295768E+03  0.10000000000E+01 0.  0.
    9000005    1    1    2    0    0  0.42285595087E+01 -0.58996349572E+02 -0.36199193742E+03  0.36679369233E+03  0.10000000000E+01 0.  0.
<mgrwt>
<rscale>  0 0.12489756E+03</rscale>
<asrwt>0</asrwt>
<pdfrwt beam="2">  1        4 0.16498592E+00 0.12489756E+03</pdfrwt>
<pdfrwt beam="1">  1       -4 0.55946681E-03 0.12489756E+03</pdfrwt>
<totfact> 0.28258365E+03</totfact>
</mgrwt>
</event>
<event>
 5    1  0.3317939E-002  0.1250042E+03  0.7818608E-02  0.1235063E+00
          4   -1    0    0  501    0  0.00000000000E+00  0.00000000000E+00  0.19853895880E+02  0.19894473645E+02  0.12700000000E+01 0.  1.
         -4   -1    0    0    0  501 -0.00000000000E+00 -0.00000000000E+00 -0.19651962820E+03  0.19652373182E+03  0.12700000000E+01 0.  1.
         25    2    1    2    0    0  0.00000000000E+00  0.00000000000E+00 -0.17666573232E+03  0.21641820546E+03  0.12500423465E+03 0.  0.
    9000005    1    3    3    0    0  0.58850696403E+02  0.38710480217E+01 -0.52552345276E+02  0.79000876413E+02  0.10000000000E+01 0.  0.
    9000005    1    3    3    0    0 -0.58850696403E+02 -0.38710480217E+01 -0.12411338705E+03  0.13741732905E+03  0.10000000000E+01 0.  0.
<mgrwt>
<rscale>  0 0.12500423E+03</rscale>
<asrwt>0</asrwt>
<pdfrwt beam="1">  1        4 0.30578827E-02 0.12500423E+03</pdfrwt>
<pdfrwt beam="2">  1       -4 0.30237225E-01 0.12500423E+03</pdfrwt>
<totfact> 0.87430042E+03</totfact>
</mgrwt>
</event>
<event>
 5    1  0.3317939E-002  0.1249997E+03  0.7818608E-02  0.1235070E+00
         -4   -1    0    0    0  501 -0.00000000000E+00  0.00000000000E+00  0.13106763973E+02  0.13168149522E+02  0.12700000000E+01 0. -1.
          4   -1    0    0  501    0  0.00000000000E+00 -0.00000000000E+00 -0.29727278678E+03  0.29727549960E+03  0.12700000000E+01 0. -1.
         25    2    1    2    0    0  0.00000000000E+00  0.00000000000E+00 -0.28416602281E+03  0.31044364912E+03  0.12499972304E+03 0.  0.
    9000005    1    3    3    0    0  0.10971341396E+01  0.10353895201E+02 -0.29511565030E+03  0.29530095479E+03  0.10000000000E+01 0.  0.
    9000005    1    3    3    0    0 -0.10971341396E+01 -0.10353895201E+02  0.10949627494E+02  0.15142694325E+02  0.10000000000E+01 0.  0.
<mgrwt>
<rscale>  0 0.12499972E+03</rscale>
<asrwt>0</asrwt>
<pdfrwt beam="2">  1        4 0.45739200E-01 0.12499972E+03</pdfrwt>
<pdfrwt beam="1">  1       -4 0.20213561E-02 0.12499972E+03</pdfrwt>
<totfact> 0.74307665E+03</totfact>
</mgrwt>
</event>
<event>
 5    1  0.3317939E-002  0.1250007E+03  0.7818608E-02  0.1235068E+00
          4   -1    0    0  501    0  0.00000000000E+00  0.00000000000E+00  0.16799998490E+02  0.16847933086E+02  0.12700000000E+01 0. -1.
         -4   -1    0    0    0  501 -0.00000000000E+00 -0.00000000000E+00 -0.23213660213E+03  0.23214007614E+03  0.12700000000E+01 0. -1.
         25    2    1    2    0    0  0.00000000000E+00  0.00000000000E+00 -0.21533660364E+03  0.24898800922E+03  0.12500070348E+03 0.  0.
    9000005    1    3    3    0    0  0.30815825848E+02  0.42639201699E+02 -0.17485084482E+03  0.18259664449E+03  0.10000000000E+01 0.  0.
    9000005    1    3    3    0    0 -0.30815825848E+02 -0.42639201699E+02 -0.40485758825E+02  0.66391364739E+02  0.10000000000E+01 0.  0.
<mgrwt>
<rscale>  0 0.12500070E+03</rscale>
<asrwt>0</asrwt>
<pdfrwt beam="1">  1        4 0.25885698E-02 0.12500070E+03</pdfrwt>
<pdfrwt beam="2">  1       -4 0.35717276E-01 0.12500070E+03</pdfrwt>
<totfact> 0.82475421E+03</totfact>
</mgrwt>
</event>
<event>
 5    1  0.3317939E-002  0.1249844E+03  0.7818608E-02  0.1235094E+00
         -4   -1    0    0    0  501 -0.00000000000E+00  0.00000000000E+00  0.45263966192E+03  0.45264144358E+03  0.12700000000E+01 0. -1.
          4   -1    0    0  501    0  0.00000000000E+00 -0.00000000000E+00 -0.85792339142E+01  0.86727247480E+01  0.12700000000E+01 0. -1.
         25    2    1    2    0    0  0.00000000000E+00  0.00000000000E+00  0.44406042801E+03  0.46131416833E+03  0.12498439173E+03 0.  0.
    9000005    1    3    3    0    0 -0.48915236192E+02  0.28078302845E+02  0.12277229787E+03  0.13511154113E+03  0.10000000000E+01 0.  0.
    9000005    1    3    3    0    0  0.48915236192E+02 -0.28078302845E+02  0.32128813013E+03  0.32620262719E+03  0.10000000000E+01 0.  0.
<mgrwt>
<rscale>  0 0.12498439E+03</rscale>
<asrwt>0</asrwt>
<pdfrwt beam="2">  1        4 0.13272108E-02 0.12498439E+03</pdfrwt>
<pdfrwt beam="1">  1       -4 0.69644197E-01 0.12498439E+03</pdfrwt>
<totfact> 0.59016308E+03</totfact>
</mgrwt>
</event>
<event>
 5    1  0.3317939E-002  0.1249997E+03  0.7818608E-02  0.1235070E+00
          4   -1    0    0  501    0  0.00000000000E+00  0.00000000000E+00  0.23576034797E+02  0.23610216364E+02  0.12700000000E+01 0. -1.
         -4   -1    0    0    0  501 -0.00000000000E+00 -0.00000000000E+00 -0.16552983305E+03  0.16553470491E+03  0.12700000000E+01 0. -1.
         25    2    1    2    0    0  0.00000000000E+00  0.00000000000E+00 -0.14195379826E+03  0.18914492128E+03  0.12499968162E+03 0.  0.
    9000005    1    3    3    0    0  0.29980776983E+02  0.17029260620E+01  0.11950563649E+02  0.32335165334E+02  0.10000000000E+01 0.  0.
    9000005    1    3    3    0    0 -0.29980776983E+02 -0.17029260620E+01 -0.15390436191E+03  0.15680975594E+03  0.10000000000E+01 0.  0.
<mgrwt>
<rscale>  0 0.12499968E+03</rscale>
<asrwt>0</asrwt>
<pdfrwt beam="1">  1        4 0.36300865E-02 0.12499968E+03</pdfrwt>
<pdfrwt beam="2">  1       -4 0.25469132E-01 0.12499968E+03</pdfrwt>
<totfact> 0.91996965E+03</totfact>
</mgrwt>
</event>
<event>
 5    1  0.3317939E-002  0.1250063E+03  0.7818608E-02  0.1235059E+00
         -4   -1    0    0    0  501 -0.00000000000E+00  0.00000000000E+00  0.72920811406E+01  0.74018475640E+01  0.12700000000E+01 0.  1.
          4   -1    0    0  501    0  0.00000000000E+00 -0.00000000000E+00 -0.53162562451E+03  0.53162714146E+03  0.12700000000E+01 0.  1.
         25    2    1    2    0    0  0.00000000000E+00  0.00000000000E+00 -0.52433354337E+03  0.53902898902E+03  0.12500634506E+03 0.  0.
    9000005    1    3    3    0    0 -0.49485713897E+02 -0.19072997211E+02 -0.40472634884E+03  0.40818749681E+03  0.10000000000E+01 0.  0.
    9000005    1    3    3    0    0  0.49485713897E+02  0.19072997211E+02 -0.11960719452E+03  0.13084149221E+03  0.10000000000E+01 0.  0.
<mgrwt>
<rscale>  0 0.12500635E+03</rscale>
<asrwt>0</asrwt>
<pdfrwt beam="2">  1        4 0.81797087E-01 0.12500635E+03</pdfrwt>
<pdfrwt beam="1">  1       -4 0.11304193E-02 0.12500635E+03</pdfrwt>
<totfact> 0.52951085E+03</totfact>
</mgrwt>
</event>
<event>
 5    1  0.3317939E-002  0.1249962E+03  0.7818608E-02  0.1235075E+00
         -4   -1    0    0    0  501 -0.00000000000E+00  0.00000000000E+00  0.21796431258E+02  0.21833399085E+02  0.12700000000E+01 0. -1.
          4   -1    0    0  501    0  0.00000000000E+00 -0.00000000000E+00 -0.17901320679E+03  0.17901771171E+03  0.12700000000E+01 0. -1.
         25    2    1    2    0    0  0.00000000000E+00  0.00000000000E+00 -0.15721677554E+03  0.20085111080E+03  0.12499621674E+03 0.  0.
    9000005    1    3    3    0    0 -0.40974296905E+02  0.46101555389E+02 -0.62478296617E+02  0.87799680890E+02  0.10000000000E+01 0.  0.
    9000005    1    3    3    0    0  0.40974296905E+02 -0.46101555389E+02 -0.94738478919E+02  0.11305142991E+03  0.10000000000E+01 0.  0.
<mgrwt>
<rscale>  0 0.12499622E+03</rscale>
<asrwt>0</asrwt>
<pdfrwt beam="2">  1        4 0.27543683E-01 0.12499622E+03</pdfrwt>
<pdfrwt beam="1">  1       -4 0.33564874E-02 0.12499622E+03</pdfrwt>
<totfact> 0.89999777E+03</totfact>
</mgrwt>
</event>
<event>
 5    1  0.3317939E-002  0.1249975E+03  0.7818608E-02  0.1235073E+00
          4   -1    0    0  501    0  0.00000000000E+00  0.00000000000E+00  0.25695911018E+02  0.25727276247E+02  0.12700000000E+01 0.  1.
         -4   -1    0    0    0  501 -0.00000000000E+00 -0.00000000000E+00 -0.15188546063E+03  0.15189077013E+03  0.12700000000E+01 0.  1.
         25    2    1    2    0    0  0.00000000000E+00  0.00000000000E+00 -0.12618954961E+03  0.17761804637E+03  0.12499747184E+03 0.  0.
    9000005    1    3    3    0    0 -0.52384989859E+02 -0.10583347998E+02 -0.17074161692E+02  0.56113469104E+02  0.10000000000E+01 0.  0.
    9000005    1    3    3    0    0  0.52384989859E+02  0.10583347998E+02 -0.10911538792E+03  0.12150457727E+03  0.10000000000E+01 0.  0.
<mgrwt>
<rscale>  0 0.12499747E+03</rscale>
<asrwt>0</asrwt>
<pdfrwt beam="1">  1        4 0.39560383E-02 0.12499747E+03</pdfrwt>
<pdfrwt beam="2">  1       -4 0.23369815E-01 0.12499747E+03</pdfrwt>
<totfact> 0.94052861E+03</totfact>
</mgrwt>
</event>
<event>
 5    1  0.3317939E-002  0.1249989E+03  0.7818608E-02  0.1235071E+00
          4   -1    0    0  501    0  0.00000000000E+00  0.00000000000E+00  0.13315093144E+02  0.13375522623E+02  0.12700000000E+01 0.  1.
         -4   -1    0    0    0  501 -0.00000000000E+00 -0.00000000000E+00 -0.29263878198E+03  0.29264153776E+03  0.12700000000E+01 0.  1.
         25    2    1    2    0    0  0.00000000000E+00  0.00000000000E+00 -0.27932368884E+03  0.30601706038E+03  0.12499887238E+03 0.  0.
    9000005    1    3    3    0    0 -0.45731833311E+02  0.41885292225E+01 -0.24341973680E+03  0.24771579000E+03  0.10000000000E+01 0.  0.
    9000005    1    3    3    0    0  0.45731833311E+02 -0.41885292225E+01 -0.35903952041E+02  0.58301270374E+02  0.10000000000E+01 0.  0.
<mgrwt>
<rscale>  0 0.12499887E+03</rscale>
<asrwt>0</asrwt>
<pdfrwt beam="1">  1        4 0.20533365E-02 0.12499887E+03</pdfrwt>
<pdfrwt beam="2">  1       -4 0.45026207E-01 0.12499887E+03</pdfrwt>
<totfact> 0.74852091E+03</totfact>
</mgrwt>
</event>
<event>
 5    1  0.3317939E-002  0.1250019E+03  0.7818608E-02  0.1235066E+00
          4   -1    0    0  501    0  0.00000000000E+00  0.00000000000E+00  0.43908631742E+02  0.43926994450E+02  0.12700000000E+01 0. -1.
         -4   -1    0    0    0  501 -0.00000000000E+00 -0.00000000000E+00 -0.88924327647E+02  0.88933396131E+02  0.12700000000E+01 0. -1.
         25    2    1    2    0    0  0.00000000000E+00  0.00000000000E+00 -0.45015695905E+02  0.13286039058E+03  0.12500188202E+03 0.  0.
    9000005    1    3    3    0    0  0.58633268141E+02  0.21240416625E+02 -0.18209842022E+02  0.64973946915E+02  0.10000000000E+01 0.  0.
    9000005    1    3    3    0    0 -0.58633268141E+02 -0.21240416625E+02 -0.26805853883E+02  0.67886443666E+02  0.10000000000E+01 0.  0.
<mgrwt>
<rscale>  0 0.12500188E+03</rscale>
<asrwt>0</asrwt>
<pdfrwt beam="1">  1        4 0.67572842E-02 0.12500188E+03</pdfrwt>
<pdfrwt beam="2">  1       -4 0.13682776E-01 0.12500188E+03</pdfrwt>
<totfact> 0.10282931E+04</totfact>
</mgrwt>
</event>
<event>
 5    1  0.3317939E-002  0.1249997E+03  0.7818608E-02  0.1235070E+00
          4   -1    0    0  501    0  0.00000000000E+00  0.00000000000E+00  0.15813014151E+03  0.15813524134E+03  0.12700000000E+01 0. -1.
         -4   -1    0    0    0  501 -0.00000000000E+00 -0.00000000000E+00 -0.24680798364E+02  0.24713451962E+02  0.12700000000E+01 0. -1.
         25    2    1    2    0    0  0.00000000000E+00  0.00000000000E+00  0.13344934315E+03  0.18284869331E+03  0.12499966983E+03 0.  0.
    9000005    1    3    3    0    0  0.94578661101E+01  0.61305925477E+02  0.77803497865E+02  0.99510059843E+02  0.10000000000E+01 0.  0.
    9000005    1    3    3    0    0 -0.94578661101E+01 -0.61305925477E+02  0.55645845284E+02  0.83338633462E+02  0.10000000000E+01 0.  0.
<mgrwt>
<rscale>  0 0.12499967E+03</rscale>
<asrwt>0</asrwt>
<pdfrwt beam="1">  1        4 0.24330618E-01 0.12499967E+03</pdfrwt>
<pdfrwt beam="2">  1       -4 0.37999500E-02 0.12499967E+03</pdfrwt>
<totfact> 0.93107416E+03</totfact>
</mgrwt>
</event>
<event>
 5    1  0.3317939E-002  0.1250008E+03  0.7818608E-02  0.1235068E+00
          4   -1    0    0  501    0  0.00000000000E+00  0.00000000000E+00  0.37289953013E+03  0.37290169277E+03  0.12700000000E+01 0.  1.
         -4   -1    0    0    0  501 -0.00000000000E+00 -0.00000000000E+00 -0.10434788684E+02  0.10511789328E+02  0.12700000000E+01 0.  1.
         25    2    1    2    0    0  0.00000000000E+00  0.00000000000E+00  0.36246474144E+03  0.38341348209E+03  0.12500083785E+03 0.  0.
    9000005    1    3    3    0    0  0.53775667245E+02  0.31804297656E+02  0.17693091288E+03  0.18764030396E+03  0.10000000000E+01 0.  0.
    9000005    1    3    3    0    0 -0.53775667245E+02 -0.31804297656E+02  0.18553382856E+03  0.19577317814E+03  0.10000000000E+01 0.  0.
<mgrwt>
<rscale>  0 0.12500084E+03</rscale>
<asrwt>0</asrwt>
<pdfrwt beam="1">  1        4 0.57375234E-01 0.12500084E+03</pdfrwt>
<pdfrwt beam="2">  1       -4 0.16114420E-02 0.12500084E+03</pdfrwt>
<totfact> 0.66197371E+03</totfact>
</mgrwt>
</event>
<event>
 5    1  0.3317939E-002  0.1250037E+03  0.7818608E-02  0.1235064E+00
          4   -1    0    0  501    0  0.00000000000E+00  0.00000000000E+00  0.43824426756E+02  0.43842824732E+02  0.12700000000E+01 0. -1.
         -4   -1    0    0    0  501 -0.00000000000E+00 -0.00000000000E+00 -0.89097693643E+02  0.89106744484E+02  0.12700000000E+01 0. -1.
         25    2    1    2    0    0  0.00000000000E+00  0.00000000000E+00 -0.45273266887E+02  0.13294956922E+03  0.12500367699E+03 0.  0.
    9000005    1    3    3    0    0  0.19564882564E+02 -0.57937750469E+02 -0.36336091301E+02  0.71139855848E+02  0.10000000000E+01 0.  0.
    9000005    1    3    3    0    0 -0.19564882564E+02  0.57937750469E+02 -0.89371755865E+01  0.61809713368E+02  0.10000000000E+01 0.  0.
<mgrwt>
<rscale>  0 0.12500368E+03</rscale>
<asrwt>0</asrwt>
<pdfrwt beam="1">  1        4 0.67443310E-02 0.12500368E+03</pdfrwt>
<pdfrwt beam="2">  1       -4 0.13709449E-01 0.12500368E+03</pdfrwt>
<totfact> 0.10280619E+04</totfact>
</mgrwt>
</event>
<event>
 5    1  0.3317939E-002  0.1250019E+03  0.7818608E-02  0.1235066E+00
         -4   -1    0    0    0  501 -0.00000000000E+00  0.00000000000E+00  0.12262994841E+03  0.12263652452E+03  0.12700000000E+01 0.  1.
          4   -1    0    0  501    0  0.00000000000E+00 -0.00000000000E+00 -0.31834823586E+02  0.31860145837E+02  0.12700000000E+01 0.  1.
         25    2    1    2    0    0  0.00000000000E+00  0.00000000000E+00  0.90795124820E+02  0.15449667036E+03  0.12500186583E+03 0.  0.
    9000005    1    3    3    0    0  0.16177912411E+02  0.59298956889E+02  0.59341164962E+02  0.85442758599E+02  0.10000000000E+01 0.  0.
    9000005    1    3    3    0    0 -0.16177912411E+02 -0.59298956889E+02  0.31453959858E+02  0.69053911756E+02  0.10000000000E+01 0.  0.
<mgrwt>
<rscale>  0 0.12500187E+03</rscale>
<asrwt>0</asrwt>
<pdfrwt beam="2">  1        4 0.49001190E-02 0.12500187E+03</pdfrwt>
<pdfrwt beam="1">  1       -4 0.18868599E-01 0.12500187E+03</pdfrwt>
<totfact> 0.98410270E+03</totfact>
</mgrwt>
</event>
<event>
 5    1  0.3317939E-002  0.1249965E+03  0.7818608E-02  0.1235075E+00
         -4   -1    0    0    0  501 -0.00000000000E+00  0.00000000000E+00  0.13185566285E+02  0.13246586664E+02  0.12700000000E+01 0.  1.
          4   -1    0    0  501    0  0.00000000000E+00 -0.00000000000E+00 -0.29548901286E+03  0.29549174206E+03  0.12700000000E+01 0.  1.
         25    2    1    2    0    0  0.00000000000E+00  0.00000000000E+00 -0.28230344658E+03  0.30873832872E+03  0.12499647863E+03 0.  0.
    9000005    1    3    3    0    0 -0.44203310640E+02  0.43963168518E+02 -0.13057484220E+03  0.14469790003E+03  0.10000000000E+01 0.  0.
    9000005    1    3    3    0    0  0.44203310640E+02 -0.43963168518E+02 -0.15172860438E+03  0.16404042869E+03  0.10000000000E+01 0.  0.
<mgrwt>
<rscale>  0 0.12499648E+03</rscale>
<asrwt>0</asrwt>
<pdfrwt beam="2">  1        4 0.45464747E-01 0.12499648E+03</pdfrwt>
<pdfrwt beam="1">  1       -4 0.20334527E-02 0.12499648E+03</pdfrwt>
<totfact> 0.74521456E+03</totfact>
</mgrwt>
</event>
<event>
 5    1  0.3317939E-002  0.1250086E+03  0.7818608E-02  0.1235056E+00
         -4   -1    0    0    0  501 -0.00000000000E+00  0.00000000000E+00  0.75944855407E+01  0.76999422483E+01  0.12700000000E+01 0.  1.
          4   -1    0    0  501    0  0.00000000000E+00 -0.00000000000E+00 -0.51077079460E+03  0.51077237348E+03  0.12700000000E+01 0.  1.
         25    2    1    2    0    0  0.00000000000E+00  0.00000000000E+00 -0.50317630905E+03  0.51847231573E+03  0.12500857644E+03 0.  0.
    9000005    1    3    3    0    0 -0.50639401540E+02  0.10486129273E+02 -0.39713376687E+03  0.40048787333E+03  0.10000000000E+01 0.  0.
    9000005    1    3    3    0    0  0.50639401540E+02 -0.10486129273E+02 -0.10604254219E+03  0.11798444240E+03  0.10000000000E+01 0.  0.
<mgrwt>
<rscale>  0 0.12500858E+03</rscale>
<asrwt>0</asrwt>
<pdfrwt beam="2">  1        4 0.78588329E-01 0.12500858E+03</pdfrwt>
<pdfrwt beam="1">  1       -4 0.11766163E-02 0.12500858E+03</pdfrwt>
<totfact> 0.54448844E+03</totfact>
</mgrwt>
</event>
<event>
 5    1  0.3317939E-002  0.1249891E+03  0.7818608E-02  0.1235086E+00
         -4   -1    0    0    0  501 -0.00000000000E+00  0.00000000000E+00  0.85065610263E+01  0.86008418480E+01  0.12700000000E+01 0. -1.
          4   -1    0    0  501    0  0.00000000000E+00 -0.00000000000E+00 -0.45649887917E+03  0.45650064576E+03  0.12700000000E+01 0. -1.
         25    2    1    2    0    0  0.00000000000E+00  0.00000000000E+00 -0.44799231814E+03  0.46510148761E+03  0.12498910618E+03 0.  0.
    9000005    1    3    3    0    0 -0.70997974805E+01  0.61990847475E+02 -0.23650320226E+03  0.24459770435E+03  0.10000000000E+01 0.  0.
    9000005    1    3    3    0    0  0.70997974805E+01 -0.61990847475E+02 -0.21148911588E+03  0.22050378326E+03  0.10000000000E+01 0.  0.
<mgrwt>
<rscale>  0 0.12498911E+03</rscale>
<asrwt>0</asrwt>
<pdfrwt beam="2">  1        4 0.70237966E-01 0.12498911E+03</pdfrwt>
<pdfrwt beam="1">  1       -4 0.13160903E-02 0.12498911E+03</pdfrwt>
<totfact> 0.58691602E+03</totfact>
</mgrwt>
</event>
<event>
 5    1  0.3317939E-002  0.1250009E+03  0.7818608E-02  0.1235068E+00
          4   -1    0    0  501    0  0.00000000000E+00  0.00000000000E+00  0.85730672057E+02  0.85740078326E+02  0.12700000000E+01 0. -1.
         -4   -1    0    0    0  501 -0.00000000000E+00 -0.00000000000E+00 -0.45544129145E+02  0.45561832706E+02  0.12700000000E+01 0. -1.
         25    2    1    2    0    0  0.00000000000E+00  0.00000000000E+00  0.40186542912E+02  0.13130191103E+03  0.12500093443E+03 0.  0.
    9000005    1    3    3    0    0 -0.35525346549E+02  0.49323895006E+02  0.35330029155E+02  0.70314350072E+02  0.10000000000E+01 0.  0.
    9000005    1    3    3    0    0  0.35525346549E+02 -0.49323895006E+02  0.48565137570E+01  0.60987560960E+02  0.10000000000E+01 0.  0.
<mgrwt>
<rscale>  0 0.12500093E+03</rscale>
<asrwt>0</asrwt>
<pdfrwt beam="1">  1        4 0.13191419E-01 0.12500093E+03</pdfrwt>
<pdfrwt beam="2">  1       -4 0.70088745E-02 0.12500093E+03</pdfrwt>
<totfact> 0.10316404E+04</totfact>
</mgrwt>
</event>
<event>
 5    1  0.3317939E-002  0.1249984E+03  0.7818608E-02  0.1235072E+00
          4   -1    0    0  501    0  0.00000000000E+00  0.00000000000E+00  0.55151552650E+02  0.55166173147E+02  0.12700000000E+01 0. -1.
         -4   -1    0    0    0  501 -0.00000000000E+00 -0.00000000000E+00 -0.70796043799E+02  0.70807434056E+02  0.12700000000E+01 0. -1.
         25    2    1    2    0    0  0.00000000000E+00  0.00000000000E+00 -0.15644491150E+02  0.12597360720E+03  0.12499839842E+03 0.  0.
    9000005    1    3    3    0    0 -0.37606724255E+02 -0.12286083140E+02 -0.56572528362E+02  0.69041034996E+02  0.10000000000E+01 0.  0.
    9000005    1    3    3    0    0  0.37606724255E+02  0.12286083140E+02  0.40928037212E+02  0.56932572207E+02  0.10000000000E+01 0.  0.
<mgrwt>
<rscale>  0 0.12499840E+03</rscale>
<asrwt>0</asrwt>
<pdfrwt beam="1">  1        4 0.84868551E-02 0.12499840E+03</pdfrwt>
<pdfrwt beam="2">  1       -4 0.10893700E-01 0.12499840E+03</pdfrwt>
<totfact> 0.10431912E+04</totfact>
</mgrwt>
</event>
<event>
 5    1  0.3317939E-002  0.1250018E+03  0.7818608E-02  0.1235066E+00
         -4   -1    0    0    0  501 -0.00000000000E+00  0.00000000000E+00  0.17178682901E+03  0.17179152343E+03  0.12700000000E+01 0.  1.
          4   -1    0    0  501    0  0.00000000000E+00 -0.00000000000E+00 -0.22716863260E+02  0.22752335624E+02  0.12700000000E+01 0.  1.
         25    2    1    2    0    0  0.00000000000E+00  0.00000000000E+00  0.14906996575E+03  0.19454385905E+03  0.12500183361E+03 0.  0.
    9000005    1    3    3    0    0 -0.50816594281E+02 -0.35910159504E+02  0.83542720198E+02  0.10417414222E+03  0.10000000000E+01 0.  0.
    9000005    1    3    3    0    0  0.50816594281E+02  0.35910159504E+02  0.65527245554E+02  0.90369716829E+02  0.10000000000E+01 0.  0.
<mgrwt>
<rscale>  0 0.12500183E+03</rscale>
<asrwt>0</asrwt>
<pdfrwt beam="2">  1        4 0.34979919E-02 0.12500183E+03</pdfrwt>
<pdfrwt beam="1">  1       -4 0.26431832E-01 0.12500183E+03</pdfrwt>
<totfact> 0.91058916E+03</totfact>
</mgrwt>
</event>
<event>
 5    1  0.3317939E-002  0.1250022E+03  0.7818608E-02  0.1235066E+00
         -4   -1    0    0    0  501 -0.00000000000E+00  0.00000000000E+00  0.57510564883E+02  0.57524585815E+02  0.12700000000E+01 0.  1.
          4   -1    0    0  501    0  0.00000000000E+00 -0.00000000000E+00 -0.67896467054E+02  0.67908343658E+02  0.12700000000E+01 0.  1.
         25    2    1    2    0    0  0.00000000000E+00  0.00000000000E+00 -0.10385902170E+02  0.12543292947E+03  0.12500221131E+03 0.  0.
    9000005    1    3    3    0    0 -0.63151125137E+00  0.48208968580E+02  0.34704391924E+02  0.59412947047E+02  0.10000000000E+01 0.  0.
    9000005    1    3    3    0    0  0.63151125137E+00 -0.48208968580E+02 -0.45090294095E+02  0.66019982426E+02  0.10000000000E+01 0.  0.
<mgrwt>
<rscale>  0 0.12500221E+03</rscale>
<asrwt>0</asrwt>
<pdfrwt beam="2">  1        4 0.10447602E-01 0.12500221E+03</pdfrwt>
<pdfrwt beam="1">  1       -4 0.88497713E-02 0.12500221E+03</pdfrwt>
<totfact> 0.10442917E+04</totfact>
</mgrwt>
</event>
<event>
 5    1  0.3317939E-002  0.1250186E+03  0.7818608E-02  0.1235040E+00
          4   -1    0    0  501    0  0.00000000000E+00  0.00000000000E+00  0.88445584521E+01  0.89352735947E+01  0.12700000000E+01 0.  1.
         -4   -1    0    0    0  501 -0.00000000000E+00 -0.00000000000E+00 -0.43944175780E+03  0.43944359296E+03  0.12700000000E+01 0.  1.
         25    2    1    2    0    0  0.00000000000E+00  0.00000000000E+00 -0.43059719935E+03  0.44837886656E+03  0.12501863818E+03 0.  0.
    9000005    1    3    3    0    0 -0.43877303037E+02  0.20796270465E+02 -0.35644043381E+03  0.35973390922E+03  0.10000000000E+01 0.  0.
    9000005    1    3    3    0    0  0.43877303037E+02 -0.20796270465E+02 -0.74156765537E+02  0.88644957341E+02  0.10000000000E+01 0.  0.
<mgrwt>
<rscale>  0 0.12501864E+03</rscale>
<asrwt>0</asrwt>
<pdfrwt beam="1">  1        4 0.13678209E-02 0.12501864E+03</pdfrwt>
<pdfrwt beam="2">  1       -4 0.67613526E-01 0.12501864E+03</pdfrwt>
<totfact> 0.60079828E+03</totfact>
</mgrwt>
</event>
<event>
 5    1  0.3317939E-002  0.1250122E+03  0.7818608E-02  0.1235050E+00
         -4   -1    0    0    0  501 -0.00000000000E+00  0.00000000000E+00  0.22639370128E+02  0.22674963722E+02  0.12700000000E+01 0.  1.
          4   -1    0    0  501    0  0.00000000000E+00 -0.00000000000E+00 -0.17240265696E+03  0.17240733460E+03  0.12700000000E+01 0.  1.
         25    2    1    2    0    0  0.00000000000E+00  0.00000000000E+00 -0.14976328683E+03  0.19508229833E+03  0.12501224356E+03 0.  0.
    9000005    1    3    3    0    0 -0.23002219902E+02  0.57658775664E+02 -0.86175513531E+02  0.10621137257E+03  0.10000000000E+01 0.  0.
    9000005    1    3    3    0    0  0.23002219902E+02 -0.57658775664E+02 -0.63587773297E+02  0.88870925754E+02  0.10000000000E+01 0.  0.
<mgrwt>
<rscale>  0 0.12501224E+03</rscale>
<asrwt>0</asrwt>
<pdfrwt beam="2">  1        4 0.26526583E-01 0.12501224E+03</pdfrwt>
<pdfrwt beam="1">  1       -4 0.34860779E-02 0.12501224E+03</pdfrwt>
<totfact> 0.90945522E+03</totfact>
</mgrwt>
</event>
<event>
 5    1  0.3317939E-002  0.1249996E+03  0.7818608E-02  0.1235070E+00
          4   -1    0    0  501    0  0.00000000000E+00  0.00000000000E+00  0.44729101333E+02  0.44747127350E+02  0.12700000000E+01 0.  1.
         -4   -1    0    0    0  501 -0.00000000000E+00 -0.00000000000E+00 -0.87290489673E+02  0.87299727877E+02  0.12700000000E+01 0.  1.
         25    2    1    2    0    0  0.00000000000E+00  0.00000000000E+00 -0.42561388340E+02  0.13204685523E+03  0.12499960079E+03 0.  0.
    9000005    1    3    3    0    0  0.57553820231E+02 -0.23476501207E+02 -0.28097135140E+02  0.68220505239E+02  0.10000000000E+01 0.  0.
    9000005    1    3    3    0    0 -0.57553820231E+02  0.23476501207E+02 -0.14464253200E+02  0.63826349987E+02  0.10000000000E+01 0.  0.
<mgrwt>
<rscale>  0 0.12499960E+03</rscale>
<asrwt>0</asrwt>
<pdfrwt beam="1">  1        4 0.68834975E-02 0.12499960E+03</pdfrwt>
<pdfrwt beam="2">  1       -4 0.13431403E-01 0.12499960E+03</pdfrwt>
<totfact> 0.10300791E+04</totfact>
</mgrwt>
</event>
<event>
 5    1  0.3317939E-002  0.1249998E+03  0.7818608E-02  0.1235070E+00
         -4   -1    0    0    0  501 -0.00000000000E+00  0.00000000000E+00  0.62007792813E+02  0.62020797073E+02  0.12700000000E+01 0. -1.
          4   -1    0    0  501    0  0.00000000000E+00 -0.00000000000E+00 -0.62969949638E+02  0.62982755238E+02  0.12700000000E+01 0. -1.
         25    2    1    2    0    0  0.00000000000E+00  0.00000000000E+00 -0.96215682501E+00  0.12500355231E+03  0.12499984938E+03 0.  0.
    9000005    1    3    3    0    0 -0.60457230602E+02 -0.33257946697E+01  0.14982333574E+02  0.62382753719E+02  0.10000000000E+01 0.  0.
    9000005    1    3    3    0    0  0.60457230602E+02  0.33257946697E+01 -0.15944490399E+02  0.62620798592E+02  0.10000000000E+01 0.  0.
<mgrwt>
<rscale>  0 0.12499985E+03</rscale>
<asrwt>0</asrwt>
<pdfrwt beam="2">  1        4 0.96896700E-02 0.12499985E+03</pdfrwt>
<pdfrwt beam="1">  1       -4 0.95416458E-02 0.12499985E+03</pdfrwt>
<totfact> 0.10452821E+04</totfact>
</mgrwt>
</event>
<event>
 5    1  0.3317939E-002  0.1250292E+03  0.7818608E-02  0.1235024E+00
          4   -1    0    0  501    0  0.00000000000E+00  0.00000000000E+00  0.33763093369E+03  0.33763332224E+03  0.12700000000E+01 0. -1.
         -4   -1    0    0    0  501 -0.00000000000E+00 -0.00000000000E+00 -0.11537715170E+02  0.11607401575E+02  0.12700000000E+01 0. -1.
         25    2    1    2    0    0  0.00000000000E+00  0.00000000000E+00  0.32609321852E+03  0.34924072381E+03  0.12502918061E+03 0.  0.
    9000005    1    3    3    0    0 -0.30975125144E+02  0.38036911996E+02  0.27125880265E+03  0.27566030375E+03  0.10000000000E+01 0.  0.
    9000005    1    3    3    0    0  0.30975125144E+02 -0.38036911996E+02  0.54834415874E+02  0.73580420060E+02  0.10000000000E+01 0.  0.
<mgrwt>
<rscale>  0 0.12502918E+03</rscale>
<asrwt>0</asrwt>
<pdfrwt beam="1">  1        4 0.51948759E-01 0.12502918E+03</pdfrwt>
<pdfrwt beam="2">  1       -4 0.17805775E-02 0.12502918E+03</pdfrwt>
<totfact> 0.69763105E+03</totfact>
</mgrwt>
</event>
<event>
 5    1  0.3317939E-002  0.1249998E+03  0.7818608E-02  0.1235070E+00
         -4   -1    0    0    0  501 -0.00000000000E+00  0.00000000000E+00  0.84037124163E+02  0.84046719969E+02  0.12700000000E+01 0.  1.
          4   -1    0    0  501    0  0.00000000000E+00 -0.00000000000E+00 -0.46461322162E+02  0.46478676369E+02  0.12700000000E+01 0.  1.
         25    2    1    2    0    0  0.00000000000E+00  0.00000000000E+00  0.37575802001E+02  0.13052539634E+03  0.12499975277E+03 0.  0.
    9000005    1    3    3    0    0  0.20692494965E+02 -0.32245141762E+02  0.70339352547E+02  0.80103389640E+02  0.10000000000E+01 0.  0.
    9000005    1    3    3    0    0 -0.20692494965E+02  0.32245141762E+02 -0.32763550546E+02  0.50422006698E+02  0.10000000000E+01 0.  0.
<mgrwt>
<rscale>  0 0.12499975E+03</rscale>
<asrwt>0</asrwt>
<pdfrwt beam="2">  1        4 0.71499689E-02 0.12499975E+03</pdfrwt>
<pdfrwt beam="1">  1       -4 0.12930861E-01 0.12499975E+03</pdfrwt>
<totfact> 0.10333332E+04</totfact>
</mgrwt>
</event>
<event>
 5    1  0.3317939E-002  0.1249995E+03  0.7818608E-02  0.1235070E+00
          4   -1    0    0  501    0  0.00000000000E+00  0.00000000000E+00  0.50474051257E+03  0.50474211032E+03  0.12700000000E+01 0.  1.
         -4   -1    0    0    0  501 -0.00000000000E+00 -0.00000000000E+00 -0.76853378929E+01  0.77895647201E+01  0.12700000000E+01 0.  1.
         25    2    1    2    0    0  0.00000000000E+00  0.00000000000E+00  0.49705517468E+03  0.51253167504E+03  0.12499948498E+03 0.  0.
    9000005    1    3    3    0    0  0.34276935349E+02 -0.51880767807E+02  0.27403359091E+03  0.28100165713E+03  0.10000000000E+01 0.  0.
    9000005    1    3    3    0    0 -0.34276935349E+02  0.51880767807E+02  0.22302158378E+03  0.23153001791E+03  0.10000000000E+01 0.  0.
<mgrwt>
<rscale>  0 0.12499948E+03</rscale>
<asrwt>0</asrwt>
<pdfrwt beam="1">  1        4 0.77660538E-01 0.12499948E+03</pdfrwt>
<pdfrwt beam="2">  1       -4 0.11904999E-02 0.12499948E+03</pdfrwt>
<totfact> 0.54905620E+03</totfact>
</mgrwt>
</event>
<event>
 5    1  0.3317939E-002  0.1250040E+03  0.7818608E-02  0.1235063E+00
         -4   -1    0    0    0  501 -0.00000000000E+00  0.00000000000E+00  0.36567778475E+02  0.36589825398E+02  0.12700000000E+01 0. -1.
          4   -1    0    0  501    0  0.00000000000E+00 -0.00000000000E+00 -0.10677098966E+03  0.10677854248E+03  0.12700000000E+01 0. -1.
         25    2    1    2    0    0  0.00000000000E+00  0.00000000000E+00 -0.70203211189E+02  0.14336836788E+03  0.12500399212E+03 0.  0.
    9000005    1    3    3    0    0  0.37882203836E+02  0.16437254839E+02 -0.88899582812E+02  0.98027447882E+02  0.10000000000E+01 0.  0.
    9000005    1    3    3    0    0 -0.37882203836E+02 -0.16437254839E+02  0.18696371623E+02  0.45340919995E+02  0.10000000000E+01 0.  0.
<mgrwt>
<rscale>  0 0.12500399E+03</rscale>
<asrwt>0</asrwt>
<pdfrwt beam="2">  1        4 0.16428583E-01 0.12500399E+03</pdfrwt>
<pdfrwt beam="1">  1       -4 0.56280890E-02 0.12500399E+03</pdfrwt>
<totfact> 0.10063341E+04</totfact>
</mgrwt>
</event>
<event>
 5    1  0.3317939E-002  0.1250016E+03  0.7818608E-02  0.1235067E+00
          4   -1    0    0  501    0  0.00000000000E+00  0.00000000000E+00  0.25441148493E+01  0.28434873600E+01  0.12700000000E+01 0. -1.
         -4   -1    0    0    0  501 -0.00000000000E+00 -0.00000000000E+00 -0.14498259306E+04  0.14498264868E+04  0.12700000000E+01 0. -1.
         25    2    1    2    0    0  0.00000000000E+00  0.00000000000E+00 -0.14472818157E+04  0.14526699742E+04  0.12500159894E+03 0.  0.
    9000005    1    3    3    0    0 -0.32472947230E+02  0.61599468987E+01 -0.10728790293E+03  0.11226812265E+03  0.10000000000E+01 0.  0.
    9000005    1    3    3    0    0  0.32472947230E+02 -0.61599468987E+01 -0.13399939128E+04  0.13404018515E+04  0.10000000000E+01 0.  0.
<mgrwt>
<rscale>  0 0.12500160E+03</rscale>
<asrwt>0</asrwt>
<pdfrwt beam="1">  1        4 0.41447489E-03 0.12500160E+03</pdfrwt>
<pdfrwt beam="2">  1       -4 0.22307259E+00 0.12500160E+03</pdfrwt>
<totfact> 0.18877535E+03</totfact>
</mgrwt>
</event>
<event>
 5    1  0.3317939E-002  0.1249988E+03  0.7818608E-02  0.1235071E+00
         -4   -1    0    0    0  501 -0.00000000000E+00  0.00000000000E+00  0.50246075414E+02  0.50262122862E+02  0.12700000000E+01 0. -1.
          4   -1    0    0  501    0  0.00000000000E+00 -0.00000000000E+00 -0.77707270261E+02  0.77717647619E+02  0.12700000000E+01 0. -1.
         25    2    1    2    0    0  0.00000000000E+00  0.00000000000E+00 -0.27461194847E+02  0.12797977048E+03  0.12499881771E+03 0.  0.
    9000005    1    3    3    0    0 -0.60282695437E+02  0.10173138309E+02 -0.26988537391E+02  0.66834701037E+02  0.10000000000E+01 0.  0.
    9000005    1    3    3    0    0  0.60282695437E+02 -0.10173138309E+02 -0.47265745585E+00  0.61145069444E+02  0.10000000000E+01 0.  0.
<mgrwt>
<rscale>  0 0.12499882E+03</rscale>
<asrwt>0</asrwt>
<pdfrwt beam="2">  1        4 0.11956997E-01 0.12499882E+03</pdfrwt>
<pdfrwt beam="1">  1       -4 0.77321981E-02 0.12499882E+03</pdfrwt>
<totfact> 0.10388202E+04</totfact>
</mgrwt>
</event>
<event>
 5    1  0.3317939E-002  0.1250021E+03  0.7818608E-02  0.1235066E+00
         -4   -1    0    0    0  501 -0.00000000000E+00  0.00000000000E+00  0.32551265616E+03  0.32551513363E+03  0.12700000000E+01 0.  1.
          4   -1    0    0  501    0  0.00000000000E+00 -0.00000000000E+00 -0.11964583256E+02  0.12031797559E+02  0.12700000000E+01 0.  1.
         25    2    1    2    0    0  0.00000000000E+00  0.00000000000E+00  0.31354807290E+03  0.33754693119E+03  0.12500214691E+03 0.  0.
    9000005    1    3    3    0    0 -0.44445558233E+02  0.43247781189E+02  0.13592617416E+03  0.14940784132E+03  0.10000000000E+01 0.  0.
    9000005    1    3    3    0    0  0.44445558233E+02 -0.43247781189E+02  0.17762189874E+03  0.18813908987E+03  0.10000000000E+01 0.  0.
<mgrwt>
<rscale>  0 0.12500215E+03</rscale>
<asrwt>0</asrwt>
<pdfrwt beam="2">  1        4 0.18460663E-02 0.12500215E+03</pdfrwt>
<pdfrwt beam="1">  1       -4 0.50084224E-01 0.12500215E+03</pdfrwt>
<totfact> 0.71113251E+03</totfact>
</mgrwt>
</event>
<event>
 5    1  0.3317939E-002  0.1250046E+03  0.7818608E-02  0.1235062E+00
         -4   -1    0    0    0  501 -0.00000000000E+00  0.00000000000E+00  0.71473398403E+01  0.72592951995E+01  0.12700000000E+01 0.  1.
          4   -1    0    0  501    0  0.00000000000E+00 -0.00000000000E+00 -0.54221167043E+03  0.54221315776E+03  0.12700000000E+01 0.  1.
         25    2    1    2    0    0  0.00000000000E+00  0.00000000000E+00 -0.53506433059E+03  0.54947245296E+03  0.12500455469E+03 0.  0.
    9000005    1    3    3    0    0  0.49113406369E+02 -0.38632793691E+02 -0.26332695609E+03  0.27064128517E+03  0.10000000000E+01 0.  0.
    9000005    1    3    3    0    0 -0.49113406369E+02  0.38632793691E+02 -0.27173737449E+03  0.27883116779E+03  0.10000000000E+01 0.  0.
<mgrwt>
<rscale>  0 0.12500455E+03</rscale>
<asrwt>0</asrwt>
<pdfrwt beam="2">  1        4 0.83425875E-01 0.12500455E+03</pdfrwt>
<pdfrwt beam="1">  1       -4 0.11083175E-02 0.12500455E+03</pdfrwt>
<totfact> 0.52215511E+03</totfact>
</mgrwt>
</event>
<event>
 5    1  0.3317939E-002  0.1250071E+03  0.7818608E-02  0.1235058E+00
          4   -1    0    0  501    0  0.00000000000E+00  0.00000000000E+00  0.45130366641E+02  0.45148232447E+02  0.12700000000E+01 0.  1.
         -4   -1    0    0    0  501 -0.00000000000E+00 -0.00000000000E+00 -0.86524921419E+02  0.86534241353E+02  0.12700000000E+01 0.  1.
         25    2    1    2    0    0  0.00000000000E+00  0.00000000000E+00 -0.41394554778E+02  0.13168247380E+03  0.12500705876E+03 0.  0.
    9000005    1    3    3    0    0 -0.21553830807E+02  0.25008500714E+02  0.35199466620E+02  0.48270023625E+02  0.10000000000E+01 0.  0.
    9000005    1    3    3    0    0  0.21553830807E+02 -0.25008500714E+02 -0.76594021398E+02  0.83412450176E+02  0.10000000000E+01 0.  0.
<mgrwt>
<rscale>  0 0.12500706E+03</rscale>
<asrwt>0</asrwt>
<pdfrwt beam="1">  1        4 0.69452246E-02 0.12500706E+03</pdfrwt>
<pdfrwt beam="2">  1       -4 0.13313618E-01 0.12500706E+03</pdfrwt>
<totfact> 0.10306839E+04</totfact>
</mgrwt>
</event>
<event>
 5    1  0.3317939E-002  0.1250007E+03  0.7818608E-02  0.1235068E+00
          4   -1    0    0  501    0  0.00000000000E+00  0.00000000000E+00  0.81159398068E+03  0.81159497434E+03  0.12700000000E+01 0.  1.
         -4   -1    0    0    0  501 -0.00000000000E+00 -0.00000000000E+00 -0.47283246479E+01  0.48959119657E+01  0.12700000000E+01 0.  1.
         25    2    1    2    0    0  0.00000000000E+00  0.00000000000E+00  0.80686565603E+03  0.81649088631E+03  0.12500072215E+03 0.  0.
    9000005    1    3    3    0    0 -0.27215045977E+02 -0.25696830639E+02  0.76557002644E+02  0.85223004443E+02  0.10000000000E+01 0.  0.
    9000005    1    3    3    0    0  0.27215045977E+02  0.25696830639E+02  0.73030865339E+03  0.73126788186E+03  0.10000000000E+01 0.  0.
<mgrwt>
<rscale>  0 0.12500072E+03</rscale>
<asrwt>0</asrwt>
<pdfrwt beam="1">  1        4 0.12487366E+00 0.12500072E+03</pdfrwt>
<pdfrwt beam="2">  1       -4 0.74040185E-03 0.12500072E+03</pdfrwt>
<totfact> 0.37538435E+03</totfact>
</mgrwt>
</event>
<event>
 5    1  0.3317939E-002  0.1250042E+03  0.7818608E-02  0.1235063E+00
         -4   -1    0    0    0  501 -0.00000000000E+00  0.00000000000E+00  0.15883590230E+02  0.15934281866E+02  0.12700000000E+01 0. -1.
          4   -1    0    0  501    0  0.00000000000E+00 -0.00000000000E+00 -0.24550225652E+03  0.24550554140E+03  0.12700000000E+01 0. -1.
         25    2    1    2    0    0  0.00000000000E+00  0.00000000000E+00 -0.22961866629E+03  0.26143982326E+03  0.12500419705E+03 0.  0.
    9000005    1    3    3    0    0  0.17186512009E+01  0.32822509514E+02 -0.36425779587E+01  0.33083821830E+02  0.10000000000E+01 0.  0.
    9000005    1    3    3    0    0 -0.17186512009E+01 -0.32822509514E+02 -0.22597608833E+03  0.22835600143E+03  0.10000000000E+01 0.  0.
<mgrwt>
<rscale>  0 0.12500420E+03</rscale>
<asrwt>0</asrwt>
<pdfrwt beam="2">  1        4 0.37773727E-01 0.12500420E+03</pdfrwt>
<pdfrwt beam="1">  1       -4 0.24477815E-02 0.12500420E+03</pdfrwt>
<totfact> 0.80696888E+03</totfact>
</mgrwt>
</event>
<event>
 5    1  0.3317939E-002  0.1250006E+03  0.7818608E-02  0.1235068E+00
         -4   -1    0    0    0  501 -0.00000000000E+00  0.00000000000E+00  0.35193763192E+02  0.35216670308E+02  0.12700000000E+01 0.  1.
          4   -1    0    0  501    0  0.00000000000E+00 -0.00000000000E+00 -0.11093114099E+03  0.11093841057E+03  0.12700000000E+01 0.  1.
         25    2    1    2    0    0  0.00000000000E+00  0.00000000000E+00 -0.75737377794E+02  0.14615508088E+03  0.12500062909E+03 0.  0.
    9000005    1    3    3    0    0  0.27068917125E+02 -0.11133945946E+01  0.27976187189E+02  0.38956809052E+02  0.10000000000E+01 0.  0.
    9000005    1    3    3    0    0 -0.27068917125E+02  0.11133945946E+01 -0.10371356498E+03  0.10719827183E+03  0.10000000000E+01 0.  0.
<mgrwt>
<rscale>  0 0.12500063E+03</rscale>
<asrwt>0</asrwt>
<pdfrwt beam="2">  1        4 0.17068650E-01 0.12500063E+03</pdfrwt>
<pdfrwt beam="1">  1       -4 0.54167465E-02 0.12500063E+03</pdfrwt>
<totfact> 0.10007431E+04</totfact>
</mgrwt>
</event>
<event>
 5    1  0.3317939E-002  0.1249852E+03  0.7818608E-02  0.1235092E+00
         -4   -1    0    0    0  501 -0.00000000000E+00  0.00000000000E+00  0.78887026378E+01  0.79902771734E+01  0.12700000000E+01 0.  1.
          4   -1    0    0  501    0  0.00000000000E+00 -0.00000000000E+00 -0.49178404608E+03  0.49178568592E+03  0.12700000000E+01 0.  1.
         25    2    1    2    0    0  0.00000000000E+00  0.00000000000E+00 -0.48389534344E+03  0.49977596310E+03  0.12498523866E+03 0.  0.
    9000005    1    3    3    0    0 -0.17996545960E+02 -0.54279626526E+02 -0.14124967294E+03  0.15238970972E+03  0.10000000000E+01 0.  0.
    9000005    1    3    3    0    0  0.17996545960E+02  0.54279626526E+02 -0.34264567050E+03  0.34738625338E+03  0.10000000000E+01 0.  0.
<mgrwt>
<rscale>  0 0.12498524E+03</rscale>
<asrwt>0</asrwt>
<pdfrwt beam="2">  1        4 0.75667000E-01 0.12498524E+03</pdfrwt>
<pdfrwt beam="1">  1       -4 0.12215865E-02 0.12498524E+03</pdfrwt>
<totfact> 0.55899905E+03</totfact>
</mgrwt>
</event>
<event>
 5    1  0.3317939E-002  0.1249988E+03  0.7818608E-02  0.1235071E+00
          4   -1    0    0  501    0  0.00000000000E+00  0.00000000000E+00  0.35670603102E+03  0.35670829184E+03  0.12700000000E+01 0. -1.
         -4   -1    0    0    0  501 -0.00000000000E+00 -0.00000000000E+00 -0.10911561850E+02  0.10985221072E+02  0.12700000000E+01 0. -1.
         25    2    1    2    0    0  0.00000000000E+00  0.00000000000E+00  0.34579446917E+03  0.36769351291E+03  0.12499881811E+03 0.  0.
    9000005    1    3    3    0    0  0.33269232912E+02  0.24446073943E+02  0.31089206769E+03  0.31362291074E+03  0.10000000000E+01 0.  0.
    9000005    1    3    3    0    0 -0.33269232912E+02 -0.24446073943E+02  0.34902401478E+02  0.54070602167E+02  0.10000000000E+01 0.  0.
<mgrwt>
<rscale>  0 0.12499882E+03</rscale>
<asrwt>0</asrwt>
<pdfrwt beam="1">  1        4 0.54883689E-01 0.12499882E+03</pdfrwt>
<pdfrwt beam="2">  1       -4 0.16845419E-02 0.12499882E+03</pdfrwt>
<totfact> 0.67822702E+03</totfact>
</mgrwt>
</event>
<event>
 5    1  0.3317939E-002  0.1250023E+03  0.7818608E-02  0.1235066E+00
          4   -1    0    0  501    0  0.00000000000E+00  0.00000000000E+00  0.43957091289E+01  0.45754954645E+01  0.12700000000E+01 0. -1.
         -4   -1    0    0    0  501 -0.00000000000E+00 -0.00000000000E+00 -0.87069308799E+03  0.87069401421E+03  0.12700000000E+01 0. -1.
         25    2    1    2    0    0  0.00000000000E+00  0.00000000000E+00 -0.86629737887E+03  0.87526950967E+03  0.12500226373E+03 0.  0.
    9000005    1    3    3    0    0  0.14264073082E+02  0.12199902821E+02 -0.15773114100E+02  0.24537574007E+02  0.10000000000E+01 0.  0.
    9000005    1    3    3    0    0 -0.14264073082E+02 -0.12199902821E+02 -0.85052426476E+03  0.85073193567E+03  0.10000000000E+01 0.  0.
<mgrwt>
<rscale>  0 0.12500226E+03</rscale>
<asrwt>0</asrwt>
<pdfrwt beam="1">  1        4 0.69016460E-03 0.12500226E+03</pdfrwt>
<pdfrwt beam="2">  1       -4 0.13396655E+00 0.12500226E+03</pdfrwt>
<totfact> 0.35113291E+03</totfact>
</mgrwt>
</event>
<event>
 5    1  0.3317939E-002  0.1250028E+03  0.7818608E-02  0.1235065E+00
         -4   -1    0    0    0  501 -0.00000000000E+00  0.00000000000E+00  0.18433504650E+03  0.18433942137E+03  0.12700000000E+01 0. -1.
          4   -1    0    0  501    0  0.00000000000E+00 -0.00000000000E+00 -0.21168335656E+02  0.21206398432E+02  0.12700000000E+01 0. -1.
         25    2    1    2    0    0  0.00000000000E+00  0.00000000000E+00  0.16316671085E+03  0.20554581980E+03  0.12500283400E+03 0.  0.
    9000005    1    3    3    0    0  0.62099435110E+01  0.33530584356E+01 -0.20519042750E+02  0.21721821163E+02  0.10000000000E+01 0.  0.
    9000005    1    3    3    0    0 -0.62099435110E+01 -0.33530584356E+01  0.18368575360E+03  0.18382399863E+03  0.10000000000E+01 0.  0.
<mgrwt>
<rscale>  0 0.12500283E+03</rscale>
<asrwt>0</asrwt>
<pdfrwt beam="2">  1        4 0.32599314E-02 0.12500283E+03</pdfrwt>
<pdfrwt beam="1">  1       -4 0.28362503E-01 0.12500283E+03</pdfrwt>
<totfact> 0.89202857E+03</totfact>
</mgrwt>
</event>
<event>
 5    1  0.3317939E-002  0.1250050E+03  0.7818608E-02  0.1235061E+00
          4   -1    0    0  501    0  0.00000000000E+00  0.00000000000E+00  0.22531177869E+03  0.22531535792E+03  0.12700000000E+01 0. -1.
         -4   -1    0    0    0  501 -0.00000000000E+00 -0.00000000000E+00 -0.17311505431E+02  0.17358027546E+02  0.12700000000E+01 0. -1.
         25    2    1    2    0    0  0.00000000000E+00  0.00000000000E+00  0.20800027325E+03  0.24267338547E+03  0.12500503326E+03 0.  0.
    9000005    1    3    3    0    0 -0.11073635366E+02 -0.38271600811E+02  0.19747015432E+03  0.20145173783E+03  0.10000000000E+01 0.  0.
    9000005    1    3    3    0    0  0.11073635366E+02  0.38271600811E+02  0.10530118936E+02  0.41221647634E+02  0.10000000000E+01 0.  0.
<mgrwt>
<rscale>  0 0.12500503E+03</rscale>
<asrwt>0</asrwt>
<pdfrwt beam="1">  1        4 0.34667205E-01 0.12500503E+03</pdfrwt>
<pdfrwt beam="2">  1       -4 0.26671624E-02 0.12500503E+03</pdfrwt>
<totfact> 0.83391461E+03</totfact>
</mgrwt>
</event>
<event>
 5    1  0.3317939E-002  0.1249978E+03  0.7818608E-02  0.1235073E+00
         -4   -1    0    0    0  501 -0.00000000000E+00  0.00000000000E+00  0.21650091098E+03  0.21650463588E+03  0.12700000000E+01 0. -1.
          4   -1    0    0  501    0  0.00000000000E+00 -0.00000000000E+00 -0.18015790219E+02  0.18060498255E+02  0.12700000000E+01 0. -1.
         25    2    1    2    0    0  0.00000000000E+00  0.00000000000E+00  0.19848512077E+03  0.23456513413E+03  0.12499783593E+03 0.  0.
    9000005    1    3    3    0    0  0.28223424353E+02  0.53380261400E+02  0.12944870559E+03  0.14284250547E+03  0.10000000000E+01 0.  0.
    9000005    1    3    3    0    0 -0.28223424353E+02 -0.53380261400E+02  0.69036415177E+02  0.91722628668E+02  0.10000000000E+01 0.  0.
<mgrwt>
<rscale>  0 0.12499784E+03</rscale>
<asrwt>0</asrwt>
<pdfrwt beam="2">  1        4 0.27753856E-02 0.12499784E+03</pdfrwt>
<pdfrwt beam="1">  1       -4 0.33311558E-01 0.12499784E+03</pdfrwt>
<totfact> 0.84617594E+03</totfact>
</mgrwt>
</event>
<event>
 5    1  0.3317939E-002  0.1250012E+03  0.7818608E-02  0.1235067E+00
         -4   -1    0    0    0  501 -0.00000000000E+00  0.00000000000E+00  0.60273133241E+03  0.60273267040E+03  0.12700000000E+01 0.  1.
          4   -1    0    0  501    0  0.00000000000E+00 -0.00000000000E+00 -0.64174638290E+01  0.65419218886E+01  0.12700000000E+01 0.  1.
         25    2    1    2    0    0  0.00000000000E+00  0.00000000000E+00  0.59631386858E+03  0.60927459229E+03  0.12500119578E+03 0.  0.
    9000005    1    3    3    0    0  0.47616691330E+01 -0.53574486957E+02  0.45324574205E+03  0.45642699507E+03  0.10000000000E+01 0.  0.
    9000005    1    3    3    0    0 -0.47616691330E+01  0.53574486957E+02  0.14306812653E+03  0.15284759722E+03  0.10000000000E+01 0.  0.
<mgrwt>
<rscale>  0 0.12500120E+03</rscale>
<asrwt>0</asrwt>
<pdfrwt beam="2">  1        4 0.99697863E-03 0.12500120E+03</pdfrwt>
<pdfrwt beam="1">  1       -4 0.92737584E-01 0.12500120E+03</pdfrwt>
<totfact> 0.48286086E+03</totfact>
</mgrwt>
</event>
<event>
 5    1  0.3317939E-002  0.1250022E+03  0.7818608E-02  0.1235066E+00
          4   -1    0    0  501    0  0.00000000000E+00  0.00000000000E+00  0.77430336597E+02  0.77440751065E+02  0.12700000000E+01 0. -1.
         -4   -1    0    0    0  501 -0.00000000000E+00 -0.00000000000E+00 -0.50428520998E+02  0.50444510405E+02  0.12700000000E+01 0. -1.
         25    2    1    2    0    0  0.00000000000E+00  0.00000000000E+00  0.27001815599E+02  0.12788526147E+03  0.12500216820E+03 0.  0.
    9000005    1    3    3    0    0  0.37681695075E+02 -0.49533994671E+01  0.64252934774E+02  0.74658461925E+02  0.10000000000E+01 0.  0.
    9000005    1    3    3    0    0 -0.37681695075E+02  0.49533994671E+01 -0.37251119175E+02  0.53226799545E+02  0.10000000000E+01 0.  0.
<mgrwt>
<rscale>  0 0.12500217E+03</rscale>
<asrwt>0</asrwt>
<pdfrwt beam="1">  1        4 0.11914391E-01 0.12500217E+03</pdfrwt>
<pdfrwt beam="2">  1       -4 0.77602651E-02 0.12500217E+03</pdfrwt>
<totfact> 0.10389458E+04</totfact>
</mgrwt>
</event>
<event>
 5    1  0.3317939E-002  0.1250017E+03  0.7818608E-02  0.1235067E+00
         -4   -1    0    0    0  501 -0.00000000000E+00  0.00000000000E+00  0.45718148899E+03  0.45718325294E+03  0.12700000000E+01 0. -1.
          4   -1    0    0  501    0  0.00000000000E+00 -0.00000000000E+00 -0.84954510829E+01  0.85898538464E+01  0.12700000000E+01 0. -1.
         25    2    1    2    0    0  0.00000000000E+00  0.00000000000E+00  0.44868603790E+03  0.46577310679E+03  0.12500170558E+03 0.  0.
    9000005    1    3    3    0    0 -0.12080941890E+02  0.53997584967E+02  0.33257218846E+03  0.33714529342E+03  0.10000000000E+01 0.  0.
    9000005    1    3    3    0    0  0.12080941890E+02 -0.53997584967E+02  0.11611384944E+03  0.12862781337E+03  0.10000000000E+01 0.  0.
<mgrwt>
<rscale>  0 0.12500171E+03</rscale>
<asrwt>0</asrwt>
<pdfrwt beam="2">  1        4 0.13143898E-02 0.12500171E+03</pdfrwt>
<pdfrwt beam="1">  1       -4 0.70343020E-01 0.12500171E+03</pdfrwt>
<totfact> 0.58619110E+03</totfact>
</mgrwt>
</event>
<event>
 5    1  0.3317939E-002  0.1249503E+03  0.7818608E-02  0.1235147E+00
          4   -1    0    0  501    0  0.00000000000E+00  0.00000000000E+00  0.10001186196E+03  0.10001992517E+03  0.12700000000E+01 0. -1.
         -4   -1    0    0    0  501 -0.00000000000E+00 -0.00000000000E+00 -0.39006829988E+02  0.39027499096E+02  0.12700000000E+01 0. -1.
         25    2    1    2    0    0  0.00000000000E+00  0.00000000000E+00  0.61005031967E+02  0.13904742427E+03  0.12495027919E+03 0.  0.
    9000005    1    3    3    0    0 -0.23952857450E+02  0.57604194591E+02  0.26955343908E+02  0.67967442057E+02  0.10000000000E+01 0.  0.
    9000005    1    3    3    0    0  0.23952857450E+02 -0.57604194591E+02  0.34049688060E+02  0.71079982214E+02  0.10000000000E+01 0.  0.
<mgrwt>
<rscale>  0 0.12495028E+03</rscale>
<asrwt>0</asrwt>
<pdfrwt beam="1">  1        4 0.15388650E-01 0.12495028E+03</pdfrwt>
<pdfrwt beam="2">  1       -4 0.60032611E-02 0.12495028E+03</pdfrwt>
<totfact> 0.10164750E+04</totfact>
</mgrwt>
</event>
