<event>
 5    1  0.3270363E-002  0.1249893E+03  0.7818608E-02  0.1235086E+00
          4   -1    0    0  501    0  0.00000000000E+00  0.00000000000E+00  0.15740544776E+01  0.20225101973E+01  0.12700000000E+01 0. -1.
         -4   -1    0    0    0  501 -0.00000000000E+00 -0.00000000000E+00 -0.21713908699E+04  0.21713912413E+04  0.12700000000E+01 0. -1.
         25    2    1    2    0    0  0.00000000000E+00  0.00000000000E+00 -0.21698168154E+04  0.21734137515E+04  0.12498929033E+03 0.  0.
    9000005    1    3    3    0    0 -0.12970596312E+02  0.29887079469E+02 -0.15772384030E+03  0.16105677163E+03  0.10000000000E+01 0.  0.
    9000005    1    3    3    0    0  0.12970596312E+02 -0.29887079469E+02 -0.20120929751E+04  0.20123569799E+04  0.10000000000E+01 0.  0.
<mgrwt>
<rscale>  0 0.12498929E+03</rscale>
<asrwt>0</asrwt>
<pdfrwt beam="1">  1        4 0.27668913E-03 0.12498929E+03</pdfrwt>
<pdfrwt beam="2">  1       -4 0.33409256E+00 0.12498929E+03</pdfrwt>
<totfact> 0.77662009E+02</totfact>
</mgrwt>
</event>
<event>
 5    1  0.3270363E-002  0.1250011E+03  0.7818608E-02  0.1235068E+00
          4   -1    0    0  501    0  0.00000000000E+00  0.00000000000E+00  0.62840008264E+02  0.62852840338E+02  0.12700000000E+01 0. -1.
         -4   -1    0    0    0  501 -0.00000000000E+00 -0.00000000000E+00 -0.62137249698E+02  0.62150226870E+02  0.12700000000E+01 0. -1.
         25    2    1    2    0    0  0.00000000000E+00  0.00000000000E+00  0.70275856607E+00  0.12500306721E+03  0.12500109176E+03 0.  0.
    9000005    1    3    3    0    0  0.55176528650E+02  0.28959902408E+02 -0.43596371273E+01  0.62475048597E+02  0.10000000000E+01 0.  0.
    9000005    1    3    3    0    0 -0.55176528650E+02 -0.28959902408E+02  0.50623956934E+01  0.62528018611E+02  0.10000000000E+01 0.  0.
<mgrwt>
<rscale>  0 0.12500109E+03</rscale>
<asrwt>0</asrwt>
<pdfrwt beam="1">  1        4 0.96696789E-02 0.12500109E+03</pdfrwt>
<pdfrwt beam="2">  1       -4 0.95615622E-02 0.12500109E+03</pdfrwt>
<totfact> 0.10452538E+04</totfact>
</mgrwt>
</event>
<event>
 5    1  0.3270363E-002  0.1250001E+03  0.7818608E-02  0.1235069E+00
         -4   -1    0    0    0  501 -0.00000000000E+00  0.00000000000E+00  0.15003486434E+01  0.19656922577E+01  0.12700000000E+01 0.  1.
          4   -1    0    0  501    0  0.00000000000E+00 -0.00000000000E+00 -0.22535503999E+04  0.22535507578E+04  0.12700000000E+01 0.  1.
         25    2    1    2    0    0  0.00000000000E+00  0.00000000000E+00 -0.22520500513E+04  0.22555164500E+04  0.12500009170E+03 0.  0.
    9000005    1    3    3    0    0 -0.43912701504E+02 -0.11592645435E+02 -0.35148432941E+03  0.35440788451E+03  0.10000000000E+01 0.  0.
    9000005    1    3    3    0    0  0.43912701504E+02  0.11592645435E+02 -0.19005657219E+04  0.19011085655E+04  0.10000000000E+01 0.  0.
<mgrwt>
<rscale>  0 0.12500009E+03</rscale>
<asrwt>0</asrwt>
<pdfrwt beam="2">  1        4 0.34673354E+00 0.12500009E+03</pdfrwt>
<pdfrwt beam="1">  1       -4 0.26664786E-03 0.12500009E+03</pdfrwt>
<totfact> 0.68840701E+02</totfact>
</mgrwt>
</event>
<event>
 5    1  0.3270363E-002  0.1250048E+03  0.7818608E-02  0.1235062E+00
          4   -1    0    0  501    0  0.00000000000E+00  0.00000000000E+00  0.80229476524E+01  0.81228436543E+01  0.12700000000E+01 0.  1.
         -4   -1    0    0    0  501 -0.00000000000E+00 -0.00000000000E+00 -0.48380828487E+03  0.48380995174E+03  0.12700000000E+01 0.  1.
         25    2    1    2    0    0  0.00000000000E+00  0.00000000000E+00 -0.47578533721E+03  0.49193279540E+03  0.12500475223E+03 0.  0.
    9000005    1    3    3    0    0  0.12320134876E+02  0.21117668691E+02 -0.46422637032E+03  0.46487080416E+03  0.10000000000E+01 0.  0.
    9000005    1    3    3    0    0 -0.12320134876E+02 -0.21117668691E+02 -0.11558966891E+02  0.27061991240E+02  0.10000000000E+01 0.  0.
<mgrwt>
<rscale>  0 0.12500475E+03</rscale>
<asrwt>0</asrwt>
<pdfrwt beam="1">  1        4 0.12421125E-02 0.12500475E+03</pdfrwt>
<pdfrwt beam="2">  1       -4 0.74439834E-01 0.12500475E+03</pdfrwt>
<totfact> 0.56489865E+03</totfact>
</mgrwt>
</event>
<event>
 5    1  0.3270363E-002  0.1250009E+03  0.7818608E-02  0.1235068E+00
          4   -1    0    0  501    0  0.00000000000E+00  0.00000000000E+00  0.39394293627E+01  0.41390824713E+01  0.12700000000E+01 0.  1.
         -4   -1    0    0    0  501 -0.00000000000E+00 -0.00000000000E+00 -0.96688505470E+03  0.96688588877E+03  0.12700000000E+01 0.  1.
         25    2    1    2    0    0  0.00000000000E+00  0.00000000000E+00 -0.96294562533E+03  0.97102497124E+03  0.12500086967E+03 0.  0.
    9000005    1    3    3    0    0 -0.38460934214E+02  0.33608140387E+01 -0.99744059107E+02  0.10695987967E+03  0.10000000000E+01 0.  0.
    9000005    1    3    3    0    0  0.38460934214E+02 -0.33608140387E+01 -0.86320156623E+03  0.86406509157E+03  0.10000000000E+01 0.  0.
<mgrwt>
<rscale>  0 0.12500087E+03</rscale>
<asrwt>0</asrwt>
<pdfrwt beam="1">  1        4 0.62148892E-03 0.12500087E+03</pdfrwt>
<pdfrwt beam="2">  1       -4 0.14876678E+00 0.12500087E+03</pdfrwt>
<totfact> 0.31580509E+03</totfact>
</mgrwt>
</event>
<event>
 5    1  0.3270363E-002  0.1250014E+03  0.7818608E-02  0.1235067E+00
         -4   -1    0    0    0  501 -0.00000000000E+00  0.00000000000E+00  0.28766655233E+03  0.28766935573E+03  0.12700000000E+01 0.  1.
          4   -1    0    0  501    0  0.00000000000E+00 -0.00000000000E+00 -0.13546827505E+02  0.13606227818E+02  0.12700000000E+01 0.  1.
         25    2    1    2    0    0  0.00000000000E+00  0.00000000000E+00  0.27411972482E+03  0.30127558355E+03  0.12500141482E+03 0.  0.
    9000005    1    3    3    0    0 -0.43598995671E+02 -0.72713912478E+01  0.24353387456E+03  0.24751463313E+03  0.10000000000E+01 0.  0.
    9000005    1    3    3    0    0  0.43598995671E+02  0.72713912478E+01  0.30585850263E+02  0.53760950424E+02  0.10000000000E+01 0.  0.
<mgrwt>
<rscale>  0 0.12500141E+03</rscale>
<asrwt>0</asrwt>
<pdfrwt beam="2">  1        4 0.20889123E-02 0.12500141E+03</pdfrwt>
<pdfrwt beam="1">  1       -4 0.44261176E-01 0.12500141E+03</pdfrwt>
<totfact> 0.75436740E+03</totfact>
</mgrwt>
</event>
<event>
 5    1  0.3270363E-002  0.1249983E+03  0.7818608E-02  0.1235072E+00
         -4   -1    0    0    0  501 -0.00000000000E+00  0.00000000000E+00  0.49274096325E+02  0.49290460220E+02  0.12700000000E+01 0.  1.
          4   -1    0    0  501    0  0.00000000000E+00 -0.00000000000E+00 -0.79239102784E+02  0.79249279555E+02  0.12700000000E+01 0.  1.
         25    2    1    2    0    0  0.00000000000E+00  0.00000000000E+00 -0.29965006458E+02  0.12853973977E+03  0.12499825234E+03 0.  0.
    9000005    1    3    3    0    0  0.36501334120E+02 -0.44178869016E+02  0.10643837001E+02  0.58295892875E+02  0.10000000000E+01 0.  0.
    9000005    1    3    3    0    0 -0.36501334120E+02  0.44178869016E+02 -0.40608843460E+02  0.70243846899E+02  0.10000000000E+01 0.  0.
<mgrwt>
<rscale>  0 0.12499825E+03</rscale>
<asrwt>0</asrwt>
<pdfrwt beam="2">  1        4 0.12192673E-01 0.12499825E+03</pdfrwt>
<pdfrwt beam="1">  1       -4 0.75826718E-02 0.12499825E+03</pdfrwt>
<totfact> 0.10376257E+04</totfact>
</mgrwt>
</event>
<event>
 5    1  0.3270363E-002  0.1249818E+03  0.7818608E-02  0.1235098E+00
         -4   -1    0    0    0  501 -0.00000000000E+00  0.00000000000E+00  0.45885743649E+02  0.45903315460E+02  0.12700000000E+01 0.  1.
          4   -1    0    0  501    0  0.00000000000E+00 -0.00000000000E+00 -0.85066486858E+02  0.85075966561E+02  0.12700000000E+01 0.  1.
         25    2    1    2    0    0  0.00000000000E+00  0.00000000000E+00 -0.39180743209E+02  0.13097928202E+03  0.12498176539E+03 0.  0.
    9000005    1    3    3    0    0  0.40212497603E+02  0.81117477733E+01  0.29801574454E+02  0.50714684810E+02  0.10000000000E+01 0.  0.
    9000005    1    3    3    0    0 -0.40212497603E+02 -0.81117477733E+01 -0.68982317663E+02  0.80264597212E+02  0.10000000000E+01 0.  0.
<mgrwt>
<rscale>  0 0.12498177E+03</rscale>
<asrwt>0</asrwt>
<pdfrwt beam="2">  1        4 0.13089233E-01 0.12498177E+03</pdfrwt>
<pdfrwt beam="1">  1       -4 0.70614261E-02 0.12498177E+03</pdfrwt>
<totfact> 0.10327782E+04</totfact>
</mgrwt>
</event>
<event>
 5    1  0.3270363E-002  0.1249999E+03  0.7818608E-02  0.1235069E+00
         -4   -1    0    0    0  501 -0.00000000000E+00  0.00000000000E+00  0.41734995140E+03  0.41735188371E+03  0.12700000000E+01 0.  1.
          4   -1    0    0  501    0  0.00000000000E+00 -0.00000000000E+00 -0.93145936928E+01  0.94007742054E+01  0.12700000000E+01 0.  1.
         25    2    1    2    0    0  0.00000000000E+00  0.00000000000E+00  0.40803535771E+03  0.42675265791E+03  0.12499991158E+03 0.  0.
    9000005    1    3    3    0    0  0.10388762377E+02  0.53647735544E+02  0.30752728260E+03  0.31234601879E+03  0.10000000000E+01 0.  0.
    9000005    1    3    3    0    0 -0.10388762377E+02 -0.53647735544E+02  0.10050807511E+03  0.11440663912E+03  0.10000000000E+01 0.  0.
<mgrwt>
<rscale>  0 0.12499991E+03</rscale>
<asrwt>0</asrwt>
<pdfrwt beam="2">  1        4 0.14397923E-02 0.12499991E+03</pdfrwt>
<pdfrwt beam="1">  1       -4 0.64214464E-01 0.12499991E+03</pdfrwt>
<totfact> 0.62031568E+03</totfact>
</mgrwt>
</event>
<event>
 5    1  0.3270363E-002  0.1250086E+03  0.7818608E-02  0.1235056E+00
         -4   -1    0    0    0  501 -0.00000000000E+00  0.00000000000E+00  0.10502610829E+03  0.10503378658E+03  0.12700000000E+01 0.  1.
          4   -1    0    0  501    0  0.00000000000E+00 -0.00000000000E+00 -0.37178369249E+02  0.37200054302E+02  0.12700000000E+01 0.  1.
         25    2    1    2    0    0  0.00000000000E+00  0.00000000000E+00  0.67847739041E+02  0.14223384088E+03  0.12500859890E+03 0.  0.
    9000005    1    3    3    0    0  0.45599250450E+01 -0.60978666743E+02  0.19238114019E+02  0.64111588229E+02  0.10000000000E+01 0.  0.
    9000005    1    3    3    0    0 -0.45599250450E+01  0.60978666743E+02  0.48609625022E+02  0.78122252650E+02  0.10000000000E+01 0.  0.
<mgrwt>
<rscale>  0 0.12500860E+03</rscale>
<asrwt>0</asrwt>
<pdfrwt beam="2">  1        4 0.57220078E-02 0.12500860E+03</pdfrwt>
<pdfrwt beam="1">  1       -4 0.16160122E-01 0.12500860E+03</pdfrwt>
<totfact> 0.10085543E+04</totfact>
</mgrwt>
</event>
<event>
 5    1  0.3270363E-002  0.1250132E+03  0.7818608E-02  0.1235049E+00
          4   -1    0    0  501    0  0.00000000000E+00  0.00000000000E+00  0.23206375630E+03  0.23206723140E+03  0.12700000000E+01 0. -1.
         -4   -1    0    0    0  501 -0.00000000000E+00 -0.00000000000E+00 -0.16808644163E+02  0.16856554174E+02  0.12700000000E+01 0. -1.
         25    2    1    2    0    0  0.00000000000E+00  0.00000000000E+00  0.21525511214E+03  0.24892378557E+03  0.12501315020E+03 0.  0.
    9000005    1    3    3    0    0 -0.42661114401E+02 -0.29504066890E+02  0.38203807549E+02  0.64428189143E+02  0.10000000000E+01 0.  0.
    9000005    1    3    3    0    0  0.42661114401E+02  0.29504066890E+02  0.17705130459E+03  0.18449559643E+03  0.10000000000E+01 0.  0.
<mgrwt>
<rscale>  0 0.12501315E+03</rscale>
<asrwt>0</asrwt>
<pdfrwt beam="1">  1        4 0.35706067E-01 0.12501315E+03</pdfrwt>
<pdfrwt beam="2">  1       -4 0.25898981E-02 0.12501315E+03</pdfrwt>
<totfact> 0.82461864E+03</totfact>
</mgrwt>
</event>
<event>
 5    1  0.3270363E-002  0.1250003E+03  0.7818608E-02  0.1235069E+00
          4   -1    0    0  501    0  0.00000000000E+00  0.00000000000E+00  0.26202051284E+03  0.26202359064E+03  0.12700000000E+01 0.  1.
         -4   -1    0    0    0  501 -0.00000000000E+00 -0.00000000000E+00 -0.14878036053E+02  0.14932141735E+02  0.12700000000E+01 0.  1.
         25    2    1    2    0    0  0.00000000000E+00  0.00000000000E+00  0.24714247679E+03  0.27695573237E+03  0.12500029544E+03 0.  0.
    9000005    1    3    3    0    0 -0.29538032113E+02 -0.48451873445E+02  0.18156810581E+03  0.19023158631E+03  0.10000000000E+01 0.  0.
    9000005    1    3    3    0    0  0.29538032113E+02  0.48451873445E+02  0.65574370983E+02  0.86724146068E+02  0.10000000000E+01 0.  0.
<mgrwt>
<rscale>  0 0.12500030E+03</rscale>
<asrwt>0</asrwt>
<pdfrwt beam="1">  1        4 0.40315243E-01 0.12500030E+03</pdfrwt>
<pdfrwt beam="2">  1       -4 0.22933276E-02 0.12500030E+03</pdfrwt>
<totfact> 0.78582978E+03</totfact>
</mgrwt>
</event>
<event>
 5    1  0.3270363E-002  0.1249989E+03  0.7818608E-02  0.1235071E+00
         -4   -1    0    0    0  501 -0.00000000000E+00  0.00000000000E+00  0.85178850905E+01  0.86120419423E+01  0.12700000000E+01 0.  1.
          4   -1    0    0  501    0  0.00000000000E+00 -0.00000000000E+00 -0.45597017314E+03  0.45597194178E+03  0.12700000000E+01 0.  1.
         25    2    1    2    0    0  0.00000000000E+00  0.00000000000E+00 -0.44745228805E+03  0.46458398372E+03  0.12499891141E+03 0.  0.
    9000005    1    3    3    0    0 -0.54062514395E+02 -0.26800476312E+02 -0.28413384788E+03  0.29047214067E+03  0.10000000000E+01 0.  0.
    9000005    1    3    3    0    0  0.54062514395E+02  0.26800476312E+02 -0.16331844016E+03  0.17411184305E+03  0.10000000000E+01 0.  0.
<mgrwt>
<rscale>  0 0.12499891E+03</rscale>
<asrwt>0</asrwt>
<pdfrwt beam="2">  1        4 0.70156617E-01 0.12499891E+03</pdfrwt>
<pdfrwt beam="1">  1       -4 0.13178231E-02 0.12499891E+03</pdfrwt>
<totfact> 0.58722298E+03</totfact>
</mgrwt>
</event>
<event>
 5    1  0.3270363E-002  0.1250020E+03  0.7818608E-02  0.1235066E+00
         -4   -1    0    0    0  501 -0.00000000000E+00  0.00000000000E+00  0.49874765021E+03  0.49874926716E+03  0.12700000000E+01 0.  1.
          4   -1    0    0  501    0  0.00000000000E+00 -0.00000000000E+00 -0.77792450663E+01  0.78822302555E+01  0.12700000000E+01 0.  1.
         25    2    1    2    0    0  0.00000000000E+00  0.00000000000E+00  0.49096840515E+03  0.50663149742E+03  0.12500199727E+03 0.  0.
    9000005    1    3    3    0    0  0.40352593199E+02  0.19196127127E+02  0.68421452553E+02  0.81727096143E+02  0.10000000000E+01 0.  0.
    9000005    1    3    3    0    0 -0.40352593199E+02 -0.19196127127E+02  0.42254695259E+03  0.42490440127E+03  0.10000000000E+01 0.  0.
<mgrwt>
<rscale>  0 0.12500200E+03</rscale>
<asrwt>0</asrwt>
<pdfrwt beam="2">  1        4 0.12048529E-02 0.12500200E+03</pdfrwt>
<pdfrwt beam="1">  1       -4 0.76738479E-01 0.12500200E+03</pdfrwt>
<totfact> 0.55351046E+03</totfact>
</mgrwt>
</event>
<event>
 5    1  0.3270363E-002  0.1250107E+03  0.7818608E-02  0.1235053E+00
          4   -1    0    0  501    0  0.00000000000E+00  0.00000000000E+00  0.56474606214E+01  0.57884982050E+01  0.12700000000E+01 0.  1.
         -4   -1    0    0    0  501 -0.00000000000E+00 -0.00000000000E+00 -0.68312771631E+03  0.68312889684E+03  0.12700000000E+01 0.  1.
         25    2    1    2    0    0  0.00000000000E+00  0.00000000000E+00 -0.67748025569E+03  0.68891739504E+03  0.12501072090E+03 0.  0.
    9000005    1    3    3    0    0  0.17622964139E+02 -0.26170100060E+02 -0.41435285302E+02  0.52089594645E+02  0.10000000000E+01 0.  0.
    9000005    1    3    3    0    0 -0.17622964139E+02  0.26170100060E+02 -0.63604497039E+03  0.63682780040E+03  0.10000000000E+01 0.  0.
<mgrwt>
<rscale>  0 0.12501072E+03</rscale>
<asrwt>0</asrwt>
<pdfrwt beam="1">  1        4 0.87978049E-03 0.12501072E+03</pdfrwt>
<pdfrwt beam="2">  1       -4 0.10510745E+00 0.12501072E+03</pdfrwt>
<totfact> 0.43667995E+03</totfact>
</mgrwt>
</event>
<event>
 5    1  0.3270363E-002  0.1250019E+03  0.7818608E-02  0.1235066E+00
         -4   -1    0    0    0  501 -0.00000000000E+00  0.00000000000E+00  0.11383368361E+02  0.11453993856E+02  0.12700000000E+01 0.  1.
          4   -1    0    0  501    0  0.00000000000E+00 -0.00000000000E+00 -0.34203140084E+03  0.34203375865E+03  0.12700000000E+01 0.  1.
         25    2    1    2    0    0  0.00000000000E+00  0.00000000000E+00 -0.33064803247E+03  0.35348775251E+03  0.12500187916E+03 0.  0.
    9000005    1    3    3    0    0 -0.19254158313E+02  0.46331856499E+02 -0.27067853653E+03  0.27529117980E+03  0.10000000000E+01 0.  0.
    9000005    1    3    3    0    0  0.19254158313E+02 -0.46331856499E+02 -0.59969495943E+02  0.78196572704E+02  0.10000000000E+01 0.  0.
<mgrwt>
<rscale>  0 0.12500188E+03</rscale>
<asrwt>0</asrwt>
<pdfrwt beam="2">  1        4 0.52625822E-01 0.12500188E+03</pdfrwt>
<pdfrwt beam="1">  1       -4 0.17569018E-02 0.12500188E+03</pdfrwt>
<totfact> 0.69339677E+03</totfact>
</mgrwt>
</event>
<event>
 5    1  0.3270363E-002  0.1249981E+03  0.7818608E-02  0.1235072E+00
          4   -1    0    0  501    0  0.00000000000E+00  0.00000000000E+00  0.52248952798E+02  0.52264385278E+02  0.12700000000E+01 0. -1.
         -4   -1    0    0    0  501 -0.00000000000E+00 -0.00000000000E+00 -0.74728086004E+02  0.74738877017E+02  0.12700000000E+01 0. -1.
         25    2    1    2    0    0  0.00000000000E+00  0.00000000000E+00 -0.22479133206E+02  0.12700326230E+03  0.12499806880E+03 0.  0.
    9000005    1    3    3    0    0  0.18935436360E+02  0.15025692535E+02  0.47311309631E+02  0.53138330848E+02  0.10000000000E+01 0.  0.
    9000005    1    3    3    0    0 -0.18935436360E+02 -0.15025692535E+02 -0.69790442837E+02  0.73864931447E+02  0.10000000000E+01 0.  0.
<mgrwt>
<rscale>  0 0.12499807E+03</rscale>
<asrwt>0</asrwt>
<pdfrwt beam="1">  1        4 0.80403177E-02 0.12499807E+03</pdfrwt>
<pdfrwt beam="2">  1       -4 0.11498646E-01 0.12499807E+03</pdfrwt>
<totfact> 0.10409529E+04</totfact>
</mgrwt>
</event>
<event>
 5    1  0.3270363E-002  0.1249989E+03  0.7818608E-02  0.1235071E+00
         -4   -1    0    0    0  501 -0.00000000000E+00  0.00000000000E+00  0.93612374909E+02  0.93620989292E+02  0.12700000000E+01 0. -1.
          4   -1    0    0  501    0  0.00000000000E+00 -0.00000000000E+00 -0.41707006225E+02  0.41726337824E+02  0.12700000000E+01 0. -1.
         25    2    1    2    0    0  0.00000000000E+00  0.00000000000E+00  0.51905368684E+02  0.13534732712E+03  0.12499892663E+03 0.  0.
    9000005    1    3    3    0    0 -0.34270188863E+02 -0.21740509625E+02  0.77406047280E+02  0.87405902312E+02  0.10000000000E+01 0.  0.
    9000005    1    3    3    0    0  0.34270188863E+02  0.21740509625E+02 -0.25500678596E+02  0.47941424805E+02  0.10000000000E+01 0.  0.
<mgrwt>
<rscale>  0 0.12499893E+03</rscale>
<asrwt>0</asrwt>
<pdfrwt beam="2">  1        4 0.64186122E-02 0.12499893E+03</pdfrwt>
<pdfrwt beam="1">  1       -4 0.14404053E-01 0.12499893E+03</pdfrwt>
<totfact> 0.10231003E+04</totfact>
</mgrwt>
</event>
<event>
 5    1  0.3270363E-002  0.1249987E+03  0.7818608E-02  0.1235071E+00
         -4   -1    0    0    0  501 -0.00000000000E+00  0.00000000000E+00  0.72463898245E+02  0.72475026381E+02  0.12700000000E+01 0. -1.
          4   -1    0    0  501    0  0.00000000000E+00 -0.00000000000E+00 -0.53882265335E+02  0.53897230148E+02  0.12700000000E+01 0. -1.
         25    2    1    2    0    0  0.00000000000E+00  0.00000000000E+00  0.18581632910E+02  0.12637225653E+03  0.12499868055E+03 0.  0.
    9000005    1    3    3    0    0  0.46789351505E+02 -0.31488695994E+02 -0.17919361324E+02  0.59185174663E+02  0.10000000000E+01 0.  0.
    9000005    1    3    3    0    0 -0.46789351505E+02  0.31488695994E+02  0.36500994234E+02  0.67187081866E+02  0.10000000000E+01 0.  0.
<mgrwt>
<rscale>  0 0.12499868E+03</rscale>
<asrwt>0</asrwt>
<pdfrwt beam="2">  1        4 0.82915865E-02 0.12499868E+03</pdfrwt>
<pdfrwt beam="1">  1       -4 0.11150299E-01 0.12499868E+03</pdfrwt>
<totfact> 0.10423126E+04</totfact>
</mgrwt>
</event>
<event>
 5    1  0.3270363E-002  0.1249991E+03  0.7818608E-02  0.1235071E+00
          4   -1    0    0  501    0  0.00000000000E+00  0.00000000000E+00  0.12905569677E+02  0.12967907645E+02  0.12700000000E+01 0.  1.
         -4   -1    0    0    0  501 -0.00000000000E+00 -0.00000000000E+00 -0.30188227062E+03  0.30188494202E+03  0.12700000000E+01 0.  1.
         25    2    1    2    0    0  0.00000000000E+00  0.00000000000E+00 -0.28897670094E+03  0.31485284966E+03  0.12499913300E+03 0.  0.
    9000005    1    3    3    0    0 -0.48786200411E+02 -0.33075354884E+02 -0.19678831641E+03  0.20542812350E+03  0.10000000000E+01 0.  0.
    9000005    1    3    3    0    0  0.48786200411E+02  0.33075354884E+02 -0.92188384539E+02  0.10942472616E+03  0.10000000000E+01 0.  0.
<mgrwt>
<rscale>  0 0.12499913E+03</rscale>
<asrwt>0</asrwt>
<pdfrwt beam="1">  1        4 0.19904732E-02 0.12499913E+03</pdfrwt>
<pdfrwt beam="2">  1       -4 0.46448422E-01 0.12499913E+03</pdfrwt>
<totfact> 0.73773942E+03</totfact>
</mgrwt>
</event>
<event>
 5    1  0.3270363E-002  0.1249924E+03  0.7818608E-02  0.1235081E+00
          4   -1    0    0  501    0  0.00000000000E+00  0.00000000000E+00  0.14015693093E+03  0.14016268472E+03  0.12700000000E+01 0.  1.
         -4   -1    0    0    0  501 -0.00000000000E+00 -0.00000000000E+00 -0.27846352572E+02  0.27875298233E+02  0.12700000000E+01 0.  1.
         25    2    1    2    0    0  0.00000000000E+00  0.00000000000E+00  0.11231057835E+03  0.16803798295E+03  0.12499239058E+03 0.  0.
    9000005    1    3    3    0    0 -0.38879830645E+02 -0.38737215524E+02  0.15990737967E+02  0.57174441827E+02  0.10000000000E+01 0.  0.
    9000005    1    3    3    0    0  0.38879830645E+02  0.38737215524E+02  0.96319840388E+02  0.11086354112E+03  0.10000000000E+01 0.  0.
<mgrwt>
<rscale>  0 0.12499239E+03</rscale>
<asrwt>0</asrwt>
<pdfrwt beam="1">  1        4 0.21565274E-01 0.12499239E+03</pdfrwt>
<pdfrwt beam="2">  1       -4 0.42867235E-02 0.12499239E+03</pdfrwt>
<totfact> 0.95831496E+03</totfact>
</mgrwt>
</event>
<event>
 5    1  0.3270363E-002  0.1249976E+03  0.7818608E-02  0.1235073E+00
         -4   -1    0    0    0  501 -0.00000000000E+00  0.00000000000E+00  0.29592933680E+01  0.32202976940E+01  0.12700000000E+01 0. -1.
          4   -1    0    0  501    0  0.00000000000E+00 -0.00000000000E+00 -0.12639324142E+04  0.12639330523E+04  0.12700000000E+01 0. -1.
         25    2    1    2    0    0  0.00000000000E+00  0.00000000000E+00 -0.12609731209E+04  0.12671533500E+04  0.12499760321E+03 0.  0.
    9000005    1    3    3    0    0  0.19083199675E+02  0.30288238547E+02 -0.11124132650E+03  0.11686393210E+03  0.10000000000E+01 0.  0.
    9000005    1    3    3    0    0 -0.19083199675E+02 -0.30288238547E+02 -0.11497317944E+04  0.11502894179E+04  0.10000000000E+01 0.  0.
<mgrwt>
<rscale>  0 0.12499760E+03</rscale>
<asrwt>0</asrwt>
<pdfrwt beam="2">  1        4 0.19447085E+00 0.12499760E+03</pdfrwt>
<pdfrwt beam="1">  1       -4 0.47540325E-03 0.12499760E+03</pdfrwt>
<totfact> 0.23018543E+03</totfact>
</mgrwt>
</event>
<event>
 5    1  0.3270363E-002  0.1250001E+03  0.7818608E-02  0.1235069E+00
          4   -1    0    0  501    0  0.00000000000E+00  0.00000000000E+00  0.46195585644E+02  0.46213039643E+02  0.12700000000E+01 0.  1.
         -4   -1    0    0    0  501 -0.00000000000E+00 -0.00000000000E+00 -0.84520818961E+02  0.84530359859E+02  0.12700000000E+01 0.  1.
         25    2    1    2    0    0  0.00000000000E+00  0.00000000000E+00 -0.38325233317E+02  0.13074339950E+03  0.12500005202E+03 0.  0.
    9000005    1    3    3    0    0 -0.38201006415E+02 -0.43594651940E+02 -0.43590404477E+02  0.72532295782E+02  0.10000000000E+01 0.  0.
    9000005    1    3    3    0    0  0.38201006415E+02  0.43594651940E+02  0.52651711607E+01  0.58211103719E+02  0.10000000000E+01 0.  0.
<mgrwt>
<rscale>  0 0.12500005E+03</rscale>
<asrwt>0</asrwt>
<pdfrwt beam="1">  1        4 0.71090897E-02 0.12500005E+03</pdfrwt>
<pdfrwt beam="2">  1       -4 0.13005279E-01 0.12500005E+03</pdfrwt>
<totfact> 0.10328581E+04</totfact>
</mgrwt>
</event>
<event>
 5    1  0.3270363E-002  0.1249987E+03  0.7818608E-02  0.1235071E+00
         -4   -1    0    0    0  501 -0.00000000000E+00  0.00000000000E+00  0.46866755318E+01  0.48557005201E+01  0.12700000000E+01 0.  1.
          4   -1    0    0  501    0  0.00000000000E+00 -0.00000000000E+00 -0.81852979646E+03  0.81853078170E+03  0.12700000000E+01 0.  1.
         25    2    1    2    0    0  0.00000000000E+00  0.00000000000E+00 -0.81384312092E+03  0.82338648222E+03  0.12499869449E+03 0.  0.
    9000005    1    3    3    0    0  0.53180123449E+02 -0.32900163568E+01 -0.19183097746E+03  0.19909563946E+03  0.10000000000E+01 0.  0.
    9000005    1    3    3    0    0 -0.53180123449E+02  0.32900163568E+01 -0.62201214346E+03  0.62429084276E+03  0.10000000000E+01 0.  0.
<mgrwt>
<rscale>  0 0.12499869E+03</rscale>
<asrwt>0</asrwt>
<pdfrwt beam="2">  1        4 0.12594063E+00 0.12499869E+03</pdfrwt>
<pdfrwt beam="1">  1       -4 0.73410536E-03 0.12499869E+03</pdfrwt>
<totfact> 0.37242865E+03</totfact>
</mgrwt>
</event>
<event>
 5    1  0.3270363E-002  0.1249988E+03  0.7818608E-02  0.1235071E+00
         -4   -1    0    0    0  501 -0.00000000000E+00  0.00000000000E+00  0.26956740803E+02  0.26986640671E+02  0.12700000000E+01 0.  1.
          4   -1    0    0  501    0  0.00000000000E+00 -0.00000000000E+00 -0.14479231584E+03  0.14479788544E+03  0.12700000000E+01 0.  1.
         25    2    1    2    0    0  0.00000000000E+00  0.00000000000E+00 -0.11783557504E+03  0.17178452611E+03  0.12499880265E+03 0.  0.
    9000005    1    3    3    0    0  0.33915502992E+02 -0.31432231872E+02 -0.11668583529E+03  0.12551824848E+03  0.10000000000E+01 0.  0.
    9000005    1    3    3    0    0 -0.33915502992E+02  0.31432231872E+02 -0.11497397429E+01  0.46266277624E+02  0.10000000000E+01 0.  0.
<mgrwt>
<rscale>  0 0.12499880E+03</rscale>
<asrwt>0</asrwt>
<pdfrwt beam="2">  1        4 0.22278469E-01 0.12499880E+03</pdfrwt>
<pdfrwt beam="1">  1       -4 0.41499194E-02 0.12499880E+03</pdfrwt>
<totfact> 0.95119624E+03</totfact>
</mgrwt>
</event>
<event>
 5    1  0.3270363E-002  0.1249999E+03  0.7818608E-02  0.1235069E+00
         -4   -1    0    0    0  501 -0.00000000000E+00  0.00000000000E+00  0.14840940778E+04  0.14840946212E+04  0.12700000000E+01 0. -1.
          4   -1    0    0  501    0  0.00000000000E+00 -0.00000000000E+00 -0.24783015003E+01  0.27847582169E+01  0.12700000000E+01 0. -1.
         25    2    1    2    0    0  0.00000000000E+00  0.00000000000E+00  0.14816157763E+04  0.14868793795E+04  0.12499992137E+03 0.  0.
    9000005    1    3    3    0    0  0.27228872975E+02 -0.46350747510E+02  0.11198552778E+04  0.11211452389E+04  0.10000000000E+01 0.  0.
    9000005    1    3    3    0    0 -0.27228872975E+02  0.46350747510E+02  0.36176049850E+03  0.36573414059E+03  0.10000000000E+01 0.  0.
<mgrwt>
<rscale>  0 0.12499992E+03</rscale>
<asrwt>0</asrwt>
<pdfrwt beam="2">  1        4 0.40489305E-03 0.12499992E+03</pdfrwt>
<pdfrwt beam="1">  1       -4 0.22834550E+00 0.12499992E+03</pdfrwt>
<totfact> 0.18189850E+03</totfact>
</mgrwt>
</event>
<event>
 5    1  0.3270363E-002  0.1249975E+03  0.7818608E-02  0.1235073E+00
          4   -1    0    0  501    0  0.00000000000E+00  0.00000000000E+00  0.16897197344E+02  0.16944856980E+02  0.12700000000E+01 0. -1.
         -4   -1    0    0    0  501 -0.00000000000E+00 -0.00000000000E+00 -0.23079325324E+03  0.23079674747E+03  0.12700000000E+01 0. -1.
         25    2    1    2    0    0  0.00000000000E+00  0.00000000000E+00 -0.21389605590E+03  0.24774160445E+03  0.12499751936E+03 0.  0.
    9000005    1    3    3    0    0  0.57414093187E+02  0.16019744852E+02 -0.14413759231E+03  0.15597966482E+03  0.10000000000E+01 0.  0.
    9000005    1    3    3    0    0 -0.57414093187E+02 -0.16019744852E+02 -0.69758463592E+02  0.91761939628E+02  0.10000000000E+01 0.  0.
<mgrwt>
<rscale>  0 0.12499752E+03</rscale>
<asrwt>0</asrwt>
<pdfrwt beam="1">  1        4 0.26035039E-02 0.12499752E+03</pdfrwt>
<pdfrwt beam="2">  1       -4 0.35510587E-01 0.12499752E+03</pdfrwt>
<totfact> 0.82662305E+03</totfact>
</mgrwt>
</event>
<event>
 5    1  0.3270363E-002  0.1249996E+03  0.7818608E-02  0.1235070E+00
         -4   -1    0    0    0  501 -0.00000000000E+00  0.00000000000E+00  0.75100950235E+01  0.76167202431E+01  0.12700000000E+01 0. -1.
          4   -1    0    0  501    0  0.00000000000E+00 -0.00000000000E+00 -0.51635634479E+03  0.51635790659E+03  0.12700000000E+01 0. -1.
         25    2    1    2    0    0  0.00000000000E+00  0.00000000000E+00 -0.50884624976E+03  0.52397462684E+03  0.12499961468E+03 0.  0.
    9000005    1    3    3    0    0 -0.47894500815E+02  0.74924807964E+01 -0.41973173188E+03  0.42252307301E+03  0.10000000000E+01 0.  0.
    9000005    1    3    3    0    0  0.47894500815E+02 -0.74924807964E+01 -0.89114517885E+02  0.10145155383E+03  0.10000000000E+01 0.  0.
<mgrwt>
<rscale>  0 0.12499961E+03</rscale>
<asrwt>0</asrwt>
<pdfrwt beam="2">  1        4 0.79447732E-01 0.12499961E+03</pdfrwt>
<pdfrwt beam="1">  1       -4 0.11637217E-02 0.12499961E+03</pdfrwt>
<totfact> 0.54051526E+03</totfact>
</mgrwt>
</event>
<event>
 5    1  0.3270363E-002  0.1249978E+03  0.7818608E-02  0.1235073E+00
          4   -1    0    0  501    0  0.00000000000E+00  0.00000000000E+00  0.58142730653E+02  0.58156599177E+02  0.12700000000E+01 0.  1.
         -4   -1    0    0    0  501 -0.00000000000E+00 -0.00000000000E+00 -0.67153575620E+02  0.67165583587E+02  0.12700000000E+01 0.  1.
         25    2    1    2    0    0  0.00000000000E+00  0.00000000000E+00 -0.90108449673E+01  0.12532218276E+03  0.12499781664E+03 0.  0.
    9000005    1    3    3    0    0 -0.30330494095E+02  0.45338621225E+02  0.26062777466E+02  0.60463193894E+02  0.10000000000E+01 0.  0.
    9000005    1    3    3    0    0  0.30330494095E+02 -0.45338621225E+02 -0.35073622433E+02  0.64858988870E+02  0.10000000000E+01 0.  0.
<mgrwt>
<rscale>  0 0.12499782E+03</rscale>
<asrwt>0</asrwt>
<pdfrwt beam="1">  1        4 0.89470260E-02 0.12499782E+03</pdfrwt>
<pdfrwt beam="2">  1       -4 0.10333310E-01 0.12499782E+03</pdfrwt>
<totfact> 0.10446384E+04</totfact>
</mgrwt>
</event>
<event>
 5    1  0.3270363E-002  0.1250185E+03  0.7818608E-02  0.1235040E+00
         -4   -1    0    0    0  501 -0.00000000000E+00  0.00000000000E+00  0.17509995225E+02  0.17555991365E+02  0.12700000000E+01 0.  1.
          4   -1    0    0  501    0  0.00000000000E+00 -0.00000000000E+00 -0.22281250203E+03  0.22281612141E+03  0.12700000000E+01 0.  1.
         25    2    1    2    0    0  0.00000000000E+00  0.00000000000E+00 -0.20530250680E+03  0.24037211277E+03  0.12501853183E+03 0.  0.
    9000005    1    3    3    0    0 -0.24836854818E+01  0.40011123020E+02 -0.19484727829E+03  0.19893094409E+03  0.10000000000E+01 0.  0.
    9000005    1    3    3    0    0  0.24836854818E+01 -0.40011123020E+02 -0.10455228515E+02  0.41441168688E+02  0.10000000000E+01 0.  0.
<mgrwt>
<rscale>  0 0.12501853E+03</rscale>
<asrwt>0</asrwt>
<pdfrwt beam="2">  1        4 0.34282661E-01 0.12501853E+03</pdfrwt>
<pdfrwt beam="1">  1       -4 0.26976622E-02 0.12501853E+03</pdfrwt>
<totfact> 0.83707393E+03</totfact>
</mgrwt>
</event>
<event>
 5    1  0.3270363E-002  0.1250064E+03  0.7818608E-02  0.1235059E+00
          4   -1    0    0  501    0  0.00000000000E+00  0.00000000000E+00  0.79194099410E+02  0.79204281963E+02  0.12700000000E+01 0. -1.
         -4   -1    0    0    0  501 -0.00000000000E+00 -0.00000000000E+00 -0.49308540579E+02  0.49324893046E+02  0.12700000000E+01 0. -1.
         25    2    1    2    0    0  0.00000000000E+00  0.00000000000E+00  0.29885558831E+02  0.12852917501E+03  0.12500640864E+03 0.  0.
    9000005    1    3    3    0    0  0.44869049663E+02 -0.19966726010E+02 -0.24795423599E+02  0.55024674435E+02  0.10000000000E+01 0.  0.
    9000005    1    3    3    0    0 -0.44869049663E+02  0.19966726010E+02  0.54680982430E+02  0.73504500574E+02  0.10000000000E+01 0.  0.
<mgrwt>
<rscale>  0 0.12500641E+03</rscale>
<asrwt>0</asrwt>
<pdfrwt beam="1">  1        4 0.12185749E-01 0.12500641E+03</pdfrwt>
<pdfrwt beam="2">  1       -4 0.75879705E-02 0.12500641E+03</pdfrwt>
<totfact> 0.10374574E+04</totfact>
</mgrwt>
</event>
<event>
 5    1  0.3270363E-002  0.1249942E+03  0.7818608E-02  0.1235078E+00
          4   -1    0    0  501    0  0.00000000000E+00  0.00000000000E+00  0.80825203773E+03  0.80825303550E+03  0.12700000000E+01 0.  1.
         -4   -1    0    0    0  501 -0.00000000000E+00 -0.00000000000E+00 -0.47480561555E+01  0.49149707278E+01  0.12700000000E+01 0.  1.
         25    2    1    2    0    0  0.00000000000E+00  0.00000000000E+00  0.80350398157E+03  0.81316800623E+03  0.12499423165E+03 0.  0.
    9000005    1    3    3    0    0  0.45739716001E+02 -0.32976479694E+02  0.22654354601E+03  0.23345780791E+03  0.10000000000E+01 0.  0.
    9000005    1    3    3    0    0 -0.45739716001E+02  0.32976479694E+02  0.57696043556E+03  0.57971019832E+03  0.10000000000E+01 0.  0.
<mgrwt>
<rscale>  0 0.12499423E+03</rscale>
<asrwt>0</asrwt>
<pdfrwt beam="1">  1        4 0.12435941E+00 0.12499423E+03</pdfrwt>
<pdfrwt beam="2">  1       -4 0.74338635E-03 0.12499423E+03</pdfrwt>
<totfact> 0.37688331E+03</totfact>
</mgrwt>
</event>
<event>
 5    1  0.3270363E-002  0.1250046E+03  0.7818608E-02  0.1235062E+00
          4   -1    0    0  501    0  0.00000000000E+00  0.00000000000E+00  0.61976107790E+02  0.61989118696E+02  0.12700000000E+01 0.  1.
         -4   -1    0    0    0  501 -0.00000000000E+00 -0.00000000000E+00 -0.63006896896E+02  0.63019694988E+02  0.12700000000E+01 0.  1.
         25    2    1    2    0    0  0.00000000000E+00  0.00000000000E+00 -0.10307891060E+01  0.12500881368E+03  0.12500456381E+03 0.  0.
    9000005    1    3    3    0    0  0.23888201687E+02  0.57082851585E+02  0.82277350795E+01  0.62432313343E+02  0.10000000000E+01 0.  0.
    9000005    1    3    3    0    0 -0.23888201687E+02 -0.57082851585E+02 -0.92585241856E+01  0.62576500341E+02  0.10000000000E+01 0.  0.
<mgrwt>
<rscale>  0 0.12500456E+03</rscale>
<asrwt>0</asrwt>
<pdfrwt beam="1">  1        4 0.95367712E-02 0.12500456E+03</pdfrwt>
<pdfrwt beam="2">  1       -4 0.96953540E-02 0.12500456E+03</pdfrwt>
<totfact> 0.10451593E+04</totfact>
</mgrwt>
</event>
<event>
 5    1  0.3270363E-002  0.1250043E+03  0.7818608E-02  0.1235062E+00
         -4   -1    0    0    0  501 -0.00000000000E+00  0.00000000000E+00  0.75409463404E+02  0.75420156927E+02  0.12700000000E+01 0. -1.
          4   -1    0    0  501    0  0.00000000000E+00 -0.00000000000E+00 -0.51781979707E+02  0.51797551316E+02  0.12700000000E+01 0. -1.
         25    2    1    2    0    0  0.00000000000E+00  0.00000000000E+00  0.23627483697E+02  0.12721770824E+03  0.12500434914E+03 0.  0.
    9000005    1    3    3    0    0  0.24522547811E+01 -0.52317817886E+02 -0.22883239285E+02  0.57164764165E+02  0.10000000000E+01 0.  0.
    9000005    1    3    3    0    0 -0.24522547811E+01  0.52317817886E+02  0.46510722982E+02  0.70052944079E+02  0.10000000000E+01 0.  0.
<mgrwt>
<rscale>  0 0.12500435E+03</rscale>
<asrwt>0</asrwt>
<pdfrwt beam="2">  1        4 0.79684789E-02 0.12500435E+03</pdfrwt>
<pdfrwt beam="1">  1       -4 0.11603476E-01 0.12500435E+03</pdfrwt>
<totfact> 0.10403398E+04</totfact>
</mgrwt>
</event>
<event>
 5    1  0.3270363E-002  0.1250003E+03  0.7818608E-02  0.1235069E+00
         -4   -1    0    0    0  501 -0.00000000000E+00  0.00000000000E+00  0.32285406591E+03  0.32285656378E+03  0.12700000000E+01 0.  1.
          4   -1    0    0  501    0  0.00000000000E+00 -0.00000000000E+00 -0.12063293945E+02  0.12129961286E+02  0.12700000000E+01 0.  1.
         25    2    1    2    0    0  0.00000000000E+00  0.00000000000E+00  0.31079077197E+03  0.33498652506E+03  0.12500027214E+03 0.  0.
    9000005    1    3    3    0    0  0.17903594126E+02  0.57472047676E+02  0.11041701897E+03  0.12576363952E+03  0.10000000000E+01 0.  0.
    9000005    1    3    3    0    0 -0.17903594126E+02 -0.57472047676E+02  0.20037375299E+03  0.20922288554E+03  0.10000000000E+01 0.  0.
<mgrwt>
<rscale>  0 0.12500027E+03</rscale>
<asrwt>0</asrwt>
<pdfrwt beam="2">  1        4 0.18612120E-02 0.12500027E+03</pdfrwt>
<pdfrwt beam="1">  1       -4 0.49675171E-01 0.12500027E+03</pdfrwt>
<totfact> 0.71408000E+03</totfact>
</mgrwt>
</event>
<event>
 5    1  0.3270363E-002  0.1249954E+03  0.7818608E-02  0.1235077E+00
          4   -1    0    0  501    0  0.00000000000E+00  0.00000000000E+00  0.51233006148E+01  0.52783623587E+01  0.12700000000E+01 0.  1.
         -4   -1    0    0    0  501 -0.00000000000E+00 -0.00000000000E+00 -0.75087067614E+03  0.75087175016E+03  0.12700000000E+01 0.  1.
         25    2    1    2    0    0  0.00000000000E+00  0.00000000000E+00 -0.74574737553E+03  0.75615011252E+03  0.12499537815E+03 0.  0.
    9000005    1    3    3    0    0 -0.15645980223E+02  0.47476451065E+02 -0.59971912696E+03  0.60179966878E+03  0.10000000000E+01 0.  0.
    9000005    1    3    3    0    0  0.15645980223E+02 -0.47476451065E+02 -0.14602824857E+03  0.15435044374E+03  0.10000000000E+01 0.  0.
<mgrwt>
<rscale>  0 0.12499538E+03</rscale>
<asrwt>0</asrwt>
<pdfrwt beam="1">  1        4 0.80021113E-03 0.12499538E+03</pdfrwt>
<pdfrwt beam="2">  1       -4 0.11553049E+00 0.12499538E+03</pdfrwt>
<totfact> 0.40285787E+03</totfact>
</mgrwt>
</event>
<event>
 5    1  0.3270363E-002  0.1250003E+03  0.7818608E-02  0.1235069E+00
          4   -1    0    0  501    0  0.00000000000E+00  0.00000000000E+00  0.59050128341E+01  0.60400394511E+01  0.12700000000E+01 0.  1.
         -4   -1    0    0    0  501 -0.00000000000E+00 -0.00000000000E+00 -0.65390403093E+03  0.65390526422E+03  0.12700000000E+01 0.  1.
         25    2    1    2    0    0  0.00000000000E+00  0.00000000000E+00 -0.64799901810E+03  0.65994530367E+03  0.12500030550E+03 0.  0.
    9000005    1    3    3    0    0  0.33343723541E+02 -0.43731984473E+01 -0.45915039041E+02  0.56922048228E+02  0.10000000000E+01 0.  0.
    9000005    1    3    3    0    0 -0.33343723541E+02  0.43731984473E+01 -0.60208397906E+03  0.60302325544E+03  0.10000000000E+01 0.  0.
<mgrwt>
<rscale>  0 0.12500031E+03</rscale>
<asrwt>0</asrwt>
<pdfrwt beam="1">  1        4 0.91894556E-03 0.12500031E+03</pdfrwt>
<pdfrwt beam="2">  1       -4 0.10061105E+00 0.12500031E+03</pdfrwt>
<totfact> 0.45286694E+03</totfact>
</mgrwt>
</event>
<event>
 5    1  0.3270363E-002  0.1250042E+03  0.7818608E-02  0.1235063E+00
         -4   -1    0    0    0  501 -0.00000000000E+00  0.00000000000E+00  0.38945565188E+02  0.38966266793E+02  0.12700000000E+01 0.  1.
          4   -1    0    0  501    0  0.00000000000E+00 -0.00000000000E+00 -0.10025568053E+03  0.10026372414E+03  0.12700000000E+01 0.  1.
         25    2    1    2    0    0  0.00000000000E+00  0.00000000000E+00 -0.61310115338E+02  0.13922999093E+03  0.12500424045E+03 0.  0.
    9000005    1    3    3    0    0  0.21797651813E+02  0.51269583133E+02 -0.62193703318E+02  0.83503080851E+02  0.10000000000E+01 0.  0.
    9000005    1    3    3    0    0 -0.21797651813E+02 -0.51269583133E+02  0.88358797976E+00  0.55726910079E+02  0.10000000000E+01 0.  0.
<mgrwt>
<rscale>  0 0.12500424E+03</rscale>
<asrwt>0</asrwt>
<pdfrwt beam="2">  1        4 0.15426162E-01 0.12500424E+03</pdfrwt>
<pdfrwt beam="1">  1       -4 0.59938366E-02 0.12500424E+03</pdfrwt>
<totfact> 0.10148600E+04</totfact>
</mgrwt>
</event>
<event>
 5    1  0.3270363E-002  0.1249979E+03  0.7818608E-02  0.1235073E+00
         -4   -1    0    0    0  501 -0.00000000000E+00  0.00000000000E+00  0.20610724035E+02  0.20649814654E+02  0.12700000000E+01 0.  1.
          4   -1    0    0  501    0  0.00000000000E+00 -0.00000000000E+00 -0.18929799691E+03  0.18930225707E+03  0.12700000000E+01 0.  1.
         25    2    1    2    0    0  0.00000000000E+00  0.00000000000E+00 -0.16868727287E+03  0.20995207173E+03  0.12499790556E+03 0.  0.
    9000005    1    3    3    0    0 -0.30690810324E+02  0.49611355942E+02 -0.46714098029E+02  0.74742353666E+02  0.10000000000E+01 0.  0.
    9000005    1    3    3    0    0  0.30690810324E+02 -0.49611355942E+02 -0.12197317484E+03  0.13520971806E+03  0.10000000000E+01 0.  0.
<mgrwt>
<rscale>  0 0.12499791E+03</rscale>
<asrwt>0</asrwt>
<pdfrwt beam="2">  1        4 0.29126102E-01 0.12499791E+03</pdfrwt>
<pdfrwt beam="1">  1       -4 0.31742154E-02 0.12499791E+03</pdfrwt>
<totfact> 0.88487853E+03</totfact>
</mgrwt>
</event>
<event>
 5    1  0.3270363E-002  0.1249911E+03  0.7818608E-02  0.1235083E+00
          4   -1    0    0  501    0  0.00000000000E+00  0.00000000000E+00  0.13338796269E+04  0.13338802315E+04  0.12700000000E+01 0.  1.
         -4   -1    0    0    0  501 -0.00000000000E+00 -0.00000000000E+00 -0.27897262394E+01  0.30652034991E+01  0.12700000000E+01 0.  1.
         25    2    1    2    0    0  0.00000000000E+00  0.00000000000E+00  0.13310899007E+04  0.13369454350E+04  0.12499108967E+03 0.  0.
    9000005    1    3    3    0    0 -0.58260671218E+02 -0.15229345926E+01  0.90664402446E+03  0.90851582938E+03  0.10000000000E+01 0.  0.
    9000005    1    3    3    0    0  0.58260671218E+02  0.15229345926E+01  0.42444587621E+03  0.42842960562E+03  0.10000000000E+01 0.  0.
<mgrwt>
<rscale>  0 0.12499109E+03</rscale>
<asrwt>0</asrwt>
<pdfrwt beam="1">  1        4 0.20523312E+00 0.12499109E+03</pdfrwt>
<pdfrwt beam="2">  1       -4 0.45042652E-03 0.12499109E+03</pdfrwt>
<totfact> 0.21377179E+03</totfact>
</mgrwt>
</event>
<event>
 5    1  0.3270363E-002  0.1249966E+03  0.7818608E-02  0.1235075E+00
         -4   -1    0    0    0  501 -0.00000000000E+00  0.00000000000E+00  0.13419716621E+04  0.13419722630E+04  0.12700000000E+01 0.  1.
          4   -1    0    0  501    0  0.00000000000E+00 -0.00000000000E+00 -0.27715080277E+01  0.30486319469E+01  0.12700000000E+01 0.  1.
         25    2    1    2    0    0  0.00000000000E+00  0.00000000000E+00  0.13392001540E+04  0.13450208949E+04  0.12499662113E+03 0.  0.
    9000005    1    3    3    0    0 -0.11761389793E+02  0.12321419291E+01  0.13298741236E+04  0.13299270781E+04  0.10000000000E+01 0.  0.
    9000005    1    3    3    0    0  0.11761389793E+02 -0.12321419291E+01  0.93260304609E+01  0.15093816872E+02  0.10000000000E+01 0.  0.
<mgrwt>
<rscale>  0 0.12499662E+03</rscale>
<asrwt>0</asrwt>
<pdfrwt beam="2">  1        4 0.44774913E-03 0.12499662E+03</pdfrwt>
<pdfrwt beam="1">  1       -4 0.20647862E+00 0.12499662E+03</pdfrwt>
<totfact> 0.21191756E+03</totfact>
</mgrwt>
</event>
<event>
 5    1  0.3270363E-002  0.1249995E+03  0.7818608E-02  0.1235070E+00
          4   -1    0    0  501    0  0.00000000000E+00  0.00000000000E+00  0.15591971000E+03  0.15592488212E+03  0.12700000000E+01 0. -1.
         -4   -1    0    0    0  501 -0.00000000000E+00 -0.00000000000E+00 -0.25031059639E+02  0.25063256905E+02  0.12700000000E+01 0. -1.
         25    2    1    2    0    0  0.00000000000E+00  0.00000000000E+00  0.13088865036E+03  0.18098813903E+03  0.12499947071E+03 0.  0.
    9000005    1    3    3    0    0 -0.17807330176E+02 -0.50549032643E+02  0.11197865202E+03  0.12414718771E+03  0.10000000000E+01 0.  0.
    9000005    1    3    3    0    0  0.17807330176E+02  0.50549032643E+02  0.18909998336E+02  0.56840951313E+02  0.10000000000E+01 0.  0.
<mgrwt>
<rscale>  0 0.12499947E+03</rscale>
<asrwt>0</asrwt>
<pdfrwt beam="1">  1        4 0.23990523E-01 0.12499947E+03</pdfrwt>
<pdfrwt beam="2">  1       -4 0.38538068E-02 0.12499947E+03</pdfrwt>
<totfact> 0.93440545E+03</totfact>
</mgrwt>
</event>
<event>
 5    1  0.3270363E-002  0.1250011E+03  0.7818608E-02  0.1235068E+00
         -4   -1    0    0    0  501 -0.00000000000E+00  0.00000000000E+00  0.51318519824E+02  0.51334232018E+02  0.12700000000E+01 0. -1.
          4   -1    0    0  501    0  0.00000000000E+00 -0.00000000000E+00 -0.76086427319E+02  0.76097025711E+02  0.12700000000E+01 0. -1.
         25    2    1    2    0    0  0.00000000000E+00  0.00000000000E+00 -0.24767907495E+02  0.12743125773E+03  0.12500110481E+03 0.  0.
    9000005    1    3    3    0    0 -0.25424080203E+02 -0.50655312686E+02  0.14452229145E+02  0.58499670808E+02  0.10000000000E+01 0.  0.
    9000005    1    3    3    0    0  0.25424080203E+02  0.50655312686E+02 -0.39220136640E+02  0.68931586921E+02  0.10000000000E+01 0.  0.
<mgrwt>
<rscale>  0 0.12500110E+03</rscale>
<asrwt>0</asrwt>
<pdfrwt beam="2">  1        4 0.11707628E-01 0.12500110E+03</pdfrwt>
<pdfrwt beam="1">  1       -4 0.78971808E-02 0.12500110E+03</pdfrwt>
<totfact> 0.10399530E+04</totfact>
</mgrwt>
</event>
<event>
 5    1  0.3270363E-002  0.1250005E+03  0.7818608E-02  0.1235068E+00
          4   -1    0    0  501    0  0.00000000000E+00  0.00000000000E+00  0.32785811224E+03  0.32786057199E+03  0.12700000000E+01 0.  1.
         -4   -1    0    0    0  501 -0.00000000000E+00 -0.00000000000E+00 -0.11878201118E+02  0.11945901465E+02  0.12700000000E+01 0.  1.
         25    2    1    2    0    0  0.00000000000E+00  0.00000000000E+00  0.31597991113E+03  0.33980647345E+03  0.12500054066E+03 0.  0.
    9000005    1    3    3    0    0  0.35874016575E+02  0.12976503899E+02  0.29254447361E+03  0.29502305632E+03  0.10000000000E+01 0.  0.
    9000005    1    3    3    0    0 -0.35874016575E+02 -0.12976503899E+02  0.23435437513E+02  0.44783417133E+02  0.10000000000E+01 0.  0.
<mgrwt>
<rscale>  0 0.12500054E+03</rscale>
<asrwt>0</asrwt>
<pdfrwt beam="1">  1        4 0.50445108E-01 0.12500054E+03</pdfrwt>
<pdfrwt beam="2">  1       -4 0.18328124E-02 0.12500054E+03</pdfrwt>
<totfact> 0.70859869E+03</totfact>
</mgrwt>
</event>
<event>
 5    1  0.3270363E-002  0.1250012E+03  0.7818608E-02  0.1235067E+00
         -4   -1    0    0    0  501 -0.00000000000E+00  0.00000000000E+00  0.14298587374E+03  0.14299151369E+03  0.12700000000E+01 0. -1.
          4   -1    0    0  501    0  0.00000000000E+00 -0.00000000000E+00 -0.27298722643E+02  0.27328248351E+02  0.12700000000E+01 0. -1.
         25    2    1    2    0    0  0.00000000000E+00  0.00000000000E+00  0.11568715109E+03  0.17031976204E+03  0.12500121765E+03 0.  0.
    9000005    1    3    3    0    0  0.12516880927E+02 -0.23338412518E+02  0.13496857505E+03  0.13754588347E+03  0.10000000000E+01 0.  0.
    9000005    1    3    3    0    0 -0.12516880927E+02  0.23338412518E+02 -0.19281423960E+02  0.32773878576E+02  0.10000000000E+01 0.  0.
<mgrwt>
<rscale>  0 0.12500122E+03</rscale>
<asrwt>0</asrwt>
<pdfrwt beam="2">  1        4 0.42025085E-02 0.12500122E+03</pdfrwt>
<pdfrwt beam="1">  1       -4 0.22000532E-01 0.12500122E+03</pdfrwt>
<totfact> 0.95386463E+03</totfact>
</mgrwt>
</event>
<event>
 5    1  0.3270363E-002  0.1249997E+03  0.7818608E-02  0.1235070E+00
         -4   -1    0    0    0  501 -0.00000000000E+00  0.00000000000E+00  0.15880431337E+02  0.15931133025E+02  0.12700000000E+01 0. -1.
          4   -1    0    0  501    0  0.00000000000E+00 -0.00000000000E+00 -0.24553340913E+03  0.24553669359E+03  0.12700000000E+01 0. -1.
         25    2    1    2    0    0  0.00000000000E+00  0.00000000000E+00 -0.22965297779E+03  0.26146782661E+03  0.12499973658E+03 0.  0.
    9000005    1    3    3    0    0 -0.39317782124E+02 -0.23432728766E+02 -0.20382418604E+03  0.20890256002E+03  0.10000000000E+01 0.  0.
    9000005    1    3    3    0    0  0.39317782124E+02  0.23432728766E+02 -0.25828791751E+02  0.52565266592E+02  0.10000000000E+01 0.  0.
<mgrwt>
<rscale>  0 0.12499974E+03</rscale>
<asrwt>0</asrwt>
<pdfrwt beam="2">  1        4 0.37778521E-01 0.12499974E+03</pdfrwt>
<pdfrwt beam="1">  1       -4 0.24472962E-02 0.12499974E+03</pdfrwt>
<totfact> 0.80700987E+03</totfact>
</mgrwt>
</event>
<event>
 5    1  0.3270363E-002  0.1250020E+03  0.7818608E-02  0.1235066E+00
          4   -1    0    0  501    0  0.00000000000E+00  0.00000000000E+00  0.32258175641E+03  0.32258425639E+03  0.12700000000E+01 0. -1.
         -4   -1    0    0    0  501 -0.00000000000E+00 -0.00000000000E+00 -0.12073874668E+02  0.12140483907E+02  0.12700000000E+01 0. -1.
         25    2    1    2    0    0  0.00000000000E+00  0.00000000000E+00  0.31050788175E+03  0.33472474030E+03  0.12500202855E+03 0.  0.
    9000005    1    3    3    0    0 -0.38772547809E+02 -0.15953633957E+02  0.27934548268E+03  0.28247606553E+03  0.10000000000E+01 0.  0.
    9000005    1    3    3    0    0  0.38772547809E+02  0.15953633957E+02  0.31162399064E+02  0.52248674772E+02  0.10000000000E+01 0.  0.
<mgrwt>
<rscale>  0 0.12500203E+03</rscale>
<asrwt>0</asrwt>
<pdfrwt beam="1">  1        4 0.49633270E-01 0.12500203E+03</pdfrwt>
<pdfrwt beam="2">  1       -4 0.18628356E-02 0.12500203E+03</pdfrwt>
<totfact> 0.71435166E+03</totfact>
</mgrwt>
</event>
<event>
 5    1  0.3270363E-002  0.1250349E+03  0.7818608E-02  0.1235015E+00
         -4   -1    0    0    0  501 -0.00000000000E+00  0.00000000000E+00  0.54775343083E+03  0.54775490312E+03  0.12700000000E+01 0.  1.
          4   -1    0    0  501    0  0.00000000000E+00 -0.00000000000E+00 -0.70773772316E+01  0.71904219959E+01  0.12700000000E+01 0.  1.
         25    2    1    2    0    0  0.00000000000E+00  0.00000000000E+00  0.54067605360E+03  0.55494532511E+03  0.12503487085E+03 0.  0.
    9000005    1    3    3    0    0 -0.36426925163E+02 -0.23567931630E+02  0.70610395737E+02  0.82880614526E+02  0.10000000000E+01 0.  0.
    9000005    1    3    3    0    0  0.36426925163E+02  0.23567931630E+02  0.47006565786E+03  0.47206471059E+03  0.10000000000E+01 0.  0.
<mgrwt>
<rscale>  0 0.12503487E+03</rscale>
<asrwt>0</asrwt>
<pdfrwt beam="2">  1        4 0.10976361E-02 0.12503487E+03</pdfrwt>
<pdfrwt beam="1">  1       -4 0.84278579E-01 0.12503487E+03</pdfrwt>
<totfact> 0.51801297E+03</totfact>
</mgrwt>
</event>
<event>
 5    1  0.3270363E-002  0.1250012E+03  0.7818608E-02  0.1235067E+00
          4   -1    0    0  501    0  0.00000000000E+00  0.00000000000E+00  0.16473654644E+02  0.16522536045E+02  0.12700000000E+01 0. -1.
         -4   -1    0    0    0  501 -0.00000000000E+00 -0.00000000000E+00 -0.23672357884E+03  0.23672698553E+03  0.12700000000E+01 0. -1.
         25    2    1    2    0    0  0.00000000000E+00  0.00000000000E+00 -0.22024992419E+03  0.25324952157E+03  0.12500116428E+03 0.  0.
    9000005    1    3    3    0    0  0.57393724580E+02 -0.23931984551E+02 -0.97547042677E+02  0.11568580311E+03  0.10000000000E+01 0.  0.
    9000005    1    3    3    0    0 -0.57393724580E+02  0.23931984551E+02 -0.12270288151E+03  0.13756371846E+03  0.10000000000E+01 0.  0.
<mgrwt>
<rscale>  0 0.12500116E+03</rscale>
<asrwt>0</asrwt>
<pdfrwt beam="1">  1        4 0.25384307E-02 0.12500116E+03</pdfrwt>
<pdfrwt beam="2">  1       -4 0.36423032E-01 0.12500116E+03</pdfrwt>
<totfact> 0.81860706E+03</totfact>
</mgrwt>
</event>
<event>
 5    1  0.3270363E-002  0.1250051E+03  0.7818608E-02  0.1235061E+00
          4   -1    0    0  501    0  0.00000000000E+00  0.00000000000E+00  0.59917210105E+02  0.59930667998E+02  0.12700000000E+01 0. -1.
         -4   -1    0    0    0  501 -0.00000000000E+00 -0.00000000000E+00 -0.65172462538E+02  0.65184835455E+02  0.12700000000E+01 0. -1.
         25    2    1    2    0    0  0.00000000000E+00  0.00000000000E+00 -0.52552524335E+01  0.12511550345E+03  0.12500508600E+03 0.  0.
    9000005    1    3    3    0    0  0.28220959082E+02  0.42121858418E+02 -0.39196105392E+02  0.64093745140E+02  0.10000000000E+01 0.  0.
    9000005    1    3    3    0    0 -0.28220959082E+02 -0.42121858418E+02  0.33940852959E+02  0.61021758313E+02  0.10000000000E+01 0.  0.
<mgrwt>
<rscale>  0 0.12500509E+03</rscale>
<asrwt>0</asrwt>
<pdfrwt beam="1">  1        4 0.92200193E-02 0.12500509E+03</pdfrwt>
<pdfrwt beam="2">  1       -4 0.10028520E-01 0.12500509E+03</pdfrwt>
<totfact> 0.10449153E+04</totfact>
</mgrwt>
</event>
<event>
 5    1  0.3270363E-002  0.1250039E+03  0.7818608E-02  0.1235063E+00
          4   -1    0    0  501    0  0.00000000000E+00  0.00000000000E+00  0.85874728358E+01  0.86808749390E+01  0.12700000000E+01 0. -1.
         -4   -1    0    0    0  501 -0.00000000000E+00 -0.00000000000E+00 -0.45235145184E+03  0.45235323463E+03  0.12700000000E+01 0. -1.
         25    2    1    2    0    0  0.00000000000E+00  0.00000000000E+00 -0.44376397901E+03  0.46103410957E+03  0.12500392444E+03 0.  0.
    9000005    1    3    3    0    0  0.14999580424E+02 -0.12480233963E+02 -0.29175095346E+01  0.19754885840E+02  0.10000000000E+01 0.  0.
    9000005    1    3    3    0    0 -0.14999580424E+02  0.12480233963E+02 -0.44084646947E+03  0.44127922373E+03  0.10000000000E+01 0.  0.
<mgrwt>
<rscale>  0 0.12500392E+03</rscale>
<asrwt>0</asrwt>
<pdfrwt beam="1">  1        4 0.13284719E-02 0.12500392E+03</pdfrwt>
<pdfrwt beam="2">  1       -4 0.69599835E-01 0.12500392E+03</pdfrwt>
<totfact> 0.59014598E+03</totfact>
</mgrwt>
</event>
<event>
 5    1  0.3270363E-002  0.1250005E+03  0.7818608E-02  0.1235069E+00
          4   -1    0    0  501    0  0.00000000000E+00  0.00000000000E+00  0.26057379260E+03  0.26057688748E+03  0.12700000000E+01 0.  1.
         -4   -1    0    0    0  501 -0.00000000000E+00 -0.00000000000E+00 -0.14960979041E+02  0.15014785842E+02  0.12700000000E+01 0.  1.
         25    2    1    2    0    0  0.00000000000E+00  0.00000000000E+00  0.24561281356E+03  0.27559167332E+03  0.12500046488E+03 0.  0.
    9000005    1    3    3    0    0  0.39732802637E+02  0.41092028256E+02  0.17849606578E+03  0.18742757505E+03  0.10000000000E+01 0.  0.
    9000005    1    3    3    0    0 -0.39732802637E+02 -0.41092028256E+02  0.67116747782E+02  0.88164098274E+02  0.10000000000E+01 0.  0.
<mgrwt>
<rscale>  0 0.12500046E+03</rscale>
<asrwt>0</asrwt>
<pdfrwt beam="1">  1        4 0.40092650E-01 0.12500046E+03</pdfrwt>
<pdfrwt beam="2">  1       -4 0.23060663E-02 0.12500046E+03</pdfrwt>
<totfact> 0.78765459E+03</totfact>
</mgrwt>
</event>
<event>
 5    1  0.3270363E-002  0.1250256E+03  0.7818608E-02  0.1235029E+00
          4   -1    0    0  501    0  0.00000000000E+00  0.00000000000E+00  0.18754251868E+02  0.18797203599E+02  0.12700000000E+01 0.  1.
         -4   -1    0    0    0  501 -0.00000000000E+00 -0.00000000000E+00 -0.20808811903E+03  0.20809199452E+03  0.12700000000E+01 0.  1.
         25    2    1    2    0    0  0.00000000000E+00  0.00000000000E+00 -0.18933386716E+03  0.22688919812E+03  0.12502557725E+03 0.  0.
    9000005    1    3    3    0    0  0.81678817677E+01 -0.57885890729E+02 -0.54522221819E+02  0.79944751611E+02  0.10000000000E+01 0.  0.
    9000005    1    3    3    0    0 -0.81678817677E+01  0.57885890729E+02 -0.13481164534E+03  0.14694444650E+03  0.10000000000E+01 0.  0.
<mgrwt>
<rscale>  0 0.12502558E+03</rscale>
<asrwt>0</asrwt>
<pdfrwt beam="1">  1        4 0.28888718E-02 0.12502558E+03</pdfrwt>
<pdfrwt beam="2">  1       -4 0.32017157E-01 0.12502558E+03</pdfrwt>
<totfact> 0.85740612E+03</totfact>
</mgrwt>
</event>
<event>
 5    1  0.3270363E-002  0.1250034E+03  0.7818608E-02  0.1235064E+00
         -4   -1    0    0    0  501 -0.00000000000E+00  0.00000000000E+00  0.95952607968E+01  0.96789425951E+01  0.12700000000E+01 0.  1.
          4   -1    0    0  501    0  0.00000000000E+00 -0.00000000000E+00 -0.40527183207E+03  0.40527382197E+03  0.12700000000E+01 0.  1.
         25    2    1    2    0    0  0.00000000000E+00  0.00000000000E+00 -0.39567657128E+03  0.41495276456E+03  0.12500339100E+03 0.  0.
    9000005    1    3    3    0    0 -0.62066317330E+02  0.71855474598E+01 -0.19363661686E+03  0.20346989760E+03  0.10000000000E+01 0.  0.
    9000005    1    3    3    0    0  0.62066317330E+02 -0.71855474598E+01 -0.20203995441E+03  0.21148286696E+03  0.10000000000E+01 0.  0.
<mgrwt>
<rscale>  0 0.12500339E+03</rscale>
<asrwt>0</asrwt>
<pdfrwt beam="2">  1        4 0.62356089E-01 0.12500339E+03</pdfrwt>
<pdfrwt beam="1">  1       -4 0.14827844E-02 0.12500339E+03</pdfrwt>
<totfact> 0.63119310E+03</totfact>
</mgrwt>
</event>
<event>
 5    1  0.3270363E-002  0.1249980E+03  0.7818608E-02  0.1235072E+00
          4   -1    0    0  501    0  0.00000000000E+00  0.00000000000E+00  0.78018022444E+02  0.78028358474E+02  0.12700000000E+01 0.  1.
         -4   -1    0    0    0  501 -0.00000000000E+00 -0.00000000000E+00 -0.50045276750E+02  0.50061388565E+02  0.12700000000E+01 0.  1.
         25    2    1    2    0    0  0.00000000000E+00  0.00000000000E+00  0.27972745694E+02  0.12808974704E+03  0.12499803516E+03 0.  0.
    9000005    1    3    3    0    0  0.74600082505E+01  0.23078700406E+02 -0.45030206802E+02  0.51156599380E+02  0.10000000000E+01 0.  0.
    9000005    1    3    3    0    0 -0.74600082505E+01 -0.23078700406E+02  0.73002952496E+02  0.76933147658E+02  0.10000000000E+01 0.  0.
<mgrwt>
<rscale>  0 0.12499804E+03</rscale>
<asrwt>0</asrwt>
<pdfrwt beam="1">  1        4 0.12004807E-01 0.12499804E+03</pdfrwt>
<pdfrwt beam="2">  1       -4 0.77013078E-02 0.12499804E+03</pdfrwt>
<totfact> 0.10386011E+04</totfact>
</mgrwt>
</event>
<event>
 5    1  0.3270363E-002  0.1249969E+03  0.7818608E-02  0.1235074E+00
          4   -1    0    0  501    0  0.00000000000E+00  0.00000000000E+00  0.23893642459E+02  0.23927370311E+02  0.12700000000E+01 0. -1.
         -4   -1    0    0    0  501 -0.00000000000E+00 -0.00000000000E+00 -0.16332536230E+03  0.16333029992E+03  0.12700000000E+01 0. -1.
         25    2    1    2    0    0  0.00000000000E+00  0.00000000000E+00 -0.13943171985E+03  0.18725767023E+03  0.12499692221E+03 0.  0.
    9000005    1    3    3    0    0  0.61938327329E+02 -0.75395677489E+01 -0.64557490587E+02  0.89787922713E+02  0.10000000000E+01 0.  0.
    9000005    1    3    3    0    0 -0.61938327329E+02  0.75395677489E+01 -0.74874229258E+02  0.97469747518E+02  0.10000000000E+01 0.  0.
<mgrwt>
<rscale>  0 0.12499692E+03</rscale>
<asrwt>0</asrwt>
<pdfrwt beam="1">  1        4 0.36789194E-02 0.12499692E+03</pdfrwt>
<pdfrwt beam="2">  1       -4 0.25129952E-01 0.12499692E+03</pdfrwt>
<totfact> 0.92333040E+03</totfact>
</mgrwt>
</event>
<event>
 5    1  0.3270363E-002  0.1250066E+03  0.7818608E-02  0.1235059E+00
          4   -1    0    0  501    0  0.00000000000E+00  0.00000000000E+00  0.43697627161E+02  0.43716078500E+02  0.12700000000E+01 0.  1.
         -4   -1    0    0    0  501 -0.00000000000E+00 -0.00000000000E+00 -0.89360293400E+02  0.89369317646E+02  0.12700000000E+01 0.  1.
         25    2    1    2    0    0  0.00000000000E+00  0.00000000000E+00 -0.45662666239E+02  0.13308539615E+03  0.12500657414E+03 0.  0.
    9000005    1    3    3    0    0  0.38271350557E+02 -0.25497905033E+02 -0.67884330860E+02  0.82000742745E+02  0.10000000000E+01 0.  0.
    9000005    1    3    3    0    0 -0.38271350557E+02  0.25497905033E+02  0.22221664620E+02  0.51084653401E+02  0.10000000000E+01 0.  0.
<mgrwt>
<rscale>  0 0.12500657E+03</rscale>
<asrwt>0</asrwt>
<pdfrwt beam="1">  1        4 0.67248254E-02 0.12500657E+03</pdfrwt>
<pdfrwt beam="2">  1       -4 0.13749851E-01 0.12500657E+03</pdfrwt>
<totfact> 0.10277061E+04</totfact>
</mgrwt>
</event>
<event>
 5    1  0.3270363E-002  0.1250044E+03  0.7818608E-02  0.1235062E+00
         -4   -1    0    0    0  501 -0.00000000000E+00  0.00000000000E+00  0.42815171176E+03  0.42815359532E+03  0.12700000000E+01 0. -1.
          4   -1    0    0  501    0  0.00000000000E+00 -0.00000000000E+00 -0.90780525391E+01  0.91664572166E+01  0.12700000000E+01 0. -1.
         25    2    1    2    0    0  0.00000000000E+00  0.00000000000E+00  0.41907365922E+03  0.43732005253E+03  0.12500438590E+03 0.  0.
    9000005    1    3    3    0    0  0.85401560511E+01  0.44907873726E+02  0.60457701303E+02  0.75800956688E+02  0.10000000000E+01 0.  0.
    9000005    1    3    3    0    0 -0.85401560511E+01 -0.44907873726E+02  0.35861595792E+03  0.36151909585E+03  0.10000000000E+01 0.  0.
<mgrwt>
<rscale>  0 0.12500439E+03</rscale>
<asrwt>0</asrwt>
<pdfrwt beam="2">  1        4 0.14035688E-02 0.12500439E+03</pdfrwt>
<pdfrwt beam="1">  1       -4 0.65876437E-01 0.12500439E+03</pdfrwt>
<totfact> 0.61072128E+03</totfact>
</mgrwt>
</event>
<event>
 4    1  0.3270363E-002  0.1251271E+03  0.7818608E-02  0.1234871E+00
          4   -1    0    0  501    0  0.00000000000E+00  0.00000000000E+00  0.51051078021E+02  0.51066872502E+02  0.12700000000E+01 0.  1.
         -4   -1    0    0    0  501 -0.00000000000E+00 -0.00000000000E+00 -0.76639219563E+02  0.76649741521E+02  0.12700000000E+01 0.  1.
    9000005    1    1    2    0    0 -0.38293074046E+02 -0.40478240453E+02 -0.41813927002E+02  0.69672462002E+02  0.10000000000E+01 0.  0.
    9000005    1    1    2    0    0  0.38293074046E+02  0.40478240453E+02  0.16225785461E+02  0.58044152021E+02  0.10000000000E+01 0.  0.
<mgrwt>
<rscale>  0 0.12512706E+03</rscale>
<asrwt>0</asrwt>
<pdfrwt beam="1">  1        4 0.78560363E-02 0.12512706E+03</pdfrwt>
<pdfrwt beam="2">  1       -4 0.11792674E-01 0.12512706E+03</pdfrwt>
<totfact> 0.10363857E+04</totfact>
</mgrwt>
</event>
<event>
 5    1  0.3270363E-002  0.1249991E+03  0.7818608E-02  0.1235071E+00
         -4   -1    0    0    0  501 -0.00000000000E+00  0.00000000000E+00  0.39913343724E+01  0.41885140650E+01  0.12700000000E+01 0.  1.
          4   -1    0    0  501    0  0.00000000000E+00 -0.00000000000E+00 -0.95487892159E+03  0.95487976615E+03  0.12700000000E+01 0.  1.
         25    2    1    2    0    0  0.00000000000E+00  0.00000000000E+00 -0.95088758722E+03  0.95906828021E+03  0.12499905033E+03 0.  0.
    9000005    1    3    3    0    0 -0.52615025467E+02  0.20523343711E+02 -0.68069738082E+03  0.68303694834E+03  0.10000000000E+01 0.  0.
    9000005    1    3    3    0    0  0.52615025467E+02 -0.20523343711E+02 -0.27019020640E+03  0.27603133187E+03  0.10000000000E+01 0.  0.
<mgrwt>
<rscale>  0 0.12499905E+03</rscale>
<asrwt>0</asrwt>
<pdfrwt beam="2">  1        4 0.14691950E+00 0.12499905E+03</pdfrwt>
<pdfrwt beam="1">  1       -4 0.62928484E-03 0.12499905E+03</pdfrwt>
<totfact> 0.31996884E+03</totfact>
</mgrwt>
</event>
<event>
 5    1  0.3270363E-002  0.1249770E+03  0.7818608E-02  0.1235105E+00
         -4   -1    0    0    0  501 -0.00000000000E+00  0.00000000000E+00  0.65376473581E+01  0.66598598317E+01  0.12700000000E+01 0.  1.
          4   -1    0    0  501    0  0.00000000000E+00 -0.00000000000E+00 -0.59162679624E+03  0.59162815935E+03  0.12700000000E+01 0.  1.
         25    2    1    2    0    0  0.00000000000E+00  0.00000000000E+00 -0.58508914889E+03  0.59828801918E+03  0.12497696488E+03 0.  0.
    9000005    1    3    3    0    0  0.53999536793E+02 -0.28193796222E+02 -0.22604397053E+03  0.23411047975E+03  0.10000000000E+01 0.  0.
    9000005    1    3    3    0    0 -0.53999536793E+02  0.28193796222E+02 -0.35904517836E+03  0.36417753943E+03  0.10000000000E+01 0.  0.
<mgrwt>
<rscale>  0 0.12497696E+03</rscale>
<asrwt>0</asrwt>
<pdfrwt beam="2">  1        4 0.91028971E-01 0.12497696E+03</pdfrwt>
<pdfrwt beam="1">  1       -4 0.10152982E-02 0.12497696E+03</pdfrwt>
<totfact> 0.49000618E+03</totfact>
</mgrwt>
</event>
<event>
 5    1  0.3270363E-002  0.1250010E+03  0.7818608E-02  0.1235068E+00
         -4   -1    0    0    0  501 -0.00000000000E+00  0.00000000000E+00  0.57843757004E+02  0.57857697192E+02  0.12700000000E+01 0. -1.
          4   -1    0    0  501    0  0.00000000000E+00 -0.00000000000E+00 -0.67504124415E+02  0.67516070036E+02  0.12700000000E+01 0. -1.
         25    2    1    2    0    0  0.00000000000E+00  0.00000000000E+00 -0.96603674110E+01  0.12537376723E+03  0.12500103524E+03 0.  0.
    9000005    1    3    3    0    0 -0.84601517566E+01  0.61416426334E+02 -0.12712568799E+02  0.63294241419E+02  0.10000000000E+01 0.  0.
    9000005    1    3    3    0    0  0.84601517566E+01 -0.61416426334E+02  0.30522013881E+01  0.62079525809E+02  0.10000000000E+01 0.  0.
<mgrwt>
<rscale>  0 0.12500104E+03</rscale>
<asrwt>0</asrwt>
<pdfrwt beam="2">  1        4 0.10387241E-01 0.12500104E+03</pdfrwt>
<pdfrwt beam="1">  1       -4 0.89010307E-02 0.12500104E+03</pdfrwt>
<totfact> 0.10444505E+04</totfact>
</mgrwt>
</event>
<event>
 5    1  0.3270363E-002  0.1250051E+03  0.7818608E-02  0.1235061E+00
          4   -1    0    0  501    0  0.00000000000E+00  0.00000000000E+00  0.70744327016E+02  0.70755725598E+02  0.12700000000E+01 0. -1.
         -4   -1    0    0    0  501 -0.00000000000E+00 -0.00000000000E+00 -0.55197771927E+02  0.55212380185E+02  0.12700000000E+01 0. -1.
         25    2    1    2    0    0  0.00000000000E+00  0.00000000000E+00  0.15546555089E+02  0.12596810578E+03  0.12500507310E+03 0.  0.
    9000005    1    3    3    0    0  0.18305522438E+02  0.10916075070E+02  0.66973755272E+02  0.70290374461E+02  0.10000000000E+01 0.  0.
    9000005    1    3    3    0    0 -0.18305522438E+02 -0.10916075070E+02 -0.51427200183E+02  0.55677731323E+02  0.10000000000E+01 0.  0.
<mgrwt>
<rscale>  0 0.12500507E+03</rscale>
<asrwt>0</asrwt>
<pdfrwt beam="1">  1        4 0.10885743E-01 0.12500507E+03</pdfrwt>
<pdfrwt beam="2">  1       -4 0.84939655E-02 0.12500507E+03</pdfrwt>
<totfact> 0.10430462E+04</totfact>
</mgrwt>
</event>
<event>
 5    1  0.3270363E-002  0.1250016E+03  0.7818608E-02  0.1235067E+00
          4   -1    0    0  501    0  0.00000000000E+00  0.00000000000E+00  0.14270558013E+02  0.14326958017E+02  0.12700000000E+01 0.  1.
         -4   -1    0    0    0  501 -0.00000000000E+00 -0.00000000000E+00 -0.27313719007E+03  0.27314014260E+03  0.12700000000E+01 0.  1.
         25    2    1    2    0    0  0.00000000000E+00  0.00000000000E+00 -0.25886663206E+03  0.28746710062E+03  0.12500160297E+03 0.  0.
    9000005    1    3    3    0    0  0.22177303207E+02  0.49491079063E+02 -0.20084100573E+03  0.20803679787E+03  0.10000000000E+01 0.  0.
    9000005    1    3    3    0    0 -0.22177303207E+02 -0.49491079063E+02 -0.58025626330E+02  0.79430302752E+02  0.10000000000E+01 0.  0.
<mgrwt>
<rscale>  0 0.12500160E+03</rscale>
<asrwt>0</asrwt>
<pdfrwt beam="1">  1        4 0.22000363E-02 0.12500160E+03</pdfrwt>
<pdfrwt beam="2">  1       -4 0.42025668E-01 0.12500160E+03</pdfrwt>
<totfact> 0.77195579E+03</totfact>
</mgrwt>
</event>
<event>
 5    1  0.3270363E-002  0.1250074E+03  0.7818608E-02  0.1235058E+00
         -4   -1    0    0    0  501 -0.00000000000E+00  0.00000000000E+00  0.21524245506E+01  0.24991661502E+01  0.12700000000E+01 0. -1.
          4   -1    0    0  501    0  0.00000000000E+00 -0.00000000000E+00 -0.16793837904E+04  0.16793842706E+04  0.12700000000E+01 0. -1.
         25    2    1    2    0    0  0.00000000000E+00  0.00000000000E+00 -0.16772313659E+04  0.16818834368E+04  0.12500736076E+03 0.  0.
    9000005    1    3    3    0    0  0.38259313931E+00 -0.58275290065E+02 -0.53490817915E+03  0.53807426619E+03  0.10000000000E+01 0.  0.
    9000005    1    3    3    0    0 -0.38259313931E+00  0.58275290065E+02 -0.11423231867E+04  0.11438091706E+04  0.10000000000E+01 0.  0.
<mgrwt>
<rscale>  0 0.12500736E+03</rscale>
<asrwt>0</asrwt>
<pdfrwt beam="2">  1        4 0.25839248E+00 0.12500736E+03</pdfrwt>
<pdfrwt beam="1">  1       -4 0.35785295E-03 0.12500736E+03</pdfrwt>
<totfact> 0.14610171E+03</totfact>
</mgrwt>
</event>
<event>
 5    1  0.3270363E-002  0.1249958E+03  0.7818608E-02  0.1235076E+00
          4   -1    0    0  501    0  0.00000000000E+00  0.00000000000E+00  0.10374788202E+03  0.10375565490E+03  0.12700000000E+01 0. -1.
         -4   -1    0    0    0  501 -0.00000000000E+00 -0.00000000000E+00 -0.37628928189E+02  0.37650353738E+02  0.12700000000E+01 0. -1.
         25    2    1    2    0    0  0.00000000000E+00  0.00000000000E+00  0.66118953835E+02  0.14140600864E+03  0.12499577282E+03 0.  0.
    9000005    1    3    3    0    0 -0.24125394102E+01 -0.67996614382E+01  0.10328065333E+03  0.10353718701E+03  0.10000000000E+01 0.  0.
    9000005    1    3    3    0    0  0.24125394102E+01  0.67996614382E+01 -0.37161699496E+02  0.37868821628E+02  0.10000000000E+01 0.  0.
<mgrwt>
<rscale>  0 0.12499577E+03</rscale>
<asrwt>0</asrwt>
<pdfrwt beam="1">  1        4 0.15963459E-01 0.12499577E+03</pdfrwt>
<pdfrwt beam="2">  1       -4 0.57913118E-02 0.12499577E+03</pdfrwt>
<totfact> 0.10105491E+04</totfact>
</mgrwt>
</event>
<event>
 5    1  0.3270363E-002  0.1250276E+03  0.7818608E-02  0.1235026E+00
          4   -1    0    0  501    0  0.00000000000E+00  0.00000000000E+00  0.25476508595E+02  0.25508143605E+02  0.12700000000E+01 0. -1.
         -4   -1    0    0    0  501 -0.00000000000E+00 -0.00000000000E+00 -0.15326579143E+03  0.15327105311E+03  0.12700000000E+01 0. -1.
         25    2    1    2    0    0  0.00000000000E+00  0.00000000000E+00 -0.12778928283E+03  0.17877919672E+03  0.12502759844E+03 0.  0.
    9000005    1    3    3    0    0 -0.33528834015E+02  0.47878432538E+02 -0.32227591120E+02  0.66754360472E+02  0.10000000000E+01 0.  0.
    9000005    1    3    3    0    0  0.33528834015E+02 -0.47878432538E+02 -0.95561691715E+02  0.11202483625E+03  0.10000000000E+01 0.  0.
<mgrwt>
<rscale>  0 0.12502760E+03</rscale>
<asrwt>0</asrwt>
<pdfrwt beam="1">  1        4 0.39223012E-02 0.12502760E+03</pdfrwt>
<pdfrwt beam="2">  1       -4 0.23582190E-01 0.12502760E+03</pdfrwt>
<totfact> 0.93779164E+03</totfact>
</mgrwt>
</event>
<event>
 5    1  0.3270363E-002  0.1249892E+03  0.7818608E-02  0.1235086E+00
          4   -1    0    0  501    0  0.00000000000E+00  0.00000000000E+00  0.25767608936E+04  0.25767612065E+04  0.12700000000E+01 0.  1.
         -4   -1    0    0    0  501 -0.00000000000E+00 -0.00000000000E+00 -0.12492902645E+01  0.17814674190E+01  0.12700000000E+01 0.  1.
         25    2    1    2    0    0  0.00000000000E+00  0.00000000000E+00  0.25755116033E+04  0.25785426740E+04  0.12498921021E+03 0.  0.
    9000005    1    3    3    0    0  0.51900391202E+02  0.20997060852E+02  0.71527511760E+03  0.71746360258E+03  0.10000000000E+01 0.  0.
    9000005    1    3    3    0    0 -0.51900391202E+02 -0.20997060852E+02  0.18602364857E+04  0.18610790714E+04  0.10000000000E+01 0.  0.
<mgrwt>
<rscale>  0 0.12498921E+03</rscale>
<asrwt>0</asrwt>
<pdfrwt beam="1">  1        4 0.39646567E+00 0.12498921E+03</pdfrwt>
<pdfrwt beam="2">  1       -4 0.23315931E-03 0.12498921E+03</pdfrwt>
<totfact> 0.40822277E+02</totfact>
</mgrwt>
</event>
<event>
 5    1  0.3270363E-002  0.1250043E+03  0.7818608E-02  0.1235063E+00
          4   -1    0    0  501    0  0.00000000000E+00  0.00000000000E+00  0.61737734094E+02  0.61750795226E+02  0.12700000000E+01 0. -1.
         -4   -1    0    0    0  501 -0.00000000000E+00 -0.00000000000E+00 -0.63249876135E+02  0.63262625072E+02  0.12700000000E+01 0. -1.
         25    2    1    2    0    0  0.00000000000E+00  0.00000000000E+00 -0.15121420406E+01  0.12501342030E+03  0.12500427465E+03 0.  0.
    9000005    1    3    3    0    0  0.23934906150E+02 -0.41524950657E+02 -0.40862819291E+02  0.62991834867E+02  0.10000000000E+01 0.  0.
    9000005    1    3    3    0    0 -0.23934906150E+02  0.41524950657E+02  0.39350677250E+02  0.62021585432E+02  0.10000000000E+01 0.  0.
<mgrwt>
<rscale>  0 0.12500427E+03</rscale>
<asrwt>0</asrwt>
<pdfrwt beam="1">  1        4 0.95000983E-02 0.12500427E+03</pdfrwt>
<pdfrwt beam="2">  1       -4 0.97327356E-02 0.12500427E+03</pdfrwt>
<totfact> 0.10451561E+04</totfact>
</mgrwt>
</event>
<event>
 5    1  0.3270363E-002  0.1250312E+03  0.7818608E-02  0.1235021E+00
          4   -1    0    0  501    0  0.00000000000E+00  0.00000000000E+00  0.22692343129E+02  0.22727853764E+02  0.12700000000E+01 0. -1.
         -4   -1    0    0    0  501 -0.00000000000E+00 -0.00000000000E+00 -0.17205297384E+03  0.17205766099E+03  0.12700000000E+01 0. -1.
         25    2    1    2    0    0  0.00000000000E+00  0.00000000000E+00 -0.14936063071E+03  0.19478551476E+03  0.12503119112E+03 0.  0.
    9000005    1    3    3    0    0 -0.12365966973E+02  0.46439753859E+02 -0.13694999601E+03  0.14514086015E+03  0.10000000000E+01 0.  0.
    9000005    1    3    3    0    0  0.12365966973E+02 -0.46439753859E+02 -0.12410634700E+02  0.49644654610E+02  0.10000000000E+01 0.  0.
<mgrwt>
<rscale>  0 0.12503119E+03</rscale>
<asrwt>0</asrwt>
<pdfrwt beam="1">  1        4 0.34942220E-02 0.12503119E+03</pdfrwt>
<pdfrwt beam="2">  1       -4 0.26472780E-01 0.12503119E+03</pdfrwt>
<totfact> 0.90957718E+03</totfact>
</mgrwt>
</event>
<event>
 5    1  0.3270363E-002  0.1250074E+03  0.7818608E-02  0.1235058E+00
          4   -1    0    0  501    0  0.00000000000E+00  0.00000000000E+00  0.33595535449E+02  0.33619531557E+02  0.12700000000E+01 0.  1.
         -4   -1    0    0    0  501 -0.00000000000E+00 -0.00000000000E+00 -0.11621761923E+03  0.11622455816E+03  0.12700000000E+01 0.  1.
         25    2    1    2    0    0  0.00000000000E+00  0.00000000000E+00 -0.82622083778E+02  0.14984408971E+03  0.12500736976E+03 0.  0.
    9000005    1    3    3    0    0  0.44763111818E+02  0.39301039982E+02 -0.18649841300E+02  0.62426953344E+02  0.10000000000E+01 0.  0.
    9000005    1    3    3    0    0 -0.44763111818E+02 -0.39301039982E+02 -0.63972242478E+02  0.87417136369E+02  0.10000000000E+01 0.  0.
<mgrwt>
<rscale>  0 0.12500737E+03</rscale>
<asrwt>0</asrwt>
<pdfrwt beam="1">  1        4 0.51709236E-02 0.12500737E+03</pdfrwt>
<pdfrwt beam="2">  1       -4 0.17882013E-01 0.12500737E+03</pdfrwt>
<totfact> 0.99318311E+03</totfact>
</mgrwt>
</event>
<event>
 5    1  0.3270363E-002  0.1250322E+03  0.7818608E-02  0.1235019E+00
          4   -1    0    0  501    0  0.00000000000E+00  0.00000000000E+00  0.18996398754E+02  0.19038804207E+02  0.12700000000E+01 0. -1.
         -4   -1    0    0    0  501 -0.00000000000E+00 -0.00000000000E+00 -0.20546336831E+03  0.20546729330E+03  0.12700000000E+01 0. -1.
         25    2    1    2    0    0  0.00000000000E+00  0.00000000000E+00 -0.18646696955E+03  0.22450609751E+03  0.12503222418E+03 0.  0.
    9000005    1    3    3    0    0 -0.44440588620E+02 -0.41571263251E+02 -0.11888765234E+03  0.13356050960E+03  0.10000000000E+01 0.  0.
    9000005    1    3    3    0    0  0.44440588620E+02  0.41571263251E+02 -0.67579317214E+02  0.90945587910E+02  0.10000000000E+01 0.  0.
<mgrwt>
<rscale>  0 0.12503222E+03</rscale>
<asrwt>0</asrwt>
<pdfrwt beam="1">  1        4 0.29260869E-02 0.12503222E+03</pdfrwt>
<pdfrwt beam="2">  1       -4 0.31613311E-01 0.12503222E+03</pdfrwt>
<totfact> 0.86098341E+03</totfact>
</mgrwt>
</event>
<event>
 5    1  0.3270363E-002  0.1250014E+03  0.7818608E-02  0.1235067E+00
          4   -1    0    0  501    0  0.00000000000E+00  0.00000000000E+00  0.25103253284E+02  0.25135358072E+02  0.12700000000E+01 0.  1.
         -4   -1    0    0    0  501 -0.00000000000E+00 -0.00000000000E+00 -0.15547656882E+03  0.15548175569E+03  0.12700000000E+01 0.  1.
         25    2    1    2    0    0  0.00000000000E+00  0.00000000000E+00 -0.13037331554E+03  0.18061711376E+03  0.12500136151E+03 0.  0.
    9000005    1    3    3    0    0  0.56789284853E+02  0.41671443397E-01 -0.10287419310E+03  0.11751223007E+03  0.10000000000E+01 0.  0.
    9000005    1    3    3    0    0 -0.56789284853E+02 -0.41671443397E-01 -0.27499122437E+02  0.63104883689E+02  0.10000000000E+01 0.  0.
<mgrwt>
<rscale>  0 0.12500136E+03</rscale>
<asrwt>0</asrwt>
<pdfrwt beam="1">  1        4 0.38649077E-02 0.12500136E+03</pdfrwt>
<pdfrwt beam="2">  1       -4 0.23922340E-01 0.12500136E+03</pdfrwt>
<totfact> 0.93503185E+03</totfact>
</mgrwt>
</event>
<event>
 5    1  0.3270363E-002  0.1250062E+03  0.7818608E-02  0.1235060E+00
         -4   -1    0    0    0  501 -0.00000000000E+00  0.00000000000E+00  0.73664200029E+01  0.74750948930E+01  0.12700000000E+01 0. -1.
          4   -1    0    0  501    0  0.00000000000E+00 -0.00000000000E+00 -0.52633742337E+03  0.52633895556E+03  0.12700000000E+01 0. -1.
         25    2    1    2    0    0  0.00000000000E+00  0.00000000000E+00 -0.51897100337E+03  0.53381405046E+03  0.12500615235E+03 0.  0.
    9000005    1    3    3    0    0  0.51855731981E+02 -0.20172708332E+02 -0.38099638163E+03  0.38503921607E+03  0.10000000000E+01 0.  0.
    9000005    1    3    3    0    0 -0.51855731981E+02  0.20172708332E+02 -0.13797462174E+03  0.14877483438E+03  0.10000000000E+01 0.  0.
<mgrwt>
<rscale>  0 0.12500615E+03</rscale>
<asrwt>0</asrwt>
<pdfrwt beam="2">  1        4 0.80983436E-01 0.12500615E+03</pdfrwt>
<pdfrwt beam="1">  1       -4 0.11417733E-02 0.12500615E+03</pdfrwt>
<totfact> 0.53325859E+03</totfact>
</mgrwt>
</event>
<event>
 5    1  0.3270363E-002  0.1249992E+03  0.7818608E-02  0.1235071E+00
         -4   -1    0    0    0  501 -0.00000000000E+00  0.00000000000E+00  0.12829192382E+04  0.12829198668E+04  0.12700000000E+01 0. -1.
          4   -1    0    0  501    0  0.00000000000E+00 -0.00000000000E+00 -0.29116869947E+01  0.31766052879E+01  0.12700000000E+01 0. -1.
         25    2    1    2    0    0  0.00000000000E+00  0.00000000000E+00  0.12800075512E+04  0.12860964721E+04  0.12499921755E+03 0.  0.
    9000005    1    3    3    0    0  0.44884003722E+02  0.38066131350E+02  0.42379202881E+03  0.42786012648E+03  0.10000000000E+01 0.  0.
    9000005    1    3    3    0    0 -0.44884003722E+02 -0.38066131350E+02  0.85621552242E+03  0.85823634564E+03  0.10000000000E+01 0.  0.
<mgrwt>
<rscale>  0 0.12499922E+03</rscale>
<asrwt>0</asrwt>
<pdfrwt beam="2">  1        4 0.46837671E-03 0.12499922E+03</pdfrwt>
<pdfrwt beam="1">  1       -4 0.19739338E+00 0.12499922E+03</pdfrwt>
<totfact> 0.22559326E+03</totfact>
</mgrwt>
</event>
<event>
 5    1  0.3270363E-002  0.1250114E+03  0.7818608E-02  0.1235051E+00
         -4   -1    0    0    0  501 -0.00000000000E+00  0.00000000000E+00  0.37714377100E+03  0.37714590930E+03  0.12700000000E+01 0. -1.
          4   -1    0    0  501    0  0.00000000000E+00 -0.00000000000E+00 -0.10318244571E+02  0.10396108456E+02  0.12700000000E+01 0. -1.
         25    2    1    2    0    0  0.00000000000E+00  0.00000000000E+00  0.36682552643E+03  0.38754201776E+03  0.12501139424E+03 0.  0.
    9000005    1    3    3    0    0 -0.11585543367E+02  0.16051578145E+02  0.36718304391E+03  0.36771764400E+03  0.10000000000E+01 0.  0.
    9000005    1    3    3    0    0  0.11585543367E+02 -0.16051578145E+02 -0.35751748158E+00  0.19824373756E+02  0.10000000000E+01 0.  0.
<mgrwt>
<rscale>  0 0.12501139E+03</rscale>
<asrwt>0</asrwt>
<pdfrwt beam="2">  1        4 0.15935764E-02 0.12501139E+03</pdfrwt>
<pdfrwt beam="1">  1       -4 0.58028267E-01 0.12501139E+03</pdfrwt>
<totfact> 0.65766192E+03</totfact>
</mgrwt>
</event>
<event>
 5    1  0.3270363E-002  0.1249474E+03  0.7818608E-02  0.1235152E+00
          4   -1    0    0  501    0  0.00000000000E+00  0.00000000000E+00  0.53413446986E+02  0.53428543111E+02  0.12700000000E+01 0.  1.
         -4   -1    0    0    0  501 -0.00000000000E+00 -0.00000000000E+00 -0.73039824430E+02  0.73050864832E+02  0.12700000000E+01 0.  1.
         25    2    1    2    0    0  0.00000000000E+00  0.00000000000E+00 -0.19626377444E+02  0.12647940794E+03  0.12494737269E+03 0.  0.
    9000005    1    3    3    0    0 -0.11620598950E+02 -0.37490731370E+02  0.39376554236E+02  0.55606710765E+02  0.10000000000E+01 0.  0.
    9000005    1    3    3    0    0  0.11620598950E+02  0.37490731370E+02 -0.59002931679E+02  0.70872697178E+02  0.10000000000E+01 0.  0.
<mgrwt>
<rscale>  0 0.12494737E+03</rscale>
<asrwt>0</asrwt>
<pdfrwt beam="1">  1        4 0.82194639E-02 0.12494737E+03</pdfrwt>
<pdfrwt beam="2">  1       -4 0.11238907E-01 0.12494737E+03</pdfrwt>
<totfact> 0.10432865E+04</totfact>
</mgrwt>
</event>
<event>
 5    1  0.3270363E-002  0.1249995E+03  0.7818608E-02  0.1235070E+00
          4   -1    0    0  501    0  0.00000000000E+00  0.00000000000E+00  0.16552632295E+04  0.16552637167E+04  0.12700000000E+01 0. -1.
         -4   -1    0    0    0  501 -0.00000000000E+00 -0.00000000000E+00 -0.21884888812E+01  0.25302931813E+01  0.12700000000E+01 0. -1.
         25    2    1    2    0    0  0.00000000000E+00  0.00000000000E+00  0.16530747406E+04  0.16577940098E+04  0.12499952455E+03 0.  0.
    9000005    1    3    3    0    0 -0.20545839780E+02  0.57917821618E+02  0.67613056233E+03  0.67891836248E+03  0.10000000000E+01 0.  0.
    9000005    1    3    3    0    0  0.20545839780E+02 -0.57917821618E+02  0.97694417826E+03  0.97887564737E+03  0.10000000000E+01 0.  0.
<mgrwt>
<rscale>  0 0.12499952E+03</rscale>
<asrwt>0</asrwt>
<pdfrwt beam="1">  1        4 0.25468232E+00 0.12499952E+03</pdfrwt>
<pdfrwt beam="2">  1       -4 0.36302056E-03 0.12499952E+03</pdfrwt>
<totfact> 0.15024516E+03</totfact>
</mgrwt>
</event>
<event>
 5    1  0.3270363E-002  0.1250017E+03  0.7818608E-02  0.1235067E+00
         -4   -1    0    0    0  501 -0.00000000000E+00  0.00000000000E+00  0.18957805035E+02  0.19000296622E+02  0.12700000000E+01 0. -1.
          4   -1    0    0  501    0  0.00000000000E+00 -0.00000000000E+00 -0.20578033048E+03  0.20578424943E+03  0.12700000000E+01 0. -1.
         25    2    1    2    0    0  0.00000000000E+00  0.00000000000E+00 -0.18682252545E+03  0.22478454605E+03  0.12500174451E+03 0.  0.
    9000005    1    3    3    0    0  0.32797544132E+02  0.46414883381E+02 -0.14014292239E+03  0.15123180551E+03  0.10000000000E+01 0.  0.
    9000005    1    3    3    0    0 -0.32797544132E+02 -0.46414883381E+02 -0.46679603055E+02  0.73552740545E+02  0.10000000000E+01 0.  0.
<mgrwt>
<rscale>  0 0.12500174E+03</rscale>
<asrwt>0</asrwt>
<pdfrwt beam="2">  1        4 0.31662081E-01 0.12500174E+03</pdfrwt>
<pdfrwt beam="1">  1       -4 0.29201556E-02 0.12500174E+03</pdfrwt>
<totfact> 0.86113521E+03</totfact>
</mgrwt>
</event>
<event>
 5    1  0.3270363E-002  0.1249956E+03  0.7818608E-02  0.1235076E+00
          4   -1    0    0  501    0  0.00000000000E+00  0.00000000000E+00  0.17491375668E+03  0.17491836718E+03  0.12700000000E+01 0.  1.
         -4   -1    0    0    0  501 -0.00000000000E+00 -0.00000000000E+00 -0.22307907758E+02  0.22344029371E+02  0.12700000000E+01 0.  1.
         25    2    1    2    0    0  0.00000000000E+00  0.00000000000E+00  0.15260584892E+03  0.19726239655E+03  0.12499563179E+03 0.  0.
    9000005    1    3    3    0    0  0.51253453970E+02  0.29065776950E+02  0.10915132843E+03  0.12404333288E+03  0.10000000000E+01 0.  0.
    9000005    1    3    3    0    0 -0.51253453970E+02 -0.29065776950E+02  0.43454520490E+02  0.73219063669E+02  0.10000000000E+01 0.  0.
<mgrwt>
<rscale>  0 0.12499563E+03</rscale>
<asrwt>0</asrwt>
<pdfrwt beam="1">  1        4 0.26912944E-01 0.12499563E+03</pdfrwt>
<pdfrwt beam="2">  1       -4 0.34351188E-02 0.12499563E+03</pdfrwt>
<totfact> 0.90607668E+03</totfact>
</mgrwt>
</event>
<event>
 5    1  0.3270363E-002  0.1250022E+03  0.7818608E-02  0.1235066E+00
          4   -1    0    0  501    0  0.00000000000E+00  0.00000000000E+00  0.50934599846E+02  0.50950430434E+02  0.12700000000E+01 0.  1.
         -4   -1    0    0    0  501 -0.00000000000E+00 -0.00000000000E+00 -0.76661195779E+02  0.76671714721E+02  0.12700000000E+01 0.  1.
         25    2    1    2    0    0  0.00000000000E+00  0.00000000000E+00 -0.25726595933E+02  0.12762214516E+03  0.12500221676E+03 0.  0.
    9000005    1    3    3    0    0  0.55627996218E+02 -0.24373555249E+02 -0.27897570587E+02  0.66841742971E+02  0.10000000000E+01 0.  0.
    9000005    1    3    3    0    0 -0.55627996218E+02  0.24373555249E+02  0.21709746532E+01  0.60780402184E+02  0.10000000000E+01 0.  0.
<mgrwt>
<rscale>  0 0.12500222E+03</rscale>
<asrwt>0</asrwt>
<pdfrwt beam="1">  1        4 0.78381191E-02 0.12500222E+03</pdfrwt>
<pdfrwt beam="2">  1       -4 0.11796057E-01 0.12500222E+03</pdfrwt>
<totfact> 0.10395136E+04</totfact>
</mgrwt>
</event>
<event>
 5    1  0.3270363E-002  0.1249964E+03  0.7818608E-02  0.1235075E+00
         -4   -1    0    0    0  501 -0.00000000000E+00  0.00000000000E+00  0.14173611966E+03  0.14174180935E+03  0.12700000000E+01 0.  1.
          4   -1    0    0  501    0  0.00000000000E+00 -0.00000000000E+00 -0.27537546498E+02  0.27566816413E+02  0.12700000000E+01 0.  1.
         25    2    1    2    0    0  0.00000000000E+00  0.00000000000E+00  0.11419857316E+03  0.16930862576E+03  0.12499638652E+03 0.  0.
    9000005    1    3    3    0    0  0.42038455918E+02 -0.22006547517E+02  0.20205101026E+01  0.47503709021E+02  0.10000000000E+01 0.  0.
    9000005    1    3    3    0    0 -0.42038455918E+02  0.22006547517E+02  0.11217806306E+03  0.12180491674E+03  0.10000000000E+01 0.  0.
<mgrwt>
<rscale>  0 0.12499639E+03</rscale>
<asrwt>0</asrwt>
<pdfrwt beam="2">  1        4 0.42392348E-02 0.12499639E+03</pdfrwt>
<pdfrwt beam="1">  1       -4 0.21808246E-01 0.12499639E+03</pdfrwt>
<totfact> 0.95585327E+03</totfact>
</mgrwt>
</event>
<event>
 5    1  0.3270363E-002  0.1249987E+03  0.7818608E-02  0.1235071E+00
         -4   -1    0    0    0  501 -0.00000000000E+00  0.00000000000E+00  0.95998995186E+02  0.96007395427E+02  0.12700000000E+01 0. -1.
          4   -1    0    0  501    0  0.00000000000E+00 -0.00000000000E+00 -0.40669610913E+02  0.40689435383E+02  0.12700000000E+01 0. -1.
         25    2    1    2    0    0  0.00000000000E+00  0.00000000000E+00  0.55329384273E+02  0.13669683081E+03  0.12499873115E+03 0.  0.
    9000005    1    3    3    0    0 -0.27632005550E+02 -0.43558109893E+02 -0.10911675371E+02  0.52734251939E+02  0.10000000000E+01 0.  0.
    9000005    1    3    3    0    0  0.27632005550E+02  0.43558109893E+02  0.66241059644E+02  0.83962578872E+02  0.10000000000E+01 0.  0.
<mgrwt>
<rscale>  0 0.12499873E+03</rscale>
<asrwt>0</asrwt>
<pdfrwt beam="2">  1        4 0.62590344E-02 0.12499873E+03</pdfrwt>
<pdfrwt beam="1">  1       -4 0.14771247E-01 0.12499873E+03</pdfrwt>
<totfact> 0.10202720E+04</totfact>
</mgrwt>
</event>
<event>
 5    1  0.3270363E-002  0.1249991E+03  0.7818608E-02  0.1235071E+00
          4   -1    0    0  501    0  0.00000000000E+00  0.00000000000E+00  0.45701842202E+01  0.47433620784E+01  0.12700000000E+01 0.  1.
         -4   -1    0    0    0  501 -0.00000000000E+00 -0.00000000000E+00 -0.83864616894E+03  0.83864713055E+03  0.12700000000E+01 0.  1.
         25    2    1    2    0    0  0.00000000000E+00  0.00000000000E+00 -0.83407598472E+03  0.84339049263E+03  0.12499909907E+03 0.  0.
    9000005    1    3    3    0    0  0.16689723094E+01  0.48710275195E+02 -0.68093071220E+03  0.68267350263E+03  0.10000000000E+01 0.  0.
    9000005    1    3    3    0    0 -0.16689723094E+01 -0.48710275195E+02 -0.15314527252E+03  0.16071699000E+03  0.10000000000E+01 0.  0.
<mgrwt>
<rscale>  0 0.12499910E+03</rscale>
<asrwt>0</asrwt>
<pdfrwt beam="1">  1        4 0.71650127E-03 0.12499910E+03</pdfrwt>
<pdfrwt beam="2">  1       -4 0.12903576E+00 0.12499910E+03</pdfrwt>
<totfact> 0.36400075E+03</totfact>
</mgrwt>
</event>
<event>
 5    1  0.3270363E-002  0.1250002E+03  0.7818608E-02  0.1235069E+00
          4   -1    0    0  501    0  0.00000000000E+00  0.00000000000E+00  0.83976347646E+02  0.83985950396E+02  0.12700000000E+01 0. -1.
         -4   -1    0    0    0  501 -0.00000000000E+00 -0.00000000000E+00 -0.46495256533E+02  0.46512598079E+02  0.12700000000E+01 0. -1.
         25    2    1    2    0    0  0.00000000000E+00  0.00000000000E+00  0.37481091114E+02  0.13049854848E+03  0.12500015585E+03 0.  0.
    9000005    1    3    3    0    0 -0.56309430642E+02  0.96512382160E+01 -0.76985456577E+01  0.57655580680E+02  0.10000000000E+01 0.  0.
    9000005    1    3    3    0    0  0.56309430642E+02 -0.96512382160E+01  0.45179636771E+02  0.72842967795E+02  0.10000000000E+01 0.  0.
<mgrwt>
<rscale>  0 0.12500016E+03</rscale>
<asrwt>0</asrwt>
<pdfrwt beam="1">  1        4 0.12921511E-01 0.12500016E+03</pdfrwt>
<pdfrwt beam="2">  1       -4 0.71551890E-02 0.12500016E+03</pdfrwt>
<totfact> 0.10333815E+04</totfact>
</mgrwt>
</event>
<event>
 5    1  0.3270363E-002  0.1250008E+03  0.7818608E-02  0.1235068E+00
          4   -1    0    0  501    0  0.00000000000E+00  0.00000000000E+00  0.19177347388E+02  0.19219353600E+02  0.12700000000E+01 0.  1.
         -4   -1    0    0    0  501 -0.00000000000E+00 -0.00000000000E+00 -0.20342673929E+03  0.20343070358E+03  0.12700000000E+01 0.  1.
         25    2    1    2    0    0  0.00000000000E+00  0.00000000000E+00 -0.18424939191E+03  0.22265005718E+03  0.12500083818E+03 0.  0.
    9000005    1    3    3    0    0 -0.26956776639E+02 -0.11736206431E+02 -0.19034712550E+03  0.19260694311E+03  0.10000000000E+01 0.  0.
    9000005    1    3    3    0    0  0.26956776639E+02  0.11736206431E+02  0.60977335938E+01  0.30043114072E+02  0.10000000000E+01 0.  0.
<mgrwt>
<rscale>  0 0.12500084E+03</rscale>
<asrwt>0</asrwt>
<pdfrwt beam="1">  1        4 0.29538975E-02 0.12500084E+03</pdfrwt>
<pdfrwt beam="2">  1       -4 0.31299956E-01 0.12500084E+03</pdfrwt>
<totfact> 0.86449125E+03</totfact>
</mgrwt>
</event>
<event>
 5    1  0.3270363E-002  0.1249926E+03  0.7818608E-02  0.1235081E+00
          4   -1    0    0  501    0  0.00000000000E+00  0.00000000000E+00  0.36820302539E+02  0.36842198347E+02  0.12700000000E+01 0. -1.
         -4   -1    0    0    0  501 -0.00000000000E+00 -0.00000000000E+00 -0.10601973236E+03  0.10602733869E+03  0.12700000000E+01 0. -1.
         25    2    1    2    0    0  0.00000000000E+00  0.00000000000E+00 -0.69199429819E+02  0.14286953703E+03  0.12499257388E+03 0.  0.
    9000005    1    3    3    0    0  0.12643186137E+02 -0.36953700370E+02  0.21155498426E+02  0.44429508667E+02  0.10000000000E+01 0.  0.
    9000005    1    3    3    0    0 -0.12643186137E+02  0.36953700370E+02 -0.90354928245E+02  0.98440028367E+02  0.10000000000E+01 0.  0.
<mgrwt>
<rscale>  0 0.12499257E+03</rscale>
<asrwt>0</asrwt>
<pdfrwt beam="1">  1        4 0.56669313E-02 0.12499257E+03</pdfrwt>
<pdfrwt beam="2">  1       -4 0.16312997E-01 0.12499257E+03</pdfrwt>
<totfact> 0.10076141E+04</totfact>
</mgrwt>
</event>
<event>
 5    1  0.3270363E-002  0.1249989E+03  0.7818608E-02  0.1235071E+00
          4   -1    0    0  501    0  0.00000000000E+00  0.00000000000E+00  0.27362753551E+02  0.27392210241E+02  0.12700000000E+01 0. -1.
         -4   -1    0    0    0  501 -0.00000000000E+00 -0.00000000000E+00 -0.14264625832E+03  0.14265191170E+03  0.12700000000E+01 0. -1.
         25    2    1    2    0    0  0.00000000000E+00  0.00000000000E+00 -0.11528350477E+03  0.17004412194E+03  0.12499886774E+03 0.  0.
    9000005    1    3    3    0    0  0.57816636667E+01 -0.47602015908E+02 -0.31286086220E+01  0.48064204406E+02  0.10000000000E+01 0.  0.
    9000005    1    3    3    0    0 -0.57816636667E+01  0.47602015908E+02 -0.11215489615E+03  0.12197991754E+03  0.10000000000E+01 0.  0.
<mgrwt>
<rscale>  0 0.12499887E+03</rscale>
<asrwt>0</asrwt>
<pdfrwt beam="1">  1        4 0.42123552E-02 0.12499887E+03</pdfrwt>
<pdfrwt beam="2">  1       -4 0.21948279E-01 0.12499887E+03</pdfrwt>
<totfact> 0.95442839E+03</totfact>
</mgrwt>
</event>
<event>
 5    1  0.3270363E-002  0.1250003E+03  0.7818608E-02  0.1235069E+00
         -4   -1    0    0    0  501 -0.00000000000E+00  0.00000000000E+00  0.24152807655E+02  0.24186174101E+02  0.12700000000E+01 0. -1.
          4   -1    0    0  501    0  0.00000000000E+00 -0.00000000000E+00 -0.16158384451E+03  0.16158883534E+03  0.12700000000E+01 0. -1.
         25    2    1    2    0    0  0.00000000000E+00  0.00000000000E+00 -0.13743103686E+03  0.18577500944E+03  0.12500025697E+03 0.  0.
    9000005    1    3    3    0    0 -0.56770044801E+02  0.18552683692E+02 -0.96048051489E+02  0.11310733068E+03  0.10000000000E+01 0.  0.
    9000005    1    3    3    0    0  0.56770044801E+02 -0.18552683692E+02 -0.41382985369E+02  0.72667678764E+02  0.10000000000E+01 0.  0.
<mgrwt>
<rscale>  0 0.12500026E+03</rscale>
<asrwt>0</asrwt>
<pdfrwt beam="2">  1        4 0.24862003E-01 0.12500026E+03</pdfrwt>
<pdfrwt beam="1">  1       -4 0.37187672E-02 0.12500026E+03</pdfrwt>
<totfact> 0.92587158E+03</totfact>
</mgrwt>
</event>
<event>
 5    1  0.3270363E-002  0.1250005E+03  0.7818608E-02  0.1235068E+00
         -4   -1    0    0    0  501 -0.00000000000E+00  0.00000000000E+00  0.55721989647E+03  0.55722134374E+03  0.12700000000E+01 0. -1.
          4   -1    0    0  501    0  0.00000000000E+00 -0.00000000000E+00 -0.69513221778E+01  0.70663838008E+01  0.12700000000E+01 0. -1.
         25    2    1    2    0    0  0.00000000000E+00  0.00000000000E+00  0.55026857429E+03  0.56428772754E+03  0.12500054241E+03 0.  0.
    9000005    1    3    3    0    0  0.42905800839E+02 -0.39198132107E+02  0.17141551216E+03  0.18100187600E+03  0.10000000000E+01 0.  0.
    9000005    1    3    3    0    0 -0.42905800839E+02  0.39198132107E+02  0.37885306213E+03  0.38328585154E+03  0.10000000000E+01 0.  0.
<mgrwt>
<rscale>  0 0.12500054E+03</rscale>
<asrwt>0</asrwt>
<pdfrwt beam="2">  1        4 0.10783963E-02 0.12500054E+03</pdfrwt>
<pdfrwt beam="1">  1       -4 0.85735105E-01 0.12500054E+03</pdfrwt>
<totfact> 0.51201749E+03</totfact>
</mgrwt>
</event>
<event>
 5    1  0.3270363E-002  0.1250053E+03  0.7818608E-02  0.1235061E+00
         -4   -1    0    0    0  501 -0.00000000000E+00  0.00000000000E+00  0.59311661281E+02  0.59325256543E+02  0.12700000000E+01 0.  1.
          4   -1    0    0  501    0  0.00000000000E+00 -0.00000000000E+00 -0.65838036649E+02  0.65850284508E+02  0.12700000000E+01 0.  1.
         25    2    1    2    0    0  0.00000000000E+00  0.00000000000E+00 -0.65263753679E+01  0.12517554105E+03  0.12500528990E+03 0.  0.
    9000005    1    3    3    0    0  0.17250183743E+02 -0.51687849732E+02 -0.33905157534E+02  0.64185374942E+02  0.10000000000E+01 0.  0.
    9000005    1    3    3    0    0 -0.17250183743E+02  0.51687849732E+02  0.27378782166E+02  0.60990166109E+02  0.10000000000E+01 0.  0.
<mgrwt>
<rscale>  0 0.12500529E+03</rscale>
<asrwt>0</asrwt>
<pdfrwt beam="2">  1        4 0.10130917E-01 0.12500529E+03</pdfrwt>
<pdfrwt beam="1">  1       -4 0.91268589E-02 0.12500529E+03</pdfrwt>
<totfact> 0.10447802E+04</totfact>
</mgrwt>
</event>
<event>
 5    1  0.3270363E-002  0.1250104E+03  0.7818608E-02  0.1235053E+00
          4   -1    0    0  501    0  0.00000000000E+00  0.00000000000E+00  0.69292836887E+02  0.69304474198E+02  0.12700000000E+01 0.  1.
         -4   -1    0    0    0  501 -0.00000000000E+00 -0.00000000000E+00 -0.56358954854E+02  0.56373262211E+02  0.12700000000E+01 0.  1.
         25    2    1    2    0    0  0.00000000000E+00  0.00000000000E+00  0.12933882033E+02  0.12567773641E+03  0.12501043206E+03 0.  0.
    9000005    1    3    3    0    0 -0.39268218989E+02  0.21287646286E+02 -0.37478464241E+02  0.58316311515E+02  0.10000000000E+01 0.  0.
    9000005    1    3    3    0    0  0.39268218989E+02 -0.21287646286E+02  0.50412346274E+02  0.67361424894E+02  0.10000000000E+01 0.  0.
<mgrwt>
<rscale>  0 0.12501043E+03</rscale>
<asrwt>0</asrwt>
<pdfrwt beam="1">  1        4 0.10662432E-01 0.12501043E+03</pdfrwt>
<pdfrwt beam="2">  1       -4 0.86726041E-02 0.12501043E+03</pdfrwt>
<totfact> 0.10435578E+04</totfact>
</mgrwt>
</event>
<event>
 5    1  0.3270363E-002  0.1250022E+03  0.7818608E-02  0.1235066E+00
         -4   -1    0    0    0  501 -0.00000000000E+00  0.00000000000E+00  0.77706663564E+01  0.78737637520E+01  0.12700000000E+01 0. -1.
          4   -1    0    0  501    0  0.00000000000E+00 -0.00000000000E+00 -0.49929252334E+03  0.49929413853E+03  0.12700000000E+01 0. -1.
         25    2    1    2    0    0  0.00000000000E+00  0.00000000000E+00 -0.49152185699E+03  0.50716790228E+03  0.12500218080E+03 0.  0.
    9000005    1    3    3    0    0  0.19966393136E+01  0.62055365522E+02 -0.27460221238E+03  0.28153548622E+03  0.10000000000E+01 0.  0.
    9000005    1    3    3    0    0 -0.19966393136E+01 -0.62055365522E+02 -0.21691964460E+03  0.22563241605E+03  0.10000000000E+01 0.  0.
<mgrwt>
<rscale>  0 0.12500218E+03</rscale>
<asrwt>0</asrwt>
<pdfrwt beam="2">  1        4 0.76822264E-01 0.12500218E+03</pdfrwt>
<pdfrwt beam="1">  1       -4 0.12035423E-02 0.12500218E+03</pdfrwt>
<totfact> 0.55309842E+03</totfact>
</mgrwt>
</event>
<event>
 5    1  0.3270363E-002  0.1250001E+03  0.7818608E-02  0.1235069E+00
          4   -1    0    0  501    0  0.00000000000E+00  0.00000000000E+00  0.11469347846E+02  0.11539447128E+02  0.12700000000E+01 0. -1.
         -4   -1    0    0    0  501 -0.00000000000E+00 -0.00000000000E+00 -0.33947353202E+03  0.33947590760E+03  0.12700000000E+01 0. -1.
         25    2    1    2    0    0  0.00000000000E+00  0.00000000000E+00 -0.32800418417E+03  0.35101535473E+03  0.12500013768E+03 0.  0.
    9000005    1    3    3    0    0  0.61725312461E+02 -0.33635613414E+01 -0.13827584333E+03  0.15146793915E+03  0.10000000000E+01 0.  0.
    9000005    1    3    3    0    0 -0.61725312461E+02  0.33635613414E+01 -0.18972834085E+03  0.19954741558E+03  0.10000000000E+01 0.  0.
<mgrwt>
<rscale>  0 0.12500014E+03</rscale>
<asrwt>0</asrwt>
<pdfrwt beam="1">  1        4 0.17700903E-02 0.12500014E+03</pdfrwt>
<pdfrwt beam="2">  1       -4 0.52232265E-01 0.12500014E+03</pdfrwt>
<totfact> 0.69612790E+03</totfact>
</mgrwt>
</event>
<event>
 5    1  0.3270363E-002  0.1249963E+03  0.7818608E-02  0.1235075E+00
          4   -1    0    0  501    0  0.00000000000E+00  0.00000000000E+00  0.38761043193E+03  0.38761251249E+03  0.12700000000E+01 0.  1.
         -4   -1    0    0    0  501 -0.00000000000E+00 -0.00000000000E+00 -0.10035038906E+02  0.10115083087E+02  0.12700000000E+01 0.  1.
         25    2    1    2    0    0  0.00000000000E+00  0.00000000000E+00  0.37757539302E+03  0.39772759558E+03  0.12499625142E+03 0.  0.
    9000005    1    3    3    0    0  0.34583050907E+02  0.43390040024E+02  0.28025507124E+03  0.28569667121E+03  0.10000000000E+01 0.  0.
    9000005    1    3    3    0    0 -0.34583050907E+02 -0.43390040024E+02  0.97320321778E+02  0.11203092437E+03  0.10000000000E+01 0.  0.
<mgrwt>
<rscale>  0 0.12499625E+03</rscale>
<asrwt>0</asrwt>
<pdfrwt beam="1">  1        4 0.59638683E-01 0.12499625E+03</pdfrwt>
<pdfrwt beam="2">  1       -4 0.15501697E-02 0.12499625E+03</pdfrwt>
<totfact> 0.64779767E+03</totfact>
</mgrwt>
</event>
<event>
 5    1  0.3270363E-002  0.1249629E+03  0.7818608E-02  0.1235127E+00
          4   -1    0    0  501    0  0.00000000000E+00  0.00000000000E+00  0.11627401500E+02  0.11696553579E+02  0.12700000000E+01 0. -1.
         -4   -1    0    0    0  501 -0.00000000000E+00 -0.00000000000E+00 -0.33468710336E+03  0.33468951291E+03  0.12700000000E+01 0. -1.
         25    2    1    2    0    0  0.00000000000E+00  0.00000000000E+00 -0.32305970186E+03  0.34638606649E+03  0.12496293889E+03 0.  0.
    9000005    1    3    3    0    0  0.54499939845E+02  0.30336630723E+02 -0.15177705175E+03  0.16409700803E+03  0.10000000000E+01 0.  0.
    9000005    1    3    3    0    0 -0.54499939845E+02 -0.30336630723E+02 -0.17128265011E+03  0.18228905846E+03  0.10000000000E+01 0.  0.
<mgrwt>
<rscale>  0 0.12496294E+03</rscale>
<asrwt>0</asrwt>
<pdfrwt beam="1">  1        4 0.17943360E-02 0.12496294E+03</pdfrwt>
<pdfrwt beam="2">  1       -4 0.51495821E-01 0.12496294E+03</pdfrwt>
<totfact> 0.70181530E+03</totfact>
</mgrwt>
</event>
<event>
 5    1  0.3270363E-002  0.1250000E+03  0.7818608E-02  0.1235069E+00
         -4   -1    0    0    0  501 -0.00000000000E+00  0.00000000000E+00  0.39327706038E+02  0.39348206595E+02  0.12700000000E+01 0. -1.
          4   -1    0    0  501    0  0.00000000000E+00 -0.00000000000E+00 -0.99275137292E+02  0.99283260343E+02  0.12700000000E+01 0. -1.
         25    2    1    2    0    0  0.00000000000E+00  0.00000000000E+00 -0.59947431254E+02  0.13863146694E+03  0.12499995645E+03 0.  0.
    9000005    1    3    3    0    0 -0.55762485308E+02 -0.88426474806E+01 -0.26436214329E+00  0.56468726474E+02  0.10000000000E+01 0.  0.
    9000005    1    3    3    0    0  0.55762485308E+02  0.88426474806E+01 -0.59683069111E+02  0.82162740465E+02  0.10000000000E+01 0.  0.
<mgrwt>
<rscale>  0 0.12499996E+03</rscale>
<asrwt>0</asrwt>
<pdfrwt beam="2">  1        4 0.15275300E-01 0.12499996E+03</pdfrwt>
<pdfrwt beam="1">  1       -4 0.60526182E-02 0.12499996E+03</pdfrwt>
<totfact> 0.10162038E+04</totfact>
</mgrwt>
</event>
<event>
 5    1  0.3270363E-002  0.1250104E+03  0.7818608E-02  0.1235053E+00
          4   -1    0    0  501    0  0.00000000000E+00  0.00000000000E+00  0.13590005872E+02  0.13649218278E+02  0.12700000000E+01 0. -1.
         -4   -1    0    0    0  501 -0.00000000000E+00 -0.00000000000E+00 -0.28679776681E+03  0.28680057870E+03  0.12700000000E+01 0. -1.
         25    2    1    2    0    0  0.00000000000E+00  0.00000000000E+00 -0.27320776093E+03  0.30044979698E+03  0.12501039905E+03 0.  0.
    9000005    1    3    3    0    0 -0.36981945826E+02 -0.63911278586E+01 -0.16496724768E+02  0.41007959720E+02  0.10000000000E+01 0.  0.
    9000005    1    3    3    0    0  0.36981945826E+02  0.63911278586E+01 -0.25671103616E+03  0.25944183726E+03  0.10000000000E+01 0.  0.
<mgrwt>
<rscale>  0 0.12501040E+03</rscale>
<asrwt>0</asrwt>
<pdfrwt beam="1">  1        4 0.20955415E-02 0.12501040E+03</pdfrwt>
<pdfrwt beam="2">  1       -4 0.44127500E-01 0.12501040E+03</pdfrwt>
<totfact> 0.75525018E+03</totfact>
</mgrwt>
</event>
<event>
 5    1  0.3270363E-002  0.1250238E+03  0.7818608E-02  0.1235032E+00
          4   -1    0    0  501    0  0.00000000000E+00  0.00000000000E+00  0.41857193370E+03  0.41857386037E+03  0.12700000000E+01 0. -1.
         -4   -1    0    0    0  501 -0.00000000000E+00 -0.00000000000E+00 -0.92907302124E+01  0.93771300450E+01  0.12700000000E+01 0. -1.
         25    2    1    2    0    0  0.00000000000E+00  0.00000000000E+00  0.40928120349E+03  0.42795099041E+03  0.12502378440E+03 0.  0.
    9000005    1    3    3    0    0  0.61830137827E+01 -0.46096829702E+02  0.61710569206E+02  0.77280927271E+02  0.10000000000E+01 0.  0.
    9000005    1    3    3    0    0 -0.61830137827E+01  0.46096829702E+02  0.34757063428E+03  0.35067006314E+03  0.10000000000E+01 0.  0.
<mgrwt>
<rscale>  0 0.12502378E+03</rscale>
<asrwt>0</asrwt>
<pdfrwt beam="1">  1        4 0.64402474E-01 0.12502378E+03</pdfrwt>
<pdfrwt beam="2">  1       -4 0.14361375E-02 0.12502378E+03</pdfrwt>
<totfact> 0.61889697E+03</totfact>
</mgrwt>
</event>
<event>
 5    1  0.3270363E-002  0.1249971E+03  0.7818608E-02  0.1235074E+00
         -4   -1    0    0    0  501 -0.00000000000E+00  0.00000000000E+00  0.29750090423E+02  0.29777185565E+02  0.12700000000E+01 0.  1.
          4   -1    0    0  501    0  0.00000000000E+00 -0.00000000000E+00 -0.13120614289E+03  0.13121228918E+03  0.12700000000E+01 0.  1.
         25    2    1    2    0    0  0.00000000000E+00  0.00000000000E+00 -0.10145605247E+03  0.16098947475E+03  0.12499712156E+03 0.  0.
    9000005    1    3    3    0    0 -0.33338193117E+02 -0.26127593783E+02  0.84471995684E+01  0.43202331624E+02  0.10000000000E+01 0.  0.
    9000005    1    3    3    0    0  0.33338193117E+02  0.26127593783E+02 -0.10990325204E+03  0.11778714313E+03  0.10000000000E+01 0.  0.
<mgrwt>
<rscale>  0 0.12499712E+03</rscale>
<asrwt>0</asrwt>
<pdfrwt beam="2">  1        4 0.20188117E-01 0.12499712E+03</pdfrwt>
<pdfrwt beam="1">  1       -4 0.45794941E-02 0.12499712E+03</pdfrwt>
<totfact> 0.97158646E+03</totfact>
</mgrwt>
</event>
<event>
 5    1  0.3270363E-002  0.1250119E+03  0.7818608E-02  0.1235051E+00
         -4   -1    0    0    0  501 -0.00000000000E+00  0.00000000000E+00  0.98107450596E+02  0.98115670321E+02  0.12700000000E+01 0. -1.
          4   -1    0    0  501    0  0.00000000000E+00 -0.00000000000E+00 -0.39803617908E+02  0.39823873476E+02  0.12700000000E+01 0. -1.
         25    2    1    2    0    0  0.00000000000E+00  0.00000000000E+00  0.58303832688E+02  0.13793954380E+03  0.12501192278E+03 0.  0.
    9000005    1    3    3    0    0  0.50494589097E+02  0.10687756683E+02 -0.97355149469E+01  0.52532960341E+02  0.10000000000E+01 0.  0.
    9000005    1    3    3    0    0 -0.50494589097E+02 -0.10687756683E+02  0.68039347635E+02  0.85406583455E+02  0.10000000000E+01 0.  0.
<mgrwt>
<rscale>  0 0.12501192E+03</rscale>
<asrwt>0</asrwt>
<pdfrwt beam="2">  1        4 0.61258241E-02 0.12501192E+03</pdfrwt>
<pdfrwt beam="1">  1       -4 0.15095644E-01 0.12501192E+03</pdfrwt>
<totfact> 0.10173736E+04</totfact>
</mgrwt>
</event>
<event>
 5    1  0.3270363E-002  0.1249981E+03  0.7818608E-02  0.1235072E+00
          4   -1    0    0  501    0  0.00000000000E+00  0.00000000000E+00  0.14726729914E+02  0.14781389447E+02  0.12700000000E+01 0.  1.
         -4   -1    0    0    0  501 -0.00000000000E+00 -0.00000000000E+00 -0.26469339209E+03  0.26469643881E+03  0.12700000000E+01 0.  1.
         25    2    1    2    0    0  0.00000000000E+00  0.00000000000E+00 -0.24996666218E+03  0.27947782826E+03  0.12499809713E+03 0.  0.
    9000005    1    3    3    0    0 -0.41413600895E+02  0.39072842916E+02 -0.18256945381E+03  0.19124429105E+03  0.10000000000E+01 0.  0.
    9000005    1    3    3    0    0  0.41413600895E+02 -0.39072842916E+02 -0.67397208366E+02  0.88233537208E+02  0.10000000000E+01 0.  0.
<mgrwt>
<rscale>  0 0.12499810E+03</rscale>
<asrwt>0</asrwt>
<pdfrwt beam="1">  1        4 0.22700899E-02 0.12499810E+03</pdfrwt>
<pdfrwt beam="2">  1       -4 0.40726496E-01 0.12499810E+03</pdfrwt>
<totfact> 0.78250704E+03</totfact>
</mgrwt>
</event>
<event>
 5    1  0.3270363E-002  0.1250022E+03  0.7818608E-02  0.1235066E+00
         -4   -1    0    0    0  501 -0.00000000000E+00  0.00000000000E+00  0.23539849468E+03  0.23540192055E+03  0.12700000000E+01 0.  1.
          4   -1    0    0  501    0  0.00000000000E+00 -0.00000000000E+00 -0.16566926694E+02  0.16615533699E+02  0.12700000000E+01 0.  1.
         25    2    1    2    0    0  0.00000000000E+00  0.00000000000E+00  0.21883156799E+03  0.25201745425E+03  0.12500216837E+03 0.  0.
    9000005    1    3    3    0    0  0.23085215762E+02 -0.54091074868E+02  0.66808954397E+02  0.89012403376E+02  0.10000000000E+01 0.  0.
    9000005    1    3    3    0    0 -0.23085215762E+02  0.54091074868E+02  0.15202261359E+03  0.16300505087E+03  0.10000000000E+01 0.  0.
<mgrwt>
<rscale>  0 0.12500217E+03</rscale>
<asrwt>0</asrwt>
<pdfrwt beam="2">  1        4 0.25527607E-02 0.12500217E+03</pdfrwt>
<pdfrwt beam="1">  1       -4 0.36219152E-01 0.12500217E+03</pdfrwt>
<totfact> 0.82035554E+03</totfact>
</mgrwt>
</event>
<event>
 5    1  0.3270363E-002  0.1250066E+03  0.7818608E-02  0.1235059E+00
          4   -1    0    0  501    0  0.00000000000E+00  0.00000000000E+00  0.42865662954E+03  0.42865851088E+03  0.12700000000E+01 0.  1.
         -4   -1    0    0    0  501 -0.00000000000E+00 -0.00000000000E+00 -0.90675736367E+01  0.91560794916E+01  0.12700000000E+01 0.  1.
         25    2    1    2    0    0  0.00000000000E+00  0.00000000000E+00  0.41958905591E+03  0.43781459037E+03  0.12500655866E+03 0.  0.
    9000005    1    3    3    0    0  0.25137996591E+01 -0.17837669532E+02  0.41938386765E+03  0.41977175952E+03  0.10000000000E+01 0.  0.
    9000005    1    3    3    0    0 -0.25137996591E+01  0.17837669532E+02  0.20518825622E+00  0.18042830856E+02  0.10000000000E+01 0.  0.
<mgrwt>
<rscale>  0 0.12500656E+03</rscale>
<asrwt>0</asrwt>
<pdfrwt beam="1">  1        4 0.65954141E-01 0.12500656E+03</pdfrwt>
<pdfrwt beam="2">  1       -4 0.14019639E-02 0.12500656E+03</pdfrwt>
<totfact> 0.61025146E+03</totfact>
</mgrwt>
</event>
<event>
 5    1  0.3270363E-002  0.1250014E+03  0.7818608E-02  0.1235067E+00
          4   -1    0    0  501    0  0.00000000000E+00  0.00000000000E+00  0.71416186817E+02  0.71427478182E+02  0.12700000000E+01 0.  1.
         -4   -1    0    0    0  501 -0.00000000000E+00 -0.00000000000E+00 -0.54675206060E+02  0.54689953902E+02  0.12700000000E+01 0.  1.
         25    2    1    2    0    0  0.00000000000E+00  0.00000000000E+00  0.16740980756E+02  0.12611743208E+03  0.12500138495E+03 0.  0.
    9000005    1    3    3    0    0 -0.44523542573E+02 -0.43473352679E+02  0.14171461532E+02  0.63828743982E+02  0.10000000000E+01 0.  0.
    9000005    1    3    3    0    0  0.44523542573E+02  0.43473352679E+02  0.25695192240E+01  0.62288688101E+02  0.10000000000E+01 0.  0.
<mgrwt>
<rscale>  0 0.12500138E+03</rscale>
<asrwt>0</asrwt>
<pdfrwt beam="1">  1        4 0.10989109E-01 0.12500138E+03</pdfrwt>
<pdfrwt beam="2">  1       -4 0.84135732E-02 0.12500138E+03</pdfrwt>
<totfact> 0.10428059E+04</totfact>
</mgrwt>
</event>
<event>
 5    1  0.3270363E-002  0.1249982E+03  0.7818608E-02  0.1235072E+00
          4   -1    0    0  501    0  0.00000000000E+00  0.00000000000E+00  0.24072396568E+01  0.27217095300E+01  0.12700000000E+01 0. -1.
         -4   -1    0    0    0  501 -0.00000000000E+00 -0.00000000000E+00 -0.15228573180E+04  0.15228578475E+04  0.12700000000E+01 0. -1.
         25    2    1    2    0    0  0.00000000000E+00  0.00000000000E+00 -0.15204500783E+04  0.15255795571E+04  0.12499817714E+03 0.  0.
    9000005    1    3    3    0    0 -0.75812312901E+01  0.38928491585E+02 -0.13496346319E+04  0.13502175906E+04  0.10000000000E+01 0.  0.
    9000005    1    3    3    0    0  0.75812312901E+01 -0.38928491585E+02 -0.17081544642E+03  0.17536196640E+03  0.10000000000E+01 0.  0.
<mgrwt>
<rscale>  0 0.12499818E+03</rscale>
<asrwt>0</asrwt>
<pdfrwt beam="1">  1        4 0.39457651E-03 0.12499818E+03</pdfrwt>
<pdfrwt beam="2">  1       -4 0.23430925E+00 0.12499818E+03</pdfrwt>
<totfact> 0.17433800E+03</totfact>
</mgrwt>
</event>
<event>
 5    1  0.3270363E-002  0.1250037E+03  0.7818608E-02  0.1235064E+00
         -4   -1    0    0    0  501 -0.00000000000E+00  0.00000000000E+00  0.19570928441E+03  0.19571340502E+03  0.12700000000E+01 0. -1.
          4   -1    0    0  501    0  0.00000000000E+00 -0.00000000000E+00 -0.19936090389E+02  0.19976501195E+02  0.12700000000E+01 0. -1.
         25    2    1    2    0    0  0.00000000000E+00  0.00000000000E+00  0.17577319402E+03  0.21568990621E+03  0.12500367957E+03 0.  0.
    9000005    1    3    3    0    0 -0.13330684001E+02  0.58722453915E+02  0.11673064206E+03  0.13135096698E+03  0.10000000000E+01 0.  0.
    9000005    1    3    3    0    0  0.13330684001E+02 -0.58722453915E+02  0.59042551960E+02  0.84338939237E+02  0.10000000000E+01 0.  0.
<mgrwt>
<rscale>  0 0.12500368E+03</rscale>
<asrwt>0</asrwt>
<pdfrwt beam="2">  1        4 0.30705163E-02 0.12500368E+03</pdfrwt>
<pdfrwt beam="1">  1       -4 0.30112546E-01 0.12500368E+03</pdfrwt>
<totfact> 0.87547795E+03</totfact>
</mgrwt>
</event>
<event>
 5    1  0.3270363E-002  0.1249900E+03  0.7818608E-02  0.1235085E+00
         -4   -1    0    0    0  501 -0.00000000000E+00  0.00000000000E+00  0.10085484520E+03  0.10086284103E+03  0.12700000000E+01 0.  1.
          4   -1    0    0  501    0  0.00000000000E+00 -0.00000000000E+00 -0.38705278827E+02  0.38726108881E+02  0.12700000000E+01 0.  1.
         25    2    1    2    0    0  0.00000000000E+00  0.00000000000E+00  0.62149566377E+02  0.13958894991E+03  0.12499002495E+03 0.  0.
    9000005    1    3    3    0    0  0.58096343935E+02 -0.11936762306E+02  0.53043565189E+02  0.79575695290E+02  0.10000000000E+01 0.  0.
    9000005    1    3    3    0    0 -0.58096343935E+02  0.11936762306E+02  0.91060011880E+01  0.60013254624E+02  0.10000000000E+01 0.  0.
<mgrwt>
<rscale>  0 0.12499002E+03</rscale>
<asrwt>0</asrwt>
<pdfrwt beam="2">  1        4 0.59568756E-02 0.12499002E+03</pdfrwt>
<pdfrwt beam="1">  1       -4 0.15518347E-01 0.12499002E+03</pdfrwt>
<totfact> 0.10144392E+04</totfact>
</mgrwt>
</event>
<event>
 5    1  0.3270363E-002  0.1250023E+03  0.7818608E-02  0.1235066E+00
         -4   -1    0    0    0  501 -0.00000000000E+00  0.00000000000E+00  0.10202696063E+02  0.10281435063E+02  0.12700000000E+01 0.  1.
          4   -1    0    0  501    0  0.00000000000E+00 -0.00000000000E+00 -0.38132709921E+03  0.38132921405E+03  0.12700000000E+01 0.  1.
         25    2    1    2    0    0  0.00000000000E+00  0.00000000000E+00 -0.37112440314E+03  0.39161064911E+03  0.12500231154E+03 0.  0.
    9000005    1    3    3    0    0  0.45443921277E+02  0.25722511215E+02 -0.29311435191E+03  0.29773112175E+03  0.10000000000E+01 0.  0.
    9000005    1    3    3    0    0 -0.45443921277E+02 -0.25722511215E+02 -0.78010051237E+02  0.93879527365E+02  0.10000000000E+01 0.  0.
<mgrwt>
<rscale>  0 0.12500231E+03</rscale>
<asrwt>0</asrwt>
<pdfrwt beam="2">  1        4 0.58671916E-01 0.12500231E+03</pdfrwt>
<pdfrwt beam="1">  1       -4 0.15758654E-02 0.12500231E+03</pdfrwt>
<totfact> 0.65373656E+03</totfact>
</mgrwt>
</event>
<event>
 5    1  0.3270363E-002  0.1249599E+03  0.7818608E-02  0.1235132E+00
         -4   -1    0    0    0  501 -0.00000000000E+00  0.00000000000E+00  0.27192584481E+02  0.27222225309E+02  0.12700000000E+01 0. -1.
          4   -1    0    0  501    0  0.00000000000E+00 -0.00000000000E+00 -0.14344853324E+03  0.14345415501E+03  0.12700000000E+01 0. -1.
         25    2    1    2    0    0  0.00000000000E+00  0.00000000000E+00 -0.11625594876E+03  0.17067638032E+03  0.12495991828E+03 0.  0.
    9000005    1    3    3    0    0 -0.31986005858E+02  0.51517105389E+02 -0.78644307511E+02  0.99312858293E+02  0.10000000000E+01 0.  0.
    9000005    1    3    3    0    0  0.31986005858E+02 -0.51517105389E+02 -0.37611641252E+02  0.71363522027E+02  0.10000000000E+01 0.  0.
<mgrwt>
<rscale>  0 0.12495992E+03</rscale>
<asrwt>0</asrwt>
<pdfrwt beam="2">  1        4 0.22071717E-01 0.12495992E+03</pdfrwt>
<pdfrwt beam="1">  1       -4 0.41861871E-02 0.12495992E+03</pdfrwt>
<totfact> 0.95408519E+03</totfact>
</mgrwt>
</event>
<event>
 5    1  0.3270363E-002  0.1249996E+03  0.7818608E-02  0.1235070E+00
          4   -1    0    0  501    0  0.00000000000E+00  0.00000000000E+00  0.79617242619E+02  0.79627371062E+02  0.12700000000E+01 0.  1.
         -4   -1    0    0    0  501 -0.00000000000E+00 -0.00000000000E+00 -0.49041096833E+02  0.49057538448E+02  0.12700000000E+01 0.  1.
         25    2    1    2    0    0  0.00000000000E+00  0.00000000000E+00  0.30576145786E+02  0.12868490951E+03  0.12499962098E+03 0.  0.
    9000005    1    3    3    0    0 -0.90700312670E+01 -0.21020848693E+02 -0.44573338834E+02  0.50119098972E+02  0.10000000000E+01 0.  0.
    9000005    1    3    3    0    0  0.90700312670E+01  0.21020848693E+02  0.75149484620E+02  0.78565810538E+02  0.10000000000E+01 0.  0.
<mgrwt>
<rscale>  0 0.12499962E+03</rscale>
<asrwt>0</asrwt>
<pdfrwt beam="1">  1        4 0.12250850E-01 0.12499962E+03</pdfrwt>
<pdfrwt beam="2">  1       -4 0.75468281E-02 0.12499962E+03</pdfrwt>
<totfact> 0.10372811E+04</totfact>
</mgrwt>
</event>
<event>
 5    1  0.3270363E-002  0.1249974E+03  0.7818608E-02  0.1235073E+00
          4   -1    0    0  501    0  0.00000000000E+00  0.00000000000E+00  0.68586445479E+02  0.68598202626E+02  0.12700000000E+01 0. -1.
         -4   -1    0    0    0  501 -0.00000000000E+00 -0.00000000000E+00 -0.56927608539E+02  0.56941773014E+02  0.12700000000E+01 0. -1.
         25    2    1    2    0    0  0.00000000000E+00  0.00000000000E+00  0.11658836941E+02  0.12553997564E+03  0.12499742799E+03 0.  0.
    9000005    1    3    3    0    0 -0.18457534976E+02  0.13547685477E+02  0.64227035627E+02  0.68193346337E+02  0.10000000000E+01 0.  0.
    9000005    1    3    3    0    0  0.18457534976E+02 -0.13547685477E+02 -0.52568198687E+02  0.57346629302E+02  0.10000000000E+01 0.  0.
<mgrwt>
<rscale>  0 0.12499743E+03</rscale>
<asrwt>0</asrwt>
<pdfrwt beam="1">  1        4 0.10553755E-01 0.12499743E+03</pdfrwt>
<pdfrwt beam="2">  1       -4 0.87600875E-02 0.12499743E+03</pdfrwt>
<totfact> 0.10441677E+04</totfact>
</mgrwt>
</event>
<event>
 5    1  0.3270363E-002  0.1250030E+03  0.7818608E-02  0.1235065E+00
         -4   -1    0    0    0  501 -0.00000000000E+00  0.00000000000E+00  0.62587447094E+02  0.62600330940E+02  0.12700000000E+01 0.  1.
          4   -1    0    0  501    0  0.00000000000E+00 -0.00000000000E+00 -0.62389854833E+02  0.62402779474E+02  0.12700000000E+01 0.  1.
         25    2    1    2    0    0  0.00000000000E+00  0.00000000000E+00  0.19759226152E+00  0.12500311041E+03  0.12500295425E+03 0.  0.
    9000005    1    3    3    0    0 -0.41092480425E+02  0.41365640284E+02  0.22587187861E+02  0.62537102580E+02  0.10000000000E+01 0.  0.
    9000005    1    3    3    0    0  0.41092480425E+02 -0.41365640284E+02 -0.22389595599E+02  0.62466007834E+02  0.10000000000E+01 0.  0.
<mgrwt>
<rscale>  0 0.12500295E+03</rscale>
<asrwt>0</asrwt>
<pdfrwt beam="2">  1        4 0.96004245E-02 0.12500295E+03</pdfrwt>
<pdfrwt beam="1">  1       -4 0.96308233E-02 0.12500295E+03</pdfrwt>
<totfact> 0.10452097E+04</totfact>
</mgrwt>
</event>
<event>
 5    1  0.3270363E-002  0.1250067E+03  0.7818608E-02  0.1235059E+00
         -4   -1    0    0    0  501 -0.00000000000E+00  0.00000000000E+00  0.15411499349E+03  0.15412022618E+03  0.12700000000E+01 0.  1.
          4   -1    0    0  501    0  0.00000000000E+00 -0.00000000000E+00 -0.25327466609E+02  0.25359287546E+02  0.12700000000E+01 0.  1.
         25    2    1    2    0    0  0.00000000000E+00  0.00000000000E+00  0.12878752688E+03  0.17947951373E+03  0.12500667489E+03 0.  0.
    9000005    1    3    3    0    0 -0.27444056980E+02  0.54949414739E+02  0.47832494649E+02  0.77856033729E+02  0.10000000000E+01 0.  0.
    9000005    1    3    3    0    0  0.27444056980E+02 -0.54949414739E+02  0.80955032234E+02  0.10162348000E+03  0.10000000000E+01 0.  0.
<mgrwt>
<rscale>  0 0.12500667E+03</rscale>
<asrwt>0</asrwt>
<pdfrwt beam="2">  1        4 0.38993836E-02 0.12500667E+03</pdfrwt>
<pdfrwt beam="1">  1       -4 0.23712849E-01 0.12500667E+03</pdfrwt>
<totfact> 0.93696751E+03</totfact>
</mgrwt>
</event>
<event>
 5    1  0.3270363E-002  0.1250076E+03  0.7818608E-02  0.1235057E+00
          4   -1    0    0  501    0  0.00000000000E+00  0.00000000000E+00  0.33849671282E+02  0.33873487359E+02  0.12700000000E+01 0. -1.
         -4   -1    0    0    0  501 -0.00000000000E+00 -0.00000000000E+00 -0.11534603625E+03  0.11535302761E+03  0.12700000000E+01 0. -1.
         25    2    1    2    0    0  0.00000000000E+00  0.00000000000E+00 -0.81496364971E+02  0.14922651497E+03  0.12500758084E+03 0.  0.
    9000005    1    3    3    0    0  0.49943002417E+01 -0.21929278006E+02 -0.11035342041E+03  0.11262643413E+03  0.10000000000E+01 0.  0.
    9000005    1    3    3    0    0 -0.49943002417E+01  0.21929278006E+02  0.28857055440E+02  0.36600080839E+02  0.10000000000E+01 0.  0.
<mgrwt>
<rscale>  0 0.12500758E+03</rscale>
<asrwt>0</asrwt>
<pdfrwt beam="1">  1        4 0.52100116E-02 0.12500758E+03</pdfrwt>
<pdfrwt beam="2">  1       -4 0.17747914E-01 0.12500758E+03</pdfrwt>
<totfact> 0.99441136E+03</totfact>
</mgrwt>
</event>
<event>
 5    1  0.3270363E-002  0.1249949E+03  0.7818608E-02  0.1235077E+00
         -4   -1    0    0    0  501 -0.00000000000E+00  0.00000000000E+00  0.16785792608E+03  0.16786273037E+03  0.12700000000E+01 0.  1.
          4   -1    0    0  501    0  0.00000000000E+00 -0.00000000000E+00 -0.23246806747E+02  0.23281471687E+02  0.12700000000E+01 0.  1.
         25    2    1    2    0    0  0.00000000000E+00  0.00000000000E+00  0.14461111933E+03  0.19114420206E+03  0.12499492048E+03 0.  0.
    9000005    1    3    3    0    0  0.36204753027E+01  0.41176080878E+02  0.14397269395E+03  0.14979223639E+03  0.10000000000E+01 0.  0.
    9000005    1    3    3    0    0 -0.36204753027E+01 -0.41176080878E+02  0.63842538019E+00  0.41351965671E+02  0.10000000000E+01 0.  0.
<mgrwt>
<rscale>  0 0.12499492E+03</rscale>
<asrwt>0</asrwt>
<pdfrwt beam="2">  1        4 0.35794679E-02 0.12499492E+03</pdfrwt>
<pdfrwt beam="1">  1       -4 0.25827333E-01 0.12499492E+03</pdfrwt>
<totfact> 0.91659034E+03</totfact>
</mgrwt>
</event>
<event>
 5    1  0.3270363E-002  0.1250006E+03  0.7818608E-02  0.1235068E+00
         -4   -1    0    0    0  501 -0.00000000000E+00  0.00000000000E+00  0.59859426082E+01  0.61191836799E+01  0.12700000000E+01 0.  1.
          4   -1    0    0  501    0  0.00000000000E+00 -0.00000000000E+00 -0.64526040407E+03  0.64526165388E+03  0.12700000000E+01 0.  1.
         25    2    1    2    0    0  0.00000000000E+00  0.00000000000E+00 -0.63927446147E+03  0.65138083756E+03  0.12500063382E+03 0.  0.
    9000005    1    3    3    0    0  0.50689165887E+02 -0.24529440841E+02 -0.17843832989E+03  0.18711579992E+03  0.10000000000E+01 0.  0.
    9000005    1    3    3    0    0 -0.50689165887E+02  0.24529440841E+02 -0.46083613157E+03  0.46426503763E+03  0.10000000000E+01 0.  0.
<mgrwt>
<rscale>  0 0.12500063E+03</rscale>
<asrwt>0</asrwt>
<pdfrwt beam="2">  1        4 0.99281122E-01 0.12500063E+03</pdfrwt>
<pdfrwt beam="1">  1       -4 0.93126021E-03 0.12500063E+03</pdfrwt>
<totfact> 0.45776212E+03</totfact>
</mgrwt>
</event>
<event>
 5    1  0.3270363E-002  0.1249885E+03  0.7818608E-02  0.1235087E+00
          4   -1    0    0  501    0  0.00000000000E+00  0.00000000000E+00  0.46224999349E+02  0.46242442246E+02  0.12700000000E+01 0.  1.
         -4   -1    0    0    0  501 -0.00000000000E+00 -0.00000000000E+00 -0.84451370584E+02  0.84460919327E+02  0.12700000000E+01 0.  1.
         25    2    1    2    0    0  0.00000000000E+00  0.00000000000E+00 -0.38226371235E+02  0.13070336157E+03  0.12498845254E+03 0.  0.
    9000005    1    3    3    0    0 -0.15036775037E+02  0.54511669132E+02  0.86901153853E+01  0.57220143136E+02  0.10000000000E+01 0.  0.
    9000005    1    3    3    0    0  0.15036775037E+02 -0.54511669132E+02 -0.46916486620E+02  0.73483218437E+02  0.10000000000E+01 0.  0.
<mgrwt>
<rscale>  0 0.12498845E+03</rscale>
<asrwt>0</asrwt>
<pdfrwt beam="1">  1        4 0.71136146E-02 0.12498845E+03</pdfrwt>
<pdfrwt beam="2">  1       -4 0.12994595E-01 0.12498845E+03</pdfrwt>
<totfact> 0.10332144E+04</totfact>
</mgrwt>
</event>
<event>
 5    1  0.3270363E-002  0.1250110E+03  0.7818608E-02  0.1235052E+00
          4   -1    0    0  501    0  0.00000000000E+00  0.00000000000E+00  0.89960479412E+02  0.89969443457E+02  0.12700000000E+01 0.  1.
         -4   -1    0    0    0  501 -0.00000000000E+00 -0.00000000000E+00 -0.43409057328E+02  0.43427631274E+02  0.12700000000E+01 0.  1.
         25    2    1    2    0    0  0.00000000000E+00  0.00000000000E+00  0.46551422084E+02  0.13339707473E+03  0.12501097811E+03 0.  0.
    9000005    1    3    3    0    0  0.59371109787E+02  0.13857720187E+02  0.86068693745E+01  0.61579568743E+02  0.10000000000E+01 0.  0.
    9000005    1    3    3    0    0 -0.59371109787E+02 -0.13857720187E+02  0.37944552709E+02  0.71817505989E+02  0.10000000000E+01 0.  0.
<mgrwt>
<rscale>  0 0.12501098E+03</rscale>
<asrwt>0</asrwt>
<pdfrwt beam="1">  1        4 0.13842192E-01 0.12501098E+03</pdfrwt>
<pdfrwt beam="2">  1       -4 0.66804349E-02 0.12501098E+03</pdfrwt>
<totfact> 0.10269425E+04</totfact>
</mgrwt>
</event>
<event>
 5    1  0.3270363E-002  0.1250003E+03  0.7818608E-02  0.1235069E+00
          4   -1    0    0  501    0  0.00000000000E+00  0.00000000000E+00  0.20093995084E+02  0.20134088964E+02  0.12700000000E+01 0.  1.
         -4   -1    0    0    0  501 -0.00000000000E+00 -0.00000000000E+00 -0.19416379167E+03  0.19416794507E+03  0.12700000000E+01 0.  1.
         25    2    1    2    0    0  0.00000000000E+00  0.00000000000E+00 -0.17406979658E+03  0.21430203404E+03  0.12500027084E+03 0.  0.
    9000005    1    3    3    0    0 -0.35807406969E+02  0.42891279533E+02 -0.13502113960E+03  0.14612850643E+03  0.10000000000E+01 0.  0.
    9000005    1    3    3    0    0  0.35807406969E+02 -0.42891279533E+02 -0.39048656983E+02  0.68173527604E+02  0.10000000000E+01 0.  0.
<mgrwt>
<rscale>  0 0.12500027E+03</rscale>
<asrwt>0</asrwt>
<pdfrwt beam="1">  1        4 0.30947876E-02 0.12500027E+03</pdfrwt>
<pdfrwt beam="2">  1       -4 0.29874755E-01 0.12500027E+03</pdfrwt>
<totfact> 0.87777556E+03</totfact>
</mgrwt>
</event>
<event>
 5    1  0.3270363E-002  0.1250048E+03  0.7818608E-02  0.1235062E+00
          4   -1    0    0  501    0  0.00000000000E+00  0.00000000000E+00  0.87331917755E+02  0.87341151577E+02  0.12700000000E+01 0. -1.
         -4   -1    0    0    0  501 -0.00000000000E+00 -0.00000000000E+00 -0.44711618908E+02  0.44729651970E+02  0.12700000000E+01 0. -1.
         25    2    1    2    0    0  0.00000000000E+00  0.00000000000E+00  0.42620298847E+02  0.13207080355E+03  0.12500482901E+03 0.  0.
    9000005    1    3    3    0    0  0.50554343411E+02  0.28571514552E+02  0.45712889109E+02  0.73910359979E+02  0.10000000000E+01 0.  0.
    9000005    1    3    3    0    0 -0.50554343411E+02 -0.28571514552E+02 -0.30925902617E+01  0.58160443568E+02  0.10000000000E+01 0.  0.
<mgrwt>
<rscale>  0 0.12500483E+03</rscale>
<asrwt>0</asrwt>
<pdfrwt beam="1">  1        4 0.13437777E-01 0.12500483E+03</pdfrwt>
<pdfrwt beam="2">  1       -4 0.68808081E-02 0.12500483E+03</pdfrwt>
<totfact> 0.10299065E+04</totfact>
</mgrwt>
</event>
<event>
 5    1  0.3270363E-002  0.1249926E+03  0.7818608E-02  0.1235081E+00
         -4   -1    0    0    0  501 -0.00000000000E+00  0.00000000000E+00  0.27896076484E+03  0.27896365574E+03  0.12700000000E+01 0. -1.
          4   -1    0    0  501    0  0.00000000000E+00 -0.00000000000E+00 -0.13969435450E+02  0.14027046261E+02  0.12700000000E+01 0. -1.
         25    2    1    2    0    0  0.00000000000E+00  0.00000000000E+00  0.26499132939E+03  0.29299070200E+03  0.12499258699E+03 0.  0.
    9000005    1    3    3    0    0 -0.15989605520E+02 -0.60278720361E+02  0.12323880899E+03  0.13812311774E+03  0.10000000000E+01 0.  0.
    9000005    1    3    3    0    0  0.15989605520E+02  0.60278720361E+02  0.14175252041E+03  0.15486758426E+03  0.10000000000E+01 0.  0.
<mgrwt>
<rscale>  0 0.12499259E+03</rscale>
<asrwt>0</asrwt>
<pdfrwt beam="2">  1        4 0.21537979E-02 0.12499259E+03</pdfrwt>
<pdfrwt beam="1">  1       -4 0.42921694E-01 0.12499259E+03</pdfrwt>
<totfact> 0.76499162E+03</totfact>
</mgrwt>
</event>
<event>
 5    1  0.3270363E-002  0.1250039E+03  0.7818608E-02  0.1235063E+00
          4   -1    0    0  501    0  0.00000000000E+00  0.00000000000E+00  0.77190274768E+02  0.77200721621E+02  0.12700000000E+01 0. -1.
         -4   -1    0    0    0  501 -0.00000000000E+00 -0.00000000000E+00 -0.50586805766E+02  0.50602745159E+02  0.12700000000E+01 0. -1.
         25    2    1    2    0    0  0.00000000000E+00  0.00000000000E+00  0.26603469003E+02  0.12780346678E+03  0.12500392617E+03 0.  0.
    9000005    1    3    3    0    0  0.28082939876E+02  0.48380582928E+02  0.41785373262E+02  0.69830865204E+02  0.10000000000E+01 0.  0.
    9000005    1    3    3    0    0 -0.28082939876E+02 -0.48380582928E+02 -0.15181904259E+02  0.57972601576E+02  0.10000000000E+01 0.  0.
<mgrwt>
<rscale>  0 0.12500393E+03</rscale>
<asrwt>0</asrwt>
<pdfrwt beam="1">  1        4 0.11877457E-01 0.12500393E+03</pdfrwt>
<pdfrwt beam="2">  1       -4 0.77846152E-02 0.12500393E+03</pdfrwt>
<totfact> 0.10390813E+04</totfact>
</mgrwt>
</event>
<event>
 5    1  0.3270363E-002  0.1249951E+03  0.7818608E-02  0.1235077E+00
          4   -1    0    0  501    0  0.00000000000E+00  0.00000000000E+00  0.20435968265E+01  0.24060731471E+01  0.12700000000E+01 0. -1.
         -4   -1    0    0    0  501 -0.00000000000E+00 -0.00000000000E+00 -0.17552476316E+04  0.17552480910E+04  0.12700000000E+01 0. -1.
         25    2    1    2    0    0  0.00000000000E+00  0.00000000000E+00 -0.17532040347E+04  0.17576541642E+04  0.12499509341E+03 0.  0.
    9000005    1    3    3    0    0  0.68955656075E+01 -0.61702627696E+02 -0.77699111121E+03  0.77946837652E+03  0.10000000000E+01 0.  0.
    9000005    1    3    3    0    0 -0.68955656075E+01  0.61702627696E+02 -0.97621292353E+03  0.97818578765E+03  0.10000000000E+01 0.  0.
<mgrwt>
<rscale>  0 0.12499509E+03</rscale>
<asrwt>0</asrwt>
<pdfrwt beam="1">  1        4 0.34231905E-03 0.12499509E+03</pdfrwt>
<pdfrwt beam="2">  1       -4 0.27006491E+00 0.12499509E+03</pdfrwt>
<totfact> 0.13368869E+03</totfact>
</mgrwt>
</event>
<event>
 5    1  0.3270363E-002  0.1249967E+03  0.7818608E-02  0.1235074E+00
          4   -1    0    0  501    0  0.00000000000E+00  0.00000000000E+00  0.55061412967E+01  0.56507072105E+01  0.12700000000E+01 0. -1.
         -4   -1    0    0    0  501 -0.00000000000E+00 -0.00000000000E+00 -0.70006007611E+03  0.70006122808E+03  0.12700000000E+01 0. -1.
         25    2    1    2    0    0  0.00000000000E+00  0.00000000000E+00 -0.69455393481E+03  0.70571193529E+03  0.12499666895E+03 0.  0.
    9000005    1    3    3    0    0  0.47716787137E+00  0.46263604832E+01 -0.69910925828E+03  0.69912544362E+03  0.10000000000E+01 0.  0.
    9000005    1    3    3    0    0 -0.47716787137E+00 -0.46263604832E+01  0.45553234755E+01  0.65864916659E+01  0.10000000000E+01 0.  0.
<mgrwt>
<rscale>  0 0.12499667E+03</rscale>
<asrwt>0</asrwt>
<pdfrwt beam="1">  1        4 0.85830828E-03 0.12499667E+03</pdfrwt>
<pdfrwt beam="2">  1       -4 0.10771269E+00 0.12499667E+03</pdfrwt>
<totfact> 0.42790021E+03</totfact>
</mgrwt>
</event>
<event>
 5    1  0.3270363E-002  0.1249968E+03  0.7818608E-02  0.1235074E+00
         -4   -1    0    0    0  501 -0.00000000000E+00  0.00000000000E+00  0.27902423285E+02  0.27931310839E+02  0.12700000000E+01 0. -1.
          4   -1    0    0  501    0  0.00000000000E+00 -0.00000000000E+00 -0.13988546504E+03  0.13989122999E+03  0.12700000000E+01 0. -1.
         25    2    1    2    0    0  0.00000000000E+00  0.00000000000E+00 -0.11198304175E+03  0.16782254083E+03  0.12499681424E+03 0.  0.
    9000005    1    3    3    0    0 -0.26139011485E+02 -0.22199859551E+02  0.14146041063E+02  0.37110539786E+02  0.10000000000E+01 0.  0.
    9000005    1    3    3    0    0  0.26139011485E+02  0.22199859551E+02 -0.12612908282E+03  0.13071200105E+03  0.10000000000E+01 0.  0.
<mgrwt>
<rscale>  0 0.12499681E+03</rscale>
<asrwt>0</asrwt>
<pdfrwt beam="2">  1        4 0.21523506E-01 0.12499681E+03</pdfrwt>
<pdfrwt beam="1">  1       -4 0.42953462E-02 0.12499681E+03</pdfrwt>
<totfact> 0.95862361E+03</totfact>
</mgrwt>
</event>
<event>
 5    1  0.3270363E-002  0.1249997E+03  0.7818608E-02  0.1235070E+00
          4   -1    0    0  501    0  0.00000000000E+00  0.00000000000E+00  0.53424674275E+02  0.53439767228E+02  0.12700000000E+01 0. -1.
         -4   -1    0    0    0  501 -0.00000000000E+00 -0.00000000000E+00 -0.73085647310E+02  0.73096680791E+02  0.12700000000E+01 0. -1.
         25    2    1    2    0    0  0.00000000000E+00  0.00000000000E+00 -0.19660973035E+02  0.12653644802E+03  0.12499967527E+03 0.  0.
    9000005    1    3    3    0    0  0.40768899696E+02  0.41447411285E+02  0.13369358311E+02  0.59663479837E+02  0.10000000000E+01 0.  0.
    9000005    1    3    3    0    0 -0.40768899696E+02 -0.41447411285E+02 -0.33030331346E+02  0.66872968182E+02  0.10000000000E+01 0.  0.
<mgrwt>
<rscale>  0 0.12499968E+03</rscale>
<asrwt>0</asrwt>
<pdfrwt beam="1">  1        4 0.82211903E-02 0.12499968E+03</pdfrwt>
<pdfrwt beam="2">  1       -4 0.11245956E-01 0.12499968E+03</pdfrwt>
<totfact> 0.10419310E+04</totfact>
</mgrwt>
</event>
<event>
 5    1  0.3270363E-002  0.1249796E+03  0.7818608E-02  0.1235101E+00
         -4   -1    0    0    0  501 -0.00000000000E+00  0.00000000000E+00  0.93582391307E+02  0.93591008450E+02  0.12700000000E+01 0.  1.
          4   -1    0    0  501    0  0.00000000000E+00 -0.00000000000E+00 -0.41707471874E+02  0.41726803258E+02  0.12700000000E+01 0.  1.
         25    2    1    2    0    0  0.00000000000E+00  0.00000000000E+00  0.51874919433E+02  0.13531781171E+03  0.12497960993E+03 0.  0.
    9000005    1    3    3    0    0 -0.28624639538E+02 -0.38261597054E+02  0.69524884608E+02  0.84368414573E+02  0.10000000000E+01 0.  0.
    9000005    1    3    3    0    0  0.28624639538E+02  0.38261597054E+02 -0.17649965175E+02  0.50949397136E+02  0.10000000000E+01 0.  0.
<mgrwt>
<rscale>  0 0.12497961E+03</rscale>
<asrwt>0</asrwt>
<pdfrwt beam="2">  1        4 0.64186841E-02 0.12497961E+03</pdfrwt>
<pdfrwt beam="1">  1       -4 0.14399441E-01 0.12497961E+03</pdfrwt>
<totfact> 0.10236083E+04</totfact>
</mgrwt>
</event>
<event>
 5    1  0.3270363E-002  0.1250002E+03  0.7818608E-02  0.1235069E+00
         -4   -1    0    0    0  501 -0.00000000000E+00  0.00000000000E+00  0.55947812462E+02  0.55962224931E+02  0.12700000000E+01 0.  1.
          4   -1    0    0  501    0  0.00000000000E+00 -0.00000000000E+00 -0.69790595166E+02  0.69802149492E+02  0.12700000000E+01 0.  1.
         25    2    1    2    0    0  0.00000000000E+00  0.00000000000E+00 -0.13842782705E+02  0.12576437442E+03  0.12500022096E+03 0.  0.
    9000005    1    3    3    0    0 -0.24413331465E+02 -0.16402905262E+02  0.48553667448E+02  0.56776092477E+02  0.10000000000E+01 0.  0.
    9000005    1    3    3    0    0  0.24413331465E+02  0.16402905262E+02 -0.62396450153E+02  0.68988281947E+02  0.10000000000E+01 0.  0.
<mgrwt>
<rscale>  0 0.12500022E+03</rscale>
<asrwt>0</asrwt>
<pdfrwt beam="2">  1        4 0.10739012E-01 0.12500022E+03</pdfrwt>
<pdfrwt beam="1">  1       -4 0.86093532E-02 0.12500022E+03</pdfrwt>
<totfact> 0.10436076E+04</totfact>
</mgrwt>
</event>
<event>
 5    1  0.3270363E-002  0.1250097E+03  0.7818608E-02  0.1235054E+00
          4   -1    0    0  501    0  0.00000000000E+00  0.00000000000E+00  0.12661899389E+03  0.12662536283E+03  0.12700000000E+01 0.  1.
         -4   -1    0    0    0  501 -0.00000000000E+00 -0.00000000000E+00 -0.30835000485E+02  0.30861143124E+02  0.12700000000E+01 0.  1.
         25    2    1    2    0    0  0.00000000000E+00  0.00000000000E+00  0.95783993403E+02  0.15748650596E+03  0.12500970429E+03 0.  0.
    9000005    1    3    3    0    0  0.52377839681E+02 -0.21407901873E+02  0.81320968469E+02  0.99074902296E+02  0.10000000000E+01 0.  0.
    9000005    1    3    3    0    0 -0.52377839681E+02  0.21407901873E+02  0.14463024934E+02  0.58411603663E+02  0.10000000000E+01 0.  0.
<mgrwt>
<rscale>  0 0.12500970E+03</rscale>
<asrwt>0</asrwt>
<pdfrwt beam="1">  1        4 0.19482346E-01 0.12500970E+03</pdfrwt>
<pdfrwt beam="2">  1       -4 0.47463471E-02 0.12500970E+03</pdfrwt>
<totfact> 0.97808224E+03</totfact>
</mgrwt>
</event>
<event>
 5    1  0.3270363E-002  0.1250126E+03  0.7818608E-02  0.1235050E+00
          4   -1    0    0  501    0  0.00000000000E+00  0.00000000000E+00  0.11182301531E+02  0.11254188888E+02  0.12700000000E+01 0. -1.
         -4   -1    0    0    0  501 -0.00000000000E+00 -0.00000000000E+00 -0.34820223608E+03  0.34820455211E+03  0.12700000000E+01 0. -1.
         25    2    1    2    0    0  0.00000000000E+00  0.00000000000E+00 -0.33701993455E+03  0.35945874100E+03  0.12501260016E+03 0.  0.
    9000005    1    3    3    0    0 -0.37825930552E+02 -0.12551207157E+02 -0.30081879349E+02  0.49942499821E+02  0.10000000000E+01 0.  0.
    9000005    1    3    3    0    0  0.37825930552E+02  0.12551207157E+02 -0.30693805520E+03  0.30951624118E+03  0.10000000000E+01 0.  0.
<mgrwt>
<rscale>  0 0.12501260E+03</rscale>
<asrwt>0</asrwt>
<pdfrwt beam="1">  1        4 0.17260623E-02 0.12501260E+03</pdfrwt>
<pdfrwt beam="2">  1       -4 0.53575275E-01 0.12501260E+03</pdfrwt>
<totfact> 0.68677223E+03</totfact>
</mgrwt>
</event>
<event>
 5    1  0.3270363E-002  0.1250015E+03  0.7818608E-02  0.1235067E+00
          4   -1    0    0  501    0  0.00000000000E+00  0.00000000000E+00  0.36006008990E+02  0.36028399679E+02  0.12700000000E+01 0. -1.
         -4   -1    0    0    0  501 -0.00000000000E+00 -0.00000000000E+00 -0.10843162709E+03  0.10843906424E+03  0.12700000000E+01 0. -1.
         25    2    1    2    0    0  0.00000000000E+00  0.00000000000E+00 -0.72425618101E+02  0.14446746392E+03  0.12500151189E+03 0.  0.
    9000005    1    3    3    0    0 -0.22138169058E+02  0.25560456747E+02  0.24525048260E+02  0.41784129410E+02  0.10000000000E+01 0.  0.
    9000005    1    3    3    0    0  0.22138169058E+02 -0.25560456747E+02 -0.96950666362E+02  0.10268333451E+03  0.10000000000E+01 0.  0.
<mgrwt>
<rscale>  0 0.12500151E+03</rscale>
<asrwt>0</asrwt>
<pdfrwt beam="1">  1        4 0.55416805E-02 0.12500151E+03</pdfrwt>
<pdfrwt beam="2">  1       -4 0.16684083E-01 0.12500151E+03</pdfrwt>
<totfact> 0.10041478E+04</totfact>
</mgrwt>
</event>
<event>
 5    1  0.3270363E-002  0.1249977E+03  0.7818608E-02  0.1235073E+00
          4   -1    0    0  501    0  0.00000000000E+00  0.00000000000E+00  0.20408316140E+03  0.20408711294E+03  0.12700000000E+01 0. -1.
         -4   -1    0    0    0  501 -0.00000000000E+00 -0.00000000000E+00 -0.19114571635E+02  0.19156715501E+02  0.12700000000E+01 0. -1.
         25    2    1    2    0    0  0.00000000000E+00  0.00000000000E+00  0.18496858977E+03  0.22324382844E+03  0.12499771092E+03 0.  0.
    9000005    1    3    3    0    0  0.38350338504E+02  0.24085363446E+02  0.15577983246E+02  0.47901218750E+02  0.10000000000E+01 0.  0.
    9000005    1    3    3    0    0 -0.38350338504E+02 -0.24085363446E+02  0.16939060652E+03  0.17534260969E+03  0.10000000000E+01 0.  0.
<mgrwt>
<rscale>  0 0.12499771E+03</rscale>
<asrwt>0</asrwt>
<pdfrwt beam="1">  1        4 0.31400955E-01 0.12499771E+03</pdfrwt>
<pdfrwt beam="2">  1       -4 0.29442492E-02 0.12499771E+03</pdfrwt>
<totfact> 0.86362059E+03</totfact>
</mgrwt>
</event>
<event>
 5    1  0.3270363E-002  0.1249988E+03  0.7818608E-02  0.1235071E+00
          4   -1    0    0  501    0  0.00000000000E+00  0.00000000000E+00  0.19688568206E+02  0.19729486005E+02  0.12700000000E+01 0.  1.
         -4   -1    0    0    0  501 -0.00000000000E+00 -0.00000000000E+00 -0.19814935644E+03  0.19815342631E+03  0.12700000000E+01 0.  1.
         25    2    1    2    0    0  0.00000000000E+00  0.00000000000E+00 -0.17846078823E+03  0.21788291231E+03  0.12499884216E+03 0.  0.
    9000005    1    3    3    0    0 -0.22954405765E+02 -0.40486636067E+00 -0.19054078921E+03  0.19192149701E+03  0.10000000000E+01 0.  0.
    9000005    1    3    3    0    0  0.22954405765E+02  0.40486636067E+00  0.12080000980E+02  0.25961415302E+02  0.10000000000E+01 0.  0.
<mgrwt>
<rscale>  0 0.12499884E+03</rscale>
<asrwt>0</asrwt>
<pdfrwt beam="1">  1        4 0.30324712E-02 0.12499884E+03</pdfrwt>
<pdfrwt beam="2">  1       -4 0.30487976E-01 0.12499884E+03</pdfrwt>
<totfact> 0.87206720E+03</totfact>
</mgrwt>
</event>
<event>
 5    1  0.3270363E-002  0.1249973E+03  0.7818608E-02  0.1235073E+00
          4   -1    0    0  501    0  0.00000000000E+00  0.00000000000E+00  0.52205620182E+03  0.52205774657E+03  0.12700000000E+01 0. -1.
         -4   -1    0    0    0  501 -0.00000000000E+00 -0.00000000000E+00 -0.74266506813E+01  0.75344568711E+01  0.12700000000E+01 0. -1.
         25    2    1    2    0    0  0.00000000000E+00  0.00000000000E+00  0.51462955114E+03  0.52959220345E+03  0.12499730815E+03 0.  0.
    9000005    1    3    3    0    0 -0.42440036851E+02 -0.41753966002E+02  0.17686729571E+03  0.18662151723E+03  0.10000000000E+01 0.  0.
    9000005    1    3    3    0    0  0.42440036851E+02  0.41753966002E+02  0.33776225543E+03  0.34297068621E+03  0.10000000000E+01 0.  0.
<mgrwt>
<rscale>  0 0.12499731E+03</rscale>
<asrwt>0</asrwt>
<pdfrwt beam="1">  1        4 0.80324769E-01 0.12499731E+03</pdfrwt>
<pdfrwt beam="2">  1       -4 0.11509730E-02 0.12499731E+03</pdfrwt>
<totfact> 0.53642480E+03</totfact>
</mgrwt>
</event>
<event>
 5    1  0.3270363E-002  0.1249977E+03  0.7818608E-02  0.1235073E+00
         -4   -1    0    0    0  501 -0.00000000000E+00  0.00000000000E+00  0.98223503274E+02  0.98231713288E+02  0.12700000000E+01 0. -1.
          4   -1    0    0  501    0  0.00000000000E+00 -0.00000000000E+00 -0.39747494489E+02  0.39767778642E+02  0.12700000000E+01 0. -1.
         25    2    1    2    0    0  0.00000000000E+00  0.00000000000E+00  0.58476008786E+02  0.13799949193E+03  0.12499766466E+03 0.  0.
    9000005    1    3    3    0    0  0.61707409675E+00  0.62046823359E+02  0.21056729681E+02  0.65533006449E+02  0.10000000000E+01 0.  0.
    9000005    1    3    3    0    0 -0.61707409675E+00 -0.62046823359E+02  0.37419279104E+02  0.72466485482E+02  0.10000000000E+01 0.  0.
<mgrwt>
<rscale>  0 0.12499766E+03</rscale>
<asrwt>0</asrwt>
<pdfrwt beam="2">  1        4 0.61171910E-02 0.12499766E+03</pdfrwt>
<pdfrwt beam="1">  1       -4 0.15113500E-01 0.12499766E+03</pdfrwt>
<totfact> 0.10175752E+04</totfact>
</mgrwt>
</event>
<event>
 5    1  0.3270363E-002  0.1250002E+03  0.7818608E-02  0.1235069E+00
         -4   -1    0    0    0  501 -0.00000000000E+00  0.00000000000E+00  0.10323536775E+02  0.10401361043E+02  0.12700000000E+01 0. -1.
          4   -1    0    0  501    0  0.00000000000E+00 -0.00000000000E+00 -0.37688418885E+03  0.37688632863E+03  0.12700000000E+01 0. -1.
         25    2    1    2    0    0  0.00000000000E+00  0.00000000000E+00 -0.36656065207E+03  0.38728768967E+03  0.12500017168E+03 0.  0.
    9000005    1    3    3    0    0  0.57902557748E+02 -0.12191056065E+02 -0.24555014213E+03  0.25258107677E+03  0.10000000000E+01 0.  0.
    9000005    1    3    3    0    0 -0.57902557748E+02  0.12191056065E+02 -0.12101050994E+03  0.13470661290E+03  0.10000000000E+01 0.  0.
<mgrwt>
<rscale>  0 0.12500017E+03</rscale>
<asrwt>0</asrwt>
<pdfrwt beam="2">  1        4 0.57988323E-01 0.12500017E+03</pdfrwt>
<pdfrwt beam="1">  1       -4 0.15943878E-02 0.12500017E+03</pdfrwt>
<totfact> 0.65807996E+03</totfact>
</mgrwt>
</event>
<event>
 5    1  0.3270363E-002  0.1250003E+03  0.7818608E-02  0.1235069E+00
          4   -1    0    0  501    0  0.00000000000E+00  0.00000000000E+00  0.12639591589E+02  0.12703234845E+02  0.12700000000E+01 0. -1.
         -4   -1    0    0    0  501 -0.00000000000E+00 -0.00000000000E+00 -0.30820903839E+03  0.30821165494E+03  0.12700000000E+01 0. -1.
         25    2    1    2    0    0  0.00000000000E+00  0.00000000000E+00 -0.29556944680E+03  0.32091488979E+03  0.12500027443E+03 0.  0.
    9000005    1    3    3    0    0  0.48374567595E+02 -0.30782466300E+02 -0.21158688662E+03  0.21922059577E+03  0.10000000000E+01 0.  0.
    9000005    1    3    3    0    0 -0.48374567595E+02  0.30782466300E+02 -0.83982560180E+02  0.10169429402E+03  0.10000000000E+01 0.  0.
<mgrwt>
<rscale>  0 0.12500027E+03</rscale>
<asrwt>0</asrwt>
<pdfrwt beam="1">  1        4 0.19496497E-02 0.12500027E+03</pdfrwt>
<pdfrwt beam="2">  1       -4 0.47421866E-01 0.12500027E+03</pdfrwt>
<totfact> 0.73047001E+03</totfact>
</mgrwt>
</event>
<event>
 5    1  0.3270363E-002  0.1250015E+03  0.7818608E-02  0.1235067E+00
          4   -1    0    0  501    0  0.00000000000E+00  0.00000000000E+00  0.17150550586E+02  0.17197508116E+02  0.12700000000E+01 0. -1.
         -4   -1    0    0    0  501 -0.00000000000E+00 -0.00000000000E+00 -0.22740769898E+03  0.22741124522E+03  0.12700000000E+01 0. -1.
         25    2    1    2    0    0  0.00000000000E+00  0.00000000000E+00 -0.21025714839E+03  0.24460875334E+03  0.12500149503E+03 0.  0.
    9000005    1    3    3    0    0 -0.50380602250E+02 -0.22122279010E+02 -0.47153607732E+02  0.72471118619E+02  0.10000000000E+01 0.  0.
    9000005    1    3    3    0    0  0.50380602250E+02  0.22122279010E+02 -0.16310354066E+03  0.17213763472E+03  0.10000000000E+01 0.  0.
<mgrwt>
<rscale>  0 0.12500150E+03</rscale>
<asrwt>0</asrwt>
<pdfrwt beam="1">  1        4 0.26424313E-02 0.12500150E+03</pdfrwt>
<pdfrwt beam="2">  1       -4 0.34989683E-01 0.12500150E+03</pdfrwt>
<totfact> 0.83112960E+03</totfact>
</mgrwt>
</event>
<event>
 5    1  0.3270363E-002  0.1250185E+03  0.7818608E-02  0.1235040E+00
          4   -1    0    0  501    0  0.00000000000E+00  0.00000000000E+00  0.18529947960E+03  0.18530383169E+03  0.12700000000E+01 0. -1.
         -4   -1    0    0    0  501 -0.00000000000E+00 -0.00000000000E+00 -0.21063253367E+02  0.21101505690E+02  0.12700000000E+01 0. -1.
         25    2    1    2    0    0  0.00000000000E+00  0.00000000000E+00  0.16423622623E+03  0.20640533738E+03  0.12501849980E+03 0.  0.
    9000005    1    3    3    0    0  0.47188920547E+02  0.32251440202E+02  0.40368523272E+02  0.69982621333E+02  0.10000000000E+01 0.  0.
    9000005    1    3    3    0    0 -0.47188920547E+02 -0.32251440202E+02  0.12386770296E+03  0.13642271605E+03  0.10000000000E+01 0.  0.
<mgrwt>
<rscale>  0 0.12501850E+03</rscale>
<asrwt>0</asrwt>
<pdfrwt beam="1">  1        4 0.28510890E-01 0.12501850E+03</pdfrwt>
<pdfrwt beam="2">  1       -4 0.32437777E-02 0.12501850E+03</pdfrwt>
<totfact> 0.89029482E+03</totfact>
</mgrwt>
</event>
<event>
 5    1  0.3270363E-002  0.1250016E+03  0.7818608E-02  0.1235067E+00
         -4   -1    0    0    0  501 -0.00000000000E+00  0.00000000000E+00  0.30641959977E+02  0.30668267171E+02  0.12700000000E+01 0. -1.
          4   -1    0    0  501    0  0.00000000000E+00 -0.00000000000E+00 -0.12739955609E+03  0.12740588602E+03  0.12700000000E+01 0. -1.
         25    2    1    2    0    0  0.00000000000E+00  0.00000000000E+00 -0.96757596116E+02  0.15807415319E+03  0.12500162199E+03 0.  0.
    9000005    1    3    3    0    0  0.20325228104E+02  0.43602854125E+02  0.20622464343E+01  0.48161983406E+02  0.10000000000E+01 0.  0.
    9000005    1    3    3    0    0 -0.20325228104E+02 -0.43602854125E+02 -0.98819842550E+02  0.10991216979E+03  0.10000000000E+01 0.  0.
<mgrwt>
<rscale>  0 0.12500162E+03</rscale>
<asrwt>0</asrwt>
<pdfrwt beam="2">  1        4 0.19602442E-01 0.12500162E+03</pdfrwt>
<pdfrwt beam="1">  1       -4 0.47166583E-02 0.12500162E+03</pdfrwt>
<totfact> 0.97711800E+03</totfact>
</mgrwt>
</event>
<event>
 5    1  0.3270363E-002  0.1249989E+03  0.7818608E-02  0.1235071E+00
          4   -1    0    0  501    0  0.00000000000E+00  0.00000000000E+00  0.20885988128E+02  0.20924564514E+02  0.12700000000E+01 0. -1.
         -4   -1    0    0    0  501 -0.00000000000E+00 -0.00000000000E+00 -0.18681086225E+03  0.18681517914E+03  0.12700000000E+01 0. -1.
         25    2    1    2    0    0  0.00000000000E+00  0.00000000000E+00 -0.16592487413E+03  0.20773974365E+03  0.12499894895E+03 0.  0.
    9000005    1    3    3    0    0 -0.53192570553E+02 -0.32287373254E+02 -0.73377789365E+02  0.96214468797E+02  0.10000000000E+01 0.  0.
    9000005    1    3    3    0    0  0.53192570553E+02  0.32287373254E+02 -0.92547084761E+02  0.11152527486E+03  0.10000000000E+01 0.  0.
<mgrwt>
<rscale>  0 0.12499895E+03</rscale>
<asrwt>0</asrwt>
<pdfrwt beam="1">  1        4 0.32165285E-02 0.12499895E+03</pdfrwt>
<pdfrwt beam="2">  1       -4 0.28743431E-01 0.12499895E+03</pdfrwt>
<totfact> 0.88848434E+03</totfact>
</mgrwt>
</event>
<event>
 5    1  0.3270363E-002  0.1249937E+03  0.7818608E-02  0.1235079E+00
         -4   -1    0    0    0  501 -0.00000000000E+00  0.00000000000E+00  0.10070463318E+03  0.10071264094E+03  0.12700000000E+01 0. -1.
          4   -1    0    0  501    0  0.00000000000E+00 -0.00000000000E+00 -0.38765304801E+02  0.38786102619E+02  0.12700000000E+01 0. -1.
         25    2    1    2    0    0  0.00000000000E+00  0.00000000000E+00  0.61939328382E+02  0.13949874356E+03  0.12499367605E+03 0.  0.
    9000005    1    3    3    0    0 -0.89142519681E+01  0.56178139039E+02  0.20942937416E+01  0.56928316858E+02  0.10000000000E+01 0.  0.
    9000005    1    3    3    0    0  0.89142519681E+01 -0.56178139039E+02  0.59845034641E+02  0.82570426698E+02  0.10000000000E+01 0.  0.
<mgrwt>
<rscale>  0 0.12499368E+03</rscale>
<asrwt>0</asrwt>
<pdfrwt beam="2">  1        4 0.59661088E-02 0.12499368E+03</pdfrwt>
<pdfrwt beam="1">  1       -4 0.15495236E-01 0.12499368E+03</pdfrwt>
<totfact> 0.10145431E+04</totfact>
</mgrwt>
</event>
<event>
 5    1  0.3270363E-002  0.1250015E+03  0.7818608E-02  0.1235067E+00
         -4   -1    0    0    0  501 -0.00000000000E+00  0.00000000000E+00  0.72390623730E+02  0.72401763127E+02  0.12700000000E+01 0. -1.
          4   -1    0    0  501    0  0.00000000000E+00 -0.00000000000E+00 -0.53939267933E+02  0.53954216936E+02  0.12700000000E+01 0. -1.
         25    2    1    2    0    0  0.00000000000E+00  0.00000000000E+00  0.18451355796E+02  0.12635598006E+03  0.12500152466E+03 0.  0.
    9000005    1    3    3    0    0  0.34595804177E+02  0.44673015391E+02 -0.17761875823E+02  0.59237084698E+02  0.10000000000E+01 0.  0.
    9000005    1    3    3    0    0 -0.34595804177E+02 -0.44673015391E+02  0.36213231619E+02  0.67118895365E+02  0.10000000000E+01 0.  0.
<mgrwt>
<rscale>  0 0.12500152E+03</rscale>
<asrwt>0</asrwt>
<pdfrwt beam="2">  1        4 0.83003557E-02 0.12500152E+03</pdfrwt>
<pdfrwt beam="1">  1       -4 0.11139026E-01 0.12500152E+03</pdfrwt>
<totfact> 0.10422812E+04</totfact>
</mgrwt>
</event>
<event>
 5    1  0.3270363E-002  0.1249882E+03  0.7818608E-02  0.1235088E+00
          4   -1    0    0  501    0  0.00000000000E+00  0.00000000000E+00  0.50925743385E+02  0.50941576726E+02  0.12700000000E+01 0. -1.
         -4   -1    0    0    0  501 -0.00000000000E+00 -0.00000000000E+00 -0.76657350021E+02  0.76667869491E+02  0.12700000000E+01 0. -1.
         25    2    1    2    0    0  0.00000000000E+00  0.00000000000E+00 -0.25731606636E+02  0.12760944622E+03  0.12498822018E+03 0.  0.
    9000005    1    3    3    0    0 -0.31210694876E+02  0.46136778185E+02  0.16044180917E+02  0.57975214681E+02  0.10000000000E+01 0.  0.
    9000005    1    3    3    0    0  0.31210694876E+02 -0.46136778185E+02 -0.41775787553E+02  0.69634231536E+02  0.10000000000E+01 0.  0.
<mgrwt>
<rscale>  0 0.12498822E+03</rscale>
<asrwt>0</asrwt>
<pdfrwt beam="1">  1        4 0.78367569E-02 0.12498822E+03</pdfrwt>
<pdfrwt beam="2">  1       -4 0.11795466E-01 0.12498822E+03</pdfrwt>
<totfact> 0.10398696E+04</totfact>
</mgrwt>
</event>
<event>
 5    1  0.3270363E-002  0.1249985E+03  0.7818608E-02  0.1235072E+00
          4   -1    0    0  501    0  0.00000000000E+00  0.00000000000E+00  0.51203500005E+01  0.52754984719E+01  0.12700000000E+01 0.  1.
         -4   -1    0    0    0  501 -0.00000000000E+00 -0.00000000000E+00 -0.75132765203E+03  0.75132872539E+03  0.12700000000E+01 0.  1.
         25    2    1    2    0    0  0.00000000000E+00  0.00000000000E+00 -0.74620730203E+03  0.75660422386E+03  0.12499845588E+03 0.  0.
    9000005    1    3    3    0    0  0.49684681062E+02 -0.46698750107E+01 -0.14543234581E+03  0.15375936548E+03  0.10000000000E+01 0.  0.
    9000005    1    3    3    0    0 -0.49684681062E+02  0.46698750107E+01 -0.60077495622E+03  0.60284485839E+03  0.10000000000E+01 0.  0.
<mgrwt>
<rscale>  0 0.12499846E+03</rscale>
<asrwt>0</asrwt>
<pdfrwt beam="1">  1        4 0.79976381E-03 0.12499846E+03</pdfrwt>
<pdfrwt beam="2">  1       -4 0.11560080E+00 0.12499846E+03</pdfrwt>
<totfact> 0.40261616E+03</totfact>
</mgrwt>
</event>
<event>
 5    1  0.3270363E-002  0.1249989E+03  0.7818608E-02  0.1235071E+00
         -4   -1    0    0    0  501 -0.00000000000E+00  0.00000000000E+00  0.52389518998E+01  0.53906879903E+01  0.12700000000E+01 0. -1.
          4   -1    0    0  501    0  0.00000000000E+00 -0.00000000000E+00 -0.73480835755E+03  0.73480945504E+03  0.12700000000E+01 0. -1.
         25    2    1    2    0    0  0.00000000000E+00  0.00000000000E+00 -0.72956940565E+03  0.74020014303E+03  0.12499893636E+03 0.  0.
    9000005    1    3    3    0    0  0.26459624765E+02 -0.51116163908E+02 -0.50889020287E+03  0.51213593169E+03  0.10000000000E+01 0.  0.
    9000005    1    3    3    0    0 -0.26459624765E+02  0.51116163908E+02 -0.22067920278E+03  0.22806421134E+03  0.10000000000E+01 0.  0.
<mgrwt>
<rscale>  0 0.12499894E+03</rscale>
<asrwt>0</asrwt>
<pdfrwt beam="2">  1        4 0.11305912E+00 0.12499894E+03</pdfrwt>
<pdfrwt beam="1">  1       -4 0.81774961E-03 0.12499894E+03</pdfrwt>
<totfact> 0.41048287E+03</totfact>
</mgrwt>
</event>
<event>
 5    1  0.3270363E-002  0.1249992E+03  0.7818608E-02  0.1235071E+00
         -4   -1    0    0    0  501 -0.00000000000E+00  0.00000000000E+00  0.16284310336E+03  0.16284805560E+03  0.12700000000E+01 0.  1.
          4   -1    0    0  501    0  0.00000000000E+00 -0.00000000000E+00 -0.23965356904E+02  0.23998983969E+02  0.12700000000E+01 0.  1.
         25    2    1    2    0    0  0.00000000000E+00  0.00000000000E+00  0.13887774646E+03  0.18684703957E+03  0.12499915093E+03 0.  0.
    9000005    1    3    3    0    0 -0.40021316866E+02  0.36024880318E+02  0.11684267735E+03  0.12865733192E+03  0.10000000000E+01 0.  0.
    9000005    1    3    3    0    0  0.40021316866E+02 -0.36024880318E+02  0.22035069103E+02  0.58189707647E+02  0.10000000000E+01 0.  0.
<mgrwt>
<rscale>  0 0.12499915E+03</rscale>
<asrwt>0</asrwt>
<pdfrwt beam="2">  1        4 0.36899457E-02 0.12499915E+03</pdfrwt>
<pdfrwt beam="1">  1       -4 0.25055752E-01 0.12499915E+03</pdfrwt>
<totfact> 0.92400590E+03</totfact>
</mgrwt>
</event>
<event>
 5    1  0.3270363E-002  0.1250588E+03  0.7818608E-02  0.1234977E+00
         -4   -1    0    0    0  501 -0.00000000000E+00  0.00000000000E+00  0.15496610093E+02  0.15548563418E+02  0.12700000000E+01 0. -1.
          4   -1    0    0  501    0  0.00000000000E+00 -0.00000000000E+00 -0.25183249095E+03  0.25183569326E+03  0.12700000000E+01 0. -1.
         25    2    1    2    0    0  0.00000000000E+00  0.00000000000E+00 -0.23633588086E+03  0.26738425668E+03  0.12505875474E+03 0.  0.
    9000005    1    3    3    0    0  0.35296779024E+02  0.32855205985E+02 -0.33084721440E+02  0.58488682346E+02  0.10000000000E+01 0.  0.
    9000005    1    3    3    0    0 -0.35296779024E+02 -0.32855205985E+02 -0.20325115942E+03  0.20889557433E+03  0.10000000000E+01 0.  0.
<mgrwt>
<rscale>  0 0.12505875E+03</rscale>
<asrwt>0</asrwt>
<pdfrwt beam="2">  1        4 0.38747700E-01 0.12505875E+03</pdfrwt>
<pdfrwt beam="1">  1       -4 0.23883368E-02 0.12505875E+03</pdfrwt>
<totfact> 0.79776498E+03</totfact>
</mgrwt>
</event>
<event>
 5    1  0.3270363E-002  0.1250131E+03  0.7818608E-02  0.1235049E+00
         -4   -1    0    0    0  501 -0.00000000000E+00  0.00000000000E+00  0.14952093327E+03  0.14952632673E+03  0.12700000000E+01 0.  1.
          4   -1    0    0  501    0  0.00000000000E+00 -0.00000000000E+00 -0.26109272164E+02  0.26140141410E+02  0.12700000000E+01 0.  1.
         25    2    1    2    0    0  0.00000000000E+00  0.00000000000E+00  0.12341166111E+03  0.17566646814E+03  0.12501307905E+03 0.  0.
    9000005    1    3    3    0    0  0.41586250650E+02  0.44692312727E+02  0.42892699116E+02  0.74616370170E+02  0.10000000000E+01 0.  0.
    9000005    1    3    3    0    0 -0.41586250650E+02 -0.44692312727E+02  0.80518961991E+02  0.10105009797E+03  0.10000000000E+01 0.  0.
<mgrwt>
<rscale>  0 0.12501308E+03</rscale>
<asrwt>0</asrwt>
<pdfrwt beam="2">  1        4 0.40196006E-02 0.12501308E+03</pdfrwt>
<pdfrwt beam="1">  1       -4 0.23006010E-01 0.12501308E+03</pdfrwt>
<totfact> 0.94375229E+03</totfact>
</mgrwt>
</event>
<event>
 5    1  0.3270363E-002  0.1249993E+03  0.7818608E-02  0.1235070E+00
         -4   -1    0    0    0  501 -0.00000000000E+00  0.00000000000E+00  0.24463895434E+02  0.24496838159E+02  0.12700000000E+01 0. -1.
          4   -1    0    0  501    0  0.00000000000E+00 -0.00000000000E+00 -0.15952928221E+03  0.15953433732E+03  0.12700000000E+01 0. -1.
         25    2    1    2    0    0  0.00000000000E+00  0.00000000000E+00 -0.13506538678E+03  0.18403117547E+03  0.12499925936E+03 0.  0.
    9000005    1    3    3    0    0 -0.78339606660E+01 -0.14874996634E+02  0.21079235108E+02  0.26980930623E+02  0.10000000000E+01 0.  0.
    9000005    1    3    3    0    0  0.78339606660E+01  0.14874996634E+02 -0.15614462188E+03  0.15705024485E+03  0.10000000000E+01 0.  0.
<mgrwt>
<rscale>  0 0.12499926E+03</rscale>
<asrwt>0</asrwt>
<pdfrwt beam="2">  1        4 0.24545889E-01 0.12499926E+03</pdfrwt>
<pdfrwt beam="1">  1       -4 0.37665992E-02 0.12499926E+03</pdfrwt>
<totfact> 0.92897912E+03</totfact>
</mgrwt>
</event>
<event>
 5    1  0.3270363E-002  0.1250047E+03  0.7818608E-02  0.1235062E+00
         -4   -1    0    0    0  501 -0.00000000000E+00  0.00000000000E+00  0.55290728900E+03  0.55290874757E+03  0.12700000000E+01 0. -1.
          4   -1    0    0  501    0  0.00000000000E+00 -0.00000000000E+00 -0.70069115205E+01  0.71210749930E+01  0.12700000000E+01 0. -1.
         25    2    1    2    0    0  0.00000000000E+00  0.00000000000E+00  0.54590037748E+03  0.56002982256E+03  0.12500471998E+03 0.  0.
    9000005    1    3    3    0    0 -0.45671177112E+02  0.27858919140E+02  0.12822458450E+03  0.13894070629E+03  0.10000000000E+01 0.  0.
    9000005    1    3    3    0    0  0.45671177112E+02 -0.27858919140E+02  0.41767579298E+03  0.42108911626E+03  0.10000000000E+01 0.  0.
<mgrwt>
<rscale>  0 0.12500472E+03</rscale>
<asrwt>0</asrwt>
<pdfrwt beam="2">  1        4 0.10868794E-02 0.12500472E+03</pdfrwt>
<pdfrwt beam="1">  1       -4 0.85071628E-01 0.12500472E+03</pdfrwt>
<totfact> 0.51486554E+03</totfact>
</mgrwt>
</event>
<event>
 4    1  0.3270363E-002  0.1250653E+03  0.7818608E-02  0.1234967E+00
          4   -1    0    0  501    0  0.00000000000E+00  0.00000000000E+00  0.21593457362E+02  0.21630772082E+02  0.12700000000E+01 0. -1.
         -4   -1    0    0    0  501 -0.00000000000E+00 -0.00000000000E+00 -0.18089284038E+03  0.18089729849E+03  0.12700000000E+01 0. -1.
    9000005    1    1    2    0    0  0.85229294021E+01 -0.58746216814E+02 -0.47851542154E+02  0.76253055035E+02  0.10000000000E+01 0.  0.
    9000005    1    1    2    0    0 -0.85229294021E+01  0.58746216814E+02 -0.11144784087E+03  0.12627501554E+03  0.10000000000E+01 0.  0.
<mgrwt>
<rscale>  0 0.12506529E+03</rscale>
<asrwt>0</asrwt>
<pdfrwt beam="1">  1        4 0.33252838E-02 0.12506529E+03</pdfrwt>
<pdfrwt beam="2">  1       -4 0.27832880E-01 0.12506529E+03</pdfrwt>
<totfact> 0.89579967E+03</totfact>
</mgrwt>
</event>
<event>
 5    1  0.3270363E-002  0.1249986E+03  0.7818608E-02  0.1235071E+00
          4   -1    0    0  501    0  0.00000000000E+00  0.00000000000E+00  0.42616805566E+02  0.42635724653E+02  0.12700000000E+01 0. -1.
         -4   -1    0    0    0  501 -0.00000000000E+00 -0.00000000000E+00 -0.91614138920E+02  0.91622941178E+02  0.12700000000E+01 0. -1.
         25    2    1    2    0    0  0.00000000000E+00  0.00000000000E+00 -0.48997333354E+02  0.13425866583E+03  0.12499860269E+03 0.  0.
    9000005    1    3    3    0    0 -0.30695761896E+02 -0.45067551160E+02 -0.57286285040E+02  0.79095084674E+02  0.10000000000E+01 0.  0.
    9000005    1    3    3    0    0  0.30695761896E+02  0.45067551160E+02  0.82889516864E+01  0.55163581157E+02  0.10000000000E+01 0.  0.
<mgrwt>
<rscale>  0 0.12499860E+03</rscale>
<asrwt>0</asrwt>
<pdfrwt beam="1">  1        4 0.65585641E-02 0.12499860E+03</pdfrwt>
<pdfrwt beam="2">  1       -4 0.14096615E-01 0.12499860E+03</pdfrwt>
<totfact> 0.10254043E+04</totfact>
</mgrwt>
</event>
<event>
 5    1  0.3270363E-002  0.1249993E+03  0.7818608E-02  0.1235070E+00
          4   -1    0    0  501    0  0.00000000000E+00  0.00000000000E+00  0.74118075374E+01  0.75198265253E+01  0.12700000000E+01 0.  1.
         -4   -1    0    0    0  501 -0.00000000000E+00 -0.00000000000E+00 -0.52310327842E+03  0.52310482008E+03  0.12700000000E+01 0.  1.
         25    2    1    2    0    0  0.00000000000E+00  0.00000000000E+00 -0.51569147088E+03  0.53062464661E+03  0.12499928978E+03 0.  0.
    9000005    1    3    3    0    0  0.57077353188E+02 -0.22319274715E+02 -0.30970303455E+03  0.31571022138E+03  0.10000000000E+01 0.  0.
    9000005    1    3    3    0    0 -0.57077353188E+02  0.22319274715E+02 -0.20598843633E+03  0.21491442523E+03  0.10000000000E+01 0.  0.
<mgrwt>
<rscale>  0 0.12499929E+03</rscale>
<asrwt>0</asrwt>
<pdfrwt beam="1">  1        4 0.11487062E-02 0.12499929E+03</pdfrwt>
<pdfrwt beam="2">  1       -4 0.80485826E-01 0.12499929E+03</pdfrwt>
<totfact> 0.53565019E+03</totfact>
</mgrwt>
</event>
<event>
 5    1  0.3270363E-002  0.1249998E+03  0.7818608E-02  0.1235070E+00
         -4   -1    0    0    0  501 -0.00000000000E+00  0.00000000000E+00  0.15028386507E+03  0.15028923115E+03  0.12700000000E+01 0. -1.
          4   -1    0    0  501    0  0.00000000000E+00 -0.00000000000E+00 -0.25971029257E+02  0.26002062624E+02  0.12700000000E+01 0. -1.
         25    2    1    2    0    0  0.00000000000E+00  0.00000000000E+00  0.12431283581E+03  0.17629129377E+03  0.12499975645E+03 0.  0.
    9000005    1    3    3    0    0  0.49417901232E+02  0.18421279265E+02  0.10943439922E+03  0.12148399164E+03  0.10000000000E+01 0.  0.
    9000005    1    3    3    0    0 -0.49417901232E+02 -0.18421279265E+02  0.14878436591E+02  0.54807302135E+02  0.10000000000E+01 0.  0.
<mgrwt>
<rscale>  0 0.12499976E+03</rscale>
<asrwt>0</asrwt>
<pdfrwt beam="2">  1        4 0.39983430E-02 0.12499976E+03</pdfrwt>
<pdfrwt beam="1">  1       -4 0.23123394E-01 0.12499976E+03</pdfrwt>
<totfact> 0.94289389E+03</totfact>
</mgrwt>
</event>
<event>
 5    1  0.3270363E-002  0.1250000E+03  0.7818608E-02  0.1235069E+00
          4   -1    0    0  501    0  0.00000000000E+00  0.00000000000E+00  0.55282255823E+01  0.56722286703E+01  0.12700000000E+01 0. -1.
         -4   -1    0    0    0  501 -0.00000000000E+00 -0.00000000000E+00 -0.69737222835E+03  0.69737338476E+03  0.12700000000E+01 0. -1.
         25    2    1    2    0    0  0.00000000000E+00  0.00000000000E+00 -0.69184400276E+03  0.70304561343E+03  0.12500004160E+03 0.  0.
    9000005    1    3    3    0    0 -0.49245515052E+02  0.43789811436E+01 -0.56089898687E+03  0.56307456851E+03  0.10000000000E+01 0.  0.
    9000005    1    3    3    0    0  0.49245515052E+02 -0.43789811436E+01 -0.13094501589E+03  0.13997104492E+03  0.10000000000E+01 0.  0.
<mgrwt>
<rscale>  0 0.12500004E+03</rscale>
<asrwt>0</asrwt>
<pdfrwt beam="1">  1        4 0.86166291E-03 0.12500004E+03</pdfrwt>
<pdfrwt beam="2">  1       -4 0.10729913E+00 0.12500004E+03</pdfrwt>
<totfact> 0.42926389E+03</totfact>
</mgrwt>
</event>
<event>
 5    1  0.3270363E-002  0.1250010E+03  0.7818608E-02  0.1235068E+00
          4   -1    0    0  501    0  0.00000000000E+00  0.00000000000E+00  0.15673302149E+02  0.15724671705E+02  0.12700000000E+01 0. -1.
         -4   -1    0    0    0  501 -0.00000000000E+00 -0.00000000000E+00 -0.24877276641E+03  0.24877600810E+03  0.12700000000E+01 0. -1.
         25    2    1    2    0    0  0.00000000000E+00  0.00000000000E+00 -0.23309946426E+03  0.26450067981E+03  0.12500099751E+03 0.  0.
    9000005    1    3    3    0    0  0.60172977569E+02  0.10470157124E+02 -0.14453370475E+03  0.15691208758E+03  0.10000000000E+01 0.  0.
    9000005    1    3    3    0    0 -0.60172977569E+02 -0.10470157124E+02 -0.88565759507E+02  0.10758859222E+03  0.10000000000E+01 0.  0.
<mgrwt>
<rscale>  0 0.12500100E+03</rscale>
<asrwt>0</asrwt>
<pdfrwt beam="1">  1        4 0.24154783E-02 0.12500100E+03</pdfrwt>
<pdfrwt beam="2">  1       -4 0.38276931E-01 0.12500100E+03</pdfrwt>
<totfact> 0.80276793E+03</totfact>
</mgrwt>
</event>
<event>
 5    1  0.3270363E-002  0.1249932E+03  0.7818608E-02  0.1235080E+00
          4   -1    0    0  501    0  0.00000000000E+00  0.00000000000E+00  0.27840359497E+02  0.27869311382E+02  0.12700000000E+01 0.  1.
         -4   -1    0    0    0  501 -0.00000000000E+00 -0.00000000000E+00 -0.14018878354E+03  0.14019453602E+03  0.12700000000E+01 0.  1.
         25    2    1    2    0    0  0.00000000000E+00  0.00000000000E+00 -0.11234842405E+03  0.16806384741E+03  0.12499315349E+03 0.  0.
    9000005    1    3    3    0    0 -0.14133958763E+02  0.38472437133E+02 -0.11959706206E+03  0.12642924686E+03  0.10000000000E+01 0.  0.
    9000005    1    3    3    0    0  0.14133958763E+02 -0.38472437133E+02  0.72486380140E+01  0.41634600543E+02  0.10000000000E+01 0.  0.
<mgrwt>
<rscale>  0 0.12499315E+03</rscale>
<asrwt>0</asrwt>
<pdfrwt beam="1">  1        4 0.42858019E-02 0.12499315E+03</pdfrwt>
<pdfrwt beam="2">  1       -4 0.21570174E-01 0.12499315E+03</pdfrwt>
<totfact> 0.95825007E+03</totfact>
</mgrwt>
</event>
<event>
 5    1  0.3270363E-002  0.1249986E+03  0.7818608E-02  0.1235071E+00
         -4   -1    0    0    0  501 -0.00000000000E+00  0.00000000000E+00  0.27560177542E+03  0.27560470155E+03  0.12700000000E+01 0.  1.
          4   -1    0    0  501    0  0.00000000000E+00 -0.00000000000E+00 -0.14141762063E+02  0.14198673679E+02  0.12700000000E+01 0.  1.
         25    2    1    2    0    0  0.00000000000E+00  0.00000000000E+00  0.26146001336E+03  0.28980337522E+03  0.12499863082E+03 0.  0.
    9000005    1    3    3    0    0 -0.22751548934E+02  0.37662753087E+01  0.26538692378E+03  0.26638888326E+03  0.10000000000E+01 0.  0.
    9000005    1    3    3    0    0  0.22751548934E+02 -0.37662753087E+01 -0.39269104256E+01  0.23414491967E+02  0.10000000000E+01 0.  0.
<mgrwt>
<rscale>  0 0.12499863E+03</rscale>
<asrwt>0</asrwt>
<pdfrwt beam="2">  1        4 0.21802587E-02 0.12499863E+03</pdfrwt>
<pdfrwt beam="1">  1       -4 0.42404875E-01 0.12499863E+03</pdfrwt>
<totfact> 0.76898287E+03</totfact>
</mgrwt>
</event>
<event>
 5    1  0.3270363E-002  0.1249995E+03  0.7818608E-02  0.1235070E+00
         -4   -1    0    0    0  501 -0.00000000000E+00  0.00000000000E+00  0.19234887818E+01  0.23049314727E+01  0.12700000000E+01 0.  1.
          4   -1    0    0  501    0  0.00000000000E+00 -0.00000000000E+00 -0.18472215678E+04  0.18472220044E+04  0.12700000000E+01 0.  1.
         25    2    1    2    0    0  0.00000000000E+00  0.00000000000E+00 -0.18452980790E+04  0.18495269358E+04  0.12499954398E+03 0.  0.
    9000005    1    3    3    0    0 -0.47070604062E+02 -0.33542681299E+02 -0.12741868121E+04  0.12754974658E+04  0.10000000000E+01 0.  0.
    9000005    1    3    3    0    0  0.47070604062E+02  0.33542681299E+02 -0.57111126693E+03  0.57402947001E+03  0.10000000000E+01 0.  0.
<mgrwt>
<rscale>  0 0.12499954E+03</rscale>
<asrwt>0</asrwt>
<pdfrwt beam="2">  1        4 0.28421602E+00 0.12499954E+03</pdfrwt>
<pdfrwt beam="1">  1       -4 0.32529816E-03 0.12499954E+03</pdfrwt>
<totfact> 0.11955949E+03</totfact>
</mgrwt>
</event>
<event>
 5    1  0.3270363E-002  0.1250018E+03  0.7818608E-02  0.1235066E+00
         -4   -1    0    0    0  501 -0.00000000000E+00  0.00000000000E+00  0.26257315483E+02  0.26288010887E+02  0.12700000000E+01 0.  1.
          4   -1    0    0  501    0  0.00000000000E+00 -0.00000000000E+00 -0.14865208944E+03  0.14865751442E+03  0.12700000000E+01 0.  1.
         25    2    1    2    0    0  0.00000000000E+00  0.00000000000E+00 -0.12239477395E+03  0.17494552531E+03  0.12500182452E+03 0.  0.
    9000005    1    3    3    0    0 -0.12252566851E+02 -0.37241977215E+02  0.69112892621E+01  0.39822809802E+02  0.10000000000E+01 0.  0.
    9000005    1    3    3    0    0  0.12252566851E+02  0.37241977215E+02 -0.12930606321E+03  0.13512271550E+03  0.10000000000E+01 0.  0.
<mgrwt>
<rscale>  0 0.12500182E+03</rscale>
<asrwt>0</asrwt>
<pdfrwt beam="2">  1        4 0.22872330E-01 0.12500182E+03</pdfrwt>
<pdfrwt beam="1">  1       -4 0.40423656E-02 0.12500182E+03</pdfrwt>
<totfact> 0.94530949E+03</totfact>
</mgrwt>
</event>
<event>
 5    1  0.3270363E-002  0.1249994E+03  0.7818608E-02  0.1235070E+00
          4   -1    0    0  501    0  0.00000000000E+00  0.00000000000E+00  0.76904583093E+03  0.76904687956E+03  0.12700000000E+01 0.  1.
         -4   -1    0    0    0  501 -0.00000000000E+00 -0.00000000000E+00 -0.49988420139E+01  0.51576468937E+01  0.12700000000E+01 0.  1.
         25    2    1    2    0    0  0.00000000000E+00  0.00000000000E+00  0.76404698891E+03  0.77420452646E+03  0.12499939008E+03 0.  0.
    9000005    1    3    3    0    0 -0.25540556529E+02 -0.34066899831E+02  0.98712288323E+02  0.10750809066E+03  0.10000000000E+01 0.  0.
    9000005    1    3    3    0    0  0.25540556529E+02  0.34066899831E+02  0.66533470059E+03  0.66669643579E+03  0.10000000000E+01 0.  0.
<mgrwt>
<rscale>  0 0.12499939E+03</rscale>
<asrwt>0</asrwt>
<pdfrwt beam="1">  1        4 0.11832702E+00 0.12499939E+03</pdfrwt>
<pdfrwt beam="2">  1       -4 0.78134917E-03 0.12499939E+03</pdfrwt>
<totfact> 0.39442824E+03</totfact>
</mgrwt>
</event>
<event>
 5    1  0.3270363E-002  0.1250001E+03  0.7818608E-02  0.1235069E+00
          4   -1    0    0  501    0  0.00000000000E+00  0.00000000000E+00  0.12298809610E+03  0.12299465307E+03  0.12700000000E+01 0.  1.
         -4   -1    0    0    0  501 -0.00000000000E+00 -0.00000000000E+00 -0.31741162509E+02  0.31766559421E+02  0.12700000000E+01 0.  1.
         25    2    1    2    0    0  0.00000000000E+00  0.00000000000E+00  0.91246933594E+02  0.15476121249E+03  0.12500012000E+03 0.  0.
    9000005    1    3    3    0    0 -0.39006122851E+02  0.41401780339E+01  0.10585413542E+03  0.11289250055E+03  0.10000000000E+01 0.  0.
    9000005    1    3    3    0    0  0.39006122851E+02 -0.41401780339E+01 -0.14607201831E+02  0.41868711938E+02  0.10000000000E+01 0.  0.
<mgrwt>
<rscale>  0 0.12500012E+03</rscale>
<asrwt>0</asrwt>
<pdfrwt beam="1">  1        4 0.18923704E-01 0.12500012E+03</pdfrwt>
<pdfrwt beam="2">  1       -4 0.48857137E-02 0.12500012E+03</pdfrwt>
<totfact> 0.98362130E+03</totfact>
</mgrwt>
</event>
<event>
 5    1  0.3270363E-002  0.1249973E+03  0.7818608E-02  0.1235074E+00
         -4   -1    0    0    0  501 -0.00000000000E+00  0.00000000000E+00  0.16197786043E+02  0.16247497429E+02  0.12700000000E+01 0.  1.
          4   -1    0    0  501    0  0.00000000000E+00 -0.00000000000E+00 -0.24072809576E+03  0.24073144579E+03  0.12700000000E+01 0.  1.
         25    2    1    2    0    0  0.00000000000E+00  0.00000000000E+00 -0.22453030972E+03  0.25697894321E+03  0.12499726906E+03 0.  0.
    9000005    1    3    3    0    0  0.50633829555E+01 -0.35715800599E+01 -0.24010505629E+03  0.24018707727E+03  0.10000000000E+01 0.  0.
    9000005    1    3    3    0    0 -0.50633829555E+01  0.35715800599E+01  0.15574746572E+02  0.16791865943E+02  0.10000000000E+01 0.  0.
<mgrwt>
<rscale>  0 0.12499727E+03</rscale>
<asrwt>0</asrwt>
<pdfrwt beam="2">  1        4 0.37039171E-01 0.12499727E+03</pdfrwt>
<pdfrwt beam="1">  1       -4 0.24960489E-02 0.12499727E+03</pdfrwt>
<totfact> 0.81336848E+03</totfact>
</mgrwt>
</event>
<event>
 5    1  0.3270363E-002  0.1249901E+03  0.7818608E-02  0.1235085E+00
         -4   -1    0    0    0  501 -0.00000000000E+00  0.00000000000E+00  0.20714176931E+02  0.20753072686E+02  0.12700000000E+01 0. -1.
          4   -1    0    0  501    0  0.00000000000E+00 -0.00000000000E+00 -0.18833089404E+03  0.18833517608E+03  0.12700000000E+01 0. -1.
         25    2    1    2    0    0  0.00000000000E+00  0.00000000000E+00 -0.16761671711E+03  0.20908824877E+03  0.12499012728E+03 0.  0.
    9000005    1    3    3    0    0 -0.34896500215E+02 -0.30662111006E+02 -0.15372222951E+03  0.16059095437E+03  0.10000000000E+01 0.  0.
    9000005    1    3    3    0    0  0.34896500215E+02  0.30662111006E+02 -0.13894487598E+02  0.48497294401E+02  0.10000000000E+01 0.  0.
<mgrwt>
<rscale>  0 0.12499013E+03</rscale>
<asrwt>0</asrwt>
<pdfrwt beam="2">  1        4 0.28977304E-01 0.12499013E+03</pdfrwt>
<pdfrwt beam="1">  1       -4 0.31901179E-02 0.12499013E+03</pdfrwt>
<totfact> 0.88644565E+03</totfact>
</mgrwt>
</event>
<event>
 5    1  0.3270363E-002  0.1249993E+03  0.7818608E-02  0.1235070E+00
         -4   -1    0    0    0  501 -0.00000000000E+00  0.00000000000E+00  0.16389448650E+03  0.16389940697E+03  0.12700000000E+01 0.  1.
          4   -1    0    0  501    0  0.00000000000E+00 -0.00000000000E+00 -0.23811471261E+02  0.23845315339E+02  0.12700000000E+01 0.  1.
         25    2    1    2    0    0  0.00000000000E+00  0.00000000000E+00  0.14008301524E+03  0.18774472231E+03  0.12499931838E+03 0.  0.
    9000005    1    3    3    0    0  0.51533683863E+00  0.18389814112E+02  0.15974241313E+03  0.16080139734E+03  0.10000000000E+01 0.  0.
    9000005    1    3    3    0    0 -0.51533683863E+00 -0.18389814112E+02 -0.19659397887E+02  0.26943324969E+02  0.10000000000E+01 0.  0.
<mgrwt>
<rscale>  0 0.12499932E+03</rscale>
<asrwt>0</asrwt>
<pdfrwt beam="2">  1        4 0.36662850E-02 0.12499932E+03</pdfrwt>
<pdfrwt beam="1">  1       -4 0.25217519E-01 0.12499932E+03</pdfrwt>
<totfact> 0.92242620E+03</totfact>
</mgrwt>
</event>
<event>
 5    1  0.3270363E-002  0.1249982E+03  0.7818608E-02  0.1235072E+00
          4   -1    0    0  501    0  0.00000000000E+00  0.00000000000E+00  0.71849435560E+03  0.71849547802E+03  0.12700000000E+01 0. -1.
         -4   -1    0    0    0  501 -0.00000000000E+00 -0.00000000000E+00 -0.53612499522E+01  0.55096189568E+01  0.12700000000E+01 0. -1.
         25    2    1    2    0    0  0.00000000000E+00  0.00000000000E+00  0.71313310565E+03  0.72400509698E+03  0.12499821627E+03 0.  0.
    9000005    1    3    3    0    0  0.51624163241E+02 -0.21084984260E+02  0.51993192594E+03  0.52291475252E+03  0.10000000000E+01 0.  0.
    9000005    1    3    3    0    0 -0.51624163241E+02  0.21084984260E+02  0.19320117971E+03  0.20109034446E+03  0.10000000000E+01 0.  0.
<mgrwt>
<rscale>  0 0.12499822E+03</rscale>
<asrwt>0</asrwt>
<pdfrwt beam="1">  1        4 0.11054909E+00 0.12499822E+03</pdfrwt>
<pdfrwt beam="2">  1       -4 0.83630702E-03 0.12499822E+03</pdfrwt>
<totfact> 0.41851008E+03</totfact>
</mgrwt>
</event>
<event>
 5    1  0.3270363E-002  0.1249648E+03  0.7818608E-02  0.1235124E+00
         -4   -1    0    0    0  501 -0.00000000000E+00  0.00000000000E+00  0.75920725044E+01  0.76975622708E+01  0.12700000000E+01 0. -1.
          4   -1    0    0  501    0  0.00000000000E+00 -0.00000000000E+00 -0.51057290420E+03  0.51057448370E+03  0.12700000000E+01 0. -1.
         25    2    1    2    0    0  0.00000000000E+00  0.00000000000E+00 -0.50298083170E+03  0.51827204597E+03  0.12496478136E+03 0.  0.
    9000005    1    3    3    0    0  0.59143760837E+02  0.19853382606E+02 -0.26518789617E+03  0.27242936979E+03  0.10000000000E+01 0.  0.
    9000005    1    3    3    0    0 -0.59143760837E+02 -0.19853382606E+02 -0.23779293553E+03  0.24584267618E+03  0.10000000000E+01 0.  0.
<mgrwt>
<rscale>  0 0.12496478E+03</rscale>
<asrwt>0</asrwt>
<pdfrwt beam="2">  1        4 0.78557886E-01 0.12496478E+03</pdfrwt>
<pdfrwt beam="1">  1       -4 0.11762477E-02 0.12496478E+03</pdfrwt>
<totfact> 0.54516230E+03</totfact>
</mgrwt>
</event>
<event>
 5    1  0.3270363E-002  0.1250001E+03  0.7818608E-02  0.1235069E+00
         -4   -1    0    0    0  501 -0.00000000000E+00  0.00000000000E+00  0.48321576440E+03  0.48321743332E+03  0.12700000000E+01 0. -1.
          4   -1    0    0  501    0  0.00000000000E+00 -0.00000000000E+00 -0.80323062259E+01  0.81320872663E+01  0.12700000000E+01 0. -1.
         25    2    1    2    0    0  0.00000000000E+00  0.00000000000E+00  0.47518345818E+03  0.49134952059E+03  0.12500012983E+03 0.  0.
    9000005    1    3    3    0    0 -0.38444496833E+02  0.49119688918E+02  0.22260569652E+03  0.23118178842E+03  0.10000000000E+01 0.  0.
    9000005    1    3    3    0    0  0.38444496833E+02 -0.49119688918E+02  0.25257776166E+03  0.26016773216E+03  0.10000000000E+01 0.  0.
<mgrwt>
<rscale>  0 0.12500013E+03</rscale>
<asrwt>0</asrwt>
<pdfrwt beam="2">  1        4 0.12435433E-02 0.12500013E+03</pdfrwt>
<pdfrwt beam="1">  1       -4 0.74348689E-01 0.12500013E+03</pdfrwt>
<totfact> 0.56541677E+03</totfact>
</mgrwt>
</event>
<event>
 5    1  0.3270363E-002  0.1250009E+03  0.7818608E-02  0.1235068E+00
         -4   -1    0    0    0  501 -0.00000000000E+00  0.00000000000E+00  0.30947591379E+03  0.30947851964E+03  0.12700000000E+01 0. -1.
          4   -1    0    0  501    0  0.00000000000E+00 -0.00000000000E+00 -0.12587713991E+02  0.12651618217E+02  0.12700000000E+01 0. -1.
         25    2    1    2    0    0  0.00000000000E+00  0.00000000000E+00  0.29688819980E+03  0.32213013785E+03  0.12500089013E+03 0.  0.
    9000005    1    3    3    0    0 -0.20232823833E+01 -0.60483758082E+02  0.10827832783E+03  0.12404666436E+03  0.10000000000E+01 0.  0.
    9000005    1    3    3    0    0  0.20232823833E+01  0.60483758082E+02  0.18860987197E+03  0.19808347349E+03  0.10000000000E+01 0.  0.
<mgrwt>
<rscale>  0 0.12500089E+03</rscale>
<asrwt>0</asrwt>
<pdfrwt beam="2">  1        4 0.19416875E-02 0.12500089E+03</pdfrwt>
<pdfrwt beam="1">  1       -4 0.47616795E-01 0.12500089E+03</pdfrwt>
<totfact> 0.72902048E+03</totfact>
</mgrwt>
</event>
<event>
 5    1  0.3270363E-002  0.1250026E+03  0.7818608E-02  0.1235065E+00
         -4   -1    0    0    0  501 -0.00000000000E+00  0.00000000000E+00  0.26229299674E+01  0.29142171528E+01  0.12700000000E+01 0. -1.
          4   -1    0    0  501    0  0.00000000000E+00 -0.00000000000E+00 -0.14106929333E+04  0.14106935049E+04  0.12700000000E+01 0. -1.
         25    2    1    2    0    0  0.00000000000E+00  0.00000000000E+00 -0.14080700033E+04  0.14136077221E+04  0.12500263100E+03 0.  0.
    9000005    1    3    3    0    0 -0.18176797577E+02  0.53851540702E+02 -0.41022180188E+03  0.41414165589E+03  0.10000000000E+01 0.  0.
    9000005    1    3    3    0    0  0.18176797577E+02 -0.53851540702E+02 -0.99784820143E+03  0.99946606621E+03  0.10000000000E+01 0.  0.
<mgrwt>
<rscale>  0 0.12500263E+03</rscale>
<asrwt>0</asrwt>
<pdfrwt beam="2">  1        4 0.21705156E+00 0.12500263E+03</pdfrwt>
<pdfrwt beam="1">  1       -4 0.42597950E-03 0.12500263E+03</pdfrwt>
<totfact> 0.19689728E+03</totfact>
</mgrwt>
</event>
<event>
 5    1  0.3270363E-002  0.1250022E+03  0.7818608E-02  0.1235066E+00
          4   -1    0    0  501    0  0.00000000000E+00  0.00000000000E+00  0.34977011454E+03  0.34977242019E+03  0.12700000000E+01 0. -1.
         -4   -1    0    0    0  501 -0.00000000000E+00 -0.00000000000E+00 -0.11129985258E+02  0.11202208347E+02  0.12700000000E+01 0. -1.
         25    2    1    2    0    0  0.00000000000E+00  0.00000000000E+00  0.33864012928E+03  0.36097462854E+03  0.12500218113E+03 0.  0.
    9000005    1    3    3    0    0 -0.33164181069E+02  0.33190575443E+02  0.28852172387E+03  0.29231363696E+03  0.10000000000E+01 0.  0.
    9000005    1    3    3    0    0  0.33164181069E+02 -0.33190575443E+02  0.50118405413E+02  0.68660991584E+02  0.10000000000E+01 0.  0.
<mgrwt>
<rscale>  0 0.12500218E+03</rscale>
<asrwt>0</asrwt>
<pdfrwt beam="1">  1        4 0.53816513E-01 0.12500218E+03</pdfrwt>
<pdfrwt beam="2">  1       -4 0.17180386E-02 0.12500218E+03</pdfrwt>
<totfact> 0.68530547E+03</totfact>
</mgrwt>
</event>
<event>
 5    1  0.3270363E-002  0.1249852E+03  0.7818608E-02  0.1235092E+00
          4   -1    0    0  501    0  0.00000000000E+00  0.00000000000E+00  0.43588937786E+03  0.43589122798E+03  0.12700000000E+01 0.  1.
         -4   -1    0    0    0  501 -0.00000000000E+00 -0.00000000000E+00 -0.89125596684E+01  0.90025896187E+01  0.12700000000E+01 0.  1.
         25    2    1    2    0    0  0.00000000000E+00  0.00000000000E+00  0.42697681819E+03  0.44489381760E+03  0.12498522179E+03 0.  0.
    9000005    1    3    3    0    0  0.27795211877E+02 -0.96248162827E+01  0.40972107772E+03  0.41077679148E+03  0.10000000000E+01 0.  0.
    9000005    1    3    3    0    0 -0.27795211877E+02  0.96248162827E+01  0.17255740466E+02  0.34117026113E+02  0.10000000000E+01 0.  0.
<mgrwt>
<rscale>  0 0.12498522E+03</rscale>
<asrwt>0</asrwt>
<pdfrwt beam="1">  1        4 0.67066987E-01 0.12498522E+03</pdfrwt>
<pdfrwt beam="2">  1       -4 0.13782304E-02 0.12498522E+03</pdfrwt>
<totfact> 0.60428372E+03</totfact>
</mgrwt>
</event>
<event>
 5    1  0.3270363E-002  0.1250007E+03  0.7818608E-02  0.1235068E+00
         -4   -1    0    0    0  501 -0.00000000000E+00  0.00000000000E+00  0.11448311881E+03  0.11449016286E+03  0.12700000000E+01 0.  1.
          4   -1    0    0  501    0  0.00000000000E+00 -0.00000000000E+00 -0.34101237334E+02  0.34124877842E+02  0.12700000000E+01 0.  1.
         25    2    1    2    0    0  0.00000000000E+00  0.00000000000E+00  0.80381881477E+02  0.14861504071E+03  0.12500073382E+03 0.  0.
    9000005    1    3    3    0    0  0.21055773842E+02  0.58832123459E+02  0.39174089066E+02  0.73757532612E+02  0.10000000000E+01 0.  0.
    9000005    1    3    3    0    0 -0.21055773842E+02 -0.58832123459E+02  0.41207792411E+02  0.74857508095E+02  0.10000000000E+01 0.  0.
<mgrwt>
<rscale>  0 0.12500073E+03</rscale>
<asrwt>0</asrwt>
<pdfrwt beam="2">  1        4 0.52487046E-02 0.12500073E+03</pdfrwt>
<pdfrwt beam="1">  1       -4 0.17615148E-01 0.12500073E+03</pdfrwt>
<totfact> 0.99578843E+03</totfact>
</mgrwt>
</event>
<event>
 5    1  0.3270363E-002  0.1250043E+03  0.7818608E-02  0.1235063E+00
         -4   -1    0    0    0  501 -0.00000000000E+00  0.00000000000E+00  0.41880003697E+02  0.41899255478E+02  0.12700000000E+01 0.  1.
          4   -1    0    0  501    0  0.00000000000E+00 -0.00000000000E+00 -0.93233807229E+02  0.93242456588E+02  0.12700000000E+01 0.  1.
         25    2    1    2    0    0  0.00000000000E+00  0.00000000000E+00 -0.51353803533E+02  0.13514171207E+03  0.12500427674E+03 0.  0.
    9000005    1    3    3    0    0  0.29760834275E+02  0.13893595408E+02 -0.83156060096E+02  0.89412916186E+02  0.10000000000E+01 0.  0.
    9000005    1    3    3    0    0 -0.29760834275E+02 -0.13893595408E+02  0.31802256564E+02  0.45728795880E+02  0.10000000000E+01 0.  0.
<mgrwt>
<rscale>  0 0.12500428E+03</rscale>
<asrwt>0</asrwt>
<pdfrwt beam="2">  1        4 0.14345809E-01 0.12500428E+03</pdfrwt>
<pdfrwt beam="1">  1       -4 0.64452238E-02 0.12500428E+03</pdfrwt>
<totfact> 0.10234098E+04</totfact>
</mgrwt>
</event>
<event>
 5    1  0.3270363E-002  0.1249934E+03  0.7818608E-02  0.1235080E+00
         -4   -1    0    0    0  501 -0.00000000000E+00  0.00000000000E+00  0.34367292987E+02  0.34390750607E+02  0.12700000000E+01 0.  1.
          4   -1    0    0  501    0  0.00000000000E+00 -0.00000000000E+00 -0.11358409905E+03  0.11359119886E+03  0.12700000000E+01 0.  1.
         25    2    1    2    0    0  0.00000000000E+00  0.00000000000E+00 -0.79216806066E+02  0.14798194946E+03  0.12499341984E+03 0.  0.
    9000005    1    3    3    0    0 -0.58014168847E+02  0.13527145036E+02 -0.61953150289E+02  0.85952430277E+02  0.10000000000E+01 0.  0.
    9000005    1    3    3    0    0  0.58014168847E+02 -0.13527145036E+02 -0.17263655778E+02  0.62029519187E+02  0.10000000000E+01 0.  0.
<mgrwt>
<rscale>  0 0.12499342E+03</rscale>
<asrwt>0</asrwt>
<pdfrwt beam="2">  1        4 0.17476827E-01 0.12499342E+03</pdfrwt>
<pdfrwt beam="1">  1       -4 0.52896265E-02 0.12499342E+03</pdfrwt>
<totfact> 0.99722268E+03</totfact>
</mgrwt>
</event>
<event>
 5    1  0.3270363E-002  0.1250043E+03  0.7818608E-02  0.1235063E+00
         -4   -1    0    0    0  501 -0.00000000000E+00  0.00000000000E+00  0.22418122674E+02  0.22454066987E+02  0.12700000000E+01 0.  1.
          4   -1    0    0  501    0  0.00000000000E+00 -0.00000000000E+00 -0.17407926520E+03  0.17408389780E+03  0.12700000000E+01 0.  1.
         25    2    1    2    0    0  0.00000000000E+00  0.00000000000E+00 -0.15166114253E+03  0.19653796479E+03  0.12500427773E+03 0.  0.
    9000005    1    3    3    0    0 -0.22645640433E+02  0.71164422225E+01 -0.16672305241E+03  0.16840737806E+03  0.10000000000E+01 0.  0.
    9000005    1    3    3    0    0  0.22645640433E+02 -0.71164422225E+01  0.15061909879E+02  0.28130586729E+02  0.10000000000E+01 0.  0.
<mgrwt>
<rscale>  0 0.12500428E+03</rscale>
<asrwt>0</asrwt>
<pdfrwt beam="2">  1        4 0.26784546E-01 0.12500428E+03</pdfrwt>
<pdfrwt beam="1">  1       -4 0.34520634E-02 0.12500428E+03</pdfrwt>
<totfact> 0.90713323E+03</totfact>
</mgrwt>
</event>
<event>
 5    1  0.3270363E-002  0.1249997E+03  0.7818608E-02  0.1235070E+00
         -4   -1    0    0    0  501 -0.00000000000E+00  0.00000000000E+00  0.17202932418E+02  0.17249747354E+02  0.12700000000E+01 0.  1.
          4   -1    0    0  501    0  0.00000000000E+00 -0.00000000000E+00 -0.22671061741E+03  0.22671417456E+03  0.12700000000E+01 0.  1.
         25    2    1    2    0    0  0.00000000000E+00  0.00000000000E+00 -0.20950768499E+03  0.24396392191E+03  0.12499970050E+03 0.  0.
    9000005    1    3    3    0    0  0.30032129421E+02 -0.27202713752E+02 -0.11902300563E+02  0.42244303660E+02  0.10000000000E+01 0.  0.
    9000005    1    3    3    0    0 -0.30032129421E+02  0.27202713752E+02 -0.19760538443E+03  0.20171961825E+03  0.10000000000E+01 0.  0.
<mgrwt>
<rscale>  0 0.12499970E+03</rscale>
<asrwt>0</asrwt>
<pdfrwt beam="2">  1        4 0.34882429E-01 0.12499970E+03</pdfrwt>
<pdfrwt beam="1">  1       -4 0.26504799E-02 0.12499970E+03</pdfrwt>
<totfact> 0.83211087E+03</totfact>
</mgrwt>
</event>
<event>
 5    1  0.3270363E-002  0.1249953E+03  0.7818608E-02  0.1235077E+00
         -4   -1    0    0    0  501 -0.00000000000E+00  0.00000000000E+00  0.34588351515E+03  0.34588584670E+03  0.12700000000E+01 0. -1.
          4   -1    0    0  501    0  0.00000000000E+00 -0.00000000000E+00 -0.11254612162E+02  0.11326040567E+02  0.12700000000E+01 0. -1.
         25    2    1    2    0    0  0.00000000000E+00  0.00000000000E+00  0.33462890298E+03  0.35721188727E+03  0.12499531869E+03 0.  0.
    9000005    1    3    3    0    0 -0.46022884728E+02  0.40169023095E+02  0.20493566501E+03  0.21384873890E+03  0.10000000000E+01 0.  0.
    9000005    1    3    3    0    0  0.46022884728E+02 -0.40169023095E+02  0.12969323797E+03  0.14336314837E+03  0.10000000000E+01 0.  0.
<mgrwt>
<rscale>  0 0.12499532E+03</rscale>
<asrwt>0</asrwt>
<pdfrwt beam="2">  1        4 0.17371526E-02 0.12499532E+03</pdfrwt>
<pdfrwt beam="1">  1       -4 0.53218523E-01 0.12499532E+03</pdfrwt>
<totfact> 0.68945517E+03</totfact>
</mgrwt>
</event>
<event>
 5    1  0.3270363E-002  0.1250052E+03  0.7818608E-02  0.1235061E+00
          4   -1    0    0  501    0  0.00000000000E+00  0.00000000000E+00  0.19341009987E+02  0.19382661513E+02  0.12700000000E+01 0. -1.
         -4   -1    0    0    0  501 -0.00000000000E+00 -0.00000000000E+00 -0.20172324645E+03  0.20172724421E+03  0.12700000000E+01 0. -1.
         25    2    1    2    0    0  0.00000000000E+00  0.00000000000E+00 -0.18238223646E+03  0.22110990572E+03  0.12500524082E+03 0.  0.
    9000005    1    3    3    0    0 -0.22514397814E+02 -0.17470725779E+02  0.71877342808E+01  0.29407276179E+02  0.10000000000E+01 0.  0.
    9000005    1    3    3    0    0  0.22514397814E+02  0.17470725779E+02 -0.18956997074E+03  0.19170262954E+03  0.10000000000E+01 0.  0.
<mgrwt>
<rscale>  0 0.12500524E+03</rscale>
<asrwt>0</asrwt>
<pdfrwt beam="1">  1        4 0.29790516E-02 0.12500524E+03</pdfrwt>
<pdfrwt beam="2">  1       -4 0.31037856E-01 0.12500524E+03</pdfrwt>
<totfact> 0.86682880E+03</totfact>
</mgrwt>
</event>
<event>
 5    1  0.3270363E-002  0.1249998E+03  0.7818608E-02  0.1235070E+00
          4   -1    0    0  501    0  0.00000000000E+00  0.00000000000E+00  0.22937273681E+03  0.22937625267E+03  0.12700000000E+01 0. -1.
         -4   -1    0    0    0  501 -0.00000000000E+00 -0.00000000000E+00 -0.17002757007E+02  0.17050121579E+02  0.12700000000E+01 0. -1.
         25    2    1    2    0    0  0.00000000000E+00  0.00000000000E+00  0.21236997980E+03  0.24642637425E+03  0.12499979843E+03 0.  0.
    9000005    1    3    3    0    0 -0.37688070154E+02 -0.50975576158E+01  0.84286520755E+01  0.38966882110E+02  0.10000000000E+01 0.  0.
    9000005    1    3    3    0    0  0.37688070154E+02  0.50975576158E+01  0.20394132772E+03  0.20745949214E+03  0.10000000000E+01 0.  0.
<mgrwt>
<rscale>  0 0.12499980E+03</rscale>
<asrwt>0</asrwt>
<pdfrwt beam="1">  1        4 0.35292026E-01 0.12499980E+03</pdfrwt>
<pdfrwt beam="2">  1       -4 0.26197228E-02 0.12499980E+03</pdfrwt>
<totfact> 0.82849859E+03</totfact>
</mgrwt>
</event>
<event>
 5    1  0.3270363E-002  0.1250012E+03  0.7818608E-02  0.1235067E+00
         -4   -1    0    0    0  501 -0.00000000000E+00  0.00000000000E+00  0.36560424952E+03  0.36560645531E+03  0.12700000000E+01 0.  1.
          4   -1    0    0  501    0  0.00000000000E+00 -0.00000000000E+00 -0.10644589411E+02  0.10720083196E+02  0.12700000000E+01 0.  1.
         25    2    1    2    0    0  0.00000000000E+00  0.00000000000E+00  0.35495966011E+03  0.37632653851E+03  0.12500121312E+03 0.  0.
    9000005    1    3    3    0    0  0.44041981545E+02  0.34913971279E+02  0.95216271448E+02  0.11057042949E+03  0.10000000000E+01 0.  0.
    9000005    1    3    3    0    0 -0.44041981545E+02 -0.34913971279E+02  0.25974338866E+03  0.26575610902E+03  0.10000000000E+01 0.  0.
<mgrwt>
<rscale>  0 0.12500121E+03</rscale>
<asrwt>0</asrwt>
<pdfrwt beam="2">  1        4 0.16436063E-02 0.12500121E+03</pdfrwt>
<pdfrwt beam="1">  1       -4 0.56252776E-01 0.12500121E+03</pdfrwt>
<totfact> 0.66920425E+03</totfact>
</mgrwt>
</event>
<event>
 5    1  0.3270363E-002  0.1249986E+03  0.7818608E-02  0.1235071E+00
          4   -1    0    0  501    0  0.00000000000E+00  0.00000000000E+00  0.34139255166E+02  0.34162869366E+02  0.12700000000E+01 0.  1.
         -4   -1    0    0    0  501 -0.00000000000E+00 -0.00000000000E+00 -0.11435178800E+03  0.11435884014E+03  0.12700000000E+01 0.  1.
         25    2    1    2    0    0  0.00000000000E+00  0.00000000000E+00 -0.80212532831E+02  0.14852170951E+03  0.12499859108E+03 0.  0.
    9000005    1    3    3    0    0  0.48147947934E+02 -0.36293193808E+02 -0.59620810636E+02  0.84800128939E+02  0.10000000000E+01 0.  0.
    9000005    1    3    3    0    0 -0.48147947934E+02  0.36293193808E+02 -0.20591722194E+02  0.63721580567E+02  0.10000000000E+01 0.  0.
<mgrwt>
<rscale>  0 0.12499859E+03</rscale>
<asrwt>0</asrwt>
<pdfrwt beam="1">  1        4 0.52545521E-02 0.12499859E+03</pdfrwt>
<pdfrwt beam="2">  1       -4 0.17594942E-01 0.12499859E+03</pdfrwt>
<totfact> 0.99602352E+03</totfact>
</mgrwt>
</event>
<event>
 5    1  0.3270363E-002  0.1250006E+03  0.7818608E-02  0.1235068E+00
         -4   -1    0    0    0  501 -0.00000000000E+00  0.00000000000E+00  0.10710850215E+03  0.10711603116E+03  0.12700000000E+01 0. -1.
          4   -1    0    0  501    0  0.00000000000E+00 -0.00000000000E+00 -0.36450497551E+02  0.36472615367E+02  0.12700000000E+01 0. -1.
         25    2    1    2    0    0  0.00000000000E+00  0.00000000000E+00  0.70658004598E+02  0.14358864653E+03  0.12500058320E+03 0.  0.
    9000005    1    3    3    0    0 -0.68820375530E+01  0.96436964785E+01  0.10581228442E+03  0.10647818019E+03  0.10000000000E+01 0.  0.
    9000005    1    3    3    0    0  0.68820375530E+01 -0.96436964785E+01 -0.35154279819E+02  0.37110466344E+02  0.10000000000E+01 0.  0.
<mgrwt>
<rscale>  0 0.12500058E+03</rscale>
<asrwt>0</asrwt>
<pdfrwt beam="2">  1        4 0.56100494E-02 0.12500058E+03</pdfrwt>
<pdfrwt beam="1">  1       -4 0.16480512E-01 0.12500058E+03</pdfrwt>
<totfact> 0.10059611E+04</totfact>
</mgrwt>
</event>
<event>
 5    1  0.3270363E-002  0.1249974E+03  0.7818608E-02  0.1235073E+00
         -4   -1    0    0    0  501 -0.00000000000E+00  0.00000000000E+00  0.32061993959E+01  0.34485670308E+01  0.12700000000E+01 0. -1.
          4   -1    0    0  501    0  0.00000000000E+00 -0.00000000000E+00 -0.11736790899E+04  0.11736797770E+04  0.12700000000E+01 0. -1.
         25    2    1    2    0    0  0.00000000000E+00  0.00000000000E+00 -0.11704728905E+04  0.11771283441E+04  0.12499740376E+03 0.  0.
    9000005    1    3    3    0    0  0.10884491819E+02 -0.49334472259E+02 -0.93159638099E+03  0.93296579754E+03  0.10000000000E+01 0.  0.
    9000005    1    3    3    0    0 -0.10884491819E+02  0.49334472259E+02 -0.23887650954E+03  0.24416254652E+03  0.10000000000E+01 0.  0.
<mgrwt>
<rscale>  0 0.12499740E+03</rscale>
<asrwt>0</asrwt>
<pdfrwt beam="2">  1        4 0.18058438E+00 0.12499740E+03</pdfrwt>
<pdfrwt beam="1">  1       -4 0.51195890E-03 0.12499740E+03</pdfrwt>
<totfact> 0.25320877E+03</totfact>
</mgrwt>
</event>
<event>
 5    1  0.3270363E-002  0.1250000E+03  0.7818608E-02  0.1235069E+00
         -4   -1    0    0    0  501 -0.00000000000E+00  0.00000000000E+00  0.33966797342E+03  0.33967034764E+03  0.12700000000E+01 0. -1.
          4   -1    0    0  501    0  0.00000000000E+00 -0.00000000000E+00 -0.11462719357E+02  0.11532858928E+02  0.12700000000E+01 0. -1.
         25    2    1    2    0    0  0.00000000000E+00  0.00000000000E+00  0.32820525407E+03  0.35120320657E+03  0.12500001404E+03 0.  0.
    9000005    1    3    3    0    0  0.53143707236E+02  0.30163044822E+02  0.12734181876E+03  0.14124801484E+03  0.10000000000E+01 0.  0.
    9000005    1    3    3    0    0 -0.53143707236E+02 -0.30163044822E+02  0.20086343530E+03  0.20995519173E+03  0.10000000000E+01 0.  0.
<mgrwt>
<rscale>  0 0.12500001E+03</rscale>
<asrwt>0</asrwt>
<pdfrwt beam="2">  1        4 0.17690734E-02 0.12500001E+03</pdfrwt>
<pdfrwt beam="1">  1       -4 0.52262186E-01 0.12500001E+03</pdfrwt>
<totfact> 0.69592370E+03</totfact>
</mgrwt>
</event>
<event>
 5    1  0.3270363E-002  0.1249890E+03  0.7818608E-02  0.1235086E+00
         -4   -1    0    0    0  501 -0.00000000000E+00  0.00000000000E+00  0.11922394141E+02  0.11989844955E+02  0.12700000000E+01 0. -1.
          4   -1    0    0  501    0  0.00000000000E+00 -0.00000000000E+00 -0.32658930024E+03  0.32659176954E+03  0.12700000000E+01 0. -1.
         25    2    1    2    0    0  0.00000000000E+00  0.00000000000E+00 -0.31466690610E+03  0.33858161450E+03  0.12498899104E+03 0.  0.
    9000005    1    3    3    0    0  0.22146950126E+02 -0.67983796929E+01 -0.31453919522E+03  0.31539278795E+03  0.10000000000E+01 0.  0.
    9000005    1    3    3    0    0 -0.22146950126E+02  0.67983796929E+01 -0.12771088404E+00  0.23188826542E+02  0.10000000000E+01 0.  0.
<mgrwt>
<rscale>  0 0.12498899E+03</rscale>
<asrwt>0</asrwt>
<pdfrwt beam="2">  1        4 0.50249879E-01 0.12498899E+03</pdfrwt>
<pdfrwt beam="1">  1       -4 0.18395932E-02 0.12498899E+03</pdfrwt>
<totfact> 0.71016572E+03</totfact>
</mgrwt>
</event>
<event>
 5    1  0.3270363E-002  0.1249963E+03  0.7818608E-02  0.1235075E+00
         -4   -1    0    0    0  501 -0.00000000000E+00  0.00000000000E+00  0.22268451424E+02  0.22304636935E+02  0.12700000000E+01 0.  1.
          4   -1    0    0  501    0  0.00000000000E+00 -0.00000000000E+00 -0.17522496445E+03  0.17522956676E+03  0.12700000000E+01 0.  1.
         25    2    1    2    0    0  0.00000000000E+00  0.00000000000E+00 -0.15295651303E+03  0.19753420369E+03  0.12499626695E+03 0.  0.
    9000005    1    3    3    0    0 -0.44567048940E+02  0.37897254376E+02 -0.11119474164E+03  0.12564909196E+03  0.10000000000E+01 0.  0.
    9000005    1    3    3    0    0  0.44567048940E+02 -0.37897254376E+02 -0.41761771383E+02  0.71885111738E+02  0.10000000000E+01 0.  0.
<mgrwt>
<rscale>  0 0.12499627E+03</rscale>
<asrwt>0</asrwt>
<pdfrwt beam="2">  1        4 0.26960823E-01 0.12499627E+03</pdfrwt>
<pdfrwt beam="1">  1       -4 0.34290532E-02 0.12499627E+03</pdfrwt>
<totfact> 0.90560229E+03</totfact>
</mgrwt>
</event>
<event>
 4    1  0.3270363E-002  0.1246875E+03  0.7818608E-02  0.1235559E+00
         -4   -1    0    0    0  501 -0.00000000000E+00  0.00000000000E+00  0.73563877621E+01  0.74652086981E+01  0.12700000000E+01 0.  1.
          4   -1    0    0  501    0  0.00000000000E+00 -0.00000000000E+00 -0.52436050001E+03  0.52436203797E+03  0.12700000000E+01 0.  1.
    9000005    1    1    2    0    0  0.48213925842E+02  0.25293681542E+02 -0.12903202287E+03  0.14005218991E+03  0.10000000000E+01 0.  0.
    9000005    1    1    2    0    0 -0.48213925842E+02 -0.25293681542E+02 -0.38797208937E+03  0.39177505676E+03  0.10000000000E+01 0.  0.
<mgrwt>
<rscale>  0 0.12468748E+03</rscale>
<asrwt>0</asrwt>
<pdfrwt beam="2">  1        4 0.80679306E-01 0.12468748E+03</pdfrwt>
<pdfrwt beam="1">  1       -4 0.11402415E-02 0.12468748E+03</pdfrwt>
<totfact> 0.53845649E+03</totfact>
</mgrwt>
</event>
<event>
 5    1  0.3270363E-002  0.1249979E+03  0.7818608E-02  0.1235073E+00
          4   -1    0    0  501    0  0.00000000000E+00  0.00000000000E+00  0.31003261554E+01  0.33503615133E+01  0.12700000000E+01 0.  1.
         -4   -1    0    0    0  501 -0.00000000000E+00 -0.00000000000E+00 -0.12108202366E+04  0.12108209027E+04  0.12700000000E+01 0.  1.
         25    2    1    2    0    0  0.00000000000E+00  0.00000000000E+00 -0.12077199105E+04  0.12141712642E+04  0.12499790639E+03 0.  0.
    9000005    1    3    3    0    0  0.36650719825E+02 -0.50614632697E+02 -0.60437794762E+03  0.60760087219E+03  0.10000000000E+01 0.  0.
    9000005    1    3    3    0    0 -0.36650719825E+02  0.50614632697E+02 -0.60334196286E+03  0.60657039200E+03  0.10000000000E+01 0.  0.
<mgrwt>
<rscale>  0 0.12499791E+03</rscale>
<asrwt>0</asrwt>
<pdfrwt beam="1">  1        4 0.49625894E-03 0.12499791E+03</pdfrwt>
<pdfrwt beam="2">  1       -4 0.18629896E+00 0.12499791E+03</pdfrwt>
<totfact> 0.24345977E+03</totfact>
</mgrwt>
</event>
<event>
 5    1  0.3270363E-002  0.1249976E+03  0.7818608E-02  0.1235073E+00
          4   -1    0    0  501    0  0.00000000000E+00  0.00000000000E+00  0.36871073054E+02  0.36892938731E+02  0.12700000000E+01 0. -1.
         -4   -1    0    0    0  501 -0.00000000000E+00 -0.00000000000E+00 -0.10588239316E+03  0.10589000936E+03  0.12700000000E+01 0. -1.
         25    2    1    2    0    0  0.00000000000E+00  0.00000000000E+00 -0.69011320107E+02  0.14278294809E+03  0.12499763182E+03 0.  0.
    9000005    1    3    3    0    0 -0.11409949227E+02 -0.84124549567E+01 -0.10402707256E+03  0.10499327676E+03  0.10000000000E+01 0.  0.
    9000005    1    3    3    0    0  0.11409949227E+02  0.84124549567E+01  0.35015752448E+02  0.37789671330E+02  0.10000000000E+01 0.  0.
<mgrwt>
<rscale>  0 0.12499763E+03</rscale>
<asrwt>0</asrwt>
<pdfrwt beam="1">  1        4 0.56747407E-02 0.12499763E+03</pdfrwt>
<pdfrwt beam="2">  1       -4 0.16291867E-01 0.12499763E+03</pdfrwt>
<totfact> 0.10076767E+04</totfact>
</mgrwt>
</event>
<event>
 5    1  0.3270363E-002  0.1250004E+03  0.7818608E-02  0.1235069E+00
          4   -1    0    0  501    0  0.00000000000E+00  0.00000000000E+00  0.14694536676E+02  0.14749315513E+02  0.12700000000E+01 0. -1.
         -4   -1    0    0    0  501 -0.00000000000E+00 -0.00000000000E+00 -0.26528105297E+03  0.26528409293E+03  0.12700000000E+01 0. -1.
         25    2    1    2    0    0  0.00000000000E+00  0.00000000000E+00 -0.25058651629E+03  0.28003340845E+03  0.12500043080E+03 0.  0.
    9000005    1    3    3    0    0  0.54953574706E+02  0.27192501535E+02 -0.15235772720E+03  0.16423521106E+03  0.10000000000E+01 0.  0.
    9000005    1    3    3    0    0 -0.54953574706E+02 -0.27192501535E+02 -0.98228789088E+02  0.11579819739E+03  0.10000000000E+01 0.  0.
<mgrwt>
<rscale>  0 0.12500043E+03</rscale>
<asrwt>0</asrwt>
<pdfrwt beam="1">  1        4 0.22651457E-02 0.12500043E+03</pdfrwt>
<pdfrwt beam="2">  1       -4 0.40816914E-01 0.12500043E+03</pdfrwt>
<totfact> 0.78172929E+03</totfact>
</mgrwt>
</event>
<event>
 5    1  0.3270363E-002  0.1249993E+03  0.7818608E-02  0.1235070E+00
         -4   -1    0    0    0  501 -0.00000000000E+00  0.00000000000E+00  0.54626883913E+01  0.56083744936E+01  0.12700000000E+01 0.  1.
          4   -1    0    0  501    0  0.00000000000E+00 -0.00000000000E+00 -0.70551383437E+03  0.70551497743E+03  0.12700000000E+01 0.  1.
         25    2    1    2    0    0  0.00000000000E+00  0.00000000000E+00 -0.70005114598E+03  0.71112335193E+03  0.12499925869E+03 0.  0.
    9000005    1    3    3    0    0  0.43666467324E+02 -0.37291840226E+02 -0.49027602098E+03  0.49362842145E+03  0.10000000000E+01 0.  0.
    9000005    1    3    3    0    0 -0.43666467324E+02  0.37291840226E+02 -0.20977512500E+03  0.21749493048E+03  0.10000000000E+01 0.  0.
<mgrwt>
<rscale>  0 0.12499926E+03</rscale>
<asrwt>0</asrwt>
<pdfrwt beam="2">  1        4 0.10855181E+00 0.12499926E+03</pdfrwt>
<pdfrwt beam="1">  1       -4 0.85170871E-03 0.12499926E+03</pdfrwt>
<totfact> 0.42506693E+03</totfact>
</mgrwt>
</event>
<event>
 5    1  0.3270363E-002  0.1249956E+03  0.7818608E-02  0.1235076E+00
         -4   -1    0    0    0  501 -0.00000000000E+00  0.00000000000E+00  0.10246599196E+04  0.10246607067E+04  0.12700000000E+01 0. -1.
          4   -1    0    0  501    0  0.00000000000E+00 -0.00000000000E+00 -0.37053847655E+01  0.39169856089E+01  0.12700000000E+01 0. -1.
         25    2    1    2    0    0  0.00000000000E+00  0.00000000000E+00  0.10209545349E+04  0.10285776923E+04  0.12499562711E+03 0.  0.
    9000005    1    3    3    0    0 -0.15477429084E+02 -0.25376270467E+02  0.96280319357E+03  0.96326242294E+03  0.10000000000E+01 0.  0.
    9000005    1    3    3    0    0  0.15477429084E+02  0.25376270467E+02  0.58151341305E+02  0.65315269344E+02  0.10000000000E+01 0.  0.
<mgrwt>
<rscale>  0 0.12499563E+03</rscale>
<asrwt>0</asrwt>
<pdfrwt beam="2">  1        4 0.58639622E-03 0.12499563E+03</pdfrwt>
<pdfrwt beam="1">  1       -4 0.15765646E+00 0.12499563E+03</pdfrwt>
<totfact> 0.29675994E+03</totfact>
</mgrwt>
</event>
<event>
 5    1  0.3270363E-002  0.1250003E+03  0.7818608E-02  0.1235069E+00
          4   -1    0    0  501    0  0.00000000000E+00  0.00000000000E+00  0.89248564926E+01  0.90147636361E+01  0.12700000000E+01 0. -1.
         -4   -1    0    0    0  501 -0.00000000000E+00 -0.00000000000E+00 -0.43540004175E+03  0.43540189395E+03  0.12700000000E+01 0. -1.
         25    2    1    2    0    0  0.00000000000E+00  0.00000000000E+00 -0.42647518526E+03  0.44441665759E+03  0.12500032760E+03 0.  0.
    9000005    1    3    3    0    0 -0.77518903899E+01  0.57462345110E+02 -0.29610467894E+03  0.30173000149E+03  0.10000000000E+01 0.  0.
    9000005    1    3    3    0    0  0.77518903899E+01 -0.57462345110E+02 -0.13037050632E+03  0.14268665610E+03  0.10000000000E+01 0.  0.
<mgrwt>
<rscale>  0 0.12500033E+03</rscale>
<asrwt>0</asrwt>
<pdfrwt beam="1">  1        4 0.13801136E-02 0.12500033E+03</pdfrwt>
<pdfrwt beam="2">  1       -4 0.66991664E-01 0.12500033E+03</pdfrwt>
<totfact> 0.60450121E+03</totfact>
</mgrwt>
</event>
<event>
 5    1  0.3270363E-002  0.1250009E+03  0.7818608E-02  0.1235068E+00
          4   -1    0    0  501    0  0.00000000000E+00  0.00000000000E+00  0.66511815631E+02  0.66523939439E+02  0.12700000000E+01 0. -1.
         -4   -1    0    0    0  501 -0.00000000000E+00 -0.00000000000E+00 -0.58706695163E+02  0.58720430490E+02  0.12700000000E+01 0. -1.
         25    2    1    2    0    0  0.00000000000E+00  0.00000000000E+00  0.78051204680E+01  0.12524436993E+03  0.12500092917E+03 0.  0.
    9000005    1    3    3    0    0  0.14450363084E+02 -0.23323810452E+02  0.60158990478E+02  0.66128036887E+02  0.10000000000E+01 0.  0.
    9000005    1    3    3    0    0 -0.14450363084E+02  0.23323810452E+02 -0.52353870010E+02  0.59116333041E+02  0.10000000000E+01 0.  0.
<mgrwt>
<rscale>  0 0.12500093E+03</rscale>
<asrwt>0</asrwt>
<pdfrwt beam="1">  1        4 0.10234576E-01 0.12500093E+03</pdfrwt>
<pdfrwt beam="2">  1       -4 0.90337884E-02 0.12500093E+03</pdfrwt>
<totfact> 0.10447338E+04</totfact>
</mgrwt>
</event>
<event>
 5    1  0.3270363E-002  0.1250008E+03  0.7818608E-02  0.1235068E+00
         -4   -1    0    0    0  501 -0.00000000000E+00  0.00000000000E+00  0.91989314483E+01  0.92861854273E+01  0.12700000000E+01 0. -1.
          4   -1    0    0  501    0  0.00000000000E+00 -0.00000000000E+00 -0.42255445658E+03  0.42255636509E+03  0.12700000000E+01 0. -1.
         25    2    1    2    0    0  0.00000000000E+00  0.00000000000E+00 -0.41335552514E+03  0.43184255052E+03  0.12500079311E+03 0.  0.
    9000005    1    3    3    0    0  0.61611221080E+02 -0.96816187696E+01 -0.19302254711E+03  0.20285063469E+03  0.10000000000E+01 0.  0.
    9000005    1    3    3    0    0 -0.61611221080E+02  0.96816187696E+01 -0.22033297803E+03  0.22899191582E+03  0.10000000000E+01 0.  0.
<mgrwt>
<rscale>  0 0.12500079E+03</rscale>
<asrwt>0</asrwt>
<pdfrwt beam="2">  1        4 0.65015222E-01 0.12500079E+03</pdfrwt>
<pdfrwt beam="1">  1       -4 0.14220792E-02 0.12500079E+03</pdfrwt>
<totfact> 0.61568260E+03</totfact>
</mgrwt>
</event>
<event>
 5    1  0.3270363E-002  0.1249893E+03  0.7818608E-02  0.1235086E+00
         -4   -1    0    0    0  501 -0.00000000000E+00  0.00000000000E+00  0.25449662103E+03  0.25449978981E+03  0.12700000000E+01 0. -1.
          4   -1    0    0  501    0  0.00000000000E+00 -0.00000000000E+00 -0.15316748325E+02  0.15369309654E+02  0.12700000000E+01 0. -1.
         25    2    1    2    0    0  0.00000000000E+00  0.00000000000E+00  0.23917987270E+03  0.26986909947E+03  0.12498927690E+03 0.  0.
    9000005    1    3    3    0    0  0.48651652824E+02  0.20951227491E+02  0.48023627617E+02  0.71506685459E+02  0.10000000000E+01 0.  0.
    9000005    1    3    3    0    0 -0.48651652824E+02 -0.20951227491E+02  0.19115624508E+03  0.19836241401E+03  0.10000000000E+01 0.  0.
<mgrwt>
<rscale>  0 0.12498928E+03</rscale>
<asrwt>0</asrwt>
<pdfrwt beam="2">  1        4 0.23607098E-02 0.12498928E+03</pdfrwt>
<pdfrwt beam="1">  1       -4 0.39157612E-01 0.12498928E+03</pdfrwt>
<totfact> 0.79559692E+03</totfact>
</mgrwt>
</event>
<event>
 5    1  0.3270363E-002  0.1249971E+03  0.7818608E-02  0.1235074E+00
         -4   -1    0    0    0  501 -0.00000000000E+00  0.00000000000E+00  0.84576189909E+01  0.85524393593E+01  0.12700000000E+01 0. -1.
          4   -1    0    0  501    0  0.00000000000E+00 -0.00000000000E+00 -0.45917022502E+03  0.45917198134E+03  0.12700000000E+01 0. -1.
         25    2    1    2    0    0  0.00000000000E+00  0.00000000000E+00 -0.45071260603E+03  0.46772442070E+03  0.12499712190E+03 0.  0.
    9000005    1    3    3    0    0 -0.19830504597E+02  0.59088749619E+02 -0.20848009526E+03  0.21759981471E+03  0.10000000000E+01 0.  0.
    9000005    1    3    3    0    0  0.19830504597E+02 -0.59088749619E+02 -0.24223251077E+03  0.25012460598E+03  0.10000000000E+01 0.  0.
<mgrwt>
<rscale>  0 0.12499712E+03</rscale>
<asrwt>0</asrwt>
<pdfrwt beam="2">  1        4 0.70648983E-01 0.12499712E+03</pdfrwt>
<pdfrwt beam="1">  1       -4 0.13086015E-02 0.12499712E+03</pdfrwt>
<totfact> 0.58462215E+03</totfact>
</mgrwt>
</event>
<event>
 5    1  0.3270363E-002  0.1250049E+03  0.7818608E-02  0.1235062E+00
         -4   -1    0    0    0  501 -0.00000000000E+00  0.00000000000E+00  0.23752493239E+03  0.23752832759E+03  0.12700000000E+01 0.  1.
          4   -1    0    0  501    0  0.00000000000E+00 -0.00000000000E+00 -0.16418887798E+02  0.16467931762E+02  0.12700000000E+01 0.  1.
         25    2    1    2    0    0  0.00000000000E+00  0.00000000000E+00  0.22110604460E+03  0.25399625935E+03  0.12500486714E+03 0.  0.
    9000005    1    3    3    0    0 -0.62161279016E+02  0.33665861460E+01  0.12171838627E+03  0.13671768016E+03  0.10000000000E+01 0.  0.
    9000005    1    3    3    0    0  0.62161279016E+02 -0.33665861460E+01  0.99387658326E+02  0.11727857920E+03  0.10000000000E+01 0.  0.
<mgrwt>
<rscale>  0 0.12500487E+03</rscale>
<asrwt>0</asrwt>
<pdfrwt beam="2">  1        4 0.25300166E-02 0.12500487E+03</pdfrwt>
<pdfrwt beam="1">  1       -4 0.36546330E-01 0.12500487E+03</pdfrwt>
<totfact> 0.81747192E+03</totfact>
</mgrwt>
</event>
<event>
 5    1  0.3270363E-002  0.1250012E+03  0.7818608E-02  0.1235067E+00
          4   -1    0    0  501    0  0.00000000000E+00  0.00000000000E+00  0.21757502673E+02  0.21794536530E+02  0.12700000000E+01 0. -1.
         -4   -1    0    0    0  501 -0.00000000000E+00 -0.00000000000E+00 -0.17934732246E+03  0.17935181898E+03  0.12700000000E+01 0. -1.
         25    2    1    2    0    0  0.00000000000E+00  0.00000000000E+00 -0.15758981978E+03  0.20114635551E+03  0.12500122014E+03 0.  0.
    9000005    1    3    3    0    0  0.54946079034E+01 -0.93235735682E+01 -0.17783584669E+03  0.17816764046E+03  0.10000000000E+01 0.  0.
    9000005    1    3    3    0    0 -0.54946079034E+01  0.93235735682E+01  0.20246026904E+02  0.22978715053E+02  0.10000000000E+01 0.  0.
<mgrwt>
<rscale>  0 0.12500122E+03</rscale>
<asrwt>0</asrwt>
<pdfrwt beam="1">  1        4 0.33505029E-02 0.12500122E+03</pdfrwt>
<pdfrwt beam="2">  1       -4 0.27595089E-01 0.12500122E+03</pdfrwt>
<totfact> 0.89940069E+03</totfact>
</mgrwt>
</event>
<event>
 5    1  0.3270363E-002  0.1249975E+03  0.7818608E-02  0.1235073E+00
          4   -1    0    0  501    0  0.00000000000E+00  0.00000000000E+00  0.57710146914E+02  0.57724119368E+02  0.12700000000E+01 0.  1.
         -4   -1    0    0    0  501 -0.00000000000E+00 -0.00000000000E+00 -0.67656539619E+02  0.67668458334E+02  0.12700000000E+01 0.  1.
         25    2    1    2    0    0  0.00000000000E+00  0.00000000000E+00 -0.99463927053E+01  0.12539257770E+03  0.12499747123E+03 0.  0.
    9000005    1    3    3    0    0  0.54164692574E+02  0.28227650210E+02  0.82775605415E+01  0.61645212032E+02  0.10000000000E+01 0.  0.
    9000005    1    3    3    0    0 -0.54164692574E+02 -0.28227650210E+02 -0.18223953247E+02  0.63747365670E+02  0.10000000000E+01 0.  0.
<mgrwt>
<rscale>  0 0.12499747E+03</rscale>
<asrwt>0</asrwt>
<pdfrwt beam="1">  1        4 0.88804758E-02 0.12499747E+03</pdfrwt>
<pdfrwt beam="2">  1       -4 0.10410690E-01 0.12499747E+03</pdfrwt>
<totfact> 0.10444927E+04</totfact>
</mgrwt>
</event>
<event>
 5    1  0.3270363E-002  0.1249990E+03  0.7818608E-02  0.1235071E+00
         -4   -1    0    0    0  501 -0.00000000000E+00  0.00000000000E+00  0.98902216650E+02  0.98910370327E+02  0.12700000000E+01 0.  1.
          4   -1    0    0  501    0  0.00000000000E+00 -0.00000000000E+00 -0.39475465104E+02  0.39495888965E+02  0.12700000000E+01 0.  1.
         25    2    1    2    0    0  0.00000000000E+00  0.00000000000E+00  0.59426751546E+02  0.13840625929E+03  0.12499901524E+03 0.  0.
    9000005    1    3    3    0    0 -0.50269691067E+02 -0.37718012612E+01 -0.11179119187E+02  0.51645338904E+02  0.10000000000E+01 0.  0.
    9000005    1    3    3    0    0  0.50269691067E+02  0.37718012612E+01  0.70605870733E+02  0.86760920389E+02  0.10000000000E+01 0.  0.
<mgrwt>
<rscale>  0 0.12499902E+03</rscale>
<asrwt>0</asrwt>
<pdfrwt beam="2">  1        4 0.60753468E-02 0.12499902E+03</pdfrwt>
<pdfrwt beam="1">  1       -4 0.15217924E-01 0.12499902E+03</pdfrwt>
<totfact> 0.10166950E+04</totfact>
</mgrwt>
</event>
<event>
 5    1  0.3270363E-002  0.1249993E+03  0.7818608E-02  0.1235070E+00
         -4   -1    0    0    0  501 -0.00000000000E+00  0.00000000000E+00  0.79500690849E+01  0.80508694223E+01  0.12700000000E+01 0.  1.
          4   -1    0    0  501    0  0.00000000000E+00 -0.00000000000E+00 -0.48814556457E+03  0.48814721664E+03  0.12700000000E+01 0.  1.
         25    2    1    2    0    0  0.00000000000E+00  0.00000000000E+00 -0.48019549548E+03  0.49619808606E+03  0.12499930689E+03 0.  0.
    9000005    1    3    3    0    0 -0.60530512553E+02 -0.13958700480E+02 -0.21305239693E+03  0.22192591581E+03  0.10000000000E+01 0.  0.
    9000005    1    3    3    0    0  0.60530512553E+02  0.13958700480E+02 -0.26714309855E+03  0.27427217025E+03  0.10000000000E+01 0.  0.
<mgrwt>
<rscale>  0 0.12499931E+03</rscale>
<asrwt>0</asrwt>
<pdfrwt beam="2">  1        4 0.75107176E-01 0.12499931E+03</pdfrwt>
<pdfrwt beam="1">  1       -4 0.12309689E-02 0.12499931E+03</pdfrwt>
<totfact> 0.56161425E+03</totfact>
</mgrwt>
</event>
<event>
 5    1  0.3270363E-002  0.1250029E+03  0.7818608E-02  0.1235065E+00
         -4   -1    0    0    0  501 -0.00000000000E+00  0.00000000000E+00  0.20854564636E+02  0.20893199040E+02  0.12700000000E+01 0.  1.
          4   -1    0    0  501    0  0.00000000000E+00 -0.00000000000E+00 -0.18710378800E+03  0.18710809812E+03  0.12700000000E+01 0.  1.
         25    2    1    2    0    0  0.00000000000E+00  0.00000000000E+00 -0.16624922336E+03  0.20800129717E+03  0.12500294138E+03 0.  0.
    9000005    1    3    3    0    0  0.12203834111E+02 -0.58811398735E+02 -0.54413529583E+02  0.81052738325E+02  0.10000000000E+01 0.  0.
    9000005    1    3    3    0    0 -0.12203834111E+02  0.58811398735E+02 -0.11183569378E+03  0.12694855884E+03  0.10000000000E+01 0.  0.
<mgrwt>
<rscale>  0 0.12500294E+03</rscale>
<asrwt>0</asrwt>
<pdfrwt beam="2">  1        4 0.28788501E-01 0.12500294E+03</pdfrwt>
<pdfrwt beam="1">  1       -4 0.32116981E-02 0.12500294E+03</pdfrwt>
<totfact> 0.88797499E+03</totfact>
</mgrwt>
</event>
<event>
 5    1  0.3270363E-002  0.1250067E+03  0.7818608E-02  0.1235059E+00
          4   -1    0    0  501    0  0.00000000000E+00  0.00000000000E+00  0.38430729472E+03  0.38430939317E+03  0.12700000000E+01 0. -1.
         -4   -1    0    0    0  501 -0.00000000000E+00 -0.00000000000E+00 -0.10123680203E+02  0.10203029004E+02  0.12700000000E+01 0. -1.
         25    2    1    2    0    0  0.00000000000E+00  0.00000000000E+00  0.37418361452E+03  0.39451242217E+03  0.12500669531E+03 0.  0.
    9000005    1    3    3    0    0 -0.29354531914E+02  0.17561829464E+02  0.22028442049E+02  0.40698386419E+02  0.10000000000E+01 0.  0.
    9000005    1    3    3    0    0  0.29354531914E+02 -0.17561829464E+02  0.35215517247E+03  0.35381403575E+03  0.10000000000E+01 0.  0.
<mgrwt>
<rscale>  0 0.12500670E+03</rscale>
<asrwt>0</asrwt>
<pdfrwt beam="1">  1        4 0.59130457E-01 0.12500670E+03</pdfrwt>
<pdfrwt beam="2">  1       -4 0.15637546E-02 0.12500670E+03</pdfrwt>
<totfact> 0.65080407E+03</totfact>
</mgrwt>
</event>
<event>
 5    1  0.3270363E-002  0.1250005E+03  0.7818608E-02  0.1235069E+00
          4   -1    0    0  501    0  0.00000000000E+00  0.00000000000E+00  0.23659614914E+02  0.23693675905E+02  0.12700000000E+01 0. -1.
         -4   -1    0    0    0  501 -0.00000000000E+00 -0.00000000000E+00 -0.16494796909E+03  0.16495285814E+03  0.12700000000E+01 0. -1.
         25    2    1    2    0    0  0.00000000000E+00  0.00000000000E+00 -0.14128835418E+03  0.18864653404E+03  0.12500046312E+03 0.  0.
    9000005    1    3    3    0    0 -0.50796471180E+02  0.36268567534E+02 -0.75317350086E+02  0.97823277901E+02  0.10000000000E+01 0.  0.
    9000005    1    3    3    0    0  0.50796471180E+02 -0.36268567534E+02 -0.65971004093E+02  0.90823256143E+02  0.10000000000E+01 0.  0.
<mgrwt>
<rscale>  0 0.12500046E+03</rscale>
<asrwt>0</asrwt>
<pdfrwt beam="1">  1        4 0.36429370E-02 0.12500046E+03</pdfrwt>
<pdfrwt beam="2">  1       -4 0.25379606E-01 0.12500046E+03</pdfrwt>
<totfact> 0.92082393E+03</totfact>
</mgrwt>
</event>
<event>
 5    1  0.3270363E-002  0.1249993E+03  0.7818608E-02  0.1235070E+00
         -4   -1    0    0    0  501 -0.00000000000E+00  0.00000000000E+00  0.25336202203E+01  0.28341015192E+01  0.12700000000E+01 0.  1.
          4   -1    0    0  501    0  0.00000000000E+00 -0.00000000000E+00 -0.14551413547E+04  0.14551419089E+04  0.12700000000E+01 0.  1.
         25    2    1    2    0    0  0.00000000000E+00  0.00000000000E+00 -0.14526077344E+04  0.14579760104E+04  0.12499926683E+03 0.  0.
    9000005    1    3    3    0    0  0.42604554547E+02 -0.45632369954E+02 -0.69384784173E+03  0.69665148297E+03  0.10000000000E+01 0.  0.
    9000005    1    3    3    0    0 -0.42604554547E+02  0.45632369954E+02 -0.75875989271E+03  0.76132452742E+03  0.10000000000E+01 0.  0.
<mgrwt>
<rscale>  0 0.12499927E+03</rscale>
<asrwt>0</asrwt>
<pdfrwt beam="2">  1        4 0.22389043E+00 0.12499927E+03</pdfrwt>
<pdfrwt beam="1">  1       -4 0.41294547E-03 0.12499927E+03</pdfrwt>
<totfact> 0.18770344E+03</totfact>
</mgrwt>
</event>
<event>
 5    1  0.3270363E-002  0.1249920E+03  0.7818608E-02  0.1235082E+00
          4   -1    0    0  501    0  0.00000000000E+00  0.00000000000E+00  0.14476375038E+03  0.14476932107E+03  0.12700000000E+01 0.  1.
         -4   -1    0    0    0  501 -0.00000000000E+00 -0.00000000000E+00 -0.26959145461E+02  0.26989042665E+02  0.12700000000E+01 0.  1.
         25    2    1    2    0    0  0.00000000000E+00  0.00000000000E+00  0.11780460492E+03  0.17175836374E+03  0.12499204204E+03 0.  0.
    9000005    1    3    3    0    0  0.31126648290E+02  0.42174100952E+02  0.10564839356E+03  0.11794111279E+03  0.10000000000E+01 0.  0.
    9000005    1    3    3    0    0 -0.31126648290E+02 -0.42174100952E+02  0.12156211360E+02  0.53817250947E+02  0.10000000000E+01 0.  0.
<mgrwt>
<rscale>  0 0.12499204E+03</rscale>
<asrwt>0</asrwt>
<pdfrwt beam="1">  1        4 0.22274074E-01 0.12499204E+03</pdfrwt>
<pdfrwt beam="2">  1       -4 0.41502892E-02 0.12499204E+03</pdfrwt>
<totfact> 0.95138903E+03</totfact>
</mgrwt>
</event>
<event>
 5    1  0.3270363E-002  0.1249731E+03  0.7818608E-02  0.1235111E+00
         -4   -1    0    0    0  501 -0.00000000000E+00  0.00000000000E+00  0.32830533452E+03  0.32830779091E+03  0.12700000000E+01 0.  1.
          4   -1    0    0  501    0  0.00000000000E+00 -0.00000000000E+00 -0.11856693491E+02  0.11924515945E+02  0.12700000000E+01 0.  1.
         25    2    1    2    0    0  0.00000000000E+00  0.00000000000E+00  0.31644864103E+03  0.34023230686E+03  0.12497311799E+03 0.  0.
    9000005    1    3    3    0    0 -0.40495266763E+02  0.45775456375E+02  0.19354387515E+03  0.20296672300E+03  0.10000000000E+01 0.  0.
    9000005    1    3    3    0    0  0.40495266763E+02 -0.45775456375E+02  0.12290476587E+03  0.13726558385E+03  0.10000000000E+01 0.  0.
<mgrwt>
<rscale>  0 0.12497312E+03</rscale>
<asrwt>0</asrwt>
<pdfrwt beam="2">  1        4 0.18295128E-02 0.12497312E+03</pdfrwt>
<pdfrwt beam="1">  1       -4 0.50513919E-01 0.12497312E+03</pdfrwt>
<totfact> 0.70854823E+03</totfact>
</mgrwt>
</event>
<event>
 5    1  0.3270363E-002  0.1250126E+03  0.7818608E-02  0.1235050E+00
         -4   -1    0    0    0  501 -0.00000000000E+00  0.00000000000E+00  0.13078470057E+02  0.13139987787E+02  0.12700000000E+01 0. -1.
          4   -1    0    0  501    0  0.00000000000E+00 -0.00000000000E+00 -0.29797414551E+03  0.29797685194E+03  0.12700000000E+01 0. -1.
         25    2    1    2    0    0  0.00000000000E+00  0.00000000000E+00 -0.28489567545E+03  0.31111683973E+03  0.12501256765E+03 0.  0.
    9000005    1    3    3    0    0 -0.14829197904E+02 -0.54874027984E+02 -0.77791284627E+02  0.96351170318E+02  0.10000000000E+01 0.  0.
    9000005    1    3    3    0    0  0.14829197904E+02  0.54874027984E+02 -0.20710439083E+03  0.21476566941E+03  0.10000000000E+01 0.  0.
<mgrwt>
<rscale>  0 0.12501257E+03</rscale>
<asrwt>0</asrwt>
<pdfrwt beam="2">  1        4 0.45847111E-01 0.12501257E+03</pdfrwt>
<pdfrwt beam="1">  1       -4 0.20170129E-02 0.12501257E+03</pdfrwt>
<totfact> 0.74204504E+03</totfact>
</mgrwt>
</event>
<event>
 5    1  0.3270363E-002  0.1250006E+03  0.7818608E-02  0.1235068E+00
          4   -1    0    0  501    0  0.00000000000E+00  0.00000000000E+00  0.16203830686E+03  0.16204328369E+03  0.12700000000E+01 0.  1.
         -4   -1    0    0    0  501 -0.00000000000E+00 -0.00000000000E+00 -0.24085102624E+02  0.24118562735E+02  0.12700000000E+01 0.  1.
         25    2    1    2    0    0  0.00000000000E+00  0.00000000000E+00  0.13795320424E+03  0.18616184643E+03  0.12500058602E+03 0.  0.
    9000005    1    3    3    0    0  0.27113180923E+02 -0.56215064723E+02  0.73692860529E+02  0.96575855029E+02  0.10000000000E+01 0.  0.
    9000005    1    3    3    0    0 -0.27113180923E+02  0.56215064723E+02  0.64260343707E+02  0.89585991399E+02  0.10000000000E+01 0.  0.
<mgrwt>
<rscale>  0 0.12500059E+03</rscale>
<asrwt>0</asrwt>
<pdfrwt beam="1">  1        4 0.24931927E-01 0.12500059E+03</pdfrwt>
<pdfrwt beam="2">  1       -4 0.37083572E-02 0.12500059E+03</pdfrwt>
<totfact> 0.92518248E+03</totfact>
</mgrwt>
</event>
<event>
 5    1  0.3270363E-002  0.1250015E+03  0.7818608E-02  0.1235067E+00
          4   -1    0    0  501    0  0.00000000000E+00  0.00000000000E+00  0.16890513112E+03  0.16890990562E+03  0.12700000000E+01 0.  1.
         -4   -1    0    0    0  501 -0.00000000000E+00 -0.00000000000E+00 -0.23104884789E+02  0.23139762339E+02  0.12700000000E+01 0.  1.
         25    2    1    2    0    0  0.00000000000E+00  0.00000000000E+00  0.14580024633E+03  0.19204966796E+03  0.12500145253E+03 0.  0.
    9000005    1    3    3    0    0  0.41934108677E+02  0.30217183617E+02  0.12686605425E+03  0.13699468376E+03  0.10000000000E+01 0.  0.
    9000005    1    3    3    0    0 -0.41934108677E+02 -0.30217183617E+02  0.18934192076E+02  0.55054984206E+02  0.10000000000E+01 0.  0.
<mgrwt>
<rscale>  0 0.12500145E+03</rscale>
<asrwt>0</asrwt>
<pdfrwt beam="1">  1        4 0.25988455E-01 0.12500145E+03</pdfrwt>
<pdfrwt beam="2">  1       -4 0.35576478E-02 0.12500145E+03</pdfrwt>
<totfact> 0.91488920E+03</totfact>
</mgrwt>
</event>
<event>
 5    1  0.3270363E-002  0.1250115E+03  0.7818608E-02  0.1235051E+00
         -4   -1    0    0    0  501 -0.00000000000E+00  0.00000000000E+00  0.17466410186E+03  0.17466871895E+03  0.12700000000E+01 0. -1.
          4   -1    0    0  501    0  0.00000000000E+00 -0.00000000000E+00 -0.22345534188E+02  0.22381595076E+02  0.12700000000E+01 0. -1.
         25    2    1    2    0    0  0.00000000000E+00  0.00000000000E+00  0.15231856767E+03  0.19705031402E+03  0.12501152027E+03 0.  0.
    9000005    1    3    3    0    0  0.38097464880E+02  0.24555585035E+02  0.14398555165E+03  0.15095440593E+03  0.10000000000E+01 0.  0.
    9000005    1    3    3    0    0 -0.38097464880E+02 -0.24555585035E+02  0.83330160230E+01  0.46095908091E+02  0.10000000000E+01 0.  0.
<mgrwt>
<rscale>  0 0.12501152E+03</rscale>
<asrwt>0</asrwt>
<pdfrwt beam="2">  1        4 0.34409034E-02 0.12501152E+03</pdfrwt>
<pdfrwt beam="1">  1       -4 0.26874530E-01 0.12501152E+03</pdfrwt>
<totfact> 0.90611478E+03</totfact>
</mgrwt>
</event>
<event>
 5    1  0.3270363E-002  0.1250151E+03  0.7818608E-02  0.1235046E+00
         -4   -1    0    0    0  501 -0.00000000000E+00  0.00000000000E+00  0.16962910372E+02  0.17010385894E+02  0.12700000000E+01 0. -1.
          4   -1    0    0  501    0  0.00000000000E+00 -0.00000000000E+00 -0.22996636135E+03  0.22996986814E+03  0.12700000000E+01 0. -1.
         25    2    1    2    0    0  0.00000000000E+00  0.00000000000E+00 -0.21300345098E+03  0.24698025404E+03  0.12501510211E+03 0.  0.
    9000005    1    3    3    0    0  0.29896981900E+02 -0.24182372083E+02 -0.91628586204E+01  0.39542061459E+02  0.10000000000E+01 0.  0.
    9000005    1    3    3    0    0 -0.29896981900E+02  0.24182372083E+02 -0.20384059236E+03  0.20743819258E+03  0.10000000000E+01 0.  0.
<mgrwt>
<rscale>  0 0.12501510E+03</rscale>
<asrwt>0</asrwt>
<pdfrwt beam="2">  1        4 0.35383360E-01 0.12501510E+03</pdfrwt>
<pdfrwt beam="1">  1       -4 0.26136004E-02 0.12501510E+03</pdfrwt>
<totfact> 0.82740799E+03</totfact>
</mgrwt>
</event>
<event>
 5    1  0.3270363E-002  0.1249881E+03  0.7818608E-02  0.1235088E+00
         -4   -1    0    0    0  501 -0.00000000000E+00  0.00000000000E+00  0.60217457775E+02  0.60230848582E+02  0.12700000000E+01 0. -1.
          4   -1    0    0  501    0  0.00000000000E+00 -0.00000000000E+00 -0.64829919249E+02  0.64842357528E+02  0.12700000000E+01 0. -1.
         25    2    1    2    0    0  0.00000000000E+00  0.00000000000E+00 -0.46124614737E+01  0.12507320611E+03  0.12498812778E+03 0.  0.
    9000005    1    3    3    0    0 -0.53826590050E+02  0.21796386115E+02 -0.25389741043E+02  0.63387878922E+02  0.10000000000E+01 0.  0.
    9000005    1    3    3    0    0  0.53826590050E+02 -0.21796386115E+02  0.20777279570E+02  0.61685327188E+02  0.10000000000E+01 0.  0.
<mgrwt>
<rscale>  0 0.12498813E+03</rscale>
<asrwt>0</asrwt>
<pdfrwt beam="2">  1        4 0.99758206E-02 0.12498813E+03</pdfrwt>
<pdfrwt beam="1">  1       -4 0.92662111E-02 0.12498813E+03</pdfrwt>
<totfact> 0.10454078E+04</totfact>
</mgrwt>
</event>
<event>
 5    1  0.3270363E-002  0.1250015E+03  0.7818608E-02  0.1235067E+00
         -4   -1    0    0    0  501 -0.00000000000E+00  0.00000000000E+00  0.80682245598E+02  0.80692240363E+02  0.12700000000E+01 0. -1.
          4   -1    0    0  501    0  0.00000000000E+00 -0.00000000000E+00 -0.48395078894E+02  0.48411739911E+02  0.12700000000E+01 0. -1.
         25    2    1    2    0    0  0.00000000000E+00  0.00000000000E+00  0.32287166704E+02  0.12910398027E+03  0.12500150635E+03 0.  0.
    9000005    1    3    3    0    0 -0.21283359680E+02  0.27182777830E+02  0.69944050187E+02  0.78006762312E+02  0.10000000000E+01 0.  0.
    9000005    1    3    3    0    0  0.21283359680E+02 -0.27182777830E+02 -0.37656883482E+02  0.51097217962E+02  0.10000000000E+01 0.  0.
<mgrwt>
<rscale>  0 0.12500151E+03</rscale>
<asrwt>0</asrwt>
<pdfrwt beam="2">  1        4 0.74474472E-02 0.12500151E+03</pdfrwt>
<pdfrwt beam="1">  1       -4 0.12414704E-01 0.12500151E+03</pdfrwt>
<totfact> 0.10363361E+04</totfact>
</mgrwt>
</event>
<event>
 5    1  0.3270363E-002  0.1250034E+03  0.7818608E-02  0.1235064E+00
         -4   -1    0    0    0  501 -0.00000000000E+00  0.00000000000E+00  0.93543125565E+02  0.93551746325E+02  0.12700000000E+01 0.  1.
          4   -1    0    0  501    0  0.00000000000E+00 -0.00000000000E+00 -0.41740856011E+02  0.41760171941E+02  0.12700000000E+01 0.  1.
         25    2    1    2    0    0  0.00000000000E+00  0.00000000000E+00  0.51802269554E+02  0.13531191827E+03  0.12500336033E+03 0.  0.
    9000005    1    3    3    0    0 -0.68713245188E+01  0.35631507893E+01 -0.41225292193E+02  0.41957548315E+02  0.10000000000E+01 0.  0.
    9000005    1    3    3    0    0  0.68713245188E+01 -0.35631507893E+01  0.93027561748E+02  0.93354369951E+02  0.10000000000E+01 0.  0.
<mgrwt>
<rscale>  0 0.12500336E+03</rscale>
<asrwt>0</asrwt>
<pdfrwt beam="2">  1        4 0.64238192E-02 0.12500336E+03</pdfrwt>
<pdfrwt beam="1">  1       -4 0.14393399E-01 0.12500336E+03</pdfrwt>
<totfact> 0.10230725E+04</totfact>
</mgrwt>
</event>
<event>
 5    1  0.3270363E-002  0.1250054E+03  0.7818608E-02  0.1235061E+00
          4   -1    0    0  501    0  0.00000000000E+00  0.00000000000E+00  0.51851272388E+02  0.51866823194E+02  0.12700000000E+01 0.  1.
         -4   -1    0    0    0  501 -0.00000000000E+00 -0.00000000000E+00 -0.75309927429E+02  0.75320635083E+02  0.12700000000E+01 0.  1.
         25    2    1    2    0    0  0.00000000000E+00  0.00000000000E+00 -0.23458655041E+02  0.12718745828E+03  0.12500536407E+03 0.  0.
    9000005    1    3    3    0    0  0.29552420354E+02 -0.44219928237E+02  0.21658699543E+02  0.57435588863E+02  0.10000000000E+01 0.  0.
    9000005    1    3    3    0    0 -0.29552420354E+02  0.44219928237E+02 -0.45117354584E+02  0.69751869414E+02  0.10000000000E+01 0.  0.
<mgrwt>
<rscale>  0 0.12500536E+03</rscale>
<asrwt>0</asrwt>
<pdfrwt beam="1">  1        4 0.79791387E-02 0.12500536E+03</pdfrwt>
<pdfrwt beam="2">  1       -4 0.11588163E-01 0.12500536E+03</pdfrwt>
<totfact> 0.10403816E+04</totfact>
</mgrwt>
</event>
<event>
 5    1  0.3270363E-002  0.1250004E+03  0.7818608E-02  0.1235069E+00
         -4   -1    0    0    0  501 -0.00000000000E+00  0.00000000000E+00  0.16112713724E+02  0.16162686768E+02  0.12700000000E+01 0.  1.
          4   -1    0    0  501    0  0.00000000000E+00 -0.00000000000E+00 -0.24200735930E+03  0.24201069161E+03  0.12700000000E+01 0.  1.
         25    2    1    2    0    0  0.00000000000E+00  0.00000000000E+00 -0.22589464557E+03  0.25817337838E+03  0.12500040962E+03 0.  0.
    9000005    1    3    3    0    0  0.58389472091E+02  0.51949149407E+01 -0.68220607980E+02  0.89952036917E+02  0.10000000000E+01 0.  0.
    9000005    1    3    3    0    0 -0.58389472091E+02 -0.51949149407E+01 -0.15767403759E+03  0.16822134146E+03  0.10000000000E+01 0.  0.
<mgrwt>
<rscale>  0 0.12500041E+03</rscale>
<asrwt>0</asrwt>
<pdfrwt beam="2">  1        4 0.37235999E-01 0.12500041E+03</pdfrwt>
<pdfrwt beam="1">  1       -4 0.24829796E-02 0.12500041E+03</pdfrwt>
<totfact> 0.81162347E+03</totfact>
</mgrwt>
</event>
<event>
 5    1  0.3270363E-002  0.1250004E+03  0.7818608E-02  0.1235069E+00
          4   -1    0    0  501    0  0.00000000000E+00  0.00000000000E+00  0.12040263951E+03  0.12040933727E+03  0.12700000000E+01 0. -1.
         -4   -1    0    0    0  501 -0.00000000000E+00 -0.00000000000E+00 -0.32423393493E+02  0.32448256434E+02  0.12700000000E+01 0. -1.
         25    2    1    2    0    0  0.00000000000E+00  0.00000000000E+00  0.87979246021E+02  0.15285759371E+03  0.12500038489E+03 0.  0.
    9000005    1    3    3    0    0 -0.49429460137E+02  0.26501683817E+02  0.77693994726E+02  0.95827801764E+02  0.10000000000E+01 0.  0.
    9000005    1    3    3    0    0  0.49429460137E+02 -0.26501683817E+02  0.10285251295E+02  0.57029791941E+02  0.10000000000E+01 0.  0.
<mgrwt>
<rscale>  0 0.12500038E+03</rscale>
<asrwt>0</asrwt>
<pdfrwt beam="1">  1        4 0.18525911E-01 0.12500038E+03</pdfrwt>
<pdfrwt beam="2">  1       -4 0.49906421E-02 0.12500038E+03</pdfrwt>
<totfact> 0.98736244E+03</totfact>
</mgrwt>
</event>
<event>
 5    1  0.3270363E-002  0.1249992E+03  0.7818608E-02  0.1235071E+00
          4   -1    0    0  501    0  0.00000000000E+00  0.00000000000E+00  0.66981197412E+02  0.66993236276E+02  0.12700000000E+01 0. -1.
         -4   -1    0    0    0  501 -0.00000000000E+00 -0.00000000000E+00 -0.58293640440E+02  0.58307473070E+02  0.12700000000E+01 0. -1.
         25    2    1    2    0    0  0.00000000000E+00  0.00000000000E+00  0.86875569715E+01  0.12530070935E+03  0.12499917646E+03 0.  0.
    9000005    1    3    3    0    0  0.41041327868E+02 -0.47103974337E+02  0.57697210025E+01  0.62749220489E+02  0.10000000000E+01 0.  0.
    9000005    1    3    3    0    0 -0.41041327868E+02  0.47103974337E+02  0.29178359690E+01  0.62551488857E+02  0.10000000000E+01 0.  0.
<mgrwt>
<rscale>  0 0.12499918E+03</rscale>
<asrwt>0</asrwt>
<pdfrwt beam="1">  1        4 0.10306790E-01 0.12499918E+03</pdfrwt>
<pdfrwt beam="2">  1       -4 0.89702425E-02 0.12499918E+03</pdfrwt>
<totfact> 0.10446529E+04</totfact>
</mgrwt>
</event>
<event>
 5    1  0.3270363E-002  0.1249972E+03  0.7818608E-02  0.1235074E+00
          4   -1    0    0  501    0  0.00000000000E+00  0.00000000000E+00  0.46050161723E+02  0.46067670819E+02  0.12700000000E+01 0.  1.
         -4   -1    0    0    0  501 -0.00000000000E+00 -0.00000000000E+00 -0.84783736790E+02  0.84793248104E+02  0.12700000000E+01 0.  1.
         25    2    1    2    0    0  0.00000000000E+00  0.00000000000E+00 -0.38733575068E+02  0.13086091892E+03  0.12499716102E+03 0.  0.
    9000005    1    3    3    0    0 -0.57392415157E+02 -0.20232979916E+02 -0.34239182566E+02  0.69832545540E+02  0.10000000000E+01 0.  0.
    9000005    1    3    3    0    0  0.57392415157E+02  0.20232979916E+02 -0.44943925014E+01  0.61028373383E+02  0.10000000000E+01 0.  0.
<mgrwt>
<rscale>  0 0.12499716E+03</rscale>
<asrwt>0</asrwt>
<pdfrwt beam="1">  1        4 0.70867188E-02 0.12499716E+03</pdfrwt>
<pdfrwt beam="2">  1       -4 0.13045730E-01 0.12499716E+03</pdfrwt>
<totfact> 0.10326733E+04</totfact>
</mgrwt>
</event>
<event>
 5    1  0.3270363E-002  0.1249872E+03  0.7818608E-02  0.1235089E+00
         -4   -1    0    0    0  501 -0.00000000000E+00  0.00000000000E+00  0.45825671423E+02  0.45843266260E+02  0.12700000000E+01 0. -1.
          4   -1    0    0  501    0  0.00000000000E+00 -0.00000000000E+00 -0.85185361993E+02  0.85194828469E+02  0.12700000000E+01 0. -1.
         25    2    1    2    0    0  0.00000000000E+00  0.00000000000E+00 -0.39359690570E+02  0.13103809473E+03  0.12498718746E+03 0.  0.
    9000005    1    3    3    0    0 -0.51289023555E+01 -0.58695519014E+02  0.21356875422E+01  0.58966352719E+02  0.10000000000E+01 0.  0.
    9000005    1    3    3    0    0  0.51289023555E+01  0.58695519014E+02 -0.41495378113E+02  0.72071742010E+02  0.10000000000E+01 0.  0.
<mgrwt>
<rscale>  0 0.12498719E+03</rscale>
<asrwt>0</asrwt>
<pdfrwt beam="2">  1        4 0.13107522E-01 0.12498719E+03</pdfrwt>
<pdfrwt beam="1">  1       -4 0.70521850E-02 0.12498719E+03</pdfrwt>
<totfact> 0.10325257E+04</totfact>
</mgrwt>
</event>
<event>
 5    1  0.3270363E-002  0.1249968E+03  0.7818608E-02  0.1235074E+00
         -4   -1    0    0    0  501 -0.00000000000E+00  0.00000000000E+00  0.39295047691E+01  0.41296377239E+01  0.12700000000E+01 0. -1.
          4   -1    0    0  501    0  0.00000000000E+00 -0.00000000000E+00 -0.96914587592E+03  0.96914670804E+03  0.12700000000E+01 0. -1.
         25    2    1    2    0    0  0.00000000000E+00  0.00000000000E+00 -0.96521637115E+03  0.97327634577E+03  0.12499680833E+03 0.  0.
    9000005    1    3    3    0    0 -0.34694260836E+01 -0.46676056914E+02 -0.80500309125E+03  0.80636323584E+03  0.10000000000E+01 0.  0.
    9000005    1    3    3    0    0  0.34694260836E+01  0.46676056914E+02 -0.16021327990E+03  0.16691310992E+03  0.10000000000E+01 0.  0.
<mgrwt>
<rscale>  0 0.12499681E+03</rscale>
<asrwt>0</asrwt>
<pdfrwt beam="2">  1        4 0.14911464E+00 0.12499681E+03</pdfrwt>
<pdfrwt beam="1">  1       -4 0.61999882E-03 0.12499681E+03</pdfrwt>
<totfact> 0.31505952E+03</totfact>
</mgrwt>
</event>
<event>
 5    1  0.3270363E-002  0.1250003E+03  0.7818608E-02  0.1235069E+00
          4   -1    0    0  501    0  0.00000000000E+00  0.00000000000E+00  0.73150974806E+02  0.73161998435E+02  0.12700000000E+01 0. -1.
         -4   -1    0    0    0  501 -0.00000000000E+00 -0.00000000000E+00 -0.53377448670E+02  0.53392554973E+02  0.12700000000E+01 0. -1.
         25    2    1    2    0    0  0.00000000000E+00  0.00000000000E+00  0.19773526136E+02  0.12655455341E+03  0.12500025061E+03 0.  0.
    9000005    1    3    3    0    0 -0.15044074220E+02  0.60604514201E+02  0.73997261625E+01  0.62888689427E+02  0.10000000000E+01 0.  0.
    9000005    1    3    3    0    0  0.15044074220E+02 -0.60604514201E+02  0.12373799973E+02  0.63665863981E+02  0.10000000000E+01 0.  0.
<mgrwt>
<rscale>  0 0.12500025E+03</rscale>
<asrwt>0</asrwt>
<pdfrwt beam="1">  1        4 0.11256006E-01 0.12500025E+03</pdfrwt>
<pdfrwt beam="2">  1       -4 0.82139252E-02 0.12500025E+03</pdfrwt>
<totfact> 0.10418780E+04</totfact>
</mgrwt>
</event>
<event>
 5    1  0.3270363E-002  0.1250027E+03  0.7818608E-02  0.1235065E+00
         -4   -1    0    0    0  501 -0.00000000000E+00  0.00000000000E+00  0.15540395797E+03  0.15540914727E+03  0.12700000000E+01 0.  1.
          4   -1    0    0  501    0  0.00000000000E+00 -0.00000000000E+00 -0.25115526663E+02  0.25147615783E+02  0.12700000000E+01 0.  1.
         25    2    1    2    0    0  0.00000000000E+00  0.00000000000E+00  0.13028843131E+03  0.18055676305E+03  0.12500267737E+03 0.  0.
    9000005    1    3    3    0    0 -0.66876975169E+01  0.57679995223E+02  0.98513523061E+02  0.11435742815E+03  0.10000000000E+01 0.  0.
    9000005    1    3    3    0    0  0.66876975169E+01 -0.57679995223E+02  0.31774908250E+02  0.66199334901E+02  0.10000000000E+01 0.  0.
<mgrwt>
<rscale>  0 0.12500268E+03</rscale>
<asrwt>0</asrwt>
<pdfrwt beam="2">  1        4 0.38667948E-02 0.12500268E+03</pdfrwt>
<pdfrwt beam="1">  1       -4 0.23911169E-01 0.12500268E+03</pdfrwt>
<totfact> 0.93511266E+03</totfact>
</mgrwt>
</event>
<event>
 5    1  0.3270363E-002  0.1250004E+03  0.7818608E-02  0.1235069E+00
          4   -1    0    0  501    0  0.00000000000E+00  0.00000000000E+00  0.31844772850E+02  0.31870087196E+02  0.12700000000E+01 0. -1.
         -4   -1    0    0    0  501 -0.00000000000E+00 -0.00000000000E+00 -0.12258879361E+03  0.12259537193E+03  0.12700000000E+01 0. -1.
         25    2    1    2    0    0  0.00000000000E+00  0.00000000000E+00 -0.90744020761E+02  0.15446545913E+03  0.12500040304E+03 0.  0.
    9000005    1    3    3    0    0  0.24978275382E+02  0.49952265466E+02 -0.10724842701E+02  0.56878513669E+02  0.10000000000E+01 0.  0.
    9000005    1    3    3    0    0 -0.24978275382E+02 -0.49952265466E+02 -0.80019178061E+02  0.97586945458E+02  0.10000000000E+01 0.  0.
<mgrwt>
<rscale>  0 0.12500040E+03</rscale>
<asrwt>0</asrwt>
<pdfrwt beam="1">  1        4 0.49016492E-02 0.12500040E+03</pdfrwt>
<pdfrwt beam="2">  1       -4 0.18862267E-01 0.12500040E+03</pdfrwt>
<totfact> 0.98419646E+03</totfact>
</mgrwt>
</event>
<event>
 5    1  0.3270363E-002  0.1250002E+03  0.7818608E-02  0.1235069E+00
          4   -1    0    0  501    0  0.00000000000E+00  0.00000000000E+00  0.26780139979E+02  0.26810236801E+02  0.12700000000E+01 0.  1.
         -4   -1    0    0    0  501 -0.00000000000E+00 -0.00000000000E+00 -0.14574937786E+03  0.14575491088E+03  0.12700000000E+01 0.  1.
         25    2    1    2    0    0  0.00000000000E+00  0.00000000000E+00 -0.11896923788E+03  0.17256514768E+03  0.12500020253E+03 0.  0.
    9000005    1    3    3    0    0 -0.33017907317E+02  0.45215935595E+02 -0.97807377835E+02  0.11270291121E+03  0.10000000000E+01 0.  0.
    9000005    1    3    3    0    0  0.33017907317E+02 -0.45215935595E+02 -0.21161860044E+02  0.59862236476E+02  0.10000000000E+01 0.  0.
<mgrwt>
<rscale>  0 0.12500020E+03</rscale>
<asrwt>0</asrwt>
<pdfrwt beam="1">  1        4 0.41227624E-02 0.12500020E+03</pdfrwt>
<pdfrwt beam="2">  1       -4 0.22425721E-01 0.12500020E+03</pdfrwt>
<totfact> 0.94972248E+03</totfact>
</mgrwt>
</event>
<event>
 5    1  0.3270363E-002  0.1250011E+03  0.7818608E-02  0.1235068E+00
         -4   -1    0    0    0  501 -0.00000000000E+00  0.00000000000E+00  0.16739534222E+03  0.16740015979E+03  0.12700000000E+01 0.  1.
          4   -1    0    0  501    0  0.00000000000E+00 -0.00000000000E+00 -0.23313433031E+02  0.23347999051E+02  0.12700000000E+01 0.  1.
         25    2    1    2    0    0  0.00000000000E+00  0.00000000000E+00  0.14408190919E+03  0.19074815884E+03  0.12500105418E+03 0.  0.
    9000005    1    3    3    0    0  0.26299409923E+02  0.53718221276E+02  0.99677895776E+02  0.11624968458E+03  0.10000000000E+01 0.  0.
    9000005    1    3    3    0    0 -0.26299409923E+02 -0.53718221276E+02  0.44404013415E+02  0.74498474258E+02  0.10000000000E+01 0.  0.
<mgrwt>
<rscale>  0 0.12500105E+03</rscale>
<asrwt>0</asrwt>
<pdfrwt beam="2">  1        4 0.35897118E-02 0.12500105E+03</pdfrwt>
<pdfrwt beam="1">  1       -4 0.25756157E-01 0.12500105E+03</pdfrwt>
<totfact> 0.91715136E+03</totfact>
</mgrwt>
</event>
<event>
 5    1  0.3270363E-002  0.1249975E+03  0.7818608E-02  0.1235073E+00
          4   -1    0    0  501    0  0.00000000000E+00  0.00000000000E+00  0.76618219359E+02  0.76628744201E+02  0.12700000000E+01 0. -1.
         -4   -1    0    0    0  501 -0.00000000000E+00 -0.00000000000E+00 -0.50959362212E+02  0.50975185111E+02  0.12700000000E+01 0. -1.
         25    2    1    2    0    0  0.00000000000E+00  0.00000000000E+00  0.25658857147E+02  0.12760392931E+03  0.12499754328E+03 0.  0.
    9000005    1    3    3    0    0 -0.51861835482E+02 -0.30108196965E+02  0.30772703716E+02  0.67410034847E+02  0.10000000000E+01 0.  0.
    9000005    1    3    3    0    0  0.51861835482E+02  0.30108196965E+02 -0.51138465690E+01  0.60193894464E+02  0.10000000000E+01 0.  0.
<mgrwt>
<rscale>  0 0.12499754E+03</rscale>
<asrwt>0</asrwt>
<pdfrwt beam="1">  1        4 0.11789445E-01 0.12499754E+03</pdfrwt>
<pdfrwt beam="2">  1       -4 0.78419286E-02 0.12499754E+03</pdfrwt>
<totfact> 0.10396627E+04</totfact>
</mgrwt>
</event>
<event>
 5    1  0.3270363E-002  0.1250004E+03  0.7818608E-02  0.1235069E+00
          4   -1    0    0  501    0  0.00000000000E+00  0.00000000000E+00  0.50332310666E+02  0.50348330627E+02  0.12700000000E+01 0.  1.
         -4   -1    0    0    0  501 -0.00000000000E+00 -0.00000000000E+00 -0.77576168959E+02  0.77586563852E+02  0.12700000000E+01 0.  1.
         25    2    1    2    0    0  0.00000000000E+00  0.00000000000E+00 -0.27243858293E+02  0.12793489448E+03  0.12500043764E+03 0.  0.
    9000005    1    3    3    0    0  0.90028999557E+01  0.53064321886E+02 -0.46122764388E+02  0.70888531228E+02  0.10000000000E+01 0.  0.
    9000005    1    3    3    0    0 -0.90028999557E+01 -0.53064321886E+02  0.18878906095E+02  0.57046363251E+02  0.10000000000E+01 0.  0.
<mgrwt>
<rscale>  0 0.12500044E+03</rscale>
<asrwt>0</asrwt>
<pdfrwt beam="1">  1        4 0.77454643E-02 0.12500044E+03</pdfrwt>
<pdfrwt beam="2">  1       -4 0.11936827E-01 0.12500044E+03</pdfrwt>
<totfact> 0.10388791E+04</totfact>
</mgrwt>
</event>
<event>
 5    1  0.3270363E-002  0.1250010E+03  0.7818608E-02  0.1235068E+00
         -4   -1    0    0    0  501 -0.00000000000E+00  0.00000000000E+00  0.38548769883E+01  0.40586914880E+01  0.12700000000E+01 0.  1.
          4   -1    0    0  501    0  0.00000000000E+00 -0.00000000000E+00 -0.98704019702E+03  0.98704101406E+03  0.12700000000E+01 0.  1.
         25    2    1    2    0    0  0.00000000000E+00  0.00000000000E+00 -0.98318532003E+03  0.99109970555E+03  0.12500101123E+03 0.  0.
    9000005    1    3    3    0    0 -0.57379970982E+02 -0.17883442266E+02 -0.62731873512E+03  0.63019209294E+03  0.10000000000E+01 0.  0.
    9000005    1    3    3    0    0  0.57379970982E+02  0.17883442266E+02 -0.35586658492E+03  0.36090761261E+03  0.10000000000E+01 0.  0.
<mgrwt>
<rscale>  0 0.12500101E+03</rscale>
<asrwt>0</asrwt>
<pdfrwt beam="2">  1        4 0.15186788E+00 0.12500101E+03</pdfrwt>
<pdfrwt beam="1">  1       -4 0.60879967E-03 0.12500101E+03</pdfrwt>
<totfact> 0.30899545E+03</totfact>
</mgrwt>
</event>
<event>
 5    1  0.3270363E-002  0.1249938E+03  0.7818608E-02  0.1235079E+00
          4   -1    0    0  501    0  0.00000000000E+00  0.00000000000E+00  0.23439262633E+01  0.26658751523E+01  0.12700000000E+01 0. -1.
         -4   -1    0    0    0  501 -0.00000000000E+00 -0.00000000000E+00 -0.15589654389E+04  0.15589659562E+04  0.12700000000E+01 0. -1.
         25    2    1    2    0    0  0.00000000000E+00  0.00000000000E+00 -0.15566215126E+04  0.15616318313E+04  0.12499377218E+03 0.  0.
    9000005    1    3    3    0    0  0.52831204711E+02 -0.28885807642E+02 -0.98712144209E+03  0.98895665603E+03  0.10000000000E+01 0.  0.
    9000005    1    3    3    0    0 -0.52831204711E+02  0.28885807642E+02 -0.56950007055E+03  0.57267517532E+03  0.10000000000E+01 0.  0.
<mgrwt>
<rscale>  0 0.12499377E+03</rscale>
<asrwt>0</asrwt>
<pdfrwt beam="1">  1        4 0.38541038E-03 0.12499377E+03</pdfrwt>
<pdfrwt beam="2">  1       -4 0.23986487E+00 0.12499377E+03</pdfrwt>
<totfact> 0.16752610E+03</totfact>
</mgrwt>
</event>
<event>
 5    1  0.3270363E-002  0.1249988E+03  0.7818608E-02  0.1235071E+00
          4   -1    0    0  501    0  0.00000000000E+00  0.00000000000E+00  0.19376731717E+02  0.19418306621E+02  0.12700000000E+01 0.  1.
         -4   -1    0    0    0  501 -0.00000000000E+00 -0.00000000000E+00 -0.20133147626E+03  0.20133548181E+03  0.12700000000E+01 0.  1.
         25    2    1    2    0    0  0.00000000000E+00  0.00000000000E+00 -0.18195474455E+03  0.22075378843E+03  0.12499882416E+03 0.  0.
    9000005    1    3    3    0    0 -0.34252725937E+02 -0.12740569920E+02 -0.14542057832E+01  0.36588059125E+02  0.10000000000E+01 0.  0.
    9000005    1    3    3    0    0  0.34252725937E+02  0.12740569920E+02 -0.18050053876E+03  0.18416572930E+03  0.10000000000E+01 0.  0.
<mgrwt>
<rscale>  0 0.12499882E+03</rscale>
<asrwt>0</asrwt>
<pdfrwt beam="1">  1        4 0.29845420E-02 0.12499882E+03</pdfrwt>
<pdfrwt beam="2">  1       -4 0.30977578E-01 0.12499882E+03</pdfrwt>
<totfact> 0.86751492E+03</totfact>
</mgrwt>
</event>
<event>
 5    1  0.3270363E-002  0.1249969E+03  0.7818608E-02  0.1235074E+00
          4   -1    0    0  501    0  0.00000000000E+00  0.00000000000E+00  0.16888293227E+02  0.16935977920E+02  0.12700000000E+01 0. -1.
         -4   -1    0    0    0  501 -0.00000000000E+00 -0.00000000000E+00 -0.23091220648E+03  0.23091569890E+03  0.12700000000E+01 0. -1.
         25    2    1    2    0    0  0.00000000000E+00  0.00000000000E+00 -0.21402391325E+03  0.24785167682E+03  0.12499687301E+03 0.  0.
    9000005    1    3    3    0    0  0.58257909006E+02  0.41331102226E+01 -0.62941158676E+02  0.85869994860E+02  0.10000000000E+01 0.  0.
    9000005    1    3    3    0    0 -0.58257909006E+02 -0.41331102226E+01 -0.15108275458E+03  0.16198168196E+03  0.10000000000E+01 0.  0.
<mgrwt>
<rscale>  0 0.12499687E+03</rscale>
<asrwt>0</asrwt>
<pdfrwt beam="1">  1        4 0.26021358E-02 0.12499687E+03</pdfrwt>
<pdfrwt beam="2">  1       -4 0.35528889E-01 0.12499687E+03</pdfrwt>
<totfact> 0.82647481E+03</totfact>
</mgrwt>
</event>
<event>
 5    1  0.3270363E-002  0.1250005E+03  0.7818608E-02  0.1235069E+00
          4   -1    0    0  501    0  0.00000000000E+00  0.00000000000E+00  0.47957534457E+03  0.47957702616E+03  0.12700000000E+01 0.  1.
         -4   -1    0    0    0  501 -0.00000000000E+00 -0.00000000000E+00 -0.80940779876E+01  0.81931067654E+01  0.12700000000E+01 0.  1.
         25    2    1    2    0    0  0.00000000000E+00  0.00000000000E+00  0.47148126658E+03  0.48777013293E+03  0.12500047134E+03 0.  0.
    9000005    1    3    3    0    0 -0.11289815718E+02  0.38963590222E+01  0.47509963602E+03  0.47525078191E+03  0.10000000000E+01 0.  0.
    9000005    1    3    3    0    0  0.11289815718E+02 -0.38963590222E+01 -0.36183694392E+01  0.12519351020E+02  0.10000000000E+01 0.  0.
<mgrwt>
<rscale>  0 0.12500047E+03</rscale>
<asrwt>0</asrwt>
<pdfrwt beam="1">  1        4 0.73788577E-01 0.12500047E+03</pdfrwt>
<pdfrwt beam="2">  1       -4 0.12529896E-02 0.12500047E+03</pdfrwt>
<totfact> 0.56825303E+03</totfact>
</mgrwt>
</event>
<event>
 5    1  0.3270363E-002  0.1250018E+03  0.7818608E-02  0.1235066E+00
          4   -1    0    0  501    0  0.00000000000E+00  0.00000000000E+00  0.60590139596E+02  0.60603448056E+02  0.12700000000E+01 0.  1.
         -4   -1    0    0    0  501 -0.00000000000E+00 -0.00000000000E+00 -0.64445299600E+02  0.64457812098E+02  0.12700000000E+01 0.  1.
         25    2    1    2    0    0  0.00000000000E+00  0.00000000000E+00 -0.38551600037E+01  0.12506126015E+03  0.12500182612E+03 0.  0.
    9000005    1    3    3    0    0 -0.56626790989E+02  0.15539330258E+02  0.19467158942E+02  0.61871112159E+02  0.10000000000E+01 0.  0.
    9000005    1    3    3    0    0  0.56626790989E+02 -0.15539330258E+02 -0.23322318946E+02  0.63190147994E+02  0.10000000000E+01 0.  0.
<mgrwt>
<rscale>  0 0.12500183E+03</rscale>
<asrwt>0</asrwt>
<pdfrwt beam="1">  1        4 0.93235461E-02 0.12500183E+03</pdfrwt>
<pdfrwt beam="2">  1       -4 0.99166477E-02 0.12500183E+03</pdfrwt>
<totfact> 0.10451101E+04</totfact>
</mgrwt>
</event>
<event>
 5    1  0.3270363E-002  0.1250000E+03  0.7818608E-02  0.1235069E+00
         -4   -1    0    0    0  501 -0.00000000000E+00  0.00000000000E+00  0.19001783651E+03  0.19002208054E+03  0.12700000000E+01 0. -1.
          4   -1    0    0  501    0  0.00000000000E+00 -0.00000000000E+00 -0.20533175903E+02  0.20572413875E+02  0.12700000000E+01 0. -1.
         25    2    1    2    0    0  0.00000000000E+00  0.00000000000E+00  0.16948466061E+03  0.21059449441E+03  0.12499996358E+03 0.  0.
    9000005    1    3    3    0    0  0.55145340711E+02 -0.23910938112E+02  0.11355640218E+03  0.12848656755E+03  0.10000000000E+01 0.  0.
    9000005    1    3    3    0    0 -0.55145340711E+02  0.23910938112E+02  0.55928258424E+02  0.82107926864E+02  0.10000000000E+01 0.  0.
<mgrwt>
<rscale>  0 0.12499996E+03</rscale>
<asrwt>0</asrwt>
<pdfrwt beam="2">  1        4 0.31622949E-02 0.12499996E+03</pdfrwt>
<pdfrwt beam="1">  1       -4 0.29236858E-01 0.12499996E+03</pdfrwt>
<totfact> 0.88378955E+03</totfact>
</mgrwt>
</event>
<event>
 5    1  0.3270363E-002  0.1249967E+03  0.7818608E-02  0.1235074E+00
         -4   -1    0    0    0  501 -0.00000000000E+00  0.00000000000E+00  0.46964817466E+02  0.46981985693E+02  0.12700000000E+01 0. -1.
          4   -1    0    0  501    0  0.00000000000E+00 -0.00000000000E+00 -0.83132310064E+02  0.83142010299E+02  0.12700000000E+01 0. -1.
         25    2    1    2    0    0  0.00000000000E+00  0.00000000000E+00 -0.36167492598E+02  0.13012399599E+03  0.12499666720E+03 0.  0.
    9000005    1    3    3    0    0  0.42673969347E+02  0.19166762699E+02 -0.61215258252E+02  0.77050245263E+02  0.10000000000E+01 0.  0.
    9000005    1    3    3    0    0 -0.42673969347E+02 -0.19166762699E+02  0.25047765654E+02  0.53073750729E+02  0.10000000000E+01 0.  0.
<mgrwt>
<rscale>  0 0.12499667E+03</rscale>
<asrwt>0</asrwt>
<pdfrwt beam="2">  1        4 0.12791653E-01 0.12499667E+03</pdfrwt>
<pdfrwt beam="1">  1       -4 0.72274233E-02 0.12499667E+03</pdfrwt>
<totfact> 0.10342634E+04</totfact>
</mgrwt>
</event>
<event>
 5    1  0.3270363E-002  0.1249897E+03  0.7818608E-02  0.1235085E+00
         -4   -1    0    0    0  501 -0.00000000000E+00  0.00000000000E+00  0.71655694130E+01  0.72772443283E+01  0.12700000000E+01 0. -1.
          4   -1    0    0  501    0  0.00000000000E+00 -0.00000000000E+00 -0.54072528903E+03  0.54072678045E+03  0.12700000000E+01 0. -1.
         25    2    1    2    0    0  0.00000000000E+00  0.00000000000E+00 -0.53355971962E+03  0.54800402478E+03  0.12498974668E+03 0.  0.
    9000005    1    3    3    0    0  0.39687668729E+02  0.32576482945E+02 -0.42292029118E+03  0.42602688997E+03  0.10000000000E+01 0.  0.
    9000005    1    3    3    0    0 -0.39687668729E+02 -0.32576482945E+02 -0.11063942844E+03  0.12197713481E+03  0.10000000000E+01 0.  0.
<mgrwt>
<rscale>  0 0.12498975E+03</rscale>
<asrwt>0</asrwt>
<pdfrwt beam="2">  1        4 0.83197179E-01 0.12498975E+03</pdfrwt>
<pdfrwt beam="1">  1       -4 0.11111008E-02 0.12498975E+03</pdfrwt>
<totfact> 0.52335128E+03</totfact>
</mgrwt>
</event>
<event>
 5    1  0.3270363E-002  0.1250154E+03  0.7818608E-02  0.1235045E+00
          4   -1    0    0  501    0  0.00000000000E+00  0.00000000000E+00  0.30681095408E+02  0.30707369074E+02  0.12700000000E+01 0. -1.
         -4   -1    0    0    0  501 -0.00000000000E+00 -0.00000000000E+00 -0.12726529018E+03  0.12727162678E+03  0.12700000000E+01 0. -1.
         25    2    1    2    0    0  0.00000000000E+00  0.00000000000E+00 -0.96584194770E+02  0.15797899586E+03  0.12501542486E+03 0.  0.
    9000005    1    3    3    0    0  0.19393548636E+02  0.42209741763E+02 -0.10113192275E+03  0.11129437464E+03  0.10000000000E+01 0.  0.
    9000005    1    3    3    0    0 -0.19393548636E+02 -0.42209741763E+02  0.45477279765E+01  0.46684621217E+02  0.10000000000E+01 0.  0.
<mgrwt>
<rscale>  0 0.12501542E+03</rscale>
<asrwt>0</asrwt>
<pdfrwt beam="1">  1        4 0.47226771E-02 0.12501542E+03</pdfrwt>
<pdfrwt beam="2">  1       -4 0.19581784E-01 0.12501542E+03</pdfrwt>
<totfact> 0.97699954E+03</totfact>
</mgrwt>
</event>
<event>
 5    1  0.3270363E-002  0.1249905E+03  0.7818608E-02  0.1235084E+00
         -4   -1    0    0    0  501 -0.00000000000E+00  0.00000000000E+00  0.65027371297E+01  0.66255935718E+01  0.12700000000E+01 0. -1.
          4   -1    0    0  501    0  0.00000000000E+00 -0.00000000000E+00 -0.59487340889E+03  0.59487476455E+03  0.12700000000E+01 0. -1.
         25    2    1    2    0    0  0.00000000000E+00  0.00000000000E+00 -0.58837067176E+03  0.60150035813E+03  0.12499053340E+03 0.  0.
    9000005    1    3    3    0    0  0.34693782389E+02  0.11550119058E+01 -0.44142872475E+02  0.56165699313E+02  0.10000000000E+01 0.  0.
    9000005    1    3    3    0    0 -0.34693782389E+02 -0.11550119058E+01 -0.54422779928E+03  0.54533465881E+03  0.10000000000E+01 0.  0.
<mgrwt>
<rscale>  0 0.12499053E+03</rscale>
<asrwt>0</asrwt>
<pdfrwt beam="2">  1        4 0.91528498E-01 0.12499053E+03</pdfrwt>
<pdfrwt beam="1">  1       -4 0.10099763E-02 0.12499053E+03</pdfrwt>
<totfact> 0.48783182E+03</totfact>
</mgrwt>
</event>
<event>
 5    1  0.3270363E-002  0.1249991E+03  0.7818608E-02  0.1235071E+00
          4   -1    0    0  501    0  0.00000000000E+00  0.00000000000E+00  0.58008058309E+01  0.59382024459E+01  0.12700000000E+01 0. -1.
         -4   -1    0    0    0  501 -0.00000000000E+00 -0.00000000000E+00 -0.66536826205E+03  0.66536947408E+03  0.12700000000E+01 0. -1.
         25    2    1    2    0    0  0.00000000000E+00  0.00000000000E+00 -0.65956745622E+03  0.67130767653E+03  0.12499906906E+03 0.  0.
    9000005    1    3    3    0    0  0.37194607373E+02  0.70798663868E+01 -0.62786697607E+02  0.73326207608E+02  0.10000000000E+01 0.  0.
    9000005    1    3    3    0    0 -0.37194607373E+02 -0.70798663868E+01 -0.59678075861E+03  0.59798146892E+03  0.10000000000E+01 0.  0.
<mgrwt>
<rscale>  0 0.12499907E+03</rscale>
<asrwt>0</asrwt>
<pdfrwt beam="1">  1        4 0.90309440E-03 0.12499907E+03</pdfrwt>
<pdfrwt beam="2">  1       -4 0.10237495E+00 0.12499907E+03</pdfrwt>
<totfact> 0.44646136E+03</totfact>
</mgrwt>
</event>
<event>
 5    1  0.3270363E-002  0.1249898E+03  0.7818608E-02  0.1235085E+00
          4   -1    0    0  501    0  0.00000000000E+00  0.00000000000E+00  0.16637061850E+03  0.16637546574E+03  0.12700000000E+01 0. -1.
         -4   -1    0    0    0  501 -0.00000000000E+00 -0.00000000000E+00 -0.23453020440E+02  0.23487381032E+02  0.12700000000E+01 0. -1.
         25    2    1    2    0    0  0.00000000000E+00  0.00000000000E+00  0.14291759806E+03  0.18986284677E+03  0.12498984258E+03 0.  0.
    9000005    1    3    3    0    0 -0.30361966391E+02  0.11377790007E+02  0.15259971475E+03  0.15600953833E+03  0.10000000000E+01 0.  0.
    9000005    1    3    3    0    0  0.30361966391E+02 -0.11377790007E+02 -0.96821166922E+01  0.33853308438E+02  0.10000000000E+01 0.  0.
<mgrwt>
<rscale>  0 0.12498984E+03</rscale>
<asrwt>0</asrwt>
<pdfrwt beam="1">  1        4 0.25598495E-01 0.12498984E+03</pdfrwt>
<pdfrwt beam="2">  1       -4 0.36111730E-02 0.12498984E+03</pdfrwt>
<totfact> 0.91892091E+03</totfact>
</mgrwt>
</event>
<event>
 4    1  0.3270363E-002  0.1252873E+03  0.7818608E-02  0.1234621E+00
          4   -1    0    0  501    0  0.00000000000E+00  0.00000000000E+00  0.11695188393E+03  0.11695877930E+03  0.12700000000E+01 0.  1.
         -4   -1    0    0    0  501 -0.00000000000E+00 -0.00000000000E+00 -0.33534314880E+02  0.33558354764E+02  0.12700000000E+01 0.  1.
    9000005    1    1    2    0    0 -0.29656895974E+02 -0.54422085773E+02  0.30834225561E+02  0.69231816130E+02  0.10000000000E+01 0.  0.
    9000005    1    1    2    0    0  0.29656895974E+02  0.54422085773E+02  0.52583343490E+02  0.81285317932E+02  0.10000000000E+01 0.  0.
<mgrwt>
<rscale>  0 0.12528734E+03</rscale>
<asrwt>0</asrwt>
<pdfrwt beam="1">  1        4 0.17994977E-01 0.12528734E+03</pdfrwt>
<pdfrwt beam="2">  1       -4 0.51615050E-02 0.12528734E+03</pdfrwt>
<totfact> 0.98561966E+03</totfact>
</mgrwt>
</event>
<event>
 5    1  0.3270363E-002  0.1250006E+03  0.7818608E-02  0.1235068E+00
         -4   -1    0    0    0  501 -0.00000000000E+00  0.00000000000E+00  0.17225403563E+02  0.17272157593E+02  0.12700000000E+01 0.  1.
          4   -1    0    0  501    0  0.00000000000E+00 -0.00000000000E+00 -0.22641877521E+03  0.22642233695E+03  0.12700000000E+01 0.  1.
         25    2    1    2    0    0  0.00000000000E+00  0.00000000000E+00 -0.20919337165E+03  0.24369449454E+03  0.12500055971E+03 0.  0.
    9000005    1    3    3    0    0 -0.10639963003E+02 -0.47456906187E+02 -0.18110041222E+03  0.18751993511E+03  0.10000000000E+01 0.  0.
    9000005    1    3    3    0    0  0.10639963003E+02  0.47456906187E+02 -0.28092959427E+02  0.56174559428E+02  0.10000000000E+01 0.  0.
<mgrwt>
<rscale>  0 0.12500056E+03</rscale>
<asrwt>0</asrwt>
<pdfrwt beam="2">  1        4 0.34837526E-01 0.12500056E+03</pdfrwt>
<pdfrwt beam="1">  1       -4 0.26539327E-02 0.12500056E+03</pdfrwt>
<totfact> 0.83249159E+03</totfact>
</mgrwt>
</event>
<event>
 5    1  0.3270363E-002  0.1250008E+03  0.7818608E-02  0.1235068E+00
         -4   -1    0    0    0  501 -0.00000000000E+00  0.00000000000E+00  0.47845943261E+03  0.47846111813E+03  0.12700000000E+01 0.  1.
          4   -1    0    0  501    0  0.00000000000E+00 -0.00000000000E+00 -0.81132269167E+01  0.82120247809E+01  0.12700000000E+01 0.  1.
         25    2    1    2    0    0  0.00000000000E+00  0.00000000000E+00  0.47034620570E+03  0.48667314291E+03  0.12500077925E+03 0.  0.
    9000005    1    3    3    0    0  0.46062197841E+01 -0.40121816990E+02  0.42084687641E+03  0.42278135111E+03  0.10000000000E+01 0.  0.
    9000005    1    3    3    0    0 -0.46062197841E+01  0.40121816990E+02  0.49499329283E+02  0.63891791795E+02  0.10000000000E+01 0.  0.
<mgrwt>
<rscale>  0 0.12500078E+03</rscale>
<asrwt>0</asrwt>
<pdfrwt beam="2">  1        4 0.12559175E-02 0.12500078E+03</pdfrwt>
<pdfrwt beam="1">  1       -4 0.73616918E-01 0.12500078E+03</pdfrwt>
<totfact> 0.56912398E+03</totfact>
</mgrwt>
</event>
<event>
 5    1  0.3270363E-002  0.1250235E+03  0.7818608E-02  0.1235033E+00
          4   -1    0    0  501    0  0.00000000000E+00  0.00000000000E+00  0.18886818502E+02  0.18929469435E+02  0.12700000000E+01 0.  1.
         -4   -1    0    0    0  501 -0.00000000000E+00 -0.00000000000E+00 -0.20662383827E+03  0.20662774122E+03  0.12700000000E+01 0.  1.
         25    2    1    2    0    0  0.00000000000E+00  0.00000000000E+00 -0.18773701977E+03  0.22555721066E+03  0.12502346455E+03 0.  0.
    9000005    1    3    3    0    0  0.14457544995E+02 -0.24600524232E+02 -0.19419618792E+03  0.19628389084E+03  0.10000000000E+01 0.  0.
    9000005    1    3    3    0    0 -0.14457544995E+02  0.24600524232E+02  0.64591681532E+01  0.29273319815E+02  0.10000000000E+01 0.  0.
<mgrwt>
<rscale>  0 0.12502346E+03</rscale>
<asrwt>0</asrwt>
<pdfrwt beam="1">  1        4 0.29092456E-02 0.12502346E+03</pdfrwt>
<pdfrwt beam="2">  1       -4 0.31791862E-01 0.12502346E+03</pdfrwt>
<totfact> 0.85951471E+03</totfact>
</mgrwt>
</event>
<event>
 5    1  0.3270363E-002  0.1249941E+03  0.7818608E-02  0.1235079E+00
          4   -1    0    0  501    0  0.00000000000E+00  0.00000000000E+00  0.14138215824E+02  0.14195141657E+02  0.12700000000E+01 0. -1.
         -4   -1    0    0    0  501 -0.00000000000E+00 -0.00000000000E+00 -0.27565046304E+03  0.27565338865E+03  0.12700000000E+01 0. -1.
         25    2    1    2    0    0  0.00000000000E+00  0.00000000000E+00 -0.26151224722E+03  0.28984853031E+03  0.12499406017E+03 0.  0.
    9000005    1    3    3    0    0 -0.55487569489E+02 -0.28500126250E+02 -0.13935520600E+03  0.15268268076E+03  0.10000000000E+01 0.  0.
    9000005    1    3    3    0    0  0.55487569489E+02  0.28500126250E+02 -0.12215704122E+03  0.13716584955E+03  0.10000000000E+01 0.  0.
<mgrwt>
<rscale>  0 0.12499406E+03</rscale>
<asrwt>0</asrwt>
<pdfrwt beam="1">  1        4 0.21797143E-02 0.12499406E+03</pdfrwt>
<pdfrwt beam="2">  1       -4 0.42412363E-01 0.12499406E+03</pdfrwt>
<totfact> 0.76900272E+03</totfact>
</mgrwt>
</event>
<event>
 5    1  0.3270363E-002  0.1249888E+03  0.7818608E-02  0.1235087E+00
          4   -1    0    0  501    0  0.00000000000E+00  0.00000000000E+00  0.19126810707E+02  0.19168927664E+02  0.12700000000E+01 0. -1.
         -4   -1    0    0    0  501 -0.00000000000E+00 -0.00000000000E+00 -0.20392372400E+03  0.20392767863E+03  0.12700000000E+01 0. -1.
         25    2    1    2    0    0  0.00000000000E+00  0.00000000000E+00 -0.18479691330E+03  0.22309660630E+03  0.12498878580E+03 0.  0.
    9000005    1    3    3    0    0 -0.30383416104E+01 -0.60802328053E+02 -0.67257212874E+02  0.90723135418E+02  0.10000000000E+01 0.  0.
    9000005    1    3    3    0    0  0.30383416104E+01  0.60802328053E+02 -0.11753970042E+03  0.13237347088E+03  0.10000000000E+01 0.  0.
<mgrwt>
<rscale>  0 0.12498879E+03</rscale>
<asrwt>0</asrwt>
<pdfrwt beam="1">  1        4 0.29461304E-02 0.12498879E+03</pdfrwt>
<pdfrwt beam="2">  1       -4 0.31376423E-01 0.12498879E+03</pdfrwt>
<totfact> 0.86402347E+03</totfact>
</mgrwt>
</event>
<event>
 5    1  0.3270363E-002  0.1250039E+03  0.7818608E-02  0.1235063E+00
          4   -1    0    0  501    0  0.00000000000E+00  0.00000000000E+00  0.16093659885E+02  0.16143691910E+02  0.12700000000E+01 0.  1.
         -4   -1    0    0    0  501 -0.00000000000E+00 -0.00000000000E+00 -0.24230644819E+03  0.24230977639E+03  0.12700000000E+01 0.  1.
         25    2    1    2    0    0  0.00000000000E+00  0.00000000000E+00 -0.22621278831E+03  0.25845346830E+03  0.12500387868E+03 0.  0.
    9000005    1    3    3    0    0 -0.43384021499E+02  0.40382309278E+02 -0.15407276528E+03  0.16508277083E+03  0.10000000000E+01 0.  0.
    9000005    1    3    3    0    0  0.43384021499E+02 -0.40382309278E+02 -0.72140023025E+02  0.93370697471E+02  0.10000000000E+01 0.  0.
<mgrwt>
<rscale>  0 0.12500388E+03</rscale>
<asrwt>0</asrwt>
<pdfrwt beam="1">  1        4 0.24800525E-02 0.12500388E+03</pdfrwt>
<pdfrwt beam="2">  1       -4 0.37282017E-01 0.12500388E+03</pdfrwt>
<totfact> 0.81116582E+03</totfact>
</mgrwt>
</event>
<event>
 5    1  0.3270363E-002  0.1249980E+03  0.7818608E-02  0.1235072E+00
          4   -1    0    0  501    0  0.00000000000E+00  0.00000000000E+00  0.24151022912E+03  0.24151356830E+03  0.12700000000E+01 0.  1.
         -4   -1    0    0    0  501 -0.00000000000E+00 -0.00000000000E+00 -0.16145349041E+02  0.16195221384E+02  0.12700000000E+01 0.  1.
         25    2    1    2    0    0  0.00000000000E+00  0.00000000000E+00  0.22536488008E+03  0.25770878968E+03  0.12499796440E+03 0.  0.
    9000005    1    3    3    0    0  0.35693032868E+02  0.34592127482E+02  0.19076945513E+03  0.19714104821E+03  0.10000000000E+01 0.  0.
    9000005    1    3    3    0    0 -0.35693032868E+02 -0.34592127482E+02  0.34595424953E+02  0.60567741470E+02  0.10000000000E+01 0.  0.
<mgrwt>
<rscale>  0 0.12499796E+03</rscale>
<asrwt>0</asrwt>
<pdfrwt beam="1">  1        4 0.37159514E-01 0.12499796E+03</pdfrwt>
<pdfrwt beam="2">  1       -4 0.24879930E-02 0.12499796E+03</pdfrwt>
<totfact> 0.81232358E+03</totfact>
</mgrwt>
</event>
<event>
 5    1  0.3270363E-002  0.1250007E+03  0.7818608E-02  0.1235068E+00
          4   -1    0    0  501    0  0.00000000000E+00  0.00000000000E+00  0.74964858124E+02  0.74975615060E+02  0.12700000000E+01 0. -1.
         -4   -1    0    0    0  501 -0.00000000000E+00 -0.00000000000E+00 -0.52086104274E+02  0.52101584989E+02  0.12700000000E+01 0. -1.
         25    2    1    2    0    0  0.00000000000E+00  0.00000000000E+00  0.22878753851E+02  0.12707720005E+03  0.12500070958E+03 0.  0.
    9000005    1    3    3    0    0  0.12442261173E+01 -0.46490420888E+02  0.53874695993E+02  0.71178579652E+02  0.10000000000E+01 0.  0.
    9000005    1    3    3    0    0 -0.12442261173E+01  0.46490420888E+02 -0.30995942143E+02  0.55898620397E+02  0.10000000000E+01 0.  0.
<mgrwt>
<rscale>  0 0.12500071E+03</rscale>
<asrwt>0</asrwt>
<pdfrwt beam="1">  1        4 0.11535073E-01 0.12500071E+03</pdfrwt>
<pdfrwt beam="2">  1       -4 0.80152651E-02 0.12500071E+03</pdfrwt>
<totfact> 0.10407302E+04</totfact>
</mgrwt>
</event>
<event>
 5    1  0.3270363E-002  0.1249938E+03  0.7818608E-02  0.1235079E+00
          4   -1    0    0  501    0  0.00000000000E+00  0.00000000000E+00  0.14617543189E+03  0.14618094878E+03  0.12700000000E+01 0.  1.
         -4   -1    0    0    0  501 -0.00000000000E+00 -0.00000000000E+00 -0.26699273136E+02  0.26729461012E+02  0.12700000000E+01 0.  1.
         25    2    1    2    0    0  0.00000000000E+00  0.00000000000E+00  0.11947615875E+03  0.17291040980E+03  0.12499382907E+03 0.  0.
    9000005    1    3    3    0    0  0.24506483436E+02  0.55217932066E+02  0.81840408889E+02  0.10172728385E+03  0.10000000000E+01 0.  0.
    9000005    1    3    3    0    0 -0.24506483436E+02 -0.55217932066E+02  0.37635749862E+02  0.71183125948E+02  0.10000000000E+01 0.  0.
<mgrwt>
<rscale>  0 0.12499383E+03</rscale>
<asrwt>0</asrwt>
<pdfrwt beam="1">  1        4 0.22491274E-01 0.12499383E+03</pdfrwt>
<pdfrwt beam="2">  1       -4 0.41103271E-02 0.12499383E+03</pdfrwt>
<totfact> 0.94922086E+03</totfact>
</mgrwt>
</event>
<event>
 5    1  0.3270363E-002  0.1250000E+03  0.7818608E-02  0.1235069E+00
          4   -1    0    0  501    0  0.00000000000E+00  0.00000000000E+00  0.73408262722E+02  0.73419247721E+02  0.12700000000E+01 0.  1.
         -4   -1    0    0    0  501 -0.00000000000E+00 -0.00000000000E+00 -0.53190094543E+02  0.53205254040E+02  0.12700000000E+01 0.  1.
         25    2    1    2    0    0  0.00000000000E+00  0.00000000000E+00  0.20218168179E+02  0.12662450176E+03  0.12499996049E+03 0.  0.
    9000005    1    3    3    0    0  0.61567739012E+01 -0.11895778223E+02  0.71941969809E+02  0.73185124338E+02  0.10000000000E+01 0.  0.
    9000005    1    3    3    0    0 -0.61567739012E+01  0.11895778223E+02 -0.51723801630E+02  0.53439377424E+02  0.10000000000E+01 0.  0.
<mgrwt>
<rscale>  0 0.12499996E+03</rscale>
<asrwt>0</asrwt>
<pdfrwt beam="1">  1        4 0.11295590E-01 0.12499996E+03</pdfrwt>
<pdfrwt beam="2">  1       -4 0.81851027E-02 0.12499996E+03</pdfrwt>
<totfact> 0.10417324E+04</totfact>
</mgrwt>
</event>
<event>
 5    1  0.3270363E-002  0.1250031E+03  0.7818608E-02  0.1235064E+00
         -4   -1    0    0    0  501 -0.00000000000E+00  0.00000000000E+00  0.32941738296E+03  0.32941983106E+03  0.12700000000E+01 0. -1.
          4   -1    0    0  501    0  0.00000000000E+00 -0.00000000000E+00 -0.11822137977E+02  0.11890157541E+02  0.12700000000E+01 0. -1.
         25    2    1    2    0    0  0.00000000000E+00  0.00000000000E+00  0.31759524498E+03  0.34130998860E+03  0.12500307470E+03 0.  0.
    9000005    1    3    3    0    0 -0.52011197840E+02 -0.24635702585E+02  0.92287568581E+02  0.10876616136E+03  0.10000000000E+01 0.  0.
    9000005    1    3    3    0    0  0.52011197840E+02  0.24635702585E+02  0.22530767640E+03  0.23254382724E+03  0.10000000000E+01 0.  0.
<mgrwt>
<rscale>  0 0.12500307E+03</rscale>
<asrwt>0</asrwt>
<pdfrwt beam="2">  1        4 0.18242113E-02 0.12500307E+03</pdfrwt>
<pdfrwt beam="1">  1       -4 0.50685010E-01 0.12500307E+03</pdfrwt>
<totfact> 0.70686455E+03</totfact>
</mgrwt>
</event>
<event>
 5    1  0.3270363E-002  0.1250067E+03  0.7818608E-02  0.1235059E+00
         -4   -1    0    0    0  501 -0.00000000000E+00  0.00000000000E+00  0.72192891211E+02  0.72204061114E+02  0.12700000000E+01 0. -1.
          4   -1    0    0  501    0  0.00000000000E+00 -0.00000000000E+00 -0.54091517414E+02  0.54106424352E+02  0.12700000000E+01 0. -1.
         25    2    1    2    0    0  0.00000000000E+00  0.00000000000E+00  0.18101373797E+02  0.12631048547E+03  0.12500671584E+03 0.  0.
    9000005    1    3    3    0    0 -0.12360378748E+01  0.50431709984E+02  0.46324236232E+02  0.68496861417E+02  0.10000000000E+01 0.  0.
    9000005    1    3    3    0    0  0.12360378748E+01 -0.50431709984E+02 -0.28222862435E+02  0.57813624048E+02  0.10000000000E+01 0.  0.
<mgrwt>
<rscale>  0 0.12500672E+03</rscale>
<asrwt>0</asrwt>
<pdfrwt beam="2">  1        4 0.83237779E-02 0.12500672E+03</pdfrwt>
<pdfrwt beam="1">  1       -4 0.11108604E-01 0.12500672E+03</pdfrwt>
<totfact> 0.10422584E+04</totfact>
</mgrwt>
</event>
<event>
 5    1  0.3270363E-002  0.1250105E+03  0.7818608E-02  0.1235053E+00
         -4   -1    0    0    0  501 -0.00000000000E+00  0.00000000000E+00  0.29516189444E+04  0.29516192176E+04  0.12700000000E+01 0.  1.
          4   -1    0    0  501    0  0.00000000000E+00 -0.00000000000E+00 -0.10186821300E+01  0.16280704168E+01  0.12700000000E+01 0.  1.
         25    2    1    2    0    0  0.00000000000E+00  0.00000000000E+00  0.29506002622E+04  0.29532472880E+04  0.12501054598E+03 0.  0.
    9000005    1    3    3    0    0 -0.61694982403E+02  0.98868805762E+01  0.14428406531E+04  0.14441932597E+04  0.10000000000E+01 0.  0.
    9000005    1    3    3    0    0  0.61694982403E+02 -0.98868805762E+01  0.15077596091E+04  0.15090540283E+04  0.10000000000E+01 0.  0.
<mgrwt>
<rscale>  0 0.12501055E+03</rscale>
<asrwt>0</asrwt>
<pdfrwt beam="2">  1        4 0.20361910E-03 0.12501055E+03</pdfrwt>
<pdfrwt beam="1">  1       -4 0.45413825E+00 0.12501055E+03</pdfrwt>
<totfact> 0.20025159E+02</totfact>
</mgrwt>
</event>
<event>
 5    1  0.3270363E-002  0.1249963E+03  0.7818608E-02  0.1235075E+00
         -4   -1    0    0    0  501 -0.00000000000E+00  0.00000000000E+00  0.10063887152E+03  0.10064688451E+03  0.12700000000E+01 0.  1.
          4   -1    0    0  501    0  0.00000000000E+00 -0.00000000000E+00 -0.38792248944E+02  0.38813032324E+02  0.12700000000E+01 0.  1.
         25    2    1    2    0    0  0.00000000000E+00  0.00000000000E+00  0.61846622576E+02  0.13945991683E+03  0.12499625466E+03 0.  0.
    9000005    1    3    3    0    0 -0.59409080813E+02 -0.19376248100E+02  0.31337849360E+02  0.69913794604E+02  0.10000000000E+01 0.  0.
    9000005    1    3    3    0    0  0.59409080813E+02  0.19376248100E+02  0.30508773216E+02  0.69546122225E+02  0.10000000000E+01 0.  0.
<mgrwt>
<rscale>  0 0.12499625E+03</rscale>
<asrwt>0</asrwt>
<pdfrwt beam="2">  1        4 0.59702535E-02 0.12499625E+03</pdfrwt>
<pdfrwt beam="1">  1       -4 0.15485118E-01 0.12499625E+03</pdfrwt>
<totfact> 0.10145648E+04</totfact>
</mgrwt>
</event>
<event>
 5    1  0.3270363E-002  0.1249994E+03  0.7818608E-02  0.1235070E+00
         -4   -1    0    0    0  501 -0.00000000000E+00  0.00000000000E+00  0.83896319543E+01  0.84852120969E+01  0.12700000000E+01 0.  1.
          4   -1    0    0  501    0  0.00000000000E+00 -0.00000000000E+00 -0.46286670775E+03  0.46286845004E+03  0.12700000000E+01 0.  1.
         25    2    1    2    0    0  0.00000000000E+00  0.00000000000E+00 -0.45447707580E+03  0.47135366214E+03  0.12499944955E+03 0.  0.
    9000005    1    3    3    0    0  0.38645746423E+02 -0.48393672034E+02 -0.19574026069E+03  0.20530633421E+03  0.10000000000E+01 0.  0.
    9000005    1    3    3    0    0 -0.38645746423E+02  0.48393672034E+02 -0.25873681511E+03  0.26604732793E+03  0.10000000000E+01 0.  0.
<mgrwt>
<rscale>  0 0.12499945E+03</rscale>
<asrwt>0</asrwt>
<pdfrwt beam="2">  1        4 0.71217729E-01 0.12499945E+03</pdfrwt>
<pdfrwt beam="1">  1       -4 0.12981993E-02 0.12499945E+03</pdfrwt>
<totfact> 0.58158266E+03</totfact>
</mgrwt>
</event>
<event>
 5    1  0.3270363E-002  0.1250010E+03  0.7818608E-02  0.1235068E+00
         -4   -1    0    0    0  501 -0.00000000000E+00  0.00000000000E+00  0.17045758153E+02  0.17093003569E+02  0.12700000000E+01 0.  1.
          4   -1    0    0  501    0  0.00000000000E+00 -0.00000000000E+00 -0.22880014522E+03  0.22880366989E+03  0.12700000000E+01 0.  1.
         25    2    1    2    0    0  0.00000000000E+00  0.00000000000E+00 -0.21175438707E+03  0.24589667346E+03  0.12500101429E+03 0.  0.
    9000005    1    3    3    0    0  0.49829027461E+02 -0.44523837217E+01 -0.17954868874E+03  0.18639068465E+03  0.10000000000E+01 0.  0.
    9000005    1    3    3    0    0 -0.49829027461E+02  0.44523837217E+01 -0.32205698336E+02  0.59505988806E+02  0.10000000000E+01 0.  0.
<mgrwt>
<rscale>  0 0.12500101E+03</rscale>
<asrwt>0</asrwt>
<pdfrwt beam="2">  1        4 0.35203926E-01 0.12500101E+03</pdfrwt>
<pdfrwt beam="1">  1       -4 0.26263299E-02 0.12500101E+03</pdfrwt>
<totfact> 0.82925053E+03</totfact>
</mgrwt>
</event>
<event>
 5    1  0.3270363E-002  0.1249973E+03  0.7818608E-02  0.1235074E+00
          4   -1    0    0  501    0  0.00000000000E+00  0.00000000000E+00  0.88151764766E+02  0.88160912719E+02  0.12700000000E+01 0. -1.
         -4   -1    0    0    0  501 -0.00000000000E+00 -0.00000000000E+00 -0.44290304027E+02  0.44308508560E+02  0.12700000000E+01 0. -1.
         25    2    1    2    0    0  0.00000000000E+00  0.00000000000E+00  0.43861460739E+02  0.13246942128E+03  0.12499727931E+03 0.  0.
    9000005    1    3    3    0    0 -0.62292166660E+02 -0.32137184843E+01  0.25957601891E+02  0.67568033193E+02  0.10000000000E+01 0.  0.
    9000005    1    3    3    0    0  0.62292166660E+02  0.32137184843E+01  0.17903858848E+02  0.64901388085E+02  0.10000000000E+01 0.  0.
<mgrwt>
<rscale>  0 0.12499728E+03</rscale>
<asrwt>0</asrwt>
<pdfrwt beam="1">  1        4 0.13563914E-01 0.12499728E+03</pdfrwt>
<pdfrwt beam="2">  1       -4 0.68159970E-02 0.12499728E+03</pdfrwt>
<totfact> 0.10292321E+04</totfact>
</mgrwt>
</event>
<event>
 5    1  0.3270363E-002  0.1249954E+03  0.7818608E-02  0.1235076E+00
         -4   -1    0    0    0  501 -0.00000000000E+00  0.00000000000E+00  0.96454495400E+02  0.96462855975E+02  0.12700000000E+01 0.  1.
          4   -1    0    0  501    0  0.00000000000E+00 -0.00000000000E+00 -0.40475325099E+02  0.40495244682E+02  0.12700000000E+01 0.  1.
         25    2    1    2    0    0  0.00000000000E+00  0.00000000000E+00  0.55979170301E+02  0.13695810066E+03  0.12499541523E+03 0.  0.
    9000005    1    3    3    0    0  0.59750161880E+02  0.13028735868E+02  0.13909300445E+02  0.62723986176E+02  0.10000000000E+01 0.  0.
    9000005    1    3    3    0    0 -0.59750161880E+02 -0.13028735868E+02  0.42069869856E+02  0.74234114480E+02  0.10000000000E+01 0.  0.
<mgrwt>
<rscale>  0 0.12499542E+03</rscale>
<asrwt>0</asrwt>
<pdfrwt beam="2">  1        4 0.62291486E-02 0.12499542E+03</pdfrwt>
<pdfrwt beam="1">  1       -4 0.14841328E-01 0.12499542E+03</pdfrwt>
<totfact> 0.10198016E+04</totfact>
</mgrwt>
</event>
<event>
 5    1  0.3270363E-002  0.1249999E+03  0.7818608E-02  0.1235069E+00
         -4   -1    0    0    0  501 -0.00000000000E+00  0.00000000000E+00  0.13856963773E+02  0.13915040245E+02  0.12700000000E+01 0.  1.
          4   -1    0    0  501    0  0.00000000000E+00 -0.00000000000E+00 -0.28124863209E+03  0.28125149946E+03  0.12700000000E+01 0.  1.
         25    2    1    2    0    0  0.00000000000E+00  0.00000000000E+00 -0.26739166831E+03  0.29516653971E+03  0.12499992752E+03 0.  0.
    9000005    1    3    3    0    0  0.14390291742E+02 -0.51019731216E+02 -0.55552027539E+02  0.76792716018E+02  0.10000000000E+01 0.  0.
    9000005    1    3    3    0    0 -0.14390291742E+02  0.51019731216E+02 -0.21183964077E+03  0.21837382369E+03  0.10000000000E+01 0.  0.
<mgrwt>
<rscale>  0 0.12499993E+03</rscale>
<asrwt>0</asrwt>
<pdfrwt beam="2">  1        4 0.43273704E-01 0.12499993E+03</pdfrwt>
<pdfrwt beam="1">  1       -4 0.21365288E-02 0.12499993E+03</pdfrwt>
<totfact> 0.76209291E+03</totfact>
</mgrwt>
</event>
<event>
 4    1  0.3270363E-002  0.1251919E+03  0.7818608E-02  0.1234770E+00
         -4   -1    0    0    0  501 -0.00000000000E+00  0.00000000000E+00  0.25632023201E+03  0.25632337825E+03  0.12700000000E+01 0.  1.
          4   -1    0    0  501    0  0.00000000000E+00 -0.00000000000E+00 -0.15256919052E+02  0.15309685789E+02  0.12700000000E+01 0.  1.
    9000005    1    1    2    0    0  0.20677390659E+02  0.38136793451E+02  0.22646078470E+02  0.48947056798E+02  0.10000000000E+01 0.  0.
    9000005    1    1    2    0    0 -0.20677390659E+02 -0.38136793451E+02  0.21841723449E+03  0.22268600724E+03  0.10000000000E+01 0.  0.
<mgrwt>
<rscale>  0 0.12519186E+03</rscale>
<asrwt>0</asrwt>
<pdfrwt beam="2">  1        4 0.23515193E-02 0.12519186E+03</pdfrwt>
<pdfrwt beam="1">  1       -4 0.39438184E-01 0.12519186E+03</pdfrwt>
<totfact> 0.78963305E+03</totfact>
</mgrwt>
</event>
<event>
 5    1  0.3270363E-002  0.1250018E+03  0.7818608E-02  0.1235066E+00
         -4   -1    0    0    0  501 -0.00000000000E+00  0.00000000000E+00  0.13039065430E+02  0.13100768195E+02  0.12700000000E+01 0. -1.
          4   -1    0    0  501    0  0.00000000000E+00 -0.00000000000E+00 -0.29881882056E+03  0.29882151934E+03  0.12700000000E+01 0. -1.
         25    2    1    2    0    0  0.00000000000E+00  0.00000000000E+00 -0.28577975513E+03  0.31192228754E+03  0.12500178006E+03 0.  0.
    9000005    1    3    3    0    0  0.52494925018E+02 -0.23720848151E+02 -0.82434284699E+02  0.10057239722E+03  0.10000000000E+01 0.  0.
    9000005    1    3    3    0    0 -0.52494925018E+02  0.23720848151E+02 -0.20334547043E+03  0.21134989031E+03  0.10000000000E+01 0.  0.
<mgrwt>
<rscale>  0 0.12500178E+03</rscale>
<asrwt>0</asrwt>
<pdfrwt beam="2">  1        4 0.45977075E-01 0.12500178E+03</pdfrwt>
<pdfrwt beam="1">  1       -4 0.20109643E-02 0.12500178E+03</pdfrwt>
<totfact> 0.74124334E+03</totfact>
</mgrwt>
</event>
<event>
 5    1  0.3270363E-002  0.1249975E+03  0.7818608E-02  0.1235073E+00
         -4   -1    0    0    0  501 -0.00000000000E+00  0.00000000000E+00  0.61764420353E+01  0.63056590627E+01  0.12700000000E+01 0. -1.
          4   -1    0    0  501    0  0.00000000000E+00 -0.00000000000E+00 -0.62574153793E+03  0.62574282672E+03  0.12700000000E+01 0. -1.
         25    2    1    2    0    0  0.00000000000E+00  0.00000000000E+00 -0.61956509590E+03  0.63204848579E+03  0.12499752129E+03 0.  0.
    9000005    1    3    3    0    0 -0.56256379879E+02  0.42743724242E+01 -0.44565486764E+03  0.44921299134E+03  0.10000000000E+01 0.  0.
    9000005    1    3    3    0    0  0.56256379879E+02 -0.42743724242E+01 -0.17391022826E+03  0.18283549445E+03  0.10000000000E+01 0.  0.
<mgrwt>
<rscale>  0 0.12499752E+03</rscale>
<asrwt>0</asrwt>
<pdfrwt beam="2">  1        4 0.96277918E-01 0.12499752E+03</pdfrwt>
<pdfrwt beam="1">  1       -4 0.96026126E-03 0.12499752E+03</pdfrwt>
<totfact> 0.46907721E+03</totfact>
</mgrwt>
</event>
<event>
 5    1  0.3270363E-002  0.1249940E+03  0.7818608E-02  0.1235079E+00
         -4   -1    0    0    0  501 -0.00000000000E+00  0.00000000000E+00  0.13997262663E+03  0.13997838800E+03  0.12700000000E+01 0. -1.
          4   -1    0    0  501    0  0.00000000000E+00 -0.00000000000E+00 -0.27883789643E+02  0.27912696481E+02  0.12700000000E+01 0. -1.
         25    2    1    2    0    0  0.00000000000E+00  0.00000000000E+00  0.11208883699E+03  0.16789108448E+03  0.12499403534E+03 0.  0.
    9000005    1    3    3    0    0 -0.55221777873E+02  0.18651441892E+02  0.25783618451E+02  0.63742576168E+02  0.10000000000E+01 0.  0.
    9000005    1    3    3    0    0  0.55221777873E+02 -0.18651441892E+02  0.86305218539E+02  0.10414850831E+03  0.10000000000E+01 0.  0.
<mgrwt>
<rscale>  0 0.12499404E+03</rscale>
<asrwt>0</asrwt>
<pdfrwt beam="2">  1        4 0.42924805E-02 0.12499404E+03</pdfrwt>
<pdfrwt beam="1">  1       -4 0.21536917E-01 0.12499404E+03</pdfrwt>
<totfact> 0.95855490E+03</totfact>
</mgrwt>
</event>
<event>
 5    1  0.3270363E-002  0.1249996E+03  0.7818608E-02  0.1235070E+00
         -4   -1    0    0    0  501 -0.00000000000E+00  0.00000000000E+00  0.21873653193E+02  0.21910490730E+02  0.12700000000E+01 0.  1.
          4   -1    0    0  501    0  0.00000000000E+00 -0.00000000000E+00 -0.17839202620E+03  0.17839654681E+03  0.12700000000E+01 0.  1.
         25    2    1    2    0    0  0.00000000000E+00  0.00000000000E+00 -0.15651837301E+03  0.20030703754E+03  0.12499963279E+03 0.  0.
    9000005    1    3    3    0    0 -0.34295001852E+02  0.41739723774E+02 -0.27918559221E+02  0.60817741176E+02  0.10000000000E+01 0.  0.
    9000005    1    3    3    0    0  0.34295001852E+02 -0.41739723774E+02 -0.12859981379E+03  0.13948929636E+03  0.10000000000E+01 0.  0.
<mgrwt>
<rscale>  0 0.12499963E+03</rscale>
<asrwt>0</asrwt>
<pdfrwt beam="2">  1        4 0.27448107E-01 0.12499963E+03</pdfrwt>
<pdfrwt beam="1">  1       -4 0.33683589E-02 0.12499963E+03</pdfrwt>
<totfact> 0.90084488E+03</totfact>
</mgrwt>
</event>
<event>
 5    1  0.3270363E-002  0.1250004E+03  0.7818608E-02  0.1235069E+00
         -4   -1    0    0    0  501 -0.00000000000E+00  0.00000000000E+00  0.42995386262E+03  0.42995573829E+03  0.12700000000E+01 0.  1.
          4   -1    0    0  501    0  0.00000000000E+00 -0.00000000000E+00 -0.90390532933E+01  0.91278356930E+01  0.12700000000E+01 0.  1.
         25    2    1    2    0    0  0.00000000000E+00  0.00000000000E+00  0.42091480933E+03  0.43908357398E+03  0.12500043290E+03 0.  0.
    9000005    1    3    3    0    0  0.54813779351E+02  0.63272292314E+01  0.10740461246E+03  0.12075319878E+03  0.10000000000E+01 0.  0.
    9000005    1    3    3    0    0 -0.54813779351E+02 -0.63272292314E+01  0.31351019687E+03  0.31833037520E+03  0.10000000000E+01 0.  0.
<mgrwt>
<rscale>  0 0.12500043E+03</rscale>
<asrwt>0</asrwt>
<pdfrwt beam="2">  1        4 0.13975973E-02 0.12500043E+03</pdfrwt>
<pdfrwt beam="1">  1       -4 0.66153721E-01 0.12500043E+03</pdfrwt>
<totfact> 0.60920581E+03</totfact>
</mgrwt>
</event>
<event>
 5    1  0.3270363E-002  0.1250005E+03  0.7818608E-02  0.1235069E+00
         -4   -1    0    0    0  501 -0.00000000000E+00  0.00000000000E+00  0.37081685449E+02  0.37103427008E+02  0.12700000000E+01 0. -1.
          4   -1    0    0  501    0  0.00000000000E+00 -0.00000000000E+00 -0.10528615042E+03  0.10529380975E+03  0.12700000000E+01 0. -1.
         25    2    1    2    0    0  0.00000000000E+00  0.00000000000E+00 -0.68204464974E+02  0.14239723676E+03  0.12500049597E+03 0.  0.
    9000005    1    3    3    0    0 -0.41241103763E+02  0.35262833544E+02  0.12118651993E+01  0.54284110810E+02  0.10000000000E+01 0.  0.
    9000005    1    3    3    0    0  0.41241103763E+02 -0.35262833544E+02 -0.69416330174E+02  0.88113125946E+02  0.10000000000E+01 0.  0.
<mgrwt>
<rscale>  0 0.12500050E+03</rscale>
<asrwt>0</asrwt>
<pdfrwt beam="2">  1        4 0.16200131E-01 0.12500050E+03</pdfrwt>
<pdfrwt beam="1">  1       -4 0.57071363E-02 0.12500050E+03</pdfrwt>
<totfact> 0.10084029E+04</totfact>
</mgrwt>
</event>
<event>
 5    1  0.3270363E-002  0.1249965E+03  0.7818608E-02  0.1235075E+00
          4   -1    0    0  501    0  0.00000000000E+00  0.00000000000E+00  0.46281735619E+03  0.46281909866E+03  0.12700000000E+01 0. -1.
         -4   -1    0    0    0  501 -0.00000000000E+00 -0.00000000000E+00 -0.83901342070E+01  0.84857086923E+01  0.12700000000E+01 0. -1.
         25    2    1    2    0    0  0.00000000000E+00  0.00000000000E+00  0.45442722198E+03  0.47130480735E+03  0.12499648539E+03 0.  0.
    9000005    1    3    3    0    0  0.61780280237E+02 -0.83530038587E+01  0.21101578006E+03  0.22003462258E+03  0.10000000000E+01 0.  0.
    9000005    1    3    3    0    0 -0.61780280237E+02  0.83530038587E+01  0.24341144192E+03  0.25127018477E+03  0.10000000000E+01 0.  0.
<mgrwt>
<rscale>  0 0.12499649E+03</rscale>
<asrwt>0</asrwt>
<pdfrwt beam="1">  1        4 0.71210181E-01 0.12499649E+03</pdfrwt>
<pdfrwt beam="2">  1       -4 0.12982753E-02 0.12499649E+03</pdfrwt>
<totfact> 0.58166073E+03</totfact>
</mgrwt>
</event>
<event>
 5    1  0.3270363E-002  0.1250009E+03  0.7818608E-02  0.1235068E+00
          4   -1    0    0  501    0  0.00000000000E+00  0.00000000000E+00  0.15522703085E+04  0.15522708281E+04  0.12700000000E+01 0.  1.
         -4   -1    0    0    0  501 -0.00000000000E+00 -0.00000000000E+00 -0.23557278198E+01  0.26762573795E+01  0.12700000000E+01 0.  1.
         25    2    1    2    0    0  0.00000000000E+00  0.00000000000E+00  0.15499145807E+04  0.15549470855E+04  0.12500092406E+03 0.  0.
    9000005    1    3    3    0    0  0.59443977246E+02 -0.16959874337E+02  0.88902403203E+03  0.89117111337E+03  0.10000000000E+01 0.  0.
    9000005    1    3    3    0    0 -0.59443977246E+02  0.16959874337E+02  0.66089054869E+03  0.66377597208E+03  0.10000000000E+01 0.  0.
<mgrwt>
<rscale>  0 0.12500092E+03</rscale>
<asrwt>0</asrwt>
<pdfrwt beam="1">  1        4 0.23883494E+00 0.12500092E+03</pdfrwt>
<pdfrwt beam="2">  1       -4 0.38711668E-03 0.12500092E+03</pdfrwt>
<totfact> 0.16874981E+03</totfact>
</mgrwt>
</event>
<event>
 5    1  0.3270363E-002  0.1249982E+03  0.7818608E-02  0.1235072E+00
          4   -1    0    0  501    0  0.00000000000E+00  0.00000000000E+00  0.27861060128E+03  0.27861349581E+03  0.12700000000E+01 0. -1.
         -4   -1    0    0    0  501 -0.00000000000E+00 -0.00000000000E+00 -0.13988330225E+02  0.14045863537E+02  0.12700000000E+01 0. -1.
         25    2    1    2    0    0  0.00000000000E+00  0.00000000000E+00  0.26462227106E+03  0.29265935935E+03  0.12499821708E+03 0.  0.
    9000005    1    3    3    0    0  0.61621373069E+02 -0.10374150334E+02  0.13098265354E+03  0.14512846772E+03  0.10000000000E+01 0.  0.
    9000005    1    3    3    0    0 -0.61621373069E+02  0.10374150334E+02  0.13363961752E+03  0.14753089163E+03  0.10000000000E+01 0.  0.
<mgrwt>
<rscale>  0 0.12499822E+03</rscale>
<asrwt>0</asrwt>
<pdfrwt beam="1">  1        4 0.42867816E-01 0.12499822E+03</pdfrwt>
<pdfrwt beam="2">  1       -4 0.21566992E-02 0.12499822E+03</pdfrwt>
<totfact> 0.76531989E+03</totfact>
</mgrwt>
</event>
<event>
 5    1  0.3270363E-002  0.1249927E+03  0.7818608E-02  0.1235081E+00
         -4   -1    0    0    0  501 -0.00000000000E+00  0.00000000000E+00  0.86263517690E+02  0.86272865863E+02  0.12700000000E+01 0.  1.
          4   -1    0    0  501    0  0.00000000000E+00 -0.00000000000E+00 -0.45256775611E+02  0.45274591536E+02  0.12700000000E+01 0.  1.
         25    2    1    2    0    0  0.00000000000E+00  0.00000000000E+00  0.41006742078E+02  0.13154745740E+03  0.12499272240E+03 0.  0.
    9000005    1    3    3    0    0 -0.48379462918E+02  0.18872479618E+01 -0.21073521163E+02  0.52813136920E+02  0.10000000000E+01 0.  0.
    9000005    1    3    3    0    0  0.48379462918E+02 -0.18872479618E+01  0.62080263241E+02  0.78734320479E+02  0.10000000000E+01 0.  0.
<mgrwt>
<rscale>  0 0.12499272E+03</rscale>
<asrwt>0</asrwt>
<pdfrwt beam="2">  1        4 0.69646705E-02 0.12499272E+03</pdfrwt>
<pdfrwt beam="1">  1       -4 0.13273400E-01 0.12499272E+03</pdfrwt>
<totfact> 0.10313060E+04</totfact>
</mgrwt>
</event>
<event>
 5    1  0.3270363E-002  0.1250003E+03  0.7818608E-02  0.1235069E+00
          4   -1    0    0  501    0  0.00000000000E+00  0.00000000000E+00  0.24194450772E+03  0.24194784090E+03  0.12700000000E+01 0. -1.
         -4   -1    0    0    0  501 -0.00000000000E+00 -0.00000000000E+00 -0.16116883722E+02  0.16166843876E+02  0.12700000000E+01 0. -1.
         25    2    1    2    0    0  0.00000000000E+00  0.00000000000E+00  0.22582762400E+03  0.25811468478E+03  0.12500029894E+03 0.  0.
    9000005    1    3    3    0    0 -0.81872919661E+01 -0.61526490925E+02  0.12790795636E+03  0.14217589858E+03  0.10000000000E+01 0.  0.
    9000005    1    3    3    0    0  0.81872919661E+01  0.61526490925E+02  0.97919667637E+02  0.11593878620E+03  0.10000000000E+01 0.  0.
<mgrwt>
<rscale>  0 0.12500030E+03</rscale>
<asrwt>0</asrwt>
<pdfrwt beam="1">  1        4 0.37226328E-01 0.12500030E+03</pdfrwt>
<pdfrwt beam="2">  1       -4 0.24836203E-02 0.12500030E+03</pdfrwt>
<totfact> 0.81170829E+03</totfact>
</mgrwt>
</event>
<event>
 5    1  0.3270363E-002  0.1250014E+03  0.7818608E-02  0.1235067E+00
          4   -1    0    0  501    0  0.00000000000E+00  0.00000000000E+00  0.25981895832E+02  0.26012916235E+02  0.12700000000E+01 0.  1.
         -4   -1    0    0    0  501 -0.00000000000E+00 -0.00000000000E+00 -0.15022507875E+03  0.15023044693E+03  0.12700000000E+01 0.  1.
         25    2    1    2    0    0  0.00000000000E+00  0.00000000000E+00 -0.12424318292E+03  0.17624336317E+03  0.12500141823E+03 0.  0.
    9000005    1    3    3    0    0 -0.55150344203E+02  0.25576079508E+02 -0.41707158504E+02  0.73730477954E+02  0.10000000000E+01 0.  0.
    9000005    1    3    3    0    0  0.55150344203E+02 -0.25576079508E+02 -0.82536024412E+02  0.10251288521E+03  0.10000000000E+01 0.  0.
<mgrwt>
<rscale>  0 0.12500142E+03</rscale>
<asrwt>0</asrwt>
<pdfrwt beam="1">  1        4 0.40000140E-02 0.12500142E+03</pdfrwt>
<pdfrwt beam="2">  1       -4 0.23114349E-01 0.12500142E+03</pdfrwt>
<totfact> 0.94294614E+03</totfact>
</mgrwt>
</event>
<event>
 5    1  0.3270363E-002  0.1249998E+03  0.7818608E-02  0.1235070E+00
          4   -1    0    0  501    0  0.00000000000E+00  0.00000000000E+00  0.17312828680E+02  0.17359347248E+02  0.12700000000E+01 0. -1.
         -4   -1    0    0    0  501 -0.00000000000E+00 -0.00000000000E+00 -0.22527568210E+03  0.22527926191E+03  0.12700000000E+01 0. -1.
         25    2    1    2    0    0  0.00000000000E+00  0.00000000000E+00 -0.20796285342E+03  0.24263860916E+03  0.12499978500E+03 0.  0.
    9000005    1    3    3    0    0  0.60494789248E+02  0.12836066049E+02 -0.86527336343E+02  0.10635959784E+03  0.10000000000E+01 0.  0.
    9000005    1    3    3    0    0 -0.60494789248E+02 -0.12836066049E+02 -0.12143551708E+03  0.13627901132E+03  0.10000000000E+01 0.  0.
<mgrwt>
<rscale>  0 0.12499979E+03</rscale>
<asrwt>0</asrwt>
<pdfrwt beam="1">  1        4 0.26673660E-02 0.12499979E+03</pdfrwt>
<pdfrwt beam="2">  1       -4 0.34661649E-01 0.12499979E+03</pdfrwt>
<totfact> 0.83406357E+03</totfact>
</mgrwt>
</event>
<event>
 5    1  0.3270363E-002  0.1250017E+03  0.7818608E-02  0.1235067E+00
          4   -1    0    0  501    0  0.00000000000E+00  0.00000000000E+00  0.14865303718E+04  0.14865309143E+04  0.12700000000E+01 0.  1.
         -4   -1    0    0    0  501 -0.00000000000E+00 -0.00000000000E+00 -0.24738179137E+01  0.27807687912E+01  0.12700000000E+01 0.  1.
         25    2    1    2    0    0  0.00000000000E+00  0.00000000000E+00  0.14840565539E+04  0.14893116831E+04  0.12500173708E+03 0.  0.
    9000005    1    3    3    0    0  0.46583913757E+02  0.40378166867E+02  0.86405634944E+03  0.86625333037E+03  0.10000000000E+01 0.  0.
    9000005    1    3    3    0    0 -0.46583913757E+02 -0.40378166867E+02  0.62000020446E+03  0.62305835274E+03  0.10000000000E+01 0.  0.
<mgrwt>
<rscale>  0 0.12500174E+03</rscale>
<asrwt>0</asrwt>
<pdfrwt beam="1">  1        4 0.22872097E+00 0.12500174E+03</pdfrwt>
<pdfrwt beam="2">  1       -4 0.40424011E-03 0.12500174E+03</pdfrwt>
<totfact> 0.18140831E+03</totfact>
</mgrwt>
</event>
<event>
 5    1  0.3270363E-002  0.1249982E+03  0.7818608E-02  0.1235072E+00
         -4   -1    0    0    0  501 -0.00000000000E+00  0.00000000000E+00  0.19673167385E+02  0.19714117149E+02  0.12700000000E+01 0. -1.
          4   -1    0    0  501    0  0.00000000000E+00 -0.00000000000E+00 -0.19830196435E+03  0.19830603109E+03  0.12700000000E+01 0. -1.
         25    2    1    2    0    0  0.00000000000E+00  0.00000000000E+00 -0.17862879696E+03  0.21802014823E+03  0.12499815171E+03 0.  0.
    9000005    1    3    3    0    0 -0.63059532301E+00  0.55553668429E+02 -0.13921542498E+03  0.14989510425E+03  0.10000000000E+01 0.  0.
    9000005    1    3    3    0    0  0.63059532301E+00 -0.55553668429E+02 -0.39413371982E+02  0.68125043981E+02  0.10000000000E+01 0.  0.
<mgrwt>
<rscale>  0 0.12499815E+03</rscale>
<asrwt>0</asrwt>
<pdfrwt beam="2">  1        4 0.30511456E-01 0.12499815E+03</pdfrwt>
<pdfrwt beam="1">  1       -4 0.30301041E-02 0.12499815E+03</pdfrwt>
<totfact> 0.87186208E+03</totfact>
</mgrwt>
</event>
<event>
 5    1  0.3270363E-002  0.1249982E+03  0.7818608E-02  0.1235072E+00
          4   -1    0    0  501    0  0.00000000000E+00  0.00000000000E+00  0.62446701203E+02  0.62459614081E+02  0.12700000000E+01 0. -1.
         -4   -1    0    0    0  501 -0.00000000000E+00 -0.00000000000E+00 -0.62525741047E+02  0.62538637604E+02  0.12700000000E+01 0. -1.
         25    2    1    2    0    0  0.00000000000E+00  0.00000000000E+00 -0.79039843759E-01  0.12499825169E+03  0.12499822670E+03 0.  0.
    9000005    1    3    3    0    0  0.47537081360E+02  0.40562828367E+02 -0.18791106685E+00  0.62499219674E+02  0.10000000000E+01 0.  0.
    9000005    1    3    3    0    0 -0.47537081360E+02 -0.40562828367E+02  0.10887122309E+00  0.62499032011E+02  0.10000000000E+01 0.  0.
<mgrwt>
<rscale>  0 0.12499823E+03</rscale>
<asrwt>0</asrwt>
<pdfrwt beam="1">  1        4 0.96091701E-02 0.12499823E+03</pdfrwt>
<pdfrwt beam="2">  1       -4 0.96213301E-02 0.12499823E+03</pdfrwt>
<totfact> 0.10453319E+04</totfact>
</mgrwt>
</event>
<event>
 5    1  0.3270363E-002  0.1250021E+03  0.7818608E-02  0.1235066E+00
          4   -1    0    0  501    0  0.00000000000E+00  0.00000000000E+00  0.18648001082E+03  0.18648433537E+03  0.12700000000E+01 0. -1.
         -4   -1    0    0    0  501 -0.00000000000E+00 -0.00000000000E+00 -0.20924183278E+02  0.20962689375E+02  0.12700000000E+01 0. -1.
         25    2    1    2    0    0  0.00000000000E+00  0.00000000000E+00  0.16555582755E+03  0.20744702474E+03  0.12500214414E+03 0.  0.
    9000005    1    3    3    0    0 -0.22130279491E+02 -0.57637707281E+02  0.66728324879E+02  0.90914926784E+02  0.10000000000E+01 0.  0.
    9000005    1    3    3    0    0  0.22130279491E+02  0.57637707281E+02  0.98827502666E+02  0.11653209796E+03  0.10000000000E+01 0.  0.
<mgrwt>
<rscale>  0 0.12500214E+03</rscale>
<asrwt>0</asrwt>
<pdfrwt beam="1">  1        4 0.28692527E-01 0.12500214E+03</pdfrwt>
<pdfrwt beam="2">  1       -4 0.32223997E-02 0.12500214E+03</pdfrwt>
<totfact> 0.88890257E+03</totfact>
</mgrwt>
</event>
<event>
 5    1  0.3270363E-002  0.1249991E+03  0.7818608E-02  0.1235071E+00
          4   -1    0    0  501    0  0.00000000000E+00  0.00000000000E+00  0.18577588396E+03  0.18578022489E+03  0.12700000000E+01 0. -1.
         -4   -1    0    0    0  501 -0.00000000000E+00 -0.00000000000E+00 -0.21002615106E+02  0.21040977670E+02  0.12700000000E+01 0. -1.
         25    2    1    2    0    0  0.00000000000E+00  0.00000000000E+00  0.16477326885E+03  0.20682120256E+03  0.12499911880E+03 0.  0.
    9000005    1    3    3    0    0  0.42366567227E+02 -0.15102137406E+02  0.15416942549E+03  0.16059954025E+03  0.10000000000E+01 0.  0.
    9000005    1    3    3    0    0 -0.42366567227E+02  0.15102137406E+02  0.10603843366E+02  0.46221662313E+02  0.10000000000E+01 0.  0.
<mgrwt>
<rscale>  0 0.12499912E+03</rscale>
<asrwt>0</asrwt>
<pdfrwt beam="1">  1        4 0.28584189E-01 0.12499912E+03</pdfrwt>
<pdfrwt beam="2">  1       -4 0.32344565E-02 0.12499912E+03</pdfrwt>
<totfact> 0.88999420E+03</totfact>
</mgrwt>
</event>
<event>
 5    1  0.3270363E-002  0.1249970E+03  0.7818608E-02  0.1235074E+00
          4   -1    0    0  501    0  0.00000000000E+00  0.00000000000E+00  0.40476884154E+02  0.40496802971E+02  0.12700000000E+01 0. -1.
         -4   -1    0    0    0  501 -0.00000000000E+00 -0.00000000000E+00 -0.96453297106E+02  0.96461657785E+02  0.12700000000E+01 0. -1.
         25    2    1    2    0    0  0.00000000000E+00  0.00000000000E+00 -0.55976412951E+02  0.13695846076E+03  0.12499704463E+03 0.  0.
    9000005    1    3    3    0    0  0.49832242927E+02 -0.92702733063E+01 -0.68035393385E+02  0.84846951361E+02  0.10000000000E+01 0.  0.
    9000005    1    3    3    0    0 -0.49832242927E+02  0.92702733063E+01  0.12058980433E+02  0.52111509394E+02  0.10000000000E+01 0.  0.
<mgrwt>
<rscale>  0 0.12499704E+03</rscale>
<asrwt>0</asrwt>
<pdfrwt beam="1">  1        4 0.62293883E-02 0.12499704E+03</pdfrwt>
<pdfrwt beam="2">  1       -4 0.14841144E-01 0.12499704E+03</pdfrwt>
<totfact> 0.10197634E+04</totfact>
</mgrwt>
</event>
<event>
 4    1  0.3270363E-002  0.1250786E+03  0.7818608E-02  0.1234946E+00
          4   -1    0    0  501    0  0.00000000000E+00  0.00000000000E+00  0.76749229548E+02  0.76759736426E+02  0.12700000000E+01 0.  1.
         -4   -1    0    0    0  501 -0.00000000000E+00 -0.00000000000E+00 -0.50938399305E+02  0.50954228713E+02  0.12700000000E+01 0.  1.
    9000005    1    1    2    0    0  0.40782107946E+02 -0.33457289918E+02 -0.21381760571E+02  0.56927587884E+02  0.10000000000E+01 0.  0.
    9000005    1    1    2    0    0 -0.40782107946E+02  0.33457289918E+02  0.47192590813E+02  0.70786377255E+02  0.10000000000E+01 0.  0.
<mgrwt>
<rscale>  0 0.12507861E+03</rscale>
<asrwt>0</asrwt>
<pdfrwt beam="1">  1        4 0.11809600E-01 0.12507861E+03</pdfrwt>
<pdfrwt beam="2">  1       -4 0.78387027E-02 0.12507861E+03</pdfrwt>
<totfact> 0.10375247E+04</totfact>
</mgrwt>
</event>
<event>
 5    1  0.3270363E-002  0.1250031E+03  0.7818608E-02  0.1235064E+00
         -4   -1    0    0    0  501 -0.00000000000E+00  0.00000000000E+00  0.33985525999E+02  0.34009246940E+02  0.12700000000E+01 0.  1.
          4   -1    0    0  501    0  0.00000000000E+00 -0.00000000000E+00 -0.11487700706E+03  0.11488402697E+03  0.12700000000E+01 0.  1.
         25    2    1    2    0    0  0.00000000000E+00  0.00000000000E+00 -0.80891481065E+02  0.14889327391E+03  0.12500310119E+03 0.  0.
    9000005    1    3    3    0    0 -0.40321055844E+02  0.46852781782E+02 -0.29498275594E+02  0.68499043556E+02  0.10000000000E+01 0.  0.
    9000005    1    3    3    0    0  0.40321055844E+02 -0.46852781782E+02 -0.51393205472E+02  0.80394230351E+02  0.10000000000E+01 0.  0.
<mgrwt>
<rscale>  0 0.12500310E+03</rscale>
<asrwt>0</asrwt>
<pdfrwt beam="2">  1        4 0.17675750E-01 0.12500310E+03</pdfrwt>
<pdfrwt beam="1">  1       -4 0.52309072E-02 0.12500310E+03</pdfrwt>
<totfact> 0.99517819E+03</totfact>
</mgrwt>
</event>
<event>
 5    1  0.3270363E-002  0.1249811E+03  0.7818608E-02  0.1235099E+00
          4   -1    0    0  501    0  0.00000000000E+00  0.00000000000E+00  0.27153511089E+01  0.29976710367E+01  0.12700000000E+01 0. -1.
         -4   -1    0    0    0  501 -0.00000000000E+00 -0.00000000000E+00 -0.13667947526E+04  0.13667953426E+04  0.12700000000E+01 0. -1.
         25    2    1    2    0    0  0.00000000000E+00  0.00000000000E+00 -0.13640794015E+04  0.13697930136E+04  0.12498114545E+03 0.  0.
    9000005    1    3    3    0    0  0.61146294270E+02  0.12402870286E+02 -0.71899811332E+03  0.72170076032E+03  0.10000000000E+01 0.  0.
    9000005    1    3    3    0    0 -0.61146294270E+02 -0.12402870286E+02 -0.64508128813E+03  0.64809225331E+03  0.10000000000E+01 0.  0.
<mgrwt>
<rscale>  0 0.12498115E+03</rscale>
<asrwt>0</asrwt>
<pdfrwt beam="1">  1        4 0.43950972E-03 0.12498115E+03</pdfrwt>
<pdfrwt beam="2">  1       -4 0.21029736E+00 0.12498115E+03</pdfrwt>
<totfact> 0.20647119E+03</totfact>
</mgrwt>
</event>
<event>
 5    1  0.3270363E-002  0.1250046E+03  0.7818608E-02  0.1235062E+00
         -4   -1    0    0    0  501 -0.00000000000E+00  0.00000000000E+00  0.25010193801E+02  0.25042417894E+02  0.12700000000E+01 0.  1.
          4   -1    0    0  501    0  0.00000000000E+00 -0.00000000000E+00 -0.15606255488E+03  0.15606772227E+03  0.12700000000E+01 0.  1.
         25    2    1    2    0    0  0.00000000000E+00  0.00000000000E+00 -0.13105236108E+03  0.18111014017E+03  0.12500464602E+03 0.  0.
    9000005    1    3    3    0    0 -0.58734646602E+02  0.16249433759E+02 -0.45464365378E+02  0.76038222811E+02  0.10000000000E+01 0.  0.
    9000005    1    3    3    0    0  0.58734646602E+02 -0.16249433759E+02 -0.85587995699E+02  0.10507191736E+03  0.10000000000E+01 0.  0.
<mgrwt>
<rscale>  0 0.12500465E+03</rscale>
<asrwt>0</asrwt>
<pdfrwt beam="2">  1        4 0.24012499E-01 0.12500465E+03</pdfrwt>
<pdfrwt beam="1">  1       -4 0.38505985E-02 0.12500465E+03</pdfrwt>
<totfact> 0.93407826E+03</totfact>
</mgrwt>
</event>
<event>
 5    1  0.3270363E-002  0.1250269E+03  0.7818608E-02  0.1235027E+00
         -4   -1    0    0    0  501 -0.00000000000E+00  0.00000000000E+00  0.43003438210E+02  0.43022187274E+02  0.12700000000E+01 0.  1.
          4   -1    0    0  501    0  0.00000000000E+00 -0.00000000000E+00 -0.90831817858E+02  0.90840695921E+02  0.12700000000E+01 0.  1.
         25    2    1    2    0    0  0.00000000000E+00  0.00000000000E+00 -0.47828379648E+02  0.13386288320E+03  0.12502686750E+03 0.  0.
    9000005    1    3    3    0    0 -0.46512862623E+01 -0.14801200226E+02  0.40914321751E+02  0.43768615655E+02  0.10000000000E+01 0.  0.
    9000005    1    3    3    0    0  0.46512862623E+01  0.14801200226E+02 -0.88742701399E+02  0.90094267540E+02  0.10000000000E+01 0.  0.
<mgrwt>
<rscale>  0 0.12502687E+03</rscale>
<asrwt>0</asrwt>
<pdfrwt beam="2">  1        4 0.13976251E-01 0.12502687E+03</pdfrwt>
<pdfrwt beam="1">  1       -4 0.66180388E-02 0.12502687E+03</pdfrwt>
<totfact> 0.10255878E+04</totfact>
</mgrwt>
</event>
<event>
 5    1  0.3270363E-002  0.1249926E+03  0.7818608E-02  0.1235081E+00
         -4   -1    0    0    0  501 -0.00000000000E+00  0.00000000000E+00  0.30360816073E+02  0.30387366662E+02  0.12700000000E+01 0. -1.
          4   -1    0    0  501    0  0.00000000000E+00 -0.00000000000E+00 -0.12855973297E+03  0.12856600578E+03  0.12700000000E+01 0. -1.
         25    2    1    2    0    0  0.00000000000E+00  0.00000000000E+00 -0.98198916896E+02  0.15895337244E+03  0.12499258910E+03 0.  0.
    9000005    1    3    3    0    0  0.40780151750E+02  0.26293431361E+02  0.97432153143E+00  0.48541885129E+02  0.10000000000E+01 0.  0.
    9000005    1    3    3    0    0 -0.40780151750E+02 -0.26293431361E+02 -0.99173238427E+02  0.11041148731E+03  0.10000000000E+01 0.  0.
<mgrwt>
<rscale>  0 0.12499259E+03</rscale>
<asrwt>0</asrwt>
<pdfrwt beam="2">  1        4 0.19780945E-01 0.12499259E+03</pdfrwt>
<pdfrwt beam="1">  1       -4 0.46734197E-02 0.12499259E+03</pdfrwt>
<totfact> 0.97561199E+03</totfact>
</mgrwt>
</event>
<event>
 5    1  0.3270363E-002  0.1249928E+03  0.7818608E-02  0.1235081E+00
          4   -1    0    0  501    0  0.00000000000E+00  0.00000000000E+00  0.19401315724E+03  0.19401731387E+03  0.12700000000E+01 0. -1.
         -4   -1    0    0    0  501 -0.00000000000E+00 -0.00000000000E+00 -0.20107207519E+02  0.20147275107E+02  0.12700000000E+01 0. -1.
         25    2    1    2    0    0  0.00000000000E+00  0.00000000000E+00  0.17390594972E+03  0.21416458898E+03  0.12499276709E+03 0.  0.
    9000005    1    3    3    0    0 -0.31765971335E+02 -0.51610265199E+02  0.11305665861E+03  0.12827901023E+03  0.10000000000E+01 0.  0.
    9000005    1    3    3    0    0  0.31765971335E+02  0.51610265199E+02  0.60849291111E+02  0.85885578751E+02  0.10000000000E+01 0.  0.
<mgrwt>
<rscale>  0 0.12499277E+03</rscale>
<asrwt>0</asrwt>
<pdfrwt beam="1">  1        4 0.29851580E-01 0.12499277E+03</pdfrwt>
<pdfrwt beam="2">  1       -4 0.30968184E-02 0.12499277E+03</pdfrwt>
<totfact> 0.87814427E+03</totfact>
</mgrwt>
</event>
<event>
 5    1  0.3270363E-002  0.1249951E+03  0.7818608E-02  0.1235077E+00
          4   -1    0    0  501    0  0.00000000000E+00  0.00000000000E+00  0.18702962719E+02  0.18746031966E+02  0.12700000000E+01 0.  1.
         -4   -1    0    0    0  501 -0.00000000000E+00 -0.00000000000E+00 -0.20855576876E+03  0.20855963556E+03  0.12700000000E+01 0.  1.
         25    2    1    2    0    0  0.00000000000E+00  0.00000000000E+00 -0.18985280604E+03  0.22730566752E+03  0.12499511401E+03 0.  0.
    9000005    1    3    3    0    0 -0.94848848490E+01 -0.12602495321E+02 -0.20488514102E+03  0.20549381241E+03  0.10000000000E+01 0.  0.
    9000005    1    3    3    0    0  0.94848848490E+01  0.12602495321E+02  0.15032334972E+02  0.21811855117E+02  0.10000000000E+01 0.  0.
<mgrwt>
<rscale>  0 0.12499511E+03</rscale>
<asrwt>0</asrwt>
<pdfrwt beam="1">  1        4 0.28809895E-02 0.12499511E+03</pdfrwt>
<pdfrwt beam="2">  1       -4 0.32089112E-01 0.12499511E+03</pdfrwt>
<totfact> 0.85734387E+03</totfact>
</mgrwt>
</event>
<event>
 5    1  0.3270363E-002  0.1250024E+03  0.7818608E-02  0.1235066E+00
          4   -1    0    0  501    0  0.00000000000E+00  0.00000000000E+00  0.21158959591E+03  0.21159340726E+03  0.12700000000E+01 0. -1.
         -4   -1    0    0    0  501 -0.00000000000E+00 -0.00000000000E+00 -0.18436329892E+02  0.18480020560E+02  0.12700000000E+01 0. -1.
         25    2    1    2    0    0  0.00000000000E+00  0.00000000000E+00  0.19315326602E+03  0.23007342782E+03  0.12500239205E+03 0.  0.
    9000005    1    3    3    0    0 -0.25075565063E+02  0.16489005932E+02  0.19746724061E+03  0.19973728343E+03  0.10000000000E+01 0.  0.
    9000005    1    3    3    0    0  0.25075565063E+02 -0.16489005932E+02 -0.43139745877E+01  0.30336144393E+02  0.10000000000E+01 0.  0.
<mgrwt>
<rscale>  0 0.12500239E+03</rscale>
<asrwt>0</asrwt>
<pdfrwt beam="1">  1        4 0.32555900E-01 0.12500239E+03</pdfrwt>
<pdfrwt beam="2">  1       -4 0.28400124E-02 0.12500239E+03</pdfrwt>
<totfact> 0.85293770E+03</totfact>
</mgrwt>
</event>
<event>
 5    1  0.3270363E-002  0.1250004E+03  0.7818608E-02  0.1235069E+00
          4   -1    0    0  501    0  0.00000000000E+00  0.00000000000E+00  0.44476936664E+03  0.44477117982E+03  0.12700000000E+01 0. -1.
         -4   -1    0    0    0  501 -0.00000000000E+00 -0.00000000000E+00 -0.87349484424E+01  0.88267901465E+01  0.12700000000E+01 0. -1.
         25    2    1    2    0    0  0.00000000000E+00  0.00000000000E+00  0.43603441819E+03  0.45359796997E+03  0.12500041803E+03 0.  0.
    9000005    1    3    3    0    0  0.57636981274E+02 -0.33118687303E+01  0.13120791720E+03  0.14335099449E+03  0.10000000000E+01 0.  0.
    9000005    1    3    3    0    0 -0.57636981274E+02  0.33118687303E+01  0.30482650100E+03  0.31024697548E+03  0.10000000000E+01 0.  0.
<mgrwt>
<rscale>  0 0.12500042E+03</rscale>
<asrwt>0</asrwt>
<pdfrwt beam="1">  1        4 0.68433242E-01 0.12500042E+03</pdfrwt>
<pdfrwt beam="2">  1       -4 0.13510428E-02 0.12500042E+03</pdfrwt>
<totfact> 0.59652824E+03</totfact>
</mgrwt>
</event>
<event>
 5    1  0.3270363E-002  0.1250028E+03  0.7818608E-02  0.1235065E+00
          4   -1    0    0  501    0  0.00000000000E+00  0.00000000000E+00  0.45797784944E+02  0.45815390491E+02  0.12700000000E+01 0.  1.
         -4   -1    0    0    0  501 -0.00000000000E+00 -0.00000000000E+00 -0.85258535282E+02  0.85267993634E+02  0.12700000000E+01 0.  1.
         25    2    1    2    0    0  0.00000000000E+00  0.00000000000E+00 -0.39460750338E+02  0.13108338412E+03  0.12500281107E+03 0.  0.
    9000005    1    3    3    0    0 -0.62432927648E+02 -0.25696956929E+01 -0.18707260491E+02  0.65233698238E+02  0.10000000000E+01 0.  0.
    9000005    1    3    3    0    0  0.62432927648E+02  0.25696956929E+01 -0.20753489847E+02  0.65849685887E+02  0.10000000000E+01 0.  0.
<mgrwt>
<rscale>  0 0.12500281E+03</rscale>
<asrwt>0</asrwt>
<pdfrwt beam="1">  1        4 0.70478949E-02 0.12500281E+03</pdfrwt>
<pdfrwt beam="2">  1       -4 0.13118780E-01 0.12500281E+03</pdfrwt>
<totfact> 0.10320647E+04</totfact>
</mgrwt>
</event>
<event>
 5    1  0.3270363E-002  0.1249954E+03  0.7818608E-02  0.1235077E+00
         -4   -1    0    0    0  501 -0.00000000000E+00  0.00000000000E+00  0.48632015375E+01  0.50262937831E+01  0.12700000000E+01 0. -1.
          4   -1    0    0  501    0  0.00000000000E+00 -0.00000000000E+00 -0.78975746649E+03  0.78975848762E+03  0.12700000000E+01 0. -1.
         25    2    1    2    0    0  0.00000000000E+00  0.00000000000E+00 -0.78489426495E+03  0.79478478141E+03  0.12499536633E+03 0.  0.
    9000005    1    3    3    0    0 -0.59129546842E+02  0.14401497615E+02 -0.48265155771E+03  0.48647428771E+03  0.10000000000E+01 0.  0.
    9000005    1    3    3    0    0  0.59129546842E+02 -0.14401497615E+02 -0.30224270724E+03  0.30831049370E+03  0.10000000000E+01 0.  0.
<mgrwt>
<rscale>  0 0.12499537E+03</rscale>
<asrwt>0</asrwt>
<pdfrwt beam="2">  1        4 0.12151367E+00 0.12499537E+03</pdfrwt>
<pdfrwt beam="1">  1       -4 0.76080958E-03 0.12499537E+03</pdfrwt>
<totfact> 0.38502536E+03</totfact>
</mgrwt>
</event>
<event>
 5    1  0.3270363E-002  0.1250030E+03  0.7818608E-02  0.1235065E+00
         -4   -1    0    0    0  501 -0.00000000000E+00  0.00000000000E+00  0.52076025958E+02  0.52091509668E+02  0.12700000000E+01 0.  1.
          4   -1    0    0  501    0  0.00000000000E+00 -0.00000000000E+00 -0.74982119485E+02  0.74992873945E+02  0.12700000000E+01 0.  1.
         25    2    1    2    0    0  0.00000000000E+00  0.00000000000E+00 -0.22906093528E+02  0.12708438361E+03  0.12500300571E+03 0.  0.
    9000005    1    3    3    0    0  0.62316497457E+02  0.24643889085E+01 -0.73840569396E+01  0.62808784138E+02  0.10000000000E+01 0.  0.
    9000005    1    3    3    0    0 -0.62316497457E+02 -0.24643889085E+01 -0.15522036588E+02  0.64275599475E+02  0.10000000000E+01 0.  0.
<mgrwt>
<rscale>  0 0.12500301E+03</rscale>
<asrwt>0</asrwt>
<pdfrwt beam="2">  1        4 0.11537729E-01 0.12500301E+03</pdfrwt>
<pdfrwt beam="1">  1       -4 0.80137146E-02 0.12500301E+03</pdfrwt>
<totfact> 0.10406607E+04</totfact>
</mgrwt>
</event>
<event>
 5    1  0.3270363E-002  0.1249991E+03  0.7818608E-02  0.1235071E+00
         -4   -1    0    0    0  501 -0.00000000000E+00  0.00000000000E+00  0.81171889115E+01  0.82159391323E+01  0.12700000000E+01 0. -1.
          4   -1    0    0  501    0  0.00000000000E+00 -0.00000000000E+00 -0.47821554689E+03  0.47821723326E+03  0.12700000000E+01 0. -1.
         25    2    1    2    0    0  0.00000000000E+00  0.00000000000E+00 -0.47009835798E+03  0.48643317239E+03  0.12499906012E+03 0.  0.
    9000005    1    3    3    0    0 -0.41374256430E+02 -0.83706032554E+01 -0.41436624397E+03  0.41651204092E+03  0.10000000000E+01 0.  0.
    9000005    1    3    3    0    0  0.41374256430E+02  0.83706032554E+01 -0.55732114014E+02  0.69921131472E+02  0.10000000000E+01 0.  0.
<mgrwt>
<rscale>  0 0.12499906E+03</rscale>
<asrwt>0</asrwt>
<pdfrwt beam="2">  1        4 0.73579326E-01 0.12499906E+03</pdfrwt>
<pdfrwt beam="1">  1       -4 0.12565246E-02 0.12499906E+03</pdfrwt>
<totfact> 0.56933753E+03</totfact>
</mgrwt>
</event>
<event>
 5    1  0.3270363E-002  0.1249953E+03  0.7818608E-02  0.1235077E+00
         -4   -1    0    0    0  501 -0.00000000000E+00  0.00000000000E+00  0.29057922919E+02  0.29085662866E+02  0.12700000000E+01 0. -1.
          4   -1    0    0  501    0  0.00000000000E+00 -0.00000000000E+00 -0.13432476346E+03  0.13433076706E+03  0.12700000000E+01 0. -1.
         25    2    1    2    0    0  0.00000000000E+00  0.00000000000E+00 -0.10526684054E+03  0.16341642993E+03  0.12499528732E+03 0.  0.
    9000005    1    3    3    0    0  0.21943483982E+02 -0.50925538264E+02 -0.90299341038E+02  0.10597121274E+03  0.10000000000E+01 0.  0.
    9000005    1    3    3    0    0 -0.21943483982E+02  0.50925538264E+02 -0.14967499505E+02  0.57445217192E+02  0.10000000000E+01 0.  0.
<mgrwt>
<rscale>  0 0.12499529E+03</rscale>
<asrwt>0</asrwt>
<pdfrwt beam="2">  1        4 0.20667943E-01 0.12499529E+03</pdfrwt>
<pdfrwt beam="1">  1       -4 0.44730454E-02 0.12499529E+03</pdfrwt>
<totfact> 0.96698378E+03</totfact>
</mgrwt>
</event>
<event>
 5    1  0.3270363E-002  0.1249660E+03  0.7818608E-02  0.1235122E+00
          4   -1    0    0  501    0  0.00000000000E+00  0.00000000000E+00  0.93728018799E+01  0.94584520446E+01  0.12700000000E+01 0. -1.
         -4   -1    0    0    0  501 -0.00000000000E+00 -0.00000000000E+00 -0.41455630937E+03  0.41455825470E+03  0.12700000000E+01 0. -1.
         25    2    1    2    0    0  0.00000000000E+00  0.00000000000E+00 -0.40518350749E+03  0.42401670674E+03  0.12496596679E+03 0.  0.
    9000005    1    3    3    0    0  0.46899192420E+02  0.41083126497E+02 -0.21606423498E+03  0.22488243855E+03  0.10000000000E+01 0.  0.
    9000005    1    3    3    0    0 -0.46899192420E+02 -0.41083126497E+02 -0.18911927251E+03  0.19913426819E+03  0.10000000000E+01 0.  0.
<mgrwt>
<rscale>  0 0.12496597E+03</rscale>
<asrwt>0</asrwt>
<pdfrwt beam="1">  1        4 0.14487080E-02 0.12496597E+03</pdfrwt>
<pdfrwt beam="2">  1       -4 0.63784618E-01 0.12496597E+03</pdfrwt>
<totfact> 0.62328886E+03</totfact>
</mgrwt>
</event>
<event>
 5    1  0.3270363E-002  0.1250206E+03  0.7818608E-02  0.1235037E+00
          4   -1    0    0  501    0  0.00000000000E+00  0.00000000000E+00  0.11883406488E+02  0.11951077347E+02  0.12700000000E+01 0.  1.
         -4   -1    0    0    0  501 -0.00000000000E+00 -0.00000000000E+00 -0.32782036406E+03  0.32782282409E+03  0.12700000000E+01 0.  1.
         25    2    1    2    0    0  0.00000000000E+00  0.00000000000E+00 -0.31593695758E+03  0.33977390144E+03  0.12502057005E+03 0.  0.
    9000005    1    3    3    0    0  0.79068298928E+01  0.38161864361E+02 -0.29076830352E+03  0.29337016239E+03  0.10000000000E+01 0.  0.
    9000005    1    3    3    0    0 -0.79068298928E+01 -0.38161864361E+02 -0.25168654057E+02  0.46403739046E+02  0.10000000000E+01 0.  0.
<mgrwt>
<rscale>  0 0.12502057E+03</rscale>
<asrwt>0</asrwt>
<pdfrwt beam="1">  1        4 0.18336113E-02 0.12502057E+03</pdfrwt>
<pdfrwt beam="2">  1       -4 0.50439290E-01 0.12502057E+03</pdfrwt>
<totfact> 0.70832135E+03</totfact>
</mgrwt>
</event>
<event>
 5    1  0.3270363E-002  0.1250076E+03  0.7818608E-02  0.1235057E+00
         -4   -1    0    0    0  501 -0.00000000000E+00  0.00000000000E+00  0.44507374975E+02  0.44525490757E+02  0.12700000000E+01 0.  1.
          4   -1    0    0  501    0  0.00000000000E+00 -0.00000000000E+00 -0.87736449422E+02  0.87745640674E+02  0.12700000000E+01 0.  1.
         25    2    1    2    0    0  0.00000000000E+00  0.00000000000E+00 -0.43229074447E+02  0.13227113143E+03  0.12500759710E+03 0.  0.
    9000005    1    3    3    0    0  0.27954844801E+02 -0.27459300641E+02  0.29899390748E+02  0.49299696821E+02  0.10000000000E+01 0.  0.
    9000005    1    3    3    0    0 -0.27954844801E+02  0.27459300641E+02 -0.73128465195E+02  0.82971434610E+02  0.10000000000E+01 0.  0.
<mgrwt>
<rscale>  0 0.12500760E+03</rscale>
<asrwt>0</asrwt>
<pdfrwt beam="2">  1        4 0.13500016E-01 0.12500760E+03</pdfrwt>
<pdfrwt beam="1">  1       -4 0.68493890E-02 0.12500760E+03</pdfrwt>
<totfact> 0.10294150E+04</totfact>
</mgrwt>
</event>
<event>
 5    1  0.3270363E-002  0.1249965E+03  0.7818608E-02  0.1235075E+00
         -4   -1    0    0    0  501 -0.00000000000E+00  0.00000000000E+00  0.79572628618E+02  0.79582762739E+02  0.12700000000E+01 0. -1.
          4   -1    0    0  501    0  0.00000000000E+00 -0.00000000000E+00 -0.49066180181E+02  0.49082613394E+02  0.12700000000E+01 0. -1.
         25    2    1    2    0    0  0.00000000000E+00  0.00000000000E+00  0.30506448437E+02  0.12866537613E+03  0.12499654243E+03 0.  0.
    9000005    1    3    3    0    0 -0.25944447938E+02 -0.80464063758E+01  0.73182715592E+02  0.78067719935E+02  0.10000000000E+01 0.  0.
    9000005    1    3    3    0    0  0.25944447938E+02  0.80464063758E+01 -0.42676267156E+02  0.50597656198E+02  0.10000000000E+01 0.  0.
<mgrwt>
<rscale>  0 0.12499654E+03</rscale>
<asrwt>0</asrwt>
<pdfrwt beam="2">  1        4 0.75506868E-02 0.12499654E+03</pdfrwt>
<pdfrwt beam="1">  1       -4 0.12243986E-01 0.12499654E+03</pdfrwt>
<totfact> 0.10373953E+04</totfact>
</mgrwt>
</event>
<event>
 5    1  0.3270363E-002  0.1250000E+03  0.7818608E-02  0.1235069E+00
         -4   -1    0    0    0  501 -0.00000000000E+00  0.00000000000E+00  0.14521394845E+03  0.14521950188E+03  0.12700000000E+01 0.  1.
          4   -1    0    0  501    0  0.00000000000E+00 -0.00000000000E+00 -0.26878912356E+02  0.26908898704E+02  0.12700000000E+01 0.  1.
         25    2    1    2    0    0  0.00000000000E+00  0.00000000000E+00  0.11833503610E+03  0.17212840058E+03  0.12500002207E+03 0.  0.
    9000005    1    3    3    0    0  0.41468837178E+02  0.48273164540E+01  0.12319977427E+03  0.13008517142E+03  0.10000000000E+01 0.  0.
    9000005    1    3    3    0    0 -0.41468837178E+02 -0.48273164540E+01 -0.48647381768E+01  0.42043229165E+02  0.10000000000E+01 0.  0.
<mgrwt>
<rscale>  0 0.12500002E+03</rscale>
<asrwt>0</asrwt>
<pdfrwt beam="2">  1        4 0.41379511E-02 0.12500002E+03</pdfrwt>
<pdfrwt beam="1">  1       -4 0.22343341E-01 0.12500002E+03</pdfrwt>
<totfact> 0.95053366E+03</totfact>
</mgrwt>
</event>
<event>
 5    1  0.3270363E-002  0.1250010E+03  0.7818608E-02  0.1235068E+00
          4   -1    0    0  501    0  0.00000000000E+00  0.00000000000E+00  0.11216873407E+02  0.11288540607E+02  0.12700000000E+01 0.  1.
         -4   -1    0    0    0  501 -0.00000000000E+00 -0.00000000000E+00 -0.34707126243E+03  0.34707358600E+03  0.12700000000E+01 0.  1.
         25    2    1    2    0    0  0.00000000000E+00  0.00000000000E+00 -0.33585438902E+03  0.35836212661E+03  0.12500097266E+03 0.  0.
    9000005    1    3    3    0    0 -0.26917505643E+02 -0.18748229857E+01 -0.63299400698E+01  0.27733287085E+02  0.10000000000E+01 0.  0.
    9000005    1    3    3    0    0  0.26917505643E+02  0.18748229857E+01 -0.32952444895E+03  0.33062883953E+03  0.10000000000E+01 0.  0.
<mgrwt>
<rscale>  0 0.12500097E+03</rscale>
<asrwt>0</asrwt>
<pdfrwt beam="1">  1        4 0.17313647E-02 0.12500097E+03</pdfrwt>
<pdfrwt beam="2">  1       -4 0.53401262E-01 0.12500097E+03</pdfrwt>
<totfact> 0.68812835E+03</totfact>
</mgrwt>
</event>
<event>
 5    1  0.3270363E-002  0.1250014E+03  0.7818608E-02  0.1235067E+00
          4   -1    0    0  501    0  0.00000000000E+00  0.00000000000E+00  0.45133550035E+03  0.45133728715E+03  0.12700000000E+01 0. -1.
         -4   -1    0    0    0  501 -0.00000000000E+00 -0.00000000000E+00 -0.86066675729E+01  0.86998636030E+01  0.12700000000E+01 0. -1.
         25    2    1    2    0    0  0.00000000000E+00  0.00000000000E+00  0.44272883277E+03  0.46003715075E+03  0.12500144281E+03 0.  0.
    9000005    1    3    3    0    0  0.91665679262E+01  0.39876946130E+02  0.47527656400E+02  0.62722204386E+02  0.10000000000E+01 0.  0.
    9000005    1    3    3    0    0 -0.91665679262E+01 -0.39876946130E+02  0.39520117637E+03  0.39731494637E+03  0.10000000000E+01 0.  0.
<mgrwt>
<rscale>  0 0.12500144E+03</rscale>
<asrwt>0</asrwt>
<pdfrwt beam="1">  1        4 0.69443532E-01 0.12500144E+03</pdfrwt>
<pdfrwt beam="2">  1       -4 0.13314092E-02 0.12500144E+03</pdfrwt>
<totfact> 0.59102158E+03</totfact>
</mgrwt>
</event>
<event>
 5    1  0.3270363E-002  0.1250010E+03  0.7818608E-02  0.1235068E+00
         -4   -1    0    0    0  501 -0.00000000000E+00  0.00000000000E+00  0.31439521901E+03  0.31439778409E+03  0.12700000000E+01 0.  1.
          4   -1    0    0  501    0  0.00000000000E+00 -0.00000000000E+00 -0.12389768560E+02  0.12454688473E+02  0.12700000000E+01 0.  1.
         25    2    1    2    0    0  0.00000000000E+00  0.00000000000E+00  0.30200545045E+03  0.32685247256E+03  0.12500098686E+03 0.  0.
    9000005    1    3    3    0    0 -0.62268137040E+02  0.51525935860E+01  0.14786325881E+03  0.16052542919E+03  0.10000000000E+01 0.  0.
    9000005    1    3    3    0    0  0.62268137040E+02 -0.51525935860E+01  0.15414219164E+03  0.16632704337E+03  0.10000000000E+01 0.  0.
<mgrwt>
<rscale>  0 0.12500099E+03</rscale>
<asrwt>0</asrwt>
<pdfrwt beam="2">  1        4 0.19113095E-02 0.12500099E+03</pdfrwt>
<pdfrwt beam="1">  1       -4 0.48373684E-01 0.12500099E+03</pdfrwt>
<totfact> 0.72346877E+03</totfact>
</mgrwt>
</event>
<event>
 5    1  0.3270363E-002  0.1249982E+03  0.7818608E-02  0.1235072E+00
          4   -1    0    0  501    0  0.00000000000E+00  0.00000000000E+00  0.34863057617E+03  0.34863288935E+03  0.12700000000E+01 0.  1.
         -4   -1    0    0    0  501 -0.00000000000E+00 -0.00000000000E+00 -0.11165876984E+02  0.11237869408E+02  0.12700000000E+01 0.  1.
         25    2    1    2    0    0  0.00000000000E+00  0.00000000000E+00  0.33746469918E+03  0.35987075876E+03  0.12499815925E+03 0.  0.
    9000005    1    3    3    0    0 -0.34481008039E+02 -0.94173451513E+01  0.21156592760E+02  0.41547896725E+02  0.10000000000E+01 0.  0.
    9000005    1    3    3    0    0  0.34481008039E+02  0.94173451513E+01  0.31630810642E+03  0.31832286204E+03  0.10000000000E+01 0.  0.
<mgrwt>
<rscale>  0 0.12499816E+03</rscale>
<asrwt>0</asrwt>
<pdfrwt beam="1">  1        4 0.53641191E-01 0.12499816E+03</pdfrwt>
<pdfrwt beam="2">  1       -4 0.17235430E-02 0.12499816E+03</pdfrwt>
<totfact> 0.68654922E+03</totfact>
</mgrwt>
</event>
<event>
 5    1  0.3270363E-002  0.1250017E+03  0.7818608E-02  0.1235067E+00
         -4   -1    0    0    0  501 -0.00000000000E+00  0.00000000000E+00  0.92028392843E+02  0.92037155482E+02  0.12700000000E+01 0. -1.
          4   -1    0    0  501    0  0.00000000000E+00 -0.00000000000E+00 -0.42427034487E+02  0.42446038159E+02  0.12700000000E+01 0. -1.
         25    2    1    2    0    0  0.00000000000E+00  0.00000000000E+00  0.49601358355E+02  0.13448319364E+03  0.12500173847E+03 0.  0.
    9000005    1    3    3    0    0 -0.78345546407E+01 -0.53576485116E+02  0.58368918302E+02  0.79622550998E+02  0.10000000000E+01 0.  0.
    9000005    1    3    3    0    0  0.78345546407E+01  0.53576485116E+02 -0.87675599463E+01  0.54860642643E+02  0.10000000000E+01 0.  0.
<mgrwt>
<rscale>  0 0.12500174E+03</rscale>
<asrwt>0</asrwt>
<pdfrwt beam="2">  1        4 0.65293719E-02 0.12500174E+03</pdfrwt>
<pdfrwt beam="1">  1       -4 0.14160350E-01 0.12500174E+03</pdfrwt>
<totfact> 0.10248573E+04</totfact>
</mgrwt>
</event>
<event>
 5    1  0.3270363E-002  0.1250017E+03  0.7818608E-02  0.1235067E+00
          4   -1    0    0  501    0  0.00000000000E+00  0.00000000000E+00  0.68590368576E+02  0.68602125050E+02  0.12700000000E+01 0.  1.
         -4   -1    0    0    0  501 -0.00000000000E+00 -0.00000000000E+00 -0.56928206006E+02  0.56942370332E+02  0.12700000000E+01 0.  1.
         25    2    1    2    0    0  0.00000000000E+00  0.00000000000E+00  0.11662162571E+02  0.12554449538E+03  0.12500165713E+03 0.  0.
    9000005    1    3    3    0    0 -0.42721019641E+01 -0.52362189428E+02 -0.28158221988E+02  0.59614890778E+02  0.10000000000E+01 0.  0.
    9000005    1    3    3    0    0  0.42721019641E+01  0.52362189428E+02  0.39820384559E+02  0.65929604604E+02  0.10000000000E+01 0.  0.
<mgrwt>
<rscale>  0 0.12500166E+03</rscale>
<asrwt>0</asrwt>
<pdfrwt beam="1">  1        4 0.10554358E-01 0.12500166E+03</pdfrwt>
<pdfrwt beam="2">  1       -4 0.87601794E-02 0.12500166E+03</pdfrwt>
<totfact> 0.10440581E+04</totfact>
</mgrwt>
</event>
<event>
 5    1  0.3270363E-002  0.1249552E+03  0.7818608E-02  0.1235139E+00
          4   -1    0    0  501    0  0.00000000000E+00  0.00000000000E+00  0.13768763957E+02  0.13827210886E+02  0.12700000000E+01 0.  1.
         -4   -1    0    0    0  501 -0.00000000000E+00 -0.00000000000E+00 -0.28284012866E+03  0.28284297990E+03  0.12700000000E+01 0.  1.
         25    2    1    2    0    0  0.00000000000E+00  0.00000000000E+00 -0.26907136470E+03  0.29667019078E+03  0.12495520317E+03 0.  0.
    9000005    1    3    3    0    0 -0.54147793833E+02  0.30507202963E+02 -0.14950973471E+03  0.16191613194E+03  0.10000000000E+01 0.  0.
    9000005    1    3    3    0    0  0.54147793833E+02 -0.30507202963E+02 -0.11956162999E+03  0.13475405885E+03  0.10000000000E+01 0.  0.
<mgrwt>
<rscale>  0 0.12495520E+03</rscale>
<asrwt>0</asrwt>
<pdfrwt beam="1">  1        4 0.21229868E-02 0.12495520E+03</pdfrwt>
<pdfrwt beam="2">  1       -4 0.43518577E-01 0.12495520E+03</pdfrwt>
<totfact> 0.76094095E+03</totfact>
</mgrwt>
</event>
<event>
 5    1  0.3270363E-002  0.1250003E+03  0.7818608E-02  0.1235069E+00
         -4   -1    0    0    0  501 -0.00000000000E+00  0.00000000000E+00  0.13741321680E+03  0.13741908547E+03  0.12700000000E+01 0. -1.
          4   -1    0    0  501    0  0.00000000000E+00 -0.00000000000E+00 -0.28406504253E+02  0.28434879705E+02  0.12700000000E+01 0. -1.
         25    2    1    2    0    0  0.00000000000E+00  0.00000000000E+00  0.10900671255E+03  0.16585396517E+03  0.12500029754E+03 0.  0.
    9000005    1    3    3    0    0 -0.37862329802E+02 -0.35557215819E+02  0.83992237416E+01  0.52625265551E+02  0.10000000000E+01 0.  0.
    9000005    1    3    3    0    0  0.37862329802E+02  0.35557215819E+02  0.10060748881E+03  0.11322869962E+03  0.10000000000E+01 0.  0.
<mgrwt>
<rscale>  0 0.12500030E+03</rscale>
<asrwt>0</asrwt>
<pdfrwt beam="2">  1        4 0.43728655E-02 0.12500030E+03</pdfrwt>
<pdfrwt beam="1">  1       -4 0.21143130E-01 0.12500030E+03</pdfrwt>
<totfact> 0.96225265E+03</totfact>
</mgrwt>
</event>
<event>
 5    1  0.3270363E-002  0.1249936E+03  0.7818608E-02  0.1235079E+00
         -4   -1    0    0    0  501 -0.00000000000E+00  0.00000000000E+00  0.76603686601E+02  0.76614213439E+02  0.12700000000E+01 0. -1.
          4   -1    0    0  501    0  0.00000000000E+00 -0.00000000000E+00 -0.50965825287E+02  0.50981646180E+02  0.12700000000E+01 0. -1.
         25    2    1    2    0    0  0.00000000000E+00  0.00000000000E+00  0.25637861314E+02  0.12759585962E+03  0.12499361367E+03 0.  0.
    9000005    1    3    3    0    0  0.51241359135E+02  0.35453277795E+02  0.17632941811E+02  0.64765210023E+02  0.10000000000E+01 0.  0.
    9000005    1    3    3    0    0 -0.51241359135E+02 -0.35453277795E+02  0.80049195033E+01  0.62830649596E+02  0.10000000000E+01 0.  0.
<mgrwt>
<rscale>  0 0.12499361E+03</rscale>
<asrwt>0</asrwt>
<pdfrwt beam="2">  1        4 0.78429229E-02 0.12499361E+03</pdfrwt>
<pdfrwt beam="1">  1       -4 0.11787209E-01 0.12499361E+03</pdfrwt>
<totfact> 0.10397724E+04</totfact>
</mgrwt>
</event>
<event>
 5    1  0.3270363E-002  0.1250010E+03  0.7818608E-02  0.1235068E+00
          4   -1    0    0  501    0  0.00000000000E+00  0.00000000000E+00  0.25274508033E+03  0.25274827107E+03  0.12700000000E+01 0.  1.
         -4   -1    0    0    0  501 -0.00000000000E+00 -0.00000000000E+00 -0.15426152025E+02  0.15478341846E+02  0.12700000000E+01 0.  1.
         25    2    1    2    0    0  0.00000000000E+00  0.00000000000E+00  0.23731892830E+03  0.26822661292E+03  0.12500096858E+03 0.  0.
    9000005    1    3    3    0    0 -0.31013945702E+02 -0.54250877955E+02  0.11981091872E+03  0.13513207921E+03  0.10000000000E+01 0.  0.
    9000005    1    3    3    0    0  0.31013945702E+02  0.54250877955E+02  0.11750800959E+03  0.13309453371E+03  0.10000000000E+01 0.  0.
<mgrwt>
<rscale>  0 0.12500097E+03</rscale>
<asrwt>0</asrwt>
<pdfrwt beam="1">  1        4 0.38888117E-01 0.12500097E+03</pdfrwt>
<pdfrwt beam="2">  1       -4 0.23775143E-02 0.12500097E+03</pdfrwt>
<totfact> 0.79763539E+03</totfact>
</mgrwt>
</event>
<event>
 5    1  0.3270363E-002  0.1250012E+03  0.7818608E-02  0.1235067E+00
          4   -1    0    0  501    0  0.00000000000E+00  0.00000000000E+00  0.81926503116E+01  0.82905017416E+01  0.12700000000E+01 0. -1.
         -4   -1    0    0    0  501 -0.00000000000E+00 -0.00000000000E+00 -0.47387896678E+03  0.47388066859E+03  0.12700000000E+01 0. -1.
         25    2    1    2    0    0  0.00000000000E+00  0.00000000000E+00 -0.46568631647E+03  0.48217117033E+03  0.12500116858E+03 0.  0.
    9000005    1    3    3    0    0 -0.48189253999E+02  0.39518646278E+02 -0.21500098732E+03  0.22385341667E+03  0.10000000000E+01 0.  0.
    9000005    1    3    3    0    0  0.48189253999E+02 -0.39518646278E+02 -0.25068532915E+03  0.25831775366E+03  0.10000000000E+01 0.  0.
<mgrwt>
<rscale>  0 0.12500117E+03</rscale>
<asrwt>0</asrwt>
<pdfrwt beam="1">  1        4 0.12680660E-02 0.12500117E+03</pdfrwt>
<pdfrwt beam="2">  1       -4 0.72912093E-01 0.12500117E+03</pdfrwt>
<totfact> 0.57273230E+03</totfact>
</mgrwt>
</event>
<event>
 5    1  0.3270363E-002  0.1250022E+03  0.7818608E-02  0.1235066E+00
          4   -1    0    0  501    0  0.00000000000E+00  0.00000000000E+00  0.39659227873E+03  0.39659431217E+03  0.12700000000E+01 0.  1.
         -4   -1    0    0    0  501 -0.00000000000E+00 -0.00000000000E+00 -0.98068810396E+01  0.98887722051E+01  0.12700000000E+01 0.  1.
         25    2    1    2    0    0  0.00000000000E+00  0.00000000000E+00  0.38678539769E+03  0.40648308438E+03  0.12500221606E+03 0.  0.
    9000005    1    3    3    0    0  0.12990955840E+02  0.33264259600E+02  0.26624999945E+02  0.44555207579E+02  0.10000000000E+01 0.  0.
    9000005    1    3    3    0    0 -0.12990955840E+02 -0.33264259600E+02  0.36016039775E+03  0.36192787680E+03  0.10000000000E+01 0.  0.
<mgrwt>
<rscale>  0 0.12500222E+03</rscale>
<asrwt>0</asrwt>
<pdfrwt beam="1">  1        4 0.61020648E-01 0.12500222E+03</pdfrwt>
<pdfrwt beam="2">  1       -4 0.15152068E-02 0.12500222E+03</pdfrwt>
<totfact> 0.63923973E+03</totfact>
</mgrwt>
</event>
<event>
 5    1  0.3270363E-002  0.1249958E+03  0.7818608E-02  0.1235076E+00
          4   -1    0    0  501    0  0.00000000000E+00  0.00000000000E+00  0.94192269803E+01  0.95044587908E+01  0.12700000000E+01 0.  1.
         -4   -1    0    0    0  501 -0.00000000000E+00 -0.00000000000E+00 -0.41272834426E+03  0.41273029821E+03  0.12700000000E+01 0.  1.
         25    2    1    2    0    0  0.00000000000E+00  0.00000000000E+00 -0.40330911728E+03  0.42223475700E+03  0.12499578366E+03 0.  0.
    9000005    1    3    3    0    0 -0.37165172866E+01 -0.45347707334E+02 -0.34634777806E+03  0.34932507844E+03  0.10000000000E+01 0.  0.
    9000005    1    3    3    0    0  0.37165172866E+01  0.45347707334E+02 -0.56961339225E+02  0.72909678558E+02  0.10000000000E+01 0.  0.
<mgrwt>
<rscale>  0 0.12499578E+03</rscale>
<asrwt>0</asrwt>
<pdfrwt beam="1">  1        4 0.14558188E-02 0.12499578E+03</pdfrwt>
<pdfrwt beam="2">  1       -4 0.63503361E-01 0.12499578E+03</pdfrwt>
<totfact> 0.62452039E+03</totfact>
</mgrwt>
</event>
<event>
 5    1  0.3270363E-002  0.1249999E+03  0.7818608E-02  0.1235069E+00
          4   -1    0    0  501    0  0.00000000000E+00  0.00000000000E+00  0.32247054294E+02  0.32272053090E+02  0.12700000000E+01 0. -1.
         -4   -1    0    0    0  501 -0.00000000000E+00 -0.00000000000E+00 -0.12105960356E+03  0.12106626497E+03  0.12700000000E+01 0. -1.
         25    2    1    2    0    0  0.00000000000E+00  0.00000000000E+00 -0.88812549264E+02  0.15333831806E+03  0.12499988351E+03 0.  0.
    9000005    1    3    3    0    0 -0.34361298912E+02  0.51923620720E+02 -0.50952972108E+02  0.80460963319E+02  0.10000000000E+01 0.  0.
    9000005    1    3    3    0    0  0.34361298912E+02 -0.51923620720E+02 -0.37859577157E+02  0.72877354741E+02  0.10000000000E+01 0.  0.
<mgrwt>
<rscale>  0 0.12499988E+03</rscale>
<asrwt>0</asrwt>
<pdfrwt beam="1">  1        4 0.49635207E-02 0.12499988E+03</pdfrwt>
<pdfrwt beam="2">  1       -4 0.18626990E-01 0.12499988E+03</pdfrwt>
<totfact> 0.98642627E+03</totfact>
</mgrwt>
</event>
<event>
 5    1  0.3270363E-002  0.1249969E+03  0.7818608E-02  0.1235074E+00
         -4   -1    0    0    0  501 -0.00000000000E+00  0.00000000000E+00  0.73858512291E+01  0.74942443500E+01  0.12700000000E+01 0. -1.
          4   -1    0    0  501    0  0.00000000000E+00 -0.00000000000E+00 -0.52489512972E+03  0.52489666612E+03  0.12700000000E+01 0. -1.
         25    2    1    2    0    0  0.00000000000E+00  0.00000000000E+00 -0.51750927849E+03  0.53239091047E+03  0.12499691287E+03 0.  0.
    9000005    1    3    3    0    0  0.14295014557E+02  0.14503976147E+01  0.27554697453E+00  0.14405798158E+02  0.10000000000E+01 0.  0.
    9000005    1    3    3    0    0 -0.14295014557E+02 -0.14503976147E+01 -0.51778482547E+03  0.51798511231E+03  0.10000000000E+01 0.  0.
<mgrwt>
<rscale>  0 0.12499691E+03</rscale>
<asrwt>0</asrwt>
<pdfrwt beam="2">  1        4 0.80761524E-01 0.12499691E+03</pdfrwt>
<pdfrwt beam="1">  1       -4 0.11447413E-02 0.12499691E+03</pdfrwt>
<totfact> 0.53439626E+03</totfact>
</mgrwt>
</event>
<event>
 5    1  0.3270363E-002  0.1250000E+03  0.7818608E-02  0.1235069E+00
          4   -1    0    0  501    0  0.00000000000E+00  0.00000000000E+00  0.19300732637E+03  0.19301150466E+03  0.12700000000E+01 0.  1.
         -4   -1    0    0    0  501 -0.00000000000E+00 -0.00000000000E+00 -0.20214539778E+02  0.20254395040E+02  0.12700000000E+01 0.  1.
         25    2    1    2    0    0  0.00000000000E+00  0.00000000000E+00  0.17279278659E+03  0.21326589970E+03  0.12499998751E+03 0.  0.
    9000005    1    3    3    0    0  0.10241501373E+02  0.36425565996E+02  0.15426840333E+01  0.37882582838E+02  0.10000000000E+01 0.  0.
    9000005    1    3    3    0    0 -0.10241501373E+02 -0.36425565996E+02  0.17125010256E+03  0.17538331686E+03  0.10000000000E+01 0.  0.
<mgrwt>
<rscale>  0 0.12499999E+03</rscale>
<asrwt>0</asrwt>
<pdfrwt beam="1">  1        4 0.29696820E-01 0.12499999E+03</pdfrwt>
<pdfrwt beam="2">  1       -4 0.31133166E-02 0.12499999E+03</pdfrwt>
<totfact> 0.87945304E+03</totfact>
</mgrwt>
</event>
<event>
 5    1  0.3270363E-002  0.1249985E+03  0.7818608E-02  0.1235072E+00
         -4   -1    0    0    0  501 -0.00000000000E+00  0.00000000000E+00  0.49536665420E+02  0.49552942606E+02  0.12700000000E+01 0. -1.
          4   -1    0    0  501    0  0.00000000000E+00 -0.00000000000E+00 -0.78819524166E+02  0.78829755104E+02  0.12700000000E+01 0. -1.
         25    2    1    2    0    0  0.00000000000E+00  0.00000000000E+00 -0.29282858746E+02  0.12838269771E+03  0.12499852501E+03 0.  0.
    9000005    1    3    3    0    0  0.36877870192E+01 -0.59688623907E+02 -0.33265938144E+02  0.68439420202E+02  0.10000000000E+01 0.  0.
    9000005    1    3    3    0    0 -0.36877870192E+01  0.59688623907E+02  0.39830793982E+01  0.59943277508E+02  0.10000000000E+01 0.  0.
<mgrwt>
<rscale>  0 0.12499853E+03</rscale>
<asrwt>0</asrwt>
<pdfrwt beam="2">  1        4 0.12128120E-01 0.12499853E+03</pdfrwt>
<pdfrwt beam="1">  1       -4 0.76230645E-02 0.12499853E+03</pdfrwt>
<totfact> 0.10379577E+04</totfact>
</mgrwt>
</event>
<event>
 5    1  0.3270363E-002  0.1249870E+03  0.7818608E-02  0.1235090E+00
          4   -1    0    0  501    0  0.00000000000E+00  0.00000000000E+00  0.76127431340E+02  0.76138024025E+02  0.12700000000E+01 0.  1.
         -4   -1    0    0    0  501 -0.00000000000E+00 -0.00000000000E+00 -0.51279324371E+02  0.51295048572E+02  0.12700000000E+01 0.  1.
         25    2    1    2    0    0  0.00000000000E+00  0.00000000000E+00  0.24848106969E+02  0.12743307260E+03  0.12498703761E+03 0.  0.
    9000005    1    3    3    0    0 -0.38236433696E+02 -0.67927819556E+01  0.62333797252E+02  0.73448410659E+02  0.10000000000E+01 0.  0.
    9000005    1    3    3    0    0  0.38236433696E+02  0.67927819556E+01 -0.37485690283E+02  0.53984661937E+02  0.10000000000E+01 0.  0.
<mgrwt>
<rscale>  0 0.12498704E+03</rscale>
<asrwt>0</asrwt>
<pdfrwt beam="1">  1        4 0.11713937E-01 0.12498704E+03</pdfrwt>
<pdfrwt beam="2">  1       -4 0.78911512E-02 0.12498704E+03</pdfrwt>
<totfact> 0.10402794E+04</totfact>
</mgrwt>
</event>
<event>
 5    1  0.3270363E-002  0.1249989E+03  0.7818608E-02  0.1235071E+00
          4   -1    0    0  501    0  0.00000000000E+00  0.00000000000E+00  0.32749923233E+01  0.35126165059E+01  0.12700000000E+01 0. -1.
         -4   -1    0    0    0  501 -0.00000000000E+00 -0.00000000000E+00 -0.11507370616E+04  0.11507377624E+04  0.12700000000E+01 0. -1.
         25    2    1    2    0    0  0.00000000000E+00  0.00000000000E+00 -0.11474620693E+04  0.11542503789E+04  0.12499894720E+03 0.  0.
    9000005    1    3    3    0    0 -0.43016611650E+02  0.34824600616E+02 -0.84167893903E+03  0.84349725435E+03  0.10000000000E+01 0.  0.
    9000005    1    3    3    0    0  0.43016611650E+02 -0.34824600616E+02 -0.30578313022E+03  0.31075312455E+03  0.10000000000E+01 0.  0.
<mgrwt>
<rscale>  0 0.12499895E+03</rscale>
<asrwt>0</asrwt>
<pdfrwt beam="1">  1        4 0.52217858E-03 0.12499895E+03</pdfrwt>
<pdfrwt beam="2">  1       -4 0.17705449E+00 0.12499895E+03</pdfrwt>
<totfact> 0.25943244E+03</totfact>
</mgrwt>
</event>
<event>
 5    1  0.3270363E-002  0.1249963E+03  0.7818608E-02  0.1235075E+00
         -4   -1    0    0    0  501 -0.00000000000E+00  0.00000000000E+00  0.11728763532E+04  0.11728770408E+04  0.12700000000E+01 0. -1.
          4   -1    0    0  501    0  0.00000000000E+00 -0.00000000000E+00 -0.32085002740E+01  0.34507063057E+01  0.12700000000E+01 0. -1.
         25    2    1    2    0    0  0.00000000000E+00  0.00000000000E+00  0.11696678530E+04  0.11763277471E+04  0.12499632956E+03 0.  0.
    9000005    1    3    3    0    0  0.78779204273E+01  0.34714000944E+02  0.10681820165E+04  0.10687754413E+04  0.10000000000E+01 0.  0.
    9000005    1    3    3    0    0 -0.78779204273E+01 -0.34714000944E+02  0.10148583646E+03  0.10755230585E+03  0.10000000000E+01 0.  0.
<mgrwt>
<rscale>  0 0.12499633E+03</rscale>
<asrwt>0</asrwt>
<pdfrwt beam="2">  1        4 0.51229982E-03 0.12499633E+03</pdfrwt>
<pdfrwt beam="1">  1       -4 0.18046111E+00 0.12499633E+03</pdfrwt>
<totfact> 0.25342959E+03</totfact>
</mgrwt>
</event>
<event>
 5    1  0.3270363E-002  0.1249976E+03  0.7818608E-02  0.1235073E+00
          4   -1    0    0  501    0  0.00000000000E+00  0.00000000000E+00  0.25232353540E+03  0.25232673147E+03  0.12700000000E+01 0. -1.
         -4   -1    0    0    0  501 -0.00000000000E+00 -0.00000000000E+00 -0.15451186357E+02  0.15503291903E+02  0.12700000000E+01 0. -1.
         25    2    1    2    0    0  0.00000000000E+00  0.00000000000E+00  0.23687234904E+03  0.26783002338E+03  0.12499764670E+03 0.  0.
    9000005    1    3    3    0    0 -0.19875525446E+01 -0.16605689013E+02 -0.10577458807E+02  0.19813679808E+02  0.10000000000E+01 0.  0.
    9000005    1    3    3    0    0  0.19875525446E+01  0.16605689013E+02  0.24744980785E+03  0.24801634357E+03  0.10000000000E+01 0.  0.
<mgrwt>
<rscale>  0 0.12499765E+03</rscale>
<asrwt>0</asrwt>
<pdfrwt beam="1">  1        4 0.38823258E-01 0.12499765E+03</pdfrwt>
<pdfrwt beam="2">  1       -4 0.23813597E-02 0.12499765E+03</pdfrwt>
<totfact> 0.79823812E+03</totfact>
</mgrwt>
</event>
<event>
 5    1  0.3270363E-002  0.1250481E+03  0.7818608E-02  0.1234994E+00
          4   -1    0    0  501    0  0.00000000000E+00  0.00000000000E+00  0.85664612423E+02  0.85674025944E+02  0.12700000000E+01 0.  1.
         -4   -1    0    0    0  501 -0.00000000000E+00 -0.00000000000E+00 -0.45613718173E+02  0.45631394736E+02  0.12700000000E+01 0.  1.
         25    2    1    2    0    0  0.00000000000E+00  0.00000000000E+00  0.40050894249E+02  0.13130542068E+03  0.12504814821E+03 0.  0.
    9000005    1    3    3    0    0 -0.49117145297E+02 -0.24793214274E+02  0.51193432118E+02  0.75159596381E+02  0.10000000000E+01 0.  0.
    9000005    1    3    3    0    0  0.49117145297E+02  0.24793214274E+02 -0.11142537869E+02  0.56145824300E+02  0.10000000000E+01 0.  0.
<mgrwt>
<rscale>  0 0.12504815E+03</rscale>
<asrwt>0</asrwt>
<pdfrwt beam="1">  1        4 0.13181255E-01 0.12504815E+03</pdfrwt>
<pdfrwt beam="2">  1       -4 0.70195789E-02 0.12504815E+03</pdfrwt>
<totfact> 0.10305348E+04</totfact>
</mgrwt>
</event>
<event>
 5    1  0.3270363E-002  0.1250019E+03  0.7818608E-02  0.1235066E+00
          4   -1    0    0  501    0  0.00000000000E+00  0.00000000000E+00  0.13163694532E+04  0.13163700658E+04  0.12700000000E+01 0. -1.
         -4   -1    0    0    0  501 -0.00000000000E+00 -0.00000000000E+00 -0.28310131028E+01  0.31028269672E+01  0.12700000000E+01 0. -1.
         25    2    1    2    0    0  0.00000000000E+00  0.00000000000E+00  0.13135384401E+04  0.13194728928E+04  0.12500192486E+03 0.  0.
    9000005    1    3    3    0    0  0.50073594757E+02  0.27409334875E+02  0.92520879513E+03  0.92696868940E+03  0.10000000000E+01 0.  0.
    9000005    1    3    3    0    0 -0.50073594757E+02 -0.27409334875E+02  0.38832964492E+03  0.39250420336E+03  0.10000000000E+01 0.  0.
<mgrwt>
<rscale>  0 0.12500192E+03</rscale>
<asrwt>0</asrwt>
<pdfrwt beam="1">  1        4 0.20253914E+00 0.12500192E+03</pdfrwt>
<pdfrwt beam="2">  1       -4 0.45649679E-03 0.12500192E+03</pdfrwt>
<totfact> 0.21772654E+03</totfact>
</mgrwt>
</event>
<event>
 5    1  0.3270363E-002  0.1250032E+03  0.7818608E-02  0.1235064E+00
         -4   -1    0    0    0  501 -0.00000000000E+00  0.00000000000E+00  0.17466528418E+04  0.17466533035E+04  0.12700000000E+01 0.  1.
          4   -1    0    0  501    0  0.00000000000E+00 -0.00000000000E+00 -0.20557438641E+01  0.24163987326E+01  0.12700000000E+01 0.  1.
         25    2    1    2    0    0  0.00000000000E+00  0.00000000000E+00  0.17445970980E+04  0.17490697023E+04  0.12500315669E+03 0.  0.
    9000005    1    3    3    0    0  0.52043840970E+02  0.26346111197E+02  0.11860386965E+04  0.11874727233E+04  0.10000000000E+01 0.  0.
    9000005    1    3    3    0    0 -0.52043840970E+02 -0.26346111197E+02  0.55855840147E+03  0.56159697899E+03  0.10000000000E+01 0.  0.
<mgrwt>
<rscale>  0 0.12500316E+03</rscale>
<asrwt>0</asrwt>
<pdfrwt beam="2">  1        4 0.34404614E-03 0.12500316E+03</pdfrwt>
<pdfrwt beam="1">  1       -4 0.26874387E+00 0.12500316E+03</pdfrwt>
<totfact> 0.13503745E+03</totfact>
</mgrwt>
</event>
<event>
 4    1  0.3270363E-002  0.1251019E+03  0.7818608E-02  0.1234910E+00
          4   -1    0    0  501    0  0.00000000000E+00  0.00000000000E+00  0.19160864579E+02  0.19202906848E+02  0.12700000000E+01 0.  1.
         -4   -1    0    0    0  501 -0.00000000000E+00 -0.00000000000E+00 -0.20393072086E+03  0.20393467535E+03  0.12700000000E+01 0.  1.
    9000005    1    1    2    0    0  0.33116167785E+02  0.52750884977E+02 -0.82250459771E+02  0.10317690908E+03  0.10000000000E+01 0.  0.
    9000005    1    1    2    0    0 -0.33116167785E+02 -0.52750884977E+02 -0.10251939651E+03  0.11996067312E+03  0.10000000000E+01 0.  0.
<mgrwt>
<rscale>  0 0.12510188E+03</rscale>
<asrwt>0</asrwt>
<pdfrwt beam="1">  1        4 0.29513637E-02 0.12510188E+03</pdfrwt>
<pdfrwt beam="2">  1       -4 0.31377494E-01 0.12510188E+03</pdfrwt>
<totfact> 0.86178078E+03</totfact>
</mgrwt>
</event>
<event>
 5    1  0.3270363E-002  0.1250100E+03  0.7818608E-02  0.1235054E+00
          4   -1    0    0  501    0  0.00000000000E+00  0.00000000000E+00  0.44557326882E+02  0.44575422363E+02  0.12700000000E+01 0.  1.
         -4   -1    0    0    0  501 -0.00000000000E+00 -0.00000000000E+00 -0.87641543174E+02  0.87650744378E+02  0.12700000000E+01 0.  1.
         25    2    1    2    0    0  0.00000000000E+00  0.00000000000E+00 -0.43084216292E+02  0.13222616674E+03  0.12501003751E+03 0.  0.
    9000005    1    3    3    0    0 -0.29357656230E+02 -0.23936953764E+02  0.31036770972E+02  0.48980923707E+02  0.10000000000E+01 0.  0.
    9000005    1    3    3    0    0  0.29357656230E+02  0.23936953764E+02 -0.74120987264E+02  0.83245243034E+02  0.10000000000E+01 0.  0.
<mgrwt>
<rscale>  0 0.12501004E+03</rscale>
<asrwt>0</asrwt>
<pdfrwt beam="1">  1        4 0.68570731E-02 0.12501004E+03</pdfrwt>
<pdfrwt beam="2">  1       -4 0.13485414E-01 0.12501004E+03</pdfrwt>
<totfact> 0.10294542E+04</totfact>
</mgrwt>
</event>
<event>
 5    1  0.3270363E-002  0.1250001E+03  0.7818608E-02  0.1235069E+00
         -4   -1    0    0    0  501 -0.00000000000E+00  0.00000000000E+00  0.68501847477E+01  0.69669168990E+01  0.12700000000E+01 0.  1.
          4   -1    0    0  501    0  0.00000000000E+00 -0.00000000000E+00 -0.56530551556E+03  0.56530694213E+03  0.12700000000E+01 0.  1.
         25    2    1    2    0    0  0.00000000000E+00  0.00000000000E+00 -0.55845533081E+03  0.57227385903E+03  0.12500005287E+03 0.  0.
    9000005    1    3    3    0    0  0.35176484036E+02 -0.12842813327E+02 -0.50184097692E+02  0.62624009329E+02  0.10000000000E+01 0.  0.
    9000005    1    3    3    0    0 -0.35176484036E+02  0.12842813327E+02 -0.50827123312E+03  0.50964984970E+03  0.10000000000E+01 0.  0.
<mgrwt>
<rscale>  0 0.12500005E+03</rscale>
<asrwt>0</asrwt>
<pdfrwt beam="2">  1        4 0.86979132E-01 0.12500005E+03</pdfrwt>
<pdfrwt beam="1">  1       -4 0.10629642E-02 0.12500005E+03</pdfrwt>
<totfact> 0.50665834E+03</totfact>
</mgrwt>
</event>
<event>
 5    1  0.3270363E-002  0.1250011E+03  0.7818608E-02  0.1235068E+00
          4   -1    0    0  501    0  0.00000000000E+00  0.00000000000E+00  0.13787454449E+02  0.13845822482E+02  0.12700000000E+01 0.  1.
         -4   -1    0    0    0  501 -0.00000000000E+00 -0.00000000000E+00 -0.28266568538E+03  0.28266853838E+03  0.12700000000E+01 0.  1.
         25    2    1    2    0    0  0.00000000000E+00  0.00000000000E+00 -0.26887823093E+03  0.29651436087E+03  0.12500105252E+03 0.  0.
    9000005    1    3    3    0    0 -0.72278315483E+01  0.12116974830E+02 -0.27884989172E+03  0.27920838945E+03  0.10000000000E+01 0.  0.
    9000005    1    3    3    0    0  0.72278315483E+01 -0.12116974830E+02  0.99716607839E+01  0.17305971418E+02  0.10000000000E+01 0.  0.
<mgrwt>
<rscale>  0 0.12500105E+03</rscale>
<asrwt>0</asrwt>
<pdfrwt beam="1">  1        4 0.21258564E-02 0.12500105E+03</pdfrwt>
<pdfrwt beam="2">  1       -4 0.43491733E-01 0.12500105E+03</pdfrwt>
<totfact> 0.76036386E+03</totfact>
</mgrwt>
</event>
<event>
 5    1  0.3270363E-002  0.1250118E+03  0.7818608E-02  0.1235051E+00
         -4   -1    0    0    0  501 -0.00000000000E+00  0.00000000000E+00  0.13307853614E+03  0.13308459595E+03  0.12700000000E+01 0.  1.
          4   -1    0    0  501    0  0.00000000000E+00 -0.00000000000E+00 -0.29338057458E+02  0.29365532779E+02  0.12700000000E+01 0.  1.
         25    2    1    2    0    0  0.00000000000E+00  0.00000000000E+00  0.10374047868E+03  0.16245012873E+03  0.12501182908E+03 0.  0.
    9000005    1    3    3    0    0  0.18287580104E+02  0.53100290310E+02  0.87503267278E+02  0.10398027794E+03  0.10000000000E+01 0.  0.
    9000005    1    3    3    0    0 -0.18287580104E+02 -0.53100290310E+02  0.16237211400E+02  0.58469850788E+02  0.10000000000E+01 0.  0.
<mgrwt>
<rscale>  0 0.12501183E+03</rscale>
<asrwt>0</asrwt>
<pdfrwt beam="2">  1        4 0.45161270E-02 0.12501183E+03</pdfrwt>
<pdfrwt beam="1">  1       -4 0.20476200E-01 0.12501183E+03</pdfrwt>
<totfact> 0.96846743E+03</totfact>
</mgrwt>
</event>
<event>
 5    1  0.3270363E-002  0.1249988E+03  0.7818608E-02  0.1235071E+00
          4   -1    0    0  501    0  0.00000000000E+00  0.00000000000E+00  0.73118110515E+03  0.73118220809E+03  0.12700000000E+01 0.  1.
         -4   -1    0    0    0  501 -0.00000000000E+00 -0.00000000000E+00 -0.52656827718E+01  0.54166701075E+01  0.12700000000E+01 0.  1.
         25    2    1    2    0    0  0.00000000000E+00  0.00000000000E+00  0.72591542237E+03  0.73659887819E+03  0.12499882766E+03 0.  0.
    9000005    1    3    3    0    0  0.41237347245E+02 -0.41487708726E+01  0.87348488640E+02  0.96687587493E+02  0.10000000000E+01 0.  0.
    9000005    1    3    3    0    0 -0.41237347245E+02  0.41487708726E+01  0.63856693374E+03  0.63991129070E+03  0.10000000000E+01 0.  0.
<mgrwt>
<rscale>  0 0.12499883E+03</rscale>
<asrwt>0</asrwt>
<pdfrwt beam="1">  1        4 0.11250108E+00 0.12499883E+03</pdfrwt>
<pdfrwt beam="2">  1       -4 0.82180444E-03 0.12499883E+03</pdfrwt>
<totfact> 0.41224524E+03</totfact>
</mgrwt>
</event>
<event>
 5    1  0.3270363E-002  0.1249961E+03  0.7818608E-02  0.1235075E+00
         -4   -1    0    0    0  501 -0.00000000000E+00  0.00000000000E+00  0.10975021950E+03  0.10975756731E+03  0.12700000000E+01 0. -1.
          4   -1    0    0  501    0  0.00000000000E+00 -0.00000000000E+00 -0.35570099128E+02  0.35592764040E+02  0.12700000000E+01 0. -1.
         25    2    1    2    0    0  0.00000000000E+00  0.00000000000E+00  0.74180120375E+02  0.14535033135E+03  0.12499611419E+03 0.  0.
    9000005    1    3    3    0    0 -0.23696695603E+01  0.43973526407E+02  0.88646204258E+02  0.98987049092E+02  0.10000000000E+01 0.  0.
    9000005    1    3    3    0    0  0.23696695603E+01 -0.43973526407E+02 -0.14466083884E+02  0.46363282254E+02  0.10000000000E+01 0.  0.
<mgrwt>
<rscale>  0 0.12499611E+03</rscale>
<asrwt>0</asrwt>
<pdfrwt beam="2">  1        4 0.54746316E-02 0.12499611E+03</pdfrwt>
<pdfrwt beam="1">  1       -4 0.16886958E-01 0.12499611E+03</pdfrwt>
<totfact> 0.10024752E+04</totfact>
</mgrwt>
</event>
<event>
 5    1  0.3270363E-002  0.1250006E+03  0.7818608E-02  0.1235068E+00
          4   -1    0    0  501    0  0.00000000000E+00  0.00000000000E+00  0.53524636810E+01  0.55010696648E+01  0.12700000000E+01 0. -1.
         -4   -1    0    0    0  501 -0.00000000000E+00 -0.00000000000E+00 -0.71966885414E+03  0.71966997473E+03  0.12700000000E+01 0. -1.
         25    2    1    2    0    0  0.00000000000E+00  0.00000000000E+00 -0.71431639046E+03  0.72517104439E+03  0.12500055177E+03 0.  0.
    9000005    1    3    3    0    0 -0.40766072679E+02 -0.19603384215E+02 -0.60729761299E+03  0.60898075183E+03  0.10000000000E+01 0.  0.
    9000005    1    3    3    0    0  0.40766072679E+02  0.19603384215E+02 -0.10701877747E+03  0.11619029257E+03  0.10000000000E+01 0.  0.
<mgrwt>
<rscale>  0 0.12500055E+03</rscale>
<asrwt>0</asrwt>
<pdfrwt beam="1">  1        4 0.83497395E-03 0.12500055E+03</pdfrwt>
<pdfrwt beam="2">  1       -4 0.11072973E+00 0.12500055E+03</pdfrwt>
<totfact> 0.41790292E+03</totfact>
</mgrwt>
</event>
<event>
 5    1  0.3270363E-002  0.1249973E+03  0.7818608E-02  0.1235073E+00
          4   -1    0    0  501    0  0.00000000000E+00  0.00000000000E+00  0.17300948438E+03  0.17301414562E+03  0.12700000000E+01 0.  1.
         -4   -1    0    0    0  501 -0.00000000000E+00 -0.00000000000E+00 -0.22554452550E+02  0.22590179942E+02  0.12700000000E+01 0.  1.
         25    2    1    2    0    0  0.00000000000E+00  0.00000000000E+00  0.15045503183E+03  0.19560432556E+03  0.12499734228E+03 0.  0.
    9000005    1    3    3    0    0  0.53939456436E+02  0.12831315023E+02  0.30117602742E+02  0.63104497468E+02  0.10000000000E+01 0.  0.
    9000005    1    3    3    0    0 -0.53939456436E+02 -0.12831315023E+02  0.12033742909E+03  0.13249982809E+03  0.10000000000E+01 0.  0.
<mgrwt>
<rscale>  0 0.12499734E+03</rscale>
<asrwt>0</asrwt>
<pdfrwt beam="1">  1        4 0.26619950E-01 0.12499734E+03</pdfrwt>
<pdfrwt beam="2">  1       -4 0.34730227E-02 0.12499734E+03</pdfrwt>
<totfact> 0.90886629E+03</totfact>
</mgrwt>
</event>
<event>
 5    1  0.3270363E-002  0.1249982E+03  0.7818608E-02  0.1235072E+00
          4   -1    0    0  501    0  0.00000000000E+00  0.00000000000E+00  0.45215187162E+03  0.45215365520E+03  0.12700000000E+01 0.  1.
         -4   -1    0    0    0  501 -0.00000000000E+00 -0.00000000000E+00 -0.85905111209E+01  0.86838805449E+01  0.12700000000E+01 0.  1.
         25    2    1    2    0    0  0.00000000000E+00  0.00000000000E+00  0.44356136050E+03  0.46083753574E+03  0.12499821528E+03 0.  0.
    9000005    1    3    3    0    0 -0.60735507293E+02 -0.11599079040E+02  0.25512449690E+03  0.26251256998E+03  0.10000000000E+01 0.  0.
    9000005    1    3    3    0    0  0.60735507293E+02  0.11599079040E+02  0.18843686361E+03  0.19832496577E+03  0.10000000000E+01 0.  0.
<mgrwt>
<rscale>  0 0.12499822E+03</rscale>
<asrwt>0</asrwt>
<pdfrwt beam="1">  1        4 0.69569141E-01 0.12499822E+03</pdfrwt>
<pdfrwt beam="2">  1       -4 0.13289366E-02 0.12499822E+03</pdfrwt>
<totfact> 0.59038626E+03</totfact>
</mgrwt>
</event>
<event>
 4    1  0.3270363E-002  0.1253872E+03  0.7818608E-02  0.1234465E+00
         -4   -1    0    0    0  501 -0.00000000000E+00  0.00000000000E+00  0.41674362896E+03  0.41674556408E+03  0.12700000000E+01 0. -1.
          4   -1    0    0  501    0  0.00000000000E+00 -0.00000000000E+00 -0.93867040434E+01  0.94722285023E+01  0.12700000000E+01 0. -1.
    9000005    1    1    2    0    0  0.18067667857E+02  0.51523583524E+01  0.39245826553E+00  0.18818646122E+02  0.10000000000E+01 0.  0.
    9000005    1    1    2    0    0 -0.18067667857E+02 -0.51523583524E+01  0.40696446666E+03  0.40739914646E+03  0.10000000000E+01 0.  0.
<mgrwt>
<rscale>  0 0.12538717E+03</rscale>
<asrwt>0</asrwt>
<pdfrwt beam="2">  1        4 0.14508359E-02 0.12538717E+03</pdfrwt>
<pdfrwt beam="1">  1       -4 0.64121133E-01 0.12538717E+03</pdfrwt>
<totfact> 0.61553269E+03</totfact>
</mgrwt>
</event>
<event>
 5    1  0.3270363E-002  0.1249974E+03  0.7818608E-02  0.1235073E+00
          4   -1    0    0  501    0  0.00000000000E+00  0.00000000000E+00  0.55742137773E+02  0.55756603407E+02  0.12700000000E+01 0. -1.
         -4   -1    0    0    0  501 -0.00000000000E+00 -0.00000000000E+00 -0.70044951666E+02  0.70056464041E+02  0.12700000000E+01 0. -1.
         25    2    1    2    0    0  0.00000000000E+00  0.00000000000E+00 -0.14302813893E+02  0.12581306745E+03  0.12499742980E+03 0.  0.
    9000005    1    3    3    0    0 -0.38771819506E+02  0.19492698934E+02  0.38107211118E+02  0.57761395748E+02  0.10000000000E+01 0.  0.
    9000005    1    3    3    0    0  0.38771819506E+02 -0.19492698934E+02 -0.52410025011E+02  0.68051671700E+02  0.10000000000E+01 0.  0.
<mgrwt>
<rscale>  0 0.12499743E+03</rscale>
<asrwt>0</asrwt>
<pdfrwt beam="1">  1        4 0.85777118E-02 0.12499743E+03</pdfrwt>
<pdfrwt beam="2">  1       -4 0.10778145E-01 0.12499743E+03</pdfrwt>
<totfact> 0.10435663E+04</totfact>
</mgrwt>
</event>
<event>
 5    1  0.3270363E-002  0.1249991E+03  0.7818608E-02  0.1235071E+00
          4   -1    0    0  501    0  0.00000000000E+00  0.00000000000E+00  0.94985669402E+02  0.94994159251E+02  0.12700000000E+01 0. -1.
         -4   -1    0    0    0  501 -0.00000000000E+00 -0.00000000000E+00 -0.41103914473E+02  0.41123529579E+02  0.12700000000E+01 0. -1.
         25    2    1    2    0    0  0.00000000000E+00  0.00000000000E+00  0.53881754929E+02  0.13611768883E+03  0.12499912679E+03 0.  0.
    9000005    1    3    3    0    0  0.56045502425E+02 -0.27545966680E+02  0.24429957699E+02  0.67064904798E+02  0.10000000000E+01 0.  0.
    9000005    1    3    3    0    0 -0.56045502425E+02  0.27545966680E+02  0.29451797230E+02  0.69052784032E+02  0.10000000000E+01 0.  0.
<mgrwt>
<rscale>  0 0.12499913E+03</rscale>
<asrwt>0</asrwt>
<pdfrwt beam="1">  1        4 0.14615342E-01 0.12499913E+03</pdfrwt>
<pdfrwt beam="2">  1       -4 0.63258412E-02 0.12499913E+03</pdfrwt>
<totfact> 0.10214767E+04</totfact>
</mgrwt>
</event>
<event>
 5    1  0.3270363E-002  0.1249983E+03  0.7818608E-02  0.1235072E+00
          4   -1    0    0  501    0  0.00000000000E+00  0.00000000000E+00  0.26666749237E+02  0.26696973890E+02  0.12700000000E+01 0. -1.
         -4   -1    0    0    0  501 -0.00000000000E+00 -0.00000000000E+00 -0.14636399044E+03  0.14636950023E+03  0.12700000000E+01 0. -1.
         25    2    1    2    0    0  0.00000000000E+00  0.00000000000E+00 -0.11969724120E+03  0.17306647412E+03  0.12499829964E+03 0.  0.
    9000005    1    3    3    0    0 -0.31106475671E+02  0.33824594447E+00  0.15191168503E+02  0.34633781767E+02  0.10000000000E+01 0.  0.
    9000005    1    3    3    0    0  0.31106475671E+02 -0.33824594447E+00 -0.13488840971E+03  0.13843269235E+03  0.10000000000E+01 0.  0.
<mgrwt>
<rscale>  0 0.12499830E+03</rscale>
<asrwt>0</asrwt>
<pdfrwt beam="1">  1        4 0.41053257E-02 0.12499830E+03</pdfrwt>
<pdfrwt beam="2">  1       -4 0.22520285E-01 0.12499830E+03</pdfrwt>
<totfact> 0.94883779E+03</totfact>
</mgrwt>
</event>
<event>
 5    1  0.3270363E-002  0.1250066E+03  0.7818608E-02  0.1235059E+00
          4   -1    0    0  501    0  0.00000000000E+00  0.00000000000E+00  0.60429972505E+02  0.60443316230E+02  0.12700000000E+01 0.  1.
         -4   -1    0    0    0  501 -0.00000000000E+00 -0.00000000000E+00 -0.64621065664E+02  0.64633544135E+02  0.12700000000E+01 0.  1.
         25    2    1    2    0    0  0.00000000000E+00  0.00000000000E+00 -0.41910931590E+01  0.12507686037E+03  0.12500662277E+03 0.  0.
    9000005    1    3    3    0    0  0.12672035748E+02  0.36479132848E+02 -0.51259254602E+02  0.64185814677E+02  0.10000000000E+01 0.  0.
    9000005    1    3    3    0    0 -0.12672035748E+02 -0.36479132848E+02  0.47068161443E+02  0.60891045688E+02  0.10000000000E+01 0.  0.
<mgrwt>
<rscale>  0 0.12500662E+03</rscale>
<asrwt>0</asrwt>
<pdfrwt beam="1">  1        4 0.92989051E-02 0.12500662E+03</pdfrwt>
<pdfrwt beam="2">  1       -4 0.99436888E-02 0.12500662E+03</pdfrwt>
<totfact> 0.10449629E+04</totfact>
</mgrwt>
</event>
<event>
 5    1  0.3270363E-002  0.1250001E+03  0.7818608E-02  0.1235069E+00
         -4   -1    0    0    0  501 -0.00000000000E+00  0.00000000000E+00  0.14689710796E+03  0.14690259775E+03  0.12700000000E+01 0.  1.
          4   -1    0    0  501    0  0.00000000000E+00 -0.00000000000E+00 -0.26570619011E+02  0.26600952889E+02  0.12700000000E+01 0.  1.
         25    2    1    2    0    0  0.00000000000E+00  0.00000000000E+00  0.12032648895E+03  0.17350355064E+03  0.12500007257E+03 0.  0.
    9000005    1    3    3    0    0 -0.21434627233E+02 -0.37642622069E+02  0.12268374708E+03  0.13011038405E+03  0.10000000000E+01 0.  0.
    9000005    1    3    3    0    0  0.21434627233E+02  0.37642622069E+02 -0.23572581315E+01  0.43393166590E+02  0.10000000000E+01 0.  0.
<mgrwt>
<rscale>  0 0.12500007E+03</rscale>
<asrwt>0</asrwt>
<pdfrwt beam="2">  1        4 0.40905432E-02 0.12500007E+03</pdfrwt>
<pdfrwt beam="1">  1       -4 0.22602311E-01 0.12500007E+03</pdfrwt>
<totfact> 0.94799474E+03</totfact>
</mgrwt>
</event>
<event>
 5    1  0.3270363E-002  0.1250075E+03  0.7818608E-02  0.1235057E+00
         -4   -1    0    0    0  501 -0.00000000000E+00  0.00000000000E+00  0.31175162026E+01  0.33662749849E+01  0.12700000000E+01 0.  1.
          4   -1    0    0  501    0  0.00000000000E+00 -0.00000000000E+00 -0.12048240181E+04  0.12048246874E+04  0.12700000000E+01 0.  1.
         25    2    1    2    0    0  0.00000000000E+00  0.00000000000E+00 -0.12017065019E+04  0.12081909624E+04  0.12500753981E+03 0.  0.
    9000005    1    3    3    0    0  0.33717825564E+02  0.33130912865E+02 -0.20575058199E+03  0.21111336087E+03  0.10000000000E+01 0.  0.
    9000005    1    3    3    0    0 -0.33717825564E+02 -0.33130912865E+02 -0.99595591990E+03  0.99707760156E+03  0.10000000000E+01 0.  0.
<mgrwt>
<rscale>  0 0.12500754E+03</rscale>
<asrwt>0</asrwt>
<pdfrwt beam="2">  1        4 0.18537637E+00 0.12500754E+03</pdfrwt>
<pdfrwt beam="1">  1       -4 0.49880562E-03 0.12500754E+03</pdfrwt>
<totfact> 0.24495384E+03</totfact>
</mgrwt>
</event>
<event>
 5    1  0.3270363E-002  0.1249996E+03  0.7818608E-02  0.1235070E+00
         -4   -1    0    0    0  501 -0.00000000000E+00  0.00000000000E+00  0.28548641110E+02  0.28576875428E+02  0.12700000000E+01 0.  1.
          4   -1    0    0  501    0  0.00000000000E+00 -0.00000000000E+00 -0.13672815768E+03  0.13673405575E+03  0.12700000000E+01 0.  1.
         25    2    1    2    0    0  0.00000000000E+00  0.00000000000E+00 -0.10817951657E+03  0.16531093118E+03  0.12499958465E+03 0.  0.
    9000005    1    3    3    0    0 -0.10058196045E+02  0.41736530957E+02  0.59653334007E+01  0.43355397895E+02  0.10000000000E+01 0.  0.
    9000005    1    3    3    0    0  0.10058196045E+02 -0.41736530957E+02 -0.11414484997E+03  0.12195553329E+03  0.10000000000E+01 0.  0.
<mgrwt>
<rscale>  0 0.12499958E+03</rscale>
<asrwt>0</asrwt>
<pdfrwt beam="2">  1        4 0.21037726E-01 0.12499958E+03</pdfrwt>
<pdfrwt beam="1">  1       -4 0.43947243E-02 0.12499958E+03</pdfrwt>
<totfact> 0.96329438E+03</totfact>
</mgrwt>
</event>
<event>
 5    1  0.3270363E-002  0.1250008E+03  0.7818608E-02  0.1235068E+00
          4   -1    0    0  501    0  0.00000000000E+00  0.00000000000E+00  0.15731261304E+03  0.15731773937E+03  0.12700000000E+01 0.  1.
         -4   -1    0    0    0  501 -0.00000000000E+00 -0.00000000000E+00 -0.24809686851E+02  0.24842171033E+02  0.12700000000E+01 0.  1.
         25    2    1    2    0    0  0.00000000000E+00  0.00000000000E+00  0.13250292619E+03  0.18215991041E+03  0.12500083004E+03 0.  0.
    9000005    1    3    3    0    0 -0.58433050046E+02 -0.17746490179E+02  0.46921748465E+02  0.77019541224E+02  0.10000000000E+01 0.  0.
    9000005    1    3    3    0    0  0.58433050046E+02  0.17746490179E+02  0.85581177724E+02  0.10514036918E+03  0.10000000000E+01 0.  0.
<mgrwt>
<rscale>  0 0.12500083E+03</rscale>
<asrwt>0</asrwt>
<pdfrwt beam="1">  1        4 0.24204833E-01 0.12500083E+03</pdfrwt>
<pdfrwt beam="2">  1       -4 0.38197680E-02 0.12500083E+03</pdfrwt>
<totfact> 0.93227916E+03</totfact>
</mgrwt>
</event>
<event>
 5    1  0.3270363E-002  0.1250007E+03  0.7818608E-02  0.1235068E+00
         -4   -1    0    0    0  501 -0.00000000000E+00  0.00000000000E+00  0.21460999096E+02  0.21498543722E+02  0.12700000000E+01 0. -1.
          4   -1    0    0  501    0  0.00000000000E+00 -0.00000000000E+00 -0.18181935283E+03  0.18182378822E+03  0.12700000000E+01 0. -1.
         25    2    1    2    0    0  0.00000000000E+00  0.00000000000E+00 -0.16035835373E+03  0.20332233194E+03  0.12500067622E+03 0.  0.
    9000005    1    3    3    0    0 -0.23558389591E+02  0.33652508984E+02 -0.15678013834E+03  0.16207560230E+03  0.10000000000E+01 0.  0.
    9000005    1    3    3    0    0  0.23558389591E+02 -0.33652508984E+02 -0.35782153890E+01  0.41246729645E+02  0.10000000000E+01 0.  0.
<mgrwt>
<rscale>  0 0.12500068E+03</rscale>
<asrwt>0</asrwt>
<pdfrwt beam="2">  1        4 0.27975436E-01 0.12500068E+03</pdfrwt>
<pdfrwt beam="1">  1       -4 0.33049215E-02 0.12500068E+03</pdfrwt>
<totfact> 0.89576823E+03</totfact>
</mgrwt>
</event>
<event>
 5    1  0.3270363E-002  0.1250220E+03  0.7818608E-02  0.1235035E+00
         -4   -1    0    0    0  501 -0.00000000000E+00  0.00000000000E+00  0.29440566860E+02  0.29467946603E+02  0.12700000000E+01 0. -1.
          4   -1    0    0  501    0  0.00000000000E+00 -0.00000000000E+00 -0.13263718634E+03  0.13264326632E+03  0.12700000000E+01 0. -1.
         25    2    1    2    0    0  0.00000000000E+00  0.00000000000E+00 -0.10319661948E+03  0.16211121292E+03  0.12502201039E+03 0.  0.
    9000005    1    3    3    0    0 -0.57932782870E+02 -0.78076677226E+00 -0.21194189784E+02  0.61700977370E+02  0.10000000000E+01 0.  0.
    9000005    1    3    3    0    0  0.57932782870E+02  0.78076677226E+00 -0.82002429693E+02  0.10041023555E+03  0.10000000000E+01 0.  0.
<mgrwt>
<rscale>  0 0.12502201E+03</rscale>
<asrwt>0</asrwt>
<pdfrwt beam="2">  1        4 0.20408294E-01 0.12502201E+03</pdfrwt>
<pdfrwt beam="1">  1       -4 0.45318919E-02 0.12502201E+03</pdfrwt>
<totfact> 0.96889366E+03</totfact>
</mgrwt>
</event>
<event>
 4    1  0.3270363E-002  0.1247040E+03  0.7818608E-02  0.1235533E+00
          4   -1    0    0  501    0  0.00000000000E+00  0.00000000000E+00  0.13183347146E+03  0.13183958851E+03  0.12700000000E+01 0. -1.
         -4   -1    0    0    0  501 -0.00000000000E+00 -0.00000000000E+00 -0.29469543954E+02  0.29496896800E+02  0.12700000000E+01 0. -1.
    9000005    1    1    2    0    0  0.47808478050E+02 -0.39909061078E+02  0.54928995393E+02  0.83045639647E+02  0.10000000000E+01 0.  0.
    9000005    1    1    2    0    0 -0.47808478050E+02  0.39909061078E+02  0.47434932118E+02  0.78290845663E+02  0.10000000000E+01 0.  0.
<mgrwt>
<rscale>  0 0.12470400E+03</rscale>
<asrwt>0</asrwt>
<pdfrwt beam="1">  1        4 0.20284647E-01 0.12470400E+03</pdfrwt>
<pdfrwt beam="2">  1       -4 0.45363507E-02 0.12470400E+03</pdfrwt>
<totfact> 0.97734412E+03</totfact>
</mgrwt>
</event>
<event>
 5    1  0.3270363E-002  0.1249967E+03  0.7818608E-02  0.1235074E+00
         -4   -1    0    0    0  501 -0.00000000000E+00  0.00000000000E+00  0.56247532255E+02  0.56261867946E+02  0.12700000000E+01 0.  1.
          4   -1    0    0  501    0  0.00000000000E+00 -0.00000000000E+00 -0.69414861724E+02  0.69426478581E+02  0.12700000000E+01 0.  1.
         25    2    1    2    0    0  0.00000000000E+00  0.00000000000E+00 -0.13167329469E+02  0.12568834653E+03  0.12499672751E+03 0.  0.
    9000005    1    3    3    0    0 -0.25751673766E+02 -0.28988003326E+02 -0.55860864800E+02  0.68006538324E+02  0.10000000000E+01 0.  0.
    9000005    1    3    3    0    0  0.25751673766E+02  0.28988003326E+02  0.42693535331E+02  0.57681808204E+02  0.10000000000E+01 0.  0.
<mgrwt>
<rscale>  0 0.12499673E+03</rscale>
<asrwt>0</asrwt>
<pdfrwt beam="2">  1        4 0.10681206E-01 0.12499673E+03</pdfrwt>
<pdfrwt beam="1">  1       -4 0.86554629E-02 0.12499673E+03</pdfrwt>
<totfact> 0.10438571E+04</totfact>
</mgrwt>
</event>
<event>
 5    1  0.3270363E-002  0.1250029E+03  0.7818608E-02  0.1235065E+00
         -4   -1    0    0    0  501 -0.00000000000E+00  0.00000000000E+00  0.20704163861E+02  0.20743078392E+02  0.12700000000E+01 0.  1.
          4   -1    0    0  501    0  0.00000000000E+00 -0.00000000000E+00 -0.18846044799E+03  0.18846472709E+03  0.12700000000E+01 0.  1.
         25    2    1    2    0    0  0.00000000000E+00  0.00000000000E+00 -0.16775628413E+03  0.20920780548E+03  0.12500294000E+03 0.  0.
    9000005    1    3    3    0    0 -0.24864230373E+02 -0.55540383151E+02 -0.10769243061E+03  0.12369973211E+03  0.10000000000E+01 0.  0.
    9000005    1    3    3    0    0  0.24864230373E+02  0.55540383151E+02 -0.60063853523E+02  0.85508073377E+02  0.10000000000E+01 0.  0.
<mgrwt>
<rscale>  0 0.12500294E+03</rscale>
<asrwt>0</asrwt>
<pdfrwt beam="2">  1        4 0.28997236E-01 0.12500294E+03</pdfrwt>
<pdfrwt beam="1">  1       -4 0.31885787E-02 0.12500294E+03</pdfrwt>
<totfact> 0.88599597E+03</totfact>
</mgrwt>
</event>
<event>
 5    1  0.3270363E-002  0.1249994E+03  0.7818608E-02  0.1235070E+00
          4   -1    0    0  501    0  0.00000000000E+00  0.00000000000E+00  0.17246028577E+03  0.17246496186E+03  0.12700000000E+01 0.  1.
         -4   -1    0    0    0  501 -0.00000000000E+00 -0.00000000000E+00 -0.22627130099E+02  0.22662742917E+02  0.12700000000E+01 0.  1.
         25    2    1    2    0    0  0.00000000000E+00  0.00000000000E+00  0.14983315567E+03  0.19512770477E+03  0.12499938653E+03 0.  0.
    9000005    1    3    3    0    0  0.18252885359E+02  0.22042533484E+02 -0.11803770963E+02  0.30973700381E+02  0.10000000000E+01 0.  0.
    9000005    1    3    3    0    0 -0.18252885359E+02 -0.22042533484E+02  0.16163692664E+03  0.16415400439E+03  0.10000000000E+01 0.  0.
<mgrwt>
<rscale>  0 0.12499939E+03</rscale>
<asrwt>0</asrwt>
<pdfrwt beam="1">  1        4 0.26535450E-01 0.12499939E+03</pdfrwt>
<pdfrwt beam="2">  1       -4 0.34841962E-02 0.12499939E+03</pdfrwt>
<totfact> 0.90963936E+03</totfact>
</mgrwt>
</event>
<event>
 5    1  0.3270363E-002  0.1250046E+03  0.7818608E-02  0.1235062E+00
          4   -1    0    0  501    0  0.00000000000E+00  0.00000000000E+00  0.50062772168E+03  0.50062933255E+03  0.12700000000E+01 0. -1.
         -4   -1    0    0    0  501 -0.00000000000E+00 -0.00000000000E+00 -0.77499708465E+01  0.78533399342E+01  0.12700000000E+01 0. -1.
         25    2    1    2    0    0  0.00000000000E+00  0.00000000000E+00  0.49287775083E+03  0.50848267249E+03  0.12500460374E+03 0.  0.
    9000005    1    3    3    0    0 -0.23380607683E+02 -0.46840356571E+02  0.38527040866E+03  0.38881224211E+03  0.10000000000E+01 0.  0.
    9000005    1    3    3    0    0  0.23380607683E+02  0.46840356571E+02  0.10760734217E+03  0.11967043038E+03  0.10000000000E+01 0.  0.
<mgrwt>
<rscale>  0 0.12500460E+03</rscale>
<asrwt>0</asrwt>
<pdfrwt beam="1">  1        4 0.77027738E-01 0.12500460E+03</pdfrwt>
<pdfrwt beam="2">  1       -4 0.12003784E-02 0.12500460E+03</pdfrwt>
<totfact> 0.55206575E+03</totfact>
</mgrwt>
</event>
<event>
 5    1  0.3270363E-002  0.1250017E+03  0.7818608E-02  0.1235067E+00
         -4   -1    0    0    0  501 -0.00000000000E+00  0.00000000000E+00  0.32648718228E+03  0.32648965236E+03  0.12700000000E+01 0.  1.
          4   -1    0    0  501    0  0.00000000000E+00 -0.00000000000E+00 -0.11928592596E+02  0.11996008558E+02  0.12700000000E+01 0.  1.
         25    2    1    2    0    0  0.00000000000E+00  0.00000000000E+00  0.31455858969E+03  0.33848566091E+03  0.12500174518E+03 0.  0.
    9000005    1    3    3    0    0  0.15345851843E+02 -0.14559193111E+02  0.31651117563E+03  0.31721883546E+03  0.10000000000E+01 0.  0.
    9000005    1    3    3    0    0 -0.15345851843E+02  0.14559193111E+02 -0.19525859451E+01  0.21266825450E+02  0.10000000000E+01 0.  0.
<mgrwt>
<rscale>  0 0.12500175E+03</rscale>
<asrwt>0</asrwt>
<pdfrwt beam="2">  1        4 0.18405438E-02 0.12500175E+03</pdfrwt>
<pdfrwt beam="1">  1       -4 0.50234177E-01 0.12500175E+03</pdfrwt>
<totfact> 0.71007381E+03</totfact>
</mgrwt>
</event>
<event>
 5    1  0.3270363E-002  0.1249987E+03  0.7818608E-02  0.1235071E+00
         -4   -1    0    0    0  501 -0.00000000000E+00  0.00000000000E+00  0.14224606150E+02  0.14281187630E+02  0.12700000000E+01 0.  1.
          4   -1    0    0  501    0  0.00000000000E+00 -0.00000000000E+00 -0.27400324940E+03  0.27400619260E+03  0.12700000000E+01 0.  1.
         25    2    1    2    0    0  0.00000000000E+00  0.00000000000E+00 -0.25977864325E+03  0.28828738023E+03  0.12499868043E+03 0.  0.
    9000005    1    3    3    0    0 -0.28596328089E+02 -0.54254419779E+02 -0.15755323390E+03  0.16907191830E+03  0.10000000000E+01 0.  0.
    9000005    1    3    3    0    0  0.28596328089E+02  0.54254419779E+02 -0.10222540935E+03  0.11921546193E+03  0.10000000000E+01 0.  0.
<mgrwt>
<rscale>  0 0.12499868E+03</rscale>
<asrwt>0</asrwt>
<pdfrwt beam="2">  1        4 0.42158921E-01 0.12499868E+03</pdfrwt>
<pdfrwt beam="1">  1       -4 0.21929800E-02 0.12499868E+03</pdfrwt>
<totfact> 0.77094198E+03</totfact>
</mgrwt>
</event>
<event>
 5    1  0.3270363E-002  0.1249982E+03  0.7818608E-02  0.1235072E+00
          4   -1    0    0  501    0  0.00000000000E+00  0.00000000000E+00  0.72868983473E+03  0.72869094144E+03  0.12700000000E+01 0. -1.
         -4   -1    0    0    0  501 -0.00000000000E+00 -0.00000000000E+00 -0.52841418170E+01  0.54346163381E+01  0.12700000000E+01 0. -1.
         25    2    1    2    0    0  0.00000000000E+00  0.00000000000E+00  0.72340569291E+03  0.73412555778E+03  0.12499815217E+03 0.  0.
    9000005    1    3    3    0    0  0.44580548214E+02 -0.25441654892E+02  0.15236759645E+03  0.16078428882E+03  0.10000000000E+01 0.  0.
    9000005    1    3    3    0    0 -0.44580548214E+02  0.25441654892E+02  0.57103809646E+03  0.57334126896E+03  0.10000000000E+01 0.  0.
<mgrwt>
<rscale>  0 0.12499815E+03</rscale>
<asrwt>0</asrwt>
<pdfrwt beam="1">  1        4 0.11211773E+00 0.12499815E+03</pdfrwt>
<pdfrwt beam="2">  1       -4 0.82460543E-03 0.12499815E+03</pdfrwt>
<totfact> 0.41346854E+03</totfact>
</mgrwt>
</event>
<event>
 5    1  0.3270363E-002  0.1250001E+03  0.7818608E-02  0.1235069E+00
         -4   -1    0    0    0  501 -0.00000000000E+00  0.00000000000E+00  0.15065168596E+02  0.15118604593E+02  0.12700000000E+01 0.  1.
          4   -1    0    0  501    0  0.00000000000E+00 -0.00000000000E+00 -0.25877645958E+03  0.25877957596E+03  0.12700000000E+01 0.  1.
         25    2    1    2    0    0  0.00000000000E+00  0.00000000000E+00 -0.24371129099E+03  0.27389818055E+03  0.12500007982E+03 0.  0.
    9000005    1    3    3    0    0  0.19819022464E+02 -0.20247451547E+02 -0.24390483370E+03  0.24554698297E+03  0.10000000000E+01 0.  0.
    9000005    1    3    3    0    0 -0.19819022464E+02  0.20247451547E+02  0.19354271042E+00  0.28351197582E+02  0.10000000000E+01 0.  0.
<mgrwt>
<rscale>  0 0.12500008E+03</rscale>
<asrwt>0</asrwt>
<pdfrwt beam="2">  1        4 0.39816110E-01 0.12500008E+03</pdfrwt>
<pdfrwt beam="1">  1       -4 0.23220686E-02 0.12500008E+03</pdfrwt>
<totfact> 0.78994042E+03</totfact>
</mgrwt>
</event>
<event>
 5    1  0.3270363E-002  0.1250008E+03  0.7818608E-02  0.1235068E+00
         -4   -1    0    0    0  501 -0.00000000000E+00  0.00000000000E+00  0.30856297962E+01  0.33367665844E+01  0.12700000000E+01 0.  1.
          4   -1    0    0  501    0  0.00000000000E+00 -0.00000000000E+00 -0.12162111172E+04  0.12162117803E+04  0.12700000000E+01 0.  1.
         25    2    1    2    0    0  0.00000000000E+00  0.00000000000E+00 -0.12131254874E+04  0.12195485469E+04  0.12500083991E+03 0.  0.
    9000005    1    3    3    0    0  0.24232036166E+02  0.48169396259E+01 -0.46537235276E+02  0.52698280344E+02  0.10000000000E+01 0.  0.
    9000005    1    3    3    0    0 -0.24232036166E+02 -0.48169396259E+01 -0.11665882521E+04  0.11668502665E+04  0.10000000000E+01 0.  0.
<mgrwt>
<rscale>  0 0.12500084E+03</rscale>
<asrwt>0</asrwt>
<pdfrwt beam="2">  1        4 0.18712840E+00 0.12500084E+03</pdfrwt>
<pdfrwt beam="1">  1       -4 0.49408247E-03 0.12500084E+03</pdfrwt>
<totfact> 0.24206349E+03</totfact>
</mgrwt>
</event>
<event>
 5    1  0.3270363E-002  0.1249951E+03  0.7818608E-02  0.1235077E+00
         -4   -1    0    0    0  501 -0.00000000000E+00  0.00000000000E+00  0.47504928912E+02  0.47521902013E+02  0.12700000000E+01 0. -1.
          4   -1    0    0  501    0  0.00000000000E+00 -0.00000000000E+00 -0.82185314798E+02  0.82195126792E+02  0.12700000000E+01 0. -1.
         25    2    1    2    0    0  0.00000000000E+00  0.00000000000E+00 -0.34680385886E+02  0.12971702880E+03  0.12499511349E+03 0.  0.
    9000005    1    3    3    0    0  0.42477851866E+01  0.39652693816E+02 -0.67267555951E+02  0.78206802066E+02  0.10000000000E+01 0.  0.
    9000005    1    3    3    0    0 -0.42477851866E+01 -0.39652693816E+02  0.32587170065E+02  0.51510226739E+02  0.10000000000E+01 0.  0.
<mgrwt>
<rscale>  0 0.12499511E+03</rscale>
<asrwt>0</asrwt>
<pdfrwt beam="2">  1        4 0.12645955E-01 0.12499511E+03</pdfrwt>
<pdfrwt beam="1">  1       -4 0.73105110E-02 0.12499511E+03</pdfrwt>
<totfact> 0.10351706E+04</totfact>
</mgrwt>
</event>
<event>
 5    1  0.3270363E-002  0.1249991E+03  0.7818608E-02  0.1235071E+00
          4   -1    0    0  501    0  0.00000000000E+00  0.00000000000E+00  0.25171980575E+01  0.28194300950E+01  0.12700000000E+01 0. -1.
         -4   -1    0    0    0  501 -0.00000000000E+00 -0.00000000000E+00 -0.14636153515E+04  0.14636159025E+04  0.12700000000E+01 0. -1.
         25    2    1    2    0    0  0.00000000000E+00  0.00000000000E+00 -0.14610981534E+04  0.14664353326E+04  0.12499908274E+03 0.  0.
    9000005    1    3    3    0    0  0.27156623891E+02 -0.55311673370E+02 -0.60844534513E+03  0.61155833854E+03  0.10000000000E+01 0.  0.
    9000005    1    3    3    0    0 -0.27156623891E+02  0.55311673370E+02 -0.85265280828E+03  0.85487699402E+03  0.10000000000E+01 0.  0.
<mgrwt>
<rscale>  0 0.12499908E+03</rscale>
<asrwt>0</asrwt>
<pdfrwt beam="1">  1        4 0.41055341E-03 0.12499908E+03</pdfrwt>
<pdfrwt beam="2">  1       -4 0.22519424E+00 0.12499908E+03</pdfrwt>
<totfact> 0.18599062E+03</totfact>
</mgrwt>
</event>
<event>
 5    1  0.3270363E-002  0.1249983E+03  0.7818608E-02  0.1235072E+00
         -4   -1    0    0    0  501 -0.00000000000E+00  0.00000000000E+00  0.92208241171E+01  0.93078728718E+01  0.12700000000E+01 0. -1.
          4   -1    0    0  501    0  0.00000000000E+00 -0.00000000000E+00 -0.42154383865E+03  0.42154575173E+03  0.12700000000E+01 0. -1.
         25    2    1    2    0    0  0.00000000000E+00  0.00000000000E+00 -0.41232301453E+03  0.43085362460E+03  0.12499831007E+03 0.  0.
    9000005    1    3    3    0    0 -0.11613814412E+02 -0.47717264055E+02 -0.72961888559E+02  0.87955984198E+02  0.10000000000E+01 0.  0.
    9000005    1    3    3    0    0  0.11613814412E+02  0.47717264055E+02 -0.33936112597E+03  0.34289764041E+03  0.10000000000E+01 0.  0.
<mgrwt>
<rscale>  0 0.12499831E+03</rscale>
<asrwt>0</asrwt>
<pdfrwt beam="2">  1        4 0.64859726E-01 0.12499831E+03</pdfrwt>
<pdfrwt beam="1">  1       -4 0.14254319E-02 0.12499831E+03</pdfrwt>
<totfact> 0.61660996E+03</totfact>
</mgrwt>
</event>
<event>
 5    1  0.3270363E-002  0.1249973E+03  0.7818608E-02  0.1235073E+00
          4   -1    0    0  501    0  0.00000000000E+00  0.00000000000E+00  0.71147979336E+02  0.71159313260E+02  0.12700000000E+01 0.  1.
         -4   -1    0    0    0  501 -0.00000000000E+00 -0.00000000000E+00 -0.54877773495E+02  0.54892466913E+02  0.12700000000E+01 0.  1.
         25    2    1    2    0    0  0.00000000000E+00  0.00000000000E+00  0.16270205841E+02  0.12605178017E+03  0.12499732672E+03 0.  0.
    9000005    1    3    3    0    0 -0.57997704958E+02 -0.17618898457E+02  0.23459464089E+02  0.65003890796E+02  0.10000000000E+01 0.  0.
    9000005    1    3    3    0    0  0.57997704958E+02  0.17618898457E+02 -0.71892582475E+01  0.61047889377E+02  0.10000000000E+01 0.  0.
<mgrwt>
<rscale>  0 0.12499733E+03</rscale>
<asrwt>0</asrwt>
<pdfrwt beam="1">  1        4 0.10947845E-01 0.12499733E+03</pdfrwt>
<pdfrwt beam="2">  1       -4 0.84447365E-02 0.12499733E+03</pdfrwt>
<totfact> 0.10430452E+04</totfact>
</mgrwt>
</event>
<event>
 5    1  0.3270363E-002  0.1249978E+03  0.7818608E-02  0.1235073E+00
          4   -1    0    0  501    0  0.00000000000E+00  0.00000000000E+00  0.88939554464E+01  0.89841718307E+01  0.12700000000E+01 0.  1.
         -4   -1    0    0    0  501 -0.00000000000E+00 -0.00000000000E+00 -0.43687981225E+03  0.43688165818E+03  0.12700000000E+01 0.  1.
         25    2    1    2    0    0  0.00000000000E+00  0.00000000000E+00 -0.42798585680E+03  0.44586583001E+03  0.12499777896E+03 0.  0.
    9000005    1    3    3    0    0 -0.21996508687E+02 -0.39592702114E+02 -0.60418256485E+02  0.75516846940E+02  0.10000000000E+01 0.  0.
    9000005    1    3    3    0    0  0.21996508687E+02  0.39592702114E+02 -0.36756760032E+03  0.37034898307E+03  0.10000000000E+01 0.  0.
<mgrwt>
<rscale>  0 0.12499778E+03</rscale>
<asrwt>0</asrwt>
<pdfrwt beam="1">  1        4 0.13753829E-02 0.12499778E+03</pdfrwt>
<pdfrwt beam="2">  1       -4 0.67219344E-01 0.12499778E+03</pdfrwt>
<totfact> 0.60326577E+03</totfact>
</mgrwt>
</event>
<event>
 5    1  0.3270363E-002  0.1250025E+03  0.7818608E-02  0.1235065E+00
          4   -1    0    0  501    0  0.00000000000E+00  0.00000000000E+00  0.69231676581E+02  0.69243324171E+02  0.12700000000E+01 0. -1.
         -4   -1    0    0    0  501 -0.00000000000E+00 -0.00000000000E+00 -0.56401559215E+02  0.56415855766E+02  0.12700000000E+01 0. -1.
         25    2    1    2    0    0  0.00000000000E+00  0.00000000000E+00  0.12830117366E+02  0.12565917994E+03  0.12500247034E+03 0.  0.
    9000005    1    3    3    0    0 -0.34802407354E+02  0.20981337029E+02 -0.41310463281E+02  0.57956694503E+02  0.10000000000E+01 0.  0.
    9000005    1    3    3    0    0  0.34802407354E+02 -0.20981337029E+02  0.54140580647E+02  0.67702485434E+02  0.10000000000E+01 0.  0.
<mgrwt>
<rscale>  0 0.12500247E+03</rscale>
<asrwt>0</asrwt>
<pdfrwt beam="1">  1        4 0.10653023E-01 0.12500247E+03</pdfrwt>
<pdfrwt beam="2">  1       -4 0.86791586E-02 0.12500247E+03</pdfrwt>
<totfact> 0.10437861E+04</totfact>
</mgrwt>
</event>
<event>
 5    1  0.3270363E-002  0.1250213E+03  0.7818608E-02  0.1235036E+00
          4   -1    0    0  501    0  0.00000000000E+00  0.00000000000E+00  0.43359341300E+02  0.43377936534E+02  0.12700000000E+01 0.  1.
         -4   -1    0    0    0  501 -0.00000000000E+00 -0.00000000000E+00 -0.90078486473E+02  0.90087438776E+02  0.12700000000E+01 0.  1.
         25    2    1    2    0    0  0.00000000000E+00  0.00000000000E+00 -0.46719145173E+02  0.13346537531E+03  0.12502130971E+03 0.  0.
    9000005    1    3    3    0    0 -0.18185094361E+02  0.53625553280E+01 -0.86939928702E+02  0.88988796257E+02  0.10000000000E+01 0.  0.
    9000005    1    3    3    0    0  0.18185094361E+02 -0.53625553280E+01  0.40220783529E+02  0.44476579053E+02  0.10000000000E+01 0.  0.
<mgrwt>
<rscale>  0 0.12502131E+03</rscale>
<asrwt>0</asrwt>
<pdfrwt beam="1">  1        4 0.66727870E-02 0.12502131E+03</pdfrwt>
<pdfrwt beam="2">  1       -4 0.13860348E-01 0.12502131E+03</pdfrwt>
<totfact> 0.10265584E+04</totfact>
</mgrwt>
</event>
<event>
 5    1  0.3270363E-002  0.1249981E+03  0.7818608E-02  0.1235072E+00
          4   -1    0    0  501    0  0.00000000000E+00  0.00000000000E+00  0.35588126021E+03  0.35588352627E+03  0.12700000000E+01 0. -1.
         -4   -1    0    0    0  501 -0.00000000000E+00 -0.00000000000E+00 -0.10936893334E+02  0.11010383090E+02  0.12700000000E+01 0. -1.
         25    2    1    2    0    0  0.00000000000E+00  0.00000000000E+00  0.34494436688E+03  0.36689390936E+03  0.12499809792E+03 0.  0.
    9000005    1    3    3    0    0 -0.49723568559E+02  0.31536798012E+02  0.23391027437E+03  0.24120949267E+03  0.10000000000E+01 0.  0.
    9000005    1    3    3    0    0  0.49723568559E+02 -0.31536798012E+02  0.11103409251E+03  0.12568441669E+03  0.10000000000E+01 0.  0.
<mgrwt>
<rscale>  0 0.12499810E+03</rscale>
<asrwt>0</asrwt>
<pdfrwt beam="1">  1        4 0.54756780E-01 0.12499810E+03</pdfrwt>
<pdfrwt beam="2">  1       -4 0.16884267E-02 0.12499810E+03</pdfrwt>
<totfact> 0.67908010E+03</totfact>
</mgrwt>
</event>
<event>
 5    1  0.3270363E-002  0.1250029E+03  0.7818608E-02  0.1235065E+00
          4   -1    0    0  501    0  0.00000000000E+00  0.00000000000E+00  0.45105616082E+03  0.45105794873E+03  0.12700000000E+01 0. -1.
         -4   -1    0    0    0  501 -0.00000000000E+00 -0.00000000000E+00 -0.86122644602E+01  0.87054005728E+01  0.12700000000E+01 0. -1.
         25    2    1    2    0    0  0.00000000000E+00  0.00000000000E+00  0.44244389636E+03  0.45976334931E+03  0.12500294371E+03 0.  0.
    9000005    1    3    3    0    0  0.39241168824E+02 -0.47307589896E+02  0.26276185912E+03  0.26985676200E+03  0.10000000000E+01 0.  0.
    9000005    1    3    3    0    0 -0.39241168824E+02  0.47307589896E+02  0.17968203724E+03  0.18990658730E+03  0.10000000000E+01 0.  0.
<mgrwt>
<rscale>  0 0.12500294E+03</rscale>
<asrwt>0</asrwt>
<pdfrwt beam="1">  1        4 0.69400574E-01 0.12500294E+03</pdfrwt>
<pdfrwt beam="2">  1       -4 0.13322653E-02 0.12500294E+03</pdfrwt>
<totfact> 0.59123388E+03</totfact>
</mgrwt>
</event>
<event>
 5    1  0.3270363E-002  0.1250021E+03  0.7818608E-02  0.1235066E+00
         -4   -1    0    0    0  501 -0.00000000000E+00  0.00000000000E+00  0.14644266444E+02  0.14699232622E+02  0.12700000000E+01 0. -1.
          4   -1    0    0  501    0  0.00000000000E+00 -0.00000000000E+00 -0.26619534415E+03  0.26619837367E+03  0.12700000000E+01 0. -1.
         25    2    1    2    0    0  0.00000000000E+00  0.00000000000E+00 -0.25155107770E+03  0.28089760629E+03  0.12500208210E+03 0.  0.
    9000005    1    3    3    0    0 -0.40314017998E+02  0.26387173298E+02 -0.21520725010E+03  0.22053721558E+03  0.10000000000E+01 0.  0.
    9000005    1    3    3    0    0  0.40314017998E+02 -0.26387173298E+02 -0.36343827601E+02  0.60360390708E+02  0.10000000000E+01 0.  0.
<mgrwt>
<rscale>  0 0.12500208E+03</rscale>
<asrwt>0</asrwt>
<pdfrwt beam="2">  1        4 0.40957588E-01 0.12500208E+03</pdfrwt>
<pdfrwt beam="1">  1       -4 0.22574255E-02 0.12500208E+03</pdfrwt>
<totfact> 0.78055629E+03</totfact>
</mgrwt>
</event>
<event>
 5    1  0.3270363E-002  0.1249953E+03  0.7818608E-02  0.1235077E+00
         -4   -1    0    0    0  501 -0.00000000000E+00  0.00000000000E+00  0.88666264493E+02  0.88675359369E+02  0.12700000000E+01 0.  1.
          4   -1    0    0  501    0  0.00000000000E+00 -0.00000000000E+00 -0.44031831025E+02  0.44050142377E+02  0.12700000000E+01 0.  1.
         25    2    1    2    0    0  0.00000000000E+00  0.00000000000E+00  0.44634433468E+02  0.13272550175E+03  0.12499530456E+03 0.  0.
    9000005    1    3    3    0    0  0.28353052095E+02  0.43949677984E+01 -0.36629421676E+02  0.46539508349E+02  0.10000000000E+01 0.  0.
    9000005    1    3    3    0    0 -0.28353052095E+02 -0.43949677984E+01  0.81263855144E+02  0.86185993397E+02  0.10000000000E+01 0.  0.
<mgrwt>
<rscale>  0 0.12499530E+03</rscale>
<asrwt>0</asrwt>
<pdfrwt beam="2">  1        4 0.67762360E-02 0.12499530E+03</pdfrwt>
<pdfrwt beam="1">  1       -4 0.13643072E-01 0.12499530E+03</pdfrwt>
<totfact> 0.10287327E+04</totfact>
</mgrwt>
</event>
<event>
 5    1  0.3270363E-002  0.1249993E+03  0.7818608E-02  0.1235070E+00
         -4   -1    0    0    0  501 -0.00000000000E+00  0.00000000000E+00  0.11478113634E+02  0.11548159706E+02  0.12700000000E+01 0.  1.
          4   -1    0    0  501    0  0.00000000000E+00 -0.00000000000E+00 -0.33921152257E+03  0.33921389999E+03  0.12700000000E+01 0.  1.
         25    2    1    2    0    0  0.00000000000E+00  0.00000000000E+00 -0.32773340894E+03  0.35076205970E+03  0.12499934075E+03 0.  0.
    9000005    1    3    3    0    0 -0.53431558488E+02  0.81615759556E+01 -0.25187603683E+03  0.25761226814E+03  0.10000000000E+01 0.  0.
    9000005    1    3    3    0    0  0.53431558488E+02 -0.81615759556E+01 -0.75857372108E+02  0.93149791560E+02  0.10000000000E+01 0.  0.
<mgrwt>
<rscale>  0 0.12499934E+03</rscale>
<asrwt>0</asrwt>
<pdfrwt beam="2">  1        4 0.52191952E-01 0.12499934E+03</pdfrwt>
<pdfrwt beam="1">  1       -4 0.17714349E-02 0.12499934E+03</pdfrwt>
<totfact> 0.69641821E+03</totfact>
</mgrwt>
</event>
<event>
 4    1  0.3270363E-002  0.1252157E+03  0.7818608E-02  0.1234733E+00
          4   -1    0    0  501    0  0.00000000000E+00  0.00000000000E+00  0.19217025778E+03  0.19217445427E+03  0.12700000000E+01 0. -1.
         -4   -1    0    0    0  501 -0.00000000000E+00 -0.00000000000E+00 -0.20373058411E+02  0.20412604171E+02  0.12700000000E+01 0. -1.
    9000005    1    1    2    0    0  0.32433380054E+02  0.49291084722E+02  0.12139814935E+03  0.13498165001E+03  0.10000000000E+01 0.  0.
    9000005    1    1    2    0    0 -0.32433380054E+02 -0.49291084722E+02  0.50399050018E+02  0.77605408430E+02  0.10000000000E+01 0.  0.
<mgrwt>
<rscale>  0 0.12521573E+03</rscale>
<asrwt>0</asrwt>
<pdfrwt beam="1">  1        4 0.29568020E-01 0.12521573E+03</pdfrwt>
<pdfrwt beam="2">  1       -4 0.31376815E-02 0.12521573E+03</pdfrwt>
<totfact> 0.87631864E+03</totfact>
</mgrwt>
</event>
<event>
 5    1  0.3270363E-002  0.1249912E+03  0.7818608E-02  0.1235083E+00
          4   -1    0    0  501    0  0.00000000000E+00  0.00000000000E+00  0.44166820376E+02  0.44185075785E+02  0.12700000000E+01 0. -1.
         -4   -1    0    0    0  501 -0.00000000000E+00 -0.00000000000E+00 -0.88389508727E+02  0.88398632077E+02  0.12700000000E+01 0. -1.
         25    2    1    2    0    0  0.00000000000E+00  0.00000000000E+00 -0.44222688351E+02  0.13258370786E+03  0.12499117339E+03 0.  0.
    9000005    1    3    3    0    0  0.96001107581E+01 -0.60446871038E+02 -0.87479827900E+01  0.61834565963E+02  0.10000000000E+01 0.  0.
    9000005    1    3    3    0    0 -0.96001107581E+01  0.60446871038E+02 -0.35474705561E+02  0.70749141900E+02  0.10000000000E+01 0.  0.
<mgrwt>
<rscale>  0 0.12499117E+03</rscale>
<asrwt>0</asrwt>
<pdfrwt beam="1">  1        4 0.67970015E-02 0.12499117E+03</pdfrwt>
<pdfrwt beam="2">  1       -4 0.13600492E-01 0.12499117E+03</pdfrwt>
<totfact> 0.10291304E+04</totfact>
</mgrwt>
</event>
<event>
 5    1  0.3270363E-002  0.1250074E+03  0.7818608E-02  0.1235058E+00
          4   -1    0    0  501    0  0.00000000000E+00  0.00000000000E+00  0.15875690020E+02  0.15926406801E+02  0.12700000000E+01 0.  1.
         -4   -1    0    0    0  501 -0.00000000000E+00 -0.00000000000E+00 -0.24563658798E+03  0.24563987106E+03  0.12700000000E+01 0.  1.
         25    2    1    2    0    0  0.00000000000E+00  0.00000000000E+00 -0.22976089796E+03  0.26156627787E+03  0.12500738971E+03 0.  0.
    9000005    1    3    3    0    0  0.46186791458E+02  0.35762050269E+02 -0.16136616562E+03  0.17161638427E+03  0.10000000000E+01 0.  0.
    9000005    1    3    3    0    0 -0.46186791458E+02 -0.35762050269E+02 -0.68394732348E+02  0.89949893594E+02  0.10000000000E+01 0.  0.
<mgrwt>
<rscale>  0 0.12500739E+03</rscale>
<asrwt>0</asrwt>
<pdfrwt beam="1">  1        4 0.24465679E-02 0.12500739E+03</pdfrwt>
<pdfrwt beam="2">  1       -4 0.37794395E-01 0.12500739E+03</pdfrwt>
<totfact> 0.80673489E+03</totfact>
</mgrwt>
</event>
<event>
 5    1  0.3270363E-002  0.1250015E+03  0.7818608E-02  0.1235067E+00
         -4   -1    0    0    0  501 -0.00000000000E+00  0.00000000000E+00  0.71479769529E+02  0.71491050852E+02  0.12700000000E+01 0. -1.
          4   -1    0    0  501    0  0.00000000000E+00 -0.00000000000E+00 -0.54626690243E+02  0.54641451178E+02  0.12700000000E+01 0. -1.
         25    2    1    2    0    0  0.00000000000E+00  0.00000000000E+00  0.16853079286E+02  0.12613250203E+03  0.12500152714E+03 0.  0.
    9000005    1    3    3    0    0  0.16620088084E+02 -0.53513820244E+02  0.36342517551E+02  0.66796218957E+02  0.10000000000E+01 0.  0.
    9000005    1    3    3    0    0 -0.16620088084E+02  0.53513820244E+02 -0.19489438265E+02  0.59336283073E+02  0.10000000000E+01 0.  0.
<mgrwt>
<rscale>  0 0.12500153E+03</rscale>
<asrwt>0</asrwt>
<pdfrwt beam="2">  1        4 0.84061094E-02 0.12500153E+03</pdfrwt>
<pdfrwt beam="1">  1       -4 0.10998891E-01 0.12500153E+03</pdfrwt>
<totfact> 0.10427696E+04</totfact>
</mgrwt>
</event>
<event>
 5    1  0.3270363E-002  0.1249998E+03  0.7818608E-02  0.1235070E+00
         -4   -1    0    0    0  501 -0.00000000000E+00  0.00000000000E+00  0.69228946428E+02  0.69240594477E+02  0.12700000000E+01 0.  1.
          4   -1    0    0  501    0  0.00000000000E+00 -0.00000000000E+00 -0.56401333702E+02  0.56415630310E+02  0.12700000000E+01 0.  1.
         25    2    1    2    0    0  0.00000000000E+00  0.00000000000E+00  0.12827612727E+02  0.12565622479E+03  0.12499975672E+03 0.  0.
    9000005    1    3    3    0    0 -0.14177896792E+02 -0.50987232960E+02 -0.26995113941E+02  0.59417563557E+02  0.10000000000E+01 0.  0.
    9000005    1    3    3    0    0  0.14177896792E+02  0.50987232960E+02  0.39822726668E+02  0.66238661231E+02  0.10000000000E+01 0.  0.
<mgrwt>
<rscale>  0 0.12499976E+03</rscale>
<asrwt>0</asrwt>
<pdfrwt beam="2">  1        4 0.86791240E-02 0.12499976E+03</pdfrwt>
<pdfrwt beam="1">  1       -4 0.10652603E-01 0.12499976E+03</pdfrwt>
<totfact> 0.10438565E+04</totfact>
</mgrwt>
</event>
<event>
 4    1  0.3270363E-002  0.1249283E+03  0.7818608E-02  0.1235181E+00
          4   -1    0    0  501    0  0.00000000000E+00  0.00000000000E+00  0.16946185407E+03  0.16946661289E+03  0.12700000000E+01 0.  1.
         -4   -1    0    0    0  501 -0.00000000000E+00 -0.00000000000E+00 -0.23001883284E+02  0.23036916777E+02  0.12700000000E+01 0.  1.
    9000005    1    1    2    0    0  0.44556013428E+02  0.15913960719E+02  0.13605458728E+03  0.14404979416E+03  0.10000000000E+01 0.  0.
    9000005    1    1    2    0    0 -0.44556013428E+02 -0.15913960719E+02  0.10405383505E+02  0.48453735504E+02  0.10000000000E+01 0.  0.
<mgrwt>
<rscale>  0 0.12492832E+03</rscale>
<asrwt>0</asrwt>
<pdfrwt beam="1">  1        4 0.26074116E-01 0.12492832E+03</pdfrwt>
<pdfrwt beam="2">  1       -4 0.35418121E-02 0.12492832E+03</pdfrwt>
<totfact> 0.91560412E+03</totfact>
</mgrwt>
</event>
<event>
 5    1  0.3270363E-002  0.1250020E+03  0.7818608E-02  0.1235066E+00
          4   -1    0    0  501    0  0.00000000000E+00  0.00000000000E+00  0.12593278107E+03  0.12593918472E+03  0.12700000000E+01 0.  1.
         -4   -1    0    0    0  501 -0.00000000000E+00 -0.00000000000E+00 -0.30999343341E+02  0.31025347501E+02  0.12700000000E+01 0.  1.
         25    2    1    2    0    0  0.00000000000E+00  0.00000000000E+00  0.94933437727E+02  0.15696453222E+03  0.12500202709E+03 0.  0.
    9000005    1    3    3    0    0  0.58990983664E+02  0.20458949680E+02  0.44174994436E+02  0.76491404152E+02  0.10000000000E+01 0.  0.
    9000005    1    3    3    0    0 -0.58990983664E+02 -0.20458949680E+02  0.50758443291E+02  0.80473128067E+02  0.10000000000E+01 0.  0.
<mgrwt>
<rscale>  0 0.12500203E+03</rscale>
<asrwt>0</asrwt>
<pdfrwt beam="1">  1        4 0.19376767E-01 0.12500203E+03</pdfrwt>
<pdfrwt beam="2">  1       -4 0.47716227E-02 0.12500203E+03</pdfrwt>
<totfact> 0.97926748E+03</totfact>
</mgrwt>
</event>
<event>
 5    1  0.3270363E-002  0.1249975E+03  0.7818608E-02  0.1235073E+00
         -4   -1    0    0    0  501 -0.00000000000E+00  0.00000000000E+00  0.14924640713E+02  0.14978578050E+02  0.12700000000E+01 0. -1.
          4   -1    0    0  501    0  0.00000000000E+00 -0.00000000000E+00 -0.26119345264E+03  0.26119654018E+03  0.12700000000E+01 0. -1.
         25    2    1    2    0    0  0.00000000000E+00  0.00000000000E+00 -0.24626881193E+03  0.27617511823E+03  0.12499747278E+03 0.  0.
    9000005    1    3    3    0    0 -0.60623026208E+01  0.21002098121E+02  0.62125943668E+01  0.22747218892E+02  0.10000000000E+01 0.  0.
    9000005    1    3    3    0    0  0.60623026208E+01 -0.21002098121E+02 -0.25248140629E+03  0.25342789934E+03  0.10000000000E+01 0.  0.
<mgrwt>
<rscale>  0 0.12499747E+03</rscale>
<asrwt>0</asrwt>
<pdfrwt beam="2">  1        4 0.40187991E-01 0.12499747E+03</pdfrwt>
<pdfrwt beam="1">  1       -4 0.23004853E-02 0.12499747E+03</pdfrwt>
<totfact> 0.78692428E+03</totfact>
</mgrwt>
</event>
<event>
 5    1  0.3270363E-002  0.1249979E+03  0.7818608E-02  0.1235073E+00
          4   -1    0    0  501    0  0.00000000000E+00  0.00000000000E+00  0.87338389637E+01  0.88256922133E+01  0.12700000000E+01 0.  1.
         -4   -1    0    0    0  501 -0.00000000000E+00 -0.00000000000E+00 -0.44480706047E+03  0.44480887350E+03  0.12700000000E+01 0.  1.
         25    2    1    2    0    0  0.00000000000E+00  0.00000000000E+00 -0.43607322150E+03  0.45363456571E+03  0.12499785876E+03 0.  0.
    9000005    1    3    3    0    0 -0.12695336868E+01  0.47301116525E+02 -0.69902440521E+02  0.84417761941E+02  0.10000000000E+01 0.  0.
    9000005    1    3    3    0    0  0.12695336868E+01 -0.47301116525E+02 -0.36617078098E+03  0.36921680377E+03  0.10000000000E+01 0.  0.
<mgrwt>
<rscale>  0 0.12499786E+03</rscale>
<asrwt>0</asrwt>
<pdfrwt beam="1">  1        4 0.13508730E-02 0.12499786E+03</pdfrwt>
<pdfrwt beam="2">  1       -4 0.68439043E-01 0.12499786E+03</pdfrwt>
<totfact> 0.59653042E+03</totfact>
</mgrwt>
</event>
<event>
 5    1  0.3270363E-002  0.1249995E+03  0.7818608E-02  0.1235070E+00
         -4   -1    0    0    0  501 -0.00000000000E+00  0.00000000000E+00  0.24715905613E+02  0.24748512890E+02  0.12700000000E+01 0. -1.
          4   -1    0    0  501    0  0.00000000000E+00 -0.00000000000E+00 -0.15790548903E+03  0.15791059612E+03  0.12700000000E+01 0. -1.
         25    2    1    2    0    0  0.00000000000E+00  0.00000000000E+00 -0.13318958342E+03  0.18265910901E+03  0.12499953989E+03 0.  0.
    9000005    1    3    3    0    0  0.17591028840E+02 -0.54081952427E+02 -0.10444498358E+03  0.11892878739E+03  0.10000000000E+01 0.  0.
    9000005    1    3    3    0    0 -0.17591028840E+02  0.54081952427E+02 -0.28744599837E+02  0.63730321620E+02  0.10000000000E+01 0.  0.
<mgrwt>
<rscale>  0 0.12499954E+03</rscale>
<asrwt>0</asrwt>
<pdfrwt beam="2">  1        4 0.24296053E-01 0.12499954E+03</pdfrwt>
<pdfrwt beam="1">  1       -4 0.38053482E-02 0.12499954E+03</pdfrwt>
<totfact> 0.93141494E+03</totfact>
</mgrwt>
</event>
<event>
 5    1  0.3270363E-002  0.1250014E+03  0.7818608E-02  0.1235067E+00
          4   -1    0    0  501    0  0.00000000000E+00  0.00000000000E+00  0.25644949892E+02  0.25676377372E+02  0.12700000000E+01 0.  1.
         -4   -1    0    0    0  501 -0.00000000000E+00 -0.00000000000E+00 -0.15219658425E+03  0.15220188289E+03  0.12700000000E+01 0.  1.
         25    2    1    2    0    0  0.00000000000E+00  0.00000000000E+00 -0.12655163436E+03  0.17787826027E+03  0.12500143726E+03 0.  0.
    9000005    1    3    3    0    0 -0.11338675547E+02  0.60463253706E+02 -0.78926932892E+02  0.10007412926E+03  0.10000000000E+01 0.  0.
    9000005    1    3    3    0    0  0.11338675547E+02 -0.60463253706E+02 -0.47624701464E+02  0.77804131004E+02  0.10000000000E+01 0.  0.
<mgrwt>
<rscale>  0 0.12500144E+03</rscale>
<asrwt>0</asrwt>
<pdfrwt beam="1">  1        4 0.39482021E-02 0.12500144E+03</pdfrwt>
<pdfrwt beam="2">  1       -4 0.23417684E-01 0.12500144E+03</pdfrwt>
<totfact> 0.93997294E+03</totfact>
</mgrwt>
</event>
<event>
 5    1  0.3270363E-002  0.1250035E+03  0.7818608E-02  0.1235064E+00
          4   -1    0    0  501    0  0.00000000000E+00  0.00000000000E+00  0.18736908114E+03  0.18737338517E+03  0.12700000000E+01 0.  1.
         -4   -1    0    0    0  501 -0.00000000000E+00 -0.00000000000E+00 -0.20825180238E+02  0.20863869055E+02  0.12700000000E+01 0.  1.
         25    2    1    2    0    0  0.00000000000E+00  0.00000000000E+00  0.16654390090E+03  0.20823725422E+03  0.12500353242E+03 0.  0.
    9000005    1    3    3    0    0 -0.47661045451E+02 -0.37257826180E+02  0.57157383401E+02  0.83232729995E+02  0.10000000000E+01 0.  0.
    9000005    1    3    3    0    0  0.47661045451E+02  0.37257826180E+02  0.10938651750E+03  0.12500452423E+03  0.10000000000E+01 0.  0.
<mgrwt>
<rscale>  0 0.12500353E+03</rscale>
<asrwt>0</asrwt>
<pdfrwt beam="1">  1        4 0.28829319E-01 0.12500353E+03</pdfrwt>
<pdfrwt beam="2">  1       -4 0.32071811E-02 0.12500353E+03</pdfrwt>
<totfact> 0.88757561E+03</totfact>
</mgrwt>
</event>
<event>
 5    1  0.3270363E-002  0.1250010E+03  0.7818608E-02  0.1235068E+00
         -4   -1    0    0    0  501 -0.00000000000E+00  0.00000000000E+00  0.45324616860E+03  0.45324794788E+03  0.12700000000E+01 0. -1.
          4   -1    0    0  501    0  0.00000000000E+00 -0.00000000000E+00 -0.85699319826E+01  0.86635231971E+01  0.12700000000E+01 0. -1.
         25    2    1    2    0    0  0.00000000000E+00  0.00000000000E+00  0.44467623662E+03  0.46191147107E+03  0.12500100677E+03 0.  0.
    9000005    1    3    3    0    0 -0.14629200168E+02 -0.22557237525E+02  0.13875865205E+02  0.30271803671E+02  0.10000000000E+01 0.  0.
    9000005    1    3    3    0    0  0.14629200168E+02  0.22557237525E+02  0.43080037142E+03  0.43163966740E+03  0.10000000000E+01 0.  0.
<mgrwt>
<rscale>  0 0.12500101E+03</rscale>
<asrwt>0</asrwt>
<pdfrwt beam="2">  1        4 0.13257872E-02 0.12500101E+03</pdfrwt>
<pdfrwt beam="1">  1       -4 0.69737520E-01 0.12500101E+03</pdfrwt>
<totfact> 0.58944307E+03</totfact>
</mgrwt>
</event>
<event>
 5    1  0.3270363E-002  0.1249941E+03  0.7818608E-02  0.1235078E+00
          4   -1    0    0  501    0  0.00000000000E+00  0.00000000000E+00  0.10241714441E+02  0.10320155750E+02  0.12700000000E+01 0.  1.
         -4   -1    0    0    0  501 -0.00000000000E+00 -0.00000000000E+00 -0.37983572309E+03  0.37983784624E+03  0.12700000000E+01 0.  1.
         25    2    1    2    0    0  0.00000000000E+00  0.00000000000E+00 -0.36959400865E+03  0.39015800199E+03  0.12499414101E+03 0.  0.
    9000005    1    3    3    0    0 -0.49030917150E+02 -0.33279920662E+02 -0.24670015608E+03  0.25371943356E+03  0.10000000000E+01 0.  0.
    9000005    1    3    3    0    0  0.49030917150E+02  0.33279920662E+02 -0.12289385257E+03  0.13643856843E+03  0.10000000000E+01 0.  0.
<mgrwt>
<rscale>  0 0.12499414E+03</rscale>
<asrwt>0</asrwt>
<pdfrwt beam="1">  1        4 0.15818459E-02 0.12499414E+03</pdfrwt>
<pdfrwt beam="2">  1       -4 0.58442452E-01 0.12499414E+03</pdfrwt>
<totfact> 0.65529884E+03</totfact>
</mgrwt>
</event>
<event>
 5    1  0.3270363E-002  0.1249994E+03  0.7818608E-02  0.1235070E+00
         -4   -1    0    0    0  501 -0.00000000000E+00  0.00000000000E+00  0.31444585702E+02  0.31470221956E+02  0.12700000000E+01 0. -1.
          4   -1    0    0  501    0  0.00000000000E+00 -0.00000000000E+00 -0.12414578838E+03  0.12415228420E+03  0.12700000000E+01 0. -1.
         25    2    1    2    0    0  0.00000000000E+00  0.00000000000E+00 -0.92701202678E+02  0.15562250616E+03  0.12499940578E+03 0.  0.
    9000005    1    3    3    0    0  0.43433655615E+02 -0.35309059392E+02 -0.80942413697E+02  0.98416901243E+02  0.10000000000E+01 0.  0.
    9000005    1    3    3    0    0 -0.43433655615E+02  0.35309059392E+02 -0.11758788981E+02  0.57205604914E+02  0.10000000000E+01 0.  0.
<mgrwt>
<rscale>  0 0.12499941E+03</rscale>
<asrwt>0</asrwt>
<pdfrwt beam="2">  1        4 0.19101823E-01 0.12499941E+03</pdfrwt>
<pdfrwt beam="1">  1       -4 0.48401003E-02 0.12499941E+03</pdfrwt>
<totfact> 0.98194744E+03</totfact>
</mgrwt>
</event>
<event>
 5    1  0.3270363E-002  0.1249964E+03  0.7818608E-02  0.1235075E+00
         -4   -1    0    0    0  501 -0.00000000000E+00  0.00000000000E+00  0.84686413544E+02  0.84695935788E+02  0.12700000000E+01 0.  1.
          4   -1    0    0  501    0  0.00000000000E+00 -0.00000000000E+00 -0.46102552784E+02  0.46120041991E+02  0.12700000000E+01 0.  1.
         25    2    1    2    0    0  0.00000000000E+00  0.00000000000E+00  0.38583860760E+02  0.13081597778E+03  0.12499642287E+03 0.  0.
    9000005    1    3    3    0    0  0.20244899345E+02  0.57722697673E+02  0.32664164650E+02  0.69352097506E+02  0.10000000000E+01 0.  0.
    9000005    1    3    3    0    0 -0.20244899345E+02 -0.57722697673E+02  0.59196961103E+01  0.61463880273E+02  0.10000000000E+01 0.  0.
<mgrwt>
<rscale>  0 0.12499642E+03</rscale>
<asrwt>0</asrwt>
<pdfrwt beam="2">  1        4 0.70947782E-02 0.12499642E+03</pdfrwt>
<pdfrwt beam="1">  1       -4 0.13030757E-01 0.12499642E+03</pdfrwt>
<totfact> 0.10327869E+04</totfact>
</mgrwt>
</event>
<event>
 5    1  0.3270363E-002  0.1249996E+03  0.7818608E-02  0.1235070E+00
         -4   -1    0    0    0  501 -0.00000000000E+00  0.00000000000E+00  0.13268001772E+03  0.13268609573E+03  0.12700000000E+01 0.  1.
          4   -1    0    0  501    0  0.00000000000E+00 -0.00000000000E+00 -0.29420491907E+02  0.29447890316E+02  0.12700000000E+01 0.  1.
         25    2    1    2    0    0  0.00000000000E+00  0.00000000000E+00  0.10325952581E+03  0.16213398605E+03  0.12499959905E+03 0.  0.
    9000005    1    3    3    0    0  0.49974229145E+02 -0.15353054717E+02  0.96036105731E+02  0.10934840407E+03  0.10000000000E+01 0.  0.
    9000005    1    3    3    0    0 -0.49974229145E+02  0.15353054717E+02  0.72234200780E+01  0.52785581984E+02  0.10000000000E+01 0.  0.
<mgrwt>
<rscale>  0 0.12499960E+03</rscale>
<asrwt>0</asrwt>
<pdfrwt beam="2">  1        4 0.45288046E-02 0.12499960E+03</pdfrwt>
<pdfrwt beam="1">  1       -4 0.20414886E-01 0.12499960E+03</pdfrwt>
<totfact> 0.96933813E+03</totfact>
</mgrwt>
</event>
<event>
 5    1  0.3270363E-002  0.1250034E+03  0.7818608E-02  0.1235064E+00
         -4   -1    0    0    0  501 -0.00000000000E+00  0.00000000000E+00  0.41145563694E+01  0.43060973186E+01  0.12700000000E+01 0. -1.
          4   -1    0    0  501    0  0.00000000000E+00 -0.00000000000E+00 -0.92763678570E+03  0.92763765506E+03  0.12700000000E+01 0. -1.
         25    2    1    2    0    0  0.00000000000E+00  0.00000000000E+00 -0.92352222933E+03  0.93194375238E+03  0.12500339807E+03 0.  0.
    9000005    1    3    3    0    0  0.21033758706E+01 -0.51079265817E+02 -0.19378863385E+03  0.20042093253E+03  0.10000000000E+01 0.  0.
    9000005    1    3    3    0    0 -0.21033758706E+01  0.51079265817E+02 -0.72973359548E+03  0.73152281985E+03  0.10000000000E+01 0.  0.
<mgrwt>
<rscale>  0 0.12500340E+03</rscale>
<asrwt>0</asrwt>
<pdfrwt beam="2">  1        4 0.14272799E+00 0.12500340E+03</pdfrwt>
<pdfrwt beam="1">  1       -4 0.64781020E-03 0.12500340E+03</pdfrwt>
<totfact> 0.32963433E+03</totfact>
</mgrwt>
</event>
<event>
 5    1  0.3270363E-002  0.1250023E+03  0.7818608E-02  0.1235066E+00
         -4   -1    0    0    0  501 -0.00000000000E+00  0.00000000000E+00  0.23480690827E+03  0.23481034277E+03  0.12700000000E+01 0.  1.
          4   -1    0    0  501    0  0.00000000000E+00 -0.00000000000E+00 -0.16608834584E+02  0.16657319299E+02  0.12700000000E+01 0.  1.
         25    2    1    2    0    0  0.00000000000E+00  0.00000000000E+00  0.21819807368E+03  0.25146766206E+03  0.12500234280E+03 0.  0.
    9000005    1    3    3    0    0 -0.42934666156E+02  0.11046777281E+02  0.19770492247E+03  0.20261701117E+03  0.10000000000E+01 0.  0.
    9000005    1    3    3    0    0  0.42934666156E+02 -0.11046777281E+02  0.20493151211E+02  0.48850650894E+02  0.10000000000E+01 0.  0.
<mgrwt>
<rscale>  0 0.12500234E+03</rscale>
<asrwt>0</asrwt>
<pdfrwt beam="2">  1        4 0.25591992E-02 0.12500234E+03</pdfrwt>
<pdfrwt beam="1">  1       -4 0.36128132E-01 0.12500234E+03</pdfrwt>
<totfact> 0.82114282E+03</totfact>
</mgrwt>
</event>
<event>
 5    1  0.3270363E-002  0.1249939E+03  0.7818608E-02  0.1235079E+00
          4   -1    0    0  501    0  0.00000000000E+00  0.00000000000E+00  0.91034934927E+01  0.91916534841E+01  0.12700000000E+01 0. -1.
         -4   -1    0    0    0  501 -0.00000000000E+00 -0.00000000000E+00 -0.42689520603E+03  0.42689709513E+03  0.12700000000E+01 0. -1.
         25    2    1    2    0    0  0.00000000000E+00  0.00000000000E+00 -0.41779171254E+03  0.43608874861E+03  0.12499392627E+03 0.  0.
    9000005    1    3    3    0    0 -0.18289444284E+02 -0.20638186463E+02 -0.40453559199E+03  0.40547562651E+03  0.10000000000E+01 0.  0.
    9000005    1    3    3    0    0  0.18289444284E+02  0.20638186463E+02 -0.13256120550E+02  0.30613122101E+02  0.10000000000E+01 0.  0.
<mgrwt>
<rscale>  0 0.12499393E+03</rscale>
<asrwt>0</asrwt>
<pdfrwt beam="1">  1        4 0.14074646E-02 0.12499393E+03</pdfrwt>
<pdfrwt beam="2">  1       -4 0.65683097E-01 0.12499393E+03</pdfrwt>
<totfact> 0.61196135E+03</totfact>
</mgrwt>
</event>
<event>
 5    1  0.3270363E-002  0.1250596E+03  0.7818608E-02  0.1234976E+00
         -4   -1    0    0    0  501 -0.00000000000E+00  0.00000000000E+00  0.16801060777E+03  0.16801540770E+03  0.12700000000E+01 0.  1.
          4   -1    0    0  501    0  0.00000000000E+00 -0.00000000000E+00 -0.23249718553E+02  0.23284379159E+02  0.12700000000E+01 0.  1.
         25    2    1    2    0    0  0.00000000000E+00  0.00000000000E+00  0.14476088922E+03  0.19129978685E+03  0.12505955943E+03 0.  0.
    9000005    1    3    3    0    0  0.43733842023E+02 -0.33479697097E+02  0.11763990480E+03  0.12989875387E+03  0.10000000000E+01 0.  0.
    9000005    1    3    3    0    0 -0.43733842023E+02  0.33479697097E+02  0.27120984418E+02  0.61401032985E+02  0.10000000000E+01 0.  0.
<mgrwt>
<rscale>  0 0.12505956E+03</rscale>
<asrwt>0</asrwt>
<pdfrwt beam="2">  1        4 0.35799152E-02 0.12505956E+03</pdfrwt>
<pdfrwt beam="1">  1       -4 0.25850821E-01 0.12505956E+03</pdfrwt>
<totfact> 0.91499534E+03</totfact>
</mgrwt>
</event>
<event>
 5    1  0.3270363E-002  0.1249895E+03  0.7818608E-02  0.1235086E+00
         -4   -1    0    0    0  501 -0.00000000000E+00  0.00000000000E+00  0.42888444017E+01  0.44729281575E+01  0.12700000000E+01 0. -1.
          4   -1    0    0  501    0  0.00000000000E+00 -0.00000000000E+00 -0.89132248707E+03  0.89132339185E+03  0.12700000000E+01 0. -1.
         25    2    1    2    0    0  0.00000000000E+00  0.00000000000E+00 -0.88703364267E+03  0.89579632001E+03  0.12498945440E+03 0.  0.
    9000005    1    3    3    0    0  0.21008481701E+02 -0.28185030321E+02 -0.81376852385E+03  0.81452806130E+03  0.10000000000E+01 0.  0.
    9000005    1    3    3    0    0 -0.21008481701E+02  0.28185030321E+02 -0.73265118821E+02  0.81268258708E+02  0.10000000000E+01 0.  0.
<mgrwt>
<rscale>  0 0.12498945E+03</rscale>
<asrwt>0</asrwt>
<pdfrwt beam="2">  1        4 0.13714062E+00 0.12498945E+03</pdfrwt>
<pdfrwt beam="1">  1       -4 0.67405281E-03 0.12498945E+03</pdfrwt>
<totfact> 0.34329328E+03</totfact>
</mgrwt>
</event>
<event>
 5    1  0.3270363E-002  0.1250062E+03  0.7818608E-02  0.1235060E+00
         -4   -1    0    0    0  501 -0.00000000000E+00  0.00000000000E+00  0.12107804998E+03  0.12108471037E+03  0.12700000000E+01 0.  1.
          4   -1    0    0  501    0  0.00000000000E+00 -0.00000000000E+00 -0.32245377959E+02  0.32270378054E+02  0.12700000000E+01 0.  1.
         25    2    1    2    0    0  0.00000000000E+00  0.00000000000E+00  0.88832672017E+02  0.15335508843E+03  0.12500615796E+03 0.  0.
    9000005    1    3    3    0    0  0.28214709277E+02 -0.55759411135E+02  0.43590527516E+02  0.76199185290E+02  0.10000000000E+01 0.  0.
    9000005    1    3    3    0    0 -0.28214709277E+02  0.55759411135E+02  0.45242144501E+02  0.77155903136E+02  0.10000000000E+01 0.  0.
<mgrwt>
<rscale>  0 0.12500616E+03</rscale>
<asrwt>0</asrwt>
<pdfrwt beam="2">  1        4 0.49632629E-02 0.12500616E+03</pdfrwt>
<pdfrwt beam="1">  1       -4 0.18629828E-01 0.12500616E+03</pdfrwt>
<totfact> 0.98625403E+03</totfact>
</mgrwt>
</event>
<event>
 5    1  0.3270363E-002  0.1249991E+03  0.7818608E-02  0.1235071E+00
         -4   -1    0    0    0  501 -0.00000000000E+00  0.00000000000E+00  0.89592231924E+01  0.90487888809E+01  0.12700000000E+01 0. -1.
          4   -1    0    0  501    0  0.00000000000E+00 -0.00000000000E+00 -0.43373821408E+03  0.43374007337E+03  0.12700000000E+01 0. -1.
         25    2    1    2    0    0  0.00000000000E+00  0.00000000000E+00 -0.42477899088E+03  0.44278886226E+03  0.12499914176E+03 0.  0.
    9000005    1    3    3    0    0  0.73220315607E+01 -0.61952460341E+02 -0.19938527862E+03  0.20891914421E+03  0.10000000000E+01 0.  0.
    9000005    1    3    3    0    0 -0.73220315607E+01  0.61952460341E+02 -0.22539371227E+03  0.23386971805E+03  0.10000000000E+01 0.  0.
<mgrwt>
<rscale>  0 0.12499914E+03</rscale>
<asrwt>0</asrwt>
<pdfrwt beam="2">  1        4 0.66735972E-01 0.12499914E+03</pdfrwt>
<pdfrwt beam="1">  1       -4 0.13853751E-02 0.12499914E+03</pdfrwt>
<totfact> 0.60594775E+03</totfact>
</mgrwt>
</event>
<event>
 5    1  0.3270363E-002  0.1250069E+03  0.7818608E-02  0.1235058E+00
          4   -1    0    0  501    0  0.00000000000E+00  0.00000000000E+00  0.32993898421E+03  0.32994142844E+03  0.12700000000E+01 0.  1.
         -4   -1    0    0    0  501 -0.00000000000E+00 -0.00000000000E+00 -0.11804076641E+02  0.11872199685E+02  0.12700000000E+01 0.  1.
         25    2    1    2    0    0  0.00000000000E+00  0.00000000000E+00  0.31813490756E+03  0.34181362812E+03  0.12500694764E+03 0.  0.
    9000005    1    3    3    0    0 -0.51046510241E+01 -0.35667156721E+01 -0.10967024145E+02  0.12651266394E+02  0.10000000000E+01 0.  0.
    9000005    1    3    3    0    0  0.51046510241E+01  0.35667156721E+01  0.32910193171E+03  0.32916236173E+03  0.10000000000E+01 0.  0.
<mgrwt>
<rscale>  0 0.12500695E+03</rscale>
<asrwt>0</asrwt>
<pdfrwt beam="1">  1        4 0.50765273E-01 0.12500695E+03</pdfrwt>
<pdfrwt beam="2">  1       -4 0.18214400E-02 0.12500695E+03</pdfrwt>
<totfact> 0.70623779E+03</totfact>
</mgrwt>
</event>
<event>
 5    1  0.3270363E-002  0.1250006E+03  0.7818608E-02  0.1235068E+00
         -4   -1    0    0    0  501 -0.00000000000E+00  0.00000000000E+00  0.21374417162E+02  0.21412113605E+02  0.12700000000E+01 0.  1.
          4   -1    0    0  501    0  0.00000000000E+00 -0.00000000000E+00 -0.18255431404E+03  0.18255873158E+03  0.12700000000E+01 0.  1.
         25    2    1    2    0    0  0.00000000000E+00  0.00000000000E+00 -0.16117989688E+03  0.20397084518E+03  0.12500058610E+03 0.  0.
    9000005    1    3    3    0    0  0.49301240624E+02  0.52049240878E+01 -0.18506219556E+02  0.52926210180E+02  0.10000000000E+01 0.  0.
    9000005    1    3    3    0    0 -0.49301240624E+02 -0.52049240878E+01 -0.14267367732E+03  0.15104463500E+03  0.10000000000E+01 0.  0.
<mgrwt>
<rscale>  0 0.12500059E+03</rscale>
<asrwt>0</asrwt>
<pdfrwt beam="2">  1        4 0.28088518E-01 0.12500059E+03</pdfrwt>
<pdfrwt beam="1">  1       -4 0.32916115E-02 0.12500059E+03</pdfrwt>
<totfact> 0.89468913E+03</totfact>
</mgrwt>
</event>
<event>
 5    1  0.3270363E-002  0.1250006E+03  0.7818608E-02  0.1235068E+00
         -4   -1    0    0    0  501 -0.00000000000E+00  0.00000000000E+00  0.49331603353E+01  0.50940132404E+01  0.12700000000E+01 0. -1.
          4   -1    0    0  501    0  0.00000000000E+00 -0.00000000000E+00 -0.77897915289E+03  0.77898018816E+03  0.12700000000E+01 0. -1.
         25    2    1    2    0    0  0.00000000000E+00  0.00000000000E+00 -0.77404599256E+03  0.78407420140E+03  0.12500061881E+03 0.  0.
    9000005    1    3    3    0    0 -0.42737157718E+02 -0.32088375475E+02 -0.18385003901E+03  0.19146269959E+03  0.10000000000E+01 0.  0.
    9000005    1    3    3    0    0  0.42737157718E+02  0.32088375475E+02 -0.59019595355E+03  0.59261150181E+03  0.10000000000E+01 0.  0.
<mgrwt>
<rscale>  0 0.12500062E+03</rscale>
<asrwt>0</asrwt>
<pdfrwt beam="2">  1        4 0.11985530E+00 0.12500062E+03</pdfrwt>
<pdfrwt beam="1">  1       -4 0.77140130E-03 0.12500062E+03</pdfrwt>
<totfact> 0.38985161E+03</totfact>
</mgrwt>
</event>
<event>
 5    1  0.3270363E-002  0.1250021E+03  0.7818608E-02  0.1235066E+00
         -4   -1    0    0    0  501 -0.00000000000E+00  0.00000000000E+00  0.24059282151E+02  0.24092778121E+02  0.12700000000E+01 0.  1.
          4   -1    0    0  501    0  0.00000000000E+00 -0.00000000000E+00 -0.16221590191E+03  0.16222087330E+03  0.12700000000E+01 0.  1.
         25    2    1    2    0    0  0.00000000000E+00  0.00000000000E+00 -0.13815661976E+03  0.18631365142E+03  0.12500210047E+03 0.  0.
    9000005    1    3    3    0    0 -0.30329983462E+02  0.32103027923E+02 -0.13497842821E+03  0.14202354869E+03  0.10000000000E+01 0.  0.
    9000005    1    3    3    0    0  0.30329983462E+02 -0.32103027923E+02 -0.31781915507E+01  0.44290102734E+02  0.10000000000E+01 0.  0.
<mgrwt>
<rscale>  0 0.12500210E+03</rscale>
<asrwt>0</asrwt>
<pdfrwt beam="2">  1        4 0.24959251E-01 0.12500210E+03</pdfrwt>
<pdfrwt beam="1">  1       -4 0.37043872E-02 0.12500210E+03</pdfrwt>
<totfact> 0.92488360E+03</totfact>
</mgrwt>
</event>
<event>
 5    1  0.3270363E-002  0.1249984E+03  0.7818608E-02  0.1235072E+00
          4   -1    0    0  501    0  0.00000000000E+00  0.00000000000E+00  0.14948970328E+03  0.14949509787E+03  0.12700000000E+01 0.  1.
         -4   -1    0    0    0  501 -0.00000000000E+00 -0.00000000000E+00 -0.26108581233E+02  0.26139451295E+02  0.12700000000E+01 0.  1.
         25    2    1    2    0    0  0.00000000000E+00  0.00000000000E+00  0.12338112205E+03  0.17563454917E+03  0.12499837432E+03 0.  0.
    9000005    1    3    3    0    0  0.40068729281E+02  0.46902568145E+02  0.75727058071E+02  0.97677742034E+02  0.10000000000E+01 0.  0.
    9000005    1    3    3    0    0 -0.40068729281E+02 -0.46902568145E+02  0.47654063980E+02  0.77956807134E+02  0.10000000000E+01 0.  0.
<mgrwt>
<rscale>  0 0.12499837E+03</rscale>
<asrwt>0</asrwt>
<pdfrwt beam="1">  1        4 0.23001205E-01 0.12499837E+03</pdfrwt>
<pdfrwt beam="2">  1       -4 0.40194945E-02 0.12499837E+03</pdfrwt>
<totfact> 0.94412196E+03</totfact>
</mgrwt>
</event>
<event>
 5    1  0.3270363E-002  0.1250016E+03  0.7818608E-02  0.1235067E+00
         -4   -1    0    0    0  501 -0.00000000000E+00  0.00000000000E+00  0.10761420131E+04  0.10761427625E+04  0.12700000000E+01 0.  1.
          4   -1    0    0  501    0  0.00000000000E+00 -0.00000000000E+00 -0.35181015142E+01  0.37403125891E+01  0.12700000000E+01 0.  1.
         25    2    1    2    0    0  0.00000000000E+00  0.00000000000E+00  0.10726239116E+04  0.10798830751E+04  0.12500160053E+03 0.  0.
    9000005    1    3    3    0    0 -0.19298353061E+02 -0.46796209054E+02  0.85290792355E+03  0.85440929165E+03  0.10000000000E+01 0.  0.
    9000005    1    3    3    0    0  0.19298353061E+02  0.46796209054E+02  0.21971598803E+03  0.22547378342E+03  0.10000000000E+01 0.  0.
<mgrwt>
<rscale>  0 0.12500160E+03</rscale>
<asrwt>0</asrwt>
<pdfrwt beam="2">  1        4 0.55839749E-03 0.12500160E+03</pdfrwt>
<pdfrwt beam="1">  1       -4 0.16557737E+00 0.12500160E+03</pdfrwt>
<totfact> 0.28078776E+03</totfact>
</mgrwt>
</event>
<event>
 5    1  0.3270363E-002  0.1250270E+03  0.7818608E-02  0.1235027E+00
          4   -1    0    0  501    0  0.00000000000E+00  0.00000000000E+00  0.17287698360E+03  0.17288164842E+03  0.12700000000E+01 0. -1.
         -4   -1    0    0    0  501 -0.00000000000E+00 -0.00000000000E+00 -0.22582505511E+02  0.22618188591E+02  0.12700000000E+01 0. -1.
         25    2    1    2    0    0  0.00000000000E+00  0.00000000000E+00  0.15029447809E+03  0.19549983701E+03  0.12502702158E+03 0.  0.
    9000005    1    3    3    0    0  0.23680557595E+02 -0.41092361108E+02  0.11485159348E+02  0.48808399223E+02  0.10000000000E+01 0.  0.
    9000005    1    3    3    0    0 -0.23680557595E+02  0.41092361108E+02  0.13880931874E+03  0.14669143778E+03  0.10000000000E+01 0.  0.
<mgrwt>
<rscale>  0 0.12502702E+03</rscale>
<asrwt>0</asrwt>
<pdfrwt beam="1">  1        4 0.26599562E-01 0.12502702E+03</pdfrwt>
<pdfrwt beam="2">  1       -4 0.34773354E-02 0.12502702E+03</pdfrwt>
<totfact> 0.90844101E+03</totfact>
</mgrwt>
</event>
<event>
 4    1  0.3270363E-002  0.1248471E+03  0.7818608E-02  0.1235308E+00
          4   -1    0    0  501    0  0.00000000000E+00  0.00000000000E+00  0.19410232170E+03  0.19410647642E+03  0.12700000000E+01 0.  1.
         -4   -1    0    0    0  501 -0.00000000000E+00 -0.00000000000E+00 -0.20051030245E+02  0.20091209866E+02  0.12700000000E+01 0.  1.
    9000005    1    1    2    0    0 -0.12105960354E+02 -0.56816813939E+02  0.47864721217E+02  0.75277726849E+02  0.10000000000E+01 0.  0.
    9000005    1    1    2    0    0  0.12105960354E+02  0.56816813939E+02  0.12618657024E+03  0.13891995944E+03  0.10000000000E+01 0.  0.
<mgrwt>
<rscale>  0 0.12484709E+03</rscale>
<asrwt>0</asrwt>
<pdfrwt beam="1">  1        4 0.29865307E-01 0.12484709E+03</pdfrwt>
<pdfrwt beam="2">  1       -4 0.30881841E-02 0.12484709E+03</pdfrwt>
<totfact> 0.88095585E+03</totfact>
</mgrwt>
</event>
<event>
 5    1  0.3270363E-002  0.1250028E+03  0.7818608E-02  0.1235065E+00
          4   -1    0    0  501    0  0.00000000000E+00  0.00000000000E+00  0.77135142506E+02  0.77145596824E+02  0.12700000000E+01 0.  1.
         -4   -1    0    0    0  501 -0.00000000000E+00 -0.00000000000E+00 -0.50622072605E+02  0.50638000897E+02  0.12700000000E+01 0.  1.
         25    2    1    2    0    0  0.00000000000E+00  0.00000000000E+00  0.26513069900E+02  0.12778359772E+03  0.12500281985E+03 0.  0.
    9000005    1    3    3    0    0  0.55668576307E+02 -0.28388086838E+02  0.14016291452E+02  0.64049436285E+02  0.10000000000E+01 0.  0.
    9000005    1    3    3    0    0 -0.55668576307E+02  0.28388086838E+02  0.12496778448E+02  0.63734161436E+02  0.10000000000E+01 0.  0.
<mgrwt>
<rscale>  0 0.12500282E+03</rscale>
<asrwt>0</asrwt>
<pdfrwt beam="1">  1        4 0.11868974E-01 0.12500282E+03</pdfrwt>
<pdfrwt beam="2">  1       -4 0.77900406E-02 0.12500282E+03</pdfrwt>
<totfact> 0.10391502E+04</totfact>
</mgrwt>
</event>
<event>
 5    1  0.3270363E-002  0.1250029E+03  0.7818608E-02  0.1235065E+00
         -4   -1    0    0    0  501 -0.00000000000E+00  0.00000000000E+00  0.21835978426E+03  0.21836347744E+03  0.12700000000E+01 0.  1.
          4   -1    0    0  501    0  0.00000000000E+00 -0.00000000000E+00 -0.17863481271E+02  0.17908569544E+02  0.12700000000E+01 0.  1.
         25    2    1    2    0    0  0.00000000000E+00  0.00000000000E+00  0.20049630298E+03  0.23627204698E+03  0.12500285067E+03 0.  0.
    9000005    1    3    3    0    0 -0.17108292999E+02  0.57858829877E+02  0.13102253296E+03  0.14425062227E+03  0.10000000000E+01 0.  0.
    9000005    1    3    3    0    0  0.17108292999E+02 -0.57858829877E+02  0.69473770028E+02  0.92021424712E+02  0.10000000000E+01 0.  0.
<mgrwt>
<rscale>  0 0.12500285E+03</rscale>
<asrwt>0</asrwt>
<pdfrwt beam="2">  1        4 0.27519803E-02 0.12500285E+03</pdfrwt>
<pdfrwt beam="1">  1       -4 0.33597566E-01 0.12500285E+03</pdfrwt>
<totfact> 0.84350368E+03</totfact>
</mgrwt>
</event>
<event>
 5    1  0.3270363E-002  0.1249984E+03  0.7818608E-02  0.1235072E+00
         -4   -1    0    0    0  501 -0.00000000000E+00  0.00000000000E+00  0.59048215807E+02  0.59061871711E+02  0.12700000000E+01 0.  1.
          4   -1    0    0  501    0  0.00000000000E+00 -0.00000000000E+00 -0.66124418652E+02  0.66136613476E+02  0.12700000000E+01 0.  1.
         25    2    1    2    0    0  0.00000000000E+00  0.00000000000E+00 -0.70762028454E+01  0.12519848519E+03  0.12499835217E+03 0.  0.
    9000005    1    3    3    0    0  0.45156052147E+01  0.31220742127E+02 -0.57569087226E+02  0.65653067206E+02  0.10000000000E+01 0.  0.
    9000005    1    3    3    0    0 -0.45156052147E+01 -0.31220742127E+02  0.50492884381E+02  0.59545417981E+02  0.10000000000E+01 0.  0.
<mgrwt>
<rscale>  0 0.12499835E+03</rscale>
<asrwt>0</asrwt>
<pdfrwt beam="2">  1        4 0.10174976E-01 0.12499835E+03</pdfrwt>
<pdfrwt beam="1">  1       -4 0.90863293E-02 0.12499835E+03</pdfrwt>
<totfact> 0.10448942E+04</totfact>
</mgrwt>
</event>
<event>
 5    1  0.3270363E-002  0.1249970E+03  0.7818608E-02  0.1235074E+00
          4   -1    0    0  501    0  0.00000000000E+00  0.00000000000E+00  0.65392556115E+01  0.66614385798E+01  0.12700000000E+01 0.  1.
         -4   -1    0    0    0  501 -0.00000000000E+00 -0.00000000000E+00 -0.59167390684E+03  0.59167526983E+03  0.12700000000E+01 0.  1.
         25    2    1    2    0    0  0.00000000000E+00  0.00000000000E+00 -0.58513465123E+03  0.59833670841E+03  0.12499702624E+03 0.  0.
    9000005    1    3    3    0    0 -0.13559615069E+02  0.32897363336E+02 -0.46664942142E+02  0.58691707254E+02  0.10000000000E+01 0.  0.
    9000005    1    3    3    0    0  0.13559615069E+02 -0.32897363336E+02 -0.53846970909E+03  0.53964500116E+03  0.10000000000E+01 0.  0.
<mgrwt>
<rscale>  0 0.12499703E+03</rscale>
<asrwt>0</asrwt>
<pdfrwt beam="1">  1        4 0.10155433E-02 0.12499703E+03</pdfrwt>
<pdfrwt beam="2">  1       -4 0.91036217E-01 0.12499703E+03</pdfrwt>
<totfact> 0.48975981E+03</totfact>
</mgrwt>
</event>
<event>
 5    1  0.3270363E-002  0.1250157E+03  0.7818608E-02  0.1235045E+00
         -4   -1    0    0    0  501 -0.00000000000E+00  0.00000000000E+00  0.65615209054E+02  0.65627498499E+02  0.12700000000E+01 0. -1.
          4   -1    0    0  501    0  0.00000000000E+00 -0.00000000000E+00 -0.59522994587E+02  0.59536541591E+02  0.12700000000E+01 0. -1.
         25    2    1    2    0    0  0.00000000000E+00  0.00000000000E+00  0.60922144679E+01  0.12516404009E+03  0.12501568643E+03 0.  0.
    9000005    1    3    3    0    0 -0.42077568054E+02 -0.14427225821E+02 -0.40910023216E+02  0.60442506382E+02  0.10000000000E+01 0.  0.
    9000005    1    3    3    0    0  0.42077568054E+02  0.14427225821E+02  0.47002237684E+02  0.64721533708E+02  0.10000000000E+01 0.  0.
<mgrwt>
<rscale>  0 0.12501569E+03</rscale>
<asrwt>0</asrwt>
<pdfrwt beam="2">  1        4 0.91593712E-02 0.12501569E+03</pdfrwt>
<pdfrwt beam="1">  1       -4 0.10096635E-01 0.12501569E+03</pdfrwt>
<totfact> 0.10445597E+04</totfact>
</mgrwt>
</event>
<event>
 4    1  0.3270363E-002  0.1242215E+03  0.7818608E-02  0.1236291E+00
         -4   -1    0    0    0  501 -0.00000000000E+00  0.00000000000E+00  0.48599026347E+01  0.50231019917E+01  0.12700000000E+01 0.  1.
          4   -1    0    0  501    0  0.00000000000E+00 -0.00000000000E+00 -0.78051952892E+03  0.78052056214E+03  0.12700000000E+01 0.  1.
    9000005    1    1    2    0    0 -0.47879774099E+02 -0.32356476310E+02 -0.24399672068E+03  0.25074850753E+03  0.10000000000E+01 0.  0.
    9000005    1    1    2    0    0  0.47879774099E+02  0.32356476310E+02 -0.53166290561E+03  0.53479515660E+03  0.10000000000E+01 0.  0.
<mgrwt>
<rscale>  0 0.12422155E+03</rscale>
<asrwt>0</asrwt>
<pdfrwt beam="2">  1        4 0.12009246E+00 0.12422155E+03</pdfrwt>
<pdfrwt beam="1">  1       -4 0.76031122E-03 0.12422155E+03</pdfrwt>
<totfact> 0.39587852E+03</totfact>
</mgrwt>
</event>
<event>
 5    1  0.3270363E-002  0.1250024E+03  0.7818608E-02  0.1235065E+00
         -4   -1    0    0    0  501 -0.00000000000E+00  0.00000000000E+00  0.19227314149E+03  0.19227733573E+03  0.12700000000E+01 0.  1.
          4   -1    0    0  501    0  0.00000000000E+00 -0.00000000000E+00 -0.20292674727E+02  0.20332376830E+02  0.12700000000E+01 0.  1.
         25    2    1    2    0    0  0.00000000000E+00  0.00000000000E+00  0.17198046676E+03  0.21260971256E+03  0.12500243570E+03 0.  0.
    9000005    1    3    3    0    0 -0.44157456851E+02  0.44113770543E+02  0.91231618582E+02  0.11054462437E+03  0.10000000000E+01 0.  0.
    9000005    1    3    3    0    0  0.44157456851E+02 -0.44113770543E+02  0.80748848177E+02  0.10206508820E+03  0.10000000000E+01 0.  0.
<mgrwt>
<rscale>  0 0.12500244E+03</rscale>
<asrwt>0</asrwt>
<pdfrwt beam="2">  1        4 0.31253267E-02 0.12500244E+03</pdfrwt>
<pdfrwt beam="1">  1       -4 0.29583859E-01 0.12500244E+03</pdfrwt>
<totfact> 0.88046653E+03</totfact>
</mgrwt>
</event>
<event>
 5    1  0.3270363E-002  0.1250077E+03  0.7818608E-02  0.1235057E+00
         -4   -1    0    0    0  501 -0.00000000000E+00  0.00000000000E+00  0.16108618175E+03  0.16109118800E+03  0.12700000000E+01 0. -1.
          4   -1    0    0  501    0  0.00000000000E+00 -0.00000000000E+00 -0.24230421999E+02  0.24263681712E+02  0.12700000000E+01 0. -1.
         25    2    1    2    0    0  0.00000000000E+00  0.00000000000E+00  0.13685575975E+03  0.18535486971E+03  0.12500771476E+03 0.  0.
    9000005    1    3    3    0    0  0.16990860472E+02 -0.52898876669E+02  0.11085497429E+03  0.12400324922E+03  0.10000000000E+01 0.  0.
    9000005    1    3    3    0    0 -0.16990860472E+02  0.52898876669E+02  0.26000785464E+02  0.61351620493E+02  0.10000000000E+01 0.  0.
<mgrwt>
<rscale>  0 0.12500771E+03</rscale>
<asrwt>0</asrwt>
<pdfrwt beam="2">  1        4 0.37307008E-02 0.12500771E+03</pdfrwt>
<pdfrwt beam="1">  1       -4 0.24785433E-01 0.12500771E+03</pdfrwt>
<totfact> 0.92645875E+03</totfact>
</mgrwt>
</event>
<event>
 4    1  0.3270363E-002  0.1249253E+03  0.7818608E-02  0.1235186E+00
         -4   -1    0    0    0  501 -0.00000000000E+00  0.00000000000E+00  0.15278212542E+03  0.15278740376E+03  0.12700000000E+01 0.  1.
          4   -1    0    0  501    0  0.00000000000E+00 -0.00000000000E+00 -0.25515409674E+02  0.25546996513E+02  0.12700000000E+01 0.  1.
    9000005    1    1    2    0    0  0.82046092243E+01  0.38046228656E+02  0.13335978700E+03  0.13892682936E+03  0.10000000000E+01 0.  0.
    9000005    1    1    2    0    0 -0.82046092243E+01 -0.38046228656E+02 -0.60930712603E+01  0.39407570907E+02  0.10000000000E+01 0.  0.
<mgrwt>
<rscale>  0 0.12492534E+03</rscale>
<asrwt>0</asrwt>
<pdfrwt beam="2">  1        4 0.39282834E-02 0.12492534E+03</pdfrwt>
<pdfrwt beam="1">  1       -4 0.23507778E-01 0.12492534E+03</pdfrwt>
<totfact> 0.94075091E+03</totfact>
</mgrwt>
</event>
<event>
 5    1  0.3270363E-002  0.1249965E+03  0.7818608E-02  0.1235075E+00
          4   -1    0    0  501    0  0.00000000000E+00  0.00000000000E+00  0.37439098996E+02  0.37460633118E+02  0.12700000000E+01 0.  1.
         -4   -1    0    0    0  501 -0.00000000000E+00 -0.00000000000E+00 -0.10427479388E+03  0.10428252748E+03  0.12700000000E+01 0.  1.
         25    2    1    2    0    0  0.00000000000E+00  0.00000000000E+00 -0.66835694881E+02  0.14174316060E+03  0.12499645382E+03 0.  0.
    9000005    1    3    3    0    0  0.59493764630E+02  0.17876772647E+02 -0.41103951034E+02  0.74495783912E+02  0.10000000000E+01 0.  0.
    9000005    1    3    3    0    0 -0.59493764630E+02 -0.17876772647E+02 -0.25731743847E+02  0.67247376689E+02  0.10000000000E+01 0.  0.
<mgrwt>
<rscale>  0 0.12499645E+03</rscale>
<asrwt>0</asrwt>
<pdfrwt beam="1">  1        4 0.57621128E-02 0.12499645E+03</pdfrwt>
<pdfrwt beam="2">  1       -4 0.16044527E-01 0.12499645E+03</pdfrwt>
<totfact> 0.10098392E+04</totfact>
</mgrwt>
</event>
<event>
 5    1  0.3270363E-002  0.1249989E+03  0.7818608E-02  0.1235071E+00
          4   -1    0    0  501    0  0.00000000000E+00  0.00000000000E+00  0.40022589857E+02  0.40042734657E+02  0.12700000000E+01 0.  1.
         -4   -1    0    0    0  501 -0.00000000000E+00 -0.00000000000E+00 -0.97550557597E+02  0.97558824242E+02  0.12700000000E+01 0.  1.
         25    2    1    2    0    0  0.00000000000E+00  0.00000000000E+00 -0.57527967740E+02  0.13760155890E+03  0.12499888775E+03 0.  0.
    9000005    1    3    3    0    0  0.27784639996E+01 -0.26767898664E+02  0.33322198950E+02  0.42844010130E+02  0.10000000000E+01 0.  0.
    9000005    1    3    3    0    0 -0.27784639996E+01  0.26767898664E+02 -0.90850166690E+02  0.94757548769E+02  0.10000000000E+01 0.  0.
<mgrwt>
<rscale>  0 0.12499889E+03</rscale>
<asrwt>0</asrwt>
<pdfrwt beam="1">  1        4 0.61595070E-02 0.12499889E+03</pdfrwt>
<pdfrwt beam="2">  1       -4 0.15009964E-01 0.12499889E+03</pdfrwt>
<totfact> 0.10183778E+04</totfact>
</mgrwt>
</event>
<event>
 5    1  0.3270363E-002  0.1250256E+03  0.7818608E-02  0.1235029E+00
         -4   -1    0    0    0  501 -0.00000000000E+00  0.00000000000E+00  0.63817038693E+02  0.63829674350E+02  0.12700000000E+01 0. -1.
          4   -1    0    0  501    0  0.00000000000E+00 -0.00000000000E+00 -0.61209969662E+02  0.61223143385E+02  0.12700000000E+01 0. -1.
         25    2    1    2    0    0  0.00000000000E+00  0.00000000000E+00  0.26070690317E+01  0.12505281774E+03  0.12502563903E+03 0.  0.
    9000005    1    3    3    0    0  0.74117518449E+01 -0.18237146531E+02  0.60640329916E+02  0.63763447141E+02  0.10000000000E+01 0.  0.
    9000005    1    3    3    0    0 -0.74117518449E+01  0.18237146531E+02 -0.58033260884E+02  0.61289370594E+02  0.10000000000E+01 0.  0.
<mgrwt>
<rscale>  0 0.12502564E+03</rscale>
<asrwt>0</asrwt>
<pdfrwt beam="2">  1        4 0.94189038E-02 0.12502564E+03</pdfrwt>
<pdfrwt beam="1">  1       -4 0.98199912E-02 0.12502564E+03</pdfrwt>
<totfact> 0.10445661E+04</totfact>
</mgrwt>
</event>
<event>
 5    1  0.3270363E-002  0.1249988E+03  0.7818608E-02  0.1235071E+00
         -4   -1    0    0    0  501 -0.00000000000E+00  0.00000000000E+00  0.59932116667E+03  0.59932251228E+03  0.12700000000E+01 0. -1.
          4   -1    0    0  501    0  0.00000000000E+00 -0.00000000000E+00 -0.64544300602E+01  0.65781887630E+01  0.12700000000E+01 0. -1.
         25    2    1    2    0    0  0.00000000000E+00  0.00000000000E+00  0.59286673661E+03  0.60590070104E+03  0.12499876855E+03 0.  0.
    9000005    1    3    3    0    0 -0.50994468390E+02  0.35975074771E+02  0.31216360069E+03  0.31834219859E+03  0.10000000000E+01 0.  0.
    9000005    1    3    3    0    0  0.50994468390E+02 -0.35975074771E+02  0.28070313593E+03  0.28755850245E+03  0.10000000000E+01 0.  0.
<mgrwt>
<rscale>  0 0.12499877E+03</rscale>
<asrwt>0</asrwt>
<pdfrwt beam="2">  1        4 0.10026124E-02 0.12499877E+03</pdfrwt>
<pdfrwt beam="1">  1       -4 0.92212899E-01 0.12499877E+03</pdfrwt>
<totfact> 0.48498548E+03</totfact>
</mgrwt>
</event>
<event>
 5    1  0.3270363E-002  0.1249991E+03  0.7818608E-02  0.1235071E+00
          4   -1    0    0  501    0  0.00000000000E+00  0.00000000000E+00  0.43606178255E+02  0.43624668274E+02  0.12700000000E+01 0.  1.
         -4   -1    0    0    0  501 -0.00000000000E+00 -0.00000000000E+00 -0.89536855211E+02  0.89545861663E+02  0.12700000000E+01 0.  1.
         25    2    1    2    0    0  0.00000000000E+00  0.00000000000E+00 -0.45930676956E+02  0.13317052994E+03  0.12499905183E+03 0.  0.
    9000005    1    3    3    0    0 -0.54193678514E+02  0.53599026738E+01 -0.55620475467E+02  0.77848061240E+02  0.10000000000E+01 0.  0.
    9000005    1    3    3    0    0  0.54193678514E+02 -0.53599026738E+01  0.96897985117E+01  0.55322468697E+02  0.10000000000E+01 0.  0.
<mgrwt>
<rscale>  0 0.12499905E+03</rscale>
<asrwt>0</asrwt>
<pdfrwt beam="1">  1        4 0.67107579E-02 0.12499905E+03</pdfrwt>
<pdfrwt beam="2">  1       -4 0.13777016E-01 0.12499905E+03</pdfrwt>
<totfact> 0.10276997E+04</totfact>
</mgrwt>
</event>
<event>
 5    1  0.3270363E-002  0.1249925E+03  0.7818608E-02  0.1235081E+00
         -4   -1    0    0    0  501 -0.00000000000E+00  0.00000000000E+00  0.20353461609E+02  0.20393045370E+02  0.12700000000E+01 0. -1.
          4   -1    0    0  501    0  0.00000000000E+00 -0.00000000000E+00 -0.19166961768E+03  0.19167382514E+03  0.12700000000E+01 0. -1.
         25    2    1    2    0    0  0.00000000000E+00  0.00000000000E+00 -0.17131615607E+03  0.21206687051E+03  0.12499252871E+03 0.  0.
    9000005    1    3    3    0    0  0.10250221852E+02  0.24852384265E+02 -0.18136513891E+03  0.18334945231E+03  0.10000000000E+01 0.  0.
    9000005    1    3    3    0    0 -0.10250221852E+02 -0.24852384265E+02  0.10048982836E+02  0.28717418194E+02  0.10000000000E+01 0.  0.
<mgrwt>
<rscale>  0 0.12499253E+03</rscale>
<asrwt>0</asrwt>
<pdfrwt beam="2">  1        4 0.29491001E-01 0.12499253E+03</pdfrwt>
<pdfrwt beam="1">  1       -4 0.31346705E-02 0.12499253E+03</pdfrwt>
<totfact> 0.88154164E+03</totfact>
</mgrwt>
</event>
<event>
 5    1  0.3270363E-002  0.1249998E+03  0.7818608E-02  0.1235070E+00
         -4   -1    0    0    0  501 -0.00000000000E+00  0.00000000000E+00  0.21766487473E+01  0.25200594773E+01  0.12700000000E+01 0.  1.
          4   -1    0    0  501    0  0.00000000000E+00 -0.00000000000E+00 -0.16630492943E+04  0.16630497793E+04  0.12700000000E+01 0.  1.
         25    2    1    2    0    0  0.00000000000E+00  0.00000000000E+00 -0.16608726456E+04  0.16655698387E+04  0.12499977137E+03 0.  0.
    9000005    1    3    3    0    0  0.13112870100E+02  0.20848682787E+02 -0.15957153720E+04  0.15959057502E+04  0.10000000000E+01 0.  0.
    9000005    1    3    3    0    0 -0.13112870100E+02 -0.20848682787E+02 -0.65157273563E+02  0.69664088556E+02  0.10000000000E+01 0.  0.
<mgrwt>
<rscale>  0 0.12499977E+03</rscale>
<asrwt>0</asrwt>
<pdfrwt beam="2">  1        4 0.25587925E+00 0.12499977E+03</pdfrwt>
<pdfrwt beam="1">  1       -4 0.36132388E-03 0.12499977E+03</pdfrwt>
<totfact> 0.14890687E+03</totfact>
</mgrwt>
</event>
<event>
 4    1  0.3270363E-002  0.1249193E+03  0.7818608E-02  0.1235195E+00
         -4   -1    0    0    0  501 -0.00000000000E+00  0.00000000000E+00  0.38120726165E+03  0.38120937716E+03  0.12700000000E+01 0.  1.
          4   -1    0    0  501    0  0.00000000000E+00 -0.00000000000E+00 -0.10192268732E+02  0.10271087670E+02  0.12700000000E+01 0.  1.
    9000005    1    1    2    0    0 -0.47690725546E+02 -0.27935911904E+02  0.27662636775E+03  0.28209567138E+03  0.10000000000E+01 0.  0.
    9000005    1    1    2    0    0  0.47690725546E+02  0.27935911904E+02  0.94388625172E+02  0.10938479345E+03  0.10000000000E+01 0.  0.
<mgrwt>
<rscale>  0 0.12491929E+03</rscale>
<asrwt>0</asrwt>
<pdfrwt beam="2">  1        4 0.15742671E-02 0.12491929E+03</pdfrwt>
<pdfrwt beam="1">  1       -4 0.58653494E-01 0.12491929E+03</pdfrwt>
<totfact> 0.65506602E+03</totfact>
</mgrwt>
</event>
<event>
 5    1  0.3270363E-002  0.1249994E+03  0.7818608E-02  0.1235070E+00
         -4   -1    0    0    0  501 -0.00000000000E+00  0.00000000000E+00  0.20179261113E+02  0.20219185915E+02  0.12700000000E+01 0. -1.
          4   -1    0    0  501    0  0.00000000000E+00 -0.00000000000E+00 -0.19334239138E+03  0.19334656244E+03  0.12700000000E+01 0. -1.
         25    2    1    2    0    0  0.00000000000E+00  0.00000000000E+00 -0.17316313027E+03  0.21356574835E+03  0.12499943673E+03 0.  0.
    9000005    1    3    3    0    0 -0.66887657197E+01  0.47543011028E+02 -0.15492584502E+03  0.16219770325E+03  0.10000000000E+01 0.  0.
    9000005    1    3    3    0    0  0.66887657197E+01 -0.47543011028E+02 -0.18237285254E+02  0.51368045105E+02  0.10000000000E+01 0.  0.
<mgrwt>
<rscale>  0 0.12499944E+03</rscale>
<asrwt>0</asrwt>
<pdfrwt beam="2">  1        4 0.29748374E-01 0.12499944E+03</pdfrwt>
<pdfrwt beam="1">  1       -4 0.31078938E-02 0.12499944E+03</pdfrwt>
<totfact> 0.87897946E+03</totfact>
</mgrwt>
</event>
<event>
 5    1  0.3270363E-002  0.1250177E+03  0.7818608E-02  0.1235042E+00
         -4   -1    0    0    0  501 -0.00000000000E+00  0.00000000000E+00  0.23499774899E+02  0.23534067228E+02  0.12700000000E+01 0.  1.
          4   -1    0    0  501    0  0.00000000000E+00 -0.00000000000E+00 -0.16611424084E+03  0.16611909556E+03  0.12700000000E+01 0.  1.
         25    2    1    2    0    0  0.00000000000E+00  0.00000000000E+00 -0.14261446594E+03  0.18965316279E+03  0.12501774378E+03 0.  0.
    9000005    1    3    3    0    0 -0.39560884353E+01 -0.60552633834E+02 -0.94016166042E+02  0.11190313480E+03  0.10000000000E+01 0.  0.
    9000005    1    3    3    0    0  0.39560884353E+01  0.60552633834E+02 -0.48598299903E+02  0.77750027996E+02  0.10000000000E+01 0.  0.
<mgrwt>
<rscale>  0 0.12501774E+03</rscale>
<asrwt>0</asrwt>
<pdfrwt beam="2">  1        4 0.25559048E-01 0.12501774E+03</pdfrwt>
<pdfrwt beam="1">  1       -4 0.36183614E-02 0.12501774E+03</pdfrwt>
<totfact> 0.91871177E+03</totfact>
</mgrwt>
</event>
<event>
 5    1  0.3270363E-002  0.1249957E+03  0.7818608E-02  0.1235076E+00
          4   -1    0    0  501    0  0.00000000000E+00  0.00000000000E+00  0.54128459184E+02  0.54143355951E+02  0.12700000000E+01 0. -1.
         -4   -1    0    0    0  501 -0.00000000000E+00 -0.00000000000E+00 -0.72130862000E+02  0.72142041507E+02  0.12700000000E+01 0. -1.
         25    2    1    2    0    0  0.00000000000E+00  0.00000000000E+00 -0.18002402816E+02  0.12628539746E+03  0.12499566034E+03 0.  0.
    9000005    1    3    3    0    0 -0.19850439713E+02 -0.22313800877E+02  0.46456281272E+02  0.55237050392E+02  0.10000000000E+01 0.  0.
    9000005    1    3    3    0    0  0.19850439713E+02  0.22313800877E+02 -0.64458684089E+02  0.71048347066E+02  0.10000000000E+01 0.  0.
<mgrwt>
<rscale>  0 0.12499566E+03</rscale>
<asrwt>0</asrwt>
<pdfrwt beam="1">  1        4 0.83294612E-02 0.12499566E+03</pdfrwt>
<pdfrwt beam="2">  1       -4 0.11099061E-01 0.12499566E+03</pdfrwt>
<totfact> 0.10425733E+04</totfact>
</mgrwt>
</event>
<event>
 5    1  0.3270363E-002  0.1249989E+03  0.7818608E-02  0.1235071E+00
          4   -1    0    0  501    0  0.00000000000E+00  0.00000000000E+00  0.19817143828E+03  0.19817550769E+03  0.12700000000E+01 0.  1.
         -4   -1    0    0    0  501 -0.00000000000E+00 -0.00000000000E+00 -0.19686396757E+02  0.19727319059E+02  0.12700000000E+01 0.  1.
         25    2    1    2    0    0  0.00000000000E+00  0.00000000000E+00  0.17848504152E+03  0.21790282675E+03  0.12499892743E+03 0.  0.
    9000005    1    3    3    0    0 -0.17193983770E+02  0.54157689747E+02  0.43901768456E+02  0.71812629183E+02  0.10000000000E+01 0.  0.
    9000005    1    3    3    0    0  0.17193983770E+02 -0.54157689747E+02  0.13458327307E+03  0.14609019757E+03  0.10000000000E+01 0.  0.
<mgrwt>
<rscale>  0 0.12499893E+03</rscale>
<asrwt>0</asrwt>
<pdfrwt beam="1">  1        4 0.30491375E-01 0.12499893E+03</pdfrwt>
<pdfrwt beam="2">  1       -4 0.30321372E-02 0.12499893E+03</pdfrwt>
<totfact> 0.87203379E+03</totfact>
</mgrwt>
</event>
<event>
 5    1  0.3270363E-002  0.1250036E+03  0.7818608E-02  0.1235064E+00
         -4   -1    0    0    0  501 -0.00000000000E+00  0.00000000000E+00  0.92742287049E+02  0.92750982243E+02  0.12700000000E+01 0.  1.
          4   -1    0    0  501    0  0.00000000000E+00 -0.00000000000E+00 -0.42101579860E+02  0.42120730368E+02  0.12700000000E+01 0.  1.
         25    2    1    2    0    0  0.00000000000E+00  0.00000000000E+00  0.50640707189E+02  0.13487171261E+03  0.12500359050E+03 0.  0.
    9000005    1    3    3    0    0 -0.28885189360E+02 -0.99898080128E+01  0.84133361155E+02  0.89518561694E+02  0.10000000000E+01 0.  0.
    9000005    1    3    3    0    0  0.28885189360E+02  0.99898080128E+01 -0.33492653966E+02  0.45353150918E+02  0.10000000000E+01 0.  0.
<mgrwt>
<rscale>  0 0.12500359E+03</rscale>
<asrwt>0</asrwt>
<pdfrwt beam="2">  1        4 0.64793082E-02 0.12500359E+03</pdfrwt>
<pdfrwt beam="1">  1       -4 0.14270186E-01 0.12500359E+03</pdfrwt>
<totfact> 0.10239946E+04</totfact>
</mgrwt>
</event>
<event>
 5    1  0.3270363E-002  0.1250044E+03  0.7818608E-02  0.1235062E+00
         -4   -1    0    0    0  501 -0.00000000000E+00  0.00000000000E+00  0.13689560180E+03  0.13690149266E+03  0.12700000000E+01 0.  1.
          4   -1    0    0  501    0  0.00000000000E+00 -0.00000000000E+00 -0.28515890258E+02  0.28544156972E+02  0.12700000000E+01 0.  1.
         25    2    1    2    0    0  0.00000000000E+00  0.00000000000E+00  0.10837971154E+03  0.16544564963E+03  0.12500440435E+03 0.  0.
    9000005    1    3    3    0    0  0.53772818707E+02  0.29094331158E+02  0.71320559964E+02  0.93944762551E+02  0.10000000000E+01 0.  0.
    9000005    1    3    3    0    0 -0.53772818707E+02 -0.29094331158E+02  0.37059151574E+02  0.71500887076E+02  0.10000000000E+01 0.  0.
<mgrwt>
<rscale>  0 0.12500440E+03</rscale>
<asrwt>0</asrwt>
<pdfrwt beam="2">  1        4 0.43896876E-02 0.12500440E+03</pdfrwt>
<pdfrwt beam="1">  1       -4 0.21063489E-01 0.12500440E+03</pdfrwt>
<totfact> 0.96293532E+03</totfact>
</mgrwt>
</event>
<event>
 5    1  0.3270363E-002  0.1249986E+03  0.7818608E-02  0.1235071E+00
          4   -1    0    0  501    0  0.00000000000E+00  0.00000000000E+00  0.45741037835E+02  0.45758665214E+02  0.12700000000E+01 0.  1.
         -4   -1    0    0    0  501 -0.00000000000E+00 -0.00000000000E+00 -0.85358576114E+02  0.85368023382E+02  0.12700000000E+01 0.  1.
         25    2    1    2    0    0  0.00000000000E+00  0.00000000000E+00 -0.39617538279E+02  0.13112668860E+03  0.12499863648E+03 0.  0.
    9000005    1    3    3    0    0 -0.16841129125E+02  0.18096050829E+02  0.40398995064E+02  0.47372666042E+02  0.10000000000E+01 0.  0.
    9000005    1    3    3    0    0  0.16841129125E+02 -0.18096050829E+02 -0.80016533343E+02  0.83754022554E+02  0.10000000000E+01 0.  0.
<mgrwt>
<rscale>  0 0.12499864E+03</rscale>
<asrwt>0</asrwt>
<pdfrwt beam="1">  1        4 0.70391654E-02 0.12499864E+03</pdfrwt>
<pdfrwt beam="2">  1       -4 0.13134171E-01 0.12499864E+03</pdfrwt>
<totfact> 0.10320692E+04</totfact>
</mgrwt>
</event>
<event>
 5    1  0.3270363E-002  0.1249996E+03  0.7818608E-02  0.1235070E+00
         -4   -1    0    0    0  501 -0.00000000000E+00  0.00000000000E+00  0.21518774742E+02  0.21556218740E+02  0.12700000000E+01 0.  1.
          4   -1    0    0  501    0  0.00000000000E+00 -0.00000000000E+00 -0.18132876713E+03  0.18133321452E+03  0.12700000000E+01 0.  1.
         25    2    1    2    0    0  0.00000000000E+00  0.00000000000E+00 -0.15980999239E+03  0.20288943326E+03  0.12499955385E+03 0.  0.
    9000005    1    3    3    0    0 -0.12422646568E+02 -0.83729569850E+01 -0.17837902272E+03  0.17900978829E+03  0.10000000000E+01 0.  0.
    9000005    1    3    3    0    0  0.12422646568E+02  0.83729569850E+01  0.18569030334E+02  0.23879644972E+02  0.10000000000E+01 0.  0.
<mgrwt>
<rscale>  0 0.12499955E+03</rscale>
<asrwt>0</asrwt>
<pdfrwt beam="2">  1        4 0.27899955E-01 0.12499955E+03</pdfrwt>
<pdfrwt beam="1">  1       -4 0.33138033E-02 0.12499955E+03</pdfrwt>
<totfact> 0.89651353E+03</totfact>
</mgrwt>
</event>
<event>
 5    1  0.3270363E-002  0.1250004E+03  0.7818608E-02  0.1235069E+00
         -4   -1    0    0    0  501 -0.00000000000E+00  0.00000000000E+00  0.11052142943E+03  0.11052872596E+03  0.12700000000E+01 0. -1.
          4   -1    0    0  501    0  0.00000000000E+00 -0.00000000000E+00 -0.35324169873E+02  0.35346992478E+02  0.12700000000E+01 0. -1.
         25    2    1    2    0    0  0.00000000000E+00  0.00000000000E+00  0.75197259553E+02  0.14587571844E+03  0.12500038954E+03 0.  0.
    9000005    1    3    3    0    0 -0.26931068853E+01 -0.45446121724E+02  0.87557655409E+02  0.98691163865E+02  0.10000000000E+01 0.  0.
    9000005    1    3    3    0    0  0.26931068853E+01  0.45446121724E+02 -0.12360395856E+02  0.47184554572E+02  0.10000000000E+01 0.  0.
<mgrwt>
<rscale>  0 0.12500039E+03</rscale>
<asrwt>0</asrwt>
<pdfrwt beam="2">  1        4 0.54368046E-02 0.12500039E+03</pdfrwt>
<pdfrwt beam="1">  1       -4 0.17005613E-01 0.12500039E+03</pdfrwt>
<totfact> 0.10013138E+04</totfact>
</mgrwt>
</event>
<event>
 5    1  0.3270363E-002  0.1250042E+03  0.7818608E-02  0.1235063E+00
          4   -1    0    0  501    0  0.00000000000E+00  0.00000000000E+00  0.16224110388E+04  0.16224115359E+04  0.12700000000E+01 0. -1.
         -4   -1    0    0    0  501 -0.00000000000E+00 -0.00000000000E+00 -0.22398496895E+01  0.25748449724E+01  0.12700000000E+01 0. -1.
         25    2    1    2    0    0  0.00000000000E+00  0.00000000000E+00  0.16201711891E+04  0.16249863808E+04  0.12500422351E+03 0.  0.
    9000005    1    3    3    0    0 -0.57131756717E+02  0.24905573946E+02  0.75024752820E+03  0.75283243740E+03  0.10000000000E+01 0.  0.
    9000005    1    3    3    0    0  0.57131756717E+02 -0.24905573946E+02  0.86992366091E+03  0.87215394344E+03  0.10000000000E+01 0.  0.
<mgrwt>
<rscale>  0 0.12500422E+03</rscale>
<asrwt>0</asrwt>
<pdfrwt beam="1">  1        4 0.24962839E+00 0.12500422E+03</pdfrwt>
<pdfrwt beam="2">  1       -4 0.37039805E-03 0.12500422E+03</pdfrwt>
<totfact> 0.15597108E+03</totfact>
</mgrwt>
</event>
<event>
 5    1  0.3270363E-002  0.1250001E+03  0.7818608E-02  0.1235069E+00
          4   -1    0    0  501    0  0.00000000000E+00  0.00000000000E+00  0.21936914182E+02  0.21973645666E+02  0.12700000000E+01 0. -1.
         -4   -1    0    0    0  501 -0.00000000000E+00 -0.00000000000E+00 -0.17787965866E+03  0.17788419229E+03  0.12700000000E+01 0. -1.
         25    2    1    2    0    0  0.00000000000E+00  0.00000000000E+00 -0.15594274448E+03  0.19985783795E+03  0.12500006334E+03 0.  0.
    9000005    1    3    3    0    0 -0.10818990960E+02  0.45289543629E+02 -0.14460883313E+03  0.15192402031E+03  0.10000000000E+01 0.  0.
    9000005    1    3    3    0    0  0.10818990960E+02 -0.45289543629E+02 -0.11333911351E+02  0.47933817645E+02  0.10000000000E+01 0.  0.
<mgrwt>
<rscale>  0 0.12500006E+03</rscale>
<asrwt>0</asrwt>
<pdfrwt beam="1">  1        4 0.33780842E-02 0.12500006E+03</pdfrwt>
<pdfrwt beam="2">  1       -4 0.27369275E-01 0.12500006E+03</pdfrwt>
<totfact> 0.90159361E+03</totfact>
</mgrwt>
</event>
<event>
 5    1  0.3270363E-002  0.1250031E+03  0.7818608E-02  0.1235064E+00
          4   -1    0    0  501    0  0.00000000000E+00  0.00000000000E+00  0.13665239139E+02  0.13724126957E+02  0.12700000000E+01 0. -1.
         -4   -1    0    0    0  501 -0.00000000000E+00 -0.00000000000E+00 -0.28519223999E+03  0.28519506772E+03  0.12700000000E+01 0. -1.
         25    2    1    2    0    0  0.00000000000E+00  0.00000000000E+00 -0.27152700085E+03  0.29891919467E+03  0.12500309098E+03 0.  0.
    9000005    1    3    3    0    0 -0.26393967727E+01  0.62417682441E+02 -0.13197521025E+03  0.14601845642E+03  0.10000000000E+01 0.  0.
    9000005    1    3    3    0    0  0.26393967727E+01 -0.62417682441E+02 -0.13955179060E+03  0.15290073825E+03  0.10000000000E+01 0.  0.
<mgrwt>
<rscale>  0 0.12500309E+03</rscale>
<asrwt>0</asrwt>
<pdfrwt beam="1">  1        4 0.21070920E-02 0.12500309E+03</pdfrwt>
<pdfrwt beam="2">  1       -4 0.43880472E-01 0.12500309E+03</pdfrwt>
<totfact> 0.75729418E+03</totfact>
</mgrwt>
</event>
<event>
 5    1  0.3270363E-002  0.1249661E+03  0.7818608E-02  0.1235122E+00
          4   -1    0    0  501    0  0.00000000000E+00  0.00000000000E+00  0.16010971968E+03  0.16011475646E+03  0.12700000000E+01 0.  1.
         -4   -1    0    0    0  501 -0.00000000000E+00 -0.00000000000E+00 -0.24362124277E+02  0.24395204432E+02  0.12700000000E+01 0.  1.
         25    2    1    2    0    0  0.00000000000E+00  0.00000000000E+00  0.13574759540E+03  0.18450996089E+03  0.12496605943E+03 0.  0.
    9000005    1    3    3    0    0  0.24375547378E+02  0.50786812980E+02  0.27990743967E+02  0.62912235936E+02  0.10000000000E+01 0.  0.
    9000005    1    3    3    0    0 -0.24375547378E+02 -0.50786812980E+02  0.10775685143E+03  0.12159772495E+03  0.10000000000E+01 0.  0.
<mgrwt>
<rscale>  0 0.12496606E+03</rscale>
<asrwt>0</asrwt>
<pdfrwt beam="1">  1        4 0.24635197E-01 0.12496606E+03</pdfrwt>
<pdfrwt beam="2">  1       -4 0.37509511E-02 0.12496606E+03</pdfrwt>
<totfact> 0.92882070E+03</totfact>
</mgrwt>
</event>
<event>
 5    1  0.3270363E-002  0.1249962E+03  0.7818608E-02  0.1235075E+00
         -4   -1    0    0    0  501 -0.00000000000E+00  0.00000000000E+00  0.12222735147E+03  0.12223394924E+03  0.12700000000E+01 0.  1.
          4   -1    0    0  501    0  0.00000000000E+00 -0.00000000000E+00 -0.31936874799E+02  0.31962116199E+02  0.12700000000E+01 0.  1.
         25    2    1    2    0    0  0.00000000000E+00  0.00000000000E+00  0.90290476668E+02  0.15419606544E+03  0.12499622562E+03 0.  0.
    9000005    1    3    3    0    0  0.13688543217E+02 -0.34183360489E+02  0.10742871905E+03  0.11356851688E+03  0.10000000000E+01 0.  0.
    9000005    1    3    3    0    0 -0.13688543217E+02  0.34183360489E+02 -0.17138242383E+02  0.40627548556E+02  0.10000000000E+01 0.  0.
<mgrwt>
<rscale>  0 0.12499623E+03</rscale>
<asrwt>0</asrwt>
<pdfrwt beam="2">  1        4 0.49158145E-02 0.12499623E+03</pdfrwt>
<pdfrwt beam="1">  1       -4 0.18806657E-01 0.12499623E+03</pdfrwt>
<totfact> 0.98481913E+03</totfact>
</mgrwt>
</event>
<event>
 5    1  0.3270363E-002  0.1249935E+03  0.7818608E-02  0.1235080E+00
         -4   -1    0    0    0  501 -0.00000000000E+00  0.00000000000E+00  0.27427922506E+04  0.27427925446E+04  0.12700000000E+01 0.  1.
          4   -1    0    0  501    0  0.00000000000E+00 -0.00000000000E+00 -0.11405296678E+01  0.17069586765E+01  0.12700000000E+01 0.  1.
         25    2    1    2    0    0  0.00000000000E+00  0.00000000000E+00  0.27416517209E+04  0.27444995033E+04  0.12499345876E+03 0.  0.
    9000005    1    3    3    0    0  0.77499211988E+01  0.59875789004E+02  0.17246492909E+04  0.17257060433E+04  0.10000000000E+01 0.  0.
    9000005    1    3    3    0    0 -0.77499211988E+01 -0.59875789004E+02  0.10170024300E+04  0.10187934599E+04  0.10000000000E+01 0.  0.
<mgrwt>
<rscale>  0 0.12499346E+03</rscale>
<asrwt>0</asrwt>
<pdfrwt beam="2">  1        4 0.21906156E-03 0.12499346E+03</pdfrwt>
<pdfrwt beam="1">  1       -4 0.42200899E+00 0.12499346E+03</pdfrwt>
<totfact> 0.30212530E+02</totfact>
</mgrwt>
</event>
<event>
 5    1  0.3270363E-002  0.1249999E+03  0.7818608E-02  0.1235069E+00
          4   -1    0    0  501    0  0.00000000000E+00  0.00000000000E+00  0.22937097749E+03  0.22937449338E+03  0.12700000000E+01 0.  1.
         -4   -1    0    0    0  501 -0.00000000000E+00 -0.00000000000E+00 -0.17002906490E+02  0.17050270646E+02  0.12700000000E+01 0.  1.
         25    2    1    2    0    0  0.00000000000E+00  0.00000000000E+00  0.21236807100E+03  0.24642476403E+03  0.12499986699E+03 0.  0.
    9000005    1    3    3    0    0 -0.53041938420E+02  0.23689484820E+02  0.15159487729E+03  0.16234729977E+03  0.10000000000E+01 0.  0.
    9000005    1    3    3    0    0  0.53041938420E+02 -0.23689484820E+02  0.60773193711E+02  0.84077464259E+02  0.10000000000E+01 0.  0.
<mgrwt>
<rscale>  0 0.12499987E+03</rscale>
<asrwt>0</asrwt>
<pdfrwt beam="1">  1        4 0.35291754E-01 0.12499987E+03</pdfrwt>
<pdfrwt beam="2">  1       -4 0.26197458E-02 0.12499987E+03</pdfrwt>
<totfact> 0.82849968E+03</totfact>
</mgrwt>
</event>
<event>
 5    1  0.3270363E-002  0.1249980E+03  0.7818608E-02  0.1235072E+00
         -4   -1    0    0    0  501 -0.00000000000E+00  0.00000000000E+00  0.16024868855E+02  0.16075114986E+02  0.12700000000E+01 0.  1.
          4   -1    0    0  501    0  0.00000000000E+00 -0.00000000000E+00 -0.24332061044E+03  0.24332392477E+03  0.12700000000E+01 0.  1.
         25    2    1    2    0    0  0.00000000000E+00  0.00000000000E+00 -0.22729574159E+03  0.25939903976E+03  0.12499803072E+03 0.  0.
    9000005    1    3    3    0    0 -0.27270709558E+02 -0.50764542116E+02 -0.63480767191E+02  0.85741111138E+02  0.10000000000E+01 0.  0.
    9000005    1    3    3    0    0  0.27270709558E+02  0.50764542116E+02 -0.16381497439E+03  0.17365792862E+03  0.10000000000E+01 0.  0.
<mgrwt>
<rscale>  0 0.12499803E+03</rscale>
<asrwt>0</asrwt>
<pdfrwt beam="2">  1        4 0.37438058E-01 0.12499803E+03</pdfrwt>
<pdfrwt beam="1">  1       -4 0.24694846E-02 0.12499803E+03</pdfrwt>
<totfact> 0.80994023E+03</totfact>
</mgrwt>
</event>
<event>
 5    1  0.3270363E-002  0.1249937E+03  0.7818608E-02  0.1235079E+00
          4   -1    0    0  501    0  0.00000000000E+00  0.00000000000E+00  0.12089984803E+01  0.17534472691E+01  0.12700000000E+01 0.  1.
         -4   -1    0    0    0  501 -0.00000000000E+00 -0.00000000000E+00 -0.26363669280E+04  0.26363672339E+04  0.12700000000E+01 0.  1.
         25    2    1    2    0    0  0.00000000000E+00  0.00000000000E+00 -0.26351579295E+04  0.26381206811E+04  0.12499365933E+03 0.  0.
    9000005    1    3    3    0    0  0.40491429784E+02  0.41446483160E+02 -0.18114272251E+04  0.18123539827E+04  0.10000000000E+01 0.  0.
    9000005    1    3    3    0    0 -0.40491429784E+02 -0.41446483160E+02 -0.82373070438E+03  0.82576669840E+03  0.10000000000E+01 0.  0.
<mgrwt>
<rscale>  0 0.12499366E+03</rscale>
<asrwt>0</asrwt>
<pdfrwt beam="1">  1        4 0.22790608E-03 0.12499366E+03</pdfrwt>
<pdfrwt beam="2">  1       -4 0.40563306E+00 0.12499366E+03</pdfrwt>
<totfact> 0.36735321E+02</totfact>
</mgrwt>
</event>
<event>
 5    1  0.3270363E-002  0.1249978E+03  0.7818608E-02  0.1235073E+00
          4   -1    0    0  501    0  0.00000000000E+00  0.00000000000E+00  0.72077629921E+01  0.73187941186E+01  0.12700000000E+01 0.  1.
         -4   -1    0    0    0  501 -0.00000000000E+00 -0.00000000000E+00 -0.53767698373E+03  0.53767848361E+03  0.12700000000E+01 0.  1.
         25    2    1    2    0    0  0.00000000000E+00  0.00000000000E+00 -0.53046922074E+03  0.54499727773E+03  0.12499775429E+03 0.  0.
    9000005    1    3    3    0    0  0.52467444489E+02  0.22382174589E+02 -0.37650707831E+03  0.38080490345E+03  0.10000000000E+01 0.  0.
    9000005    1    3    3    0    0 -0.52467444489E+02 -0.22382174589E+02 -0.15396214243E+03  0.16419237428E+03  0.10000000000E+01 0.  0.
<mgrwt>
<rscale>  0 0.12499775E+03</rscale>
<asrwt>0</asrwt>
<pdfrwt beam="1">  1        4 0.11175433E-02 0.12499775E+03</pdfrwt>
<pdfrwt beam="2">  1       -4 0.82728161E-01 0.12499775E+03</pdfrwt>
<totfact> 0.52537289E+03</totfact>
</mgrwt>
</event>
<event>
 5    1  0.3270363E-002  0.1250027E+03  0.7818608E-02  0.1235065E+00
          4   -1    0    0  501    0  0.00000000000E+00  0.00000000000E+00  0.92044564350E+02  0.92053325450E+02  0.12700000000E+01 0. -1.
         -4   -1    0    0    0  501 -0.00000000000E+00 -0.00000000000E+00 -0.42420242701E+02  0.42439249414E+02  0.12700000000E+01 0. -1.
         25    2    1    2    0    0  0.00000000000E+00  0.00000000000E+00  0.49624321649E+02  0.13449257486E+03  0.12500271755E+03 0.  0.
    9000005    1    3    3    0    0 -0.53816085428E+02  0.29561665484E+02  0.37329694927E+02  0.71864937489E+02  0.10000000000E+01 0.  0.
    9000005    1    3    3    0    0  0.53816085428E+02 -0.29561665484E+02  0.12294626723E+02  0.62627637375E+02  0.10000000000E+01 0.  0.
<mgrwt>
<rscale>  0 0.12500272E+03</rscale>
<asrwt>0</asrwt>
<pdfrwt beam="1">  1        4 0.14162838E-01 0.12500272E+03</pdfrwt>
<pdfrwt beam="2">  1       -4 0.65283272E-02 0.12500272E+03</pdfrwt>
<totfact> 0.10248149E+04</totfact>
</mgrwt>
</event>
<event>
 4    1  0.3270363E-002  0.1252719E+03  0.7818608E-02  0.1234645E+00
          4   -1    0    0  501    0  0.00000000000E+00  0.00000000000E+00  0.29641259113E+02  0.29668453647E+02  0.12700000000E+01 0.  1.
         -4   -1    0    0    0  501 -0.00000000000E+00 -0.00000000000E+00 -0.13226726579E+03  0.13227336277E+03  0.12700000000E+01 0.  1.
    9000005    1    1    2    0    0  0.22247308224E+02  0.25224411662E+02  0.16982022034E+02  0.37690884034E+02  0.10000000000E+01 0.  0.
    9000005    1    1    2    0    0 -0.22247308224E+02 -0.25224411662E+02 -0.11960802871E+03  0.12425093239E+03  0.10000000000E+01 0.  0.
<mgrwt>
<rscale>  0 0.12527192E+03</rscale>
<asrwt>0</asrwt>
<pdfrwt beam="1">  1        4 0.45627547E-02 0.12527192E+03</pdfrwt>
<pdfrwt beam="2">  1       -4 0.20351371E-01 0.12527192E+03</pdfrwt>
<totfact> 0.96379530E+03</totfact>
</mgrwt>
</event>
<event>
 5    1  0.3270363E-002  0.1250175E+03  0.7818608E-02  0.1235042E+00
         -4   -1    0    0    0  501 -0.00000000000E+00  0.00000000000E+00  0.20418789108E+02  0.20458246470E+02  0.12700000000E+01 0.  1.
          4   -1    0    0  501    0  0.00000000000E+00 -0.00000000000E+00 -0.19113381165E+03  0.19113803090E+03  0.12700000000E+01 0.  1.
         25    2    1    2    0    0  0.00000000000E+00  0.00000000000E+00 -0.17071502254E+03  0.21159627737E+03  0.12501746148E+03 0.  0.
    9000005    1    3    3    0    0 -0.55876470493E+02  0.21514627902E+02 -0.55019946745E+02  0.81321914072E+02  0.10000000000E+01 0.  0.
    9000005    1    3    3    0    0  0.55876470493E+02 -0.21514627902E+02 -0.11569507579E+03  0.13027436329E+03  0.10000000000E+01 0.  0.
<mgrwt>
<rscale>  0 0.12501746E+03</rscale>
<asrwt>0</asrwt>
<pdfrwt beam="2">  1        4 0.29408560E-01 0.12501746E+03</pdfrwt>
<pdfrwt beam="1">  1       -4 0.31447120E-02 0.12501746E+03</pdfrwt>
<totfact> 0.88181426E+03</totfact>
</mgrwt>
</event>
<event>
 5    1  0.3270363E-002  0.1249958E+03  0.7818608E-02  0.1235076E+00
         -4   -1    0    0    0  501 -0.00000000000E+00  0.00000000000E+00  0.64028552290E+02  0.64041146213E+02  0.12700000000E+01 0. -1.
          4   -1    0    0  501    0  0.00000000000E+00 -0.00000000000E+00 -0.60978665808E+02  0.60991889491E+02  0.12700000000E+01 0. -1.
         25    2    1    2    0    0  0.00000000000E+00  0.00000000000E+00  0.30498864817E+01  0.12503303570E+03  0.12499583277E+03 0.  0.
    9000005    1    3    3    0    0  0.74782856830E-01  0.26093163065E+02  0.58323273365E+02  0.63901979369E+02  0.10000000000E+01 0.  0.
    9000005    1    3    3    0    0 -0.74782856830E-01 -0.26093163065E+02 -0.55273386883E+02  0.61131056336E+02  0.10000000000E+01 0.  0.
<mgrwt>
<rscale>  0 0.12499583E+03</rscale>
<asrwt>0</asrwt>
<pdfrwt beam="2">  1        4 0.93833192E-02 0.12499583E+03</pdfrwt>
<pdfrwt beam="1">  1       -4 0.98525324E-02 0.12499583E+03</pdfrwt>
<totfact> 0.10453130E+04</totfact>
</mgrwt>
</event>
<event>
 5    1  0.3270363E-002  0.1249966E+03  0.7818608E-02  0.1235075E+00
         -4   -1    0    0    0  501 -0.00000000000E+00  0.00000000000E+00  0.18598502562E+03  0.18598936167E+03  0.12700000000E+01 0.  1.
          4   -1    0    0  501    0  0.00000000000E+00 -0.00000000000E+00 -0.20978119990E+02  0.21016527266E+02  0.12700000000E+01 0.  1.
         25    2    1    2    0    0  0.00000000000E+00  0.00000000000E+00  0.16500690563E+03  0.20700588894E+03  0.12499663655E+03 0.  0.
    9000005    1    3    3    0    0  0.21404246867E+02  0.43831610624E+02  0.14719048500E+03  0.15506576266E+03  0.10000000000E+01 0.  0.
    9000005    1    3    3    0    0 -0.21404246867E+02 -0.43831610624E+02  0.17816420628E+02  0.51940126279E+02  0.10000000000E+01 0.  0.
<mgrwt>
<rscale>  0 0.12499664E+03</rscale>
<asrwt>0</asrwt>
<pdfrwt beam="2">  1        4 0.32306910E-02 0.12499664E+03</pdfrwt>
<pdfrwt beam="1">  1       -4 0.28616369E-01 0.12499664E+03</pdfrwt>
<totfact> 0.88973896E+03</totfact>
</mgrwt>
</event>
<event>
 5    1  0.3270363E-002  0.1249996E+03  0.7818608E-02  0.1235070E+00
          4   -1    0    0  501    0  0.00000000000E+00  0.00000000000E+00  0.70126059853E+03  0.70126174853E+03  0.12700000000E+01 0.  1.
         -4   -1    0    0    0  501 -0.00000000000E+00 -0.00000000000E+00 -0.54967331003E+01  0.56415401067E+01  0.12700000000E+01 0.  1.
         25    2    1    2    0    0  0.00000000000E+00  0.00000000000E+00  0.69576386543E+03  0.70690328864E+03  0.12499961219E+03 0.  0.
    9000005    1    3    3    0    0 -0.16941800857E+02  0.30450481148E+02  0.54518680513E+02  0.64711227336E+02  0.10000000000E+01 0.  0.
    9000005    1    3    3    0    0  0.16941800857E+02 -0.30450481148E+02  0.64124518492E+03  0.64219206130E+03  0.10000000000E+01 0.  0.
<mgrwt>
<rscale>  0 0.12499961E+03</rscale>
<asrwt>0</asrwt>
<pdfrwt beam="1">  1        4 0.10789748E+00 0.12499961E+03</pdfrwt>
<pdfrwt beam="2">  1       -4 0.85687869E-03 0.12499961E+03</pdfrwt>
<totfact> 0.42725139E+03</totfact>
</mgrwt>
</event>
<event>
 5    1  0.3270363E-002  0.1250012E+03  0.7818608E-02  0.1235067E+00
          4   -1    0    0  501    0  0.00000000000E+00  0.00000000000E+00  0.24508911096E+02  0.24541793396E+02  0.12700000000E+01 0. -1.
         -4   -1    0    0    0  501 -0.00000000000E+00 -0.00000000000E+00 -0.15924165009E+03  0.15924671433E+03  0.12700000000E+01 0. -1.
         25    2    1    2    0    0  0.00000000000E+00  0.00000000000E+00 -0.13473273900E+03  0.18378850772E+03  0.12500121845E+03 0.  0.
    9000005    1    3    3    0    0 -0.23297739369E+02  0.41953950777E+02 -0.85103901348E+01  0.48747773137E+02  0.10000000000E+01 0.  0.
    9000005    1    3    3    0    0  0.23297739369E+02 -0.41953950777E+02 -0.12622234886E+03  0.13504073459E+03  0.10000000000E+01 0.  0.
<mgrwt>
<rscale>  0 0.12500122E+03</rscale>
<asrwt>0</asrwt>
<pdfrwt beam="1">  1        4 0.37735208E-02 0.12500122E+03</pdfrwt>
<pdfrwt beam="2">  1       -4 0.24501634E-01 0.12500122E+03</pdfrwt>
<totfact> 0.92936933E+03</totfact>
</mgrwt>
</event>
<event>
 5    1  0.3270363E-002  0.1249982E+03  0.7818608E-02  0.1235072E+00
          4   -1    0    0  501    0  0.00000000000E+00  0.00000000000E+00  0.47788311933E+03  0.47788480687E+03  0.12700000000E+01 0. -1.
         -4   -1    0    0    0  501 -0.00000000000E+00 -0.00000000000E+00 -0.81227908262E+01  0.82214737612E+01  0.12700000000E+01 0. -1.
         25    2    1    2    0    0  0.00000000000E+00  0.00000000000E+00  0.46976032850E+03  0.48610628063E+03  0.12499819933E+03 0.  0.
    9000005    1    3    3    0    0  0.56309073283E+02 -0.25421115849E+02  0.19835909080E+03  0.20776013518E+03  0.10000000000E+01 0.  0.
    9000005    1    3    3    0    0 -0.56309073283E+02  0.25421115849E+02  0.27140123770E+03  0.27834614546E+03  0.10000000000E+01 0.  0.
<mgrwt>
<rscale>  0 0.12499820E+03</rscale>
<asrwt>0</asrwt>
<pdfrwt beam="1">  1        4 0.73528195E-01 0.12499820E+03</pdfrwt>
<pdfrwt beam="2">  1       -4 0.12573810E-02 0.12499820E+03</pdfrwt>
<totfact> 0.56960952E+03</totfact>
</mgrwt>
</event>
<event>
 5    1  0.3270363E-002  0.1249783E+03  0.7818608E-02  0.1235103E+00
         -4   -1    0    0    0  501 -0.00000000000E+00  0.00000000000E+00  0.99341064071E+02  0.99349181732E+02  0.12700000000E+01 0. -1.
          4   -1    0    0  501    0  0.00000000000E+00 -0.00000000000E+00 -0.39287996886E+02  0.39308518152E+02  0.12700000000E+01 0. -1.
         25    2    1    2    0    0  0.00000000000E+00  0.00000000000E+00  0.60053067186E+02  0.13865769988E+03  0.12497834556E+03 0.  0.
    9000005    1    3    3    0    0  0.28890399291E+01 -0.55991142437E+02 -0.56990368794E+00  0.56077440859E+02  0.10000000000E+01 0.  0.
    9000005    1    3    3    0    0 -0.28890399291E+01  0.55991142437E+02  0.60622970874E+02  0.82580259025E+02  0.10000000000E+01 0.  0.
<mgrwt>
<rscale>  0 0.12497835E+03</rscale>
<asrwt>0</asrwt>
<pdfrwt beam="2">  1        4 0.60465103E-02 0.12497835E+03</pdfrwt>
<pdfrwt beam="1">  1       -4 0.15285443E-01 0.12497835E+03</pdfrwt>
<totfact> 0.10166441E+04</totfact>
</mgrwt>
</event>
<event>
 5    1  0.3270363E-002  0.1249982E+03  0.7818608E-02  0.1235072E+00
         -4   -1    0    0    0  501 -0.00000000000E+00  0.00000000000E+00  0.89805486880E+02  0.89814466395E+02  0.12700000000E+01 0. -1.
          4   -1    0    0  501    0  0.00000000000E+00 -0.00000000000E+00 -0.43475127708E+02  0.43493673439E+02  0.12700000000E+01 0. -1.
         25    2    1    2    0    0  0.00000000000E+00  0.00000000000E+00  0.46330359172E+02  0.13330813983E+03  0.12499823185E+03 0.  0.
    9000005    1    3    3    0    0 -0.36921093803E+01 -0.62356123033E+02  0.21250932307E+02  0.65988785981E+02  0.10000000000E+01 0.  0.
    9000005    1    3    3    0    0  0.36921093803E+01  0.62356123033E+02  0.25079426866E+02  0.67319353853E+02  0.10000000000E+01 0.  0.
<mgrwt>
<rscale>  0 0.12499823E+03</rscale>
<asrwt>0</asrwt>
<pdfrwt beam="2">  1        4 0.66905985E-02 0.12499823E+03</pdfrwt>
<pdfrwt beam="1">  1       -4 0.13818346E-01 0.12499823E+03</pdfrwt>
<totfact> 0.10274265E+04</totfact>
</mgrwt>
</event>
<event>
 5    1  0.3270363E-002  0.1249973E+03  0.7818608E-02  0.1235074E+00
         -4   -1    0    0    0  501 -0.00000000000E+00  0.00000000000E+00  0.58916200175E+02  0.58929886671E+02  0.12700000000E+01 0. -1.
          4   -1    0    0  501    0  0.00000000000E+00 -0.00000000000E+00 -0.66271431608E+02  0.66283599385E+02  0.12700000000E+01 0. -1.
         25    2    1    2    0    0  0.00000000000E+00  0.00000000000E+00 -0.73552314333E+01  0.12521348606E+03  0.12499727061E+03 0.  0.
    9000005    1    3    3    0    0 -0.19572216035E+02 -0.59320634867E+02 -0.54328033758E+01  0.62709845432E+02  0.10000000000E+01 0.  0.
    9000005    1    3    3    0    0  0.19572216035E+02  0.59320634867E+02 -0.19224280574E+01  0.62503640624E+02  0.10000000000E+01 0.  0.
<mgrwt>
<rscale>  0 0.12499727E+03</rscale>
<asrwt>0</asrwt>
<pdfrwt beam="2">  1        4 0.10197594E-01 0.12499727E+03</pdfrwt>
<pdfrwt beam="1">  1       -4 0.90660196E-02 0.12499727E+03</pdfrwt>
<totfact> 0.10448872E+04</totfact>
</mgrwt>
</event>
<event>
 5    1  0.3270363E-002  0.1250023E+03  0.7818608E-02  0.1235066E+00
         -4   -1    0    0    0  501 -0.00000000000E+00  0.00000000000E+00  0.39871504077E+01  0.41845272581E+01  0.12700000000E+01 0. -1.
          4   -1    0    0  501    0  0.00000000000E+00 -0.00000000000E+00 -0.95588303948E+03  0.95588388315E+03  0.12700000000E+01 0. -1.
         25    2    1    2    0    0  0.00000000000E+00  0.00000000000E+00 -0.95189588907E+03  0.96006841041E+03  0.12500227610E+03 0.  0.
    9000005    1    3    3    0    0  0.57226954099E+02  0.18667317080E+02 -0.60492374734E+03  0.60791210968E+03  0.10000000000E+01 0.  0.
    9000005    1    3    3    0    0 -0.57226954099E+02 -0.18667317080E+02 -0.34697214173E+03  0.35215630073E+03  0.10000000000E+01 0.  0.
<mgrwt>
<rscale>  0 0.12500228E+03</rscale>
<asrwt>0</asrwt>
<pdfrwt beam="2">  1        4 0.14707400E+00 0.12500228E+03</pdfrwt>
<pdfrwt beam="1">  1       -4 0.62865625E-03 0.12500228E+03</pdfrwt>
<totfact> 0.31959629E+03</totfact>
</mgrwt>
</event>
<event>
 5    1  0.3270363E-002  0.1249980E+03  0.7818608E-02  0.1235072E+00
          4   -1    0    0  501    0  0.00000000000E+00  0.00000000000E+00  0.32444597489E+02  0.32469444194E+02  0.12700000000E+01 0.  1.
         -4   -1    0    0    0  501 -0.00000000000E+00 -0.00000000000E+00 -0.12031948651E+03  0.12032618890E+03  0.12700000000E+01 0.  1.
         25    2    1    2    0    0  0.00000000000E+00  0.00000000000E+00 -0.87874889025E+02  0.15279563309E+03  0.12499803747E+03 0.  0.
    9000005    1    3    3    0    0  0.18719248696E+02  0.86639591349E+00  0.28935179572E+02  0.34487759140E+02  0.10000000000E+01 0.  0.
    9000005    1    3    3    0    0 -0.18719248696E+02 -0.86639591349E+00 -0.11681006860E+03  0.11830787395E+03  0.10000000000E+01 0.  0.
<mgrwt>
<rscale>  0 0.12499804E+03</rscale>
<asrwt>0</asrwt>
<pdfrwt beam="1">  1        4 0.49939035E-02 0.12499804E+03</pdfrwt>
<pdfrwt beam="2">  1       -4 0.18513117E-01 0.12499804E+03</pdfrwt>
<totfact> 0.98753682E+03</totfact>
</mgrwt>
</event>
<event>
 5    1  0.3270363E-002  0.1249925E+03  0.7818608E-02  0.1235081E+00
         -4   -1    0    0    0  501 -0.00000000000E+00  0.00000000000E+00  0.10866095941E+04  0.10866103363E+04  0.12700000000E+01 0. -1.
          4   -1    0    0  501    0  0.00000000000E+00 -0.00000000000E+00 -0.34815217017E+01  0.37059267882E+01  0.12700000000E+01 0. -1.
         25    2    1    2    0    0  0.00000000000E+00  0.00000000000E+00  0.10831280724E+04  0.10903162631E+04  0.12499252887E+03 0.  0.
    9000005    1    3    3    0    0 -0.41787911495E+02  0.29205674747E+02  0.85675265428E+03  0.85826878750E+03  0.10000000000E+01 0.  0.
    9000005    1    3    3    0    0  0.41787911495E+02 -0.29205674747E+02  0.22637541816E+03  0.23204747560E+03  0.10000000000E+01 0.  0.
<mgrwt>
<rscale>  0 0.12499253E+03</rscale>
<asrwt>0</asrwt>
<pdfrwt beam="2">  1        4 0.55293836E-03 0.12499253E+03</pdfrwt>
<pdfrwt beam="1">  1       -4 0.16718784E+00 0.12499253E+03</pdfrwt>
<totfact> 0.27773103E+03</totfact>
</mgrwt>
</event>
<event>
 5    1  0.3270363E-002  0.1250028E+03  0.7818608E-02  0.1235065E+00
          4   -1    0    0  501    0  0.00000000000E+00  0.00000000000E+00  0.15168100543E+02  0.15221175187E+02  0.12700000000E+01 0. -1.
         -4   -1    0    0    0  501 -0.00000000000E+00 -0.00000000000E+00 -0.25703782147E+03  0.25704095893E+03  0.12700000000E+01 0. -1.
         25    2    1    2    0    0  0.00000000000E+00  0.00000000000E+00 -0.24186972093E+03  0.27226213412E+03  0.12500283105E+03 0.  0.
    9000005    1    3    3    0    0  0.43979155825E+02  0.41274054539E+02 -0.15657195608E+03  0.16779002103E+03  0.10000000000E+01 0.  0.
    9000005    1    3    3    0    0 -0.43979155825E+02 -0.41274054539E+02 -0.85297764849E+02  0.10447211309E+03  0.10000000000E+01 0.  0.
<mgrwt>
<rscale>  0 0.12500283E+03</rscale>
<asrwt>0</asrwt>
<pdfrwt beam="1">  1        4 0.23378781E-02 0.12500283E+03</pdfrwt>
<pdfrwt beam="2">  1       -4 0.39548601E-01 0.12500283E+03</pdfrwt>
<totfact> 0.79210419E+03</totfact>
</mgrwt>
</event>
<event>
 5    1  0.3270363E-002  0.1250091E+03  0.7818608E-02  0.1235055E+00
          4   -1    0    0  501    0  0.00000000000E+00  0.00000000000E+00  0.22863556317E+02  0.22898801441E+02  0.12700000000E+01 0.  1.
         -4   -1    0    0    0  501 -0.00000000000E+00 -0.00000000000E+00 -0.17070616762E+03  0.17071089175E+03  0.12700000000E+01 0.  1.
         25    2    1    2    0    0  0.00000000000E+00  0.00000000000E+00 -0.14784261130E+03  0.19360969319E+03  0.12500910200E+03 0.  0.
    9000005    1    3    3    0    0 -0.26782870790E+02  0.36348322196E+02 -0.14084687402E+03  0.14790998822E+03  0.10000000000E+01 0.  0.
    9000005    1    3    3    0    0  0.26782870790E+02 -0.36348322196E+02 -0.69957372777E+01  0.45699704969E+02  0.10000000000E+01 0.  0.
<mgrwt>
<rscale>  0 0.12500910E+03</rscale>
<asrwt>0</asrwt>
<pdfrwt beam="1">  1        4 0.35205449E-02 0.12500910E+03</pdfrwt>
<pdfrwt beam="2">  1       -4 0.26265561E-01 0.12500910E+03</pdfrwt>
<totfact> 0.91204416E+03</totfact>
</mgrwt>
</event>
<event>
 5    1  0.3270363E-002  0.1249996E+03  0.7818608E-02  0.1235070E+00
         -4   -1    0    0    0  501 -0.00000000000E+00  0.00000000000E+00  0.52532571660E+01  0.54045916452E+01  0.12700000000E+01 0. -1.
          4   -1    0    0  501    0  0.00000000000E+00 -0.00000000000E+00 -0.73287074874E+03  0.73287184914E+03  0.12700000000E+01 0. -1.
         25    2    1    2    0    0  0.00000000000E+00  0.00000000000E+00 -0.72761749157E+03  0.73827644078E+03  0.12499955588E+03 0.  0.
    9000005    1    3    3    0    0  0.18266850576E+02  0.34966567501E+02 -0.77561520948E+02  0.87023722080E+02  0.10000000000E+01 0.  0.
    9000005    1    3    3    0    0 -0.18266850576E+02 -0.34966567501E+02 -0.65005597063E+03  0.65125271870E+03  0.10000000000E+01 0.  0.
<mgrwt>
<rscale>  0 0.12499956E+03</rscale>
<asrwt>0</asrwt>
<pdfrwt beam="2">  1        4 0.11276099E+00 0.12499956E+03</pdfrwt>
<pdfrwt beam="1">  1       -4 0.81991975E-03 0.12499956E+03</pdfrwt>
<totfact> 0.41141674E+03</totfact>
</mgrwt>
</event>
<event>
 5    1  0.3270363E-002  0.1250558E+03  0.7818608E-02  0.1234982E+00
          4   -1    0    0  501    0  0.00000000000E+00  0.00000000000E+00  0.18179319221E+03  0.18179762824E+03  0.12700000000E+01 0.  1.
         -4   -1    0    0    0  501 -0.00000000000E+00 -0.00000000000E+00 -0.21483073871E+02  0.21520579986E+02  0.12700000000E+01 0.  1.
         25    2    1    2    0    0  0.00000000000E+00  0.00000000000E+00  0.16031011834E+03  0.20331820823E+03  0.12505582655E+03 0.  0.
    9000005    1    3    3    0    0 -0.54513448493E+02 -0.33611819460E+01  0.12962184022E+03  0.14066213091E+03  0.10000000000E+01 0.  0.
    9000005    1    3    3    0    0  0.54513448493E+02  0.33611819460E+01  0.30688278121E+02  0.62656077317E+02  0.10000000000E+01 0.  0.
<mgrwt>
<rscale>  0 0.12505583E+03</rscale>
<asrwt>0</asrwt>
<pdfrwt beam="1">  1        4 0.27971409E-01 0.12505583E+03</pdfrwt>
<pdfrwt beam="2">  1       -4 0.33083147E-02 0.12505583E+03</pdfrwt>
<totfact> 0.89467086E+03</totfact>
</mgrwt>
</event>
<event>
 5    1  0.3270363E-002  0.1249975E+03  0.7818608E-02  0.1235073E+00
         -4   -1    0    0    0  501 -0.00000000000E+00  0.00000000000E+00  0.20230776482E+03  0.20231175103E+03  0.12700000000E+01 0.  1.
          4   -1    0    0  501    0  0.00000000000E+00 -0.00000000000E+00 -0.19282627170E+02  0.19324404533E+02  0.12700000000E+01 0.  1.
         25    2    1    2    0    0  0.00000000000E+00  0.00000000000E+00  0.18302513765E+03  0.22163615556E+03  0.12499753775E+03 0.  0.
    9000005    1    3    3    0    0  0.23530374788E+01  0.60841636524E+02  0.11645347425E+03  0.13141405246E+03  0.10000000000E+01 0.  0.
    9000005    1    3    3    0    0 -0.23530374788E+01 -0.60841636524E+02  0.66571663401E+02  0.90222103102E+02  0.10000000000E+01 0.  0.
<mgrwt>
<rscale>  0 0.12499754E+03</rscale>
<asrwt>0</asrwt>
<pdfrwt beam="2">  1        4 0.29700783E-02 0.12499754E+03</pdfrwt>
<pdfrwt beam="1">  1       -4 0.31127792E-01 0.12499754E+03</pdfrwt>
<totfact> 0.86614872E+03</totfact>
</mgrwt>
</event>
<event>
 4    1  0.3270363E-002  0.1249248E+03  0.7818608E-02  0.1235187E+00
          4   -1    0    0  501    0  0.00000000000E+00  0.00000000000E+00  0.41017700124E+01  0.42938813718E+01  0.12700000000E+01 0.  1.
         -4   -1    0    0    0  501 -0.00000000000E+00 -0.00000000000E+00 -0.92923009032E+03  0.92923095819E+03  0.12700000000E+01 0.  1.
    9000005    1    1    2    0    0 -0.44770256608E+02 -0.36038737128E+02 -0.64520808667E+03  0.64776356918E+03  0.10000000000E+01 0.  0.
    9000005    1    1    2    0    0  0.44770256608E+02  0.36038737128E+02 -0.27992023364E+03  0.28576127038E+03  0.10000000000E+01 0.  0.
<mgrwt>
<rscale>  0 0.12492485E+03</rscale>
<asrwt>0</asrwt>
<pdfrwt beam="1">  1        4 0.64588684E-03 0.12492485E+03</pdfrwt>
<pdfrwt beam="2">  1       -4 0.14297316E+00 0.12492485E+03</pdfrwt>
<totfact> 0.32962283E+03</totfact>
</mgrwt>
</event>
<event>
 5    1  0.3270363E-002  0.1250014E+03  0.7818608E-02  0.1235067E+00
         -4   -1    0    0    0  501 -0.00000000000E+00  0.00000000000E+00  0.11294448526E+04  0.11294455667E+04  0.12700000000E+01 0. -1.
          4   -1    0    0  501    0  0.00000000000E+00 -0.00000000000E+00 -0.33413105619E+01  0.35745288181E+01  0.12700000000E+01 0. -1.
         25    2    1    2    0    0  0.00000000000E+00  0.00000000000E+00  0.11261035421E+04  0.11330200955E+04  0.12500139713E+03 0.  0.
    9000005    1    3    3    0    0  0.45390681505E+02  0.20831495059E+02  0.22256726145E+03  0.22810403553E+03  0.10000000000E+01 0.  0.
    9000005    1    3    3    0    0 -0.45390681505E+02 -0.20831495059E+02  0.90353628062E+03  0.90491605995E+03  0.10000000000E+01 0.  0.
<mgrwt>
<rscale>  0 0.12500140E+03</rscale>
<asrwt>0</asrwt>
<pdfrwt beam="2">  1        4 0.53204209E-03 0.12500140E+03</pdfrwt>
<pdfrwt beam="1">  1       -4 0.17377890E+00 0.12500140E+03</pdfrwt>
<totfact> 0.26535259E+03</totfact>
</mgrwt>
</event>
<event>
 5    1  0.3270363E-002  0.1250001E+03  0.7818608E-02  0.1235069E+00
          4   -1    0    0  501    0  0.00000000000E+00  0.00000000000E+00  0.12318882079E+04  0.12318888626E+04  0.12700000000E+01 0.  1.
         -4   -1    0    0    0  501 -0.00000000000E+00 -0.00000000000E+00 -0.30431062607E+01  0.32974832393E+01  0.12700000000E+01 0.  1.
         25    2    1    2    0    0  0.00000000000E+00  0.00000000000E+00  0.12288451017E+04  0.12351863458E+04  0.12500009996E+03 0.  0.
    9000005    1    3    3    0    0  0.55253974973E+02  0.26454576493E+02  0.49243130065E+03  0.49622820580E+03  0.10000000000E+01 0.  0.
    9000005    1    3    3    0    0 -0.55253974973E+02 -0.26454576493E+02  0.73641380100E+03  0.73895814000E+03  0.10000000000E+01 0.  0.
<mgrwt>
<rscale>  0 0.12500010E+03</rscale>
<asrwt>0</asrwt>
<pdfrwt beam="1">  1        4 0.18954110E+00 0.12500010E+03</pdfrwt>
<pdfrwt beam="2">  1       -4 0.48778745E-03 0.12500010E+03</pdfrwt>
<totfact> 0.23809795E+03</totfact>
</mgrwt>
</event>
<event>
 5    1  0.3270363E-002  0.1250001E+03  0.7818608E-02  0.1235069E+00
          4   -1    0    0  501    0  0.00000000000E+00  0.00000000000E+00  0.39011588002E+03  0.39011794722E+03  0.12700000000E+01 0. -1.
         -4   -1    0    0    0  501 -0.00000000000E+00 -0.00000000000E+00 -0.99706914470E+01  0.10051248078E+02  0.12700000000E+01 0. -1.
         25    2    1    2    0    0  0.00000000000E+00  0.00000000000E+00  0.38014518857E+03  0.40016919530E+03  0.12500008188E+03 0.  0.
    9000005    1    3    3    0    0  0.24142050330E+02  0.53779546039E+02  0.12367429964E+03  0.13700879737E+03  0.10000000000E+01 0.  0.
    9000005    1    3    3    0    0 -0.24142050330E+02 -0.53779546039E+02  0.25647088893E+03  0.26316039793E+03  0.10000000000E+01 0.  0.
<mgrwt>
<rscale>  0 0.12500008E+03</rscale>
<asrwt>0</asrwt>
<pdfrwt beam="1">  1        4 0.60024191E-01 0.12500008E+03</pdfrwt>
<pdfrwt beam="2">  1       -4 0.15403080E-02 0.12500008E+03</pdfrwt>
<totfact> 0.64536214E+03</totfact>
</mgrwt>
</event>
<event>
 5    1  0.3270363E-002  0.1249975E+03  0.7818608E-02  0.1235073E+00
         -4   -1    0    0    0  501 -0.00000000000E+00  0.00000000000E+00  0.92131082702E+01  0.93002292444E+01  0.12700000000E+01 0. -1.
          4   -1    0    0  501    0  0.00000000000E+00 -0.00000000000E+00 -0.42188838597E+03  0.42189029749E+03  0.12700000000E+01 0. -1.
         25    2    1    2    0    0  0.00000000000E+00  0.00000000000E+00 -0.41267527770E+03  0.43119052674E+03  0.12499754206E+03 0.  0.
    9000005    1    3    3    0    0 -0.53907498230E+02  0.21092400940E+02 -0.28754521467E+03  0.29331579948E+03  0.10000000000E+01 0.  0.
    9000005    1    3    3    0    0  0.53907498230E+02 -0.21092400940E+02 -0.12513006303E+03  0.13787472726E+03  0.10000000000E+01 0.  0.
<mgrwt>
<rscale>  0 0.12499754E+03</rscale>
<asrwt>0</asrwt>
<pdfrwt beam="2">  1        4 0.64912739E-01 0.12499754E+03</pdfrwt>
<pdfrwt beam="1">  1       -4 0.14242503E-02 0.12499754E+03</pdfrwt>
<totfact> 0.61631572E+03</totfact>
</mgrwt>
</event>
<event>
 5    1  0.3270363E-002  0.1250012E+03  0.7818608E-02  0.1235067E+00
         -4   -1    0    0    0  501 -0.00000000000E+00  0.00000000000E+00  0.47707373287E+02  0.47724274389E+02  0.12700000000E+01 0.  1.
          4   -1    0    0  501    0  0.00000000000E+00 -0.00000000000E+00 -0.81844653994E+02  0.81854506824E+02  0.12700000000E+01 0.  1.
         25    2    1    2    0    0  0.00000000000E+00  0.00000000000E+00 -0.34137280708E+02  0.12957878121E+03  0.12500122642E+03 0.  0.
    9000005    1    3    3    0    0  0.76130388696E+00 -0.36881516117E+02 -0.69358914143E+02  0.78565162673E+02  0.10000000000E+01 0.  0.
    9000005    1    3    3    0    0 -0.76130388696E+00  0.36881516117E+02  0.35221633436E+02  0.51013618540E+02  0.10000000000E+01 0.  0.
<mgrwt>
<rscale>  0 0.12500123E+03</rscale>
<asrwt>0</asrwt>
<pdfrwt beam="2">  1        4 0.12593543E-01 0.12500123E+03</pdfrwt>
<pdfrwt beam="1">  1       -4 0.73416539E-02 0.12500123E+03</pdfrwt>
<totfact> 0.10353240E+04</totfact>
</mgrwt>
</event>
<event>
 5    1  0.3270363E-002  0.1250002E+03  0.7818608E-02  0.1235069E+00
          4   -1    0    0  501    0  0.00000000000E+00  0.00000000000E+00  0.25267112085E+02  0.25299008935E+02  0.12700000000E+01 0.  1.
         -4   -1    0    0    0  501 -0.00000000000E+00 -0.00000000000E+00 -0.15446668496E+03  0.15447190573E+03  0.12700000000E+01 0.  1.
         25    2    1    2    0    0  0.00000000000E+00  0.00000000000E+00 -0.12919957287E+03  0.17977091467E+03  0.12500020852E+03 0.  0.
    9000005    1    3    3    0    0  0.36491617111E+02 -0.49976386533E+02 -0.77136238147E+02  0.98895280806E+02  0.10000000000E+01 0.  0.
    9000005    1    3    3    0    0 -0.36491617111E+02  0.49976386533E+02 -0.52063334724E+02  0.80875633864E+02  0.10000000000E+01 0.  0.
<mgrwt>
<rscale>  0 0.12500021E+03</rscale>
<asrwt>0</asrwt>
<pdfrwt beam="1">  1        4 0.38901033E-02 0.12500021E+03</pdfrwt>
<pdfrwt beam="2">  1       -4 0.23766960E-01 0.12500021E+03</pdfrwt>
<totfact> 0.93657818E+03</totfact>
</mgrwt>
</event>
<event>
 5    1  0.3270363E-002  0.1250009E+03  0.7818608E-02  0.1235068E+00
          4   -1    0    0  501    0  0.00000000000E+00  0.00000000000E+00  0.14228286043E+02  0.14284852947E+02  0.12700000000E+01 0.  1.
         -4   -1    0    0    0  501 -0.00000000000E+00 -0.00000000000E+00 -0.27394241484E+03  0.27394535869E+03  0.12700000000E+01 0.  1.
         25    2    1    2    0    0  0.00000000000E+00  0.00000000000E+00 -0.25971412879E+03  0.28823021163E+03  0.12500090481E+03 0.  0.
    9000005    1    3    3    0    0 -0.57170283573E+02  0.56343044943E+01 -0.73135651519E+02  0.93005431207E+02  0.10000000000E+01 0.  0.
    9000005    1    3    3    0    0  0.57170283573E+02 -0.56343044943E+01 -0.18657847727E+03  0.19522478043E+03  0.10000000000E+01 0.  0.
<mgrwt>
<rscale>  0 0.12500090E+03</rscale>
<asrwt>0</asrwt>
<pdfrwt beam="1">  1        4 0.21935450E-02 0.12500090E+03</pdfrwt>
<pdfrwt beam="2">  1       -4 0.42149561E-01 0.12500090E+03</pdfrwt>
<totfact> 0.77097795E+03</totfact>
</mgrwt>
</event>
<event>
 5    1  0.3270363E-002  0.1250064E+03  0.7818608E-02  0.1235059E+00
          4   -1    0    0  501    0  0.00000000000E+00  0.00000000000E+00  0.16251170474E+01  0.20624997982E+01  0.12700000000E+01 0. -1.
         -4   -1    0    0    0  501 -0.00000000000E+00 -0.00000000000E+00 -0.21183546504E+04  0.21183550311E+04  0.12700000000E+01 0. -1.
         25    2    1    2    0    0  0.00000000000E+00  0.00000000000E+00 -0.21167295334E+04  0.21204175309E+04  0.12500635167E+03 0.  0.
    9000005    1    3    3    0    0  0.42716272364E+01 -0.57690546733E+02 -0.65724572548E+03  0.65978738215E+03  0.10000000000E+01 0.  0.
    9000005    1    3    3    0    0 -0.42716272364E+01  0.57690546733E+02 -0.14594838079E+04  0.14606301488E+04  0.10000000000E+01 0.  0.
<mgrwt>
<rscale>  0 0.12500635E+03</rscale>
<asrwt>0</asrwt>
<pdfrwt beam="1">  1        4 0.28369381E-03 0.12500635E+03</pdfrwt>
<pdfrwt beam="2">  1       -4 0.32593244E+00 0.12500635E+03</pdfrwt>
<totfact> 0.83692543E+02</totfact>
</mgrwt>
</event>
<event>
 5    1  0.3270363E-002  0.1249988E+03  0.7818608E-02  0.1235071E+00
         -4   -1    0    0    0  501 -0.00000000000E+00  0.00000000000E+00  0.10056661121E+03  0.10057462996E+03  0.12700000000E+01 0. -1.
          4   -1    0    0  501    0  0.00000000000E+00 -0.00000000000E+00 -0.38821691053E+02  0.38842458679E+02  0.12700000000E+01 0. -1.
         25    2    1    2    0    0  0.00000000000E+00  0.00000000000E+00  0.61744920159E+02  0.13941708863E+03  0.12499875775E+03 0.  0.
    9000005    1    3    3    0    0  0.22203015630E+02  0.42462840073E+02  0.75613141563E+02  0.89523258805E+02  0.10000000000E+01 0.  0.
    9000005    1    3    3    0    0 -0.22203015630E+02 -0.42462840073E+02 -0.13868221404E+02  0.49893829829E+02  0.10000000000E+01 0.  0.
<mgrwt>
<rscale>  0 0.12499876E+03</rscale>
<asrwt>0</asrwt>
<pdfrwt beam="2">  1        4 0.59747823E-02 0.12499876E+03</pdfrwt>
<pdfrwt beam="1">  1       -4 0.15474001E-01 0.12499876E+03</pdfrwt>
<totfact> 0.10145965E+04</totfact>
</mgrwt>
</event>
<event>
 5    1  0.3270363E-002  0.1249981E+03  0.7818608E-02  0.1235072E+00
          4   -1    0    0  501    0  0.00000000000E+00  0.00000000000E+00  0.14102279882E+03  0.14102851728E+03  0.12700000000E+01 0. -1.
         -4   -1    0    0    0  501 -0.00000000000E+00 -0.00000000000E+00 -0.27677746634E+02  0.27706868440E+02  0.12700000000E+01 0. -1.
         25    2    1    2    0    0  0.00000000000E+00  0.00000000000E+00  0.11334505219E+03  0.16873538572E+03  0.12499811815E+03 0.  0.
    9000005    1    3    3    0    0  0.29990856938E+01  0.48510310072E+01 -0.27332315161E+02  0.27938906007E+02  0.10000000000E+01 0.  0.
    9000005    1    3    3    0    0 -0.29990856938E+01 -0.48510310072E+01  0.14067736735E+03  0.14079647972E+03  0.10000000000E+01 0.  0.
<mgrwt>
<rscale>  0 0.12499812E+03</rscale>
<asrwt>0</asrwt>
<pdfrwt beam="1">  1        4 0.21698495E-01 0.12499812E+03</pdfrwt>
<pdfrwt beam="2">  1       -4 0.42607949E-02 0.12499812E+03</pdfrwt>
<totfact> 0.95688652E+03</totfact>
</mgrwt>
</event>
<event>
 5    1  0.3270363E-002  0.1250048E+03  0.7818608E-02  0.1235062E+00
          4   -1    0    0  501    0  0.00000000000E+00  0.00000000000E+00  0.20212114802E+04  0.20212118792E+04  0.12700000000E+01 0.  1.
         -4   -1    0    0    0  501 -0.00000000000E+00 -0.00000000000E+00 -0.17237105293E+01  0.21410460035E+01  0.12700000000E+01 0.  1.
         25    2    1    2    0    0  0.00000000000E+00  0.00000000000E+00  0.20194877697E+04  0.20233529252E+04  0.12500483212E+03 0.  0.
    9000005    1    3    3    0    0  0.25860533669E+02  0.13385881127E+02  0.19047693422E+04  0.19049921774E+04  0.10000000000E+01 0.  0.
    9000005    1    3    3    0    0 -0.25860533669E+02 -0.13385881127E+02  0.11471842751E+03  0.11836074782E+03  0.10000000000E+01 0.  0.
<mgrwt>
<rscale>  0 0.12500483E+03</rscale>
<asrwt>0</asrwt>
<pdfrwt beam="1">  1        4 0.31098969E+00 0.12500483E+03</pdfrwt>
<pdfrwt beam="2">  1       -4 0.29731779E-03 0.12500483E+03</pdfrwt>
<totfact> 0.95582691E+02</totfact>
</mgrwt>
</event>
<event>
 5    1  0.3270363E-002  0.1249999E+03  0.7818608E-02  0.1235069E+00
          4   -1    0    0  501    0  0.00000000000E+00  0.00000000000E+00  0.45849528131E+01  0.47575931203E+01  0.12700000000E+01 0.  1.
         -4   -1    0    0    0  501 -0.00000000000E+00 -0.00000000000E+00 -0.83605362982E+03  0.83605459441E+03  0.12700000000E+01 0.  1.
         25    2    1    2    0    0  0.00000000000E+00  0.00000000000E+00 -0.83146867701E+03  0.84081218753E+03  0.12499989543E+03 0.  0.
    9000005    1    3    3    0    0 -0.17553901636E+02 -0.53244730243E+02 -0.60142758086E+03  0.60403582326E+03  0.10000000000E+01 0.  0.
    9000005    1    3    3    0    0  0.17553901636E+02  0.53244730243E+02 -0.23004109615E+03  0.23677636427E+03  0.10000000000E+01 0.  0.
<mgrwt>
<rscale>  0 0.12499990E+03</rscale>
<asrwt>0</asrwt>
<pdfrwt beam="1">  1        4 0.71873224E-03 0.12499990E+03</pdfrwt>
<pdfrwt beam="2">  1       -4 0.12863687E+00 0.12499990E+03</pdfrwt>
<totfact> 0.36506390E+03</totfact>
</mgrwt>
</event>
<event>
 5    1  0.3270363E-002  0.1249956E+03  0.7818608E-02  0.1235076E+00
         -4   -1    0    0    0  501 -0.00000000000E+00  0.00000000000E+00  0.68468375602E+02  0.68480153020E+02  0.12700000000E+01 0. -1.
          4   -1    0    0  501    0  0.00000000000E+00 -0.00000000000E+00 -0.57024147006E+02  0.57038287507E+02  0.12700000000E+01 0. -1.
         25    2    1    2    0    0  0.00000000000E+00  0.00000000000E+00  0.11444228596E+02  0.12551844053E+03  0.12499563410E+03 0.  0.
    9000005    1    3    3    0    0  0.36974332710E+02  0.12978460832E+02 -0.43158328125E+02  0.58302512909E+02  0.10000000000E+01 0.  0.
    9000005    1    3    3    0    0 -0.36974332710E+02 -0.12978460832E+02  0.54602556722E+02  0.67215927617E+02  0.10000000000E+01 0.  0.
<mgrwt>
<rscale>  0 0.12499563E+03</rscale>
<asrwt>0</asrwt>
<pdfrwt beam="2">  1        4 0.87749394E-02 0.12499563E+03</pdfrwt>
<pdfrwt beam="1">  1       -4 0.10535590E-01 0.12499563E+03</pdfrwt>
<totfact> 0.10442575E+04</totfact>
</mgrwt>
</event>
<event>
 5    1  0.3270363E-002  0.1249986E+03  0.7818608E-02  0.1235071E+00
          4   -1    0    0  501    0  0.00000000000E+00  0.00000000000E+00  0.46507642174E+02  0.46524979103E+02  0.12700000000E+01 0.  1.
         -4   -1    0    0    0  501 -0.00000000000E+00 -0.00000000000E+00 -0.83951958873E+02  0.83961564412E+02  0.12700000000E+01 0.  1.
         25    2    1    2    0    0  0.00000000000E+00  0.00000000000E+00 -0.37444316699E+02  0.13048654352E+03  0.12499864474E+03 0.  0.
    9000005    1    3    3    0    0  0.14508873913E+02  0.19911443557E+02  0.41229114594E+02  0.48039701258E+02  0.10000000000E+01 0.  0.
    9000005    1    3    3    0    0 -0.14508873913E+02 -0.19911443557E+02 -0.78673431293E+02  0.82446842257E+02  0.10000000000E+01 0.  0.
<mgrwt>
<rscale>  0 0.12499864E+03</rscale>
<asrwt>0</asrwt>
<pdfrwt beam="1">  1        4 0.71570944E-02 0.12499864E+03</pdfrwt>
<pdfrwt beam="2">  1       -4 0.12917759E-01 0.12499864E+03</pdfrwt>
<totfact> 0.10334425E+04</totfact>
</mgrwt>
</event>
<event>
 5    1  0.3270363E-002  0.1249970E+03  0.7818608E-02  0.1235074E+00
          4   -1    0    0  501    0  0.00000000000E+00  0.00000000000E+00  0.77682903534E+01  0.78714188693E+01  0.12700000000E+01 0. -1.
         -4   -1    0    0    0  501 -0.00000000000E+00 -0.00000000000E+00 -0.49940144832E+03  0.49940306315E+03  0.12700000000E+01 0. -1.
         25    2    1    2    0    0  0.00000000000E+00  0.00000000000E+00 -0.49163315796E+03  0.50727448202E+03  0.12499695235E+03 0.  0.
    9000005    1    3    3    0    0 -0.41252329821E+02  0.51416721669E+01 -0.56469050367E+02  0.70128062554E+02  0.10000000000E+01 0.  0.
    9000005    1    3    3    0    0  0.41252329821E+02 -0.51416721669E+01 -0.43516410760E+03  0.43714641946E+03  0.10000000000E+01 0.  0.
<mgrwt>
<rscale>  0 0.12499695E+03</rscale>
<asrwt>0</asrwt>
<pdfrwt beam="1">  1        4 0.12031792E-02 0.12499695E+03</pdfrwt>
<pdfrwt beam="2">  1       -4 0.76839024E-01 0.12499695E+03</pdfrwt>
<totfact> 0.55308057E+03</totfact>
</mgrwt>
</event>
<event>
 5    1  0.3270363E-002  0.1249887E+03  0.7818608E-02  0.1235087E+00
          4   -1    0    0  501    0  0.00000000000E+00  0.00000000000E+00  0.35561043744E+02  0.35583714423E+02  0.12700000000E+01 0. -1.
         -4   -1    0    0    0  501 -0.00000000000E+00 -0.00000000000E+00 -0.10976509561E+03  0.10977244241E+03  0.12700000000E+01 0. -1.
         25    2    1    2    0    0  0.00000000000E+00  0.00000000000E+00 -0.74204051863E+02  0.14535615684E+03  0.12498868356E+03 0.  0.
    9000005    1    3    3    0    0  0.23196414438E+02  0.94096318797E+01  0.29480833008E+02  0.38687650869E+02  0.10000000000E+01 0.  0.
    9000005    1    3    3    0    0 -0.23196414438E+02 -0.94096318797E+01 -0.10368488487E+03  0.10666850597E+03  0.10000000000E+01 0.  0.
<mgrwt>
<rscale>  0 0.12498868E+03</rscale>
<asrwt>0</asrwt>
<pdfrwt beam="1">  1        4 0.54732389E-02 0.12498868E+03</pdfrwt>
<pdfrwt beam="2">  1       -4 0.16889247E-01 0.12498868E+03</pdfrwt>
<totfact> 0.10026312E+04</totfact>
</mgrwt>
</event>
<event>
 5    1  0.3270363E-002  0.1249971E+03  0.7818608E-02  0.1235074E+00
          4   -1    0    0  501    0  0.00000000000E+00  0.00000000000E+00  0.26549565740E+03  0.26549869490E+03  0.12700000000E+01 0.  1.
         -4   -1    0    0    0  501 -0.00000000000E+00 -0.00000000000E+00 -0.14681824937E+02  0.14736651027E+02  0.12700000000E+01 0.  1.
         25    2    1    2    0    0  0.00000000000E+00  0.00000000000E+00  0.25081383246E+03  0.28023534593E+03  0.12499708219E+03 0.  0.
    9000005    1    3    3    0    0  0.57998728204E+02 -0.80744117437E+01  0.76492688759E+02  0.96338881205E+02  0.10000000000E+01 0.  0.
    9000005    1    3    3    0    0 -0.57998728204E+02  0.80744117437E+01  0.17432114370E+03  0.18389646473E+03  0.10000000000E+01 0.  0.
<mgrwt>
<rscale>  0 0.12499708E+03</rscale>
<asrwt>0</asrwt>
<pdfrwt beam="1">  1        4 0.40849935E-01 0.12499708E+03</pdfrwt>
<pdfrwt beam="2">  1       -4 0.22631934E-02 0.12499708E+03</pdfrwt>
<totfact> 0.78151979E+03</totfact>
</mgrwt>
</event>
<event>
 5    1  0.3270363E-002  0.1249842E+03  0.7818608E-02  0.1235094E+00
          4   -1    0    0  501    0  0.00000000000E+00  0.00000000000E+00  0.49569815828E+02  0.49586082133E+02  0.12700000000E+01 0.  1.
         -4   -1    0    0    0  501 -0.00000000000E+00 -0.00000000000E+00 -0.78748707464E+02  0.78758947601E+02  0.12700000000E+01 0.  1.
         25    2    1    2    0    0  0.00000000000E+00  0.00000000000E+00 -0.29178891635E+02  0.12834502973E+03  0.12498415476E+03 0.  0.
    9000005    1    3    3    0    0 -0.37496497600E+02  0.54740461776E+01  0.36428586470E+02  0.52573704701E+02  0.10000000000E+01 0.  0.
    9000005    1    3    3    0    0  0.37496497600E+02 -0.54740461776E+01 -0.65607478106E+02  0.75771325032E+02  0.10000000000E+01 0.  0.
<mgrwt>
<rscale>  0 0.12498415E+03</rscale>
<asrwt>0</asrwt>
<pdfrwt beam="1">  1        4 0.76281645E-02 0.12498415E+03</pdfrwt>
<pdfrwt beam="2">  1       -4 0.12117225E-01 0.12498415E+03</pdfrwt>
<totfact> 0.10383757E+04</totfact>
</mgrwt>
</event>
<event>
 5    1  0.3270363E-002  0.1250005E+03  0.7818608E-02  0.1235069E+00
         -4   -1    0    0    0  501 -0.00000000000E+00  0.00000000000E+00  0.96476618714E+02  0.96484977372E+02  0.12700000000E+01 0. -1.
          4   -1    0    0  501    0  0.00000000000E+00 -0.00000000000E+00 -0.40469302407E+02  0.40489224954E+02  0.12700000000E+01 0. -1.
         25    2    1    2    0    0  0.00000000000E+00  0.00000000000E+00  0.56007316306E+02  0.13697420233E+03  0.12500045049E+03 0.  0.
    9000005    1    3    3    0    0 -0.36825933163E+02  0.48981891820E+01 -0.27060580073E+02  0.45971911038E+02  0.10000000000E+01 0.  0.
    9000005    1    3    3    0    0  0.36825933163E+02 -0.48981891820E+01  0.83067896380E+02  0.91002291287E+02  0.10000000000E+01 0.  0.
<mgrwt>
<rscale>  0 0.12500045E+03</rscale>
<asrwt>0</asrwt>
<pdfrwt beam="2">  1        4 0.62282220E-02 0.12500045E+03</pdfrwt>
<pdfrwt beam="1">  1       -4 0.14844732E-01 0.12500045E+03</pdfrwt>
<totfact> 0.10196522E+04</totfact>
</mgrwt>
</event>
<event>
 5    1  0.3270363E-002  0.1249969E+03  0.7818608E-02  0.1235074E+00
         -4   -1    0    0    0  501 -0.00000000000E+00  0.00000000000E+00  0.34360008060E+02  0.34383470649E+02  0.12700000000E+01 0. -1.
          4   -1    0    0  501    0  0.00000000000E+00 -0.00000000000E+00 -0.11361446343E+03  0.11362156134E+03  0.12700000000E+01 0. -1.
         25    2    1    2    0    0  0.00000000000E+00  0.00000000000E+00 -0.79254455373E+02  0.14800503199E+03  0.12499688315E+03 0.  0.
    9000005    1    3    3    0    0  0.64794889409E+01  0.60161762438E+02 -0.21145352476E+02  0.64105751442E+02  0.10000000000E+01 0.  0.
    9000005    1    3    3    0    0 -0.64794889409E+01 -0.60161762438E+02 -0.58109102897E+02  0.83899280546E+02  0.10000000000E+01 0.  0.
<mgrwt>
<rscale>  0 0.12499688E+03</rscale>
<asrwt>0</asrwt>
<pdfrwt beam="2">  1        4 0.17481499E-01 0.12499688E+03</pdfrwt>
<pdfrwt beam="1">  1       -4 0.52885059E-02 0.12499688E+03</pdfrwt>
<totfact> 0.99709857E+03</totfact>
</mgrwt>
</event>
<event>
 5    1  0.3270363E-002  0.1249998E+03  0.7818608E-02  0.1235070E+00
         -4   -1    0    0    0  501 -0.00000000000E+00  0.00000000000E+00  0.10231735062E+02  0.10310252294E+02  0.12700000000E+01 0.  1.
          4   -1    0    0  501    0  0.00000000000E+00 -0.00000000000E+00 -0.38023751305E+03  0.38023963395E+03  0.12700000000E+01 0.  1.
         25    2    1    2    0    0  0.00000000000E+00  0.00000000000E+00 -0.37000577798E+03  0.39054988625E+03  0.12499975162E+03 0.  0.
    9000005    1    3    3    0    0  0.14872426438E+02  0.58670689514E+02 -0.23358669819E+03  0.24130309664E+03  0.10000000000E+01 0.  0.
    9000005    1    3    3    0    0 -0.14872426438E+02 -0.58670689514E+02 -0.13641907980E+03  0.14924678961E+03  0.10000000000E+01 0.  0.
<mgrwt>
<rscale>  0 0.12499975E+03</rscale>
<asrwt>0</asrwt>
<pdfrwt beam="2">  1        4 0.58504271E-01 0.12499975E+03</pdfrwt>
<pdfrwt beam="1">  1       -4 0.15803163E-02 0.12499975E+03</pdfrwt>
<totfact> 0.65482755E+03</totfact>
</mgrwt>
</event>
<event>
 5    1  0.3270363E-002  0.1249993E+03  0.7818608E-02  0.1235070E+00
         -4   -1    0    0    0  501 -0.00000000000E+00  0.00000000000E+00  0.13170228691E+03  0.13170841004E+03  0.12700000000E+01 0. -1.
          4   -1    0    0  501    0  0.00000000000E+00 -0.00000000000E+00 -0.29638971544E+02  0.29666168175E+02  0.12700000000E+01 0. -1.
         25    2    1    2    0    0  0.00000000000E+00  0.00000000000E+00  0.10206331536E+03  0.16137457822E+03  0.12499933661E+03 0.  0.
    9000005    1    3    3    0    0 -0.19220401642E+02  0.35194415849E+02 -0.10844157762E+02  0.41553176819E+02  0.10000000000E+01 0.  0.
    9000005    1    3    3    0    0  0.19220401642E+02 -0.35194415849E+02  0.11290747312E+03  0.11982140140E+03  0.10000000000E+01 0.  0.
<mgrwt>
<rscale>  0 0.12499934E+03</rscale>
<asrwt>0</asrwt>
<pdfrwt beam="2">  1        4 0.45624049E-02 0.12499934E+03</pdfrwt>
<pdfrwt beam="1">  1       -4 0.20264453E-01 0.12499934E+03</pdfrwt>
<totfact> 0.97079877E+03</totfact>
</mgrwt>
</event>
<event>
 5    1  0.3270363E-002  0.1249812E+03  0.7818608E-02  0.1235099E+00
          4   -1    0    0  501    0  0.00000000000E+00  0.00000000000E+00  0.91844115789E+01  0.92718022007E+01  0.12700000000E+01 0. -1.
         -4   -1    0    0    0  501 -0.00000000000E+00 -0.00000000000E+00 -0.42308342367E+03  0.42308532979E+03  0.12700000000E+01 0. -1.
         25    2    1    2    0    0  0.00000000000E+00  0.00000000000E+00 -0.41389901209E+03  0.43235713199E+03  0.12498118808E+03 0.  0.
    9000005    1    3    3    0    0 -0.12347668234E+01  0.48209251720E+02 -0.34438817978E+03  0.34774973037E+03  0.10000000000E+01 0.  0.
    9000005    1    3    3    0    0  0.12347668234E+01 -0.48209251720E+02 -0.69510832310E+02  0.84607401620E+02  0.10000000000E+01 0.  0.
<mgrwt>
<rscale>  0 0.12498119E+03</rscale>
<asrwt>0</asrwt>
<pdfrwt beam="1">  1        4 0.14198557E-02 0.12498119E+03</pdfrwt>
<pdfrwt beam="2">  1       -4 0.65096611E-01 0.12498119E+03</pdfrwt>
<totfact> 0.61548441E+03</totfact>
</mgrwt>
</event>
<event>
 5    1  0.3270363E-002  0.1249889E+03  0.7818608E-02  0.1235087E+00
          4   -1    0    0  501    0  0.00000000000E+00  0.00000000000E+00  0.16831070778E+03  0.16831549915E+03  0.12700000000E+01 0. -1.
         -4   -1    0    0    0  501 -0.00000000000E+00 -0.00000000000E+00 -0.23181931309E+02  0.23216693115E+02  0.12700000000E+01 0. -1.
         25    2    1    2    0    0  0.00000000000E+00  0.00000000000E+00  0.14512877648E+03  0.19153219227E+03  0.12498887516E+03 0.  0.
    9000005    1    3    3    0    0 -0.67036104656E+01  0.89911633787E+01 -0.21634538546E+02  0.24389191669E+02  0.10000000000E+01 0.  0.
    9000005    1    3    3    0    0  0.67036104656E+01 -0.89911633787E+01  0.16676331502E+03  0.16714300060E+03  0.10000000000E+01 0.  0.
<mgrwt>
<rscale>  0 0.12498888E+03</rscale>
<asrwt>0</asrwt>
<pdfrwt beam="1">  1        4 0.25896998E-01 0.12498888E+03</pdfrwt>
<pdfrwt beam="2">  1       -4 0.35694934E-02 0.12498888E+03</pdfrwt>
<totfact> 0.91604221E+03</totfact>
</mgrwt>
</event>
<event>
 5    1  0.3270363E-002  0.1250028E+03  0.7818608E-02  0.1235065E+00
          4   -1    0    0  501    0  0.00000000000E+00  0.00000000000E+00  0.14459500105E+03  0.14460057825E+03  0.12700000000E+01 0.  1.
         -4   -1    0    0    0  501 -0.00000000000E+00 -0.00000000000E+00 -0.26995290341E+02  0.27025147559E+02  0.12700000000E+01 0.  1.
         25    2    1    2    0    0  0.00000000000E+00  0.00000000000E+00  0.11759971071E+03  0.17162572581E+03  0.12500279117E+03 0.  0.
    9000005    1    3    3    0    0 -0.52340881103E+02 -0.27347425250E+02  0.86869557379E+02  0.10504651114E+03  0.10000000000E+01 0.  0.
    9000005    1    3    3    0    0  0.52340881103E+02  0.27347425250E+02  0.30730153333E+02  0.66579214672E+02  0.10000000000E+01 0.  0.
<mgrwt>
<rscale>  0 0.12500279E+03</rscale>
<asrwt>0</asrwt>
<pdfrwt beam="1">  1        4 0.22248110E-01 0.12500279E+03</pdfrwt>
<pdfrwt beam="2">  1       -4 0.41558473E-02 0.12500279E+03</pdfrwt>
<totfact> 0.95140529E+03</totfact>
</mgrwt>
</event>
<event>
 5    1  0.3270363E-002  0.1249996E+03  0.7818608E-02  0.1235070E+00
          4   -1    0    0  501    0  0.00000000000E+00  0.00000000000E+00  0.30684988494E+02  0.30711258829E+02  0.12700000000E+01 0.  1.
         -4   -1    0    0    0  501 -0.00000000000E+00 -0.00000000000E+00 -0.12721690635E+03  0.12722324536E+03  0.12700000000E+01 0.  1.
         25    2    1    2    0    0  0.00000000000E+00  0.00000000000E+00 -0.96531917852E+02  0.15793450419E+03  0.12499958580E+03 0.  0.
    9000005    1    3    3    0    0 -0.49218047749E+02 -0.12092201787E+02 -0.94457982666E+02  0.10720050400E+03  0.10000000000E+01 0.  0.
    9000005    1    3    3    0    0  0.49218047749E+02  0.12092201787E+02 -0.20739351860E+01  0.50734000191E+02  0.10000000000E+01 0.  0.
<mgrwt>
<rscale>  0 0.12499959E+03</rscale>
<asrwt>0</asrwt>
<pdfrwt beam="1">  1        4 0.47232759E-02 0.12499959E+03</pdfrwt>
<pdfrwt beam="2">  1       -4 0.19574340E-01 0.12499959E+03</pdfrwt>
<totfact> 0.97743391E+03</totfact>
</mgrwt>
</event>
<event>
 5    1  0.3270363E-002  0.1249986E+03  0.7818608E-02  0.1235071E+00
          4   -1    0    0  501    0  0.00000000000E+00  0.00000000000E+00  0.14776041104E+03  0.14776586876E+03  0.12700000000E+01 0. -1.
         -4   -1    0    0    0  501 -0.00000000000E+00 -0.00000000000E+00 -0.26414599272E+02  0.26445112114E+02  0.12700000000E+01 0. -1.
         25    2    1    2    0    0  0.00000000000E+00  0.00000000000E+00  0.12134581177E+03  0.17421098088E+03  0.12499863929E+03 0.  0.
    9000005    1    3    3    0    0 -0.30796737688E+02 -0.46505793647E+02  0.99943120822E+02  0.11445896773E+03  0.10000000000E+01 0.  0.
    9000005    1    3    3    0    0  0.30796737688E+02  0.46505793647E+02  0.21402690949E+02  0.59752013144E+02  0.10000000000E+01 0.  0.
<mgrwt>
<rscale>  0 0.12499864E+03</rscale>
<asrwt>0</asrwt>
<pdfrwt beam="1">  1        4 0.22735139E-01 0.12499864E+03</pdfrwt>
<pdfrwt beam="2">  1       -4 0.40665514E-02 0.12499864E+03</pdfrwt>
<totfact> 0.94672436E+03</totfact>
</mgrwt>
</event>
<event>
 5    1  0.3270363E-002  0.1250001E+03  0.7818608E-02  0.1235069E+00
         -4   -1    0    0    0  501 -0.00000000000E+00  0.00000000000E+00  0.77628139119E+02  0.77638527054E+02  0.12700000000E+01 0. -1.
          4   -1    0    0  501    0  0.00000000000E+00 -0.00000000000E+00 -0.50298322740E+02  0.50314353523E+02  0.12700000000E+01 0. -1.
         25    2    1    2    0    0  0.00000000000E+00  0.00000000000E+00  0.27329816380E+02  0.12795288058E+03  0.12500008314E+03 0.  0.
    9000005    1    3    3    0    0 -0.26076109014E+02  0.45745364793E+02  0.48114832309E+02  0.71334696673E+02  0.10000000000E+01 0.  0.
    9000005    1    3    3    0    0  0.26076109014E+02 -0.45745364793E+02 -0.20785015929E+02  0.56618183904E+02  0.10000000000E+01 0.  0.
<mgrwt>
<rscale>  0 0.12500008E+03</rscale>
<asrwt>0</asrwt>
<pdfrwt beam="2">  1        4 0.77402357E-02 0.12500008E+03</pdfrwt>
<pdfrwt beam="1">  1       -4 0.11944823E-01 0.12500008E+03</pdfrwt>
<totfact> 0.10388486E+04</totfact>
</mgrwt>
</event>
<event>
 5    1  0.3270363E-002  0.1250075E+03  0.7818608E-02  0.1235058E+00
          4   -1    0    0  501    0  0.00000000000E+00  0.00000000000E+00  0.35505609257E+02  0.35528315309E+02  0.12700000000E+01 0. -1.
         -4   -1    0    0    0  501 -0.00000000000E+00 -0.00000000000E+00 -0.10996947387E+03  0.10997680702E+03  0.12700000000E+01 0. -1.
         25    2    1    2    0    0  0.00000000000E+00  0.00000000000E+00 -0.74463864610E+02  0.14550512233E+03  0.12500749374E+03 0.  0.
    9000005    1    3    3    0    0  0.13999818857E+02 -0.28397216059E+02  0.25485721598E+02  0.40656104257E+02  0.10000000000E+01 0.  0.
    9000005    1    3    3    0    0 -0.13999818857E+02  0.28397216059E+02 -0.99949586208E+02  0.10484901807E+03  0.10000000000E+01 0.  0.
<mgrwt>
<rscale>  0 0.12500749E+03</rscale>
<asrwt>0</asrwt>
<pdfrwt beam="1">  1        4 0.54647122E-02 0.12500749E+03</pdfrwt>
<pdfrwt beam="2">  1       -4 0.16920691E-01 0.12500749E+03</pdfrwt>
<totfact> 0.10019045E+04</totfact>
</mgrwt>
</event>
<event>
 5    1  0.3270363E-002  0.1250020E+03  0.7818608E-02  0.1235066E+00
         -4   -1    0    0    0  501 -0.00000000000E+00  0.00000000000E+00  0.32476416903E+03  0.32476665220E+03  0.12700000000E+01 0.  1.
          4   -1    0    0  501    0  0.00000000000E+00 -0.00000000000E+00 -0.11992285290E+02  0.12059345192E+02  0.12700000000E+01 0.  1.
         25    2    1    2    0    0  0.00000000000E+00  0.00000000000E+00  0.31277188374E+03  0.33682599740E+03  0.12500200505E+03 0.  0.
    9000005    1    3    3    0    0  0.22231366248E+02  0.57384756490E+02  0.12709918450E+03  0.14121772772E+03  0.10000000000E+01 0.  0.
    9000005    1    3    3    0    0 -0.22231366248E+02 -0.57384756490E+02  0.18567269924E+03  0.19560826967E+03  0.10000000000E+01 0.  0.
<mgrwt>
<rscale>  0 0.12500201E+03</rscale>
<asrwt>0</asrwt>
<pdfrwt beam="2">  1        4 0.18503166E-02 0.12500201E+03</pdfrwt>
<pdfrwt beam="1">  1       -4 0.49969064E-01 0.12500201E+03</pdfrwt>
<totfact> 0.71195434E+03</totfact>
</mgrwt>
</event>
<event>
 5    1  0.3270363E-002  0.1250011E+03  0.7818608E-02  0.1235068E+00
          4   -1    0    0  501    0  0.00000000000E+00  0.00000000000E+00  0.20285827116E+02  0.20325542595E+02  0.12700000000E+01 0.  1.
         -4   -1    0    0    0  501 -0.00000000000E+00 -0.00000000000E+00 -0.19233372625E+03  0.19233791917E+03  0.12700000000E+01 0.  1.
         25    2    1    2    0    0  0.00000000000E+00  0.00000000000E+00 -0.17204789913E+03  0.21266346177E+03  0.12500107350E+03 0.  0.
    9000005    1    3    3    0    0 -0.43973067523E+02 -0.21660401951E+02 -0.20077971261E+02  0.52980454981E+02  0.10000000000E+01 0.  0.
    9000005    1    3    3    0    0  0.43973067523E+02  0.21660401951E+02 -0.15196992787E+03  0.15968300679E+03  0.10000000000E+01 0.  0.
<mgrwt>
<rscale>  0 0.12500107E+03</rscale>
<asrwt>0</asrwt>
<pdfrwt beam="1">  1        4 0.31242742E-02 0.12500107E+03</pdfrwt>
<pdfrwt beam="2">  1       -4 0.29593180E-01 0.12500107E+03</pdfrwt>
<totfact> 0.88040630E+03</totfact>
</mgrwt>
</event>
<event>
 5    1  0.3270363E-002  0.1250015E+03  0.7818608E-02  0.1235067E+00
         -4   -1    0    0    0  501 -0.00000000000E+00  0.00000000000E+00  0.42013798363E+01  0.43891334599E+01  0.12700000000E+01 0. -1.
          4   -1    0    0  501    0  0.00000000000E+00 -0.00000000000E+00 -0.90926719250E+03  0.90926807942E+03  0.12700000000E+01 0. -1.
         25    2    1    2    0    0  0.00000000000E+00  0.00000000000E+00 -0.90506581266E+03  0.91365721288E+03  0.12500150959E+03 0.  0.
    9000005    1    3    3    0    0 -0.38633379909E+02 -0.23663273629E+02 -0.13791108667E+03  0.14516527267E+03  0.10000000000E+01 0.  0.
    9000005    1    3    3    0    0  0.38633379909E+02  0.23663273629E+02 -0.76715472599E+03  0.76849194021E+03  0.10000000000E+01 0.  0.
<mgrwt>
<rscale>  0 0.12500151E+03</rscale>
<asrwt>0</asrwt>
<pdfrwt beam="2">  1        4 0.13990162E+00 0.12500151E+03</pdfrwt>
<pdfrwt beam="1">  1       -4 0.66087766E-03 0.12500151E+03</pdfrwt>
<totfact> 0.33641270E+03</totfact>
</mgrwt>
</event>
<event>
 5    1  0.3270363E-002  0.1249933E+03  0.7818608E-02  0.1235080E+00
          4   -1    0    0  501    0  0.00000000000E+00  0.00000000000E+00  0.28206098328E+03  0.28206384240E+03  0.12700000000E+01 0.  1.
         -4   -1    0    0    0  501 -0.00000000000E+00 -0.00000000000E+00 -0.13815423431E+02  0.13873673795E+02  0.12700000000E+01 0.  1.
         25    2    1    2    0    0  0.00000000000E+00  0.00000000000E+00  0.26824555985E+03  0.29593751619E+03  0.12499333227E+03 0.  0.
    9000005    1    3    3    0    0 -0.27560605598E+02 -0.36547889676E+02  0.23483733505E+03  0.23925908374E+03  0.10000000000E+01 0.  0.
    9000005    1    3    3    0    0  0.27560605598E+02  0.36547889676E+02  0.33408224798E+02  0.56678432449E+02  0.10000000000E+01 0.  0.
<mgrwt>
<rscale>  0 0.12499333E+03</rscale>
<asrwt>0</asrwt>
<pdfrwt beam="1">  1        4 0.43398699E-01 0.12499333E+03</pdfrwt>
<pdfrwt beam="2">  1       -4 0.21301505E-02 0.12499333E+03</pdfrwt>
<totfact> 0.76122539E+03</totfact>
</mgrwt>
</event>
<event>
 5    1  0.3270363E-002  0.1249992E+03  0.7818608E-02  0.1235070E+00
         -4   -1    0    0    0  501 -0.00000000000E+00  0.00000000000E+00  0.19553301661E+02  0.19594501929E+02  0.12700000000E+01 0.  1.
          4   -1    0    0  501    0  0.00000000000E+00 -0.00000000000E+00 -0.19951852248E+03  0.19952256442E+03  0.12700000000E+01 0.  1.
         25    2    1    2    0    0  0.00000000000E+00  0.00000000000E+00 -0.17996522082E+03  0.21911706635E+03  0.12499923224E+03 0.  0.
    9000005    1    3    3    0    0 -0.41287594332E+02 -0.46162591602E+02 -0.10460178165E+03  0.12156555035E+03  0.10000000000E+01 0.  0.
    9000005    1    3    3    0    0  0.41287594332E+02  0.46162591602E+02 -0.75363439178E+02  0.97551516000E+02  0.10000000000E+01 0.  0.
<mgrwt>
<rscale>  0 0.12499923E+03</rscale>
<asrwt>0</asrwt>
<pdfrwt beam="2">  1        4 0.30698636E-01 0.12499923E+03</pdfrwt>
<pdfrwt beam="1">  1       -4 0.30116806E-02 0.12499923E+03</pdfrwt>
<totfact> 0.87009748E+03</totfact>
</mgrwt>
</event>
<event>
 5    1  0.3270363E-002  0.1249961E+03  0.7818608E-02  0.1235075E+00
          4   -1    0    0  501    0  0.00000000000E+00  0.00000000000E+00  0.57136308841E+01  0.58530742247E+01  0.12700000000E+01 0.  1.
         -4   -1    0    0    0  501 -0.00000000000E+00 -0.00000000000E+00 -0.67524754470E+03  0.67524873901E+03  0.12700000000E+01 0.  1.
         25    2    1    2    0    0  0.00000000000E+00  0.00000000000E+00 -0.66953391382E+03  0.68110181323E+03  0.12499607286E+03 0.  0.
    9000005    1    3    3    0    0 -0.45328009271E+02 -0.16760651547E+02 -0.11889792884E+03  0.12834821911E+03  0.10000000000E+01 0.  0.
    9000005    1    3    3    0    0  0.45328009271E+02  0.16760651547E+02 -0.55063598498E+03  0.55275359412E+03  0.10000000000E+01 0.  0.
<mgrwt>
<rscale>  0 0.12499607E+03</rscale>
<asrwt>0</asrwt>
<pdfrwt beam="1">  1        4 0.88983895E-03 0.12499607E+03</pdfrwt>
<pdfrwt beam="2">  1       -4 0.10389499E+00 0.12499607E+03</pdfrwt>
<totfact> 0.44107072E+03</totfact>
</mgrwt>
</event>
<event>
 5    1  0.3270363E-002  0.1250064E+03  0.7818608E-02  0.1235059E+00
          4   -1    0    0  501    0  0.00000000000E+00  0.00000000000E+00  0.23871255599E+02  0.23905015036E+02  0.12700000000E+01 0. -1.
         -4   -1    0    0    0  501 -0.00000000000E+00 -0.00000000000E+00 -0.16350310604E+03  0.16350803829E+03  0.12700000000E+01 0. -1.
         25    2    1    2    0    0  0.00000000000E+00  0.00000000000E+00 -0.13963185044E+03  0.18741305332E+03  0.12500639543E+03 0.  0.
    9000005    1    3    3    0    0  0.43184701652E+02  0.42691178455E+02 -0.91961632400E+02  0.11020615685E+03  0.10000000000E+01 0.  0.
    9000005    1    3    3    0    0 -0.43184701652E+02 -0.42691178455E+02 -0.47670218041E+02  0.77206896471E+02  0.10000000000E+01 0.  0.
<mgrwt>
<rscale>  0 0.12500640E+03</rscale>
<asrwt>0</asrwt>
<pdfrwt beam="1">  1        4 0.36754772E-02 0.12500640E+03</pdfrwt>
<pdfrwt beam="2">  1       -4 0.25157300E-01 0.12500640E+03</pdfrwt>
<totfact> 0.92286169E+03</totfact>
</mgrwt>
</event>
<event>
 5    1  0.3270363E-002  0.1250004E+03  0.7818608E-02  0.1235069E+00
          4   -1    0    0  501    0  0.00000000000E+00  0.00000000000E+00  0.11322448408E+02  0.11393451538E+02  0.12700000000E+01 0. -1.
         -4   -1    0    0    0  501 -0.00000000000E+00 -0.00000000000E+00 -0.34385237181E+03  0.34385471714E+03  0.12700000000E+01 0. -1.
         25    2    1    2    0    0  0.00000000000E+00  0.00000000000E+00 -0.33252992340E+03  0.35524816868E+03  0.12500044557E+03 0.  0.
    9000005    1    3    3    0    0  0.48938265090E+02  0.21587053434E+02 -0.25810620324E+03  0.26359204620E+03  0.10000000000E+01 0.  0.
    9000005    1    3    3    0    0 -0.48938265090E+02 -0.21587053434E+02 -0.74423720159E+02  0.91656122481E+02  0.10000000000E+01 0.  0.
<mgrwt>
<rscale>  0 0.12500045E+03</rscale>
<asrwt>0</asrwt>
<pdfrwt beam="1">  1        4 0.17475576E-02 0.12500045E+03</pdfrwt>
<pdfrwt beam="2">  1       -4 0.52905999E-01 0.12500045E+03</pdfrwt>
<totfact> 0.69150348E+03</totfact>
</mgrwt>
</event>
<event>
 5    1  0.3270363E-002  0.1250016E+03  0.7818608E-02  0.1235067E+00
         -4   -1    0    0    0  501 -0.00000000000E+00  0.00000000000E+00  0.33930496008E+02  0.33954255394E+02  0.12700000000E+01 0.  1.
          4   -1    0    0  501    0  0.00000000000E+00 -0.00000000000E+00 -0.11506042989E+03  0.11506743860E+03  0.12700000000E+01 0.  1.
         25    2    1    2    0    0  0.00000000000E+00  0.00000000000E+00 -0.81129933883E+02  0.14902169400E+03  0.12500159643E+03 0.  0.
    9000005    1    3    3    0    0  0.47496577861E+02 -0.13117430359E+01  0.78270318481E+01  0.48165423343E+02  0.10000000000E+01 0.  0.
    9000005    1    3    3    0    0 -0.47496577861E+02  0.13117430359E+01 -0.88956965731E+02  0.10085627065E+03  0.10000000000E+01 0.  0.
<mgrwt>
<rscale>  0 0.12500160E+03</rscale>
<asrwt>0</asrwt>
<pdfrwt beam="2">  1        4 0.17703971E-01 0.12500160E+03</pdfrwt>
<pdfrwt beam="1">  1       -4 0.52224431E-02 0.12500160E+03</pdfrwt>
<totfact> 0.99495492E+03</totfact>
</mgrwt>
</event>
<event>
 5    1  0.3270363E-002  0.1250099E+03  0.7818608E-02  0.1235054E+00
         -4   -1    0    0    0  501 -0.00000000000E+00  0.00000000000E+00  0.16128530954E+02  0.16178455140E+02  0.12700000000E+01 0.  1.
          4   -1    0    0  501    0  0.00000000000E+00 -0.00000000000E+00 -0.24180765497E+03  0.24181099004E+03  0.12700000000E+01 0.  1.
         25    2    1    2    0    0  0.00000000000E+00  0.00000000000E+00 -0.22567912402E+03  0.25798944518E+03  0.12500994683E+03 0.  0.
    9000005    1    3    3    0    0 -0.28000799789E+02  0.47853804416E+02 -0.17236153939E+03  0.18106223142E+03  0.10000000000E+01 0.  0.
    9000005    1    3    3    0    0  0.28000799789E+02 -0.47853804416E+02 -0.53317584627E+02  0.76927213757E+02  0.10000000000E+01 0.  0.
<mgrwt>
<rscale>  0 0.12500995E+03</rscale>
<asrwt>0</asrwt>
<pdfrwt beam="2">  1        4 0.37205272E-01 0.12500995E+03</pdfrwt>
<pdfrwt beam="1">  1       -4 0.24854095E-02 0.12500995E+03</pdfrwt>
<totfact> 0.81171069E+03</totfact>
</mgrwt>
</event>
<event>
 5    1  0.3270363E-002  0.1250011E+03  0.7818608E-02  0.1235068E+00
          4   -1    0    0  501    0  0.00000000000E+00  0.00000000000E+00  0.43918764597E+03  0.43918948220E+03  0.12700000000E+01 0.  1.
         -4   -1    0    0    0  501 -0.00000000000E+00 -0.00000000000E+00 -0.88472237421E+01  0.89379118335E+01  0.12700000000E+01 0.  1.
         25    2    1    2    0    0  0.00000000000E+00  0.00000000000E+00  0.43034042223E+03  0.44812739403E+03  0.12500112910E+03 0.  0.
    9000005    1    3    3    0    0 -0.44994899721E+02  0.26641930764E+02  0.33784734231E+03  0.34187155509E+03  0.10000000000E+01 0.  0.
    9000005    1    3    3    0    0  0.44994899721E+02 -0.26641930764E+02  0.92493079921E+02  0.10625583894E+03  0.10000000000E+01 0.  0.
<mgrwt>
<rscale>  0 0.12500113E+03</rscale>
<asrwt>0</asrwt>
<pdfrwt beam="1">  1        4 0.67574437E-01 0.12500113E+03</pdfrwt>
<pdfrwt beam="2">  1       -4 0.13682288E-02 0.12500113E+03</pdfrwt>
<totfact> 0.60124871E+03</totfact>
</mgrwt>
</event>
<event>
 5    1  0.3270363E-002  0.1249982E+03  0.7818608E-02  0.1235072E+00
          4   -1    0    0  501    0  0.00000000000E+00  0.00000000000E+00  0.21902934960E+02  0.21939723331E+02  0.12700000000E+01 0. -1.
         -4   -1    0    0    0  501 -0.00000000000E+00 -0.00000000000E+00 -0.17814980976E+03  0.17815433651E+03  0.12700000000E+01 0. -1.
         25    2    1    2    0    0  0.00000000000E+00  0.00000000000E+00 -0.15624687480E+03  0.20009405984E+03  0.12499818758E+03 0.  0.
    9000005    1    3    3    0    0 -0.45344936446E+02 -0.23011197404E+02 -0.13627057059E+03  0.14545221509E+03  0.10000000000E+01 0.  0.
    9000005    1    3    3    0    0  0.45344936446E+02  0.23011197404E+02 -0.19976304209E+02  0.54641844745E+02  0.10000000000E+01 0.  0.
<mgrwt>
<rscale>  0 0.12499819E+03</rscale>
<asrwt>0</asrwt>
<pdfrwt beam="1">  1        4 0.33728605E-02 0.12499819E+03</pdfrwt>
<pdfrwt beam="2">  1       -4 0.27410840E-01 0.12499819E+03</pdfrwt>
<totfact> 0.90123300E+03</totfact>
</mgrwt>
</event>
<event>
 5    1  0.3270363E-002  0.1250005E+03  0.7818608E-02  0.1235069E+00
          4   -1    0    0  501    0  0.00000000000E+00  0.00000000000E+00  0.21254255347E+02  0.21292164530E+02  0.12700000000E+01 0. -1.
         -4   -1    0    0    0  501 -0.00000000000E+00 -0.00000000000E+00 -0.18358418960E+03  0.18358858236E+03  0.12700000000E+01 0. -1.
         25    2    1    2    0    0  0.00000000000E+00  0.00000000000E+00 -0.16232993426E+03  0.20488074689E+03  0.12500045156E+03 0.  0.
    9000005    1    3    3    0    0 -0.45992882320E+02 -0.29357601728E+02 -0.31233010875E+02  0.62878573231E+02  0.10000000000E+01 0.  0.
    9000005    1    3    3    0    0  0.45992882320E+02  0.29357601728E+02 -0.13109692338E+03  0.14200217366E+03  0.10000000000E+01 0.  0.
<mgrwt>
<rscale>  0 0.12500045E+03</rscale>
<asrwt>0</asrwt>
<pdfrwt beam="1">  1        4 0.32731395E-02 0.12500045E+03</pdfrwt>
<pdfrwt beam="2">  1       -4 0.28246974E-01 0.12500045E+03</pdfrwt>
<totfact> 0.89317905E+03</totfact>
</mgrwt>
</event>
<event>
 5    1  0.3270363E-002  0.1249983E+03  0.7818608E-02  0.1235072E+00
          4   -1    0    0  501    0  0.00000000000E+00  0.00000000000E+00  0.41124621683E+02  0.41144226916E+02  0.12700000000E+01 0. -1.
         -4   -1    0    0    0  501 -0.00000000000E+00 -0.00000000000E+00 -0.94936651185E+02  0.94945145417E+02  0.12700000000E+01 0. -1.
         25    2    1    2    0    0  0.00000000000E+00  0.00000000000E+00 -0.53812029502E+02  0.13608937233E+03  0.12499833096E+03 0.  0.
    9000005    1    3    3    0    0 -0.32018896620E+02  0.45741881066E+02 -0.57460666210E+02  0.80126509880E+02  0.10000000000E+01 0.  0.
    9000005    1    3    3    0    0  0.32018896620E+02 -0.45741881066E+02  0.36486367081E+01  0.55962862454E+02  0.10000000000E+01 0.  0.
<mgrwt>
<rscale>  0 0.12499833E+03</rscale>
<asrwt>0</asrwt>
<pdfrwt beam="1">  1        4 0.63290264E-02 0.12499833E+03</pdfrwt>
<pdfrwt beam="2">  1       -4 0.14607800E-01 0.12499833E+03</pdfrwt>
<totfact> 0.10215545E+04</totfact>
</mgrwt>
</event>
<event>
 5    1  0.3270363E-002  0.1249986E+03  0.7818608E-02  0.1235071E+00
         -4   -1    0    0    0  501 -0.00000000000E+00  0.00000000000E+00  0.16824535130E+03  0.16825014453E+03  0.12700000000E+01 0.  1.
          4   -1    0    0  501    0  0.00000000000E+00 -0.00000000000E+00 -0.23194558152E+02  0.23229301063E+02  0.12700000000E+01 0.  1.
         25    2    1    2    0    0  0.00000000000E+00  0.00000000000E+00  0.14505079314E+03  0.19147944559E+03  0.12499858196E+03 0.  0.
    9000005    1    3    3    0    0  0.42216266989E+02 -0.46022491468E+02  0.75908834050E+02  0.98302767032E+02  0.10000000000E+01 0.  0.
    9000005    1    3    3    0    0 -0.42216266989E+02  0.46022491468E+02  0.69141959095E+02  0.93176678557E+02  0.10000000000E+01 0.  0.
<mgrwt>
<rscale>  0 0.12499858E+03</rscale>
<asrwt>0</asrwt>
<pdfrwt beam="2">  1        4 0.35714349E-02 0.12499858E+03</pdfrwt>
<pdfrwt beam="1">  1       -4 0.25886941E-01 0.12499858E+03</pdfrwt>
<totfact> 0.91593440E+03</totfact>
</mgrwt>
</event>
<event>
 5    1  0.3270363E-002  0.1249973E+03  0.7818608E-02  0.1235073E+00
         -4   -1    0    0    0  501 -0.00000000000E+00  0.00000000000E+00  0.52937576345E+01  0.54439663751E+01  0.12700000000E+01 0. -1.
          4   -1    0    0  501    0  0.00000000000E+00 -0.00000000000E+00 -0.72739303825E+03  0.72739414694E+03  0.12700000000E+01 0. -1.
         25    2    1    2    0    0  0.00000000000E+00  0.00000000000E+00 -0.72209928062E+03  0.73283811331E+03  0.12499731699E+03 0.  0.
    9000005    1    3    3    0    0 -0.30167051624E+02 -0.53045165081E+02 -0.28212065754E+03  0.28864668013E+03  0.10000000000E+01 0.  0.
    9000005    1    3    3    0    0  0.30167051624E+02  0.53045165081E+02 -0.43997862308E+03  0.44419143318E+03  0.10000000000E+01 0.  0.
<mgrwt>
<rscale>  0 0.12499732E+03</rscale>
<asrwt>0</asrwt>
<pdfrwt beam="2">  1        4 0.11191818E+00 0.12499732E+03</pdfrwt>
<pdfrwt beam="1">  1       -4 0.82606463E-03 0.12499732E+03</pdfrwt>
<totfact> 0.41411203E+03</totfact>
</mgrwt>
</event>
<event>
 5    1  0.3270363E-002  0.1250020E+03  0.7818608E-02  0.1235066E+00
         -4   -1    0    0    0  501 -0.00000000000E+00  0.00000000000E+00  0.24036296280E+03  0.24036631791E+03  0.12700000000E+01 0.  1.
          4   -1    0    0  501    0  0.00000000000E+00 -0.00000000000E+00 -0.16223705144E+02  0.16273337353E+02  0.12700000000E+01 0.  1.
         25    2    1    2    0    0  0.00000000000E+00  0.00000000000E+00  0.22413925765E+03  0.25663965526E+03  0.12500202331E+03 0.  0.
    9000005    1    3    3    0    0 -0.30615040676E+01 -0.58486585055E+02  0.15683076937E+03  0.16741249553E+03  0.10000000000E+01 0.  0.
    9000005    1    3    3    0    0  0.30615040676E+01  0.58486585055E+02  0.67308488284E+02  0.89227159731E+02  0.10000000000E+01 0.  0.
<mgrwt>
<rscale>  0 0.12500202E+03</rscale>
<asrwt>0</asrwt>
<pdfrwt beam="2">  1        4 0.25000308E-02 0.12500202E+03</pdfrwt>
<pdfrwt beam="1">  1       -4 0.36982990E-01 0.12500202E+03</pdfrwt>
<totfact> 0.81376298E+03</totfact>
</mgrwt>
</event>
<event>
 5    1  0.3270363E-002  0.1250029E+03  0.7818608E-02  0.1235065E+00
          4   -1    0    0  501    0  0.00000000000E+00  0.00000000000E+00  0.29105651233E+02  0.29133345735E+02  0.12700000000E+01 0. -1.
         -4   -1    0    0    0  501 -0.00000000000E+00 -0.00000000000E+00 -0.13412107359E+03  0.13412708631E+03  0.12700000000E+01 0. -1.
         25    2    1    2    0    0  0.00000000000E+00  0.00000000000E+00 -0.10501542236E+03  0.16326043204E+03  0.12500291891E+03 0.  0.
    9000005    1    3    3    0    0 -0.30457424880E+02 -0.32480870313E+02  0.47619406247E+01  0.44792161648E+02  0.10000000000E+01 0.  0.
    9000005    1    3    3    0    0  0.30457424880E+02  0.32480870313E+02 -0.10977736298E+03  0.11846827039E+03  0.10000000000E+01 0.  0.
<mgrwt>
<rscale>  0 0.12500292E+03</rscale>
<asrwt>0</asrwt>
<pdfrwt beam="1">  1        4 0.44803854E-02 0.12500292E+03</pdfrwt>
<pdfrwt beam="2">  1       -4 0.20636604E-01 0.12500292E+03</pdfrwt>
<totfact> 0.96711514E+03</totfact>
</mgrwt>
</event>
<event>
 5    1  0.3270363E-002  0.1250005E+03  0.7818608E-02  0.1235068E+00
          4   -1    0    0  501    0  0.00000000000E+00  0.00000000000E+00  0.10740581539E+04  0.10740589048E+04  0.12700000000E+01 0.  1.
         -4   -1    0    0    0  501 -0.00000000000E+00 -0.00000000000E+00 -0.35252920353E+01  0.37470767185E+01  0.12700000000E+01 0.  1.
         25    2    1    2    0    0  0.00000000000E+00  0.00000000000E+00  0.10705328619E+04  0.10778059815E+04  0.12500050137E+03 0.  0.
    9000005    1    3    3    0    0 -0.26995015493E+00  0.39690444108E+02  0.11907288443E+03  0.12551795104E+03  0.10000000000E+01 0.  0.
    9000005    1    3    3    0    0  0.26995015493E+00 -0.39690444108E+02  0.95145997745E+03  0.95228803044E+03  0.10000000000E+01 0.  0.
<mgrwt>
<rscale>  0 0.12500050E+03</rscale>
<asrwt>0</asrwt>
<pdfrwt beam="1">  1        4 0.16525682E+00 0.12500050E+03</pdfrwt>
<pdfrwt beam="2">  1       -4 0.55947078E-03 0.12500050E+03</pdfrwt>
<totfact> 0.28141889E+03</totfact>
</mgrwt>
</event>
<event>
 5    1  0.3270363E-002  0.1249977E+03  0.7818608E-02  0.1235073E+00
         -4   -1    0    0    0  501 -0.00000000000E+00  0.00000000000E+00  0.42446217531E+02  0.42465212618E+02  0.12700000000E+01 0.  1.
          4   -1    0    0  501    0  0.00000000000E+00 -0.00000000000E+00 -0.91980885934E+02  0.91989653099E+02  0.12700000000E+01 0.  1.
         25    2    1    2    0    0  0.00000000000E+00  0.00000000000E+00 -0.49534668404E+02  0.13445486572E+03  0.12499771014E+03 0.  0.
    9000005    1    3    3    0    0  0.46489255322E+01 -0.61254298586E+02 -0.12436828838E+02  0.62684737500E+02  0.10000000000E+01 0.  0.
    9000005    1    3    3    0    0 -0.46489255322E+01  0.61254298586E+02 -0.37097839566E+02  0.71770128217E+02  0.10000000000E+01 0.  0.
<mgrwt>
<rscale>  0 0.12499771E+03</rscale>
<asrwt>0</asrwt>
<pdfrwt beam="2">  1        4 0.14153041E-01 0.12499771E+03</pdfrwt>
<pdfrwt beam="1">  1       -4 0.65323229E-02 0.12499771E+03</pdfrwt>
<totfact> 0.10250103E+04</totfact>
</mgrwt>
</event>
<event>
 5    1  0.3270363E-002  0.1249973E+03  0.7818608E-02  0.1235074E+00
          4   -1    0    0  501    0  0.00000000000E+00  0.00000000000E+00  0.54109666346E+03  0.54109815385E+03  0.12700000000E+01 0.  1.
         -4   -1    0    0    0  501 -0.00000000000E+00 -0.00000000000E+00 -0.71614526264E+01  0.72731907523E+01  0.12700000000E+01 0.  1.
         25    2    1    2    0    0  0.00000000000E+00  0.00000000000E+00  0.53393521083E+03  0.54837134461E+03  0.12499728885E+03 0.  0.
    9000005    1    3    3    0    0 -0.49440672152E+01 -0.34022037276E+02  0.38034308270E+02  0.51279151968E+02  0.10000000000E+01 0.  0.
    9000005    1    3    3    0    0  0.49440672152E+01  0.34022037276E+02  0.49590090256E+03  0.49709219264E+03  0.10000000000E+01 0.  0.
<mgrwt>
<rscale>  0 0.12499729E+03</rscale>
<asrwt>0</asrwt>
<pdfrwt beam="1">  1        4 0.83254370E-01 0.12499729E+03</pdfrwt>
<pdfrwt beam="2">  1       -4 0.11104716E-02 0.12499729E+03</pdfrwt>
<totfact> 0.52300740E+03</totfact>
</mgrwt>
</event>
<event>
 5    1  0.3270363E-002  0.1249988E+03  0.7818608E-02  0.1235071E+00
          4   -1    0    0  501    0  0.00000000000E+00  0.00000000000E+00  0.20216805603E+02  0.20256656407E+02  0.12700000000E+01 0. -1.
         -4   -1    0    0    0  501 -0.00000000000E+00 -0.00000000000E+00 -0.19298221418E+03  0.19298639301E+03  0.12700000000E+01 0. -1.
         25    2    1    2    0    0  0.00000000000E+00  0.00000000000E+00 -0.17276540857E+03  0.21324304942E+03  0.12499884690E+03 0.  0.
    9000005    1    3    3    0    0  0.11749468414E+02  0.52181158347E+02 -0.14151068487E+03  0.15128515204E+03  0.10000000000E+01 0.  0.
    9000005    1    3    3    0    0 -0.11749468414E+02 -0.52181158347E+02 -0.31254723705E+02  0.61957897385E+02  0.10000000000E+01 0.  0.
<mgrwt>
<rscale>  0 0.12499885E+03</rscale>
<asrwt>0</asrwt>
<pdfrwt beam="1">  1        4 0.31136648E-02 0.12499885E+03</pdfrwt>
<pdfrwt beam="2">  1       -4 0.29692957E-01 0.12499885E+03</pdfrwt>
<totfact> 0.87951240E+03</totfact>
</mgrwt>
</event>
<event>
 5    1  0.3270363E-002  0.1250019E+03  0.7818608E-02  0.1235066E+00
         -4   -1    0    0    0  501 -0.00000000000E+00  0.00000000000E+00  0.36917286023E+03  0.36917504470E+03  0.12700000000E+01 0.  1.
          4   -1    0    0  501    0  0.00000000000E+00 -0.00000000000E+00 -0.10541069669E+02  0.10617299552E+02  0.12700000000E+01 0.  1.
         25    2    1    2    0    0  0.00000000000E+00  0.00000000000E+00  0.35863179056E+03  0.37979234425E+03  0.12500185420E+03 0.  0.
    9000005    1    3    3    0    0 -0.12345242686E+02 -0.23782104967E+02  0.77835001573E+01  0.27920895550E+02  0.10000000000E+01 0.  0.
    9000005    1    3    3    0    0  0.12345242686E+02  0.23782104967E+02  0.35084829040E+03  0.35187144870E+03  0.10000000000E+01 0.  0.
<mgrwt>
<rscale>  0 0.12500185E+03</rscale>
<asrwt>0</asrwt>
<pdfrwt beam="2">  1        4 0.16277351E-02 0.12500185E+03</pdfrwt>
<pdfrwt beam="1">  1       -4 0.56801850E-01 0.12500185E+03</pdfrwt>
<totfact> 0.66564042E+03</totfact>
</mgrwt>
</event>
<event>
 5    1  0.3270363E-002  0.1250023E+03  0.7818608E-02  0.1235066E+00
         -4   -1    0    0    0  501 -0.00000000000E+00  0.00000000000E+00  0.12069936785E+03  0.12070604914E+03  0.12700000000E+01 0. -1.
          4   -1    0    0  501    0  0.00000000000E+00 -0.00000000000E+00 -0.32344630467E+02  0.32369553906E+02  0.12700000000E+01 0. -1.
         25    2    1    2    0    0  0.00000000000E+00  0.00000000000E+00  0.88354737382E+02  0.15307560305E+03  0.12500232250E+03 0.  0.
    9000005    1    3    3    0    0 -0.15067721079E+02 -0.57797319828E+02  0.21669404978E+02  0.63546278490E+02  0.10000000000E+01 0.  0.
    9000005    1    3    3    0    0  0.15067721079E+02  0.57797319828E+02  0.66685332404E+02  0.89529324557E+02  0.10000000000E+01 0.  0.
<mgrwt>
<rscale>  0 0.12500232E+03</rscale>
<asrwt>0</asrwt>
<pdfrwt beam="2">  1        4 0.49785281E-02 0.12500232E+03</pdfrwt>
<pdfrwt beam="1">  1       -4 0.18571565E-01 0.12500232E+03</pdfrwt>
<totfact> 0.98688961E+03</totfact>
</mgrwt>
</event>
<event>
 5    1  0.3270363E-002  0.1249945E+03  0.7818608E-02  0.1235078E+00
          4   -1    0    0  501    0  0.00000000000E+00  0.00000000000E+00  0.11426284015E+03  0.11426989778E+03  0.12700000000E+01 0.  1.
         -4   -1    0    0    0  501 -0.00000000000E+00 -0.00000000000E+00 -0.34163621757E+02  0.34187219126E+02  0.12700000000E+01 0.  1.
         25    2    1    2    0    0  0.00000000000E+00  0.00000000000E+00  0.80099218392E+02  0.14845711691E+03  0.12499452297E+03 0.  0.
    9000005    1    3    3    0    0 -0.12627851456E+02 -0.14002503397E+02 -0.30710090195E+02  0.36050553027E+02  0.10000000000E+01 0.  0.
    9000005    1    3    3    0    0  0.12627851456E+02  0.14002503397E+02  0.11080930859E+03  0.11240656388E+03  0.10000000000E+01 0.  0.
<mgrwt>
<rscale>  0 0.12499452E+03</rscale>
<asrwt>0</asrwt>
<pdfrwt beam="1">  1        4 0.17581256E-01 0.12499452E+03</pdfrwt>
<pdfrwt beam="2">  1       -4 0.52582999E-02 0.12499452E+03</pdfrwt>
<totfact> 0.99624423E+03</totfact>
</mgrwt>
</event>
<event>
 5    1  0.3270363E-002  0.1249675E+03  0.7818608E-02  0.1235120E+00
         -4   -1    0    0    0  501 -0.00000000000E+00  0.00000000000E+00  0.11432193785E+03  0.11432899183E+03  0.12700000000E+01 0.  1.
          4   -1    0    0  501    0  0.00000000000E+00 -0.00000000000E+00 -0.34131192501E+02  0.34154812275E+02  0.12700000000E+01 0.  1.
         25    2    1    2    0    0  0.00000000000E+00  0.00000000000E+00  0.80190745348E+02  0.14848380411E+03  0.12496753355E+03 0.  0.
    9000005    1    3    3    0    0 -0.33296200617E+02  0.52859136197E+02  0.39258692335E+02  0.73790041190E+02  0.10000000000E+01 0.  0.
    9000005    1    3    3    0    0  0.33296200617E+02 -0.52859136197E+02  0.40932053012E+02  0.74693762917E+02  0.10000000000E+01 0.  0.
<mgrwt>
<rscale>  0 0.12496753E+03</rscale>
<asrwt>0</asrwt>
<pdfrwt beam="2">  1        4 0.52533121E-02 0.12496753E+03</pdfrwt>
<pdfrwt beam="1">  1       -4 0.17590350E-01 0.12496753E+03</pdfrwt>
<totfact> 0.99679618E+03</totfact>
</mgrwt>
</event>
<event>
 5    1  0.3270363E-002  0.1249885E+03  0.7818608E-02  0.1235087E+00
         -4   -1    0    0    0  501 -0.00000000000E+00  0.00000000000E+00  0.35014164501E+03  0.35014394822E+03  0.12700000000E+01 0.  1.
          4   -1    0    0  501    0  0.00000000000E+00 -0.00000000000E+00 -0.11115650828E+02  0.11187966452E+02  0.12700000000E+01 0.  1.
         25    2    1    2    0    0  0.00000000000E+00  0.00000000000E+00  0.33902599419E+03  0.36133191467E+03  0.12498851077E+03 0.  0.
    9000005    1    3    3    0    0 -0.40337039171E+01  0.68862676950E+01  0.34867642594E+03  0.34876918077E+03  0.10000000000E+01 0.  0.
    9000005    1    3    3    0    0  0.40337039171E+01 -0.68862676950E+01 -0.96504317510E+01  0.12562733900E+02  0.10000000000E+01 0.  0.
<mgrwt>
<rscale>  0 0.12498851E+03</rscale>
<asrwt>0</asrwt>
<pdfrwt beam="2">  1        4 0.17158401E-02 0.12498851E+03</pdfrwt>
<pdfrwt beam="1">  1       -4 0.53873683E-01 0.12498851E+03</pdfrwt>
<totfact> 0.68513045E+03</totfact>
</mgrwt>
</event>
<event>
 5    1  0.3270363E-002  0.1250025E+03  0.7818608E-02  0.1235065E+00
          4   -1    0    0  501    0  0.00000000000E+00  0.00000000000E+00  0.16556619072E+02  0.16605256249E+02  0.12700000000E+01 0. -1.
         -4   -1    0    0    0  501 -0.00000000000E+00 -0.00000000000E+00 -0.23554580116E+03  0.23554922489E+03  0.12700000000E+01 0. -1.
         25    2    1    2    0    0  0.00000000000E+00  0.00000000000E+00 -0.21898918209E+03  0.25215448114E+03  0.12500248192E+03 0.  0.
    9000005    1    3    3    0    0 -0.57275181479E+02  0.21597525825E+02 -0.84098297357E+02  0.10402126299E+03  0.10000000000E+01 0.  0.
    9000005    1    3    3    0    0  0.57275181479E+02 -0.21597525825E+02 -0.13489088473E+03  0.14813321815E+03  0.10000000000E+01 0.  0.
<mgrwt>
<rscale>  0 0.12500248E+03</rscale>
<asrwt>0</asrwt>
<pdfrwt beam="1">  1        4 0.25511770E-02 0.12500248E+03</pdfrwt>
<pdfrwt beam="2">  1       -4 0.36241818E-01 0.12500248E+03</pdfrwt>
<totfact> 0.82015299E+03</totfact>
</mgrwt>
</event>
<event>
 5    1  0.3270363E-002  0.1250071E+03  0.7818608E-02  0.1235058E+00
         -4   -1    0    0    0  501 -0.00000000000E+00  0.00000000000E+00  0.26851885892E+02  0.26881902388E+02  0.12700000000E+01 0.  1.
          4   -1    0    0  501    0  0.00000000000E+00 -0.00000000000E+00 -0.14537646728E+03  0.14538201449E+03  0.12700000000E+01 0.  1.
         25    2    1    2    0    0  0.00000000000E+00  0.00000000000E+00 -0.11852458139E+03  0.17226391688E+03  0.12500712246E+03 0.  0.
    9000005    1    3    3    0    0 -0.24607682939E+00  0.31244351002E+02  0.15322583577E+02  0.34814531317E+02  0.10000000000E+01 0.  0.
    9000005    1    3    3    0    0  0.24607682939E+00 -0.31244351002E+02 -0.13384716496E+03  0.13744938556E+03  0.10000000000E+01 0.  0.
<mgrwt>
<rscale>  0 0.12500712E+03</rscale>
<asrwt>0</asrwt>
<pdfrwt beam="2">  1        4 0.22368346E-01 0.12500712E+03</pdfrwt>
<pdfrwt beam="1">  1       -4 0.41337951E-02 0.12500712E+03</pdfrwt>
<totfact> 0.95013164E+03</totfact>
</mgrwt>
</event>
<event>
 5    1  0.3270363E-002  0.1250012E+03  0.7818608E-02  0.1235067E+00
          4   -1    0    0  501    0  0.00000000000E+00  0.00000000000E+00  0.43302746151E+03  0.43302932386E+03  0.12700000000E+01 0. -1.
         -4   -1    0    0    0  501 -0.00000000000E+00 -0.00000000000E+00 -0.89743765523E+01  0.90637925010E+01  0.12700000000E+01 0. -1.
         25    2    1    2    0    0  0.00000000000E+00  0.00000000000E+00  0.42405308496E+03  0.44209311636E+03  0.12500121868E+03 0.  0.
    9000005    1    3    3    0    0  0.16673964681E+02 -0.53593910559E+02  0.30920552657E+03  0.31426006111E+03  0.10000000000E+01 0.  0.
    9000005    1    3    3    0    0 -0.16673964681E+02  0.53593910559E+02  0.11484755839E+03  0.12783305526E+03  0.10000000000E+01 0.  0.
<mgrwt>
<rscale>  0 0.12500122E+03</rscale>
<asrwt>0</asrwt>
<pdfrwt beam="1">  1        4 0.66626615E-01 0.12500122E+03</pdfrwt>
<pdfrwt beam="2">  1       -4 0.13876951E-02 0.12500122E+03</pdfrwt>
<totfact> 0.60653292E+03</totfact>
</mgrwt>
</event>
<event>
 5    1  0.3270363E-002  0.1250000E+03  0.7818608E-02  0.1235069E+00
         -4   -1    0    0    0  501 -0.00000000000E+00  0.00000000000E+00  0.12310961440E+03  0.12311616490E+03  0.12700000000E+01 0. -1.
          4   -1    0    0  501    0  0.00000000000E+00 -0.00000000000E+00 -0.31709758975E+02  0.31735181018E+02  0.12700000000E+01 0. -1.
         25    2    1    2    0    0  0.00000000000E+00  0.00000000000E+00  0.91399855429E+02  0.15485134591E+03  0.12500002304E+03 0.  0.
    9000005    1    3    3    0    0 -0.53451898522E+02 -0.11003740477E+02  0.79809707501E+01  0.55162339093E+02  0.10000000000E+01 0.  0.
    9000005    1    3    3    0    0  0.53451898522E+02  0.11003740477E+02  0.83418884679E+02  0.99689006822E+02  0.10000000000E+01 0.  0.
<mgrwt>
<rscale>  0 0.12500002E+03</rscale>
<asrwt>0</asrwt>
<pdfrwt beam="2">  1        4 0.48808840E-02 0.12500002E+03</pdfrwt>
<pdfrwt beam="1">  1       -4 0.18942399E-01 0.12500002E+03</pdfrwt>
<totfact> 0.98344639E+03</totfact>
</mgrwt>
</event>
<event>
 5    1  0.3270363E-002  0.1250009E+03  0.7818608E-02  0.1235068E+00
         -4   -1    0    0    0  501 -0.00000000000E+00  0.00000000000E+00  0.95291276032E+01  0.96133850895E+01  0.12700000000E+01 0.  1.
          4   -1    0    0  501    0  0.00000000000E+00 -0.00000000000E+00 -0.40804386797E+03  0.40804584435E+03  0.12700000000E+01 0.  1.
         25    2    1    2    0    0  0.00000000000E+00  0.00000000000E+00 -0.39851474037E+03  0.41765922944E+03  0.12500093457E+03 0.  0.
    9000005    1    3    3    0    0 -0.97085039435E+01 -0.42300126209E+02 -0.49021776645E+02  0.65480457479E+02  0.10000000000E+01 0.  0.
    9000005    1    3    3    0    0  0.97085039435E+01  0.42300126209E+02 -0.34949296372E+03  0.35217877196E+03  0.10000000000E+01 0.  0.
<mgrwt>
<rscale>  0 0.12500093E+03</rscale>
<asrwt>0</asrwt>
<pdfrwt beam="2">  1        4 0.62782600E-01 0.12500093E+03</pdfrwt>
<pdfrwt beam="1">  1       -4 0.14726533E-02 0.12500093E+03</pdfrwt>
<totfact> 0.62869472E+03</totfact>
</mgrwt>
</event>
<event>
 5    1  0.3270363E-002  0.1249985E+03  0.7818608E-02  0.1235072E+00
         -4   -1    0    0    0  501 -0.00000000000E+00  0.00000000000E+00  0.31598561632E+02  0.31624073065E+02  0.12700000000E+01 0.  1.
          4   -1    0    0  501    0  0.00000000000E+00 -0.00000000000E+00 -0.12353944303E+03  0.12354597073E+03  0.12700000000E+01 0.  1.
         25    2    1    2    0    0  0.00000000000E+00  0.00000000000E+00 -0.91940881393E+02  0.15517004379E+03  0.12499846727E+03 0.  0.
    9000005    1    3    3    0    0  0.51768490851E+02  0.55704852727E+01 -0.88867955923E+02  0.10300252687E+03  0.10000000000E+01 0.  0.
    9000005    1    3    3    0    0 -0.51768490851E+02 -0.55704852727E+01 -0.30729254705E+01  0.52167516925E+02  0.10000000000E+01 0.  0.
<mgrwt>
<rscale>  0 0.12499847E+03</rscale>
<asrwt>0</asrwt>
<pdfrwt beam="2">  1        4 0.19008532E-01 0.12499847E+03</pdfrwt>
<pdfrwt beam="1">  1       -4 0.48637818E-02 0.12499847E+03</pdfrwt>
<totfact> 0.98285516E+03</totfact>
</mgrwt>
</event>
<event>
 5    1  0.3270363E-002  0.1250003E+03  0.7818608E-02  0.1235069E+00
         -4   -1    0    0    0  501 -0.00000000000E+00  0.00000000000E+00  0.18413435345E+03  0.18413873308E+03  0.12700000000E+01 0.  1.
          4   -1    0    0  501    0  0.00000000000E+00 -0.00000000000E+00 -0.21190601584E+02  0.21228624437E+02  0.12700000000E+01 0.  1.
         25    2    1    2    0    0  0.00000000000E+00  0.00000000000E+00  0.16294375187E+03  0.20536735752E+03  0.12500034105E+03 0.  0.
    9000005    1    3    3    0    0  0.48124436541E+02  0.15843229524E+02  0.21368719446E+02  0.54996286101E+02  0.10000000000E+01 0.  0.
    9000005    1    3    3    0    0 -0.48124436541E+02 -0.15843229524E+02  0.14157503242E+03  0.15037107142E+03  0.10000000000E+01 0.  0.
<mgrwt>
<rscale>  0 0.12500034E+03</rscale>
<asrwt>0</asrwt>
<pdfrwt beam="2">  1        4 0.32633543E-02 0.12500034E+03</pdfrwt>
<pdfrwt beam="1">  1       -4 0.28331623E-01 0.12500034E+03</pdfrwt>
<totfact> 0.89237405E+03</totfact>
</mgrwt>
</event>
<event>
 5    1  0.3270363E-002  0.1249985E+03  0.7818608E-02  0.1235072E+00
         -4   -1    0    0    0  501 -0.00000000000E+00  0.00000000000E+00  0.37936179156E+02  0.37957431275E+02  0.12700000000E+01 0.  1.
          4   -1    0    0  501    0  0.00000000000E+00 -0.00000000000E+00 -0.10291248700E+03  0.10292032297E+03  0.12700000000E+01 0.  1.
         25    2    1    2    0    0  0.00000000000E+00  0.00000000000E+00 -0.64976307840E+02  0.14087775424E+03  0.12499848423E+03 0.  0.
    9000005    1    3    3    0    0  0.38596666759E+02 -0.44774066902E+02 -0.55329347814E+02  0.80973801204E+02  0.10000000000E+01 0.  0.
    9000005    1    3    3    0    0 -0.38596666759E+02  0.44774066902E+02 -0.96469600260E+01  0.59903953038E+02  0.10000000000E+01 0.  0.
<mgrwt>
<rscale>  0 0.12499848E+03</rscale>
<asrwt>0</asrwt>
<pdfrwt beam="2">  1        4 0.15834928E-01 0.12499848E+03</pdfrwt>
<pdfrwt beam="1">  1       -4 0.58385728E-02 0.12499848E+03</pdfrwt>
<totfact> 0.10115772E+04</totfact>
</mgrwt>
</event>
<event>
 5    1  0.3270363E-002  0.1250201E+03  0.7818608E-02  0.1235038E+00
          4   -1    0    0  501    0  0.00000000000E+00  0.00000000000E+00  0.15691661062E+02  0.15742970714E+02  0.12700000000E+01 0.  1.
         -4   -1    0    0    0  501 -0.00000000000E+00 -0.00000000000E+00 -0.24855876397E+03  0.24856200846E+03  0.12700000000E+01 0.  1.
         25    2    1    2    0    0  0.00000000000E+00  0.00000000000E+00 -0.23286710291E+03  0.26430497917E+03  0.12502013596E+03 0.  0.
    9000005    1    3    3    0    0 -0.46446404179E+02 -0.14377828452E+01 -0.20480120488E+03  0.21000921218E+03  0.10000000000E+01 0.  0.
    9000005    1    3    3    0    0  0.46446404179E+02  0.14377828452E+01 -0.28065898031E+02  0.54295766989E+02  0.10000000000E+01 0.  0.
<mgrwt>
<rscale>  0 0.12502014E+03</rscale>
<asrwt>0</asrwt>
<pdfrwt beam="1">  1        4 0.24182983E-02 0.12502014E+03</pdfrwt>
<pdfrwt beam="2">  1       -4 0.38244004E-01 0.12502014E+03</pdfrwt>
<totfact> 0.80269717E+03</totfact>
</mgrwt>
</event>
<event>
 5    1  0.3270363E-002  0.1250015E+03  0.7818608E-02  0.1235067E+00
          4   -1    0    0  501    0  0.00000000000E+00  0.00000000000E+00  0.87691477630E+02  0.87700673594E+02  0.12700000000E+01 0.  1.
         -4   -1    0    0    0  501 -0.00000000000E+00 -0.00000000000E+00 -0.44525839297E+02  0.44543947569E+02  0.12700000000E+01 0.  1.
         25    2    1    2    0    0  0.00000000000E+00  0.00000000000E+00  0.43165638333E+02  0.13224462116E+03  0.12500146997E+03 0.  0.
    9000005    1    3    3    0    0  0.49409776861E+02  0.26066269324E+02 -0.80503076788E+01  0.56449835249E+02  0.10000000000E+01 0.  0.
    9000005    1    3    3    0    0 -0.49409776861E+02 -0.26066269324E+02  0.51215946012E+02  0.75794785914E+02  0.10000000000E+01 0.  0.
<mgrwt>
<rscale>  0 0.12500147E+03</rscale>
<asrwt>0</asrwt>
<pdfrwt beam="1">  1        4 0.13493097E-01 0.12500147E+03</pdfrwt>
<pdfrwt beam="2">  1       -4 0.68522295E-02 0.12500147E+03</pdfrwt>
<totfact> 0.10296138E+04</totfact>
</mgrwt>
</event>
<event>
 5    1  0.3270363E-002  0.1249872E+03  0.7818608E-02  0.1235089E+00
         -4   -1    0    0    0  501 -0.00000000000E+00  0.00000000000E+00  0.57920266711E+02  0.57934188489E+02  0.12700000000E+01 0. -1.
          4   -1    0    0  501    0  0.00000000000E+00 -0.00000000000E+00 -0.67399999718E+02  0.67411963790E+02  0.12700000000E+01 0. -1.
         25    2    1    2    0    0  0.00000000000E+00  0.00000000000E+00 -0.94797330071E+01  0.12534615228E+03  0.12498716956E+03 0.  0.
    9000005    1    3    3    0    0 -0.51285557670E+02  0.34945794955E+02  0.25632966953E+01  0.62120749355E+02  0.10000000000E+01 0.  0.
    9000005    1    3    3    0    0  0.51285557670E+02 -0.34945794955E+02 -0.12043029702E+02  0.63225402924E+02  0.10000000000E+01 0.  0.
<mgrwt>
<rscale>  0 0.12498717E+03</rscale>
<asrwt>0</asrwt>
<pdfrwt beam="2">  1        4 0.10371222E-01 0.12498717E+03</pdfrwt>
<pdfrwt beam="1">  1       -4 0.89128015E-02 0.12498717E+03</pdfrwt>
<totfact> 0.10448378E+04</totfact>
</mgrwt>
</event>
<event>
 5    1  0.3270363E-002  0.1249992E+03  0.7818608E-02  0.1235071E+00
          4   -1    0    0  501    0  0.00000000000E+00  0.00000000000E+00  0.10218189791E+03  0.10218978990E+03  0.12700000000E+01 0.  1.
         -4   -1    0    0    0  501 -0.00000000000E+00 -0.00000000000E+00 -0.38207980451E+02  0.38229081471E+02  0.12700000000E+01 0.  1.
         25    2    1    2    0    0  0.00000000000E+00  0.00000000000E+00  0.63973917461E+02  0.14041887138E+03  0.12499918929E+03 0.  0.
    9000005    1    3    3    0    0  0.50752392210E+02 -0.31040604501E+02  0.53474394077E+02  0.79998970398E+02  0.10000000000E+01 0.  0.
    9000005    1    3    3    0    0 -0.50752392210E+02  0.31040604501E+02  0.10499523384E+02  0.60419900978E+02  0.10000000000E+01 0.  0.
<mgrwt>
<rscale>  0 0.12499919E+03</rscale>
<asrwt>0</asrwt>
<pdfrwt beam="1">  1        4 0.15722522E-01 0.12499919E+03</pdfrwt>
<pdfrwt beam="2">  1       -4 0.58803812E-02 0.12499919E+03</pdfrwt>
<totfact> 0.10125097E+04</totfact>
</mgrwt>
</event>
<event>
 5    1  0.3270363E-002  0.1250003E+03  0.7818608E-02  0.1235069E+00
          4   -1    0    0  501    0  0.00000000000E+00  0.00000000000E+00  0.20009167517E+03  0.20009570553E+03  0.12700000000E+01 0. -1.
         -4   -1    0    0    0  501 -0.00000000000E+00 -0.00000000000E+00 -0.19497494858E+02  0.19538812803E+02  0.12700000000E+01 0. -1.
         25    2    1    2    0    0  0.00000000000E+00  0.00000000000E+00  0.18059418031E+03  0.21963451834E+03  0.12500025473E+03 0.  0.
    9000005    1    3    3    0    0 -0.22173852237E+02 -0.56948280366E+02  0.11323880393E+03  0.12868105173E+03  0.10000000000E+01 0.  0.
    9000005    1    3    3    0    0  0.22173852237E+02  0.56948280366E+02  0.67355376388E+02  0.90953466608E+02  0.10000000000E+01 0.  0.
<mgrwt>
<rscale>  0 0.12500025E+03</rscale>
<asrwt>0</asrwt>
<pdfrwt beam="1">  1        4 0.30786822E-01 0.12500025E+03</pdfrwt>
<pdfrwt beam="2">  1       -4 0.30031030E-02 0.12500025E+03</pdfrwt>
<totfact> 0.86925721E+03</totfact>
</mgrwt>
</event>
<event>
 5    1  0.3270363E-002  0.1249996E+03  0.7818608E-02  0.1235070E+00
          4   -1    0    0  501    0  0.00000000000E+00  0.00000000000E+00  0.81017504402E+02  0.81027457812E+02  0.12700000000E+01 0.  1.
         -4   -1    0    0    0  501 -0.00000000000E+00 -0.00000000000E+00 -0.48193277328E+02  0.48210008086E+02  0.12700000000E+01 0.  1.
         25    2    1    2    0    0  0.00000000000E+00  0.00000000000E+00  0.32824227073E+02  0.12923746590E+03  0.12499957083E+03 0.  0.
    9000005    1    3    3    0    0 -0.25960746175E+02  0.49886427087E+02 -0.11762599262E+02  0.57462811373E+02  0.10000000000E+01 0.  0.
    9000005    1    3    3    0    0  0.25960746175E+02 -0.49886427087E+02  0.44586826335E+02  0.71774654525E+02  0.10000000000E+01 0.  0.
<mgrwt>
<rscale>  0 0.12499957E+03</rscale>
<asrwt>0</asrwt>
<pdfrwt beam="1">  1        4 0.12466284E-01 0.12499957E+03</pdfrwt>
<pdfrwt beam="2">  1       -4 0.74164031E-02 0.12499957E+03</pdfrwt>
<totfact> 0.10360947E+04</totfact>
</mgrwt>
</event>
<event>
 5    1  0.3270363E-002  0.1250016E+03  0.7818608E-02  0.1235067E+00
         -4   -1    0    0    0  501 -0.00000000000E+00  0.00000000000E+00  0.74588475401E+03  0.74588583521E+03  0.12700000000E+01 0.  1.
          4   -1    0    0  501    0  0.00000000000E+00 -0.00000000000E+00 -0.51591063031E+01  0.53131231726E+01  0.12700000000E+01 0.  1.
         25    2    1    2    0    0  0.00000000000E+00  0.00000000000E+00  0.74072564770E+03  0.75119895838E+03  0.12500155960E+03 0.  0.
    9000005    1    3    3    0    0 -0.61205757107E+02 -0.15182622010E+01  0.44563730455E+03  0.44982447358E+03  0.10000000000E+01 0.  0.
    9000005    1    3    3    0    0  0.61205757107E+02  0.15182622010E+01  0.29508834316E+03  0.30137448480E+03  0.10000000000E+01 0.  0.
<mgrwt>
<rscale>  0 0.12500156E+03</rscale>
<asrwt>0</asrwt>
<pdfrwt beam="2">  1        4 0.80563979E-03 0.12500156E+03</pdfrwt>
<pdfrwt beam="1">  1       -4 0.11476336E+00 0.12500156E+03</pdfrwt>
<totfact> 0.40515494E+03</totfact>
</mgrwt>
</event>
<event>
 5    1  0.3270363E-002  0.1249880E+03  0.7818608E-02  0.1235088E+00
         -4   -1    0    0    0  501 -0.00000000000E+00  0.00000000000E+00  0.19512380304E+03  0.19512793601E+03  0.12700000000E+01 0. -1.
          4   -1    0    0  501    0  0.00000000000E+00 -0.00000000000E+00 -0.19990989869E+02  0.20031289922E+02  0.12700000000E+01 0. -1.
         25    2    1    2    0    0  0.00000000000E+00  0.00000000000E+00  0.17513281317E+03  0.21515922593E+03  0.12498796044E+03 0.  0.
    9000005    1    3    3    0    0 -0.70305795123E+01  0.62089197145E+02  0.87584751893E+02  0.10759454547E+03  0.10000000000E+01 0.  0.
    9000005    1    3    3    0    0  0.70305795123E+01 -0.62089197145E+02  0.87548061274E+02  0.10756468046E+03  0.10000000000E+01 0.  0.
<mgrwt>
<rscale>  0 0.12498796E+03</rscale>
<asrwt>0</asrwt>
<pdfrwt beam="2">  1        4 0.30789548E-02 0.12498796E+03</pdfrwt>
<pdfrwt beam="1">  1       -4 0.30022465E-01 0.12498796E+03</pdfrwt>
<totfact> 0.87663764E+03</totfact>
</mgrwt>
</event>
<event>
 5    1  0.3270363E-002  0.1249860E+03  0.7818608E-02  0.1235091E+00
         -4   -1    0    0    0  501 -0.00000000000E+00  0.00000000000E+00  0.88375815507E+01  0.89283675813E+01  0.12700000000E+01 0.  1.
          4   -1    0    0  501    0  0.00000000000E+00 -0.00000000000E+00 -0.43955540976E+03  0.43955724445E+03  0.12700000000E+01 0.  1.
         25    2    1    2    0    0  0.00000000000E+00  0.00000000000E+00 -0.43071782821E+03  0.44848561203E+03  0.12498598586E+03 0.  0.
    9000005    1    3    3    0    0  0.10446786578E+02  0.60433947481E+02 -0.17245272003E+03  0.18303643901E+03  0.10000000000E+01 0.  0.
    9000005    1    3    3    0    0 -0.10446786578E+02 -0.60433947481E+02 -0.25826510818E+03  0.26544917302E+03  0.10000000000E+01 0.  0.
<mgrwt>
<rscale>  0 0.12498599E+03</rscale>
<asrwt>0</asrwt>
<pdfrwt beam="2">  1        4 0.67631017E-01 0.12498599E+03</pdfrwt>
<pdfrwt beam="1">  1       -4 0.13667529E-02 0.12498599E+03</pdfrwt>
<totfact> 0.60113774E+03</totfact>
</mgrwt>
</event>
<event>
 5    1  0.3270363E-002  0.1250030E+03  0.7818608E-02  0.1235065E+00
         -4   -1    0    0    0  501 -0.00000000000E+00  0.00000000000E+00  0.53035086915E+02  0.53050290707E+02  0.12700000000E+01 0.  1.
          4   -1    0    0  501    0  0.00000000000E+00 -0.00000000000E+00 -0.73626373503E+02  0.73637325965E+02  0.12700000000E+01 0.  1.
         25    2    1    2    0    0  0.00000000000E+00  0.00000000000E+00 -0.20591286588E+02  0.12668761667E+03  0.12500300450E+03 0.  0.
    9000005    1    3    3    0    0 -0.94304468769E+01 -0.60203522441E+02  0.37489752708E+01  0.61061053530E+02  0.10000000000E+01 0.  0.
    9000005    1    3    3    0    0  0.94304468769E+01  0.60203522441E+02 -0.24340261859E+02  0.65626563143E+02  0.10000000000E+01 0.  0.
<mgrwt>
<rscale>  0 0.12500300E+03</rscale>
<asrwt>0</asrwt>
<pdfrwt beam="2">  1        4 0.11329146E-01 0.12500300E+03</pdfrwt>
<pdfrwt beam="1">  1       -4 0.81612561E-02 0.12500300E+03</pdfrwt>
<totfact> 0.10415233E+04</totfact>
</mgrwt>
</event>
<event>
 5    1  0.3270363E-002  0.1250028E+03  0.7818608E-02  0.1235065E+00
          4   -1    0    0  501    0  0.00000000000E+00  0.00000000000E+00  0.22582291178E+02  0.22617974596E+02  0.12700000000E+01 0. -1.
         -4   -1    0    0    0  501 -0.00000000000E+00 -0.00000000000E+00 -0.17281175479E+03  0.17281642137E+03  0.12700000000E+01 0. -1.
         25    2    1    2    0    0  0.00000000000E+00  0.00000000000E+00 -0.15022946361E+03  0.19543439596E+03  0.12500284552E+03 0.  0.
    9000005    1    3    3    0    0 -0.34675755680E+02  0.32595257875E+02 -0.13844019123E+03  0.14639516869E+03  0.10000000000E+01 0.  0.
    9000005    1    3    3    0    0  0.34675755680E+02 -0.32595257875E+02 -0.11789272379E+02  0.49039227269E+02  0.10000000000E+01 0.  0.
<mgrwt>
<rscale>  0 0.12500285E+03</rscale>
<asrwt>0</asrwt>
<pdfrwt beam="1">  1        4 0.34773026E-02 0.12500285E+03</pdfrwt>
<pdfrwt beam="2">  1       -4 0.26589527E-01 0.12500285E+03</pdfrwt>
<totfact> 0.90904460E+03</totfact>
</mgrwt>
</event>
<event>
 5    1  0.3270363E-002  0.1249967E+03  0.7818608E-02  0.1235074E+00
         -4   -1    0    0    0  501 -0.00000000000E+00  0.00000000000E+00  0.41800596386E+03  0.41800789314E+03  0.12700000000E+01 0. -1.
          4   -1    0    0  501    0  0.00000000000E+00 -0.00000000000E+00 -0.92993636665E+01  0.93856840242E+01  0.12700000000E+01 0. -1.
         25    2    1    2    0    0  0.00000000000E+00  0.00000000000E+00  0.40870660020E+03  0.42739357716E+03  0.12499673898E+03 0.  0.
    9000005    1    3    3    0    0  0.38262220641E+02  0.42504121410E+02  0.11822865695E+03  0.13133778279E+03  0.10000000000E+01 0.  0.
    9000005    1    3    3    0    0 -0.38262220641E+02 -0.42504121410E+02  0.29047794325E+03  0.29605579437E+03  0.10000000000E+01 0.  0.
<mgrwt>
<rscale>  0 0.12499674E+03</rscale>
<asrwt>0</asrwt>
<pdfrwt beam="2">  1        4 0.14374598E-02 0.12499674E+03</pdfrwt>
<pdfrwt beam="1">  1       -4 0.64315395E-01 0.12499674E+03</pdfrwt>
<totfact> 0.61977416E+03</totfact>
</mgrwt>
</event>
<event>
 5    1  0.3270363E-002  0.1250006E+03  0.7818608E-02  0.1235068E+00
          4   -1    0    0  501    0  0.00000000000E+00  0.00000000000E+00  0.48315754672E+02  0.48332443033E+02  0.12700000000E+01 0.  1.
         -4   -1    0    0    0  501 -0.00000000000E+00 -0.00000000000E+00 -0.80813485221E+02  0.80823463756E+02  0.12700000000E+01 0.  1.
         25    2    1    2    0    0  0.00000000000E+00  0.00000000000E+00 -0.32497730549E+02  0.12915590679E+03  0.12500058307E+03 0.  0.
    9000005    1    3    3    0    0  0.25880008350E+02 -0.26846301644E+02  0.35565823949E+02  0.51540533343E+02  0.10000000000E+01 0.  0.
    9000005    1    3    3    0    0 -0.25880008350E+02  0.26846301644E+02 -0.68063554498E+02  0.77615373445E+02  0.10000000000E+01 0.  0.
<mgrwt>
<rscale>  0 0.12500058E+03</rscale>
<asrwt>0</asrwt>
<pdfrwt beam="1">  1        4 0.74352443E-02 0.12500058E+03</pdfrwt>
<pdfrwt beam="2">  1       -4 0.12434895E-01 0.12500058E+03</pdfrwt>
<totfact> 0.10362461E+04</totfact>
</mgrwt>
</event>
<event>
 5    1  0.3270363E-002  0.1250017E+03  0.7818608E-02  0.1235067E+00
         -4   -1    0    0    0  501 -0.00000000000E+00  0.00000000000E+00  0.15488904732E+02  0.15540883816E+02  0.12700000000E+01 0. -1.
          4   -1    0    0  501    0  0.00000000000E+00 -0.00000000000E+00 -0.25172742208E+03  0.25173062572E+03  0.12700000000E+01 0. -1.
         25    2    1    2    0    0  0.00000000000E+00  0.00000000000E+00 -0.23623851735E+03  0.26727150954E+03  0.12500169092E+03 0.  0.
    9000005    1    3    3    0    0  0.19710922961E+02 -0.17763890434E+02 -0.23909507697E+03  0.24056502680E+03  0.10000000000E+01 0.  0.
    9000005    1    3    3    0    0 -0.19710922961E+02  0.17763890434E+02  0.28565596249E+01  0.26706482738E+02  0.10000000000E+01 0.  0.
<mgrwt>
<rscale>  0 0.12500169E+03</rscale>
<asrwt>0</asrwt>
<pdfrwt beam="2">  1        4 0.38731537E-01 0.12500169E+03</pdfrwt>
<pdfrwt beam="1">  1       -4 0.23871534E-02 0.12500169E+03</pdfrwt>
<totfact> 0.79893311E+03</totfact>
</mgrwt>
</event>
<event>
 5    1  0.3270363E-002  0.1250018E+03  0.7818608E-02  0.1235066E+00
         -4   -1    0    0    0  501 -0.00000000000E+00  0.00000000000E+00  0.23283862610E+03  0.23284208963E+03  0.12700000000E+01 0. -1.
          4   -1    0    0  501    0  0.00000000000E+00 -0.00000000000E+00 -0.16749501996E+02  0.16797580693E+02  0.12700000000E+01 0. -1.
         25    2    1    2    0    0  0.00000000000E+00  0.00000000000E+00  0.21608912411E+03  0.24963967033E+03  0.12500182176E+03 0.  0.
    9000005    1    3    3    0    0  0.28852947744E+01  0.11115500198E+02 -0.14633963706E+02  0.18628799327E+02  0.10000000000E+01 0.  0.
    9000005    1    3    3    0    0 -0.28852947744E+01 -0.11115500198E+02  0.23072308781E+03  0.23101087100E+03  0.10000000000E+01 0.  0.
<mgrwt>
<rscale>  0 0.12500182E+03</rscale>
<asrwt>0</asrwt>
<pdfrwt beam="2">  1        4 0.25808113E-02 0.12500182E+03</pdfrwt>
<pdfrwt beam="1">  1       -4 0.35825291E-01 0.12500182E+03</pdfrwt>
<totfact> 0.82378991E+03</totfact>
</mgrwt>
</event>
<event>
 5    1  0.3270363E-002  0.1250005E+03  0.7818608E-02  0.1235068E+00
         -4   -1    0    0    0  501 -0.00000000000E+00  0.00000000000E+00  0.30869153187E+03  0.30869414434E+03  0.12700000000E+01 0.  1.
          4   -1    0    0  501    0  0.00000000000E+00 -0.00000000000E+00 -0.12619782718E+02  0.12683525372E+02  0.12700000000E+01 0.  1.
         25    2    1    2    0    0  0.00000000000E+00  0.00000000000E+00  0.29607174915E+03  0.32137766971E+03  0.12500050377E+03 0.  0.
    9000005    1    3    3    0    0  0.30206238355E+02  0.53272287811E+02  0.18003726830E+03  0.19017037482E+03  0.10000000000E+01 0.  0.
    9000005    1    3    3    0    0 -0.30206238355E+02 -0.53272287811E+02  0.11603448086E+03  0.13120729489E+03  0.10000000000E+01 0.  0.
<mgrwt>
<rscale>  0 0.12500050E+03</rscale>
<asrwt>0</asrwt>
<pdfrwt beam="2">  1        4 0.19466092E-02 0.12500050E+03</pdfrwt>
<pdfrwt beam="1">  1       -4 0.47496110E-01 0.12500050E+03</pdfrwt>
<totfact> 0.72991751E+03</totfact>
</mgrwt>
</event>
<event>
 5    1  0.3270363E-002  0.1250055E+03  0.7818608E-02  0.1235061E+00
          4   -1    0    0  501    0  0.00000000000E+00  0.00000000000E+00  0.47959840983E+02  0.47976653146E+02  0.12700000000E+01 0. -1.
         -4   -1    0    0    0  501 -0.00000000000E+00 -0.00000000000E+00 -0.81419457119E+02  0.81429361397E+02  0.12700000000E+01 0. -1.
         25    2    1    2    0    0  0.00000000000E+00  0.00000000000E+00 -0.33459616136E+02  0.12940601454E+03  0.12500548263E+03 0.  0.
    9000005    1    3    3    0    0  0.10761541498E+02 -0.52019468558E+02 -0.50809159104E+02  0.73514668831E+02  0.10000000000E+01 0.  0.
    9000005    1    3    3    0    0 -0.10761541498E+02  0.52019468558E+02  0.17349542968E+02  0.55891345713E+02  0.10000000000E+01 0.  0.
<mgrwt>
<rscale>  0 0.12500548E+03</rscale>
<asrwt>0</asrwt>
<pdfrwt beam="1">  1        4 0.73804922E-02 0.12500548E+03</pdfrwt>
<pdfrwt beam="2">  1       -4 0.12528125E-01 0.12500548E+03</pdfrwt>
<totfact> 0.10355949E+04</totfact>
</mgrwt>
</event>
<event>
 5    1  0.3270363E-002  0.1250021E+03  0.7818608E-02  0.1235066E+00
         -4   -1    0    0    0  501 -0.00000000000E+00  0.00000000000E+00  0.77484117689E+03  0.77484221768E+03  0.12700000000E+01 0.  1.
          4   -1    0    0  501    0  0.00000000000E+00 -0.00000000000E+00 -0.49604801933E+01  0.51204749534E+01  0.12700000000E+01 0.  1.
         25    2    1    2    0    0  0.00000000000E+00  0.00000000000E+00  0.76988069670E+03  0.77996269264E+03  0.12500205902E+03 0.  0.
    9000005    1    3    3    0    0 -0.14432112193E+02  0.43013526776E+02  0.65309281955E+03  0.65466761055E+03  0.10000000000E+01 0.  0.
    9000005    1    3    3    0    0  0.14432112193E+02 -0.43013526776E+02  0.11678787714E+03  0.12529508209E+03  0.10000000000E+01 0.  0.
<mgrwt>
<rscale>  0 0.12500206E+03</rscale>
<asrwt>0</asrwt>
<pdfrwt beam="2">  1        4 0.77553879E-03 0.12500206E+03</pdfrwt>
<pdfrwt beam="1">  1       -4 0.11921862E+00 0.12500206E+03</pdfrwt>
<totfact> 0.39173309E+03</totfact>
</mgrwt>
</event>
<event>
 5    1  0.3270363E-002  0.1249901E+03  0.7818608E-02  0.1235085E+00
          4   -1    0    0  501    0  0.00000000000E+00  0.00000000000E+00  0.21174361657E+03  0.21174742515E+03  0.12700000000E+01 0.  1.
         -4   -1    0    0    0  501 -0.00000000000E+00 -0.00000000000E+00 -0.18419255672E+02  0.18462986744E+02  0.12700000000E+01 0.  1.
         25    2    1    2    0    0  0.00000000000E+00  0.00000000000E+00  0.19332436090E+03  0.23021041190E+03  0.12499010052E+03 0.  0.
    9000005    1    3    3    0    0 -0.57824110407E+02  0.19389372278E+02  0.71606817316E+02  0.94064402341E+02  0.10000000000E+01 0.  0.
    9000005    1    3    3    0    0  0.57824110407E+02 -0.19389372278E+02  0.12171754358E+03  0.13614600956E+03  0.10000000000E+01 0.  0.
<mgrwt>
<rscale>  0 0.12499010E+03</rscale>
<asrwt>0</asrwt>
<pdfrwt beam="1">  1        4 0.32579596E-01 0.12499010E+03</pdfrwt>
<pdfrwt beam="2">  1       -4 0.28373887E-02 0.12499010E+03</pdfrwt>
<totfact> 0.85296137E+03</totfact>
</mgrwt>
</event>
<event>
 5    1  0.3270363E-002  0.1250004E+03  0.7818608E-02  0.1235069E+00
          4   -1    0    0  501    0  0.00000000000E+00  0.00000000000E+00  0.39818298056E+02  0.39838546159E+02  0.12700000000E+01 0.  1.
         -4   -1    0    0    0  501 -0.00000000000E+00 -0.00000000000E+00 -0.98053145231E+02  0.98061369507E+02  0.12700000000E+01 0.  1.
         25    2    1    2    0    0  0.00000000000E+00  0.00000000000E+00 -0.58234847174E+02  0.13789991567E+03  0.12500035726E+03 0.  0.
    9000005    1    3    3    0    0 -0.27206716524E+02  0.54949472052E+02 -0.42430146026E+02  0.74571892792E+02  0.10000000000E+01 0.  0.
    9000005    1    3    3    0    0  0.27206716524E+02 -0.54949472052E+02 -0.15804701148E+02  0.63328022874E+02  0.10000000000E+01 0.  0.
<mgrwt>
<rscale>  0 0.12500036E+03</rscale>
<asrwt>0</asrwt>
<pdfrwt beam="1">  1        4 0.61280822E-02 0.12500036E+03</pdfrwt>
<pdfrwt beam="2">  1       -4 0.15087289E-01 0.12500036E+03</pdfrwt>
<totfact> 0.10177216E+04</totfact>
</mgrwt>
</event>
<event>
 5    1  0.3270363E-002  0.1250032E+03  0.7818608E-02  0.1235064E+00
          4   -1    0    0  501    0  0.00000000000E+00  0.00000000000E+00  0.59869214869E+02  0.59882683549E+02  0.12700000000E+01 0. -1.
         -4   -1    0    0    0  501 -0.00000000000E+00 -0.00000000000E+00 -0.65222689087E+02  0.65235052478E+02  0.12700000000E+01 0. -1.
         25    2    1    2    0    0  0.00000000000E+00  0.00000000000E+00 -0.53534742182E+01  0.12511773603E+03  0.12500315269E+03 0.  0.
    9000005    1    3    3    0    0  0.61007706773E+02  0.13493461749E+02 -0.14784555661E+01  0.62507596551E+02  0.10000000000E+01 0.  0.
    9000005    1    3    3    0    0 -0.61007706773E+02 -0.13493461749E+02 -0.38750186521E+01  0.62610139476E+02  0.10000000000E+01 0.  0.
<mgrwt>
<rscale>  0 0.12500315E+03</rscale>
<asrwt>0</asrwt>
<pdfrwt beam="1">  1        4 0.92126355E-02 0.12500315E+03</pdfrwt>
<pdfrwt beam="2">  1       -4 0.10036247E-01 0.12500315E+03</pdfrwt>
<totfact> 0.10449561E+04</totfact>
</mgrwt>
</event>
<event>
 5    1  0.3270363E-002  0.1250050E+03  0.7818608E-02  0.1235062E+00
          4   -1    0    0  501    0  0.00000000000E+00  0.00000000000E+00  0.61565068472E+02  0.61578166227E+02  0.12700000000E+01 0. -1.
         -4   -1    0    0    0  501 -0.00000000000E+00 -0.00000000000E+00 -0.63427979391E+02  0.63440692538E+02  0.12700000000E+01 0. -1.
         25    2    1    2    0    0  0.00000000000E+00  0.00000000000E+00 -0.18629109196E+01  0.12501885877E+03  0.12500497834E+03 0.  0.
    9000005    1    3    3    0    0 -0.57978640290E+02 -0.21878769357E+02 -0.90167748323E+01  0.62629909044E+02  0.10000000000E+01 0.  0.
    9000005    1    3    3    0    0  0.57978640290E+02  0.21878769357E+02  0.71538639128E+01  0.62388949721E+02  0.10000000000E+01 0.  0.
<mgrwt>
<rscale>  0 0.12500498E+03</rscale>
<asrwt>0</asrwt>
<pdfrwt beam="1">  1        4 0.94735345E-02 0.12500498E+03</pdfrwt>
<pdfrwt beam="2">  1       -4 0.97601361E-02 0.12500498E+03</pdfrwt>
<totfact> 0.10451277E+04</totfact>
</mgrwt>
</event>
<event>
 5    1  0.3270363E-002  0.1250002E+03  0.7818608E-02  0.1235069E+00
         -4   -1    0    0    0  501 -0.00000000000E+00  0.00000000000E+00  0.12714765989E+02  0.12778034831E+02  0.12700000000E+01 0.  1.
          4   -1    0    0  501    0  0.00000000000E+00 -0.00000000000E+00 -0.30639554623E+03  0.30639817828E+03  0.12700000000E+01 0.  1.
         25    2    1    2    0    0  0.00000000000E+00  0.00000000000E+00 -0.29368078024E+03  0.31917621311E+03  0.12500021732E+03 0.  0.
    9000005    1    3    3    0    0 -0.13785262616E+02 -0.23284859051E+01 -0.30236369705E+03  0.30268838862E+03  0.10000000000E+01 0.  0.
    9000005    1    3    3    0    0  0.13785262616E+02  0.23284859051E+01  0.86829168073E+01  0.16487824486E+02  0.10000000000E+01 0.  0.
<mgrwt>
<rscale>  0 0.12500022E+03</rscale>
<asrwt>0</asrwt>
<pdfrwt beam="2">  1        4 0.47142840E-01 0.12500022E+03</pdfrwt>
<pdfrwt beam="1">  1       -4 0.19611874E-02 0.12500022E+03</pdfrwt>
<totfact> 0.73253860E+03</totfact>
</mgrwt>
</event>
<event>
 5    1  0.3270363E-002  0.1250009E+03  0.7818608E-02  0.1235068E+00
          4   -1    0    0  501    0  0.00000000000E+00  0.00000000000E+00  0.45184933168E+03  0.45185111645E+03  0.12700000000E+01 0.  1.
         -4   -1    0    0    0  501 -0.00000000000E+00 -0.00000000000E+00 -0.85967041064E+01  0.86900069904E+01  0.12700000000E+01 0.  1.
         25    2    1    2    0    0  0.00000000000E+00  0.00000000000E+00  0.44325262757E+03  0.46054112344E+03  0.12500093812E+03 0.  0.
    9000005    1    3    3    0    0 -0.39524535535E+02  0.46005138494E+02  0.16615989981E+03  0.17688633068E+03  0.10000000000E+01 0.  0.
    9000005    1    3    3    0    0  0.39524535535E+02 -0.46005138494E+02  0.27709272777E+03  0.28365479277E+03  0.10000000000E+01 0.  0.
<mgrwt>
<rscale>  0 0.12500094E+03</rscale>
<asrwt>0</asrwt>
<pdfrwt beam="1">  1        4 0.69522575E-01 0.12500094E+03</pdfrwt>
<pdfrwt beam="2">  1       -4 0.13298847E-02 0.12500094E+03</pdfrwt>
<totfact> 0.59060163E+03</totfact>
</mgrwt>
</event>
<event>
 5    1  0.3270363E-002  0.1250000E+03  0.7818608E-02  0.1235069E+00
         -4   -1    0    0    0  501 -0.00000000000E+00  0.00000000000E+00  0.31033376916E+02  0.31059352582E+02  0.12700000000E+01 0. -1.
          4   -1    0    0  501    0  0.00000000000E+00 -0.00000000000E+00 -0.12579072881E+03  0.12579713969E+03  0.12700000000E+01 0. -1.
         25    2    1    2    0    0  0.00000000000E+00  0.00000000000E+00 -0.94757351890E+02  0.15685649227E+03  0.12500001372E+03 0.  0.
    9000005    1    3    3    0    0  0.47507962221E+02  0.37685488129E+02 -0.28428819602E+02  0.66980596249E+02  0.10000000000E+01 0.  0.
    9000005    1    3    3    0    0 -0.47507962221E+02 -0.37685488129E+02 -0.66328532289E+02  0.89875896020E+02  0.10000000000E+01 0.  0.
<mgrwt>
<rscale>  0 0.12500001E+03</rscale>
<asrwt>0</asrwt>
<pdfrwt beam="2">  1        4 0.19354911E-01 0.12500001E+03</pdfrwt>
<pdfrwt beam="1">  1       -4 0.47768570E-02 0.12500001E+03</pdfrwt>
<totfact> 0.97952244E+03</totfact>
</mgrwt>
</event>
<event>
 5    1  0.3270363E-002  0.1249928E+03  0.7818608E-02  0.1235081E+00
          4   -1    0    0  501    0  0.00000000000E+00  0.00000000000E+00  0.14382603584E+02  0.14438565921E+02  0.12700000000E+01 0.  1.
         -4   -1    0    0    0  501 -0.00000000000E+00 -0.00000000000E+00 -0.27097925744E+03  0.27098223349E+03  0.12700000000E+01 0.  1.
         25    2    1    2    0    0  0.00000000000E+00  0.00000000000E+00 -0.25659665386E+03  0.28542079941E+03  0.12499275964E+03 0.  0.
    9000005    1    3    3    0    0 -0.58244475265E+02  0.19404329457E+02 -0.15491363672E+03  0.16663787607E+03  0.10000000000E+01 0.  0.
    9000005    1    3    3    0    0  0.58244475265E+02 -0.19404329457E+02 -0.10168301714E+03  0.11878292333E+03  0.10000000000E+01 0.  0.
<mgrwt>
<rscale>  0 0.12499276E+03</rscale>
<asrwt>0</asrwt>
<pdfrwt beam="1">  1        4 0.22172422E-02 0.12499276E+03</pdfrwt>
<pdfrwt beam="2">  1       -4 0.41693646E-01 0.12499276E+03</pdfrwt>
<totfact> 0.77477259E+03</totfact>
</mgrwt>
</event>
<event>
 4    1  0.3270363E-002  0.1251902E+03  0.7818608E-02  0.1234772E+00
         -4   -1    0    0    0  501 -0.00000000000E+00  0.00000000000E+00  0.59336451645E+02  0.59350041228E+02  0.12700000000E+01 0.  1.
          4   -1    0    0  501    0  0.00000000000E+00 -0.00000000000E+00 -0.66005471958E+02  0.66017688753E+02  0.12700000000E+01 0.  1.
    9000005    1    1    2    0    0 -0.42030320339E+02 -0.45206119586E+02  0.70245709595E+01  0.62132806737E+02  0.10000000000E+01 0.  0.
    9000005    1    1    2    0    0  0.42030320339E+02  0.45206119586E+02 -0.13693591273E+02  0.63234923245E+02  0.10000000000E+01 0.  0.
<mgrwt>
<rscale>  0 0.12519022E+03</rscale>
<asrwt>0</asrwt>
<pdfrwt beam="2">  1        4 0.10156673E-01 0.12519022E+03</pdfrwt>
<pdfrwt beam="1">  1       -4 0.91306700E-02 0.12519022E+03</pdfrwt>
<totfact> 0.10400106E+04</totfact>
</mgrwt>
</event>
<event>
 5    1  0.3270363E-002  0.1249994E+03  0.7818608E-02  0.1235070E+00
         -4   -1    0    0    0  501 -0.00000000000E+00  0.00000000000E+00  0.45009865937E+02  0.45027779555E+02  0.12700000000E+01 0.  1.
          4   -1    0    0  501    0  0.00000000000E+00 -0.00000000000E+00 -0.86745907795E+02  0.86755203989E+02  0.12700000000E+01 0.  1.
         25    2    1    2    0    0  0.00000000000E+00  0.00000000000E+00 -0.41736041858E+02  0.13178298354E+03  0.12499943025E+03 0.  0.
    9000005    1    3    3    0    0  0.92111827515E+01  0.57265194744E+02  0.36551380583E+01  0.58124938288E+02  0.10000000000E+01 0.  0.
    9000005    1    3    3    0    0 -0.92111827515E+01 -0.57265194744E+02 -0.45391179916E+02  0.73658045256E+02  0.10000000000E+01 0.  0.
<mgrwt>
<rscale>  0 0.12499943E+03</rscale>
<asrwt>0</asrwt>
<pdfrwt beam="2">  1        4 0.13347617E-01 0.12499943E+03</pdfrwt>
<pdfrwt beam="1">  1       -4 0.69266879E-02 0.12499943E+03</pdfrwt>
<totfact> 0.10306465E+04</totfact>
</mgrwt>
</event>
<event>
 5    1  0.3270363E-002  0.1249989E+03  0.7818608E-02  0.1235071E+00
          4   -1    0    0  501    0  0.00000000000E+00  0.00000000000E+00  0.41278245342E+02  0.41297777646E+02  0.12700000000E+01 0.  1.
         -4   -1    0    0    0  501 -0.00000000000E+00 -0.00000000000E+00 -0.94584259735E+02  0.94592785611E+02  0.12700000000E+01 0.  1.
         25    2    1    2    0    0  0.00000000000E+00  0.00000000000E+00 -0.53306014393E+02  0.13589056326E+03  0.12499885604E+03 0.  0.
    9000005    1    3    3    0    0 -0.91407648084E+01  0.32540380616E+02 -0.83794810277E+02  0.90360390555E+02  0.10000000000E+01 0.  0.
    9000005    1    3    3    0    0  0.91407648084E+01 -0.32540380616E+02  0.30488795883E+02  0.45530172702E+02  0.10000000000E+01 0.  0.
<mgrwt>
<rscale>  0 0.12499886E+03</rscale>
<asrwt>0</asrwt>
<pdfrwt beam="1">  1        4 0.63526576E-02 0.12499886E+03</pdfrwt>
<pdfrwt beam="2">  1       -4 0.14553583E-01 0.12499886E+03</pdfrwt>
<totfact> 0.10219598E+04</totfact>
</mgrwt>
</event>
<event>
 5    1  0.3270363E-002  0.1250100E+03  0.7818608E-02  0.1235054E+00
         -4   -1    0    0    0  501 -0.00000000000E+00  0.00000000000E+00  0.35282787114E+03  0.35283015680E+03  0.12700000000E+01 0. -1.
          4   -1    0    0  501    0  0.00000000000E+00 -0.00000000000E+00 -0.11034295627E+02  0.11107140946E+02  0.12700000000E+01 0. -1.
         25    2    1    2    0    0  0.00000000000E+00  0.00000000000E+00  0.34179357551E+03  0.36393729775E+03  0.12501003333E+03 0.  0.
    9000005    1    3    3    0    0 -0.28655988360E+02  0.49106811527E+02  0.95359005133E+02  0.11102695379E+03  0.10000000000E+01 0.  0.
    9000005    1    3    3    0    0  0.28655988360E+02 -0.49106811527E+02  0.24643457038E+03  0.25291034396E+03  0.10000000000E+01 0.  0.
<mgrwt>
<rscale>  0 0.12501003E+03</rscale>
<asrwt>0</asrwt>
<pdfrwt beam="2">  1        4 0.17033632E-02 0.12501003E+03</pdfrwt>
<pdfrwt beam="1">  1       -4 0.54286991E-01 0.12501003E+03</pdfrwt>
<totfact> 0.68202879E+03</totfact>
</mgrwt>
</event>
<event>
 5    1  0.3270363E-002  0.1249917E+03  0.7818608E-02  0.1235082E+00
          4   -1    0    0  501    0  0.00000000000E+00  0.00000000000E+00  0.11799223210E+02  0.11867374114E+02  0.12700000000E+01 0.  1.
         -4   -1    0    0    0  501 -0.00000000000E+00 -0.00000000000E+00 -0.32999326886E+03  0.32999571269E+03  0.12700000000E+01 0.  1.
         25    2    1    2    0    0  0.00000000000E+00  0.00000000000E+00 -0.31819404565E+03  0.34186308680E+03  0.12499167745E+03 0.  0.
    9000005    1    3    3    0    0 -0.61645222378E+02 -0.59036033131E+01 -0.13625554615E+03  0.14967150641E+03  0.10000000000E+01 0.  0.
    9000005    1    3    3    0    0  0.61645222378E+02  0.59036033131E+01 -0.18193849950E+03  0.19219158039E+03  0.10000000000E+01 0.  0.
<mgrwt>
<rscale>  0 0.12499168E+03</rscale>
<asrwt>0</asrwt>
<pdfrwt beam="1">  1        4 0.18206957E-02 0.12499168E+03</pdfrwt>
<pdfrwt beam="2">  1       -4 0.50773619E-01 0.12499168E+03</pdfrwt>
<totfact> 0.70642109E+03</totfact>
</mgrwt>
</event>
<event>
 5    1  0.3270363E-002  0.1249498E+03  0.7818608E-02  0.1235148E+00
         -4   -1    0    0    0  501 -0.00000000000E+00  0.00000000000E+00  0.24132086671E+02  0.24165481727E+02  0.12700000000E+01 0. -1.
          4   -1    0    0  501    0  0.00000000000E+00 -0.00000000000E+00 -0.16159187227E+03  0.16159686285E+03  0.12700000000E+01 0. -1.
         25    2    1    2    0    0  0.00000000000E+00  0.00000000000E+00 -0.13745978560E+03  0.18576234458E+03  0.12494981395E+03 0.  0.
    9000005    1    3    3    0    0 -0.46652546266E+02 -0.33366582762E+02 -0.10551847875E+03  0.12010386454E+03  0.10000000000E+01 0.  0.
    9000005    1    3    3    0    0  0.46652546266E+02  0.33366582762E+02 -0.31941306844E+02  0.65658480041E+02  0.10000000000E+01 0.  0.
<mgrwt>
<rscale>  0 0.12494981E+03</rscale>
<asrwt>0</asrwt>
<pdfrwt beam="2">  1        4 0.24863240E-01 0.12494981E+03</pdfrwt>
<pdfrwt beam="1">  1       -4 0.37155816E-02 0.12494981E+03</pdfrwt>
<totfact> 0.92694132E+03</totfact>
</mgrwt>
</event>
<event>
 5    1  0.3270363E-002  0.1249985E+03  0.7818608E-02  0.1235072E+00
         -4   -1    0    0    0  501 -0.00000000000E+00  0.00000000000E+00  0.18609179497E+03  0.18609612853E+03  0.12700000000E+01 0. -1.
          4   -1    0    0  501    0  0.00000000000E+00 -0.00000000000E+00 -0.20966681983E+02  0.21005110173E+02  0.12700000000E+01 0. -1.
         25    2    1    2    0    0  0.00000000000E+00  0.00000000000E+00  0.16512511299E+03  0.20710123871E+03  0.12499848053E+03 0.  0.
    9000005    1    3    3    0    0  0.14835062393E+02 -0.29778873303E+02  0.17020705991E+03  0.17343097651E+03  0.10000000000E+01 0.  0.
    9000005    1    3    3    0    0 -0.14835062393E+02  0.29778873303E+02 -0.50819469249E+01  0.33670262191E+02  0.10000000000E+01 0.  0.
<mgrwt>
<rscale>  0 0.12499848E+03</rscale>
<asrwt>0</asrwt>
<pdfrwt beam="2">  1        4 0.32289326E-02 0.12499848E+03</pdfrwt>
<pdfrwt beam="1">  1       -4 0.28632797E-01 0.12499848E+03</pdfrwt>
<totfact> 0.88954506E+03</totfact>
</mgrwt>
</event>
<event>
 5    1  0.3270363E-002  0.1250200E+03  0.7818608E-02  0.1235038E+00
          4   -1    0    0  501    0  0.00000000000E+00  0.00000000000E+00  0.12265994379E+02  0.12331565923E+02  0.12700000000E+01 0. -1.
         -4   -1    0    0    0  501 -0.00000000000E+00 -0.00000000000E+00 -0.31764769571E+03  0.31765023452E+03  0.12700000000E+01 0. -1.
         25    2    1    2    0    0  0.00000000000E+00  0.00000000000E+00 -0.30538170133E+03  0.32998180044E+03  0.12502001886E+03 0.  0.
    9000005    1    3    3    0    0  0.25549743220E+02 -0.54520163743E+02 -0.10842516166E+03  0.12402521241E+03  0.10000000000E+01 0.  0.
    9000005    1    3    3    0    0 -0.25549743220E+02  0.54520163743E+02 -0.19695653968E+03  0.20595658803E+03  0.10000000000E+01 0.  0.
<mgrwt>
<rscale>  0 0.12502002E+03</rscale>
<asrwt>0</asrwt>
<pdfrwt beam="1">  1        4 0.18923156E-02 0.12502002E+03</pdfrwt>
<pdfrwt beam="2">  1       -4 0.48874109E-01 0.12502002E+03</pdfrwt>
<totfact> 0.71952528E+03</totfact>
</mgrwt>
</event>
<event>
 5    1  0.3270363E-002  0.1250008E+03  0.7818608E-02  0.1235068E+00
          4   -1    0    0  501    0  0.00000000000E+00  0.00000000000E+00  0.11043850030E+03  0.11044580232E+03  0.12700000000E+01 0.  1.
         -4   -1    0    0    0  501 -0.00000000000E+00 -0.00000000000E+00 -0.35350959313E+02  0.35373764633E+02  0.12700000000E+01 0.  1.
         25    2    1    2    0    0  0.00000000000E+00  0.00000000000E+00  0.75087540991E+02  0.14581956695E+03  0.12500082917E+03 0.  0.
    9000005    1    3    3    0    0 -0.28142881981E+02  0.35170480284E+02  0.88074556724E+02  0.98929833881E+02  0.10000000000E+01 0.  0.
    9000005    1    3    3    0    0  0.28142881981E+02 -0.35170480284E+02 -0.12987015733E+02  0.46889733069E+02  0.10000000000E+01 0.  0.
<mgrwt>
<rscale>  0 0.12500083E+03</rscale>
<asrwt>0</asrwt>
<pdfrwt beam="1">  1        4 0.16992854E-01 0.12500083E+03</pdfrwt>
<pdfrwt beam="2">  1       -4 0.54409251E-02 0.12500083E+03</pdfrwt>
<totfact> 0.10014176E+04</totfact>
</mgrwt>
</event>
<event>
 5    1  0.3270363E-002  0.1249992E+03  0.7818608E-02  0.1235071E+00
          4   -1    0    0  501    0  0.00000000000E+00  0.00000000000E+00  0.10177310545E+03  0.10178102914E+03  0.12700000000E+01 0.  1.
         -4   -1    0    0    0  501 -0.00000000000E+00 -0.00000000000E+00 -0.38361518152E+02  0.38382534764E+02  0.12700000000E+01 0.  1.
         25    2    1    2    0    0  0.00000000000E+00  0.00000000000E+00  0.63411587302E+02  0.14016356391E+03  0.12499918097E+03 0.  0.
    9000005    1    3    3    0    0  0.75896663978E+01  0.61667291042E+02  0.39206130368E+02  0.73475019421E+02  0.10000000000E+01 0.  0.
    9000005    1    3    3    0    0 -0.75896663978E+01 -0.61667291042E+02  0.24205456934E+02  0.66688544487E+02  0.10000000000E+01 0.  0.
<mgrwt>
<rscale>  0 0.12499918E+03</rscale>
<asrwt>0</asrwt>
<pdfrwt beam="1">  1        4 0.15659627E-01 0.12499918E+03</pdfrwt>
<pdfrwt beam="2">  1       -4 0.59039982E-02 0.12499918E+03</pdfrwt>
<totfact> 0.10130384E+04</totfact>
</mgrwt>
</event>
<event>
 5    1  0.3270363E-002  0.1250015E+03  0.7818608E-02  0.1235067E+00
          4   -1    0    0  501    0  0.00000000000E+00  0.00000000000E+00  0.39104919851E+02  0.39125537141E+02  0.12700000000E+01 0.  1.
         -4   -1    0    0    0  501 -0.00000000000E+00 -0.00000000000E+00 -0.99842881539E+02  0.99850958403E+02  0.12700000000E+01 0.  1.
         25    2    1    2    0    0  0.00000000000E+00  0.00000000000E+00 -0.60737961688E+02  0.13897649554E+03  0.12500146529E+03 0.  0.
    9000005    1    3    3    0    0 -0.58894266946E+02  0.19667538798E+02 -0.22507782499E+02  0.66052608083E+02  0.10000000000E+01 0.  0.
    9000005    1    3    3    0    0  0.58894266946E+02 -0.19667538798E+02 -0.38230179189E+02  0.72923887461E+02  0.10000000000E+01 0.  0.
<mgrwt>
<rscale>  0 0.12500147E+03</rscale>
<asrwt>0</asrwt>
<pdfrwt beam="1">  1        4 0.60183488E-02 0.12500147E+03</pdfrwt>
<pdfrwt beam="2">  1       -4 0.15362650E-01 0.12500147E+03</pdfrwt>
<totfact> 0.10154507E+04</totfact>
</mgrwt>
</event>
<event>
 5    1  0.3270363E-002  0.1249960E+03  0.7818608E-02  0.1235076E+00
         -4   -1    0    0    0  501 -0.00000000000E+00  0.00000000000E+00  0.26620612167E+02  0.26650889144E+02  0.12700000000E+01 0. -1.
          4   -1    0    0  501    0  0.00000000000E+00 -0.00000000000E+00 -0.14661194843E+03  0.14661744890E+03  0.12700000000E+01 0. -1.
         25    2    1    2    0    0  0.00000000000E+00  0.00000000000E+00 -0.11999133626E+03  0.17326833805E+03  0.12499598470E+03 0.  0.
    9000005    1    3    3    0    0  0.55778709529E+02 -0.26820975194E+02 -0.48041434262E+02  0.78355654251E+02  0.10000000000E+01 0.  0.
    9000005    1    3    3    0    0 -0.55778709529E+02  0.26820975194E+02 -0.71949902000E+02  0.94912683794E+02  0.10000000000E+01 0.  0.
<mgrwt>
<rscale>  0 0.12499598E+03</rscale>
<asrwt>0</asrwt>
<pdfrwt beam="2">  1        4 0.22558436E-01 0.12499598E+03</pdfrwt>
<pdfrwt beam="1">  1       -4 0.40982310E-02 0.12499598E+03</pdfrwt>
<totfact> 0.94851496E+03</totfact>
</mgrwt>
</event>
<event>
 5    1  0.3270363E-002  0.1249970E+03  0.7818608E-02  0.1235074E+00
          4   -1    0    0  501    0  0.00000000000E+00  0.00000000000E+00  0.38346604791E+02  0.38367629572E+02  0.12700000000E+01 0.  1.
         -4   -1    0    0    0  501 -0.00000000000E+00 -0.00000000000E+00 -0.10180914061E+03  0.10181706149E+03  0.12700000000E+01 0.  1.
         25    2    1    2    0    0  0.00000000000E+00  0.00000000000E+00 -0.63462535816E+02  0.14018469107E+03  0.12499701659E+03 0.  0.
    9000005    1    3    3    0    0 -0.54977582865E+02 -0.20987215184E+02 -0.55311298326E+02  0.80767181091E+02  0.10000000000E+01 0.  0.
    9000005    1    3    3    0    0  0.54977582865E+02  0.20987215184E+02 -0.81512374897E+01  0.59417509974E+02  0.10000000000E+01 0.  0.
<mgrwt>
<rscale>  0 0.12499702E+03</rscale>
<asrwt>0</asrwt>
<pdfrwt beam="1">  1        4 0.59017043E-02 0.12499702E+03</pdfrwt>
<pdfrwt beam="2">  1       -4 0.15665171E-01 0.12499702E+03</pdfrwt>
<totfact> 0.10130440E+04</totfact>
</mgrwt>
</event>
<event>
 4    1  0.3270363E-002  0.1143100E+03  0.7818608E-02  0.1252790E+00
          4   -1    0    0  501    0  0.00000000000E+00  0.00000000000E+00  0.50699055515E+01  0.52265516644E+01  0.12700000000E+01 0.  1.
         -4   -1    0    0    0  501 -0.00000000000E+00 -0.00000000000E+00 -0.63437047789E+03  0.63437174915E+03  0.12700000000E+01 0.  1.
    9000005    1    1    2    0    0  0.13963851575E+02 -0.50655301906E+02 -0.18894336242E+03  0.19611614662E+03  0.10000000000E+01 0.  0.
    9000005    1    1    2    0    0 -0.13963851575E+02  0.50655301906E+02 -0.44035720992E+03  0.44348215420E+03  0.10000000000E+01 0.  0.
<mgrwt>
<rscale>  0 0.11431000E+03</rscale>
<asrwt>0</asrwt>
<pdfrwt beam="1">  1        4 0.79213346E-03 0.11431000E+03</pdfrwt>
<pdfrwt beam="2">  1       -4 0.97607543E-01 0.11431000E+03</pdfrwt>
<totfact> 0.59272650E+03</totfact>
</mgrwt>
</event>
<event>
 5    1  0.3270363E-002  0.1250135E+03  0.7818608E-02  0.1235048E+00
          4   -1    0    0  501    0  0.00000000000E+00  0.00000000000E+00  0.47027681708E+02  0.47044826993E+02  0.12700000000E+01 0.  1.
         -4   -1    0    0    0  501 -0.00000000000E+00 -0.00000000000E+00 -0.83043605113E+02  0.83053315708E+02  0.12700000000E+01 0.  1.
         25    2    1    2    0    0  0.00000000000E+00  0.00000000000E+00 -0.36015923405E+02  0.13009814270E+03  0.12501351925E+03 0.  0.
    9000005    1    3    3    0    0 -0.22950955807E+02 -0.26306718212E+01  0.42426613112E+02  0.48318571035E+02  0.10000000000E+01 0.  0.
    9000005    1    3    3    0    0  0.22950955807E+02  0.26306718212E+01 -0.78442536517E+02  0.81779571666E+02  0.10000000000E+01 0.  0.
<mgrwt>
<rscale>  0 0.12501352E+03</rscale>
<asrwt>0</asrwt>
<pdfrwt beam="1">  1        4 0.72370938E-02 0.12501352E+03</pdfrwt>
<pdfrwt beam="2">  1       -4 0.12778005E-01 0.12501352E+03</pdfrwt>
<totfact> 0.10339253E+04</totfact>
</mgrwt>
</event>
<event>
 5    1  0.3270363E-002  0.1250008E+03  0.7818608E-02  0.1235068E+00
         -4   -1    0    0    0  501 -0.00000000000E+00  0.00000000000E+00  0.47740094697E+01  0.49400472080E+01  0.12700000000E+01 0.  1.
          4   -1    0    0  501    0  0.00000000000E+00 -0.00000000000E+00 -0.80409001407E+03  0.80409101700E+03  0.12700000000E+01 0.  1.
         25    2    1    2    0    0  0.00000000000E+00  0.00000000000E+00 -0.79931600460E+03  0.80903106421E+03  0.12500075060E+03 0.  0.
    9000005    1    3    3    0    0 -0.51434607192E+02 -0.35079055339E+02 -0.36466137434E+03  0.36993915294E+03  0.10000000000E+01 0.  0.
    9000005    1    3    3    0    0  0.51434607192E+02  0.35079055339E+02 -0.43465463025E+03  0.43909191127E+03  0.10000000000E+01 0.  0.
<mgrwt>
<rscale>  0 0.12500075E+03</rscale>
<asrwt>0</asrwt>
<pdfrwt beam="2">  1        4 0.12371890E+00 0.12500075E+03</pdfrwt>
<pdfrwt beam="1">  1       -4 0.74731291E-03 0.12500075E+03</pdfrwt>
<totfact> 0.37864130E+03</totfact>
</mgrwt>
</event>
<event>
 5    1  0.3270363E-002  0.1250000E+03  0.7818608E-02  0.1235069E+00
          4   -1    0    0  501    0  0.00000000000E+00  0.00000000000E+00  0.71242523072E+02  0.71253841958E+02  0.12700000000E+01 0.  1.
         -4   -1    0    0    0  501 -0.00000000000E+00 -0.00000000000E+00 -0.54807300749E+02  0.54822013055E+02  0.12700000000E+01 0.  1.
         25    2    1    2    0    0  0.00000000000E+00  0.00000000000E+00  0.16435222323E+02  0.12607585501E+03  0.12500001874E+03 0.  0.
    9000005    1    3    3    0    0  0.13241637067E+02  0.49766418955E+02 -0.27487831521E+02  0.58383373400E+02  0.10000000000E+01 0.  0.
    9000005    1    3    3    0    0 -0.13241637067E+02 -0.49766418955E+02  0.43923053844E+02  0.67692481613E+02  0.10000000000E+01 0.  0.
<mgrwt>
<rscale>  0 0.12500002E+03</rscale>
<asrwt>0</asrwt>
<pdfrwt beam="1">  1        4 0.10962391E-01 0.12500002E+03</pdfrwt>
<pdfrwt beam="2">  1       -4 0.84338948E-02 0.12500002E+03</pdfrwt>
<totfact> 0.10429291E+04</totfact>
</mgrwt>
</event>
<event>
 5    1  0.3270363E-002  0.1250107E+03  0.7818608E-02  0.1235053E+00
         -4   -1    0    0    0  501 -0.00000000000E+00  0.00000000000E+00  0.49558291756E+02  0.49574561842E+02  0.12700000000E+01 0. -1.
          4   -1    0    0  501    0  0.00000000000E+00 -0.00000000000E+00 -0.78800427936E+02  0.78810661353E+02  0.12700000000E+01 0. -1.
         25    2    1    2    0    0  0.00000000000E+00  0.00000000000E+00 -0.29242136180E+02  0.12838522319E+03  0.12501065157E+03 0.  0.
    9000005    1    3    3    0    0  0.25779749973E+02 -0.48259775253E+02 -0.45640959360E+02  0.71257972098E+02  0.10000000000E+01 0.  0.
    9000005    1    3    3    0    0 -0.25779749973E+02  0.48259775253E+02  0.16398823180E+02  0.57127251097E+02  0.10000000000E+01 0.  0.
<mgrwt>
<rscale>  0 0.12501065E+03</rscale>
<asrwt>0</asrwt>
<pdfrwt beam="2">  1        4 0.12125181E-01 0.12501065E+03</pdfrwt>
<pdfrwt beam="1">  1       -4 0.76263913E-02 0.12501065E+03</pdfrwt>
<totfact> 0.10376681E+04</totfact>
</mgrwt>
</event>
<event>
 5    1  0.3270363E-002  0.1249999E+03  0.7818608E-02  0.1235069E+00
          4   -1    0    0  501    0  0.00000000000E+00  0.00000000000E+00  0.23949263329E+02  0.23982912959E+02  0.12700000000E+01 0.  1.
         -4   -1    0    0    0  501 -0.00000000000E+00 -0.00000000000E+00 -0.16295425669E+03  0.16295920555E+03  0.12700000000E+01 0.  1.
         25    2    1    2    0    0  0.00000000000E+00  0.00000000000E+00 -0.13900499336E+03  0.18694211851E+03  0.12499986997E+03 0.  0.
    9000005    1    3    3    0    0  0.25518533739E+02 -0.16189896511E+02  0.12301320855E+02  0.32644001103E+02  0.10000000000E+01 0.  0.
    9000005    1    3    3    0    0 -0.25518533739E+02  0.16189896511E+02 -0.15130631422E+03  0.15429811741E+03  0.10000000000E+01 0.  0.
<mgrwt>
<rscale>  0 0.12499987E+03</rscale>
<asrwt>0</asrwt>
<pdfrwt beam="1">  1        4 0.36874713E-02 0.12499987E+03</pdfrwt>
<pdfrwt beam="2">  1       -4 0.25072854E-01 0.12499987E+03</pdfrwt>
<totfact> 0.92382384E+03</totfact>
</mgrwt>
</event>
<event>
 5    1  0.3270363E-002  0.1250018E+03  0.7818608E-02  0.1235066E+00
          4   -1    0    0  501    0  0.00000000000E+00  0.00000000000E+00  0.54311275914E+02  0.54326122550E+02  0.12700000000E+01 0. -1.
         -4   -1    0    0    0  501 -0.00000000000E+00 -0.00000000000E+00 -0.71895202743E+02  0.71906418889E+02  0.12700000000E+01 0. -1.
         25    2    1    2    0    0  0.00000000000E+00  0.00000000000E+00 -0.17583926829E+02  0.12623254144E+03  0.12500184013E+03 0.  0.
    9000005    1    3    3    0    0  0.88740397937E+01  0.31271954215E+02  0.45106558135E+02  0.55608320326E+02  0.10000000000E+01 0.  0.
    9000005    1    3    3    0    0 -0.88740397937E+01 -0.31271954215E+02 -0.62690484964E+02  0.70624221113E+02  0.10000000000E+01 0.  0.
<mgrwt>
<rscale>  0 0.12500184E+03</rscale>
<asrwt>0</asrwt>
<pdfrwt beam="1">  1        4 0.83575858E-02 0.12500184E+03</pdfrwt>
<pdfrwt beam="2">  1       -4 0.11062805E-01 0.12500184E+03</pdfrwt>
<totfact> 0.10425434E+04</totfact>
</mgrwt>
</event>
<event>
 5    1  0.3270363E-002  0.1249992E+03  0.7818608E-02  0.1235071E+00
          4   -1    0    0  501    0  0.00000000000E+00  0.00000000000E+00  0.31624537362E+02  0.31650027857E+02  0.12700000000E+01 0.  1.
         -4   -1    0    0    0  501 -0.00000000000E+00 -0.00000000000E+00 -0.12343947945E+03  0.12344601244E+03  0.12700000000E+01 0.  1.
         25    2    1    2    0    0  0.00000000000E+00  0.00000000000E+00 -0.91814942086E+02  0.15509604029E+03  0.12499919249E+03 0.  0.
    9000005    1    3    3    0    0  0.43620598719E+02 -0.26247617784E+02 -0.90876078993E+02  0.10416888117E+03  0.10000000000E+01 0.  0.
    9000005    1    3    3    0    0 -0.43620598719E+02  0.26247617784E+02 -0.93886309311E+00  0.50927159118E+02  0.10000000000E+01 0.  0.
<mgrwt>
<rscale>  0 0.12499919E+03</rscale>
<asrwt>0</asrwt>
<pdfrwt beam="1">  1        4 0.48677768E-02 0.12499919E+03</pdfrwt>
<pdfrwt beam="2">  1       -4 0.18993152E-01 0.12499919E+03</pdfrwt>
<totfact> 0.98298433E+03</totfact>
</mgrwt>
</event>
<event>
 5    1  0.3270363E-002  0.1250105E+03  0.7818608E-02  0.1235053E+00
          4   -1    0    0  501    0  0.00000000000E+00  0.00000000000E+00  0.15800955644E+02  0.15851911534E+02  0.12700000000E+01 0.  1.
         -4   -1    0    0    0  501 -0.00000000000E+00 -0.00000000000E+00 -0.24680694603E+03  0.24681021355E+03  0.12700000000E+01 0.  1.
         25    2    1    2    0    0  0.00000000000E+00  0.00000000000E+00 -0.23100599039E+03  0.26266212508E+03  0.12501049698E+03 0.  0.
    9000005    1    3    3    0    0 -0.12551923034E+02 -0.53096829799E+02 -0.51459062736E+02  0.75005728076E+02  0.10000000000E+01 0.  0.
    9000005    1    3    3    0    0  0.12551923034E+02  0.53096829799E+02 -0.17954692765E+03  0.18765639700E+03  0.10000000000E+01 0.  0.
<mgrwt>
<rscale>  0 0.12501050E+03</rscale>
<asrwt>0</asrwt>
<pdfrwt beam="1">  1        4 0.24350875E-02 0.12501050E+03</pdfrwt>
<pdfrwt beam="2">  1       -4 0.37974468E-01 0.12501050E+03</pdfrwt>
<totfact> 0.80515105E+03</totfact>
</mgrwt>
</event>
<event>
 5    1  0.3270363E-002  0.1249981E+03  0.7818608E-02  0.1235072E+00
          4   -1    0    0  501    0  0.00000000000E+00  0.00000000000E+00  0.28746244762E+02  0.28774285186E+02  0.12700000000E+01 0. -1.
         -4   -1    0    0    0  501 -0.00000000000E+00 -0.00000000000E+00 -0.13578585251E+03  0.13579179151E+03  0.12700000000E+01 0. -1.
         25    2    1    2    0    0  0.00000000000E+00  0.00000000000E+00 -0.10703960775E+03  0.16456607670E+03  0.12499806388E+03 0.  0.
    9000005    1    3    3    0    0  0.52574853726E+02  0.33649977054E+02 -0.49638150931E+02  0.79758273727E+02  0.10000000000E+01 0.  0.
    9000005    1    3    3    0    0 -0.52574853726E+02 -0.33649977054E+02 -0.57401456817E+02  0.84807802971E+02  0.10000000000E+01 0.  0.
<mgrwt>
<rscale>  0 0.12499806E+03</rscale>
<asrwt>0</asrwt>
<pdfrwt beam="1">  1        4 0.44251131E-02 0.12499806E+03</pdfrwt>
<pdfrwt beam="2">  1       -4 0.20892745E-01 0.12499806E+03</pdfrwt>
<totfact> 0.96473830E+03</totfact>
</mgrwt>
</event>
<event>
 5    1  0.3270363E-002  0.1250082E+03  0.7818608E-02  0.1235056E+00
         -4   -1    0    0    0  501 -0.00000000000E+00  0.00000000000E+00  0.28161940894E+02  0.28190562515E+02  0.12700000000E+01 0. -1.
          4   -1    0    0  501    0  0.00000000000E+00 -0.00000000000E+00 -0.13862296381E+03  0.13862878127E+03  0.12700000000E+01 0. -1.
         25    2    1    2    0    0  0.00000000000E+00  0.00000000000E+00 -0.11046102291E+03  0.16681934378E+03  0.12500822323E+03 0.  0.
    9000005    1    3    3    0    0  0.92972901262E+01 -0.43312436627E+02 -0.11405851944E+03  0.12236319964E+03  0.10000000000E+01 0.  0.
    9000005    1    3    3    0    0 -0.92972901262E+01  0.43312436627E+02  0.35974965250E+01  0.44456144137E+02  0.10000000000E+01 0.  0.
<mgrwt>
<rscale>  0 0.12500822E+03</rscale>
<asrwt>0</asrwt>
<pdfrwt beam="2">  1        4 0.21329259E-01 0.12500822E+03</pdfrwt>
<pdfrwt beam="1">  1       -4 0.43352555E-02 0.12500822E+03</pdfrwt>
<totfact> 0.96026206E+03</totfact>
</mgrwt>
</event>
<event>
 5    1  0.3270363E-002  0.1250003E+03  0.7818608E-02  0.1235069E+00
         -4   -1    0    0    0  501 -0.00000000000E+00  0.00000000000E+00  0.33572789558E+02  0.33596801912E+02  0.12700000000E+01 0.  1.
          4   -1    0    0  501    0  0.00000000000E+00 -0.00000000000E+00 -0.11628313328E+03  0.11629006830E+03  0.12700000000E+01 0.  1.
         25    2    1    2    0    0  0.00000000000E+00  0.00000000000E+00 -0.82710343718E+02  0.14988687021E+03  0.12500029161E+03 0.  0.
    9000005    1    3    3    0    0  0.42002082565E+02 -0.15848818720E+02 -0.93483395191E+02  0.10370875166E+03  0.10000000000E+01 0.  0.
    9000005    1    3    3    0    0 -0.42002082565E+02  0.15848818720E+02  0.10773051473E+02  0.46178118548E+02  0.10000000000E+01 0.  0.
<mgrwt>
<rscale>  0 0.12500029E+03</rscale>
<asrwt>0</asrwt>
<pdfrwt beam="2">  1        4 0.17892093E-01 0.12500029E+03</pdfrwt>
<pdfrwt beam="1">  1       -4 0.51674252E-02 0.12500029E+03</pdfrwt>
<totfact> 0.99325602E+03</totfact>
</mgrwt>
</event>
<event>
 5    1  0.3270363E-002  0.1249960E+03  0.7818608E-02  0.1235075E+00
          4   -1    0    0  501    0  0.00000000000E+00  0.00000000000E+00  0.90021611693E+02  0.90030569651E+02  0.12700000000E+01 0. -1.
         -4   -1    0    0    0  501 -0.00000000000E+00 -0.00000000000E+00 -0.43369199088E+02  0.43387790097E+02  0.12700000000E+01 0. -1.
         25    2    1    2    0    0  0.00000000000E+00  0.00000000000E+00  0.46652412605E+02  0.13341835975E+03  0.12499604440E+03 0.  0.
    9000005    1    3    3    0    0 -0.16816738851E+02  0.24014888328E+02 -0.35578171775E+02  0.46112079479E+02  0.10000000000E+01 0.  0.
    9000005    1    3    3    0    0  0.16816738851E+02 -0.24014888328E+02  0.82230584381E+02  0.87306280270E+02  0.10000000000E+01 0.  0.
<mgrwt>
<rscale>  0 0.12499604E+03</rscale>
<asrwt>0</asrwt>
<pdfrwt beam="1">  1        4 0.13851598E-01 0.12499604E+03</pdfrwt>
<pdfrwt beam="2">  1       -4 0.66743037E-02 0.12499604E+03</pdfrwt>
<totfact> 0.10272433E+04</totfact>
</mgrwt>
</event>
<event>
 5    1  0.3270363E-002  0.1250056E+03  0.7818608E-02  0.1235061E+00
         -4   -1    0    0    0  501 -0.00000000000E+00  0.00000000000E+00  0.37753959711E+02  0.37775314345E+02  0.12700000000E+01 0. -1.
          4   -1    0    0  501    0  0.00000000000E+00 -0.00000000000E+00 -0.10342073057E+03  0.10342852804E+03  0.12700000000E+01 0. -1.
         25    2    1    2    0    0  0.00000000000E+00  0.00000000000E+00 -0.65666770859E+02  0.14120384238E+03  0.12500560111E+03 0.  0.
    9000005    1    3    3    0    0  0.16387496764E+02 -0.30900089182E+02 -0.91334671735E+02  0.97807912883E+02  0.10000000000E+01 0.  0.
    9000005    1    3    3    0    0 -0.16387496764E+02  0.30900089182E+02  0.25667900875E+02  0.43395929498E+02  0.10000000000E+01 0.  0.
<mgrwt>
<rscale>  0 0.12500560E+03</rscale>
<asrwt>0</asrwt>
<pdfrwt beam="2">  1        4 0.15913124E-01 0.12500560E+03</pdfrwt>
<pdfrwt beam="1">  1       -4 0.58105440E-02 0.12500560E+03</pdfrwt>
<totfact> 0.10107421E+04</totfact>
</mgrwt>
</event>
<event>
 5    1  0.3270363E-002  0.1250029E+03  0.7818608E-02  0.1235065E+00
          4   -1    0    0  501    0  0.00000000000E+00  0.00000000000E+00  0.55352490418E+01  0.56790740403E+01  0.12700000000E+01 0.  1.
         -4   -1    0    0    0  501 -0.00000000000E+00 -0.00000000000E+00 -0.69654194859E+03  0.69654310638E+03  0.12700000000E+01 0.  1.
         25    2    1    2    0    0  0.00000000000E+00  0.00000000000E+00 -0.69100669955E+03  0.70222218042E+03  0.12500292738E+03 0.  0.
    9000005    1    3    3    0    0  0.43357217478E+02 -0.17128056682E+01 -0.59815074848E+03  0.59972335282E+03  0.10000000000E+01 0.  0.
    9000005    1    3    3    0    0 -0.43357217478E+02  0.17128056682E+01 -0.92855951074E+02  0.10249882761E+03  0.10000000000E+01 0.  0.
<mgrwt>
<rscale>  0 0.12500293E+03</rscale>
<asrwt>0</asrwt>
<pdfrwt beam="1">  1        4 0.86272985E-03 0.12500293E+03</pdfrwt>
<pdfrwt beam="2">  1       -4 0.10717138E+00 0.12500293E+03</pdfrwt>
<totfact> 0.42966916E+03</totfact>
</mgrwt>
</event>
<event>
 5    1  0.3270363E-002  0.1250033E+03  0.7818608E-02  0.1235064E+00
          4   -1    0    0  501    0  0.00000000000E+00  0.00000000000E+00  0.15063845217E+03  0.15064380562E+03  0.12700000000E+01 0.  1.
         -4   -1    0    0    0  501 -0.00000000000E+00 -0.00000000000E+00 -0.25911285533E+02  0.25942390368E+02  0.12700000000E+01 0.  1.
         25    2    1    2    0    0  0.00000000000E+00  0.00000000000E+00  0.12472716664E+03  0.17658619599E+03  0.12500327402E+03 0.  0.
    9000005    1    3    3    0    0  0.60417902564E+02 -0.14352561403E+02  0.72265830452E+02  0.95287298313E+02  0.10000000000E+01 0.  0.
    9000005    1    3    3    0    0 -0.60417902564E+02  0.14352561403E+02  0.52461336186E+02  0.81298897676E+02  0.10000000000E+01 0.  0.
<mgrwt>
<rscale>  0 0.12500327E+03</rscale>
<asrwt>0</asrwt>
<pdfrwt beam="1">  1        4 0.23177951E-01 0.12500327E+03</pdfrwt>
<pdfrwt beam="2">  1       -4 0.39891561E-02 0.12500327E+03</pdfrwt>
<totfact> 0.94228213E+03</totfact>
</mgrwt>
</event>
<event>
 5    1  0.3270363E-002  0.1249825E+03  0.7818608E-02  0.1235097E+00
          4   -1    0    0  501    0  0.00000000000E+00  0.00000000000E+00  0.12200449452E+02  0.12266371380E+02  0.12700000000E+01 0.  1.
         -4   -1    0    0    0  501 -0.00000000000E+00 -0.00000000000E+00 -0.31915349979E+03  0.31915602662E+03  0.12700000000E+01 0.  1.
         25    2    1    2    0    0  0.00000000000E+00  0.00000000000E+00 -0.30695305034E+03  0.33142239800E+03  0.12498252192E+03 0.  0.
    9000005    1    3    3    0    0 -0.14746350224E+02  0.14834658365E+02 -0.30960663964E+03  0.31031402360E+03  0.10000000000E+01 0.  0.
    9000005    1    3    3    0    0  0.14746350224E+02 -0.14834658365E+02  0.26535892998E+01  0.21108374402E+02  0.10000000000E+01 0.  0.
<mgrwt>
<rscale>  0 0.12498252E+03</rscale>
<asrwt>0</asrwt>
<pdfrwt beam="1">  1        4 0.18822578E-02 0.12498252E+03</pdfrwt>
<pdfrwt beam="2">  1       -4 0.49105797E-01 0.12498252E+03</pdfrwt>
<totfact> 0.71845683E+03</totfact>
</mgrwt>
</event>
<event>
 5    1  0.3270363E-002  0.1250053E+03  0.7818608E-02  0.1235061E+00
         -4   -1    0    0    0  501 -0.00000000000E+00  0.00000000000E+00  0.27112658974E+03  0.27112956416E+03  0.12700000000E+01 0. -1.
          4   -1    0    0  501    0  0.00000000000E+00 -0.00000000000E+00 -0.14377653630E+02  0.14433635159E+02  0.12700000000E+01 0. -1.
         25    2    1    2    0    0  0.00000000000E+00  0.00000000000E+00  0.25674893611E+03  0.28556319932E+03  0.12500529834E+03 0.  0.
    9000005    1    3    3    0    0 -0.30016321798E+02  0.43214441322E+02  0.51341655875E+02  0.73521650832E+02  0.10000000000E+01 0.  0.
    9000005    1    3    3    0    0  0.30016321798E+02 -0.43214441322E+02  0.20540728023E+03  0.21204154849E+03  0.10000000000E+01 0.  0.
<mgrwt>
<rscale>  0 0.12500530E+03</rscale>
<asrwt>0</asrwt>
<pdfrwt beam="2">  1        4 0.22164819E-02 0.12500530E+03</pdfrwt>
<pdfrwt beam="1">  1       -4 0.41716315E-01 0.12500530E+03</pdfrwt>
<totfact> 0.77437085E+03</totfact>
</mgrwt>
</event>
<event>
 5    1  0.3270363E-002  0.1250002E+03  0.7818608E-02  0.1235069E+00
         -4   -1    0    0    0  501 -0.00000000000E+00  0.00000000000E+00  0.44951228893E+01  0.46710844340E+01  0.12700000000E+01 0. -1.
          4   -1    0    0  501    0  0.00000000000E+00 -0.00000000000E+00 -0.85214193627E+03  0.85214288265E+03  0.12700000000E+01 0. -1.
         25    2    1    2    0    0  0.00000000000E+00  0.00000000000E+00 -0.84764681338E+03  0.85681396708E+03  0.12500021582E+03 0.  0.
    9000005    1    3    3    0    0 -0.28369762356E+02  0.40312525989E+02 -0.68710405381E+03  0.68887075996E+03  0.10000000000E+01 0.  0.
    9000005    1    3    3    0    0  0.28369762356E+02 -0.40312525989E+02 -0.16054275957E+03  0.16794320712E+03  0.10000000000E+01 0.  0.
<mgrwt>
<rscale>  0 0.12500022E+03</rscale>
<asrwt>0</asrwt>
<pdfrwt beam="2">  1        4 0.13111224E+00 0.12500022E+03</pdfrwt>
<pdfrwt beam="1">  1       -4 0.70516635E-03 0.12500022E+03</pdfrwt>
<totfact> 0.35849963E+03</totfact>
</mgrwt>
</event>
<event>
 5    1  0.3270363E-002  0.1250009E+03  0.7818608E-02  0.1235068E+00
          4   -1    0    0  501    0  0.00000000000E+00  0.00000000000E+00  0.11750588404E+04  0.11750595267E+04  0.12700000000E+01 0.  1.
         -4   -1    0    0    0  501 -0.00000000000E+00 -0.00000000000E+00 -0.32023423770E+01  0.34449813787E+01  0.12700000000E+01 0.  1.
         25    2    1    2    0    0  0.00000000000E+00  0.00000000000E+00  0.11718564980E+04  0.11785045080E+04  0.12500089446E+03 0.  0.
    9000005    1    3    3    0    0 -0.58015486943E+02  0.12671411040E+02  0.40239872274E+03  0.40675802812E+03  0.10000000000E+01 0.  0.
    9000005    1    3    3    0    0  0.58015486943E+02 -0.12671411040E+02  0.76945777524E+03  0.77174647992E+03  0.10000000000E+01 0.  0.
<mgrwt>
<rscale>  0 0.12500089E+03</rscale>
<asrwt>0</asrwt>
<pdfrwt beam="1">  1        4 0.18079693E+00 0.12500089E+03</pdfrwt>
<pdfrwt beam="2">  1       -4 0.51138559E-03 0.12500089E+03</pdfrwt>
<totfact> 0.25281946E+03</totfact>
</mgrwt>
</event>
<event>
 5    1  0.3270363E-002  0.1250110E+03  0.7818608E-02  0.1235052E+00
          4   -1    0    0  501    0  0.00000000000E+00  0.00000000000E+00  0.10619857395E+02  0.10695525751E+02  0.12700000000E+01 0. -1.
         -4   -1    0    0    0  501 -0.00000000000E+00 -0.00000000000E+00 -0.36650720920E+03  0.36650940956E+03  0.12700000000E+01 0. -1.
         25    2    1    2    0    0  0.00000000000E+00  0.00000000000E+00 -0.35588735181E+03  0.37720493531E+03  0.12501102370E+03 0.  0.
    9000005    1    3    3    0    0  0.61691460972E+02  0.59478273428E+01 -0.20221919110E+03  0.21150606198E+03  0.10000000000E+01 0.  0.
    9000005    1    3    3    0    0 -0.61691460972E+02 -0.59478273428E+01 -0.15366816071E+03  0.16569887333E+03  0.10000000000E+01 0.  0.
<mgrwt>
<rscale>  0 0.12501102E+03</rscale>
<asrwt>0</asrwt>
<pdfrwt beam="1">  1        4 0.16398144E-02 0.12501102E+03</pdfrwt>
<pdfrwt beam="2">  1       -4 0.56391705E-01 0.12501102E+03</pdfrwt>
<totfact> 0.66815567E+03</totfact>
</mgrwt>
</event>
<event>
 5    1  0.3270363E-002  0.1250010E+03  0.7818608E-02  0.1235068E+00
          4   -1    0    0  501    0  0.00000000000E+00  0.00000000000E+00  0.59643119051E+03  0.59643254264E+03  0.12700000000E+01 0.  1.
         -4   -1    0    0    0  501 -0.00000000000E+00 -0.00000000000E+00 -0.64865353458E+01  0.66096929423E+01  0.12700000000E+01 0.  1.
         25    2    1    2    0    0  0.00000000000E+00  0.00000000000E+00  0.58994465517E+03  0.60304223558E+03  0.12500096693E+03 0.  0.
    9000005    1    3    3    0    0  0.20536801067E+02 -0.18026864170E+02  0.56610413143E+03  0.56676416228E+03  0.10000000000E+01 0.  0.
    9000005    1    3    3    0    0 -0.20536801067E+02  0.18026864170E+02  0.23840523738E+02  0.36278073294E+02  0.10000000000E+01 0.  0.
<mgrwt>
<rscale>  0 0.12500097E+03</rscale>
<asrwt>0</asrwt>
<pdfrwt beam="1">  1        4 0.91768222E-01 0.12500097E+03</pdfrwt>
<pdfrwt beam="2">  1       -4 0.10075062E-02 0.12500097E+03</pdfrwt>
<totfact> 0.48675105E+03</totfact>
</mgrwt>
</event>
<event>
 5    1  0.3270363E-002  0.1250100E+03  0.7818608E-02  0.1235054E+00
          4   -1    0    0  501    0  0.00000000000E+00  0.00000000000E+00  0.26751089258E+03  0.26751390721E+03  0.12700000000E+01 0.  1.
         -4   -1    0    0    0  501 -0.00000000000E+00 -0.00000000000E+00 -0.14573838356E+02  0.14629069158E+02  0.12700000000E+01 0.  1.
         25    2    1    2    0    0  0.00000000000E+00  0.00000000000E+00  0.25293705423E+03  0.28214297637E+03  0.12501002245E+03 0.  0.
    9000005    1    3    3    0    0  0.41641763734E+02  0.34139641645E+02  0.54871745559E+02  0.76886020051E+02  0.10000000000E+01 0.  0.
    9000005    1    3    3    0    0 -0.41641763734E+02 -0.34139641645E+02  0.19806530867E+03  0.20525695632E+03  0.10000000000E+01 0.  0.
<mgrwt>
<rscale>  0 0.12501002E+03</rscale>
<asrwt>0</asrwt>
<pdfrwt beam="1">  1        4 0.41159999E-01 0.12501002E+03</pdfrwt>
<pdfrwt beam="2">  1       -4 0.22466096E-02 0.12501002E+03</pdfrwt>
<totfact> 0.77877470E+03</totfact>
</mgrwt>
</event>
<event>
 5    1  0.3270363E-002  0.1250018E+03  0.7818608E-02  0.1235067E+00
          4   -1    0    0  501    0  0.00000000000E+00  0.00000000000E+00  0.34301412996E+02  0.34324915637E+02  0.12700000000E+01 0.  1.
         -4   -1    0    0    0  501 -0.00000000000E+00 -0.00000000000E+00 -0.11381729299E+03  0.11382437825E+03  0.12700000000E+01 0.  1.
         25    2    1    2    0    0  0.00000000000E+00  0.00000000000E+00 -0.79515879996E+02  0.14814929389E+03  0.12500175242E+03 0.  0.
    9000005    1    3    3    0    0 -0.60449200153E+02 -0.10308585030E+02 -0.25487159693E+02  0.66415119015E+02  0.10000000000E+01 0.  0.
    9000005    1    3    3    0    0  0.60449200153E+02  0.10308585030E+02 -0.54028720303E+02  0.81734174872E+02  0.10000000000E+01 0.  0.
<mgrwt>
<rscale>  0 0.12500175E+03</rscale>
<asrwt>0</asrwt>
<pdfrwt beam="1">  1        4 0.52794934E-02 0.12500175E+03</pdfrwt>
<pdfrwt beam="2">  1       -4 0.17512706E-01 0.12500175E+03</pdfrwt>
<totfact> 0.99669964E+03</totfact>
</mgrwt>
</event>
<event>
 5    1  0.3270363E-002  0.1249972E+03  0.7818608E-02  0.1235074E+00
          4   -1    0    0  501    0  0.00000000000E+00  0.00000000000E+00  0.15086359207E+02  0.15139720411E+02  0.12700000000E+01 0. -1.
         -4   -1    0    0    0  501 -0.00000000000E+00 -0.00000000000E+00 -0.25840225780E+03  0.25840537869E+03  0.12700000000E+01 0. -1.
         25    2    1    2    0    0  0.00000000000E+00  0.00000000000E+00 -0.24331589859E+03  0.27354509910E+03  0.12499717891E+03 0.  0.
    9000005    1    3    3    0    0 -0.49091833284E+01 -0.10108583463E+02 -0.25618360383E+03  0.25643190599E+03  0.10000000000E+01 0.  0.
    9000005    1    3    3    0    0  0.49091833284E+01  0.10108583463E+02  0.12867705232E+02  0.17113193113E+02  0.10000000000E+01 0.  0.
<mgrwt>
<rscale>  0 0.12499718E+03</rscale>
<asrwt>0</asrwt>
<pdfrwt beam="1">  1        4 0.23253233E-02 0.12499718E+03</pdfrwt>
<pdfrwt beam="2">  1       -4 0.39758535E-01 0.12499718E+03</pdfrwt>
<totfact> 0.79046797E+03</totfact>
</mgrwt>
</event>
<event>
 5    1  0.3270363E-002  0.1250312E+03  0.7818608E-02  0.1235021E+00
          4   -1    0    0  501    0  0.00000000000E+00  0.00000000000E+00  0.13126682198E+03  0.13127296543E+03  0.12700000000E+01 0. -1.
         -4   -1    0    0    0  501 -0.00000000000E+00 -0.00000000000E+00 -0.29752555157E+02  0.29779648056E+02  0.12700000000E+01 0. -1.
         25    2    1    2    0    0  0.00000000000E+00  0.00000000000E+00  0.10151426682E+03  0.16105261349E+03  0.12503118788E+03 0.  0.
    9000005    1    3    3    0    0  0.20643189753E+02 -0.29902385346E+02  0.11627197662E+03  0.12182145328E+03  0.10000000000E+01 0.  0.
    9000005    1    3    3    0    0 -0.20643189753E+02  0.29902385346E+02 -0.14757709797E+02  0.39231160204E+02  0.10000000000E+01 0.  0.
<mgrwt>
<rscale>  0 0.12503119E+03</rscale>
<asrwt>0</asrwt>
<pdfrwt beam="1">  1        4 0.20197452E-01 0.12503119E+03</pdfrwt>
<pdfrwt beam="2">  1       -4 0.45798728E-02 0.12503119E+03</pdfrwt>
<totfact> 0.97072175E+03</totfact>
</mgrwt>
</event>
<event>
 5    1  0.3270363E-002  0.1250007E+03  0.7818608E-02  0.1235068E+00
         -4   -1    0    0    0  501 -0.00000000000E+00  0.00000000000E+00  0.27277005298E+02  0.27306554489E+02  0.12700000000E+01 0.  1.
          4   -1    0    0  501    0  0.00000000000E+00 -0.00000000000E+00 -0.14309836352E+03  0.14310399905E+03  0.12700000000E+01 0.  1.
         25    2    1    2    0    0  0.00000000000E+00  0.00000000000E+00 -0.11582135822E+03  0.17041055353E+03  0.12500067894E+03 0.  0.
    9000005    1    3    3    0    0 -0.35416483688E+02 -0.16612694371E+02  0.85269940620E+01  0.40050200484E+02  0.10000000000E+01 0.  0.
    9000005    1    3    3    0    0  0.35416483688E+02  0.16612694371E+02 -0.12434835229E+03  0.13036035305E+03  0.10000000000E+01 0.  0.
<mgrwt>
<rscale>  0 0.12500068E+03</rscale>
<asrwt>0</asrwt>
<pdfrwt beam="2">  1        4 0.22017839E-01 0.12500068E+03</pdfrwt>
<pdfrwt beam="1">  1       -4 0.41991690E-02 0.12500068E+03</pdfrwt>
<totfact> 0.95370717E+03</totfact>
</mgrwt>
</event>
<event>
 5    1  0.3270363E-002  0.1250038E+03  0.7818608E-02  0.1235063E+00
          4   -1    0    0  501    0  0.00000000000E+00  0.00000000000E+00  0.15562002632E+03  0.15562520840E+03  0.12700000000E+01 0.  1.
         -4   -1    0    0    0  501 -0.00000000000E+00 -0.00000000000E+00 -0.25081044792E+02  0.25113177972E+02  0.12700000000E+01 0.  1.
         25    2    1    2    0    0  0.00000000000E+00  0.00000000000E+00  0.13053898152E+03  0.18073838638E+03  0.12500375439E+03 0.  0.
    9000005    1    3    3    0    0  0.45410494219E+02  0.42771773052E+02  0.70669186223E+02  0.94269143609E+02  0.10000000000E+01 0.  0.
    9000005    1    3    3    0    0 -0.45410494219E+02 -0.42771773052E+02  0.59869795301E+02  0.86469242767E+02  0.10000000000E+01 0.  0.
<mgrwt>
<rscale>  0 0.12500375E+03</rscale>
<asrwt>0</asrwt>
<pdfrwt beam="1">  1        4 0.23944413E-01 0.12500375E+03</pdfrwt>
<pdfrwt beam="2">  1       -4 0.38614927E-02 0.12500375E+03</pdfrwt>
<totfact> 0.93476391E+03</totfact>
</mgrwt>
</event>
<event>
 5    1  0.3270363E-002  0.1250009E+03  0.7818608E-02  0.1235068E+00
         -4   -1    0    0    0  501 -0.00000000000E+00  0.00000000000E+00  0.77481802280E+01  0.78515728899E+01  0.12700000000E+01 0. -1.
          4   -1    0    0  501    0  0.00000000000E+00 -0.00000000000E+00 -0.50071248267E+03  0.50071409327E+03  0.12700000000E+01 0. -1.
         25    2    1    2    0    0  0.00000000000E+00  0.00000000000E+00 -0.49296430244E+03  0.50856566616E+03  0.12500093326E+03 0.  0.
    9000005    1    3    3    0    0  0.44686654753E+02 -0.25413908298E+02 -0.39104514235E+03  0.39441103839E+03  0.10000000000E+01 0.  0.
    9000005    1    3    3    0    0 -0.44686654753E+02  0.25413908298E+02 -0.10191916009E+03  0.11415462777E+03  0.10000000000E+01 0.  0.
<mgrwt>
<rscale>  0 0.12500093E+03</rscale>
<asrwt>0</asrwt>
<pdfrwt beam="2">  1        4 0.77040741E-01 0.12500093E+03</pdfrwt>
<pdfrwt beam="1">  1       -4 0.12001053E-02 0.12500093E+03</pdfrwt>
<totfact> 0.55204726E+03</totfact>
</mgrwt>
</event>
<event>
 5    1  0.3270363E-002  0.1250001E+03  0.7818608E-02  0.1235069E+00
         -4   -1    0    0    0  501 -0.00000000000E+00  0.00000000000E+00  0.53616672150E+02  0.53631711072E+02  0.12700000000E+01 0. -1.
          4   -1    0    0  501    0  0.00000000000E+00 -0.00000000000E+00 -0.72824405175E+02  0.72835478231E+02  0.12700000000E+01 0. -1.
         25    2    1    2    0    0  0.00000000000E+00  0.00000000000E+00 -0.19207733025E+02  0.12646718930E+03  0.12500005185E+03 0.  0.
    9000005    1    3    3    0    0 -0.17433390454E+02  0.13167783831E+01  0.51096954857E+02  0.54014403669E+02  0.10000000000E+01 0.  0.
    9000005    1    3    3    0    0  0.17433390454E+02 -0.13167783831E+01 -0.70304687881E+02  0.72452785634E+02  0.10000000000E+01 0.  0.
<mgrwt>
<rscale>  0 0.12500005E+03</rscale>
<asrwt>0</asrwt>
<pdfrwt beam="2">  1        4 0.11205763E-01 0.12500005E+03</pdfrwt>
<pdfrwt beam="1">  1       -4 0.82507274E-02 0.12500005E+03</pdfrwt>
<totfact> 0.10420731E+04</totfact>
</mgrwt>
</event>
<event>
 5    1  0.3270363E-002  0.1249981E+03  0.7818608E-02  0.1235072E+00
          4   -1    0    0  501    0  0.00000000000E+00  0.00000000000E+00  0.69210308875E+03  0.69210425396E+03  0.12700000000E+01 0. -1.
         -4   -1    0    0    0  501 -0.00000000000E+00 -0.00000000000E+00 -0.55712314022E+01  0.57141507975E+01  0.12700000000E+01 0. -1.
         25    2    1    2    0    0  0.00000000000E+00  0.00000000000E+00  0.68653185734E+03  0.69781840476E+03  0.12499813948E+03 0.  0.
    9000005    1    3    3    0    0  0.57497106429E+02 -0.12746753988E+02  0.45993311699E+03  0.46368941015E+03  0.10000000000E+01 0.  0.
    9000005    1    3    3    0    0 -0.57497106429E+02  0.12746753988E+02  0.22659874036E+03  0.23412899461E+03  0.10000000000E+01 0.  0.
<mgrwt>
<rscale>  0 0.12499814E+03</rscale>
<asrwt>0</asrwt>
<pdfrwt beam="1">  1        4 0.10648842E+00 0.12499814E+03</pdfrwt>
<pdfrwt beam="2">  1       -4 0.86819642E-03 0.12499814E+03</pdfrwt>
<totfact> 0.43203880E+03</totfact>
</mgrwt>
</event>
<event>
 5    1  0.3270363E-002  0.1250017E+03  0.7818608E-02  0.1235067E+00
         -4   -1    0    0    0  501 -0.00000000000E+00  0.00000000000E+00  0.98792430198E+02  0.98800592936E+02  0.12700000000E+01 0.  1.
          4   -1    0    0  501    0  0.00000000000E+00 -0.00000000000E+00 -0.39521026362E+02  0.39541426690E+02  0.12700000000E+01 0.  1.
         25    2    1    2    0    0  0.00000000000E+00  0.00000000000E+00  0.59271403837E+02  0.13834201963E+03  0.12500166031E+03 0.  0.
    9000005    1    3    3    0    0 -0.25603215353E+02 -0.53590262485E+02  0.81210566985E+01  0.59953252051E+02  0.10000000000E+01 0.  0.
    9000005    1    3    3    0    0  0.25603215353E+02  0.53590262485E+02  0.51150347138E+02  0.78388767575E+02  0.10000000000E+01 0.  0.
<mgrwt>
<rscale>  0 0.12500166E+03</rscale>
<asrwt>0</asrwt>
<pdfrwt beam="2">  1        4 0.60823551E-02 0.12500166E+03</pdfrwt>
<pdfrwt beam="1">  1       -4 0.15201032E-01 0.12500166E+03</pdfrwt>
<totfact> 0.10167684E+04</totfact>
</mgrwt>
</event>
<event>
 5    1  0.3270363E-002  0.1250004E+03  0.7818608E-02  0.1235069E+00
          4   -1    0    0  501    0  0.00000000000E+00  0.00000000000E+00  0.31481959797E+02  0.31507565642E+02  0.12700000000E+01 0.  1.
         -4   -1    0    0    0  501 -0.00000000000E+00 -0.00000000000E+00 -0.12400043043E+03  0.12400693386E+03  0.12700000000E+01 0.  1.
         25    2    1    2    0    0  0.00000000000E+00  0.00000000000E+00 -0.92518470628E+02  0.15551449950E+03  0.12500036859E+03 0.  0.
    9000005    1    3    3    0    0  0.83077958026E+01 -0.42195364216E+02 -0.10266851210E+03  0.11131617856E+03  0.10000000000E+01 0.  0.
    9000005    1    3    3    0    0 -0.83077958026E+01  0.42195364216E+02  0.10150041470E+02  0.44198320944E+02  0.10000000000E+01 0.  0.
<mgrwt>
<rscale>  0 0.12500037E+03</rscale>
<asrwt>0</asrwt>
<pdfrwt beam="1">  1        4 0.48458484E-02 0.12500037E+03</pdfrwt>
<pdfrwt beam="2">  1       -4 0.19079459E-01 0.12500037E+03</pdfrwt>
<totfact> 0.98213777E+03</totfact>
</mgrwt>
</event>
<event>
 5    1  0.3270363E-002  0.1250013E+03  0.7818608E-02  0.1235067E+00
         -4   -1    0    0    0  501 -0.00000000000E+00  0.00000000000E+00  0.22806318505E+03  0.22806672110E+03  0.12700000000E+01 0.  1.
          4   -1    0    0  501    0  0.00000000000E+00 -0.00000000000E+00 -0.17101059115E+02  0.17148152171E+02  0.12700000000E+01 0.  1.
         25    2    1    2    0    0  0.00000000000E+00  0.00000000000E+00  0.21096212593E+03  0.24521487327E+03  0.12500126198E+03 0.  0.
    9000005    1    3    3    0    0  0.11771507689E+02 -0.58451999203E+02  0.68774517079E+02  0.91028230805E+02  0.10000000000E+01 0.  0.
    9000005    1    3    3    0    0 -0.11771507689E+02  0.58451999203E+02  0.14218760886E+03  0.15418664247E+03  0.10000000000E+01 0.  0.
<mgrwt>
<rscale>  0 0.12500126E+03</rscale>
<asrwt>0</asrwt>
<pdfrwt beam="2">  1        4 0.26348266E-02 0.12500126E+03</pdfrwt>
<pdfrwt beam="1">  1       -4 0.35090540E-01 0.12500126E+03</pdfrwt>
<totfact> 0.83024446E+03</totfact>
</mgrwt>
</event>
<event>
 5    1  0.3270363E-002  0.1250004E+03  0.7818608E-02  0.1235069E+00
         -4   -1    0    0    0  501 -0.00000000000E+00  0.00000000000E+00  0.60011492628E+01  0.61340600319E+01  0.12700000000E+01 0. -1.
          4   -1    0    0  501    0  0.00000000000E+00 -0.00000000000E+00 -0.64365846300E+03  0.64365971591E+03  0.12700000000E+01 0. -1.
         25    2    1    2    0    0  0.00000000000E+00  0.00000000000E+00 -0.63765731373E+03  0.64979377594E+03  0.12500040598E+03 0.  0.
    9000005    1    3    3    0    0 -0.28923012261E+02  0.36070399339E+02 -0.53738510143E+03  0.53937126507E+03  0.10000000000E+01 0.  0.
    9000005    1    3    3    0    0  0.28923012261E+02 -0.36070399339E+02 -0.10027221230E+03  0.11042251087E+03  0.10000000000E+01 0.  0.
<mgrwt>
<rscale>  0 0.12500041E+03</rscale>
<asrwt>0</asrwt>
<pdfrwt beam="2">  1        4 0.99034645E-01 0.12500041E+03</pdfrwt>
<pdfrwt beam="1">  1       -4 0.93357453E-03 0.12500041E+03</pdfrwt>
<totfact> 0.45867567E+03</totfact>
</mgrwt>
</event>
<event>
 5    1  0.3270363E-002  0.1249992E+03  0.7818608E-02  0.1235070E+00
         -4   -1    0    0    0  501 -0.00000000000E+00  0.00000000000E+00  0.66618265315E+01  0.67818015848E+01  0.12700000000E+01 0.  1.
          4   -1    0    0  501    0  0.00000000000E+00 -0.00000000000E+00 -0.58100259061E+03  0.58100397864E+03  0.12700000000E+01 0.  1.
         25    2    1    2    0    0  0.00000000000E+00  0.00000000000E+00 -0.57434076408E+03  0.58778578023E+03  0.12499924061E+03 0.  0.
    9000005    1    3    3    0    0 -0.36752264989E+02 -0.44238734452E+02 -0.17223673377E+03  0.18158823494E+03  0.10000000000E+01 0.  0.
    9000005    1    3    3    0    0  0.36752264989E+02  0.44238734452E+02 -0.40210403031E+03  0.40619754528E+03  0.10000000000E+01 0.  0.
<mgrwt>
<rscale>  0 0.12499924E+03</rscale>
<asrwt>0</asrwt>
<pdfrwt beam="2">  1        4 0.89394310E-01 0.12499924E+03</pdfrwt>
<pdfrwt beam="1">  1       -4 0.10342325E-02 0.12499924E+03</pdfrwt>
<totfact> 0.49648640E+03</totfact>
</mgrwt>
</event>
<event>
 5    1  0.3270363E-002  0.1250082E+03  0.7818608E-02  0.1235056E+00
          4   -1    0    0  501    0  0.00000000000E+00  0.00000000000E+00  0.30095471269E+03  0.30095739231E+03  0.12700000000E+01 0. -1.
         -4   -1    0    0    0  501 -0.00000000000E+00 -0.00000000000E+00 -0.12947423476E+02  0.13009560895E+02  0.12700000000E+01 0. -1.
         25    2    1    2    0    0  0.00000000000E+00  0.00000000000E+00  0.28800728921E+03  0.31396695321E+03  0.12500819601E+03 0.  0.
    9000005    1    3    3    0    0  0.39773574212E+02 -0.44794057395E+02  0.99264008084E+02  0.11594303810E+03  0.10000000000E+01 0.  0.
    9000005    1    3    3    0    0 -0.39773574212E+02  0.44794057395E+02  0.18874328113E+03  0.19802391511E+03  0.10000000000E+01 0.  0.
<mgrwt>
<rscale>  0 0.12500820E+03</rscale>
<asrwt>0</asrwt>
<pdfrwt beam="1">  1        4 0.46305711E-01 0.12500820E+03</pdfrwt>
<pdfrwt beam="2">  1       -4 0.19968972E-02 0.12500820E+03</pdfrwt>
<totfact> 0.73866041E+03</totfact>
</mgrwt>
</event>
<event>
 5    1  0.3270363E-002  0.1250024E+03  0.7818608E-02  0.1235066E+00
         -4   -1    0    0    0  501 -0.00000000000E+00  0.00000000000E+00  0.23489409330E+02  0.23523716769E+02  0.12700000000E+01 0. -1.
          4   -1    0    0  501    0  0.00000000000E+00 -0.00000000000E+00 -0.16614667904E+03  0.16615153281E+03  0.12700000000E+01 0. -1.
         25    2    1    2    0    0  0.00000000000E+00  0.00000000000E+00 -0.14265726971E+03  0.18967524958E+03  0.12500241479E+03 0.  0.
    9000005    1    3    3    0    0  0.34869137168E+02 -0.26836682058E+02 -0.13866539984E+03  0.14548249841E+03  0.10000000000E+01 0.  0.
    9000005    1    3    3    0    0 -0.34869137168E+02  0.26836682058E+02 -0.39918698649E+01  0.44192751167E+02  0.10000000000E+01 0.  0.
<mgrwt>
<rscale>  0 0.12500241E+03</rscale>
<asrwt>0</asrwt>
<pdfrwt beam="2">  1        4 0.25564039E-01 0.12500241E+03</pdfrwt>
<pdfrwt beam="1">  1       -4 0.36167678E-02 0.12500241E+03</pdfrwt>
<totfact> 0.91898880E+03</totfact>
</mgrwt>
</event>
<event>
 5    1  0.3270363E-002  0.1249996E+03  0.7818608E-02  0.1235070E+00
         -4   -1    0    0    0  501 -0.00000000000E+00  0.00000000000E+00  0.16860227524E+03  0.16860705832E+03  0.12700000000E+01 0.  1.
          4   -1    0    0  501    0  0.00000000000E+00 -0.00000000000E+00 -0.23145745235E+02  0.23180561306E+02  0.12700000000E+01 0.  1.
         25    2    1    2    0    0  0.00000000000E+00  0.00000000000E+00  0.14545653000E+03  0.19178761963E+03  0.12499955568E+03 0.  0.
    9000005    1    3    3    0    0 -0.37184459943E+02  0.33130431559E+02  0.13064528717E+03  0.13981952874E+03  0.10000000000E+01 0.  0.
    9000005    1    3    3    0    0  0.37184459943E+02 -0.33130431559E+02  0.14811242835E+02  0.51968090891E+02  0.10000000000E+01 0.  0.
<mgrwt>
<rscale>  0 0.12499956E+03</rscale>
<asrwt>0</asrwt>
<pdfrwt beam="2">  1        4 0.35639300E-02 0.12499956E+03</pdfrwt>
<pdfrwt beam="1">  1       -4 0.25941857E-01 0.12499956E+03</pdfrwt>
<totfact> 0.91538113E+03</totfact>
</mgrwt>
</event>
<event>
 5    1  0.3270363E-002  0.1249940E+03  0.7818608E-02  0.1235079E+00
          4   -1    0    0  501    0  0.00000000000E+00  0.00000000000E+00  0.37048230750E+02  0.37069991931E+02  0.12700000000E+01 0. -1.
         -4   -1    0    0    0  501 -0.00000000000E+00 -0.00000000000E+00 -0.10537017292E+03  0.10537782613E+03  0.12700000000E+01 0. -1.
         25    2    1    2    0    0  0.00000000000E+00  0.00000000000E+00 -0.68321942166E+02  0.14244781806E+03  0.12499397221E+03 0.  0.
    9000005    1    3    3    0    0  0.43407698200E+02 -0.44724678907E+02 -0.29020194532E+02  0.68758249375E+02  0.10000000000E+01 0.  0.
    9000005    1    3    3    0    0 -0.43407698200E+02  0.44724678907E+02 -0.39301747634E+02  0.73689568689E+02  0.10000000000E+01 0.  0.
<mgrwt>
<rscale>  0 0.12499397E+03</rscale>
<asrwt>0</asrwt>
<pdfrwt beam="1">  1        4 0.57019905E-02 0.12499397E+03</pdfrwt>
<pdfrwt beam="2">  1       -4 0.16213058E-01 0.12499397E+03</pdfrwt>
<totfact> 0.10084472E+04</totfact>
</mgrwt>
</event>
<event>
 5    1  0.3270363E-002  0.1249999E+03  0.7818608E-02  0.1235070E+00
          4   -1    0    0  501    0  0.00000000000E+00  0.00000000000E+00  0.44411943369E+03  0.44412124952E+03  0.12700000000E+01 0. -1.
         -4   -1    0    0    0  501 -0.00000000000E+00 -0.00000000000E+00 -0.87477855549E+01  0.88394938834E+01  0.12700000000E+01 0. -1.
         25    2    1    2    0    0  0.00000000000E+00  0.00000000000E+00  0.43537164813E+03  0.45296074341E+03  0.12499985228E+03 0.  0.
    9000005    1    3    3    0    0 -0.52733718269E+02  0.30749903963E+02  0.26614570481E+03  0.27305848792E+03  0.10000000000E+01 0.  0.
    9000005    1    3    3    0    0  0.52733718269E+02 -0.30749903963E+02  0.16922594332E+03  0.17990225548E+03  0.10000000000E+01 0.  0.
<mgrwt>
<rscale>  0 0.12499985E+03</rscale>
<asrwt>0</asrwt>
<pdfrwt beam="1">  1        4 0.68333249E-01 0.12499985E+03</pdfrwt>
<pdfrwt beam="2">  1       -4 0.13530076E-02 0.12499985E+03</pdfrwt>
<totfact> 0.59708360E+03</totfact>
</mgrwt>
</event>
<event>
 5    1  0.3270363E-002  0.1249999E+03  0.7818608E-02  0.1235070E+00
          4   -1    0    0  501    0  0.00000000000E+00  0.00000000000E+00  0.17170979680E+03  0.17171449332E+03  0.12700000000E+01 0.  1.
         -4   -1    0    0    0  501 -0.00000000000E+00 -0.00000000000E+00 -0.22726350340E+02  0.22761807920E+02  0.12700000000E+01 0.  1.
         25    2    1    2    0    0  0.00000000000E+00  0.00000000000E+00  0.14898344646E+03  0.19447630124E+03  0.12499985770E+03 0.  0.
    9000005    1    3    3    0    0  0.27941131477E+02 -0.54500536853E+02  0.55170455061E+02  0.82436608720E+02  0.10000000000E+01 0.  0.
    9000005    1    3    3    0    0 -0.27941131477E+02  0.54500536853E+02  0.93812991394E+02  0.11203969252E+03  0.10000000000E+01 0.  0.
<mgrwt>
<rscale>  0 0.12499986E+03</rscale>
<asrwt>0</asrwt>
<pdfrwt beam="1">  1        4 0.26419980E-01 0.12499986E+03</pdfrwt>
<pdfrwt beam="2">  1       -4 0.34994504E-02 0.12499986E+03</pdfrwt>
<totfact> 0.91074524E+03</totfact>
</mgrwt>
</event>
<event>
 5    1  0.3270363E-002  0.1249919E+03  0.7818608E-02  0.1235082E+00
         -4   -1    0    0    0  501 -0.00000000000E+00  0.00000000000E+00  0.97549711577E+02  0.97557978294E+02  0.12700000000E+01 0.  1.
          4   -1    0    0  501    0  0.00000000000E+00 -0.00000000000E+00 -0.40018486498E+02  0.40038633363E+02  0.12700000000E+01 0.  1.
         25    2    1    2    0    0  0.00000000000E+00  0.00000000000E+00  0.57531225079E+02  0.13759661166E+03  0.12499194246E+03 0.  0.
    9000005    1    3    3    0    0 -0.48431058539E+02 -0.10659720385E+02 -0.13088889904E+02  0.51298305126E+02  0.10000000000E+01 0.  0.
    9000005    1    3    3    0    0  0.48431058539E+02  0.10659720385E+02  0.70620114983E+02  0.86298306531E+02  0.10000000000E+01 0.  0.
<mgrwt>
<rscale>  0 0.12499194E+03</rscale>
<asrwt>0</asrwt>
<pdfrwt beam="2">  1        4 0.61588759E-02 0.12499194E+03</pdfrwt>
<pdfrwt beam="1">  1       -4 0.15009834E-01 0.12499194E+03</pdfrwt>
<totfact> 0.10185476E+04</totfact>
</mgrwt>
</event>
<event>
 5    1  0.3270363E-002  0.1250009E+03  0.7818608E-02  0.1235068E+00
          4   -1    0    0  501    0  0.00000000000E+00  0.00000000000E+00  0.29408095638E+02  0.29435505585E+02  0.12700000000E+01 0.  1.
         -4   -1    0    0    0  501 -0.00000000000E+00 -0.00000000000E+00 -0.13273871327E+03  0.13274478860E+03  0.12700000000E+01 0.  1.
         25    2    1    2    0    0  0.00000000000E+00  0.00000000000E+00 -0.10333061763E+03  0.16218029418E+03  0.12500092512E+03 0.  0.
    9000005    1    3    3    0    0 -0.76362899497E+01 -0.62023316728E+02 -0.51248757593E+02  0.80824748048E+02  0.10000000000E+01 0.  0.
    9000005    1    3    3    0    0  0.76362899497E+01  0.62023316728E+02 -0.52081860038E+02  0.81355546137E+02  0.10000000000E+01 0.  0.
<mgrwt>
<rscale>  0 0.12500093E+03</rscale>
<asrwt>0</asrwt>
<pdfrwt beam="1">  1        4 0.45268983E-02 0.12500093E+03</pdfrwt>
<pdfrwt beam="2">  1       -4 0.20423916E-01 0.12500093E+03</pdfrwt>
<totfact> 0.96922066E+03</totfact>
</mgrwt>
</event>
<event>
 5    1  0.3270363E-002  0.1250016E+03  0.7818608E-02  0.1235067E+00
         -4   -1    0    0    0  501 -0.00000000000E+00  0.00000000000E+00  0.24126601304E+03  0.24126935559E+03  0.12700000000E+01 0. -1.
          4   -1    0    0  501    0  0.00000000000E+00 -0.00000000000E+00 -0.16162672686E+02  0.16212491738E+02  0.12700000000E+01 0. -1.
         25    2    1    2    0    0  0.00000000000E+00  0.00000000000E+00  0.22510334035E+03  0.25748184733E+03  0.12500155145E+03 0.  0.
    9000005    1    3    3    0    0 -0.48351661558E+01  0.37310244689E+02  0.97681784994E+01  0.38882521802E+02  0.10000000000E+01 0.  0.
    9000005    1    3    3    0    0  0.48351661558E+01 -0.37310244689E+02  0.21533516185E+03  0.21859932552E+03  0.10000000000E+01 0.  0.
<mgrwt>
<rscale>  0 0.12500155E+03</rscale>
<asrwt>0</asrwt>
<pdfrwt beam="2">  1        4 0.24906547E-02 0.12500155E+03</pdfrwt>
<pdfrwt beam="1">  1       -4 0.37121933E-01 0.12500155E+03</pdfrwt>
<totfact> 0.81257947E+03</totfact>
</mgrwt>
</event>
<event>
 5    1  0.3270363E-002  0.1250065E+03  0.7818608E-02  0.1235059E+00
         -4   -1    0    0    0  501 -0.00000000000E+00  0.00000000000E+00  0.75226262024E+03  0.75226369227E+03  0.12700000000E+01 0.  1.
          4   -1    0    0  501    0  0.00000000000E+00 -0.00000000000E+00 -0.51144728403E+01  0.52697943446E+01  0.12700000000E+01 0.  1.
         25    2    1    2    0    0  0.00000000000E+00  0.00000000000E+00  0.74714814740E+03  0.75753348662E+03  0.12500651656E+03 0.  0.
    9000005    1    3    3    0    0  0.30248848945E+02  0.50194997588E+02  0.50510807089E+03  0.50849748664E+03  0.10000000000E+01 0.  0.
    9000005    1    3    3    0    0 -0.30248848945E+02 -0.50194997588E+02  0.24204007651E+03  0.24903599998E+03  0.10000000000E+01 0.  0.
<mgrwt>
<rscale>  0 0.12500652E+03</rscale>
<asrwt>0</asrwt>
<pdfrwt beam="2">  1        4 0.79887203E-03 0.12500652E+03</pdfrwt>
<pdfrwt beam="1">  1       -4 0.11574477E+00 0.12500652E+03</pdfrwt>
<totfact> 0.40210639E+03</totfact>
</mgrwt>
</event>
<event>
 5    1  0.3270363E-002  0.1250001E+03  0.7818608E-02  0.1235069E+00
         -4   -1    0    0    0  501 -0.00000000000E+00  0.00000000000E+00  0.93833774353E+02  0.93842368413E+02  0.12700000000E+01 0.  1.
          4   -1    0    0  501    0  0.00000000000E+00 -0.00000000000E+00 -0.41609374688E+02  0.41628751626E+02  0.12700000000E+01 0.  1.
         25    2    1    2    0    0  0.00000000000E+00  0.00000000000E+00  0.52224399665E+02  0.13547112004E+03  0.12500014578E+03 0.  0.
    9000005    1    3    3    0    0 -0.25519392795E+02 -0.53523737429E+02  0.47306624990E+01  0.59492932729E+02  0.10000000000E+01 0.  0.
    9000005    1    3    3    0    0  0.25519392795E+02  0.53523737429E+02  0.47493737166E+02  0.75978187310E+02  0.10000000000E+01 0.  0.
<mgrwt>
<rscale>  0 0.12500015E+03</rscale>
<asrwt>0</asrwt>
<pdfrwt beam="2">  1        4 0.64035939E-02 0.12500015E+03</pdfrwt>
<pdfrwt beam="1">  1       -4 0.14438117E-01 0.12500015E+03</pdfrwt>
<totfact> 0.10228117E+04</totfact>
</mgrwt>
</event>
<event>
 5    1  0.3270363E-002  0.1249986E+03  0.7818608E-02  0.1235072E+00
         -4   -1    0    0    0  501 -0.00000000000E+00  0.00000000000E+00  0.41947236263E+03  0.41947428516E+03  0.12700000000E+01 0.  1.
          4   -1    0    0  501    0  0.00000000000E+00 -0.00000000000E+00 -0.92668266153E+01  0.93534472532E+01  0.12700000000E+01 0.  1.
         25    2    1    2    0    0  0.00000000000E+00  0.00000000000E+00  0.41020553602E+03  0.42882773242E+03  0.12499856923E+03 0.  0.
    9000005    1    3    3    0    0 -0.31761791418E+02  0.45403206717E+02  0.10597518143E+03  0.11959097647E+03  0.10000000000E+01 0.  0.
    9000005    1    3    3    0    0  0.31761791418E+02 -0.45403206717E+02  0.30423035459E+03  0.30923675595E+03  0.10000000000E+01 0.  0.
<mgrwt>
<rscale>  0 0.12499857E+03</rscale>
<asrwt>0</asrwt>
<pdfrwt beam="2">  1        4 0.14324765E-02 0.12499857E+03</pdfrwt>
<pdfrwt beam="1">  1       -4 0.64541029E-01 0.12499857E+03</pdfrwt>
<totfact> 0.61844338E+03</totfact>
</mgrwt>
</event>
<event>
 5    1  0.3270363E-002  0.1249964E+03  0.7818608E-02  0.1235075E+00
         -4   -1    0    0    0  501 -0.00000000000E+00  0.00000000000E+00  0.44014820283E+02  0.44033138709E+02  0.12700000000E+01 0.  1.
          4   -1    0    0  501    0  0.00000000000E+00 -0.00000000000E+00 -0.88702137183E+02  0.88711228380E+02  0.12700000000E+01 0.  1.
         25    2    1    2    0    0  0.00000000000E+00  0.00000000000E+00 -0.44687316899E+02  0.13274436709E+03  0.12499644276E+03 0.  0.
    9000005    1    3    3    0    0 -0.57395985369E+02 -0.21821211882E+02 -0.34662835107E+02  0.70519334669E+02  0.10000000000E+01 0.  0.
    9000005    1    3    3    0    0  0.57395985369E+02  0.21821211882E+02 -0.10024481792E+02  0.62225032420E+02  0.10000000000E+01 0.  0.
<mgrwt>
<rscale>  0 0.12499644E+03</rscale>
<asrwt>0</asrwt>
<pdfrwt beam="2">  1        4 0.13648591E-01 0.12499644E+03</pdfrwt>
<pdfrwt beam="1">  1       -4 0.67736192E-02 0.12499644E+03</pdfrwt>
<totfact> 0.10286661E+04</totfact>
</mgrwt>
</event>
<event>
 5    1  0.3270363E-002  0.1249998E+03  0.7818608E-02  0.1235070E+00
         -4   -1    0    0    0  501 -0.00000000000E+00  0.00000000000E+00  0.33334104517E+02  0.33358288684E+02  0.12700000000E+01 0.  1.
          4   -1    0    0  501    0  0.00000000000E+00 -0.00000000000E+00 -0.11711433106E+03  0.11712121687E+03  0.12700000000E+01 0.  1.
         25    2    1    2    0    0  0.00000000000E+00  0.00000000000E+00 -0.83780226546E+02  0.15047950555E+03  0.12499982092E+03 0.  0.
    9000005    1    3    3    0    0  0.52370983094E+02 -0.14555574731E+02 -0.79007658481E+02  0.95905133985E+02  0.10000000000E+01 0.  0.
    9000005    1    3    3    0    0 -0.52370983094E+02  0.14555574731E+02 -0.47725680652E+01  0.54574371567E+02  0.10000000000E+01 0.  0.
<mgrwt>
<rscale>  0 0.12499982E+03</rscale>
<asrwt>0</asrwt>
<pdfrwt beam="2">  1        4 0.18019979E-01 0.12499982E+03</pdfrwt>
<pdfrwt beam="1">  1       -4 0.51307138E-02 0.12499982E+03</pdfrwt>
<totfact> 0.99208602E+03</totfact>
</mgrwt>
</event>
<event>
 5    1  0.3270363E-002  0.1249998E+03  0.7818608E-02  0.1235070E+00
          4   -1    0    0  501    0  0.00000000000E+00  0.00000000000E+00  0.30334995788E+02  0.30361568956E+02  0.12700000000E+01 0. -1.
         -4   -1    0    0    0  501 -0.00000000000E+00 -0.00000000000E+00 -0.12868401405E+03  0.12869028080E+03  0.12700000000E+01 0. -1.
         25    2    1    2    0    0  0.00000000000E+00  0.00000000000E+00 -0.98349018260E+02  0.15905184975E+03  0.12499984607E+03 0.  0.
    9000005    1    3    3    0    0  0.62270349585E+02 -0.51579381559E+01 -0.47877133619E+02  0.78723698382E+02  0.10000000000E+01 0.  0.
    9000005    1    3    3    0    0 -0.62270349585E+02  0.51579381559E+01 -0.50471884641E+02  0.80328151370E+02  0.10000000000E+01 0.  0.
<mgrwt>
<rscale>  0 0.12499985E+03</rscale>
<asrwt>0</asrwt>
<pdfrwt beam="1">  1        4 0.46694487E-02 0.12499985E+03</pdfrwt>
<pdfrwt beam="2">  1       -4 0.19800066E-01 0.12499985E+03</pdfrwt>
<totfact> 0.97526230E+03</totfact>
</mgrwt>
</event>
<event>
 5    1  0.3270363E-002  0.1250037E+03  0.7818608E-02  0.1235064E+00
          4   -1    0    0  501    0  0.00000000000E+00  0.00000000000E+00  0.10680620137E+03  0.10681375169E+03  0.12700000000E+01 0. -1.
         -4   -1    0    0    0  501 -0.00000000000E+00 -0.00000000000E+00 -0.36555539451E+02  0.36577593751E+02  0.12700000000E+01 0. -1.
         25    2    1    2    0    0  0.00000000000E+00  0.00000000000E+00  0.70250661914E+02  0.14339134544E+03  0.12500368974E+03 0.  0.
    9000005    1    3    3    0    0 -0.20504164936E+02 -0.33826386853E+02 -0.20373718424E+02  0.44505433709E+02  0.10000000000E+01 0.  0.
    9000005    1    3    3    0    0  0.20504164936E+02  0.33826386853E+02  0.90624380338E+02  0.98885911731E+02  0.10000000000E+01 0.  0.
<mgrwt>
<rscale>  0 0.12500369E+03</rscale>
<asrwt>0</asrwt>
<pdfrwt beam="1">  1        4 0.16434001E-01 0.12500369E+03</pdfrwt>
<pdfrwt beam="2">  1       -4 0.56262064E-02 0.12500369E+03</pdfrwt>
<totfact> 0.10062939E+04</totfact>
</mgrwt>
</event>
<event>
 5    1  0.3270363E-002  0.1249991E+03  0.7818608E-02  0.1235071E+00
         -4   -1    0    0    0  501 -0.00000000000E+00  0.00000000000E+00  0.33255942656E+03  0.33256185153E+03  0.12700000000E+01 0. -1.
          4   -1    0    0  501    0  0.00000000000E+00 -0.00000000000E+00 -0.11709054916E+02  0.11777727583E+02  0.12700000000E+01 0. -1.
         25    2    1    2    0    0  0.00000000000E+00  0.00000000000E+00  0.32085037164E+03  0.34433957912E+03  0.12499913904E+03 0.  0.
    9000005    1    3    3    0    0  0.53403383478E+02 -0.17474430731E+02  0.85088374772E+02  0.10197209725E+03  0.10000000000E+01 0.  0.
    9000005    1    3    3    0    0 -0.53403383478E+02  0.17474430731E+02  0.23576199687E+03  0.24236748187E+03  0.10000000000E+01 0.  0.
<mgrwt>
<rscale>  0 0.12499914E+03</rscale>
<asrwt>0</asrwt>
<pdfrwt beam="2">  1        4 0.18068623E-02 0.12499914E+03</pdfrwt>
<pdfrwt beam="1">  1       -4 0.51168454E-01 0.12499914E+03</pdfrwt>
<totfact> 0.70353135E+03</totfact>
</mgrwt>
</event>
<event>
 5    1  0.3270363E-002  0.1249995E+03  0.7818608E-02  0.1235070E+00
         -4   -1    0    0    0  501 -0.00000000000E+00  0.00000000000E+00  0.24837825589E+03  0.24838150274E+03  0.12700000000E+01 0. -1.
          4   -1    0    0  501    0  0.00000000000E+00 -0.00000000000E+00 -0.15697905263E+02  0.15749194571E+02  0.12700000000E+01 0. -1.
         25    2    1    2    0    0  0.00000000000E+00  0.00000000000E+00  0.23268035063E+03  0.26413069731E+03  0.12499951876E+03 0.  0.
    9000005    1    3    3    0    0 -0.16892157006E+02 -0.58558291345E+02  0.14552797747E+03  0.15777772555E+03  0.10000000000E+01 0.  0.
    9000005    1    3    3    0    0  0.16892157006E+02  0.58558291345E+02  0.87152373159E+02  0.10635297175E+03  0.10000000000E+01 0.  0.
<mgrwt>
<rscale>  0 0.12499952E+03</rscale>
<asrwt>0</asrwt>
<pdfrwt beam="2">  1        4 0.24192575E-02 0.12499952E+03</pdfrwt>
<pdfrwt beam="1">  1       -4 0.38216233E-01 0.12499952E+03</pdfrwt>
<totfact> 0.80330709E+03</totfact>
</mgrwt>
</event>
<event>
 5    1  0.3270363E-002  0.1250314E+03  0.7818608E-02  0.1235020E+00
          4   -1    0    0  501    0  0.00000000000E+00  0.00000000000E+00  0.74650019527E+02  0.74660821823E+02  0.12700000000E+01 0.  1.
         -4   -1    0    0    0  501 -0.00000000000E+00 -0.00000000000E+00 -0.52331541429E+02  0.52346949561E+02  0.12700000000E+01 0.  1.
         25    2    1    2    0    0  0.00000000000E+00  0.00000000000E+00  0.22318478097E+02  0.12700777138E+03  0.12503143416E+03 0.  0.
    9000005    1    3    3    0    0 -0.56259555766E+02  0.48153836824E+00  0.38826603008E+02  0.68365741387E+02  0.10000000000E+01 0.  0.
    9000005    1    3    3    0    0  0.56259555766E+02 -0.48153836824E+00 -0.16508124911E+02  0.58642029998E+02  0.10000000000E+01 0.  0.
<mgrwt>
<rscale>  0 0.12503143E+03</rscale>
<asrwt>0</asrwt>
<pdfrwt beam="1">  1        4 0.11486635E-01 0.12503143E+03</pdfrwt>
<pdfrwt beam="2">  1       -4 0.80530226E-02 0.12503143E+03</pdfrwt>
<totfact> 0.10401594E+04</totfact>
</mgrwt>
</event>
<event>
 5    1  0.3270363E-002  0.1249973E+03  0.7818608E-02  0.1235074E+00
          4   -1    0    0  501    0  0.00000000000E+00  0.00000000000E+00  0.98909982558E+02  0.98918135595E+02  0.12700000000E+01 0.  1.
         -4   -1    0    0    0  501 -0.00000000000E+00 -0.00000000000E+00 -0.39471271272E+02  0.39491697303E+02  0.12700000000E+01 0.  1.
         25    2    1    2    0    0  0.00000000000E+00  0.00000000000E+00  0.59438711285E+02  0.13840983290E+03  0.12499728574E+03 0.  0.
    9000005    1    3    3    0    0 -0.37326907204E+02 -0.76924606311E+01  0.84557211816E+02  0.92754482490E+02  0.10000000000E+01 0.  0.
    9000005    1    3    3    0    0  0.37326907204E+02  0.76924606311E+01 -0.25118500530E+02  0.45655350408E+02  0.10000000000E+01 0.  0.
<mgrwt>
<rscale>  0 0.12499729E+03</rscale>
<asrwt>0</asrwt>
<pdfrwt beam="1">  1        4 0.15219119E-01 0.12499729E+03</pdfrwt>
<pdfrwt beam="2">  1       -4 0.60747017E-02 0.12499729E+03</pdfrwt>
<totfact> 0.10167271E+04</totfact>
</mgrwt>
</event>
<event>
 5    1  0.3270363E-002  0.1250007E+03  0.7818608E-02  0.1235068E+00
          4   -1    0    0  501    0  0.00000000000E+00  0.00000000000E+00  0.16243053496E+03  0.16243549978E+03  0.12700000000E+01 0. -1.
         -4   -1    0    0    0  501 -0.00000000000E+00 -0.00000000000E+00 -0.24026890958E+02  0.24060432023E+02  0.12700000000E+01 0. -1.
         25    2    1    2    0    0  0.00000000000E+00  0.00000000000E+00  0.13840364401E+03  0.18649593180E+03  0.12500065562E+03 0.  0.
    9000005    1    3    3    0    0 -0.41425896141E+02  0.41996694821E+02  0.99976133326E+02  0.11608640955E+03  0.10000000000E+01 0.  0.
    9000005    1    3    3    0    0  0.41425896141E+02 -0.41996694821E+02  0.38427510680E+02  0.70409522254E+02  0.10000000000E+01 0.  0.
<mgrwt>
<rscale>  0 0.12500066E+03</rscale>
<asrwt>0</asrwt>
<pdfrwt beam="1">  1        4 0.24992275E-01 0.12500066E+03</pdfrwt>
<pdfrwt beam="2">  1       -4 0.36994067E-02 0.12500066E+03</pdfrwt>
<totfact> 0.92459252E+03</totfact>
</mgrwt>
</event>
<event>
 5    1  0.3270363E-002  0.1249958E+03  0.7818608E-02  0.1235076E+00
         -4   -1    0    0    0  501 -0.00000000000E+00  0.00000000000E+00  0.71458601888E+02  0.71469886552E+02  0.12700000000E+01 0. -1.
          4   -1    0    0  501    0  0.00000000000E+00 -0.00000000000E+00 -0.54637861977E+02  0.54652619895E+02  0.12700000000E+01 0. -1.
         25    2    1    2    0    0  0.00000000000E+00  0.00000000000E+00  0.16820739911E+02  0.12612250645E+03  0.12499579730E+03 0.  0.
    9000005    1    3    3    0    0 -0.58602954025E+02  0.18249294505E+02 -0.34275772873E+01  0.61482446734E+02  0.10000000000E+01 0.  0.
    9000005    1    3    3    0    0  0.58602954025E+02 -0.18249294505E+02  0.20248317198E+02  0.64640059713E+02  0.10000000000E+01 0.  0.
<mgrwt>
<rscale>  0 0.12499580E+03</rscale>
<asrwt>0</asrwt>
<pdfrwt beam="2">  1        4 0.84078282E-02 0.12499580E+03</pdfrwt>
<pdfrwt beam="1">  1       -4 0.10995634E-01 0.12499580E+03</pdfrwt>
<totfact> 0.10429263E+04</totfact>
</mgrwt>
</event>
<event>
 5    1  0.3270363E-002  0.1249932E+03  0.7818608E-02  0.1235080E+00
         -4   -1    0    0    0  501 -0.00000000000E+00  0.00000000000E+00  0.39833154661E+02  0.39853395216E+02  0.12700000000E+01 0.  1.
          4   -1    0    0  501    0  0.00000000000E+00 -0.00000000000E+00 -0.98005379508E+02  0.98013607792E+02  0.12700000000E+01 0.  1.
         25    2    1    2    0    0  0.00000000000E+00  0.00000000000E+00 -0.58172224847E+02  0.13786700301E+03  0.12499321091E+03 0.  0.
    9000005    1    3    3    0    0 -0.21764238837E+02  0.51809836560E+02 -0.59230093971E+02  0.81652588988E+02  0.10000000000E+01 0.  0.
    9000005    1    3    3    0    0  0.21764238837E+02 -0.51809836560E+02  0.10578691243E+01  0.56214414020E+02  0.10000000000E+01 0.  0.
<mgrwt>
<rscale>  0 0.12499321E+03</rscale>
<asrwt>0</asrwt>
<pdfrwt beam="2">  1        4 0.15079941E-01 0.12499321E+03</pdfrwt>
<pdfrwt beam="1">  1       -4 0.61303676E-02 0.12499321E+03</pdfrwt>
<totfact> 0.10179543E+04</totfact>
</mgrwt>
</event>
<event>
 5    1  0.3270363E-002  0.1249939E+03  0.7818608E-02  0.1235079E+00
         -4   -1    0    0    0  501 -0.00000000000E+00  0.00000000000E+00  0.11487571715E+03  0.11488273713E+03  0.12700000000E+01 0. -1.
          4   -1    0    0  501    0  0.00000000000E+00 -0.00000000000E+00 -0.33980916204E+02  0.34004640361E+02  0.12700000000E+01 0. -1.
         25    2    1    2    0    0  0.00000000000E+00  0.00000000000E+00  0.80894800942E+02  0.14888737749E+03  0.12499392928E+03 0.  0.
    9000005    1    3    3    0    0  0.16769345288E+02 -0.39500224279E+02  0.94555193913E+02  0.10384201151E+03  0.10000000000E+01 0.  0.
    9000005    1    3    3    0    0 -0.16769345288E+02  0.39500224279E+02 -0.13660392971E+02  0.45045365973E+02  0.10000000000E+01 0.  0.
<mgrwt>
<rscale>  0 0.12499393E+03</rscale>
<asrwt>0</asrwt>
<pdfrwt beam="2">  1        4 0.52301982E-02 0.12499393E+03</pdfrwt>
<pdfrwt beam="1">  1       -4 0.17675552E-01 0.12499393E+03</pdfrwt>
<totfact> 0.99539547E+03</totfact>
</mgrwt>
</event>
<event>
 5    1  0.3270363E-002  0.1250008E+03  0.7818608E-02  0.1235068E+00
          4   -1    0    0  501    0  0.00000000000E+00  0.00000000000E+00  0.36487267232E+02  0.36509362772E+02  0.12700000000E+01 0.  1.
         -4   -1    0    0    0  501 -0.00000000000E+00 -0.00000000000E+00 -0.10700102167E+03  0.10700855825E+03  0.12700000000E+01 0.  1.
         25    2    1    2    0    0  0.00000000000E+00  0.00000000000E+00 -0.70513754442E+02  0.14351792102E+03  0.12500081636E+03 0.  0.
    9000005    1    3    3    0    0 -0.24101388860E+02 -0.22671536942E+02  0.25609762079E+02  0.41853738734E+02  0.10000000000E+01 0.  0.
    9000005    1    3    3    0    0  0.24101388860E+02  0.22671536942E+02 -0.96123516521E+02  0.10166418229E+03  0.10000000000E+01 0.  0.
<mgrwt>
<rscale>  0 0.12500082E+03</rscale>
<asrwt>0</asrwt>
<pdfrwt beam="1">  1        4 0.56157052E-02 0.12500082E+03</pdfrwt>
<pdfrwt beam="2">  1       -4 0.16463975E-01 0.12500082E+03</pdfrwt>
<totfact> 0.10061003E+04</totfact>
</mgrwt>
</event>
<event>
 5    1  0.3270363E-002  0.1249987E+03  0.7818608E-02  0.1235071E+00
          4   -1    0    0  501    0  0.00000000000E+00  0.00000000000E+00  0.20760109180E+02  0.20798919038E+02  0.12700000000E+01 0. -1.
         -4   -1    0    0    0  501 -0.00000000000E+00 -0.00000000000E+00 -0.18794088625E+03  0.18794517718E+03  0.12700000000E+01 0. -1.
         25    2    1    2    0    0  0.00000000000E+00  0.00000000000E+00 -0.16718077707E+03  0.20874409622E+03  0.12499874193E+03 0.  0.
    9000005    1    3    3    0    0 -0.87564500797E+01  0.25120750607E+02  0.10839618534E+02  0.28744127383E+02  0.10000000000E+01 0.  0.
    9000005    1    3    3    0    0  0.87564500797E+01 -0.25120750607E+02 -0.17802039560E+03  0.17999996883E+03  0.10000000000E+01 0.  0.
<mgrwt>
<rscale>  0 0.12499874E+03</rscale>
<asrwt>0</asrwt>
<pdfrwt beam="1">  1        4 0.31971785E-02 0.12499874E+03</pdfrwt>
<pdfrwt beam="2">  1       -4 0.28917297E-01 0.12499874E+03</pdfrwt>
<totfact> 0.88683893E+03</totfact>
</mgrwt>
</event>
<event>
 5    1  0.3270363E-002  0.1250035E+03  0.7818608E-02  0.1235064E+00
          4   -1    0    0  501    0  0.00000000000E+00  0.00000000000E+00  0.68285872507E+02  0.68297681396E+02  0.12700000000E+01 0. -1.
         -4   -1    0    0    0  501 -0.00000000000E+00 -0.00000000000E+00 -0.57183730235E+02  0.57197831284E+02  0.12700000000E+01 0. -1.
         25    2    1    2    0    0  0.00000000000E+00  0.00000000000E+00  0.11102142272E+02  0.12549551268E+03  0.12500346451E+03 0.  0.
    9000005    1    3    3    0    0  0.34658299347E+01 -0.60990444176E+02  0.18779442232E+02  0.63918023346E+02  0.10000000000E+01 0.  0.
    9000005    1    3    3    0    0 -0.34658299347E+01  0.60990444176E+02 -0.76772999597E+01  0.61577489333E+02  0.10000000000E+01 0.  0.
<mgrwt>
<rscale>  0 0.12500346E+03</rscale>
<asrwt>0</asrwt>
<pdfrwt beam="1">  1        4 0.10507512E-01 0.12500346E+03</pdfrwt>
<pdfrwt beam="2">  1       -4 0.87994901E-02 0.12500346E+03</pdfrwt>
<totfact> 0.10441237E+04</totfact>
</mgrwt>
</event>
<event>
 5    1  0.3270363E-002  0.1250032E+03  0.7818608E-02  0.1235064E+00
         -4   -1    0    0    0  501 -0.00000000000E+00  0.00000000000E+00  0.36526270601E+02  0.36548342562E+02  0.12700000000E+01 0. -1.
          4   -1    0    0  501    0  0.00000000000E+00 -0.00000000000E+00 -0.10689083455E+03  0.10689837889E+03  0.12700000000E+01 0. -1.
         25    2    1    2    0    0  0.00000000000E+00  0.00000000000E+00 -0.70364563946E+02  0.14344672146E+03  0.12500316011E+03 0.  0.
    9000005    1    3    3    0    0  0.19833104967E+02 -0.57356642292E+02 -0.18072276390E+02  0.63330432192E+02  0.10000000000E+01 0.  0.
    9000005    1    3    3    0    0 -0.19833104967E+02  0.57356642292E+02 -0.52292287556E+02  0.80116289264E+02  0.10000000000E+01 0.  0.
<mgrwt>
<rscale>  0 0.12500316E+03</rscale>
<asrwt>0</asrwt>
<pdfrwt beam="2">  1        4 0.16447022E-01 0.12500316E+03</pdfrwt>
<pdfrwt beam="1">  1       -4 0.56217045E-02 0.12500316E+03</pdfrwt>
<totfact> 0.10061927E+04</totfact>
</mgrwt>
</event>
<event>
 5    1  0.3270363E-002  0.1250067E+03  0.7818608E-02  0.1235059E+00
         -4   -1    0    0    0  501 -0.00000000000E+00  0.00000000000E+00  0.38981438682E+03  0.38981645562E+03  0.12700000000E+01 0. -1.
          4   -1    0    0  501    0  0.00000000000E+00 -0.00000000000E+00 -0.99795333657E+01  0.10060019195E+02  0.12700000000E+01 0. -1.
         25    2    1    2    0    0  0.00000000000E+00  0.00000000000E+00  0.37983485346E+03  0.39987647482E+03  0.12500671667E+03 0.  0.
    9000005    1    3    3    0    0  0.36364991051E+02 -0.10406041682E+02  0.34905678768E+03  0.35110160823E+03  0.10000000000E+01 0.  0.
    9000005    1    3    3    0    0 -0.36364991051E+02  0.10406041682E+02  0.30778065782E+02  0.48774866590E+02  0.10000000000E+01 0.  0.
<mgrwt>
<rscale>  0 0.12500672E+03</rscale>
<asrwt>0</asrwt>
<pdfrwt beam="2">  1        4 0.15416630E-02 0.12500672E+03</pdfrwt>
<pdfrwt beam="1">  1       -4 0.59977802E-01 0.12500672E+03</pdfrwt>
<totfact> 0.64555225E+03</totfact>
</mgrwt>
</event>
<event>
 5    1  0.3270363E-002  0.1250068E+03  0.7818608E-02  0.1235059E+00
          4   -1    0    0  501    0  0.00000000000E+00  0.00000000000E+00  0.83054427264E+02  0.83064136594E+02  0.12700000000E+01 0. -1.
         -4   -1    0    0    0  501 -0.00000000000E+00 -0.00000000000E+00 -0.47016492132E+02  0.47033641497E+02  0.12700000000E+01 0. -1.
         25    2    1    2    0    0  0.00000000000E+00  0.00000000000E+00  0.36037935132E+02  0.13009777809E+03  0.12500679620E+03 0.  0.
    9000005    1    3    3    0    0 -0.53320724256E+02  0.70196403396E+01 -0.15109796241E+02  0.55872004870E+02  0.10000000000E+01 0.  0.
    9000005    1    3    3    0    0  0.53320724256E+02 -0.70196403396E+01  0.51147731373E+02  0.74225773221E+02  0.10000000000E+01 0.  0.
<mgrwt>
<rscale>  0 0.12500680E+03</rscale>
<asrwt>0</asrwt>
<pdfrwt beam="1">  1        4 0.12779670E-01 0.12500680E+03</pdfrwt>
<pdfrwt beam="2">  1       -4 0.72353726E-02 0.12500680E+03</pdfrwt>
<totfact> 0.10340830E+04</totfact>
</mgrwt>
</event>
<event>
 5    1  0.3270363E-002  0.1249976E+03  0.7818608E-02  0.1235073E+00
          4   -1    0    0  501    0  0.00000000000E+00  0.00000000000E+00  0.39021422682E+03  0.39021629350E+03  0.12700000000E+01 0. -1.
         -4   -1    0    0    0  501 -0.00000000000E+00 -0.00000000000E+00 -0.99677605280E+01  0.10048340656E+02  0.12700000000E+01 0. -1.
         25    2    1    2    0    0  0.00000000000E+00  0.00000000000E+00  0.38024646629E+03  0.40026463416E+03  0.12499760889E+03 0.  0.
    9000005    1    3    3    0    0  0.24486413391E+02  0.56100021447E+02  0.14983380896E+03  0.16185786096E+03  0.10000000000E+01 0.  0.
    9000005    1    3    3    0    0 -0.24486413391E+02 -0.56100021447E+02  0.23041265733E+03  0.23840677319E+03  0.10000000000E+01 0.  0.
<mgrwt>
<rscale>  0 0.12499761E+03</rscale>
<asrwt>0</asrwt>
<pdfrwt beam="1">  1        4 0.60039304E-01 0.12499761E+03</pdfrwt>
<pdfrwt beam="2">  1       -4 0.15398594E-02 0.12499761E+03</pdfrwt>
<totfact> 0.64530471E+03</totfact>
</mgrwt>
</event>
<event>
 5    1  0.3270363E-002  0.1250030E+03  0.7818608E-02  0.1235065E+00
          4   -1    0    0  501    0  0.00000000000E+00  0.00000000000E+00  0.13557529038E+03  0.13558123860E+03  0.12700000000E+01 0. -1.
         -4   -1    0    0    0  501 -0.00000000000E+00 -0.00000000000E+00 -0.28793210761E+02  0.28821205490E+02  0.12700000000E+01 0. -1.
         25    2    1    2    0    0  0.00000000000E+00  0.00000000000E+00  0.10678207962E+03  0.16440244409E+03  0.12500300435E+03 0.  0.
    9000005    1    3    3    0    0  0.21123465442E+02  0.28304336114E+02  0.12119789490E+03  0.12624288480E+03  0.10000000000E+01 0.  0.
    9000005    1    3    3    0    0 -0.21123465442E+02 -0.28304336114E+02 -0.14415815280E+02  0.38159559292E+02  0.10000000000E+01 0.  0.
<mgrwt>
<rscale>  0 0.12500300E+03</rscale>
<asrwt>0</asrwt>
<pdfrwt beam="1">  1        4 0.20860348E-01 0.12500300E+03</pdfrwt>
<pdfrwt beam="2">  1       -4 0.44323357E-02 0.12500300E+03</pdfrwt>
<totfact> 0.96494166E+03</totfact>
</mgrwt>
</event>
<event>
 5    1  0.3270363E-002  0.1249996E+03  0.7818608E-02  0.1235070E+00
         -4   -1    0    0    0  501 -0.00000000000E+00  0.00000000000E+00  0.54617255588E+03  0.54617403242E+03  0.12700000000E+01 0.  1.
          4   -1    0    0  501    0  0.00000000000E+00 -0.00000000000E+00 -0.70941210270E+01  0.72069031592E+01  0.12700000000E+01 0.  1.
         25    2    1    2    0    0  0.00000000000E+00  0.00000000000E+00  0.53907843485E+03  0.55338093558E+03  0.12499960378E+03 0.  0.
    9000005    1    3    3    0    0  0.40226188095E+02  0.47105647939E+02  0.23299598727E+03  0.24109172188E+03  0.10000000000E+01 0.  0.
    9000005    1    3    3    0    0 -0.40226188095E+02 -0.47105647939E+02  0.30608244758E+03  0.31228921370E+03  0.10000000000E+01 0.  0.
<mgrwt>
<rscale>  0 0.12499960E+03</rscale>
<asrwt>0</asrwt>
<pdfrwt beam="2">  1        4 0.11001925E-02 0.12499960E+03</pdfrwt>
<pdfrwt beam="1">  1       -4 0.84035328E-01 0.12499960E+03</pdfrwt>
<totfact> 0.51949541E+03</totfact>
</mgrwt>
</event>
<event>
 5    1  0.3270363E-002  0.1250003E+03  0.7818608E-02  0.1235069E+00
         -4   -1    0    0    0  501 -0.00000000000E+00  0.00000000000E+00  0.14038525258E+02  0.14095853696E+02  0.12700000000E+01 0. -1.
          4   -1    0    0  501    0  0.00000000000E+00 -0.00000000000E+00 -0.27762769123E+03  0.27763059600E+03  0.12700000000E+01 0. -1.
         25    2    1    2    0    0  0.00000000000E+00  0.00000000000E+00 -0.26358916597E+03  0.29172644970E+03  0.12500029215E+03 0.  0.
    9000005    1    3    3    0    0  0.43174570532E+02 -0.37505041508E+02 -0.19058596135E+03  0.19898412083E+03  0.10000000000E+01 0.  0.
    9000005    1    3    3    0    0 -0.43174570532E+02  0.37505041508E+02 -0.73003204620E+02  0.92742328868E+02  0.10000000000E+01 0.  0.
<mgrwt>
<rscale>  0 0.12500029E+03</rscale>
<asrwt>0</asrwt>
<pdfrwt beam="2">  1        4 0.42716582E-01 0.12500029E+03</pdfrwt>
<pdfrwt beam="1">  1       -4 0.21644067E-02 0.12500029E+03</pdfrwt>
<totfact> 0.76648022E+03</totfact>
</mgrwt>
</event>
<event>
 5    1  0.3270363E-002  0.1249936E+03  0.7818608E-02  0.1235079E+00
          4   -1    0    0  501    0  0.00000000000E+00  0.00000000000E+00  0.67614144718E+02  0.67626070904E+02  0.12700000000E+01 0.  1.
         -4   -1    0    0    0  501 -0.00000000000E+00 -0.00000000000E+00 -0.57742797197E+02  0.57756761752E+02  0.12700000000E+01 0.  1.
         25    2    1    2    0    0  0.00000000000E+00  0.00000000000E+00  0.98713475208E+01  0.12538283266E+03  0.12499364473E+03 0.  0.
    9000005    1    3    3    0    0  0.15446963392E+02  0.53099354620E+02  0.34124431300E+02  0.64989437224E+02  0.10000000000E+01 0.  0.
    9000005    1    3    3    0    0 -0.15446963392E+02 -0.53099354620E+02 -0.24253083779E+02  0.60393395433E+02  0.10000000000E+01 0.  0.
<mgrwt>
<rscale>  0 0.12499364E+03</rscale>
<asrwt>0</asrwt>
<pdfrwt beam="1">  1        4 0.10404168E-01 0.12499364E+03</pdfrwt>
<pdfrwt beam="2">  1       -4 0.88854988E-02 0.12499364E+03</pdfrwt>
<totfact> 0.10446044E+04</totfact>
</mgrwt>
</event>
<event>
 5    1  0.3270363E-002  0.1249646E+03  0.7818608E-02  0.1235125E+00
          4   -1    0    0  501    0  0.00000000000E+00  0.00000000000E+00  0.68810456435E+03  0.68810573634E+03  0.12700000000E+01 0.  1.
         -4   -1    0    0    0  501 -0.00000000000E+00 -0.00000000000E+00 -0.56013515652E+01  0.57435215119E+01  0.12700000000E+01 0.  1.
         25    2    1    2    0    0  0.00000000000E+00  0.00000000000E+00  0.68250321279E+03  0.69384925785E+03  0.12496462362E+03 0.  0.
    9000005    1    3    3    0    0 -0.57908969658E+02 -0.22023689780E+02  0.38586015852E+03  0.39080372773E+03  0.10000000000E+01 0.  0.
    9000005    1    3    3    0    0  0.57908969658E+02  0.22023689780E+02  0.29664305427E+03  0.30304553012E+03  0.10000000000E+01 0.  0.
<mgrwt>
<rscale>  0 0.12496462E+03</rscale>
<asrwt>0</asrwt>
<pdfrwt beam="1">  1        4 0.10587324E+00 0.12496462E+03</pdfrwt>
<pdfrwt beam="2">  1       -4 0.87277289E-03 0.12496462E+03</pdfrwt>
<totfact> 0.43447002E+03</totfact>
</mgrwt>
</event>
<event>
 5    1  0.3270363E-002  0.1250004E+03  0.7818608E-02  0.1235069E+00
          4   -1    0    0  501    0  0.00000000000E+00  0.00000000000E+00  0.10833074191E+02  0.10907263471E+02  0.12700000000E+01 0.  1.
         -4   -1    0    0    0  501 -0.00000000000E+00 -0.00000000000E+00 -0.35928189782E+03  0.35928414243E+03  0.12700000000E+01 0.  1.
         25    2    1    2    0    0  0.00000000000E+00  0.00000000000E+00 -0.34844882363E+03  0.37019140590E+03  0.12500037726E+03 0.  0.
    9000005    1    3    3    0    0 -0.97960667265E+01  0.61717298830E+02 -0.17580731789E+03  0.18658563964E+03  0.10000000000E+01 0.  0.
    9000005    1    3    3    0    0  0.97960667265E+01 -0.61717298830E+02 -0.17264150574E+03  0.18360576626E+03  0.10000000000E+01 0.  0.
<mgrwt>
<rscale>  0 0.12500038E+03</rscale>
<asrwt>0</asrwt>
<pdfrwt beam="1">  1        4 0.16725066E-02 0.12500038E+03</pdfrwt>
<pdfrwt beam="2">  1       -4 0.55280009E-01 0.12500038E+03</pdfrwt>
<totfact> 0.67558358E+03</totfact>
</mgrwt>
</event>
<event>
 5    1  0.3270363E-002  0.1250020E+03  0.7818608E-02  0.1235066E+00
          4   -1    0    0  501    0  0.00000000000E+00  0.00000000000E+00  0.37374821147E+03  0.37375036920E+03  0.12700000000E+01 0.  1.
         -4   -1    0    0    0  501 -0.00000000000E+00 -0.00000000000E+00 -0.10411120783E+02  0.10488295189E+02  0.12700000000E+01 0.  1.
         25    2    1    2    0    0  0.00000000000E+00  0.00000000000E+00  0.36333709069E+03  0.38423866439E+03  0.12500203895E+03 0.  0.
    9000005    1    3    3    0    0 -0.18668388263E+02 -0.56252288236E+02  0.24257043737E+03  0.24970832132E+03  0.10000000000E+01 0.  0.
    9000005    1    3    3    0    0  0.18668388263E+02  0.56252288236E+02  0.12076665332E+03  0.13453034307E+03  0.10000000000E+01 0.  0.
<mgrwt>
<rscale>  0 0.12500204E+03</rscale>
<asrwt>0</asrwt>
<pdfrwt beam="1">  1        4 0.57505817E-01 0.12500204E+03</pdfrwt>
<pdfrwt beam="2">  1       -4 0.16078137E-02 0.12500204E+03</pdfrwt>
<totfact> 0.66112165E+03</totfact>
</mgrwt>
</event>
<event>
 5    1  0.3270363E-002  0.1249976E+03  0.7818608E-02  0.1235073E+00
          4   -1    0    0  501    0  0.00000000000E+00  0.00000000000E+00  0.34360404548E+02  0.34383866867E+02  0.12700000000E+01 0. -1.
         -4   -1    0    0    0  501 -0.00000000000E+00 -0.00000000000E+00 -0.11361447091E+03  0.11362156882E+03  0.12700000000E+01 0. -1.
         25    2    1    2    0    0  0.00000000000E+00  0.00000000000E+00 -0.79254066365E+02  0.14800543569E+03  0.12499760781E+03 0.  0.
    9000005    1    3    3    0    0  0.53201142425E+02 -0.32660204194E+02 -0.36267539759E+02  0.72203773679E+02  0.10000000000E+01 0.  0.
    9000005    1    3    3    0    0 -0.53201142425E+02  0.32660204194E+02 -0.42986526605E+02  0.75801662006E+02  0.10000000000E+01 0.  0.
<mgrwt>
<rscale>  0 0.12499761E+03</rscale>
<asrwt>0</asrwt>
<pdfrwt beam="1">  1        4 0.52885669E-02 0.12499761E+03</pdfrwt>
<pdfrwt beam="2">  1       -4 0.17481500E-01 0.12499761E+03</pdfrwt>
<totfact> 0.99708149E+03</totfact>
</mgrwt>
</event>
<event>
 5    1  0.3270363E-002  0.1250151E+03  0.7818608E-02  0.1235046E+00
         -4   -1    0    0    0  501 -0.00000000000E+00  0.00000000000E+00  0.89864729113E+01  0.90757696855E+01  0.12700000000E+01 0. -1.
          4   -1    0    0  501    0  0.00000000000E+00 -0.00000000000E+00 -0.43254669553E+03  0.43254855995E+03  0.12700000000E+01 0. -1.
         25    2    1    2    0    0  0.00000000000E+00  0.00000000000E+00 -0.42356022262E+03  0.44162432963E+03  0.12501514444E+03 0.  0.
    9000005    1    3    3    0    0 -0.49292791509E+02 -0.35622050732E+02 -0.26266462077E+03  0.26961530520E+03  0.10000000000E+01 0.  0.
    9000005    1    3    3    0    0  0.49292791509E+02  0.35622050732E+02 -0.16089560184E+03  0.17200902443E+03  0.10000000000E+01 0.  0.
<mgrwt>
<rscale>  0 0.12501514E+03</rscale>
<asrwt>0</asrwt>
<pdfrwt beam="2">  1        4 0.66552642E-01 0.12501514E+03</pdfrwt>
<pdfrwt beam="1">  1       -4 0.13895470E-02 0.12501514E+03</pdfrwt>
<totfact> 0.60676021E+03</totfact>
</mgrwt>
</event>
<event>
 5    1  0.3270363E-002  0.1250043E+03  0.7818608E-02  0.1235063E+00
         -4   -1    0    0    0  501 -0.00000000000E+00  0.00000000000E+00  0.31776490032E+02  0.31801858731E+02  0.12700000000E+01 0.  1.
          4   -1    0    0  501    0  0.00000000000E+00 -0.00000000000E+00 -0.12285974397E+03  0.12286630778E+03  0.12700000000E+01 0.  1.
         25    2    1    2    0    0  0.00000000000E+00  0.00000000000E+00 -0.91083253939E+02  0.15466816652E+03  0.12500433027E+03 0.  0.
    9000005    1    3    3    0    0  0.37164931668E+02  0.36839006316E+02 -0.32704757838E+01  0.52440828980E+02  0.10000000000E+01 0.  0.
    9000005    1    3    3    0    0 -0.37164931668E+02 -0.36839006316E+02 -0.87812778155E+02  0.10222733754E+03  0.10000000000E+01 0.  0.
<mgrwt>
<rscale>  0 0.12500433E+03</rscale>
<asrwt>0</asrwt>
<pdfrwt beam="2">  1        4 0.18903955E-01 0.12500433E+03</pdfrwt>
<pdfrwt beam="1">  1       -4 0.48911472E-02 0.12500433E+03</pdfrwt>
<totfact> 0.98371101E+03</totfact>
</mgrwt>
</event>
<event>
 5    1  0.3270363E-002  0.1249525E+03  0.7818608E-02  0.1235143E+00
          4   -1    0    0  501    0  0.00000000000E+00  0.00000000000E+00  0.54868417871E+02  0.54883113793E+02  0.12700000000E+01 0. -1.
         -4   -1    0    0    0  501 -0.00000000000E+00 -0.00000000000E+00 -0.71109111142E+02  0.71120451260E+02  0.12700000000E+01 0. -1.
         25    2    1    2    0    0  0.00000000000E+00  0.00000000000E+00 -0.16240693272E+02  0.12600356505E+03  0.12495254414E+03 0.  0.
    9000005    1    3    3    0    0  0.53580043798E+02 -0.80444406057E+01 -0.39474488722E+02  0.67043041234E+02  0.10000000000E+01 0.  0.
    9000005    1    3    3    0    0 -0.53580043798E+02  0.80444406057E+01  0.23233795451E+02  0.58960523819E+02  0.10000000000E+01 0.  0.
<mgrwt>
<rscale>  0 0.12495254E+03</rscale>
<asrwt>0</asrwt>
<pdfrwt beam="1">  1        4 0.84432978E-02 0.12495254E+03</pdfrwt>
<pdfrwt beam="2">  1       -4 0.10941866E-01 0.12495254E+03</pdfrwt>
<totfact> 0.10442057E+04</totfact>
</mgrwt>
</event>
<event>
 5    1  0.3270363E-002  0.1250009E+03  0.7818608E-02  0.1235068E+00
          4   -1    0    0  501    0  0.00000000000E+00  0.00000000000E+00  0.12909361155E+04  0.12909367402E+04  0.12700000000E+01 0.  1.
         -4   -1    0    0    0  501 -0.00000000000E+00 -0.00000000000E+00 -0.28920380188E+01  0.31586047398E+01  0.12700000000E+01 0.  1.
         25    2    1    2    0    0  0.00000000000E+00  0.00000000000E+00  0.12880440775E+04  0.12940953450E+04  0.12500086506E+03 0.  0.
    9000005    1    3    3    0    0 -0.56357182335E+02  0.15282406523E+02  0.87449910606E+03  0.87644701519E+03  0.10000000000E+01 0.  0.
    9000005    1    3    3    0    0  0.56357182335E+02 -0.15282406523E+02  0.41354497146E+03  0.41764832979E+03  0.10000000000E+01 0.  0.
<mgrwt>
<rscale>  0 0.12500087E+03</rscale>
<asrwt>0</asrwt>
<pdfrwt beam="1">  1        4 0.19862632E+00 0.12500087E+03</pdfrwt>
<pdfrwt beam="2">  1       -4 0.46548162E-03 0.12500087E+03</pdfrwt>
<totfact> 0.22367850E+03</totfact>
</mgrwt>
</event>
<event>
 5    1  0.3270363E-002  0.1250018E+03  0.7818608E-02  0.1235066E+00
          4   -1    0    0  501    0  0.00000000000E+00  0.00000000000E+00  0.46249165684E+02  0.46266599469E+02  0.12700000000E+01 0.  1.
         -4   -1    0    0    0  501 -0.00000000000E+00 -0.00000000000E+00 -0.84425286540E+02  0.84434838233E+02  0.12700000000E+01 0.  1.
         25    2    1    2    0    0  0.00000000000E+00  0.00000000000E+00 -0.38176120857E+02  0.13070143770E+03  0.12500179844E+03 0.  0.
    9000005    1    3    3    0    0  0.39722088010E+02  0.47551403941E+02 -0.10569040540E+02  0.62862428450E+02  0.10000000000E+01 0.  0.
    9000005    1    3    3    0    0 -0.39722088010E+02 -0.47551403941E+02 -0.27607080317E+02  0.67839009252E+02  0.10000000000E+01 0.  0.
<mgrwt>
<rscale>  0 0.12500180E+03</rscale>
<asrwt>0</asrwt>
<pdfrwt beam="1">  1        4 0.71173321E-02 0.12500180E+03</pdfrwt>
<pdfrwt beam="2">  1       -4 0.12990581E-01 0.12500180E+03</pdfrwt>
<totfact> 0.10329075E+04</totfact>
</mgrwt>
</event>
<event>
 5    1  0.3270363E-002  0.1249993E+03  0.7818608E-02  0.1235070E+00
          4   -1    0    0  501    0  0.00000000000E+00  0.00000000000E+00  0.67069581877E+02  0.67081604879E+02  0.12700000000E+01 0.  1.
         -4   -1    0    0    0  501 -0.00000000000E+00 -0.00000000000E+00 -0.58216943015E+02  0.58230793864E+02  0.12700000000E+01 0.  1.
         25    2    1    2    0    0  0.00000000000E+00  0.00000000000E+00  0.88526388614E+01  0.12531239874E+03  0.12499931225E+03 0.  0.
    9000005    1    3    3    0    0  0.34131998590E+02  0.51856028219E+02  0.11597278799E+02  0.63162788617E+02  0.10000000000E+01 0.  0.
    9000005    1    3    3    0    0 -0.34131998590E+02 -0.51856028219E+02 -0.27446399373E+01  0.62149610125E+02  0.10000000000E+01 0.  0.
<mgrwt>
<rscale>  0 0.12499931E+03</rscale>
<asrwt>0</asrwt>
<pdfrwt beam="1">  1        4 0.10320388E-01 0.12499931E+03</pdfrwt>
<pdfrwt beam="2">  1       -4 0.89584430E-02 0.12499931E+03</pdfrwt>
<totfact> 0.10446243E+04</totfact>
</mgrwt>
</event>
<event>
 5    1  0.3270363E-002  0.1249988E+03  0.7818608E-02  0.1235071E+00
          4   -1    0    0  501    0  0.00000000000E+00  0.00000000000E+00  0.13825645497E+02  0.13883852974E+02  0.12700000000E+01 0.  1.
         -4   -1    0    0    0  501 -0.00000000000E+00 -0.00000000000E+00 -0.28187810192E+03  0.28188096290E+03  0.12700000000E+01 0.  1.
         25    2    1    2    0    0  0.00000000000E+00  0.00000000000E+00 -0.26805245643E+03  0.29576481587E+03  0.12499882764E+03 0.  0.
    9000005    1    3    3    0    0 -0.36426957809E+02  0.19361490963E+02 -0.24509344165E+03  0.24854292532E+03  0.10000000000E+01 0.  0.
    9000005    1    3    3    0    0  0.36426957809E+02 -0.19361490963E+02 -0.22959014776E+02  0.47221890549E+02  0.10000000000E+01 0.  0.
<mgrwt>
<rscale>  0 0.12499883E+03</rscale>
<asrwt>0</asrwt>
<pdfrwt beam="1">  1        4 0.21317202E-02 0.12499883E+03</pdfrwt>
<pdfrwt beam="2">  1       -4 0.43370555E-01 0.12499883E+03</pdfrwt>
<totfact> 0.76135166E+03</totfact>
</mgrwt>
</event>
<event>
 5    1  0.3270363E-002  0.1250017E+03  0.7818608E-02  0.1235067E+00
          4   -1    0    0  501    0  0.00000000000E+00  0.00000000000E+00  0.19086353730E+02  0.19128559765E+02  0.12700000000E+01 0. -1.
         -4   -1    0    0    0  501 -0.00000000000E+00 -0.00000000000E+00 -0.20439735378E+03  0.20440129925E+03  0.12700000000E+01 0. -1.
         25    2    1    2    0    0  0.00000000000E+00  0.00000000000E+00 -0.18531100005E+03  0.22352985901E+03  0.12500172450E+03 0.  0.
    9000005    1    3    3    0    0 -0.34702854169E+02  0.44105705434E+02 -0.43495659109E+02  0.71010377415E+02  0.10000000000E+01 0.  0.
    9000005    1    3    3    0    0  0.34702854169E+02 -0.44105705434E+02 -0.14181534094E+03  0.15251948160E+03  0.10000000000E+01 0.  0.
<mgrwt>
<rscale>  0 0.12500172E+03</rscale>
<asrwt>0</asrwt>
<pdfrwt beam="1">  1        4 0.29399124E-02 0.12500172E+03</pdfrwt>
<pdfrwt beam="2">  1       -4 0.31449295E-01 0.12500172E+03</pdfrwt>
<totfact> 0.86309536E+03</totfact>
</mgrwt>
</event>
<event>
 5    1  0.3270363E-002  0.1249870E+03  0.7818608E-02  0.1235090E+00
          4   -1    0    0  501    0  0.00000000000E+00  0.00000000000E+00  0.20209346614E+02  0.20249212098E+02  0.12700000000E+01 0.  1.
         -4   -1    0    0    0  501 -0.00000000000E+00 -0.00000000000E+00 -0.19301666103E+03  0.19302083912E+03  0.12700000000E+01 0.  1.
         25    2    1    2    0    0  0.00000000000E+00  0.00000000000E+00 -0.17280731441E+03  0.21327005121E+03  0.12498698665E+03 0.  0.
    9000005    1    3    3    0    0  0.35558605880E+02 -0.23984206761E+01 -0.17398169387E+03  0.17759728792E+03  0.10000000000E+01 0.  0.
    9000005    1    3    3    0    0 -0.35558605880E+02  0.23984206761E+01  0.11743794626E+01  0.35672763293E+02  0.10000000000E+01 0.  0.
<mgrwt>
<rscale>  0 0.12498699E+03</rscale>
<asrwt>0</asrwt>
<pdfrwt beam="1">  1        4 0.31125184E-02 0.12498699E+03</pdfrwt>
<pdfrwt beam="2">  1       -4 0.29698258E-01 0.12498699E+03</pdfrwt>
<totfact> 0.87970192E+03</totfact>
</mgrwt>
</event>
<event>
 5    1  0.3270363E-002  0.1249995E+03  0.7818608E-02  0.1235070E+00
          4   -1    0    0  501    0  0.00000000000E+00  0.00000000000E+00  0.33671638752E+01  0.35987070682E+01  0.12700000000E+01 0. -1.
         -4   -1    0    0    0  501 -0.00000000000E+00 -0.00000000000E+00 -0.11212986253E+04  0.11212993445E+04  0.12700000000E+01 0. -1.
         25    2    1    2    0    0  0.00000000000E+00  0.00000000000E+00 -0.11179314615E+04  0.11248980516E+04  0.12499949601E+03 0.  0.
    9000005    1    3    3    0    0  0.83903284669E+01  0.50489134257E+02 -0.23628773147E+03  0.24176939908E+03  0.10000000000E+01 0.  0.
    9000005    1    3    3    0    0 -0.83903284669E+01 -0.50489134257E+02 -0.88164373000E+03  0.88312865254E+03  0.10000000000E+01 0.  0.
<mgrwt>
<rscale>  0 0.12499950E+03</rscale>
<asrwt>0</asrwt>
<pdfrwt beam="1">  1        4 0.53589244E-03 0.12499950E+03</pdfrwt>
<pdfrwt beam="2">  1       -4 0.17252506E+00 0.12499950E+03</pdfrwt>
<totfact> 0.26766230E+03</totfact>
</mgrwt>
</event>
<event>
 5    1  0.3270363E-002  0.1249903E+03  0.7818608E-02  0.1235084E+00
         -4   -1    0    0    0  501 -0.00000000000E+00  0.00000000000E+00  0.36065609967E+02  0.36087963676E+02  0.12700000000E+01 0.  1.
          4   -1    0    0  501    0  0.00000000000E+00 -0.00000000000E+00 -0.10823309768E+03  0.10824054847E+03  0.12700000000E+01 0.  1.
         25    2    1    2    0    0  0.00000000000E+00  0.00000000000E+00 -0.72167487716E+02  0.14432851215E+03  0.12499029217E+03 0.  0.
    9000005    1    3    3    0    0 -0.15143705191E+02 -0.56370546242E+02 -0.61843864253E+02  0.85044893064E+02  0.10000000000E+01 0.  0.
    9000005    1    3    3    0    0  0.15143705191E+02  0.56370546242E+02 -0.10323623463E+02  0.59283619086E+02  0.10000000000E+01 0.  0.
<mgrwt>
<rscale>  0 0.12499029E+03</rscale>
<asrwt>0</asrwt>
<pdfrwt beam="2">  1        4 0.16653538E-01 0.12499029E+03</pdfrwt>
<pdfrwt beam="1">  1       -4 0.55508481E-02 0.12499029E+03</pdfrwt>
<totfact> 0.10046846E+04</totfact>
</mgrwt>
</event>
<event>
 5    1  0.3270363E-002  0.1250057E+03  0.7818608E-02  0.1235060E+00
         -4   -1    0    0    0  501 -0.00000000000E+00  0.00000000000E+00  0.36366380234E+03  0.36366601991E+03  0.12700000000E+01 0. -1.
          4   -1    0    0  501    0  0.00000000000E+00 -0.00000000000E+00 -0.10702554166E+02  0.10777641935E+02  0.12700000000E+01 0. -1.
         25    2    1    2    0    0  0.00000000000E+00  0.00000000000E+00  0.35296124818E+03  0.37444366184E+03  0.12500565259E+03 0.  0.
    9000005    1    3    3    0    0 -0.56509774734E+02  0.19980737499E+02  0.22947649475E+03  0.23717724628E+03  0.10000000000E+01 0.  0.
    9000005    1    3    3    0    0  0.56509774734E+02 -0.19980737499E+02  0.12348475343E+03  0.13726641556E+03  0.10000000000E+01 0.  0.
<mgrwt>
<rscale>  0 0.12500565E+03</rscale>
<asrwt>0</asrwt>
<pdfrwt beam="2">  1        4 0.16524932E-02 0.12500565E+03</pdfrwt>
<pdfrwt beam="1">  1       -4 0.55954229E-01 0.12500565E+03</pdfrwt>
<totfact> 0.67108205E+03</totfact>
</mgrwt>
</event>
<event>
 5    1  0.3270363E-002  0.1249999E+03  0.7818608E-02  0.1235069E+00
         -4   -1    0    0    0  501 -0.00000000000E+00  0.00000000000E+00  0.18458464873E+03  0.18458901768E+03  0.12700000000E+01 0. -1.
          4   -1    0    0  501    0  0.00000000000E+00 -0.00000000000E+00 -0.21138661113E+02  0.21176777226E+02  0.12700000000E+01 0. -1.
         25    2    1    2    0    0  0.00000000000E+00  0.00000000000E+00  0.16344598762E+03  0.20576579490E+03  0.12499988594E+03 0.  0.
    9000005    1    3    3    0    0 -0.22226740761E+02 -0.17749328923E+01  0.17782168370E+03  0.17921699023E+03  0.10000000000E+01 0.  0.
    9000005    1    3    3    0    0  0.22226740761E+02  0.17749328923E+01 -0.14375696086E+02  0.26548804674E+02  0.10000000000E+01 0.  0.
<mgrwt>
<rscale>  0 0.12499989E+03</rscale>
<asrwt>0</asrwt>
<pdfrwt beam="2">  1        4 0.32553698E-02 0.12499989E+03</pdfrwt>
<pdfrwt beam="1">  1       -4 0.28400907E-01 0.12499989E+03</pdfrwt>
<totfact> 0.89172311E+03</totfact>
</mgrwt>
</event>
<event>
 5    1  0.3270363E-002  0.1249865E+03  0.7818608E-02  0.1235090E+00
          4   -1    0    0  501    0  0.00000000000E+00  0.00000000000E+00  0.18308193212E+03  0.18308633692E+03  0.12700000000E+01 0.  1.
         -4   -1    0    0    0  501 -0.00000000000E+00 -0.00000000000E+00 -0.21307914583E+02  0.21345728469E+02  0.12700000000E+01 0.  1.
         25    2    1    2    0    0  0.00000000000E+00  0.00000000000E+00  0.16177401753E+03  0.20443206539E+03  0.12498654572E+03 0.  0.
    9000005    1    3    3    0    0  0.52319189823E+02  0.26266804097E+02  0.11661599865E+03  0.13048959255E+03  0.10000000000E+01 0.  0.
    9000005    1    3    3    0    0 -0.52319189823E+02 -0.26266804097E+02  0.45158018881E+02  0.73942472846E+02  0.10000000000E+01 0.  0.
<mgrwt>
<rscale>  0 0.12498655E+03</rscale>
<asrwt>0</asrwt>
<pdfrwt beam="1">  1        4 0.28169699E-01 0.12498655E+03</pdfrwt>
<pdfrwt beam="2">  1       -4 0.32813883E-02 0.12498655E+03</pdfrwt>
<totfact> 0.89420255E+03</totfact>
</mgrwt>
</event>
<event>
 5    1  0.3270363E-002  0.1250076E+03  0.7818608E-02  0.1235057E+00
         -4   -1    0    0    0  501 -0.00000000000E+00  0.00000000000E+00  0.98698896287E+01  0.99512622960E+01  0.12700000000E+01 0. -1.
          4   -1    0    0  501    0  0.00000000000E+00 -0.00000000000E+00 -0.39411503023E+03  0.39411707645E+03  0.12700000000E+01 0. -1.
         25    2    1    2    0    0  0.00000000000E+00  0.00000000000E+00 -0.38424514060E+03  0.40406833875E+03  0.12500757699E+03 0.  0.
    9000005    1    3    3    0    0 -0.13671830676E+02 -0.31136435742E+02 -0.22637408368E+02  0.40863783994E+02  0.10000000000E+01 0.  0.
    9000005    1    3    3    0    0  0.13671830676E+02  0.31136435742E+02 -0.36160773223E+03  0.36320455476E+03  0.10000000000E+01 0.  0.
<mgrwt>
<rscale>  0 0.12500758E+03</rscale>
<asrwt>0</asrwt>
<pdfrwt beam="2">  1        4 0.60639486E-01 0.12500758E+03</pdfrwt>
<pdfrwt beam="1">  1       -4 0.15248617E-02 0.12500758E+03</pdfrwt>
<totfact> 0.64148298E+03</totfact>
</mgrwt>
</event>
<event>
 5    1  0.3270363E-002  0.1250109E+03  0.7818608E-02  0.1235052E+00
         -4   -1    0    0    0  501 -0.00000000000E+00  0.00000000000E+00  0.42705092373E+01  0.44553506199E+01  0.12700000000E+01 0.  1.
          4   -1    0    0  501    0  0.00000000000E+00 -0.00000000000E+00 -0.89529829393E+03  0.89529919469E+03  0.12700000000E+01 0.  1.
         25    2    1    2    0    0  0.00000000000E+00  0.00000000000E+00 -0.89102778469E+03  0.89975454531E+03  0.12501091438E+03 0.  0.
    9000005    1    3    3    0    0  0.56737140297E+02 -0.25580976999E+02 -0.40451853792E+03  0.40927953405E+03  0.10000000000E+01 0.  0.
    9000005    1    3    3    0    0 -0.56737140297E+02  0.25580976999E+02 -0.48650924677E+03  0.49047501126E+03  0.10000000000E+01 0.  0.
<mgrwt>
<rscale>  0 0.12501091E+03</rscale>
<asrwt>0</asrwt>
<pdfrwt beam="2">  1        4 0.13775234E+00 0.12501091E+03</pdfrwt>
<pdfrwt beam="1">  1       -4 0.67128999E-03 0.12501091E+03</pdfrwt>
<totfact> 0.34161213E+03</totfact>
</mgrwt>
</event>
<event>
 5    1  0.3270363E-002  0.1250061E+03  0.7818608E-02  0.1235060E+00
         -4   -1    0    0    0  501 -0.00000000000E+00  0.00000000000E+00  0.50791467849E+03  0.50791626626E+03  0.12700000000E+01 0. -1.
          4   -1    0    0  501    0  0.00000000000E+00 -0.00000000000E+00 -0.76374732044E+01  0.77423444090E+01  0.12700000000E+01 0. -1.
         25    2    1    2    0    0  0.00000000000E+00  0.00000000000E+00  0.50027720529E+03  0.51565861067E+03  0.12500608234E+03 0.  0.
    9000005    1    3    3    0    0  0.12491435878E+02 -0.58325029370E+02  0.17321021381E+03  0.18319558725E+03  0.10000000000E+01 0.  0.
    9000005    1    3    3    0    0 -0.12491435878E+02  0.58325029370E+02  0.32706699148E+03  0.33246302342E+03  0.10000000000E+01 0.  0.
<mgrwt>
<rscale>  0 0.12500608E+03</rscale>
<asrwt>0</asrwt>
<pdfrwt beam="2">  1        4 0.11831850E-02 0.12500608E+03</pdfrwt>
<pdfrwt beam="1">  1       -4 0.78148910E-01 0.12500608E+03</pdfrwt>
<totfact> 0.54662285E+03</totfact>
</mgrwt>
</event>
<event>
 5    1  0.3270363E-002  0.1249997E+03  0.7818608E-02  0.1235070E+00
          4   -1    0    0  501    0  0.00000000000E+00  0.00000000000E+00  0.13542726073E+03  0.13543321546E+03  0.12700000000E+01 0. -1.
         -4   -1    0    0    0  501 -0.00000000000E+00 -0.00000000000E+00 -0.28823177558E+02  0.28851143210E+02  0.12700000000E+01 0. -1.
         25    2    1    2    0    0  0.00000000000E+00  0.00000000000E+00  0.10660408318E+03  0.16428435867E+03  0.12499967981E+03 0.  0.
    9000005    1    3    3    0    0  0.42823311408E+02 -0.19534873116E+02 -0.72395024153E+00  0.47084725459E+02  0.10000000000E+01 0.  0.
    9000005    1    3    3    0    0 -0.42823311408E+02  0.19534873116E+02  0.10732803342E+03  0.11719963321E+03  0.10000000000E+01 0.  0.
<mgrwt>
<rscale>  0 0.12499968E+03</rscale>
<asrwt>0</asrwt>
<pdfrwt beam="1">  1        4 0.20837573E-01 0.12499968E+03</pdfrwt>
<pdfrwt beam="2">  1       -4 0.44369443E-02 0.12499968E+03</pdfrwt>
<totfact> 0.96523789E+03</totfact>
</mgrwt>
</event>
<event>
 5    1  0.3270363E-002  0.1250000E+03  0.7818608E-02  0.1235069E+00
          4   -1    0    0  501    0  0.00000000000E+00  0.00000000000E+00  0.89548811872E+02  0.89557817122E+02  0.12700000000E+01 0.  1.
         -4   -1    0    0    0  501 -0.00000000000E+00 -0.00000000000E+00 -0.43601041610E+02  0.43619533807E+02  0.12700000000E+01 0.  1.
         25    2    1    2    0    0  0.00000000000E+00  0.00000000000E+00  0.45947770261E+02  0.13317735093E+03  0.12500003683E+03 0.  0.
    9000005    1    3    3    0    0 -0.17976036094E+02  0.55309776731E+02 -0.13900491273E+01  0.58182828328E+02  0.10000000000E+01 0.  0.
    9000005    1    3    3    0    0  0.17976036094E+02 -0.55309776731E+02  0.47337819389E+02  0.74994522601E+02  0.10000000000E+01 0.  0.
<mgrwt>
<rscale>  0 0.12500004E+03</rscale>
<asrwt>0</asrwt>
<pdfrwt beam="1">  1        4 0.13778855E-01 0.12500004E+03</pdfrwt>
<pdfrwt beam="2">  1       -4 0.67099678E-02 0.12500004E+03</pdfrwt>
<totfact> 0.10276624E+04</totfact>
</mgrwt>
</event>
<event>
 5    1  0.3270363E-002  0.1250135E+03  0.7818608E-02  0.1235048E+00
         -4   -1    0    0    0  501 -0.00000000000E+00  0.00000000000E+00  0.24951918311E+02  0.24984217566E+02  0.12700000000E+01 0. -1.
          4   -1    0    0  501    0  0.00000000000E+00 -0.00000000000E+00 -0.15644869642E+03  0.15645385106E+03  0.12700000000E+01 0. -1.
         25    2    1    2    0    0  0.00000000000E+00  0.00000000000E+00 -0.13149677811E+03  0.18143806863E+03  0.12501347965E+03 0.  0.
    9000005    1    3    3    0    0  0.36660370658E+02 -0.50416364972E+02 -0.72287495536E+02  0.95458235081E+02  0.10000000000E+01 0.  0.
    9000005    1    3    3    0    0 -0.36660370658E+02  0.50416364972E+02 -0.59209282573E+02  0.85979833546E+02  0.10000000000E+01 0.  0.
<mgrwt>
<rscale>  0 0.12501348E+03</rscale>
<asrwt>0</asrwt>
<pdfrwt beam="2">  1        4 0.24071911E-01 0.12501348E+03</pdfrwt>
<pdfrwt beam="1">  1       -4 0.38416378E-02 0.12501348E+03</pdfrwt>
<totfact> 0.93330578E+03</totfact>
</mgrwt>
</event>
<event>
 5    1  0.3270363E-002  0.1250005E+03  0.7818608E-02  0.1235068E+00
         -4   -1    0    0    0  501 -0.00000000000E+00  0.00000000000E+00  0.10124539473E+03  0.10125335972E+03  0.12700000000E+01 0. -1.
          4   -1    0    0  501    0  0.00000000000E+00 -0.00000000000E+00 -0.38562382886E+02  0.38583290086E+02  0.12700000000E+01 0. -1.
         25    2    1    2    0    0  0.00000000000E+00  0.00000000000E+00  0.62683011843E+02  0.13983664980E+03  0.12500051462E+03 0.  0.
    9000005    1    3    3    0    0  0.25022745733E+02  0.48454109380E+02  0.65481558617E+02  0.85221904688E+02  0.10000000000E+01 0.  0.
    9000005    1    3    3    0    0 -0.25022745733E+02 -0.48454109380E+02 -0.27985467742E+01  0.54614745113E+02  0.10000000000E+01 0.  0.
<mgrwt>
<rscale>  0 0.12500051E+03</rscale>
<asrwt>0</asrwt>
<pdfrwt beam="2">  1        4 0.59348954E-02 0.12500051E+03</pdfrwt>
<pdfrwt beam="1">  1       -4 0.15578435E-01 0.12500051E+03</pdfrwt>
<totfact> 0.10136855E+04</totfact>
</mgrwt>
</event>
<event>
 5    1  0.3270363E-002  0.1250008E+03  0.7818608E-02  0.1235068E+00
          4   -1    0    0  501    0  0.00000000000E+00  0.00000000000E+00  0.29261575924E+02  0.29289122990E+02  0.12700000000E+01 0.  1.
         -4   -1    0    0    0  501 -0.00000000000E+00 -0.00000000000E+00 -0.13340247711E+03  0.13340852222E+03  0.12700000000E+01 0.  1.
         25    2    1    2    0    0  0.00000000000E+00  0.00000000000E+00 -0.10414090119E+03  0.16269764521E+03  0.12500078582E+03 0.  0.
    9000005    1    3    3    0    0  0.11993444640E+02 -0.54360533144E+02 -0.89031200765E+02  0.10500697590E+03  0.10000000000E+01 0.  0.
    9000005    1    3    3    0    0 -0.11993444640E+02  0.54360533144E+02 -0.15109700425E+02  0.57690669306E+02  0.10000000000E+01 0.  0.
<mgrwt>
<rscale>  0 0.12500079E+03</rscale>
<asrwt>0</asrwt>
<pdfrwt beam="1">  1        4 0.45043650E-02 0.12500079E+03</pdfrwt>
<pdfrwt beam="2">  1       -4 0.20526042E-01 0.12500079E+03</pdfrwt>
<totfact> 0.96823498E+03</totfact>
</mgrwt>
</event>
<event>
 5    1  0.3270363E-002  0.1250000E+03  0.7818608E-02  0.1235069E+00
         -4   -1    0    0    0  501 -0.00000000000E+00  0.00000000000E+00  0.31548601457E+01  0.34008884926E+01  0.12700000000E+01 0. -1.
          4   -1    0    0  501    0  0.00000000000E+00 -0.00000000000E+00 -0.11914560610E+04  0.11914567378E+04  0.12700000000E+01 0. -1.
         25    2    1    2    0    0  0.00000000000E+00  0.00000000000E+00 -0.11883012008E+04  0.11948576263E+04  0.12500001321E+03 0.  0.
    9000005    1    3    3    0    0  0.46427336866E+02 -0.41643358373E+02 -0.55641559099E+03  0.55990086337E+03  0.10000000000E+01 0.  0.
    9000005    1    3    3    0    0 -0.46427336866E+02  0.41643358373E+02 -0.63188560983E+03  0.63495676295E+03  0.10000000000E+01 0.  0.
<mgrwt>
<rscale>  0 0.12500001E+03</rscale>
<asrwt>0</asrwt>
<pdfrwt beam="2">  1        4 0.18331956E+00 0.12500001E+03</pdfrwt>
<pdfrwt beam="1">  1       -4 0.50434137E-03 0.12500001E+03</pdfrwt>
<totfact> 0.24847797E+03</totfact>
</mgrwt>
</event>
<event>
 5    1  0.3270363E-002  0.1249972E+03  0.7818608E-02  0.1235074E+00
         -4   -1    0    0    0  501 -0.00000000000E+00  0.00000000000E+00  0.15094205200E+03  0.15094739468E+03  0.12700000000E+01 0.  1.
          4   -1    0    0  501    0  0.00000000000E+00 -0.00000000000E+00 -0.25856588665E+02  0.25887759220E+02  0.12700000000E+01 0.  1.
         25    2    1    2    0    0  0.00000000000E+00  0.00000000000E+00  0.12508546333E+03  0.17683515390E+03  0.12499719404E+03 0.  0.
    9000005    1    3    3    0    0  0.38391105207E+01  0.95147149310E+00  0.15077173066E+03  0.15082691681E+03  0.10000000000E+01 0.  0.
    9000005    1    3    3    0    0 -0.38391105207E+01 -0.95147149310E+00 -0.25686267327E+02  0.26008237095E+02  0.10000000000E+01 0.  0.
<mgrwt>
<rscale>  0 0.12499719E+03</rscale>
<asrwt>0</asrwt>
<pdfrwt beam="2">  1        4 0.39807454E-02 0.12499719E+03</pdfrwt>
<pdfrwt beam="1">  1       -4 0.23224663E-01 0.12499719E+03</pdfrwt>
<totfact> 0.94195735E+03</totfact>
</mgrwt>
</event>
<event>
 5    1  0.3270363E-002  0.1250011E+03  0.7818608E-02  0.1235068E+00
          4   -1    0    0  501    0  0.00000000000E+00  0.00000000000E+00  0.68549758749E+03  0.68549876393E+03  0.12700000000E+01 0. -1.
         -4   -1    0    0    0  501 -0.00000000000E+00 -0.00000000000E+00 -0.56265619898E+01  0.57681105940E+01  0.12700000000E+01 0. -1.
         25    2    1    2    0    0  0.00000000000E+00  0.00000000000E+00  0.67987102550E+03  0.69126687453E+03  0.12500112201E+03 0.  0.
    9000005    1    3    3    0    0  0.52357762701E+02 -0.28839949193E+00  0.52859991947E+03  0.53118762537E+03  0.10000000000E+01 0.  0.
    9000005    1    3    3    0    0 -0.52357762701E+02  0.28839949193E+00  0.15127110603E+03  0.16007924915E+03  0.10000000000E+01 0.  0.
<mgrwt>
<rscale>  0 0.12500112E+03</rscale>
<asrwt>0</asrwt>
<pdfrwt beam="1">  1        4 0.10547220E+00 0.12500112E+03</pdfrwt>
<pdfrwt beam="2">  1       -4 0.87660332E-03 0.12500112E+03</pdfrwt>
<totfact> 0.43550637E+03</totfact>
</mgrwt>
</event>
<event>
 5    1  0.3270363E-002  0.1249996E+03  0.7818608E-02  0.1235070E+00
         -4   -1    0    0    0  501 -0.00000000000E+00  0.00000000000E+00  0.10832974614E+03  0.10833719029E+03  0.12700000000E+01 0.  1.
          4   -1    0    0  501    0  0.00000000000E+00 -0.00000000000E+00 -0.36038770922E+02  0.36061141268E+02  0.12700000000E+01 0.  1.
         25    2    1    2    0    0  0.00000000000E+00  0.00000000000E+00  0.72290975222E+02  0.14439833156E+03  0.12499957223E+03 0.  0.
    9000005    1    3    3    0    0  0.45029690766E+02 -0.74901799280E+01  0.85447195904E+02  0.96881366287E+02  0.10000000000E+01 0.  0.
    9000005    1    3    3    0    0 -0.45029690766E+02  0.74901799280E+01 -0.13156220682E+02  0.47516965270E+02  0.10000000000E+01 0.  0.
<mgrwt>
<rscale>  0 0.12499957E+03</rscale>
<asrwt>0</asrwt>
<pdfrwt beam="2">  1        4 0.55467199E-02 0.12499957E+03</pdfrwt>
<pdfrwt beam="1">  1       -4 0.16668408E-01 0.12499957E+03</pdfrwt>
<totfact> 0.10043324E+04</totfact>
</mgrwt>
</event>
<event>
 5    1  0.3270363E-002  0.1250035E+03  0.7818608E-02  0.1235064E+00
          4   -1    0    0  501    0  0.00000000000E+00  0.00000000000E+00  0.11237055870E+02  0.11308595165E+02  0.12700000000E+01 0. -1.
         -4   -1    0    0    0  501 -0.00000000000E+00 -0.00000000000E+00 -0.34646611513E+03  0.34646844277E+03  0.12700000000E+01 0. -1.
         25    2    1    2    0    0  0.00000000000E+00  0.00000000000E+00 -0.33522905926E+03  0.35777703793E+03  0.12500354675E+03 0.  0.
    9000005    1    3    3    0    0 -0.49900880172E+02 -0.25748922670E+02 -0.89108151045E+02  0.10532980321E+03  0.10000000000E+01 0.  0.
    9000005    1    3    3    0    0  0.49900880172E+02  0.25748922670E+02 -0.24612090822E+03  0.25244723473E+03  0.10000000000E+01 0.  0.
<mgrwt>
<rscale>  0 0.12500355E+03</rscale>
<asrwt>0</asrwt>
<pdfrwt beam="1">  1        4 0.17344602E-02 0.12500355E+03</pdfrwt>
<pdfrwt beam="2">  1       -4 0.53308153E-01 0.12500355E+03</pdfrwt>
<totfact> 0.68871976E+03</totfact>
</mgrwt>
</event>
<event>
 4    1  0.3270363E-002  0.1250652E+03  0.7818608E-02  0.1234967E+00
          4   -1    0    0  501    0  0.00000000000E+00  0.00000000000E+00  0.61832903993E+02  0.61845945027E+02  0.12700000000E+01 0.  1.
         -4   -1    0    0    0  501 -0.00000000000E+00 -0.00000000000E+00 -0.63214121594E+02  0.63226877742E+02  0.12700000000E+01 0.  1.
    9000005    1    1    2    0    0  0.53450988507E+02 -0.32187979310E+02 -0.47221849230E+01  0.62580933318E+02  0.10000000000E+01 0.  0.
    9000005    1    1    2    0    0 -0.53450988507E+02  0.32187979310E+02  0.33409673218E+01  0.62491889451E+02  0.10000000000E+01 0.  0.
<mgrwt>
<rscale>  0 0.12506520E+03</rscale>
<asrwt>0</asrwt>
<pdfrwt beam="1">  1        4 0.95147388E-02 0.12506520E+03</pdfrwt>
<pdfrwt beam="2">  1       -4 0.97272339E-02 0.12506520E+03</pdfrwt>
<totfact> 0.10435896E+04</totfact>
</mgrwt>
</event>
<event>
 5    1  0.3270363E-002  0.1250060E+03  0.7818608E-02  0.1235060E+00
         -4   -1    0    0    0  501 -0.00000000000E+00  0.00000000000E+00  0.83968979912E+01  0.84923963564E+01  0.12700000000E+01 0. -1.
          4   -1    0    0  501    0  0.00000000000E+00 -0.00000000000E+00 -0.46251909689E+03  0.46252084049E+03  0.12700000000E+01 0. -1.
         25    2    1    2    0    0  0.00000000000E+00  0.00000000000E+00 -0.45412219890E+03  0.47101323685E+03  0.12500599087E+03 0.  0.
    9000005    1    3    3    0    0 -0.49541105557E+02 -0.30622430564E+02 -0.31245013878E+03  0.31783351556E+03  0.10000000000E+01 0.  0.
    9000005    1    3    3    0    0  0.49541105557E+02  0.30622430564E+02 -0.14167206013E+03  0.15317972129E+03  0.10000000000E+01 0.  0.
<mgrwt>
<rscale>  0 0.12500599E+03</rscale>
<asrwt>0</asrwt>
<pdfrwt beam="2">  1        4 0.71164245E-01 0.12500599E+03</pdfrwt>
<pdfrwt beam="1">  1       -4 0.12993110E-02 0.12500599E+03</pdfrwt>
<totfact> 0.58178016E+03</totfact>
</mgrwt>
</event>
<event>
 5    1  0.3270363E-002  0.1249983E+03  0.7818608E-02  0.1235072E+00
         -4   -1    0    0    0  501 -0.00000000000E+00  0.00000000000E+00  0.20890128416E+03  0.20890514456E+03  0.12700000000E+01 0.  1.
          4   -1    0    0  501    0  0.00000000000E+00 -0.00000000000E+00 -0.18672920920E+02  0.18716059299E+02  0.12700000000E+01 0.  1.
         25    2    1    2    0    0  0.00000000000E+00  0.00000000000E+00  0.19022836324E+03  0.22762120386E+03  0.12499832905E+03 0.  0.
    9000005    1    3    3    0    0  0.32167859414E+01  0.48120125590E+02  0.16748011021E+03  0.17428850081E+03  0.10000000000E+01 0.  0.
    9000005    1    3    3    0    0 -0.32167859414E+01 -0.48120125590E+02  0.22748253029E+02  0.53332703048E+02  0.10000000000E+01 0.  0.
<mgrwt>
<rscale>  0 0.12499833E+03</rscale>
<asrwt>0</asrwt>
<pdfrwt beam="2">  1        4 0.28763723E-02 0.12499833E+03</pdfrwt>
<pdfrwt beam="1">  1       -4 0.32142275E-01 0.12499833E+03</pdfrwt>
<totfact> 0.85679400E+03</totfact>
</mgrwt>
</event>
<event>
 5    1  0.3270363E-002  0.1249997E+03  0.7818608E-02  0.1235070E+00
          4   -1    0    0  501    0  0.00000000000E+00  0.00000000000E+00  0.75595243171E+02  0.75605910418E+02  0.12700000000E+01 0.  1.
         -4   -1    0    0    0  501 -0.00000000000E+00 -0.00000000000E+00 -0.51650865545E+02  0.51666476671E+02  0.12700000000E+01 0.  1.
         25    2    1    2    0    0  0.00000000000E+00  0.00000000000E+00  0.23944377626E+02  0.12727238709E+03  0.12499970918E+03 0.  0.
    9000005    1    3    3    0    0  0.26804303364E+02  0.49169811763E+01 -0.45287139887E+02  0.52863715551E+02  0.10000000000E+01 0.  0.
    9000005    1    3    3    0    0 -0.26804303364E+02 -0.49169811763E+01  0.69231517513E+02  0.74408671537E+02  0.10000000000E+01 0.  0.
<mgrwt>
<rscale>  0 0.12499971E+03</rscale>
<asrwt>0</asrwt>
<pdfrwt beam="1">  1        4 0.11632059E-01 0.12499971E+03</pdfrwt>
<pdfrwt beam="2">  1       -4 0.79483084E-02 0.12499971E+03</pdfrwt>
<totfact> 0.10403302E+04</totfact>
</mgrwt>
</event>
<event>
 5    1  0.3270363E-002  0.1250014E+03  0.7818608E-02  0.1235067E+00
          4   -1    0    0  501    0  0.00000000000E+00  0.00000000000E+00  0.77438506953E+02  0.77448920323E+02  0.12700000000E+01 0.  1.
         -4   -1    0    0    0  501 -0.00000000000E+00 -0.00000000000E+00 -0.50422564048E+02  0.50438555344E+02  0.12700000000E+01 0.  1.
         25    2    1    2    0    0  0.00000000000E+00  0.00000000000E+00  0.27015942905E+02  0.12788747567E+03  0.12500138104E+03 0.  0.
    9000005    1    3    3    0    0 -0.45158469543E+02 -0.34073684111E+02  0.40673485336E+02  0.69682391820E+02  0.10000000000E+01 0.  0.
    9000005    1    3    3    0    0  0.45158469543E+02  0.34073684111E+02 -0.13657542431E+02  0.58205083847E+02  0.10000000000E+01 0.  0.
<mgrwt>
<rscale>  0 0.12500138E+03</rscale>
<asrwt>0</asrwt>
<pdfrwt beam="1">  1        4 0.11915648E-01 0.12500138E+03</pdfrwt>
<pdfrwt beam="2">  1       -4 0.77593486E-02 0.12500138E+03</pdfrwt>
<totfact> 0.10389594E+04</totfact>
</mgrwt>
</event>
<event>
 5    1  0.3270363E-002  0.1250154E+03  0.7818608E-02  0.1235045E+00
          4   -1    0    0  501    0  0.00000000000E+00  0.00000000000E+00  0.56396469290E+02  0.56410767132E+02  0.12700000000E+01 0. -1.
         -4   -1    0    0    0  501 -0.00000000000E+00 -0.00000000000E+00 -0.69252241233E+02  0.69263885364E+02  0.12700000000E+01 0. -1.
         25    2    1    2    0    0  0.00000000000E+00  0.00000000000E+00 -0.12855771943E+02  0.12567465250E+03  0.12501538868E+03 0.  0.
    9000005    1    3    3    0    0  0.49563229721E+02 -0.37242394193E+02 -0.14388114935E+02  0.63651610482E+02  0.10000000000E+01 0.  0.
    9000005    1    3    3    0    0 -0.49563229721E+02  0.37242394193E+02  0.15323429925E+01  0.62023042014E+02  0.10000000000E+01 0.  0.
<mgrwt>
<rscale>  0 0.12501539E+03</rscale>
<asrwt>0</asrwt>
<pdfrwt beam="1">  1        4 0.86783755E-02 0.12501539E+03</pdfrwt>
<pdfrwt beam="2">  1       -4 0.10656186E-01 0.12501539E+03</pdfrwt>
<totfact> 0.10434479E+04</totfact>
</mgrwt>
</event>
<event>
 5    1  0.3270363E-002  0.1250003E+03  0.7818608E-02  0.1235069E+00
          4   -1    0    0  501    0  0.00000000000E+00  0.00000000000E+00  0.94218478988E+01  0.95070562126E+01  0.12700000000E+01 0. -1.
         -4   -1    0    0    0  501 -0.00000000000E+00 -0.00000000000E+00 -0.41264441251E+03  0.41264636686E+03  0.12700000000E+01 0. -1.
         25    2    1    2    0    0  0.00000000000E+00  0.00000000000E+00 -0.40322256462E+03  0.42215342307E+03  0.12500030397E+03 0.  0.
    9000005    1    3    3    0    0 -0.56342466217E+02  0.10321302659E+02 -0.28599218368E+03  0.29167367367E+03  0.10000000000E+01 0.  0.
    9000005    1    3    3    0    0  0.56342466217E+02 -0.10321302659E+02 -0.11723038094E+03  0.13047974940E+03  0.10000000000E+01 0.  0.
<mgrwt>
<rscale>  0 0.12500030E+03</rscale>
<asrwt>0</asrwt>
<pdfrwt beam="1">  1        4 0.14562202E-02 0.12500030E+03</pdfrwt>
<pdfrwt beam="2">  1       -4 0.63490447E-01 0.12500030E+03</pdfrwt>
<totfact> 0.62453320E+03</totfact>
</mgrwt>
</event>
<event>
 5    1  0.3270363E-002  0.1249976E+03  0.7818608E-02  0.1235073E+00
         -4   -1    0    0    0  501 -0.00000000000E+00  0.00000000000E+00  0.68657840683E+01  0.69822554288E+01  0.12700000000E+01 0.  1.
          4   -1    0    0  501    0  0.00000000000E+00 -0.00000000000E+00 -0.56402074541E+03  0.56402217523E+03  0.12700000000E+01 0.  1.
         25    2    1    2    0    0  0.00000000000E+00  0.00000000000E+00 -0.55715496134E+03  0.57100443066E+03  0.12499763552E+03 0.  0.
    9000005    1    3    3    0    0 -0.47264377057E+02  0.31673062145E+02 -0.16051136729E+03  0.17029974525E+03  0.10000000000E+01 0.  0.
    9000005    1    3    3    0    0  0.47264377057E+02 -0.31673062145E+02 -0.39664359405E+03  0.40070468541E+03  0.10000000000E+01 0.  0.
<mgrwt>
<rscale>  0 0.12499764E+03</rscale>
<asrwt>0</asrwt>
<pdfrwt beam="2">  1        4 0.86781456E-01 0.12499764E+03</pdfrwt>
<pdfrwt beam="1">  1       -4 0.10653442E-02 0.12499764E+03</pdfrwt>
<totfact> 0.50753232E+03</totfact>
</mgrwt>
</event>
<event>
 5    1  0.3270363E-002  0.1250002E+03  0.7818608E-02  0.1235069E+00
          4   -1    0    0  501    0  0.00000000000E+00  0.00000000000E+00  0.10676760064E+02  0.10752027970E+02  0.12700000000E+01 0. -1.
         -4   -1    0    0    0  501 -0.00000000000E+00 -0.00000000000E+00 -0.36450466035E+03  0.36450687280E+03  0.12700000000E+01 0. -1.
         25    2    1    2    0    0  0.00000000000E+00  0.00000000000E+00 -0.35382790029E+03  0.37525890077E+03  0.12500023834E+03 0.  0.
    9000005    1    3    3    0    0 -0.24588196646E+02  0.50460833193E+02 -0.25936915282E+03  0.26537564420E+03  0.10000000000E+01 0.  0.
    9000005    1    3    3    0    0  0.24588196646E+02 -0.50460833193E+02 -0.94458747473E+02  0.10988325657E+03  0.10000000000E+01 0.  0.
<mgrwt>
<rscale>  0 0.12500024E+03</rscale>
<asrwt>0</asrwt>
<pdfrwt beam="1">  1        4 0.16485388E-02 0.12500024E+03</pdfrwt>
<pdfrwt beam="2">  1       -4 0.56083591E-01 0.12500024E+03</pdfrwt>
<totfact> 0.67031974E+03</totfact>
</mgrwt>
</event>
<event>
 5    1  0.3270363E-002  0.1250210E+03  0.7818608E-02  0.1235037E+00
          4   -1    0    0  501    0  0.00000000000E+00  0.00000000000E+00  0.28125160366E+01  0.30859595681E+01  0.12700000000E+01 0. -1.
         -4   -1    0    0    0  501 -0.00000000000E+00 -0.00000000000E+00 -0.13246654624E+04  0.13246660712E+04  0.12700000000E+01 0. -1.
         25    2    1    2    0    0  0.00000000000E+00  0.00000000000E+00 -0.13218529464E+04  0.13277520308E+04  0.12502097179E+03 0.  0.
    9000005    1    3    3    0    0 -0.37618275256E+02  0.48383590743E+02 -0.53065884890E+03  0.53418715859E+03  0.10000000000E+01 0.  0.
    9000005    1    3    3    0    0  0.37618275256E+02 -0.48383590743E+02 -0.79119409747E+03  0.79356487218E+03  0.10000000000E+01 0.  0.
<mgrwt>
<rscale>  0 0.12502097E+03</rscale>
<asrwt>0</asrwt>
<pdfrwt beam="1">  1        4 0.45377678E-03 0.12502097E+03</pdfrwt>
<pdfrwt beam="2">  1       -4 0.20381529E+00 0.12502097E+03</pdfrwt>
<totfact> 0.21573047E+03</totfact>
</mgrwt>
</event>
<event>
 5    1  0.3270363E-002  0.1250033E+03  0.7818608E-02  0.1235064E+00
          4   -1    0    0  501    0  0.00000000000E+00  0.00000000000E+00  0.41524656435E+02  0.41544072887E+02  0.12700000000E+01 0. -1.
         -4   -1    0    0    0  501 -0.00000000000E+00 -0.00000000000E+00 -0.94029900951E+02  0.94038477087E+02  0.12700000000E+01 0. -1.
         25    2    1    2    0    0  0.00000000000E+00  0.00000000000E+00 -0.52505244516E+02  0.13558254997E+03  0.12500330858E+03 0.  0.
    9000005    1    3    3    0    0  0.19282927643E+02 -0.27818678637E+02 -0.83231893956E+02  0.89856877039E+02  0.10000000000E+01 0.  0.
    9000005    1    3    3    0    0 -0.19282927643E+02  0.27818678637E+02  0.30726649440E+02  0.45725672936E+02  0.10000000000E+01 0.  0.
<mgrwt>
<rscale>  0 0.12500331E+03</rscale>
<asrwt>0</asrwt>
<pdfrwt beam="1">  1        4 0.63905620E-02 0.12500331E+03</pdfrwt>
<pdfrwt beam="2">  1       -4 0.14468292E-01 0.12500331E+03</pdfrwt>
<totfact> 0.10225044E+04</totfact>
</mgrwt>
</event>
<event>
 5    1  0.3270363E-002  0.1249907E+03  0.7818608E-02  0.1235084E+00
          4   -1    0    0  501    0  0.00000000000E+00  0.00000000000E+00  0.12719023303E+03  0.12719657338E+03  0.12700000000E+01 0.  1.
         -4   -1    0    0    0  501 -0.00000000000E+00 -0.00000000000E+00 -0.30687068425E+02  0.30713336981E+02  0.12700000000E+01 0.  1.
         25    2    1    2    0    0  0.00000000000E+00  0.00000000000E+00  0.96503164607E+02  0.15790991036E+03  0.12499071569E+03 0.  0.
    9000005    1    3    3    0    0 -0.38309134531E+02  0.75789517737E+01  0.10988087913E+03  0.11661834288E+03  0.10000000000E+01 0.  0.
    9000005    1    3    3    0    0  0.38309134531E+02 -0.75789517737E+01 -0.13377714524E+02  0.41291567473E+02  0.10000000000E+01 0.  0.
<mgrwt>
<rscale>  0 0.12499072E+03</rscale>
<asrwt>0</asrwt>
<pdfrwt beam="1">  1        4 0.19570236E-01 0.12499072E+03</pdfrwt>
<pdfrwt beam="2">  1       -4 0.47235959E-02 0.12499072E+03</pdfrwt>
<totfact> 0.97767663E+03</totfact>
</mgrwt>
</event>
<event>
 5    1  0.3270363E-002  0.1249956E+03  0.7818608E-02  0.1235076E+00
          4   -1    0    0  501    0  0.00000000000E+00  0.00000000000E+00  0.16165780196E+02  0.16215589700E+02  0.12700000000E+01 0.  1.
         -4   -1    0    0    0  501 -0.00000000000E+00 -0.00000000000E+00 -0.24119663280E+03  0.24119997631E+03  0.12700000000E+01 0.  1.
         25    2    1    2    0    0  0.00000000000E+00  0.00000000000E+00 -0.22503085260E+03  0.25741556601E+03  0.12499555593E+03 0.  0.
    9000005    1    3    3    0    0 -0.32594375880E+02  0.42640197388E+02 -0.46602070469E+02  0.71086797257E+02  0.10000000000E+01 0.  0.
    9000005    1    3    3    0    0  0.32594375880E+02 -0.42640197388E+02 -0.17842878213E+03  0.18632876875E+03  0.10000000000E+01 0.  0.
<mgrwt>
<rscale>  0 0.12499556E+03</rscale>
<asrwt>0</asrwt>
<pdfrwt beam="1">  1        4 0.24911320E-02 0.12499556E+03</pdfrwt>
<pdfrwt beam="2">  1       -4 0.37111260E-01 0.12499556E+03</pdfrwt>
<totfact> 0.81278165E+03</totfact>
</mgrwt>
</event>
<event>
 5    1  0.3270363E-002  0.1249990E+03  0.7818608E-02  0.1235071E+00
         -4   -1    0    0    0  501 -0.00000000000E+00  0.00000000000E+00  0.14061269959E+03  0.14061843473E+03  0.12700000000E+01 0. -1.
          4   -1    0    0  501    0  0.00000000000E+00 -0.00000000000E+00 -0.27758933643E+02  0.27787970365E+02  0.12700000000E+01 0. -1.
         25    2    1    2    0    0  0.00000000000E+00  0.00000000000E+00  0.11285376595E+03  0.16840640509E+03  0.12499897915E+03 0.  0.
    9000005    1    3    3    0    0 -0.36682188195E+02 -0.48268376311E+02  0.36004986306E+02  0.70517927659E+02  0.10000000000E+01 0.  0.
    9000005    1    3    3    0    0  0.36682188195E+02  0.48268376311E+02  0.76848779639E+02  0.97888477435E+02  0.10000000000E+01 0.  0.
<mgrwt>
<rscale>  0 0.12499898E+03</rscale>
<asrwt>0</asrwt>
<pdfrwt beam="2">  1        4 0.42732800E-02 0.12499898E+03</pdfrwt>
<pdfrwt beam="1">  1       -4 0.21635398E-01 0.12499898E+03</pdfrwt>
<totfact> 0.95748329E+03</totfact>
</mgrwt>
</event>
<event>
 5    1  0.3270363E-002  0.1250011E+03  0.7818608E-02  0.1235068E+00
          4   -1    0    0  501    0  0.00000000000E+00  0.00000000000E+00  0.11951758554E+02  0.12019044577E+02  0.12700000000E+01 0.  1.
         -4   -1    0    0    0  501 -0.00000000000E+00 -0.00000000000E+00 -0.32585457276E+03  0.32585704763E+03  0.12700000000E+01 0.  1.
         25    2    1    2    0    0  0.00000000000E+00  0.00000000000E+00 -0.31390281421E+03  0.33787609221E+03  0.12500110766E+03 0.  0.
    9000005    1    3    3    0    0  0.13515367022E+02  0.39614103677E+02 -0.31520771368E+02  0.52407073792E+02  0.10000000000E+01 0.  0.
    9000005    1    3    3    0    0 -0.13515367022E+02 -0.39614103677E+02 -0.28238204284E+03  0.28546901841E+03  0.10000000000E+01 0.  0.
<mgrwt>
<rscale>  0 0.12500111E+03</rscale>
<asrwt>0</asrwt>
<pdfrwt beam="1">  1        4 0.18440986E-02 0.12500111E+03</pdfrwt>
<pdfrwt beam="2">  1       -4 0.50136832E-01 0.12500111E+03</pdfrwt>
<totfact> 0.71077515E+03</totfact>
</mgrwt>
</event>
<event>
 5    1  0.3270363E-002  0.1249984E+03  0.7818608E-02  0.1235072E+00
          4   -1    0    0  501    0  0.00000000000E+00  0.00000000000E+00  0.51736580317E+03  0.51736736193E+03  0.12700000000E+01 0. -1.
         -4   -1    0    0    0  501 -0.00000000000E+00 -0.00000000000E+00 -0.74950877302E+01  0.76019234463E+01  0.12700000000E+01 0. -1.
         25    2    1    2    0    0  0.00000000000E+00  0.00000000000E+00  0.50987071544E+03  0.52496928537E+03  0.12499841649E+03 0.  0.
    9000005    1    3    3    0    0 -0.15437714713E+02  0.48366496636E+02  0.40795538808E+03  0.41110368485E+03  0.10000000000E+01 0.  0.
    9000005    1    3    3    0    0  0.15437714713E+02 -0.48366496636E+02  0.10191532735E+03  0.11386560052E+03  0.10000000000E+01 0.  0.
<mgrwt>
<rscale>  0 0.12499842E+03</rscale>
<asrwt>0</asrwt>
<pdfrwt beam="1">  1        4 0.79603089E-01 0.12499842E+03</pdfrwt>
<pdfrwt beam="2">  1       -4 0.11614283E-02 0.12499842E+03</pdfrwt>
<totfact> 0.53979670E+03</totfact>
</mgrwt>
</event>
<event>
 5    1  0.3270363E-002  0.1250015E+03  0.7818608E-02  0.1235067E+00
         -4   -1    0    0    0  501 -0.00000000000E+00  0.00000000000E+00  0.15433656421E+04  0.15433661646E+04  0.12700000000E+01 0.  1.
          4   -1    0    0  501    0  0.00000000000E+00 -0.00000000000E+00 -0.23711902635E+01  0.26898779277E+01  0.12700000000E+01 0.  1.
         25    2    1    2    0    0  0.00000000000E+00  0.00000000000E+00  0.15409944518E+04  0.15460560425E+04  0.12500154450E+03 0.  0.
    9000005    1    3    3    0    0 -0.57775137876E+02 -0.22982138454E+02  0.84793627628E+03  0.85021354604E+03  0.10000000000E+01 0.  0.
    9000005    1    3    3    0    0  0.57775137876E+02  0.22982138454E+02  0.69305817553E+03  0.69584249648E+03  0.10000000000E+01 0.  0.
<mgrwt>
<rscale>  0 0.12500154E+03</rscale>
<asrwt>0</asrwt>
<pdfrwt beam="2">  1        4 0.38935263E-03 0.12500154E+03</pdfrwt>
<pdfrwt beam="1">  1       -4 0.23746573E+00 0.12500154E+03</pdfrwt>
<totfact> 0.17042026E+03</totfact>
</mgrwt>
</event>
<event>
 5    1  0.3270363E-002  0.1250011E+03  0.7818608E-02  0.1235068E+00
         -4   -1    0    0    0  501 -0.00000000000E+00  0.00000000000E+00  0.19258886526E+02  0.19300715278E+02  0.12700000000E+01 0. -1.
          4   -1    0    0  501    0  0.00000000000E+00 -0.00000000000E+00 -0.20256819675E+03  0.20257217784E+03  0.12700000000E+01 0. -1.
         25    2    1    2    0    0  0.00000000000E+00  0.00000000000E+00 -0.18330931022E+03  0.22187289312E+03  0.12500110994E+03 0.  0.
    9000005    1    3    3    0    0 -0.30830631231E+02 -0.26673365083E+02 -0.17572373526E+03  0.18039353470E+03  0.10000000000E+01 0.  0.
    9000005    1    3    3    0    0  0.30830631231E+02  0.26673365083E+02 -0.75855749577E+01  0.41479358413E+02  0.10000000000E+01 0.  0.
<mgrwt>
<rscale>  0 0.12500111E+03</rscale>
<asrwt>0</asrwt>
<pdfrwt beam="2">  1        4 0.31167860E-01 0.12500111E+03</pdfrwt>
<pdfrwt beam="1">  1       -4 0.29664296E-02 0.12500111E+03</pdfrwt>
<totfact> 0.86570708E+03</totfact>
</mgrwt>
</event>
<event>
 5    1  0.3270363E-002  0.1250021E+03  0.7818608E-02  0.1235066E+00
         -4   -1    0    0    0  501 -0.00000000000E+00  0.00000000000E+00  0.27406801699E+01  0.30206336742E+01  0.12700000000E+01 0.  1.
          4   -1    0    0  501    0  0.00000000000E+00 -0.00000000000E+00 -0.13557938169E+04  0.13557944117E+04  0.12700000000E+01 0.  1.
         25    2    1    2    0    0  0.00000000000E+00  0.00000000000E+00 -0.13530531367E+04  0.13588150453E+04  0.12500214705E+03 0.  0.
    9000005    1    3    3    0    0 -0.23757841777E+02  0.19378228938E+02 -0.84573929499E+02  0.89964995157E+02  0.10000000000E+01 0.  0.
    9000005    1    3    3    0    0  0.23757841777E+02 -0.19378228938E+02 -0.12684792072E+04  0.12688500502E+04  0.10000000000E+01 0.  0.
<mgrwt>
<rscale>  0 0.12500215E+03</rscale>
<asrwt>0</asrwt>
<pdfrwt beam="2">  1        4 0.20860473E+00 0.12500215E+03</pdfrwt>
<pdfrwt beam="1">  1       -4 0.44322483E-03 0.12500215E+03</pdfrwt>
<totfact> 0.20880490E+03</totfact>
</mgrwt>
</event>
<event>
 5    1  0.3270363E-002  0.1249983E+03  0.7818608E-02  0.1235072E+00
          4   -1    0    0  501    0  0.00000000000E+00  0.00000000000E+00  0.11432170341E+02  0.11502496194E+02  0.12700000000E+01 0. -1.
         -4   -1    0    0    0  501 -0.00000000000E+00 -0.00000000000E+00 -0.34056101264E+03  0.34056338064E+03  0.12700000000E+01 0. -1.
         25    2    1    2    0    0  0.00000000000E+00  0.00000000000E+00 -0.32912884230E+03  0.35206587683E+03  0.12499834717E+03 0.  0.
    9000005    1    3    3    0    0  0.59781776771E+02  0.70520808060E+01 -0.21182516261E+03  0.22021465027E+03  0.10000000000E+01 0.  0.
    9000005    1    3    3    0    0 -0.59781776771E+02 -0.70520808060E+01 -0.11730367969E+03  0.13185122656E+03  0.10000000000E+01 0.  0.
<mgrwt>
<rscale>  0 0.12499835E+03</rscale>
<asrwt>0</asrwt>
<pdfrwt beam="1">  1        4 0.17643875E-02 0.12499835E+03</pdfrwt>
<pdfrwt beam="2">  1       -4 0.52399586E-01 0.12499835E+03</pdfrwt>
<totfact> 0.69500426E+03</totfact>
</mgrwt>
</event>
<event>
 5    1  0.3270363E-002  0.1249935E+03  0.7818608E-02  0.1235079E+00
         -4   -1    0    0    0  501 -0.00000000000E+00  0.00000000000E+00  0.96347851997E+02  0.96356221826E+02  0.12700000000E+01 0.  1.
          4   -1    0    0  501    0  0.00000000000E+00 -0.00000000000E+00 -0.40518909071E+02  0.40538807238E+02  0.12700000000E+01 0.  1.
         25    2    1    2    0    0  0.00000000000E+00  0.00000000000E+00  0.55828942927E+02  0.13689502906E+03  0.12499351229E+03 0.  0.
    9000005    1    3    3    0    0  0.39629013193E+02 -0.48307385524E+02  0.28883194333E+02  0.68842582009E+02  0.10000000000E+01 0.  0.
    9000005    1    3    3    0    0 -0.39629013193E+02  0.48307385524E+02  0.26945748594E+02  0.68052447054E+02  0.10000000000E+01 0.  0.
<mgrwt>
<rscale>  0 0.12499351E+03</rscale>
<asrwt>0</asrwt>
<pdfrwt beam="2">  1        4 0.62358529E-02 0.12499351E+03</pdfrwt>
<pdfrwt beam="1">  1       -4 0.14824921E-01 0.12499351E+03</pdfrwt>
<totfact> 0.10199773E+04</totfact>
</mgrwt>
</event>
<event>
 5    1  0.3270363E-002  0.1249998E+03  0.7818608E-02  0.1235070E+00
         -4   -1    0    0    0  501 -0.00000000000E+00  0.00000000000E+00  0.34867047008E+03  0.34867278300E+03  0.12700000000E+01 0. -1.
          4   -1    0    0  501    0  0.00000000000E+00 -0.00000000000E+00 -0.11164887223E+02  0.11236885988E+02  0.12700000000E+01 0. -1.
         25    2    1    2    0    0  0.00000000000E+00  0.00000000000E+00  0.33750558286E+03  0.35990966899E+03  0.12499980549E+03 0.  0.
    9000005    1    3    3    0    0  0.16681912956E+02  0.33424719549E+02  0.24508537674E+02  0.44689669005E+02  0.10000000000E+01 0.  0.
    9000005    1    3    3    0    0 -0.16681912956E+02 -0.33424719549E+02  0.31299704518E+03  0.31521999998E+03  0.10000000000E+01 0.  0.
<mgrwt>
<rscale>  0 0.12499981E+03</rscale>
<asrwt>0</asrwt>
<pdfrwt beam="2">  1        4 0.17233916E-02 0.12499981E+03</pdfrwt>
<pdfrwt beam="1">  1       -4 0.53647316E-01 0.12499981E+03</pdfrwt>
<totfact> 0.68648256E+03</totfact>
</mgrwt>
</event>
<event>
 5    1  0.3270363E-002  0.1249992E+03  0.7818608E-02  0.1235071E+00
          4   -1    0    0  501    0  0.00000000000E+00  0.00000000000E+00  0.15706996936E+02  0.15758256653E+02  0.12700000000E+01 0.  1.
         -4   -1    0    0    0  501 -0.00000000000E+00 -0.00000000000E+00 -0.24823362097E+03  0.24823686970E+03  0.12700000000E+01 0.  1.
         25    2    1    2    0    0  0.00000000000E+00  0.00000000000E+00 -0.23252662403E+03  0.26399512635E+03  0.12499918342E+03 0.  0.
    9000005    1    3    3    0    0  0.32258715862E+02  0.40143286513E+02 -0.41501469218E+02  0.66147412258E+02  0.10000000000E+01 0.  0.
    9000005    1    3    3    0    0 -0.32258715862E+02 -0.40143286513E+02 -0.19102515481E+03  0.19784771409E+03  0.10000000000E+01 0.  0.
<mgrwt>
<rscale>  0 0.12499918E+03</rscale>
<asrwt>0</asrwt>
<pdfrwt beam="1">  1        4 0.24206542E-02 0.12499918E+03</pdfrwt>
<pdfrwt beam="2">  1       -4 0.38193978E-01 0.12499918E+03</pdfrwt>
<totfact> 0.80350112E+03</totfact>
</mgrwt>
</event>
<event>
 5    1  0.3270363E-002  0.1250078E+03  0.7818608E-02  0.1235057E+00
          4   -1    0    0  501    0  0.00000000000E+00  0.00000000000E+00  0.11330744486E+02  0.11401695953E+02  0.12700000000E+01 0.  1.
         -4   -1    0    0    0  501 -0.00000000000E+00 -0.00000000000E+00 -0.34364256610E+03  0.34364491286E+03  0.12700000000E+01 0.  1.
         25    2    1    2    0    0  0.00000000000E+00  0.00000000000E+00 -0.33231182161E+03  0.35504660881E+03  0.12500779034E+03 0.  0.
    9000005    1    3    3    0    0  0.41872502524E+02  0.37158979285E+02 -0.87259752942E+02  0.10367912371E+03  0.10000000000E+01 0.  0.
    9000005    1    3    3    0    0 -0.41872502524E+02 -0.37158979285E+02 -0.24505206867E+03  0.25136748511E+03  0.10000000000E+01 0.  0.
<mgrwt>
<rscale>  0 0.12500779E+03</rscale>
<asrwt>0</asrwt>
<pdfrwt beam="1">  1        4 0.17488300E-02 0.12500779E+03</pdfrwt>
<pdfrwt beam="2">  1       -4 0.52873717E-01 0.12500779E+03</pdfrwt>
<totfact> 0.69160995E+03</totfact>
</mgrwt>
</event>
<event>
 5    1  0.3270363E-002  0.1250017E+03  0.7818608E-02  0.1235067E+00
         -4   -1    0    0    0  501 -0.00000000000E+00  0.00000000000E+00  0.26213522037E+02  0.26244268662E+02  0.12700000000E+01 0. -1.
          4   -1    0    0  501    0  0.00000000000E+00 -0.00000000000E+00 -0.14889993000E+03  0.14890534595E+03  0.12700000000E+01 0. -1.
         25    2    1    2    0    0  0.00000000000E+00  0.00000000000E+00 -0.12268640796E+03  0.17514961461E+03  0.12500173119E+03 0.  0.
    9000005    1    3    3    0    0  0.37912336384E+02 -0.51248449763E+01 -0.13058106776E+03  0.13607359973E+03  0.10000000000E+01 0.  0.
    9000005    1    3    3    0    0 -0.37912336384E+02  0.51248449763E+01  0.78946597967E+01  0.39076014887E+02  0.10000000000E+01 0.  0.
<mgrwt>
<rscale>  0 0.12500173E+03</rscale>
<asrwt>0</asrwt>
<pdfrwt beam="2">  1        4 0.22910463E-01 0.12500173E+03</pdfrwt>
<pdfrwt beam="1">  1       -4 0.40356314E-02 0.12500173E+03</pdfrwt>
<totfact> 0.94493776E+03</totfact>
</mgrwt>
</event>
<event>
 5    1  0.3270363E-002  0.1249986E+03  0.7818608E-02  0.1235071E+00
          4   -1    0    0  501    0  0.00000000000E+00  0.00000000000E+00  0.13050332861E+03  0.13050950800E+03  0.12700000000E+01 0.  1.
         -4   -1    0    0    0  501 -0.00000000000E+00 -0.00000000000E+00 -0.29911156123E+02  0.29938105495E+02  0.12700000000E+01 0.  1.
         25    2    1    2    0    0  0.00000000000E+00  0.00000000000E+00  0.10059217248E+03  0.16044761349E+03  0.12499860603E+03 0.  0.
    9000005    1    3    3    0    0 -0.26345993988E+02  0.10086916248E+02 -0.21278656603E+02  0.35350226384E+02  0.10000000000E+01 0.  0.
    9000005    1    3    3    0    0  0.26345993988E+02 -0.10086916248E+02  0.12187082909E+03  0.12509738711E+03  0.10000000000E+01 0.  0.
<mgrwt>
<rscale>  0 0.12499861E+03</rscale>
<asrwt>0</asrwt>
<pdfrwt beam="1">  1        4 0.20079983E-01 0.12499861E+03</pdfrwt>
<pdfrwt beam="2">  1       -4 0.46042648E-02 0.12499861E+03</pdfrwt>
<totfact> 0.97259605E+03</totfact>
</mgrwt>
</event>
<event>
 5    1  0.3270363E-002  0.1249895E+03  0.7818608E-02  0.1235086E+00
         -4   -1    0    0    0  501 -0.00000000000E+00  0.00000000000E+00  0.43222304536E+02  0.43240958701E+02  0.12700000000E+01 0. -1.
          4   -1    0    0  501    0  0.00000000000E+00 -0.00000000000E+00 -0.90318002904E+02  0.90326931469E+02  0.12700000000E+01 0. -1.
         25    2    1    2    0    0  0.00000000000E+00  0.00000000000E+00 -0.47095698368E+02  0.13356789017E+03  0.12498950548E+03 0.  0.
    9000005    1    3    3    0    0  0.32630533819E+02  0.23428203140E+02  0.27601183948E+02  0.48748926091E+02  0.10000000000E+01 0.  0.
    9000005    1    3    3    0    0 -0.32630533819E+02 -0.23428203140E+02 -0.74696882316E+02  0.84818964079E+02  0.10000000000E+01 0.  0.
<mgrwt>
<rscale>  0 0.12498951E+03</rscale>
<asrwt>0</asrwt>
<pdfrwt beam="2">  1        4 0.13897199E-01 0.12498951E+03</pdfrwt>
<pdfrwt beam="1">  1       -4 0.66517071E-02 0.12498951E+03</pdfrwt>
<totfact> 0.10270776E+04</totfact>
</mgrwt>
</event>
<event>
 5    1  0.3270363E-002  0.1250243E+03  0.7818608E-02  0.1235031E+00
         -4   -1    0    0    0  501 -0.00000000000E+00  0.00000000000E+00  0.45972974596E+03  0.45973150014E+03  0.12700000000E+01 0. -1.
          4   -1    0    0  501    0  0.00000000000E+00 -0.00000000000E+00 -0.84509290135E+01  0.85458236110E+01  0.12700000000E+01 0. -1.
         25    2    1    2    0    0  0.00000000000E+00  0.00000000000E+00  0.45127881695E+03  0.46827732375E+03  0.12502432289E+03 0.  0.
    9000005    1    3    3    0    0 -0.56445502198E+02  0.25907349777E+02  0.25198722872E+03  0.25953005400E+03  0.10000000000E+01 0.  0.
    9000005    1    3    3    0    0  0.56445502198E+02 -0.25907349777E+02  0.19929158823E+03  0.20874726975E+03  0.10000000000E+01 0.  0.
<mgrwt>
<rscale>  0 0.12502432E+03</rscale>
<asrwt>0</asrwt>
<pdfrwt beam="2">  1        4 0.13075777E-02 0.12502432E+03</pdfrwt>
<pdfrwt beam="1">  1       -4 0.70735073E-01 0.12502432E+03</pdfrwt>
<totfact> 0.58381241E+03</totfact>
</mgrwt>
</event>
<event>
 5    1  0.3270363E-002  0.1250005E+03  0.7818608E-02  0.1235069E+00
         -4   -1    0    0    0  501 -0.00000000000E+00  0.00000000000E+00  0.37091669692E+03  0.37091887113E+03  0.12700000000E+01 0. -1.
          4   -1    0    0  501    0  0.00000000000E+00 -0.00000000000E+00 -0.10490917817E+02  0.10567509482E+02  0.12700000000E+01 0. -1.
         25    2    1    2    0    0  0.00000000000E+00  0.00000000000E+00  0.36042577911E+03  0.38148638061E+03  0.12500046538E+03 0.  0.
    9000005    1    3    3    0    0 -0.61656744465E+02 -0.42318623262E+01  0.20848461236E+03  0.21745412478E+03  0.10000000000E+01 0.  0.
    9000005    1    3    3    0    0  0.61656744465E+02  0.42318623262E+01  0.15194116675E+03  0.16403225582E+03  0.10000000000E+01 0.  0.
<mgrwt>
<rscale>  0 0.12500047E+03</rscale>
<asrwt>0</asrwt>
<pdfrwt beam="2">  1        4 0.16200460E-02 0.12500047E+03</pdfrwt>
<pdfrwt beam="1">  1       -4 0.57070174E-01 0.12500047E+03</pdfrwt>
<totfact> 0.66393435E+03</totfact>
</mgrwt>
</event>
<event>
 5    1  0.3270363E-002  0.1250013E+03  0.7818608E-02  0.1235067E+00
          4   -1    0    0  501    0  0.00000000000E+00  0.00000000000E+00  0.54579599367E+01  0.56037689702E+01  0.12700000000E+01 0. -1.
         -4   -1    0    0    0  501 -0.00000000000E+00 -0.00000000000E+00 -0.70613192007E+03  0.70613306214E+03  0.12700000000E+01 0. -1.
         25    2    1    2    0    0  0.00000000000E+00  0.00000000000E+00 -0.70067396014E+03  0.71173683111E+03  0.12500127337E+03 0.  0.
    9000005    1    3    3    0    0  0.26193070014E+02  0.11649915597E+02 -0.34160731172E+02  0.44606647536E+02  0.10000000000E+01 0.  0.
    9000005    1    3    3    0    0 -0.26193070014E+02 -0.11649915597E+02 -0.66651322896E+03  0.66713018357E+03  0.10000000000E+01 0.  0.
<mgrwt>
<rscale>  0 0.12500127E+03</rscale>
<asrwt>0</asrwt>
<pdfrwt beam="1">  1        4 0.85099063E-03 0.12500127E+03</pdfrwt>
<pdfrwt beam="2">  1       -4 0.10864691E+00 0.12500127E+03</pdfrwt>
<totfact> 0.42473167E+03</totfact>
</mgrwt>
</event>
<event>
 5    1  0.3270363E-002  0.1249963E+03  0.7818608E-02  0.1235075E+00
         -4   -1    0    0    0  501 -0.00000000000E+00  0.00000000000E+00  0.35681809947E+03  0.35682035958E+03  0.12700000000E+01 0. -1.
          4   -1    0    0  501    0  0.00000000000E+00 -0.00000000000E+00 -0.10907664621E+02  0.10981349985E+02  0.12700000000E+01 0. -1.
         25    2    1    2    0    0  0.00000000000E+00  0.00000000000E+00  0.34591043485E+03  0.36780170956E+03  0.12499627442E+03 0.  0.
    9000005    1    3    3    0    0 -0.13907769342E+02 -0.48208597479E+02  0.63348631452E+02  0.80817968459E+02  0.10000000000E+01 0.  0.
    9000005    1    3    3    0    0  0.13907769342E+02  0.48208597479E+02  0.28256180340E+03  0.28698374110E+03  0.10000000000E+01 0.  0.
<mgrwt>
<rscale>  0 0.12499627E+03</rscale>
<asrwt>0</asrwt>
<pdfrwt beam="2">  1        4 0.16839444E-02 0.12499627E+03</pdfrwt>
<pdfrwt beam="1">  1       -4 0.54900929E-01 0.12499627E+03</pdfrwt>
<totfact> 0.67815135E+03</totfact>
</mgrwt>
</event>
<event>
 5    1  0.3270363E-002  0.1250017E+03  0.7818608E-02  0.1235067E+00
          4   -1    0    0  501    0  0.00000000000E+00  0.00000000000E+00  0.34308262009E+02  0.34331759962E+02  0.12700000000E+01 0. -1.
         -4   -1    0    0    0  501 -0.00000000000E+00 -0.00000000000E+00 -0.11379449269E+03  0.11380157937E+03  0.12700000000E+01 0. -1.
         25    2    1    2    0    0  0.00000000000E+00  0.00000000000E+00 -0.79486230681E+02  0.14813333933E+03  0.12500170140E+03 0.  0.
    9000005    1    3    3    0    0 -0.20093473748E+01  0.47859591402E+02  0.78183015133E+01  0.48545893797E+02  0.10000000000E+01 0.  0.
    9000005    1    3    3    0    0  0.20093473748E+01 -0.47859591402E+02 -0.87304532195E+02  0.99587445533E+02  0.10000000000E+01 0.  0.
<mgrwt>
<rscale>  0 0.12500170E+03</rscale>
<asrwt>0</asrwt>
<pdfrwt beam="1">  1        4 0.52805469E-02 0.12500170E+03</pdfrwt>
<pdfrwt beam="2">  1       -4 0.17509198E-01 0.12500170E+03</pdfrwt>
<totfact> 0.99673281E+03</totfact>
</mgrwt>
</event>
<event>
 5    1  0.3270363E-002  0.1249987E+03  0.7818608E-02  0.1235071E+00
         -4   -1    0    0    0  501 -0.00000000000E+00  0.00000000000E+00  0.77726106451E+03  0.77726210207E+03  0.12700000000E+01 0.  1.
          4   -1    0    0  501    0  0.00000000000E+00 -0.00000000000E+00 -0.49442623302E+01  0.51047654197E+01  0.12700000000E+01 0.  1.
         25    2    1    2    0    0  0.00000000000E+00  0.00000000000E+00  0.77231680218E+03  0.78236686749E+03  0.12499868961E+03 0.  0.
    9000005    1    3    3    0    0 -0.31079201711E+02  0.26897208458E+02  0.68078329282E+03  0.68202365676E+03  0.10000000000E+01 0.  0.
    9000005    1    3    3    0    0  0.31079201711E+02 -0.26897208458E+02  0.91533509364E+02  0.10034321072E+03  0.10000000000E+01 0.  0.
<mgrwt>
<rscale>  0 0.12499869E+03</rscale>
<asrwt>0</asrwt>
<pdfrwt beam="2">  1        4 0.77308216E-03 0.12499869E+03</pdfrwt>
<pdfrwt beam="1">  1       -4 0.11959102E+00 0.12499869E+03</pdfrwt>
<totfact> 0.39065267E+03</totfact>
</mgrwt>
</event>
<event>
 5    1  0.3270363E-002  0.1249985E+03  0.7818608E-02  0.1235072E+00
         -4   -1    0    0    0  501 -0.00000000000E+00  0.00000000000E+00  0.66404072285E+01  0.67607623949E+01  0.12700000000E+01 0.  1.
          4   -1    0    0  501    0  0.00000000000E+00 -0.00000000000E+00 -0.58283682493E+03  0.58283820859E+03  0.12700000000E+01 0.  1.
         25    2    1    2    0    0  0.00000000000E+00  0.00000000000E+00 -0.57619641770E+03  0.58959897098E+03  0.12499853926E+03 0.  0.
    9000005    1    3    3    0    0 -0.56728241238E+02 -0.25265399204E+02 -0.25517307915E+03  0.26262279808E+03  0.10000000000E+01 0.  0.
    9000005    1    3    3    0    0  0.56728241238E+02  0.25265399204E+02 -0.32102333855E+03  0.32697617290E+03  0.10000000000E+01 0.  0.
<mgrwt>
<rscale>  0 0.12499854E+03</rscale>
<asrwt>0</asrwt>
<pdfrwt beam="2">  1        4 0.89676529E-01 0.12499854E+03</pdfrwt>
<pdfrwt beam="1">  1       -4 0.10309661E-02 0.12499854E+03</pdfrwt>
<totfact> 0.49532408E+03</totfact>
</mgrwt>
</event>
<event>
 5    1  0.3270363E-002  0.1249985E+03  0.7818608E-02  0.1235072E+00
          4   -1    0    0  501    0  0.00000000000E+00  0.00000000000E+00  0.81093072899E+02  0.81103017035E+02  0.12700000000E+01 0.  1.
         -4   -1    0    0    0  501 -0.00000000000E+00 -0.00000000000E+00 -0.48147520382E+02  0.48164267034E+02  0.12700000000E+01 0.  1.
         25    2    1    2    0    0  0.00000000000E+00  0.00000000000E+00  0.32945552517E+02  0.12926728407E+03  0.12499848519E+03 0.  0.
    9000005    1    3    3    0    0 -0.20584309793E+02  0.41774904060E+02 -0.26619171049E+02  0.53651064166E+02  0.10000000000E+01 0.  0.
    9000005    1    3    3    0    0  0.20584309793E+02 -0.41774904060E+02  0.59564723566E+02  0.75616219903E+02  0.10000000000E+01 0.  0.
<mgrwt>
<rscale>  0 0.12499849E+03</rscale>
<asrwt>0</asrwt>
<pdfrwt beam="1">  1        4 0.12477910E-01 0.12499849E+03</pdfrwt>
<pdfrwt beam="2">  1       -4 0.74093641E-02 0.12499849E+03</pdfrwt>
<totfact> 0.10360561E+04</totfact>
</mgrwt>
</event>
<event>
 5    1  0.3270363E-002  0.1249991E+03  0.7818608E-02  0.1235071E+00
         -4   -1    0    0    0  501 -0.00000000000E+00  0.00000000000E+00  0.81193186336E+03  0.81193285660E+03  0.12700000000E+01 0. -1.
          4   -1    0    0  501    0  0.00000000000E+00 -0.00000000000E+00 -0.47261622596E+01  0.48938236282E+01  0.12700000000E+01 0. -1.
         25    2    1    2    0    0  0.00000000000E+00  0.00000000000E+00  0.80720570110E+03  0.81682668023E+03  0.12499912662E+03 0.  0.
    9000005    1    3    3    0    0  0.46020703582E+02  0.38638773470E+02  0.29149288599E+03  0.29762386087E+03  0.10000000000E+01 0.  0.
    9000005    1    3    3    0    0 -0.46020703582E+02 -0.38638773470E+02  0.51571281511E+03  0.51920281937E+03  0.10000000000E+01 0.  0.
<mgrwt>
<rscale>  0 0.12499913E+03</rscale>
<asrwt>0</asrwt>
<pdfrwt beam="2">  1        4 0.74007516E-03 0.12499913E+03</pdfrwt>
<pdfrwt beam="1">  1       -4 0.12492560E+00 0.12499913E+03</pdfrwt>
<totfact> 0.37525199E+03</totfact>
</mgrwt>
</event>
<event>
 5    1  0.3270363E-002  0.1250012E+03  0.7818608E-02  0.1235067E+00
         -4   -1    0    0    0  501 -0.00000000000E+00  0.00000000000E+00  0.15371561805E+04  0.15371567052E+04  0.12700000000E+01 0. -1.
          4   -1    0    0  501    0  0.00000000000E+00 -0.00000000000E+00 -0.23820389807E+01  0.26994461850E+01  0.12700000000E+01 0. -1.
         25    2    1    2    0    0  0.00000000000E+00  0.00000000000E+00  0.15347741416E+04  0.15398561514E+04  0.12500120515E+03 0.  0.
    9000005    1    3    3    0    0 -0.11414118592E+02  0.61222486556E+02  0.83121944548E+03  0.83354978347E+03  0.10000000000E+01 0.  0.
    9000005    1    3    3    0    0  0.11414118592E+02 -0.61222486556E+02  0.70355469607E+03  0.70630636789E+03  0.10000000000E+01 0.  0.
<mgrwt>
<rscale>  0 0.12500121E+03</rscale>
<asrwt>0</asrwt>
<pdfrwt beam="2">  1        4 0.39092392E-03 0.12500121E+03</pdfrwt>
<pdfrwt beam="1">  1       -4 0.23650997E+00 0.12500121E+03</pdfrwt>
<totfact> 0.17159669E+03</totfact>
</mgrwt>
</event>
<event>
 5    1  0.3270363E-002  0.1250123E+03  0.7818608E-02  0.1235050E+00
         -4   -1    0    0    0  501 -0.00000000000E+00  0.00000000000E+00  0.56690081831E+01  0.58095226809E+01  0.12700000000E+01 0. -1.
          4   -1    0    0  501    0  0.00000000000E+00 -0.00000000000E+00 -0.68061132055E+03  0.68061250544E+03  0.12700000000E+01 0. -1.
         25    2    1    2    0    0  0.00000000000E+00  0.00000000000E+00 -0.67494231237E+03  0.68642202812E+03  0.12501230206E+03 0.  0.
    9000005    1    3    3    0    0  0.20951971206E+02 -0.58792199370E+02 -0.35527291034E+03  0.36071505184E+03  0.10000000000E+01 0.  0.
    9000005    1    3    3    0    0 -0.20951971206E+02  0.58792199370E+02 -0.31966940203E+03  0.32570697628E+03  0.10000000000E+01 0.  0.
<mgrwt>
<rscale>  0 0.12501230E+03</rscale>
<asrwt>0</asrwt>
<pdfrwt beam="2">  1        4 0.10472027E+00 0.12501230E+03</pdfrwt>
<pdfrwt beam="1">  1       -4 0.88305560E-03 0.12501230E+03</pdfrwt>
<totfact> 0.43801442E+03</totfact>
</mgrwt>
</event>
<event>
 5    1  0.3270363E-002  0.1249945E+03  0.7818608E-02  0.1235078E+00
         -4   -1    0    0    0  501 -0.00000000000E+00  0.00000000000E+00  0.83088830479E+02  0.83098535789E+02  0.12700000000E+01 0. -1.
          4   -1    0    0  501    0  0.00000000000E+00 -0.00000000000E+00 -0.46987778352E+02  0.47004938192E+02  0.12700000000E+01 0. -1.
         25    2    1    2    0    0  0.00000000000E+00  0.00000000000E+00  0.36101052127E+02  0.13010347398E+03  0.12499451179E+03 0.  0.
    9000005    1    3    3    0    0  0.22179160832E+01 -0.23554614658E+02  0.78251970761E+02  0.81756406179E+02  0.10000000000E+01 0.  0.
    9000005    1    3    3    0    0 -0.22179160832E+01  0.23554614658E+02 -0.42150918634E+02  0.48347067802E+02  0.10000000000E+01 0.  0.
<mgrwt>
<rscale>  0 0.12499451E+03</rscale>
<asrwt>0</asrwt>
<pdfrwt beam="2">  1        4 0.72309556E-02 0.12499451E+03</pdfrwt>
<pdfrwt beam="1">  1       -4 0.12784963E-01 0.12499451E+03</pdfrwt>
<totfact> 0.10343576E+04</totfact>
</mgrwt>
</event>
<event>
 5    1  0.3270363E-002  0.1250034E+03  0.7818608E-02  0.1235064E+00
          4   -1    0    0  501    0  0.00000000000E+00  0.00000000000E+00  0.28224318859E+03  0.28224604586E+03  0.12700000000E+01 0. -1.
         -4   -1    0    0    0  501 -0.00000000000E+00 -0.00000000000E+00 -0.13808696567E+02  0.13866975189E+02  0.12700000000E+01 0. -1.
         25    2    1    2    0    0  0.00000000000E+00  0.00000000000E+00  0.26843449202E+03  0.29611302105E+03  0.12500337887E+03 0.  0.
    9000005    1    3    3    0    0 -0.87748783252E+01 -0.57900452769E+02  0.82535241612E+02  0.10120537055E+03  0.10000000000E+01 0.  0.
    9000005    1    3    3    0    0  0.87748783252E+01  0.57900452769E+02  0.18589925041E+03  0.19490765050E+03  0.10000000000E+01 0.  0.
<mgrwt>
<rscale>  0 0.12500338E+03</rscale>
<asrwt>0</asrwt>
<pdfrwt beam="1">  1        4 0.43426725E-01 0.12500338E+03</pdfrwt>
<pdfrwt beam="2">  1       -4 0.21291179E-02 0.12500338E+03</pdfrwt>
<totfact> 0.76083311E+03</totfact>
</mgrwt>
</event>
<event>
 5    1  0.3270363E-002  0.1250039E+03  0.7818608E-02  0.1235063E+00
         -4   -1    0    0    0  501 -0.00000000000E+00  0.00000000000E+00  0.74891212315E+01  0.75960408648E+01  0.12700000000E+01 0. -1.
          4   -1    0    0  501    0  0.00000000000E+00 -0.00000000000E+00 -0.51781742405E+03  0.51781898145E+03  0.12700000000E+01 0. -1.
         25    2    1    2    0    0  0.00000000000E+00  0.00000000000E+00 -0.51032830282E+03  0.52541502232E+03  0.12500387601E+03 0.  0.
    9000005    1    3    3    0    0 -0.44994233480E+02  0.32649655970E+02 -0.37515849862E+03  0.37925635152E+03  0.10000000000E+01 0.  0.
    9000005    1    3    3    0    0  0.44994233480E+02 -0.32649655970E+02 -0.13516980420E+03  0.14615867080E+03  0.10000000000E+01 0.  0.
<mgrwt>
<rscale>  0 0.12500388E+03</rscale>
<asrwt>0</asrwt>
<pdfrwt beam="2">  1        4 0.79672536E-01 0.12500388E+03</pdfrwt>
<pdfrwt beam="1">  1       -4 0.11605173E-02 0.12500388E+03</pdfrwt>
<totfact> 0.53940438E+03</totfact>
</mgrwt>
</event>
<event>
 5    1  0.3270363E-002  0.1250032E+03  0.7818608E-02  0.1235064E+00
         -4   -1    0    0    0  501 -0.00000000000E+00  0.00000000000E+00  0.94235208615E+01  0.95087141836E+01  0.12700000000E+01 0. -1.
          4   -1    0    0  501    0  0.00000000000E+00 -0.00000000000E+00 -0.41259119866E+03  0.41259315325E+03  0.12700000000E+01 0. -1.
         25    2    1    2    0    0  0.00000000000E+00  0.00000000000E+00 -0.40316767780E+03  0.42210186743E+03  0.12500324025E+03 0.  0.
    9000005    1    3    3    0    0  0.57070645086E+02  0.15246000420E+02 -0.27045198195E+03  0.27682986399E+03  0.10000000000E+01 0.  0.
    9000005    1    3    3    0    0 -0.57070645086E+02 -0.15246000420E+02 -0.13271569585E+03  0.14527200344E+03  0.10000000000E+01 0.  0.
<mgrwt>
<rscale>  0 0.12500324E+03</rscale>
<asrwt>0</asrwt>
<pdfrwt beam="2">  1        4 0.63482259E-01 0.12500324E+03</pdfrwt>
<pdfrwt beam="1">  1       -4 0.14564764E-02 0.12500324E+03</pdfrwt>
<totfact> 0.62454035E+03</totfact>
</mgrwt>
</event>
<event>
 5    1  0.3270363E-002  0.1250093E+03  0.7818608E-02  0.1235055E+00
         -4   -1    0    0    0  501 -0.00000000000E+00  0.00000000000E+00  0.54742451069E+03  0.54742598386E+03  0.12700000000E+01 0.  1.
          4   -1    0    0  501    0  0.00000000000E+00 -0.00000000000E+00 -0.70787592220E+01  0.71917822634E+01  0.12700000000E+01 0.  1.
         25    2    1    2    0    0  0.00000000000E+00  0.00000000000E+00  0.54034575147E+03  0.55461776612E+03  0.12500934113E+03 0.  0.
    9000005    1    3    3    0    0 -0.37452191556E+02  0.25573430218E+02  0.46095573861E+03  0.46318231825E+03  0.10000000000E+01 0.  0.
    9000005    1    3    3    0    0  0.37452191556E+02 -0.25573430218E+02  0.79390012861E+02  0.91435447872E+02  0.10000000000E+01 0.  0.
<mgrwt>
<rscale>  0 0.12500934E+03</rscale>
<asrwt>0</asrwt>
<pdfrwt beam="2">  1        4 0.10978471E-02 0.12500934E+03</pdfrwt>
<pdfrwt beam="1">  1       -4 0.84227975E-01 0.12500934E+03</pdfrwt>
<totfact> 0.51852938E+03</totfact>
</mgrwt>
</event>
<event>
 5    1  0.3270363E-002  0.1249992E+03  0.7818608E-02  0.1235070E+00
         -4   -1    0    0    0  501 -0.00000000000E+00  0.00000000000E+00  0.70092735000E+02  0.70104239528E+02  0.12700000000E+01 0.  1.
          4   -1    0    0  501    0  0.00000000000E+00 -0.00000000000E+00 -0.55705732422E+02  0.55720207507E+02  0.12700000000E+01 0.  1.
         25    2    1    2    0    0  0.00000000000E+00  0.00000000000E+00  0.14387002578E+02  0.12582444704E+03  0.12499922251E+03 0.  0.
    9000005    1    3    3    0    0  0.16235927069E+02  0.42479771063E+02 -0.35950457812E+02  0.57979062551E+02  0.10000000000E+01 0.  0.
    9000005    1    3    3    0    0 -0.16235927069E+02 -0.42479771063E+02  0.50337460390E+02  0.67845384485E+02  0.10000000000E+01 0.  0.
<mgrwt>
<rscale>  0 0.12499922E+03</rscale>
<asrwt>0</asrwt>
<pdfrwt beam="2">  1        4 0.85721111E-02 0.12499922E+03</pdfrwt>
<pdfrwt beam="1">  1       -4 0.10785496E-01 0.12499922E+03</pdfrwt>
<totfact> 0.10434991E+04</totfact>
</mgrwt>
</event>
<event>
 5    1  0.3270363E-002  0.1249944E+03  0.7818608E-02  0.1235078E+00
         -4   -1    0    0    0  501 -0.00000000000E+00  0.00000000000E+00  0.17150127065E+03  0.17150597288E+03  0.12700000000E+01 0.  1.
          4   -1    0    0  501    0  0.00000000000E+00 -0.00000000000E+00 -0.22752017504E+02  0.22787435146E+02  0.12700000000E+01 0.  1.
         25    2    1    2    0    0  0.00000000000E+00  0.00000000000E+00  0.14874925314E+03  0.19429340803E+03  0.12499435224E+03 0.  0.
    9000005    1    3    3    0    0  0.19642437101E+02 -0.19217266839E+01  0.16653701721E+03  0.16770538593E+03  0.10000000000E+01 0.  0.
    9000005    1    3    3    0    0 -0.19642437101E+02  0.19217266839E+01 -0.17787764064E+02  0.26588022098E+02  0.10000000000E+01 0.  0.
<mgrwt>
<rscale>  0 0.12499435E+03</rscale>
<asrwt>0</asrwt>
<pdfrwt beam="2">  1        4 0.35033965E-02 0.12499435E+03</pdfrwt>
<pdfrwt beam="1">  1       -4 0.26387897E-01 0.12499435E+03</pdfrwt>
<totfact> 0.91117117E+03</totfact>
</mgrwt>
</event>
<event>
 5    1  0.3270363E-002  0.1249968E+03  0.7818608E-02  0.1235074E+00
          4   -1    0    0  501    0  0.00000000000E+00  0.00000000000E+00  0.31594214561E+02  0.31619729501E+02  0.12700000000E+01 0. -1.
         -4   -1    0    0    0  501 -0.00000000000E+00 -0.00000000000E+00 -0.12355315557E+03  0.12355968255E+03  0.12700000000E+01 0. -1.
         25    2    1    2    0    0  0.00000000000E+00  0.00000000000E+00 -0.91958941014E+02  0.15517941205E+03  0.12499681233E+03 0.  0.
    9000005    1    3    3    0    0  0.32897604188E+02  0.29634876255E+02 -0.10072482049E+03  0.11003166687E+03  0.10000000000E+01 0.  0.
    9000005    1    3    3    0    0 -0.32897604188E+02 -0.29634876255E+02  0.87658794763E+01  0.45147745181E+02  0.10000000000E+01 0.  0.
<mgrwt>
<rscale>  0 0.12499681E+03</rscale>
<asrwt>0</asrwt>
<pdfrwt beam="1">  1        4 0.48631132E-02 0.12499681E+03</pdfrwt>
<pdfrwt beam="2">  1       -4 0.19010642E-01 0.12499681E+03</pdfrwt>
<totfact> 0.98287336E+03</totfact>
</mgrwt>
</event>
<event>
 5    1  0.3270363E-002  0.1250025E+03  0.7818608E-02  0.1235065E+00
         -4   -1    0    0    0  501 -0.00000000000E+00  0.00000000000E+00  0.53918379246E+01  0.55393877104E+01  0.12700000000E+01 0.  1.
          4   -1    0    0  501    0  0.00000000000E+00 -0.00000000000E+00 -0.71457667745E+03  0.71457780602E+03  0.12700000000E+01 0.  1.
         25    2    1    2    0    0  0.00000000000E+00  0.00000000000E+00 -0.70918483953E+03  0.72011719373E+03  0.12500254434E+03 0.  0.
    9000005    1    3    3    0    0  0.45657455416E+02 -0.34665230447E+02 -0.21125010775E+03  0.21889241527E+03  0.10000000000E+01 0.  0.
    9000005    1    3    3    0    0 -0.45657455416E+02  0.34665230447E+02 -0.49793473177E+03  0.50122477846E+03  0.10000000000E+01 0.  0.
<mgrwt>
<rscale>  0 0.12500254E+03</rscale>
<asrwt>0</asrwt>
<pdfrwt beam="2">  1        4 0.10994624E+00 0.12500254E+03</pdfrwt>
<pdfrwt beam="1">  1       -4 0.84095089E-03 0.12500254E+03</pdfrwt>
<totfact> 0.42043462E+03</totfact>
</mgrwt>
</event>
<event>
 5    1  0.3270363E-002  0.1250001E+03  0.7818608E-02  0.1235069E+00
         -4   -1    0    0    0  501 -0.00000000000E+00  0.00000000000E+00  0.71452364529E+03  0.71452477394E+03  0.12700000000E+01 0. -1.
          4   -1    0    0  501    0  0.00000000000E+00 -0.00000000000E+00 -0.53920320666E+01  0.55395766812E+01  0.12700000000E+01 0. -1.
         25    2    1    2    0    0  0.00000000000E+00  0.00000000000E+00  0.70913161323E+03  0.72006435063E+03  0.12500009667E+03 0.  0.
    9000005    1    3    3    0    0  0.24975176898E+01 -0.41386364136E+02  0.85223456068E+02  0.94779249813E+02  0.10000000000E+01 0.  0.
    9000005    1    3    3    0    0 -0.24975176898E+01  0.41386364136E+02  0.62390815716E+03  0.62528510081E+03  0.10000000000E+01 0.  0.
<mgrwt>
<rscale>  0 0.12500010E+03</rscale>
<asrwt>0</asrwt>
<pdfrwt beam="2">  1        4 0.84097995E-03 0.12500010E+03</pdfrwt>
<pdfrwt beam="1">  1       -4 0.10993813E+00 0.12500010E+03</pdfrwt>
<totfact> 0.42048375E+03</totfact>
</mgrwt>
</event>
<event>
 5    1  0.3270363E-002  0.1249998E+03  0.7818608E-02  0.1235070E+00
          4   -1    0    0  501    0  0.00000000000E+00  0.00000000000E+00  0.39802215541E+01  0.41779257557E+01  0.12700000000E+01 0. -1.
         -4   -1    0    0    0  501 -0.00000000000E+00 -0.00000000000E+00 -0.95743045607E+03  0.95743129838E+03  0.12700000000E+01 0. -1.
         25    2    1    2    0    0  0.00000000000E+00  0.00000000000E+00 -0.95345023452E+03  0.96160922414E+03  0.12499980095E+03 0.  0.
    9000005    1    3    3    0    0  0.20122674208E+02  0.20676475994E+02 -0.50286656310E+02  0.57984364096E+02  0.10000000000E+01 0.  0.
    9000005    1    3    3    0    0 -0.20122674208E+02 -0.20676475994E+02 -0.90316357821E+03  0.90362486004E+03  0.10000000000E+01 0.  0.
<mgrwt>
<rscale>  0 0.12499980E+03</rscale>
<asrwt>0</asrwt>
<pdfrwt beam="1">  1        4 0.62761535E-03 0.12499980E+03</pdfrwt>
<pdfrwt beam="2">  1       -4 0.14731209E+00 0.12499980E+03</pdfrwt>
<totfact> 0.31907528E+03</totfact>
</mgrwt>
</event>
<event>
 5    1  0.3270363E-002  0.1249849E+03  0.7818608E-02  0.1235093E+00
          4   -1    0    0  501    0  0.00000000000E+00  0.00000000000E+00  0.20364404369E+03  0.20364800375E+03  0.12700000000E+01 0.  1.
         -4   -1    0    0    0  501 -0.00000000000E+00 -0.00000000000E+00 -0.19151927468E+02  0.19193989313E+02  0.12700000000E+01 0.  1.
         25    2    1    2    0    0  0.00000000000E+00  0.00000000000E+00  0.18449211623E+03  0.22284199307E+03  0.12498485078E+03 0.  0.
    9000005    1    3    3    0    0  0.57941921151E+02 -0.14451179237E+02  0.12503494935E+03  0.13856710060E+03  0.10000000000E+01 0.  0.
    9000005    1    3    3    0    0 -0.57941921151E+02  0.14451179237E+02  0.59457166874E+02  0.84274892469E+02  0.10000000000E+01 0.  0.
<mgrwt>
<rscale>  0 0.12498485E+03</rscale>
<asrwt>0</asrwt>
<pdfrwt beam="1">  1        4 0.31333394E-01 0.12498485E+03</pdfrwt>
<pdfrwt beam="2">  1       -4 0.29499904E-02 0.12498485E+03</pdfrwt>
<totfact> 0.86449870E+03</totfact>
</mgrwt>
</event>
<event>
 5    1  0.3270363E-002  0.1249991E+03  0.7818608E-02  0.1235071E+00
         -4   -1    0    0    0  501 -0.00000000000E+00  0.00000000000E+00  0.92119648453E+01  0.92990965320E+01  0.12700000000E+01 0. -1.
          4   -1    0    0  501    0  0.00000000000E+00 -0.00000000000E+00 -0.42195091812E+03  0.42195282935E+03  0.12700000000E+01 0. -1.
         25    2    1    2    0    0  0.00000000000E+00  0.00000000000E+00 -0.41273895327E+03  0.43125192589E+03  0.12499912013E+03 0.  0.
    9000005    1    3    3    0    0 -0.15897677175E+02  0.59183869094E+02 -0.16415354873E+03  0.17522229898E+03  0.10000000000E+01 0.  0.
    9000005    1    3    3    0    0  0.15897677175E+02 -0.59183869094E+02 -0.24858540455E+03  0.25602962691E+03  0.10000000000E+01 0.  0.
<mgrwt>
<rscale>  0 0.12499912E+03</rscale>
<asrwt>0</asrwt>
<pdfrwt beam="2">  1        4 0.64922360E-01 0.12499912E+03</pdfrwt>
<pdfrwt beam="1">  1       -4 0.14240751E-02 0.12499912E+03</pdfrwt>
<totfact> 0.61623878E+03</totfact>
</mgrwt>
</event>
<event>
 5    1  0.3270363E-002  0.1250075E+03  0.7818608E-02  0.1235058E+00
         -4   -1    0    0    0  501 -0.00000000000E+00  0.00000000000E+00  0.12994830949E+03  0.12995451527E+03  0.12700000000E+01 0. -1.
          4   -1    0    0  501    0  0.00000000000E+00 -0.00000000000E+00 -0.30043307590E+02  0.30070138525E+02  0.12700000000E+01 0. -1.
         25    2    1    2    0    0  0.00000000000E+00  0.00000000000E+00  0.99905001901E+02  0.16002465380E+03  0.12500752145E+03 0.  0.
    9000005    1    3    3    0    0  0.53413648381E+02 -0.32265922817E+02  0.54314780967E+02  0.82735742216E+02  0.10000000000E+01 0.  0.
    9000005    1    3    3    0    0 -0.53413648381E+02  0.32265922817E+02  0.45590220934E+02  0.77288911581E+02  0.10000000000E+01 0.  0.
<mgrwt>
<rscale>  0 0.12500752E+03</rscale>
<asrwt>0</asrwt>
<pdfrwt beam="2">  1        4 0.46245886E-02 0.12500752E+03</pdfrwt>
<pdfrwt beam="1">  1       -4 0.19994589E-01 0.12500752E+03</pdfrwt>
<totfact> 0.97321577E+03</totfact>
</mgrwt>
</event>
<event>
 5    1  0.3270363E-002  0.1249990E+03  0.7818608E-02  0.1235071E+00
         -4   -1    0    0    0  501 -0.00000000000E+00  0.00000000000E+00  0.12300227339E+02  0.12365617356E+02  0.12700000000E+01 0.  1.
          4   -1    0    0  501    0  0.00000000000E+00 -0.00000000000E+00 -0.31666182416E+03  0.31666437087E+03  0.12700000000E+01 0.  1.
         25    2    1    2    0    0  0.00000000000E+00  0.00000000000E+00 -0.30436159682E+03  0.32902998823E+03  0.12499900613E+03 0.  0.
    9000005    1    3    3    0    0  0.41309669294E+02 -0.13951462673E+02 -0.34343215315E+02  0.55512057484E+02  0.10000000000E+01 0.  0.
    9000005    1    3    3    0    0 -0.41309669294E+02  0.13951462673E+02 -0.27001838151E+03  0.27351793075E+03  0.10000000000E+01 0.  0.
<mgrwt>
<rscale>  0 0.12499901E+03</rscale>
<asrwt>0</asrwt>
<pdfrwt beam="2">  1        4 0.48722424E-01 0.12499901E+03</pdfrwt>
<pdfrwt beam="1">  1       -4 0.18975688E-02 0.12499901E+03</pdfrwt>
<totfact> 0.72096435E+03</totfact>
</mgrwt>
</event>
<event>
 5    1  0.3270363E-002  0.1249953E+03  0.7818608E-02  0.1235077E+00
          4   -1    0    0  501    0  0.00000000000E+00  0.00000000000E+00  0.24050195076E+03  0.24050530393E+03  0.12700000000E+01 0.  1.
         -4   -1    0    0    0  501 -0.00000000000E+00 -0.00000000000E+00 -0.16212551637E+02  0.16262217886E+02  0.12700000000E+01 0.  1.
         25    2    1    2    0    0  0.00000000000E+00  0.00000000000E+00  0.22428939912E+03  0.25676752182E+03  0.12499530272E+03 0.  0.
    9000005    1    3    3    0    0  0.29444884118E+02  0.23554385816E+02  0.21450876745E+03  0.21779995777E+03  0.10000000000E+01 0.  0.
    9000005    1    3    3    0    0 -0.29444884118E+02 -0.23554385816E+02  0.97806316729E+01  0.38967564048E+02  0.10000000000E+01 0.  0.
<mgrwt>
<rscale>  0 0.12499530E+03</rscale>
<asrwt>0</asrwt>
<pdfrwt beam="1">  1        4 0.37004376E-01 0.12499530E+03</pdfrwt>
<pdfrwt beam="2">  1       -4 0.24983173E-02 0.12499530E+03</pdfrwt>
<totfact> 0.81370355E+03</totfact>
</mgrwt>
</event>
<event>
 5    1  0.3270363E-002  0.1249973E+03  0.7818608E-02  0.1235074E+00
         -4   -1    0    0    0  501 -0.00000000000E+00  0.00000000000E+00  0.18623525228E+03  0.18623958250E+03  0.12700000000E+01 0. -1.
          4   -1    0    0  501    0  0.00000000000E+00 -0.00000000000E+00 -0.20950095900E+02  0.20988554457E+02  0.12700000000E+01 0. -1.
         25    2    1    2    0    0  0.00000000000E+00  0.00000000000E+00  0.16528515638E+03  0.20722813696E+03  0.12499727129E+03 0.  0.
    9000005    1    3    3    0    0  0.25197386045E+02  0.21297217695E+02  0.17062800710E+03  0.17379124418E+03  0.10000000000E+01 0.  0.
    9000005    1    3    3    0    0 -0.25197386045E+02 -0.21297217695E+02 -0.53428507252E+01  0.33436892782E+02  0.10000000000E+01 0.  0.
<mgrwt>
<rscale>  0 0.12499727E+03</rscale>
<asrwt>0</asrwt>
<pdfrwt beam="2">  1        4 0.32263831E-02 0.12499727E+03</pdfrwt>
<pdfrwt beam="1">  1       -4 0.28654869E-01 0.12499727E+03</pdfrwt>
<totfact> 0.88935999E+03</totfact>
</mgrwt>
</event>
<event>
 5    1  0.3270363E-002  0.1250018E+03  0.7818608E-02  0.1235067E+00
          4   -1    0    0  501    0  0.00000000000E+00  0.00000000000E+00  0.29224135824E+03  0.29224411776E+03  0.12700000000E+01 0.  1.
         -4   -1    0    0    0  501 -0.00000000000E+00 -0.00000000000E+00 -0.13333903122E+02  0.13394247738E+02  0.12700000000E+01 0.  1.
         25    2    1    2    0    0  0.00000000000E+00  0.00000000000E+00  0.27890745511E+03  0.30563836549E+03  0.12500176777E+03 0.  0.
    9000005    1    3    3    0    0  0.97443030275E+01 -0.37572601426E+02  0.25920509072E+03  0.26209717830E+03  0.10000000000E+01 0.  0.
    9000005    1    3    3    0    0 -0.97443030275E+01  0.37572601426E+02  0.19702364396E+02  0.43541187194E+02  0.10000000000E+01 0.  0.
<mgrwt>
<rscale>  0 0.12500177E+03</rscale>
<asrwt>0</asrwt>
<pdfrwt beam="1">  1        4 0.44965059E-01 0.12500177E+03</pdfrwt>
<pdfrwt beam="2">  1       -4 0.20562241E-02 0.12500177E+03</pdfrwt>
<totfact> 0.74894036E+03</totfact>
</mgrwt>
</event>
<event>
 5    1  0.3270363E-002  0.1249887E+03  0.7818608E-02  0.1235087E+00
          4   -1    0    0  501    0  0.00000000000E+00  0.00000000000E+00  0.80088730734E+02  0.80098799558E+02  0.12700000000E+01 0.  1.
         -4   -1    0    0    0  501 -0.00000000000E+00 -0.00000000000E+00 -0.48743794032E+02  0.48760335895E+02  0.12700000000E+01 0.  1.
         25    2    1    2    0    0  0.00000000000E+00  0.00000000000E+00  0.31344936702E+02  0.12885913545E+03  0.12498868642E+03 0.  0.
    9000005    1    3    3    0    0  0.17837330054E+02  0.26923040304E+01 -0.46005901556E+02  0.49426327220E+02  0.10000000000E+01 0.  0.
    9000005    1    3    3    0    0 -0.17837330054E+02 -0.26923040304E+01  0.77350838258E+02  0.79432808233E+02  0.10000000000E+01 0.  0.
<mgrwt>
<rscale>  0 0.12498869E+03</rscale>
<asrwt>0</asrwt>
<pdfrwt beam="1">  1        4 0.12323390E-01 0.12498869E+03</pdfrwt>
<pdfrwt beam="2">  1       -4 0.75010923E-02 0.12498869E+03</pdfrwt>
<totfact> 0.10371623E+04</totfact>
</mgrwt>
</event>
<event>
 5    1  0.3270363E-002  0.1249960E+03  0.7818608E-02  0.1235076E+00
         -4   -1    0    0    0  501 -0.00000000000E+00  0.00000000000E+00  0.42188366423E+03  0.42188557577E+03  0.12700000000E+01 0. -1.
          4   -1    0    0  501    0  0.00000000000E+00 -0.00000000000E+00 -0.92129806512E+01  0.93001028209E+01  0.12700000000E+01 0. -1.
         25    2    1    2    0    0  0.00000000000E+00  0.00000000000E+00  0.41267068358E+03  0.43118567859E+03  0.12499598529E+03 0.  0.
    9000005    1    3    3    0    0  0.47168542201E+02 -0.36118296960E+02  0.13948110475E+03  0.15160930489E+03  0.10000000000E+01 0.  0.
    9000005    1    3    3    0    0 -0.47168542201E+02  0.36118296960E+02  0.27318957883E+03  0.27957637370E+03  0.10000000000E+01 0.  0.
<mgrwt>
<rscale>  0 0.12499599E+03</rscale>
<asrwt>0</asrwt>
<pdfrwt beam="2">  1        4 0.14242306E-02 0.12499599E+03</pdfrwt>
<pdfrwt beam="1">  1       -4 0.64912019E-01 0.12499599E+03</pdfrwt>
<totfact> 0.61634122E+03</totfact>
</mgrwt>
</event>
<event>
 5    1  0.3270363E-002  0.1249982E+03  0.7818608E-02  0.1235072E+00
         -4   -1    0    0    0  501 -0.00000000000E+00  0.00000000000E+00  0.41112020829E+02  0.41131632069E+02  0.12700000000E+01 0.  1.
          4   -1    0    0  501    0  0.00000000000E+00 -0.00000000000E+00 -0.94965530429E+02  0.94974022078E+02  0.12700000000E+01 0.  1.
         25    2    1    2    0    0  0.00000000000E+00  0.00000000000E+00 -0.53853509601E+02  0.13610565415E+03  0.12499819436E+03 0.  0.
    9000005    1    3    3    0    0  0.42398636669E+02  0.15706864541E+02  0.20043268797E+02  0.49467995807E+02  0.10000000000E+01 0.  0.
    9000005    1    3    3    0    0 -0.42398636669E+02 -0.15706864541E+02 -0.73896778397E+02  0.86637658340E+02  0.10000000000E+01 0.  0.
<mgrwt>
<rscale>  0 0.12499819E+03</rscale>
<asrwt>0</asrwt>
<pdfrwt beam="2">  1        4 0.14612243E-01 0.12499819E+03</pdfrwt>
<pdfrwt beam="1">  1       -4 0.63270881E-02 0.12499819E+03</pdfrwt>
<totfact> 0.10215235E+04</totfact>
</mgrwt>
</event>
<event>
 5    1  0.3270363E-002  0.1250037E+03  0.7818608E-02  0.1235063E+00
          4   -1    0    0  501    0  0.00000000000E+00  0.00000000000E+00  0.31897577299E+03  0.31897830122E+03  0.12700000000E+01 0. -1.
         -4   -1    0    0    0  501 -0.00000000000E+00 -0.00000000000E+00 -0.12211447729E+02  0.12277310603E+02  0.12700000000E+01 0. -1.
         25    2    1    2    0    0  0.00000000000E+00  0.00000000000E+00  0.30676432526E+03  0.33125561183E+03  0.12500371641E+03 0.  0.
    9000005    1    3    3    0    0 -0.32232073179E+02 -0.48786998928E+02  0.21182605060E+03  0.21975066216E+03  0.10000000000E+01 0.  0.
    9000005    1    3    3    0    0  0.32232073179E+02  0.48786998928E+02  0.94938274654E+02  0.11150494967E+03  0.10000000000E+01 0.  0.
<mgrwt>
<rscale>  0 0.12500372E+03</rscale>
<asrwt>0</asrwt>
<pdfrwt beam="1">  1        4 0.49078451E-01 0.12500372E+03</pdfrwt>
<pdfrwt beam="2">  1       -4 0.18839453E-02 0.12500372E+03</pdfrwt>
<totfact> 0.71831207E+03</totfact>
</mgrwt>
</event>
<event>
 5    1  0.3270363E-002  0.1250286E+03  0.7818608E-02  0.1235025E+00
          4   -1    0    0  501    0  0.00000000000E+00  0.00000000000E+00  0.52258558220E+01  0.53779614235E+01  0.12700000000E+01 0.  1.
         -4   -1    0    0    0  501 -0.00000000000E+00 -0.00000000000E+00 -0.73694721924E+03  0.73694831355E+03  0.12700000000E+01 0.  1.
         25    2    1    2    0    0  0.00000000000E+00  0.00000000000E+00 -0.73172136342E+03  0.74232627498E+03  0.12502857607E+03 0.  0.
    9000005    1    3    3    0    0 -0.28079124466E+02  0.47723287236E+02 -0.19367145923E+03  0.20143381914E+03  0.10000000000E+01 0.  0.
    9000005    1    3    3    0    0  0.28079124466E+02 -0.47723287236E+02 -0.53804990419E+03  0.54089245584E+03  0.10000000000E+01 0.  0.
<mgrwt>
<rscale>  0 0.12502858E+03</rscale>
<asrwt>0</asrwt>
<pdfrwt beam="1">  1        4 0.81576301E-03 0.12502858E+03</pdfrwt>
<pdfrwt beam="2">  1       -4 0.11338820E+00 0.12502858E+03</pdfrwt>
<totfact> 0.40918340E+03</totfact>
</mgrwt>
</event>
<event>
 5    1  0.3270363E-002  0.1250031E+03  0.7818608E-02  0.1235064E+00
         -4   -1    0    0    0  501 -0.00000000000E+00  0.00000000000E+00  0.66906455061E+02  0.66918507372E+02  0.12700000000E+01 0. -1.
          4   -1    0    0  501    0  0.00000000000E+00 -0.00000000000E+00 -0.58362399923E+02  0.58376216259E+02  0.12700000000E+01 0. -1.
         25    2    1    2    0    0  0.00000000000E+00  0.00000000000E+00  0.85440551384E+01  0.12529472363E+03  0.12500306753E+03 0.  0.
    9000005    1    3    3    0    0 -0.14527129544E+01 -0.54858618113E+02 -0.25695276975E+02  0.60603841586E+02  0.10000000000E+01 0.  0.
    9000005    1    3    3    0    0  0.14527129544E+01  0.54858618113E+02  0.34239332113E+02  0.64690882045E+02  0.10000000000E+01 0.  0.
<mgrwt>
<rscale>  0 0.12500307E+03</rscale>
<asrwt>0</asrwt>
<pdfrwt beam="2">  1        4 0.89808207E-02 0.12500307E+03</pdfrwt>
<pdfrwt beam="1">  1       -4 0.10295291E-01 0.12500307E+03</pdfrwt>
<totfact> 0.10445740E+04</totfact>
</mgrwt>
</event>
<event>
 5    1  0.3270363E-002  0.1250019E+03  0.7818608E-02  0.1235066E+00
         -4   -1    0    0    0  501 -0.00000000000E+00  0.00000000000E+00  0.61320093853E+02  0.61333243923E+02  0.12700000000E+01 0. -1.
          4   -1    0    0  501    0  0.00000000000E+00 -0.00000000000E+00 -0.63678196479E+02  0.63690859680E+02  0.12700000000E+01 0. -1.
         25    2    1    2    0    0  0.00000000000E+00  0.00000000000E+00 -0.23581026257E+01  0.12502410360E+03  0.12500186332E+03 0.  0.
    9000005    1    3    3    0    0 -0.42728422401E+02 -0.21524414794E+02  0.39031931720E+02  0.61753625051E+02  0.10000000000E+01 0.  0.
    9000005    1    3    3    0    0  0.42728422401E+02  0.21524414794E+02 -0.41390034345E+02  0.63270478552E+02  0.10000000000E+01 0.  0.
<mgrwt>
<rscale>  0 0.12500186E+03</rscale>
<asrwt>0</asrwt>
<pdfrwt beam="2">  1        4 0.97986313E-02 0.12500186E+03</pdfrwt>
<pdfrwt beam="1">  1       -4 0.94358462E-02 0.12500186E+03</pdfrwt>
<totfact> 0.10451899E+04</totfact>
</mgrwt>
</event>
<event>
 5    1  0.3270363E-002  0.1250022E+03  0.7818608E-02  0.1235066E+00
         -4   -1    0    0    0  501 -0.00000000000E+00  0.00000000000E+00  0.30123287938E+02  0.30150047698E+02  0.12700000000E+01 0.  1.
          4   -1    0    0  501    0  0.00000000000E+00 -0.00000000000E+00 -0.12959247058E+03  0.12959869340E+03  0.12700000000E+01 0.  1.
         25    2    1    2    0    0  0.00000000000E+00  0.00000000000E+00 -0.99469182646E+02  0.15974874110E+03  0.12500216793E+03 0.  0.
    9000005    1    3    3    0    0 -0.40091412947E+02  0.23331733161E+02 -0.10325221834E+03  0.11319766675E+03  0.10000000000E+01 0.  0.
    9000005    1    3    3    0    0  0.40091412947E+02 -0.23331733161E+02  0.37830356978E+01  0.46551074354E+02  0.10000000000E+01 0.  0.
<mgrwt>
<rscale>  0 0.12500217E+03</rscale>
<asrwt>0</asrwt>
<pdfrwt beam="2">  1        4 0.19939840E-01 0.12500217E+03</pdfrwt>
<pdfrwt beam="1">  1       -4 0.46368892E-02 0.12500217E+03</pdfrwt>
<totfact> 0.97386502E+03</totfact>
</mgrwt>
</event>
<event>
 5    1  0.3270363E-002  0.1250019E+03  0.7818608E-02  0.1235066E+00
          4   -1    0    0  501    0  0.00000000000E+00  0.00000000000E+00  0.12973793819E+03  0.12974415403E+03  0.12700000000E+01 0. -1.
         -4   -1    0    0    0  501 -0.00000000000E+00 -0.00000000000E+00 -0.30089367994E+02  0.30116157894E+02  0.12700000000E+01 0. -1.
         25    2    1    2    0    0  0.00000000000E+00  0.00000000000E+00  0.99648570196E+02  0.15986031193E+03  0.12500192713E+03 0.  0.
    9000005    1    3    3    0    0  0.21246749282E+02 -0.22580477908E+02 -0.19565872523E+02  0.36675955410E+02  0.10000000000E+01 0.  0.
    9000005    1    3    3    0    0 -0.21246749282E+02  0.22580477908E+02  0.11921444272E+03  0.12318435652E+03  0.10000000000E+01 0.  0.
<mgrwt>
<rscale>  0 0.12500193E+03</rscale>
<asrwt>0</asrwt>
<pdfrwt beam="1">  1        4 0.19962222E-01 0.12500193E+03</pdfrwt>
<pdfrwt beam="2">  1       -4 0.46316724E-02 0.12500193E+03</pdfrwt>
<totfact> 0.97365504E+03</totfact>
</mgrwt>
</event>
<event>
 5    1  0.3270363E-002  0.1250023E+03  0.7818608E-02  0.1235066E+00
         -4   -1    0    0    0  501 -0.00000000000E+00  0.00000000000E+00  0.17290007425E+03  0.17290473845E+03  0.12700000000E+01 0.  1.
          4   -1    0    0  501    0  0.00000000000E+00 -0.00000000000E+00 -0.22570526752E+02  0.22606228741E+02  0.12700000000E+01 0.  1.
         25    2    1    2    0    0  0.00000000000E+00  0.00000000000E+00  0.15032954750E+03  0.19551096719E+03  0.12500226173E+03 0.  0.
    9000005    1    3    3    0    0  0.54493509632E+02  0.11610989746E+02  0.11943162618E+03  0.13179253016E+03  0.10000000000E+01 0.  0.
    9000005    1    3    3    0    0 -0.54493509632E+02 -0.11610989746E+02  0.30897921324E+02  0.63718437026E+02  0.10000000000E+01 0.  0.
<mgrwt>
<rscale>  0 0.12500226E+03</rscale>
<asrwt>0</asrwt>
<pdfrwt beam="2">  1        4 0.34754937E-02 0.12500226E+03</pdfrwt>
<pdfrwt beam="1">  1       -4 0.26603117E-01 0.12500226E+03</pdfrwt>
<totfact> 0.90892564E+03</totfact>
</mgrwt>
</event>
<event>
 5    1  0.3270363E-002  0.1249998E+03  0.7818608E-02  0.1235070E+00
          4   -1    0    0  501    0  0.00000000000E+00  0.00000000000E+00  0.95652175452E+03  0.95652259763E+03  0.12700000000E+01 0. -1.
         -4   -1    0    0    0  501 -0.00000000000E+00 -0.00000000000E+00 -0.39841919342E+01  0.41817084270E+01  0.12700000000E+01 0. -1.
         25    2    1    2    0    0  0.00000000000E+00  0.00000000000E+00  0.95253756259E+03  0.96070430605E+03  0.12499982213E+03 0.  0.
    9000005    1    3    3    0    0  0.27666201933E+02 -0.29712691581E+02  0.84139567598E+03  0.84237518145E+03  0.10000000000E+01 0.  0.
    9000005    1    3    3    0    0 -0.27666201933E+02  0.29712691581E+02  0.11114188661E+03  0.11832912460E+03  0.10000000000E+01 0.  0.
<mgrwt>
<rscale>  0 0.12499982E+03</rscale>
<asrwt>0</asrwt>
<pdfrwt beam="1">  1        4 0.14717252E+00 0.12499982E+03</pdfrwt>
<pdfrwt beam="2">  1       -4 0.62821073E-03 0.12499982E+03</pdfrwt>
<totfact> 0.31939055E+03</totfact>
</mgrwt>
</event>
<event>
 5    1  0.3270363E-002  0.1249942E+03  0.7818608E-02  0.1235078E+00
         -4   -1    0    0    0  501 -0.00000000000E+00  0.00000000000E+00  0.69606941859E+03  0.69607057717E+03  0.12700000000E+01 0.  1.
          4   -1    0    0  501    0  0.00000000000E+00 -0.00000000000E+00 -0.55383127366E+01  0.56820601869E+01  0.12700000000E+01 0.  1.
         25    2    1    2    0    0  0.00000000000E+00  0.00000000000E+00  0.69053110586E+03  0.70175263736E+03  0.12499422339E+03 0.  0.
    9000005    1    3    3    0    0  0.44218453651E+02  0.43576573511E+02  0.30528983793E+03  0.31153984423E+03  0.10000000000E+01 0.  0.
    9000005    1    3    3    0    0 -0.44218453651E+02 -0.43576573511E+02  0.38524126793E+03  0.39021279312E+03  0.10000000000E+01 0.  0.
<mgrwt>
<rscale>  0 0.12499422E+03</rscale>
<asrwt>0</asrwt>
<pdfrwt beam="2">  1        4 0.86319496E-03 0.12499422E+03</pdfrwt>
<pdfrwt beam="1">  1       -4 0.10709872E+00 0.12499422E+03</pdfrwt>
<totfact> 0.42999776E+03</totfact>
</mgrwt>
</event>
<event>
 5    1  0.3270363E-002  0.1250009E+03  0.7818608E-02  0.1235068E+00
          4   -1    0    0  501    0  0.00000000000E+00  0.00000000000E+00  0.79071499422E+03  0.79071601412E+03  0.12700000000E+01 0.  1.
         -4   -1    0    0    0  501 -0.00000000000E+00 -0.00000000000E+00 -0.48575612474E+01  0.50208367104E+01  0.12700000000E+01 0.  1.
         25    2    1    2    0    0  0.00000000000E+00  0.00000000000E+00  0.78585743297E+03  0.79573685083E+03  0.12500092324E+03 0.  0.
    9000005    1    3    3    0    0  0.23844052405E+02 -0.57436439611E+02  0.43207959757E+03  0.43653323134E+03  0.10000000000E+01 0.  0.
    9000005    1    3    3    0    0 -0.23844052405E+02  0.57436439611E+02  0.35377783541E+03  0.35920361949E+03  0.10000000000E+01 0.  0.
<mgrwt>
<rscale>  0 0.12500092E+03</rscale>
<asrwt>0</asrwt>
<pdfrwt beam="1">  1        4 0.12166106E+00 0.12500092E+03</pdfrwt>
<pdfrwt beam="2">  1       -4 0.75995547E-03 0.12500092E+03</pdfrwt>
<totfact> 0.38454989E+03</totfact>
</mgrwt>
</event>
<event>
 5    1  0.3270363E-002  0.1250048E+03  0.7818608E-02  0.1235062E+00
         -4   -1    0    0    0  501 -0.00000000000E+00  0.00000000000E+00  0.14462862154E+03  0.14463419743E+03  0.12700000000E+01 0. -1.
          4   -1    0    0  501    0  0.00000000000E+00 -0.00000000000E+00 -0.26989857514E+02  0.27019720735E+02  0.12700000000E+01 0. -1.
         25    2    1    2    0    0  0.00000000000E+00  0.00000000000E+00  0.11763876402E+03  0.17165391817E+03  0.12500475520E+03 0.  0.
    9000005    1    3    3    0    0  0.17971344462E+01 -0.71708739665E+01  0.14403281981E+03  0.14422587947E+03  0.10000000000E+01 0.  0.
    9000005    1    3    3    0    0 -0.17971344462E+01  0.71708739665E+01 -0.26394055792E+02  0.27428038698E+02  0.10000000000E+01 0.  0.
<mgrwt>
<rscale>  0 0.12500476E+03</rscale>
<asrwt>0</asrwt>
<pdfrwt beam="2">  1        4 0.41550119E-02 0.12500476E+03</pdfrwt>
<pdfrwt beam="1">  1       -4 0.22253283E-01 0.12500476E+03</pdfrwt>
<totfact> 0.95131112E+03</totfact>
</mgrwt>
</event>
<event>
 5    1  0.3270363E-002  0.1249920E+03  0.7818608E-02  0.1235082E+00
          4   -1    0    0  501    0  0.00000000000E+00  0.00000000000E+00  0.24476840828E+03  0.24477170300E+03  0.12700000000E+01 0. -1.
         -4   -1    0    0    0  501 -0.00000000000E+00 -0.00000000000E+00 -0.15928253560E+02  0.15978803506E+02  0.12700000000E+01 0. -1.
         25    2    1    2    0    0  0.00000000000E+00  0.00000000000E+00  0.22884015472E+03  0.26075050651E+03  0.12499204068E+03 0.  0.
    9000005    1    3    3    0    0 -0.18534500887E+02  0.42724840769E+02  0.20133497988E+03  0.20665360840E+03  0.10000000000E+01 0.  0.
    9000005    1    3    3    0    0  0.18534500887E+02 -0.42724840769E+02  0.27505174834E+02  0.54096898105E+02  0.10000000000E+01 0.  0.
<mgrwt>
<rscale>  0 0.12499204E+03</rscale>
<asrwt>0</asrwt>
<pdfrwt beam="1">  1        4 0.37660819E-01 0.12499204E+03</pdfrwt>
<pdfrwt beam="2">  1       -4 0.24546425E-02 0.12499204E+03</pdfrwt>
<totfact> 0.80815170E+03</totfact>
</mgrwt>
</event>
<event>
 5    1  0.3270363E-002  0.1249930E+03  0.7818608E-02  0.1235080E+00
          4   -1    0    0  501    0  0.00000000000E+00  0.00000000000E+00  0.68872730838E+02  0.68884439122E+02  0.12700000000E+01 0.  1.
         -4   -1    0    0    0  501 -0.00000000000E+00 -0.00000000000E+00 -0.56686972015E+02  0.56701196604E+02  0.12700000000E+01 0.  1.
         25    2    1    2    0    0  0.00000000000E+00  0.00000000000E+00  0.12185758823E+02  0.12558563573E+03  0.12499303654E+03 0.  0.
    9000005    1    3    3    0    0 -0.61366244885E+02  0.80807575269E+00 -0.57249341952E+01  0.61646118038E+02  0.10000000000E+01 0.  0.
    9000005    1    3    3    0    0  0.61366244885E+02 -0.80807575269E+00  0.17910693018E+02  0.63939517687E+02  0.10000000000E+01 0.  0.
<mgrwt>
<rscale>  0 0.12499304E+03</rscale>
<asrwt>0</asrwt>
<pdfrwt beam="1">  1        4 0.10597800E-01 0.12499304E+03</pdfrwt>
<pdfrwt beam="2">  1       -4 0.87230674E-02 0.12499304E+03</pdfrwt>
<totfact> 0.10441704E+04</totfact>
</mgrwt>
</event>
<event>
 5    1  0.3270363E-002  0.1249998E+03  0.7818608E-02  0.1235070E+00
          4   -1    0    0  501    0  0.00000000000E+00  0.00000000000E+00  0.38385675893E+03  0.38385885984E+03  0.12700000000E+01 0. -1.
         -4   -1    0    0    0  501 -0.00000000000E+00 -0.00000000000E+00 -0.10134532371E+02  0.10213796864E+02  0.12700000000E+01 0. -1.
         25    2    1    2    0    0  0.00000000000E+00  0.00000000000E+00  0.37372222656E+03  0.39407265670E+03  0.12499982454E+03 0.  0.
    9000005    1    3    3    0    0  0.33520784915E+02 -0.51175211607E+02  0.22707280143E+03  0.23517143206E+03  0.10000000000E+01 0.  0.
    9000005    1    3    3    0    0 -0.33520784915E+02  0.51175211607E+02  0.14664942512E+03  0.15890122464E+03  0.10000000000E+01 0.  0.
<mgrwt>
<rscale>  0 0.12499982E+03</rscale>
<asrwt>0</asrwt>
<pdfrwt beam="1">  1        4 0.59061141E-01 0.12499982E+03</pdfrwt>
<pdfrwt beam="2">  1       -4 0.15654178E-02 0.12499982E+03</pdfrwt>
<totfact> 0.65133640E+03</totfact>
</mgrwt>
</event>
<event>
 5    1  0.3270363E-002  0.1250017E+03  0.7818608E-02  0.1235067E+00
         -4   -1    0    0    0  501 -0.00000000000E+00  0.00000000000E+00  0.99216435881E+03  0.99216517163E+03  0.12700000000E+01 0. -1.
          4   -1    0    0  501    0  0.00000000000E+00 -0.00000000000E+00 -0.38339579799E+01  0.40388282697E+01  0.12700000000E+01 0. -1.
         25    2    1    2    0    0  0.00000000000E+00  0.00000000000E+00  0.98833040083E+03  0.99620399990E+03  0.12500171282E+03 0.  0.
    9000005    1    3    3    0    0 -0.49225709097E+02 -0.31501974086E+02  0.31778609478E+03  0.32311692442E+03  0.10000000000E+01 0.  0.
    9000005    1    3    3    0    0  0.49225709097E+02  0.31501974086E+02  0.67054430604E+03  0.67308707548E+03  0.10000000000E+01 0.  0.
<mgrwt>
<rscale>  0 0.12500171E+03</rscale>
<asrwt>0</asrwt>
<pdfrwt beam="2">  1        4 0.60566004E-03 0.12500171E+03</pdfrwt>
<pdfrwt beam="1">  1       -4 0.15265685E+00 0.12500171E+03</pdfrwt>
<totfact> 0.30728924E+03</totfact>
</mgrwt>
</event>
<event>
 5    1  0.3270363E-002  0.1250011E+03  0.7818608E-02  0.1235068E+00
         -4   -1    0    0    0  501 -0.00000000000E+00  0.00000000000E+00  0.75064143063E+02  0.75074885773E+02  0.12700000000E+01 0. -1.
          4   -1    0    0  501    0  0.00000000000E+00 -0.00000000000E+00 -0.52017543921E+02  0.52033045035E+02  0.12700000000E+01 0. -1.
         25    2    1    2    0    0  0.00000000000E+00  0.00000000000E+00  0.23046599142E+02  0.12710793081E+03  0.12500112136E+03 0.  0.
    9000005    1    3    3    0    0  0.33439523591E+02 -0.24365527586E+02  0.59146827140E+02  0.72188834547E+02  0.10000000000E+01 0.  0.
    9000005    1    3    3    0    0 -0.33439523591E+02  0.24365527586E+02 -0.36100227998E+02  0.54919096260E+02  0.10000000000E+01 0.  0.
<mgrwt>
<rscale>  0 0.12500112E+03</rscale>
<asrwt>0</asrwt>
<pdfrwt beam="2">  1        4 0.80047179E-02 0.12500112E+03</pdfrwt>
<pdfrwt beam="1">  1       -4 0.11550348E-01 0.12500112E+03</pdfrwt>
<totfact> 0.10406538E+04</totfact>
</mgrwt>
</event>
<event>
 5    1  0.3270363E-002  0.1249971E+03  0.7818608E-02  0.1235074E+00
         -4   -1    0    0    0  501 -0.00000000000E+00  0.00000000000E+00  0.18187515862E+03  0.18187959265E+03  0.12700000000E+01 0.  1.
          4   -1    0    0  501    0  0.00000000000E+00 -0.00000000000E+00 -0.21453158995E+02  0.21490717318E+02  0.12700000000E+01 0.  1.
         25    2    1    2    0    0  0.00000000000E+00  0.00000000000E+00  0.16042199962E+03  0.20337030997E+03  0.12499706002E+03 0.  0.
    9000005    1    3    3    0    0 -0.47667110152E+02  0.21487938103E+02  0.13589107738E+03  0.14560655819E+03  0.10000000000E+01 0.  0.
    9000005    1    3    3    0    0  0.47667110152E+02 -0.21487938103E+02  0.24530922241E+02  0.57763751784E+02  0.10000000000E+01 0.  0.
<mgrwt>
<rscale>  0 0.12499706E+03</rscale>
<asrwt>0</asrwt>
<pdfrwt beam="2">  1        4 0.33037164E-02 0.12499706E+03</pdfrwt>
<pdfrwt beam="1">  1       -4 0.27984022E-01 0.12499706E+03</pdfrwt>
<totfact> 0.89576065E+03</totfact>
</mgrwt>
</event>
<event>
 5    1  0.3270363E-002  0.1249950E+03  0.7818608E-02  0.1235077E+00
         -4   -1    0    0    0  501 -0.00000000000E+00  0.00000000000E+00  0.40285297994E+02  0.40305311492E+02  0.12700000000E+01 0. -1.
          4   -1    0    0  501    0  0.00000000000E+00 -0.00000000000E+00 -0.96908625888E+02  0.96916947287E+02  0.12700000000E+01 0. -1.
         25    2    1    2    0    0  0.00000000000E+00  0.00000000000E+00 -0.56623327894E+02  0.13722225878E+03  0.12499498807E+03 0.  0.
    9000005    1    3    3    0    0 -0.63158026854E+01 -0.11096854463E+02  0.38843354361E+02  0.40900314430E+02  0.10000000000E+01 0.  0.
    9000005    1    3    3    0    0  0.63158026854E+01  0.11096854463E+02 -0.95466682254E+02  0.96321944349E+02  0.10000000000E+01 0.  0.
<mgrwt>
<rscale>  0 0.12499499E+03</rscale>
<asrwt>0</asrwt>
<pdfrwt beam="2">  1        4 0.14911199E-01 0.12499499E+03</pdfrwt>
<pdfrwt beam="1">  1       -4 0.61999178E-02 0.12499499E+03</pdfrwt>
<totfact> 0.10192592E+04</totfact>
</mgrwt>
</event>
<event>
 5    1  0.3270363E-002  0.1250004E+03  0.7818608E-02  0.1235069E+00
         -4   -1    0    0    0  501 -0.00000000000E+00  0.00000000000E+00  0.73622904378E+02  0.73633857355E+02  0.12700000000E+01 0. -1.
          4   -1    0    0  501    0  0.00000000000E+00 -0.00000000000E+00 -0.53035401405E+02  0.53050605107E+02  0.12700000000E+01 0. -1.
         25    2    1    2    0    0  0.00000000000E+00  0.00000000000E+00  0.20587502973E+02  0.12668446246E+03  0.12500043100E+03 0.  0.
    9000005    1    3    3    0    0 -0.14770762870E+02  0.13397599706E+02  0.70316687325E+02  0.73096563735E+02  0.10000000000E+01 0.  0.
    9000005    1    3    3    0    0  0.14770762870E+02 -0.13397599706E+02 -0.49729184352E+02  0.53587898726E+02  0.10000000000E+01 0.  0.
<mgrwt>
<rscale>  0 0.12500043E+03</rscale>
<asrwt>0</asrwt>
<pdfrwt beam="2">  1        4 0.81613046E-02 0.12500043E+03</pdfrwt>
<pdfrwt beam="1">  1       -4 0.11328613E-01 0.12500043E+03</pdfrwt>
<totfact> 0.10415907E+04</totfact>
</mgrwt>
</event>
<event>
 5    1  0.3270363E-002  0.1249993E+03  0.7818608E-02  0.1235070E+00
         -4   -1    0    0    0  501 -0.00000000000E+00  0.00000000000E+00  0.45410008946E+02  0.45427764776E+02  0.12700000000E+01 0. -1.
          4   -1    0    0  501    0  0.00000000000E+00 -0.00000000000E+00 -0.85981570458E+02  0.85990949282E+02  0.12700000000E+01 0. -1.
         25    2    1    2    0    0  0.00000000000E+00  0.00000000000E+00 -0.40571561512E+02  0.13141871406E+03  0.12499930720E+03 0.  0.
    9000005    1    3    3    0    0  0.53521039102E+02 -0.31750995308E+02 -0.26286743809E+02  0.67561973252E+02  0.10000000000E+01 0.  0.
    9000005    1    3    3    0    0 -0.53521039102E+02  0.31750995308E+02 -0.14284817703E+02  0.63856740806E+02  0.10000000000E+01 0.  0.
<mgrwt>
<rscale>  0 0.12499931E+03</rscale>
<asrwt>0</asrwt>
<pdfrwt beam="2">  1        4 0.13230021E-01 0.12499931E+03</pdfrwt>
<pdfrwt beam="1">  1       -4 0.69882425E-02 0.12499931E+03</pdfrwt>
<totfact> 0.10314282E+04</totfact>
</mgrwt>
</event>
<event>
 5    1  0.3270363E-002  0.1250081E+03  0.7818608E-02  0.1235057E+00
         -4   -1    0    0    0  501 -0.00000000000E+00  0.00000000000E+00  0.90299594044E+02  0.90308524429E+02  0.12700000000E+01 0. -1.
          4   -1    0    0  501    0  0.00000000000E+00 -0.00000000000E+00 -0.43243995332E+02  0.43262640145E+02  0.12700000000E+01 0. -1.
         25    2    1    2    0    0  0.00000000000E+00  0.00000000000E+00  0.47055598712E+02  0.13357116457E+03  0.12500810628E+03 0.  0.
    9000005    1    3    3    0    0  0.57539312315E+02  0.91355899376E+01  0.47693981836E+02  0.75299052906E+02  0.10000000000E+01 0.  0.
    9000005    1    3    3    0    0 -0.57539312315E+02 -0.91355899376E+01 -0.63838312420E+00  0.58272111668E+02  0.10000000000E+01 0.  0.
<mgrwt>
<rscale>  0 0.12500811E+03</rscale>
<asrwt>0</asrwt>
<pdfrwt beam="2">  1        4 0.66550436E-02 0.12500811E+03</pdfrwt>
<pdfrwt beam="1">  1       -4 0.13894366E-01 0.12500811E+03</pdfrwt>
<totfact> 0.10266398E+04</totfact>
</mgrwt>
</event>
<event>
 5    1  0.3270363E-002  0.1249977E+03  0.7818608E-02  0.1235073E+00
          4   -1    0    0  501    0  0.00000000000E+00  0.00000000000E+00  0.62695091230E+03  0.62695219861E+03  0.12700000000E+01 0.  1.
         -4   -1    0    0    0  501 -0.00000000000E+00 -0.00000000000E+00 -0.61642990945E+01  0.62937654330E+01  0.12700000000E+01 0.  1.
         25    2    1    2    0    0  0.00000000000E+00  0.00000000000E+00  0.62078661321E+03  0.63324596404E+03  0.12499772731E+03 0.  0.
    9000005    1    3    3    0    0 -0.55590790008E+02  0.18834471869E+02  0.41905228227E+03  0.42314405176E+03  0.10000000000E+01 0.  0.
    9000005    1    3    3    0    0  0.55590790008E+02 -0.18834471869E+02  0.20173433094E+03  0.21010191228E+03  0.10000000000E+01 0.  0.
<mgrwt>
<rscale>  0 0.12499773E+03</rscale>
<asrwt>0</asrwt>
<pdfrwt beam="1">  1        4 0.96464060E-01 0.12499773E+03</pdfrwt>
<pdfrwt beam="2">  1       -4 0.95841145E-03 0.12499773E+03</pdfrwt>
<totfact> 0.46836425E+03</totfact>
</mgrwt>
</event>
<event>
 5    1  0.3270363E-002  0.1250003E+03  0.7818608E-02  0.1235069E+00
          4   -1    0    0  501    0  0.00000000000E+00  0.00000000000E+00  0.14539560143E+02  0.14594920663E+02  0.12700000000E+01 0. -1.
         -4   -1    0    0    0  501 -0.00000000000E+00 -0.00000000000E+00 -0.26809756856E+03  0.26810057659E+03  0.12700000000E+01 0. -1.
         25    2    1    2    0    0  0.00000000000E+00  0.00000000000E+00 -0.25355800841E+03  0.28269549725E+03  0.12500032214E+03 0.  0.
    9000005    1    3    3    0    0 -0.29608155353E+02  0.11696178106E+02 -0.51621152670E+01  0.32265939932E+02  0.10000000000E+01 0.  0.
    9000005    1    3    3    0    0  0.29608155353E+02 -0.11696178106E+02 -0.24839589315E+03  0.25042955732E+03  0.10000000000E+01 0.  0.
<mgrwt>
<rscale>  0 0.12500032E+03</rscale>
<asrwt>0</asrwt>
<pdfrwt beam="1">  1        4 0.22413455E-02 0.12500032E+03</pdfrwt>
<pdfrwt beam="2">  1       -4 0.41250266E-01 0.12500032E+03</pdfrwt>
<totfact> 0.77821499E+03</totfact>
</mgrwt>
</event>
<event>
 5    1  0.3270363E-002  0.1249985E+03  0.7818608E-02  0.1235072E+00
         -4   -1    0    0    0  501 -0.00000000000E+00  0.00000000000E+00  0.57272634945E+02  0.57286714110E+02  0.12700000000E+01 0.  1.
          4   -1    0    0  501    0  0.00000000000E+00 -0.00000000000E+00 -0.68174438329E+02  0.68186266517E+02  0.12700000000E+01 0.  1.
         25    2    1    2    0    0  0.00000000000E+00  0.00000000000E+00 -0.10901803385E+02  0.12547298063E+03  0.12499847819E+03 0.  0.
    9000005    1    3    3    0    0 -0.54389570717E+02  0.27774561179E+02  0.78471511246E+01  0.61581080149E+02  0.10000000000E+01 0.  0.
    9000005    1    3    3    0    0  0.54389570717E+02 -0.27774561179E+02 -0.18748954509E+02  0.63891900478E+02  0.10000000000E+01 0.  0.
<mgrwt>
<rscale>  0 0.12499848E+03</rscale>
<asrwt>0</asrwt>
<pdfrwt beam="2">  1        4 0.10490368E-01 0.12499848E+03</pdfrwt>
<pdfrwt beam="1">  1       -4 0.88131675E-02 0.12499848E+03</pdfrwt>
<totfact> 0.10442910E+04</totfact>
</mgrwt>
</event>
<event>
 4    1  0.3270363E-002  0.1269122E+03  0.7818608E-02  0.1232111E+00
         -4   -1    0    0    0  501 -0.00000000000E+00  0.00000000000E+00  0.86691823846E+01  0.87617134864E+01  0.12700000000E+01 0.  1.
          4   -1    0    0  501    0  0.00000000000E+00 -0.00000000000E+00 -0.46192281038E+03  0.46192455623E+03  0.12700000000E+01 0.  1.
    9000005    1    1    2    0    0 -0.55081759224E+02  0.30938434941E+02 -0.20484554683E+03  0.21436857281E+03  0.10000000000E+01 0.  0.
    9000005    1    1    2    0    0  0.55081759224E+02 -0.30938434941E+02 -0.24840808117E+03  0.25631769691E+03  0.10000000000E+01 0.  0.
<mgrwt>
<rscale>  0 0.12691223E+03</rscale>
<asrwt>0</asrwt>
<pdfrwt beam="2">  1        4 0.71072281E-01 0.12691223E+03</pdfrwt>
<pdfrwt beam="1">  1       -4 0.13409728E-02 0.12691223E+03</pdfrwt>
<totfact> 0.55829259E+03</totfact>
</mgrwt>
</event>
<event>
 5    1  0.3270363E-002  0.1249792E+03  0.7818608E-02  0.1235102E+00
          4   -1    0    0  501    0  0.00000000000E+00  0.00000000000E+00  0.43230804893E+02  0.43249455392E+02  0.12700000000E+01 0. -1.
         -4   -1    0    0    0  501 -0.00000000000E+00 -0.00000000000E+00 -0.90285375756E+02  0.90294307548E+02  0.12700000000E+01 0. -1.
         25    2    1    2    0    0  0.00000000000E+00  0.00000000000E+00 -0.47054570863E+02  0.13354376294E+03  0.12497921420E+03 0.  0.
    9000005    1    3    3    0    0 -0.43543225910E+02 -0.17474776588E+02  0.20562541258E+02  0.51236690394E+02  0.10000000000E+01 0.  0.
    9000005    1    3    3    0    0  0.43543225910E+02  0.17474776588E+02 -0.67617112121E+02  0.82307072546E+02  0.10000000000E+01 0.  0.
<mgrwt>
<rscale>  0 0.12497921E+03</rscale>
<asrwt>0</asrwt>
<pdfrwt beam="1">  1        4 0.66530148E-02 0.12497921E+03</pdfrwt>
<pdfrwt beam="2">  1       -4 0.13892180E-01 0.12497921E+03</pdfrwt>
<totfact> 0.10273673E+04</totfact>
</mgrwt>
</event>
<event>
 5    1  0.3270363E-002  0.1249998E+03  0.7818608E-02  0.1235070E+00
         -4   -1    0    0    0  501 -0.00000000000E+00  0.00000000000E+00  0.55180026678E+02  0.55194639633E+02  0.12700000000E+01 0. -1.
          4   -1    0    0  501    0  0.00000000000E+00 -0.00000000000E+00 -0.70761085738E+02  0.70772481621E+02  0.12700000000E+01 0. -1.
         25    2    1    2    0    0  0.00000000000E+00  0.00000000000E+00 -0.15581059060E+02  0.12596712125E+03  0.12499978494E+03 0.  0.
    9000005    1    3    3    0    0 -0.10288060412E+02  0.47503835481E+02 -0.47372704601E+02  0.67879538255E+02  0.10000000000E+01 0.  0.
    9000005    1    3    3    0    0  0.10288060412E+02 -0.47503835481E+02  0.31791645541E+02  0.58087582999E+02  0.10000000000E+01 0.  0.
<mgrwt>
<rscale>  0 0.12499978E+03</rscale>
<asrwt>0</asrwt>
<pdfrwt beam="2">  1        4 0.10888322E-01 0.12499978E+03</pdfrwt>
<pdfrwt beam="1">  1       -4 0.84912355E-02 0.12499978E+03</pdfrwt>
<totfact> 0.10431728E+04</totfact>
</mgrwt>
</event>
<event>
 5    1  0.3270363E-002  0.1250033E+03  0.7818608E-02  0.1235064E+00
         -4   -1    0    0    0  501 -0.00000000000E+00  0.00000000000E+00  0.29465943806E+01  0.32086318648E+01  0.12700000000E+01 0. -1.
          4   -1    0    0  501    0  0.00000000000E+00 -0.00000000000E+00 -0.12690512255E+04  0.12690518609E+04  0.12700000000E+01 0. -1.
         25    2    1    2    0    0  0.00000000000E+00  0.00000000000E+00 -0.12661046311E+04  0.12722604928E+04  0.12500329875E+03 0.  0.
    9000005    1    3    3    0    0  0.59444709294E+02  0.17832903905E+02 -0.70768440384E+03  0.71040122562E+03  0.10000000000E+01 0.  0.
    9000005    1    3    3    0    0 -0.59444709294E+02 -0.17832903905E+02 -0.55842022724E+03  0.56185926718E+03  0.10000000000E+01 0.  0.
<mgrwt>
<rscale>  0 0.12500330E+03</rscale>
<asrwt>0</asrwt>
<pdfrwt beam="2">  1        4 0.19525844E+00 0.12500330E+03</pdfrwt>
<pdfrwt beam="1">  1       -4 0.47352884E-03 0.12500330E+03</pdfrwt>
<totfact> 0.22891251E+03</totfact>
</mgrwt>
</event>
<event>
 5    1  0.3270363E-002  0.1250451E+03  0.7818608E-02  0.1234999E+00
          4   -1    0    0  501    0  0.00000000000E+00  0.00000000000E+00  0.37399478370E+03  0.37399694001E+03  0.12700000000E+01 0. -1.
         -4   -1    0    0    0  501 -0.00000000000E+00 -0.00000000000E+00 -0.10411425541E+02  0.10488597704E+02  0.12700000000E+01 0. -1.
         25    2    1    2    0    0  0.00000000000E+00  0.00000000000E+00  0.36358335816E+03  0.38448553771E+03  0.12504507339E+03 0.  0.
    9000005    1    3    3    0    0  0.25996006453E+02  0.55983993936E+02  0.15134244711E+03  0.16344887955E+03  0.10000000000E+01 0.  0.
    9000005    1    3    3    0    0 -0.25996006453E+02 -0.55983993936E+02  0.21224091105E+03  0.22103665816E+03  0.10000000000E+01 0.  0.
<mgrwt>
<rscale>  0 0.12504507E+03</rscale>
<asrwt>0</asrwt>
<pdfrwt beam="1">  1        4 0.57543749E-01 0.12504507E+03</pdfrwt>
<pdfrwt beam="2">  1       -4 0.16078603E-02 0.12504507E+03</pdfrwt>
<totfact> 0.66024442E+03</totfact>
</mgrwt>
</event>
<event>
 5    1  0.3270363E-002  0.1250019E+03  0.7818608E-02  0.1235066E+00
         -4   -1    0    0    0  501 -0.00000000000E+00  0.00000000000E+00  0.41308480226E+01  0.43216669684E+01  0.12700000000E+01 0.  1.
          4   -1    0    0  501    0  0.00000000000E+00 -0.00000000000E+00 -0.92411815493E+03  0.92411902760E+03  0.12700000000E+01 0.  1.
         25    2    1    2    0    0  0.00000000000E+00  0.00000000000E+00 -0.91998730690E+03  0.92844069456E+03  0.12500191382E+03 0.  0.
    9000005    1    3    3    0    0  0.11534332371E+02  0.21571413148E+02 -0.88711846004E+03  0.88745621235E+03  0.10000000000E+01 0.  0.
    9000005    1    3    3    0    0 -0.11534332371E+02 -0.21571413148E+02 -0.32868846859E+02  0.40984482213E+02  0.10000000000E+01 0.  0.
<mgrwt>
<rscale>  0 0.12500191E+03</rscale>
<asrwt>0</asrwt>
<pdfrwt beam="2">  1        4 0.14218661E+00 0.12500191E+03</pdfrwt>
<pdfrwt beam="1">  1       -4 0.65026133E-03 0.12500191E+03</pdfrwt>
<totfact> 0.33092643E+03</totfact>
</mgrwt>
</event>
<event>
 5    1  0.3270363E-002  0.1250007E+03  0.7818608E-02  0.1235068E+00
          4   -1    0    0  501    0  0.00000000000E+00  0.00000000000E+00  0.12965510021E+03  0.12966132003E+03  0.12700000000E+01 0. -1.
         -4   -1    0    0    0  501 -0.00000000000E+00 -0.00000000000E+00 -0.30108036676E+02  0.30134809979E+02  0.12700000000E+01 0. -1.
         25    2    1    2    0    0  0.00000000000E+00  0.00000000000E+00  0.99547063536E+02  0.15979613000E+03  0.12500074122E+03 0.  0.
    9000005    1    3    3    0    0  0.36315850998E+02 -0.15595179574E+02  0.11165528081E+03  0.11844810000E+03  0.10000000000E+01 0.  0.
    9000005    1    3    3    0    0 -0.36315850998E+02  0.15595179574E+02 -0.12108217279E+02  0.41348030006E+02  0.10000000000E+01 0.  0.
<mgrwt>
<rscale>  0 0.12500074E+03</rscale>
<asrwt>0</asrwt>
<pdfrwt beam="1">  1        4 0.19949476E-01 0.12500074E+03</pdfrwt>
<pdfrwt beam="2">  1       -4 0.46345436E-02 0.12500074E+03</pdfrwt>
<totfact> 0.97380481E+03</totfact>
</mgrwt>
</event>
<event>
 5    1  0.3270363E-002  0.1250049E+03  0.7818608E-02  0.1235062E+00
          4   -1    0    0  501    0  0.00000000000E+00  0.00000000000E+00  0.96483225184E+02  0.96491583270E+02  0.12700000000E+01 0.  1.
         -4   -1    0    0    0  501 -0.00000000000E+00 -0.00000000000E+00 -0.40469411692E+02  0.40489334185E+02  0.12700000000E+01 0.  1.
         25    2    1    2    0    0  0.00000000000E+00  0.00000000000E+00  0.56013813492E+02  0.13698091745E+03  0.12500489768E+03 0.  0.
    9000005    1    3    3    0    0  0.23720152475E+02  0.38818801659E+02 -0.18946887742E+02  0.49290258173E+02  0.10000000000E+01 0.  0.
    9000005    1    3    3    0    0 -0.23720152475E+02 -0.38818801659E+02  0.74960701234E+02  0.87690659281E+02  0.10000000000E+01 0.  0.
<mgrwt>
<rscale>  0 0.12500490E+03</rscale>
<asrwt>0</asrwt>
<pdfrwt beam="1">  1        4 0.14845748E-01 0.12500490E+03</pdfrwt>
<pdfrwt beam="2">  1       -4 0.62282388E-02 0.12500490E+03</pdfrwt>
<totfact> 0.10195359E+04</totfact>
</mgrwt>
</event>
<event>
 5    1  0.3270363E-002  0.1249981E+03  0.7818608E-02  0.1235072E+00
          4   -1    0    0  501    0  0.00000000000E+00  0.00000000000E+00  0.32563250559E+02  0.32588006796E+02  0.12700000000E+01 0.  1.
         -4   -1    0    0    0  501 -0.00000000000E+00 -0.00000000000E+00 -0.11988155323E+03  0.11988828010E+03  0.12700000000E+01 0.  1.
         25    2    1    2    0    0  0.00000000000E+00  0.00000000000E+00 -0.87318302669E+02  0.15247628689E+03  0.12499812832E+03 0.  0.
    9000005    1    3    3    0    0  0.33435775009E+02 -0.78510660767E+01  0.20024109824E+02  0.39768772463E+02  0.10000000000E+01 0.  0.
    9000005    1    3    3    0    0 -0.33435775009E+02  0.78510660767E+01 -0.10734241249E+03  0.11270751443E+03  0.10000000000E+01 0.  0.
<mgrwt>
<rscale>  0 0.12499813E+03</rscale>
<asrwt>0</asrwt>
<pdfrwt beam="1">  1        4 0.50121527E-02 0.12499813E+03</pdfrwt>
<pdfrwt beam="2">  1       -4 0.18445737E-01 0.12499813E+03</pdfrwt>
<totfact> 0.98816520E+03</totfact>
</mgrwt>
</event>
<event>
 5    1  0.3270363E-002  0.1249998E+03  0.7818608E-02  0.1235070E+00
          4   -1    0    0  501    0  0.00000000000E+00  0.00000000000E+00  0.35119654873E+03  0.35119884501E+03  0.12700000000E+01 0. -1.
         -4   -1    0    0    0  501 -0.00000000000E+00 -0.00000000000E+00 -0.11084061296E+02  0.11156581682E+02  0.12700000000E+01 0. -1.
         25    2    1    2    0    0  0.00000000000E+00  0.00000000000E+00  0.34011248743E+03  0.36235542669E+03  0.12499980459E+03 0.  0.
    9000005    1    3    3    0    0  0.43868810894E+02 -0.42514840015E+02  0.13189991648E+03  0.14536358608E+03  0.10000000000E+01 0.  0.
    9000005    1    3    3    0    0 -0.43868810894E+02  0.42514840015E+02  0.20821257095E+03  0.21699184061E+03  0.10000000000E+01 0.  0.
<mgrwt>
<rscale>  0 0.12499980E+03</rscale>
<asrwt>0</asrwt>
<pdfrwt beam="1">  1        4 0.54035982E-01 0.12499980E+03</pdfrwt>
<pdfrwt beam="2">  1       -4 0.17109957E-02 0.12499980E+03</pdfrwt>
<totfact> 0.68386660E+03</totfact>
</mgrwt>
</event>
<event>
 5    1  0.3270363E-002  0.1249999E+03  0.7818608E-02  0.1235069E+00
          4   -1    0    0  501    0  0.00000000000E+00  0.00000000000E+00  0.22127684229E+02  0.22164099560E+02  0.12700000000E+01 0.  1.
         -4   -1    0    0    0  501 -0.00000000000E+00 -0.00000000000E+00 -0.17634824266E+03  0.17635281565E+03  0.12700000000E+01 0.  1.
         25    2    1    2    0    0  0.00000000000E+00  0.00000000000E+00 -0.15422055843E+03  0.19851691521E+03  0.12499993993E+03 0.  0.
    9000005    1    3    3    0    0  0.27324086271E+02  0.49934847817E+02 -0.36151405070E+02  0.67439000627E+02  0.10000000000E+01 0.  0.
    9000005    1    3    3    0    0 -0.27324086271E+02 -0.49934847817E+02 -0.11806915336E+03  0.13107791459E+03  0.10000000000E+01 0.  0.
<mgrwt>
<rscale>  0 0.12499994E+03</rscale>
<asrwt>0</asrwt>
<pdfrwt beam="1">  1        4 0.34074122E-02 0.12499994E+03</pdfrwt>
<pdfrwt beam="2">  1       -4 0.27133651E-01 0.12499994E+03</pdfrwt>
<totfact> 0.90386275E+03</totfact>
</mgrwt>
</event>
<event>
 5    1  0.3270363E-002  0.1250003E+03  0.7818608E-02  0.1235069E+00
          4   -1    0    0  501    0  0.00000000000E+00  0.00000000000E+00  0.49744258388E+03  0.49744420507E+03  0.12700000000E+01 0. -1.
         -4   -1    0    0    0  501 -0.00000000000E+00 -0.00000000000E+00 -0.77997071285E+01  0.79024256586E+01  0.12700000000E+01 0. -1.
         25    2    1    2    0    0  0.00000000000E+00  0.00000000000E+00  0.48964287675E+03  0.50534663072E+03  0.12500028174E+03 0.  0.
    9000005    1    3    3    0    0 -0.19041422631E+02  0.13618596063E+02  0.47906553272E+03  0.47963822468E+03  0.10000000000E+01 0.  0.
    9000005    1    3    3    0    0  0.19041422631E+02 -0.13618596063E+02  0.10577344025E+02  0.25708406041E+02  0.10000000000E+01 0.  0.
<mgrwt>
<rscale>  0 0.12500028E+03</rscale>
<asrwt>0</asrwt>
<pdfrwt beam="1">  1        4 0.76537673E-01 0.12500028E+03</pdfrwt>
<pdfrwt beam="2">  1       -4 0.12079808E-02 0.12500028E+03</pdfrwt>
<totfact> 0.55451553E+03</totfact>
</mgrwt>
</event>
<event>
 5    1  0.3270363E-002  0.1250049E+03  0.7818608E-02  0.1235062E+00
          4   -1    0    0  501    0  0.00000000000E+00  0.00000000000E+00  0.55932227903E+01  0.57355942309E+01  0.12700000000E+01 0. -1.
         -4   -1    0    0    0  501 -0.00000000000E+00 -0.00000000000E+00 -0.68952428869E+03  0.68952545826E+03  0.12700000000E+01 0. -1.
         25    2    1    2    0    0  0.00000000000E+00  0.00000000000E+00 -0.68393106590E+03  0.69526105249E+03  0.12500491275E+03 0.  0.
    9000005    1    3    3    0    0 -0.39313577901E+02  0.14552687632E+02 -0.59975198522E+03  0.60121608586E+03  0.10000000000E+01 0.  0.
    9000005    1    3    3    0    0  0.39313577901E+02 -0.14552687632E+02 -0.84179080679E+02  0.94044966631E+02  0.10000000000E+01 0.  0.
<mgrwt>
<rscale>  0 0.12500491E+03</rscale>
<asrwt>0</asrwt>
<pdfrwt beam="1">  1        4 0.87153798E-03 0.12500491E+03</pdfrwt>
<pdfrwt beam="2">  1       -4 0.10609164E+00 0.12500491E+03</pdfrwt>
<totfact> 0.43333398E+03</totfact>
</mgrwt>
</event>
<event>
 5    1  0.3270363E-002  0.1250033E+03  0.7818608E-02  0.1235064E+00
         -4   -1    0    0    0  501 -0.00000000000E+00  0.00000000000E+00  0.40034464205E+01  0.42000575284E+01  0.12700000000E+01 0. -1.
          4   -1    0    0  501    0  0.00000000000E+00 -0.00000000000E+00 -0.95218987322E+03  0.95219072016E+03  0.12700000000E+01 0. -1.
         25    2    1    2    0    0  0.00000000000E+00  0.00000000000E+00 -0.94818642680E+03  0.95639077769E+03  0.12500327869E+03 0.  0.
    9000005    1    3    3    0    0 -0.29122902087E+02 -0.30811973390E+02 -0.12282208297E+03  0.12993762040E+03  0.10000000000E+01 0.  0.
    9000005    1    3    3    0    0  0.29122902087E+02  0.30811973390E+02 -0.82536434382E+03  0.82645315729E+03  0.10000000000E+01 0.  0.
<mgrwt>
<rscale>  0 0.12500328E+03</rscale>
<asrwt>0</asrwt>
<pdfrwt beam="2">  1        4 0.14650576E+00 0.12500328E+03</pdfrwt>
<pdfrwt beam="1">  1       -4 0.63110467E-03 0.12500328E+03</pdfrwt>
<totfact> 0.32087896E+03</totfact>
</mgrwt>
</event>
<event>
 5    1  0.3270363E-002  0.1249997E+03  0.7818608E-02  0.1235070E+00
         -4   -1    0    0    0  501 -0.00000000000E+00  0.00000000000E+00  0.70563637519E+02  0.70575065285E+02  0.12700000000E+01 0.  1.
          4   -1    0    0  501    0  0.00000000000E+00 -0.00000000000E+00 -0.55334407150E+02  0.55348979346E+02  0.12700000000E+01 0.  1.
         25    2    1    2    0    0  0.00000000000E+00  0.00000000000E+00  0.15229230369E+02  0.12592404463E+03  0.12499974223E+03 0.  0.
    9000005    1    3    3    0    0 -0.54367539369E+02  0.30042282642E+02  0.14511096964E+02  0.63796081530E+02  0.10000000000E+01 0.  0.
    9000005    1    3    3    0    0  0.54367539369E+02 -0.30042282642E+02  0.71813340517E+00  0.62127963101E+02  0.10000000000E+01 0.  0.
<mgrwt>
<rscale>  0 0.12499974E+03</rscale>
<asrwt>0</asrwt>
<pdfrwt beam="2">  1        4 0.85149857E-02 0.12499974E+03</pdfrwt>
<pdfrwt beam="1">  1       -4 0.10857944E-01 0.12499974E+03</pdfrwt>
<totfact> 0.10432683E+04</totfact>
</mgrwt>
</event>
<event>
 5    1  0.3270363E-002  0.1249985E+03  0.7818608E-02  0.1235072E+00
         -4   -1    0    0    0  501 -0.00000000000E+00  0.00000000000E+00  0.95351751481E+02  0.95360208738E+02  0.12700000000E+01 0. -1.
          4   -1    0    0  501    0  0.00000000000E+00 -0.00000000000E+00 -0.40945656855E+02  0.40965347738E+02  0.12700000000E+01 0. -1.
         25    2    1    2    0    0  0.00000000000E+00  0.00000000000E+00  0.54406094625E+02  0.13632555648E+03  0.12499853686E+03 0.  0.
    9000005    1    3    3    0    0  0.12013925795E+02  0.56178231612E+02  0.38117024805E+00  0.57458449429E+02  0.10000000000E+01 0.  0.
    9000005    1    3    3    0    0 -0.12013925795E+02 -0.56178231612E+02  0.54024924377E+02  0.78867107047E+02  0.10000000000E+01 0.  0.
<mgrwt>
<rscale>  0 0.12499854E+03</rscale>
<asrwt>0</asrwt>
<pdfrwt beam="2">  1        4 0.63014972E-02 0.12499854E+03</pdfrwt>
<pdfrwt beam="1">  1       -4 0.14671665E-01 0.12499854E+03</pdfrwt>
<totfact> 0.10210543E+04</totfact>
</mgrwt>
</event>
<event>
 5    1  0.3270363E-002  0.1250015E+03  0.7818608E-02  0.1235067E+00
          4   -1    0    0  501    0  0.00000000000E+00  0.00000000000E+00  0.12311220009E+02  0.12376551948E+02  0.12700000000E+01 0. -1.
         -4   -1    0    0    0  501 -0.00000000000E+00 -0.00000000000E+00 -0.31639339045E+03  0.31639593932E+03  0.12700000000E+01 0. -1.
         25    2    1    2    0    0  0.00000000000E+00  0.00000000000E+00 -0.30408217044E+03  0.32877249127E+03  0.12500153854E+03 0.  0.
    9000005    1    3    3    0    0 -0.16049365033E+01 -0.62211044029E+02 -0.13703394663E+03  0.15050612063E+03  0.10000000000E+01 0.  0.
    9000005    1    3    3    0    0  0.16049365033E+01  0.62211044029E+02 -0.16704822381E+03  0.17826637063E+03  0.10000000000E+01 0.  0.
<mgrwt>
<rscale>  0 0.12500154E+03</rscale>
<asrwt>0</asrwt>
<pdfrwt beam="1">  1        4 0.18992557E-02 0.12500154E+03</pdfrwt>
<pdfrwt beam="2">  1       -4 0.48681122E-01 0.12500154E+03</pdfrwt>
<totfact> 0.72122304E+03</totfact>
</mgrwt>
</event>
<event>
 5    1  0.3270363E-002  0.1250001E+03  0.7818608E-02  0.1235069E+00
         -4   -1    0    0    0  501 -0.00000000000E+00  0.00000000000E+00  0.11830620580E+02  0.11898591652E+02  0.12700000000E+01 0. -1.
          4   -1    0    0  501    0  0.00000000000E+00 -0.00000000000E+00 -0.32916681239E+03  0.32916926235E+03  0.12700000000E+01 0. -1.
         25    2    1    2    0    0  0.00000000000E+00  0.00000000000E+00 -0.31733619181E+03  0.34106785400E+03  0.12500008962E+03 0.  0.
    9000005    1    3    3    0    0  0.39392687307E+02 -0.24680739011E+02 -0.44710008549E+02  0.64505097131E+02  0.10000000000E+01 0.  0.
    9000005    1    3    3    0    0 -0.39392687307E+02  0.24680739011E+02 -0.27262618326E+03  0.27656275687E+03  0.10000000000E+01 0.  0.
<mgrwt>
<rscale>  0 0.12500009E+03</rscale>
<asrwt>0</asrwt>
<pdfrwt beam="2">  1        4 0.50646458E-01 0.12500009E+03</pdfrwt>
<pdfrwt beam="1">  1       -4 0.18255127E-02 0.12500009E+03</pdfrwt>
<totfact> 0.70718372E+03</totfact>
</mgrwt>
</event>
<event>
 5    1  0.3270363E-002  0.1249981E+03  0.7818608E-02  0.1235072E+00
          4   -1    0    0  501    0  0.00000000000E+00  0.00000000000E+00  0.45730233982E+03  0.45730410331E+03  0.12700000000E+01 0. -1.
         -4   -1    0    0    0  501 -0.00000000000E+00 -0.00000000000E+00 -0.84926826938E+01  0.85871158917E+01  0.12700000000E+01 0. -1.
         25    2    1    2    0    0  0.00000000000E+00  0.00000000000E+00  0.44880965712E+03  0.46589121920E+03  0.12499807919E+03 0.  0.
    9000005    1    3    3    0    0  0.52562735171E+01 -0.15421489674E+02 -0.45544721555E+00  0.16329671988E+02  0.10000000000E+01 0.  0.
    9000005    1    3    3    0    0 -0.52562735171E+01  0.15421489674E+02  0.44926510434E+03  0.44956154721E+03  0.10000000000E+01 0.  0.
<mgrwt>
<rscale>  0 0.12499808E+03</rscale>
<asrwt>0</asrwt>
<pdfrwt beam="1">  1        4 0.70361641E-01 0.12499808E+03</pdfrwt>
<pdfrwt beam="2">  1       -4 0.13139657E-02 0.12499808E+03</pdfrwt>
<totfact> 0.58613900E+03</totfact>
</mgrwt>
</event>
<event>
 5    1  0.3270363E-002  0.1249955E+03  0.7818608E-02  0.1235076E+00
         -4   -1    0    0    0  501 -0.00000000000E+00  0.00000000000E+00  0.64658600679E+02  0.64671071909E+02  0.12700000000E+01 0. -1.
          4   -1    0    0  501    0  0.00000000000E+00 -0.00000000000E+00 -0.60384185537E+02  0.60397539379E+02  0.12700000000E+01 0. -1.
         25    2    1    2    0    0  0.00000000000E+00  0.00000000000E+00  0.42744151422E+01  0.12506861129E+03  0.12499554754E+03 0.  0.
    9000005    1    3    3    0    0 -0.26626498866E+02  0.56529858419E+02  0.27510736712E+01  0.62555285476E+02  0.10000000000E+01 0.  0.
    9000005    1    3    3    0    0  0.26626498866E+02 -0.56529858419E+02  0.15233414710E+01  0.62513325811E+02  0.10000000000E+01 0.  0.
<mgrwt>
<rscale>  0 0.12499555E+03</rscale>
<asrwt>0</asrwt>
<pdfrwt beam="2">  1        4 0.92918612E-02 0.12499555E+03</pdfrwt>
<pdfrwt beam="1">  1       -4 0.99494636E-02 0.12499555E+03</pdfrwt>
<totfact> 0.10452424E+04</totfact>
</mgrwt>
</event>
<event>
 5    1  0.3270363E-002  0.1249454E+03  0.7818608E-02  0.1235155E+00
          4   -1    0    0  501    0  0.00000000000E+00  0.00000000000E+00  0.21800941574E+02  0.21837901765E+02  0.12700000000E+01 0. -1.
         -4   -1    0    0    0  501 -0.00000000000E+00 -0.00000000000E+00 -0.17883068040E+03  0.17883518992E+03  0.12700000000E+01 0. -1.
         25    2    1    2    0    0  0.00000000000E+00  0.00000000000E+00 -0.15702973883E+03  0.20067309168E+03  0.12494539147E+03 0.  0.
    9000005    1    3    3    0    0  0.13728288685E+02 -0.60200602518E+02 -0.93688710698E+02  0.11221030686E+03  0.10000000000E+01 0.  0.
    9000005    1    3    3    0    0 -0.13728288685E+02  0.60200602518E+02 -0.63341028131E+02  0.88462784822E+02  0.10000000000E+01 0.  0.
<mgrwt>
<rscale>  0 0.12494539E+03</rscale>
<asrwt>0</asrwt>
<pdfrwt beam="1">  1        4 0.33571811E-02 0.12494539E+03</pdfrwt>
<pdfrwt beam="2">  1       -4 0.27515601E-01 0.12494539E+03</pdfrwt>
<totfact> 0.90132196E+03</totfact>
</mgrwt>
</event>
<event>
 5    1  0.3270363E-002  0.1249988E+03  0.7818608E-02  0.1235071E+00
         -4   -1    0    0    0  501 -0.00000000000E+00  0.00000000000E+00  0.54429424549E+02  0.54444238967E+02  0.12700000000E+01 0.  1.
          4   -1    0    0  501    0  0.00000000000E+00 -0.00000000000E+00 -0.71735612367E+02  0.71746853462E+02  0.12700000000E+01 0.  1.
         25    2    1    2    0    0  0.00000000000E+00  0.00000000000E+00 -0.17306187818E+02  0.12619109243E+03  0.12499875068E+03 0.  0.
    9000005    1    3    3    0    0  0.39608270080E+02 -0.46355815014E+02 -0.22476599414E+02  0.64991339158E+02  0.10000000000E+01 0.  0.
    9000005    1    3    3    0    0 -0.39608270080E+02  0.46355815014E+02  0.51704115959E+01  0.61199753271E+02  0.10000000000E+01 0.  0.
<mgrwt>
<rscale>  0 0.12499875E+03</rscale>
<asrwt>0</asrwt>
<pdfrwt beam="2">  1        4 0.11038252E-01 0.12499875E+03</pdfrwt>
<pdfrwt beam="1">  1       -4 0.83757619E-02 0.12499875E+03</pdfrwt>
<totfact> 0.10427068E+04</totfact>
</mgrwt>
</event>
<event>
 5    1  0.3270363E-002  0.1249980E+03  0.7818608E-02  0.1235072E+00
         -4   -1    0    0    0  501 -0.00000000000E+00  0.00000000000E+00  0.23985318597E+03  0.23985654821E+03  0.12700000000E+01 0.  1.
          4   -1    0    0  501    0  0.00000000000E+00 -0.00000000000E+00 -0.16257250577E+02  0.16306780686E+02  0.12700000000E+01 0.  1.
         25    2    1    2    0    0  0.00000000000E+00  0.00000000000E+00  0.22359593539E+03  0.25616332890E+03  0.12499803498E+03 0.  0.
    9000005    1    3    3    0    0  0.18835293491E+02 -0.25932551261E+02  0.22173619544E+03  0.22404286613E+03  0.10000000000E+01 0.  0.
    9000005    1    3    3    0    0 -0.18835293491E+02  0.25932551261E+02  0.18597399548E+01  0.32120462769E+02  0.10000000000E+01 0.  0.
<mgrwt>
<rscale>  0 0.12499803E+03</rscale>
<asrwt>0</asrwt>
<pdfrwt beam="2">  1        4 0.25051842E-02 0.12499803E+03</pdfrwt>
<pdfrwt beam="1">  1       -4 0.36904558E-01 0.12499803E+03</pdfrwt>
<totfact> 0.81451079E+03</totfact>
</mgrwt>
</event>
<event>
 5    1  0.3270363E-002  0.1249975E+03  0.7818608E-02  0.1235073E+00
         -4   -1    0    0    0  501 -0.00000000000E+00  0.00000000000E+00  0.27580880645E+03  0.27581173038E+03  0.12700000000E+01 0.  1.
          4   -1    0    0  501    0  0.00000000000E+00 -0.00000000000E+00 -0.14130851824E+02  0.14187807205E+02  0.12700000000E+01 0.  1.
         25    2    1    2    0    0  0.00000000000E+00  0.00000000000E+00  0.26167795462E+03  0.28999953758E+03  0.12499751943E+03 0.  0.
    9000005    1    3    3    0    0  0.24911214252E+02  0.20833713491E+01 -0.20365930874E+01  0.25100931120E+02  0.10000000000E+01 0.  0.
    9000005    1    3    3    0    0 -0.24911214252E+02 -0.20833713491E+01  0.26371454771E+03  0.26489860646E+03  0.10000000000E+01 0.  0.
<mgrwt>
<rscale>  0 0.12499752E+03</rscale>
<asrwt>0</asrwt>
<pdfrwt beam="2">  1        4 0.21785833E-02 0.12499752E+03</pdfrwt>
<pdfrwt beam="1">  1       -4 0.42436731E-01 0.12499752E+03</pdfrwt>
<totfact> 0.76874883E+03</totfact>
</mgrwt>
</event>
<event>
 5    1  0.3270363E-002  0.1250002E+03  0.7818608E-02  0.1235069E+00
          4   -1    0    0  501    0  0.00000000000E+00  0.00000000000E+00  0.22825093658E+03  0.22825446973E+03  0.12700000000E+01 0.  1.
         -4   -1    0    0    0  501 -0.00000000000E+00 -0.00000000000E+00 -0.17086658261E+02  0.17133790897E+02  0.12700000000E+01 0.  1.
         25    2    1    2    0    0  0.00000000000E+00  0.00000000000E+00  0.21116427832E+03  0.24538826063E+03  0.12500018405E+03 0.  0.
    9000005    1    3    3    0    0 -0.30086554890E+02  0.14833784952E+02  0.20757748430E+01  0.33623664320E+02  0.10000000000E+01 0.  0.
    9000005    1    3    3    0    0  0.30086554890E+02 -0.14833784952E+02  0.20908850348E+03  0.21176459631E+03  0.10000000000E+01 0.  0.
<mgrwt>
<rscale>  0 0.12500018E+03</rscale>
<asrwt>0</asrwt>
<pdfrwt beam="1">  1        4 0.35119423E-01 0.12500018E+03</pdfrwt>
<pdfrwt beam="2">  1       -4 0.26326142E-02 0.12500018E+03</pdfrwt>
<totfact> 0.83001031E+03</totfact>
</mgrwt>
</event>
<event>
 5    1  0.3270363E-002  0.1250013E+03  0.7818608E-02  0.1235067E+00
          4   -1    0    0  501    0  0.00000000000E+00  0.00000000000E+00  0.21674386407E+03  0.21674758479E+03  0.12700000000E+01 0. -1.
         -4   -1    0    0    0  501 -0.00000000000E+00 -0.00000000000E+00 -0.17996533300E+02  0.18041289056E+02  0.12700000000E+01 0. -1.
         25    2    1    2    0    0  0.00000000000E+00  0.00000000000E+00  0.19874733077E+03  0.23478887385E+03  0.12500125517E+03 0.  0.
    9000005    1    3    3    0    0  0.18737911415E+02  0.32257439974E+02  0.52025210547E+01  0.37679145203E+02  0.10000000000E+01 0.  0.
    9000005    1    3    3    0    0 -0.18737911415E+02 -0.32257439974E+02  0.19354480972E+03  0.19710972864E+03  0.10000000000E+01 0.  0.
<mgrwt>
<rscale>  0 0.12500126E+03</rscale>
<asrwt>0</asrwt>
<pdfrwt beam="1">  1        4 0.33348939E-01 0.12500126E+03</pdfrwt>
<pdfrwt beam="2">  1       -4 0.27724264E-02 0.12500126E+03</pdfrwt>
<totfact> 0.84577276E+03</totfact>
</mgrwt>
</event>
<event>
 5    1  0.3270363E-002  0.1249990E+03  0.7818608E-02  0.1235071E+00
          4   -1    0    0  501    0  0.00000000000E+00  0.00000000000E+00  0.84932364927E+02  0.84941859599E+02  0.12700000000E+01 0.  1.
         -4   -1    0    0    0  501 -0.00000000000E+00 -0.00000000000E+00 -0.45970888696E+02  0.45988427974E+02  0.12700000000E+01 0.  1.
         25    2    1    2    0    0  0.00000000000E+00  0.00000000000E+00  0.38961476231E+02  0.13093028757E+03  0.12499897429E+03 0.  0.
    9000005    1    3    3    0    0  0.69517772407E+01  0.23344797373E+02 -0.40798938135E+02  0.47527467050E+02  0.10000000000E+01 0.  0.
    9000005    1    3    3    0    0 -0.69517772407E+01 -0.23344797373E+02  0.79760414367E+02  0.83402820523E+02  0.10000000000E+01 0.  0.
<mgrwt>
<rscale>  0 0.12499897E+03</rscale>
<asrwt>0</asrwt>
<pdfrwt beam="1">  1        4 0.13068597E-01 0.12499897E+03</pdfrwt>
<pdfrwt beam="2">  1       -4 0.70745241E-02 0.12499897E+03</pdfrwt>
<totfact> 0.10324823E+04</totfact>
</mgrwt>
</event>
<event>
 5    1  0.3270363E-002  0.1249999E+03  0.7818608E-02  0.1235069E+00
          4   -1    0    0  501    0  0.00000000000E+00  0.00000000000E+00  0.21242004420E+03  0.21242384065E+03  0.12700000000E+01 0.  1.
         -4   -1    0    0    0  501 -0.00000000000E+00 -0.00000000000E+00 -0.18363358016E+02  0.18407221888E+02  0.12700000000E+01 0.  1.
         25    2    1    2    0    0  0.00000000000E+00  0.00000000000E+00  0.19405668618E+03  0.23083106254E+03  0.12499992793E+03 0.  0.
    9000005    1    3    3    0    0  0.19650358267E+02 -0.30531035360E+02  0.19095302813E+03  0.19437679813E+03  0.10000000000E+01 0.  0.
    9000005    1    3    3    0    0 -0.19650358267E+02  0.30531035360E+02  0.31036580519E+01  0.36454264407E+02  0.10000000000E+01 0.  0.
<mgrwt>
<rscale>  0 0.12499993E+03</rscale>
<asrwt>0</asrwt>
<pdfrwt beam="1">  1        4 0.32683673E-01 0.12499993E+03</pdfrwt>
<pdfrwt beam="2">  1       -4 0.28287982E-02 0.12499993E+03</pdfrwt>
<totfact> 0.85182286E+03</totfact>
</mgrwt>
</event>
<event>
 5    1  0.3270363E-002  0.1249988E+03  0.7818608E-02  0.1235071E+00
         -4   -1    0    0    0  501 -0.00000000000E+00  0.00000000000E+00  0.89516885520E+02  0.89525893982E+02  0.12700000000E+01 0. -1.
          4   -1    0    0  501    0  0.00000000000E+00 -0.00000000000E+00 -0.43615751750E+02  0.43634237712E+02  0.12700000000E+01 0. -1.
         25    2    1    2    0    0  0.00000000000E+00  0.00000000000E+00  0.45901133770E+02  0.13316013169E+03  0.12499882636E+03 0.  0.
    9000005    1    3    3    0    0  0.48632482305E+02 -0.28909716433E+01 -0.18741672363E+02  0.52208489110E+02  0.10000000000E+01 0.  0.
    9000005    1    3    3    0    0 -0.48632482305E+02  0.28909716433E+01  0.64642806133E+02  0.80951642583E+02  0.10000000000E+01 0.  0.
<mgrwt>
<rscale>  0 0.12499883E+03</rscale>
<asrwt>0</asrwt>
<pdfrwt beam="2">  1        4 0.67122308E-02 0.12499883E+03</pdfrwt>
<pdfrwt beam="1">  1       -4 0.13773943E-01 0.12499883E+03</pdfrwt>
<totfact> 0.10277270E+04</totfact>
</mgrwt>
</event>
<event>
 5    1  0.3270363E-002  0.1249930E+03  0.7818608E-02  0.1235080E+00
          4   -1    0    0  501    0  0.00000000000E+00  0.00000000000E+00  0.39881416426E+01  0.41854717490E+01  0.12700000000E+01 0. -1.
         -4   -1    0    0    0  501 -0.00000000000E+00 -0.00000000000E+00 -0.95551552677E+03  0.95551637076E+03  0.12700000000E+01 0. -1.
         25    2    1    2    0    0  0.00000000000E+00  0.00000000000E+00 -0.95152738513E+03  0.95970184251E+03  0.12499304731E+03 0.  0.
    9000005    1    3    3    0    0  0.49913891095E+02  0.25235081310E+02 -0.26179420124E+03  0.26770395898E+03  0.10000000000E+01 0.  0.
    9000005    1    3    3    0    0 -0.49913891095E+02 -0.25235081310E+02 -0.68973318389E+03  0.69199788353E+03  0.10000000000E+01 0.  0.
<mgrwt>
<rscale>  0 0.12499305E+03</rscale>
<asrwt>0</asrwt>
<pdfrwt beam="1">  1        4 0.62880517E-03 0.12499305E+03</pdfrwt>
<pdfrwt beam="2">  1       -4 0.14701746E+00 0.12499305E+03</pdfrwt>
<totfact> 0.31978891E+03</totfact>
</mgrwt>
</event>
<event>
 5    1  0.3270363E-002  0.1249935E+03  0.7818608E-02  0.1235079E+00
          4   -1    0    0  501    0  0.00000000000E+00  0.00000000000E+00  0.84859017565E+02  0.84868520442E+02  0.12700000000E+01 0.  1.
         -4   -1    0    0    0  501 -0.00000000000E+00 -0.00000000000E+00 -0.46006606796E+02  0.46024132463E+02  0.12700000000E+01 0.  1.
         25    2    1    2    0    0  0.00000000000E+00  0.00000000000E+00  0.38852410768E+02  0.13089265290E+03  0.12499350688E+03 0.  0.
    9000005    1    3    3    0    0 -0.57695478649E+02 -0.45203553385E+01 -0.52583594592E+01  0.58119292951E+02  0.10000000000E+01 0.  0.
    9000005    1    3    3    0    0  0.57695478649E+02  0.45203553385E+01  0.44110770228E+02  0.72773359954E+02  0.10000000000E+01 0.  0.
<mgrwt>
<rscale>  0 0.12499351E+03</rscale>
<asrwt>0</asrwt>
<pdfrwt beam="1">  1        4 0.13057312E-01 0.12499351E+03</pdfrwt>
<pdfrwt beam="2">  1       -4 0.70800187E-02 0.12499351E+03</pdfrwt>
<totfact> 0.10326904E+04</totfact>
</mgrwt>
</event>
<event>
 5    1  0.3270363E-002  0.1249815E+03  0.7818608E-02  0.1235098E+00
         -4   -1    0    0    0  501 -0.00000000000E+00  0.00000000000E+00  0.20351873478E+01  0.23989346679E+01  0.12700000000E+01 0. -1.
          4   -1    0    0  501    0  0.00000000000E+00 -0.00000000000E+00 -0.17610201560E+04  0.17610206139E+04  0.12700000000E+01 0. -1.
         25    2    1    2    0    0  0.00000000000E+00  0.00000000000E+00 -0.17589849686E+04  0.17634195486E+04  0.12498153658E+03 0.  0.
    9000005    1    3    3    0    0  0.43697330539E+02  0.26224487678E+02 -0.13895669390E+04  0.13905015132E+04  0.10000000000E+01 0.  0.
    9000005    1    3    3    0    0 -0.43697330539E+02 -0.26224487678E+02 -0.36941802966E+03  0.37291803534E+03  0.10000000000E+01 0.  0.
<mgrwt>
<rscale>  0 0.12498154E+03</rscale>
<asrwt>0</asrwt>
<pdfrwt beam="2">  1        4 0.27095308E+00 0.12498154E+03</pdfrwt>
<pdfrwt beam="1">  1       -4 0.34112294E-03 0.12498154E+03</pdfrwt>
<totfact> 0.13281071E+03</totfact>
</mgrwt>
</event>
<event>
 5    1  0.3270363E-002  0.1249997E+03  0.7818608E-02  0.1235070E+00
          4   -1    0    0  501    0  0.00000000000E+00  0.00000000000E+00  0.27456015514E+03  0.27456309237E+03  0.12700000000E+01 0.  1.
         -4   -1    0    0    0  501 -0.00000000000E+00 -0.00000000000E+00 -0.14195860697E+02  0.14252556294E+02  0.12700000000E+01 0.  1.
         25    2    1    2    0    0  0.00000000000E+00  0.00000000000E+00  0.26036429444E+03  0.28881564866E+03  0.12499965236E+03 0.  0.
    9000005    1    3    3    0    0  0.16952064755E+02  0.59388711534E+02  0.10816086378E+03  0.12455586703E+03  0.10000000000E+01 0.  0.
    9000005    1    3    3    0    0 -0.16952064755E+02 -0.59388711534E+02  0.15220343066E+03  0.16425978164E+03  0.10000000000E+01 0.  0.
<mgrwt>
<rscale>  0 0.12499965E+03</rscale>
<asrwt>0</asrwt>
<pdfrwt beam="1">  1        4 0.42244609E-01 0.12499965E+03</pdfrwt>
<pdfrwt beam="2">  1       -4 0.21885658E-02 0.12499965E+03</pdfrwt>
<totfact> 0.77024143E+03</totfact>
</mgrwt>
</event>
<event>
 5    1  0.3270363E-002  0.1249997E+03  0.7818608E-02  0.1235070E+00
         -4   -1    0    0    0  501 -0.00000000000E+00  0.00000000000E+00  0.11362978111E+03  0.11363687806E+03  0.12700000000E+01 0.  1.
          4   -1    0    0  501    0  0.00000000000E+00 -0.00000000000E+00 -0.34356926157E+02  0.34380390849E+02  0.12700000000E+01 0.  1.
         25    2    1    2    0    0  0.00000000000E+00  0.00000000000E+00  0.79272854955E+02  0.14801726891E+03  0.12499970545E+03 0.  0.
    9000005    1    3    3    0    0  0.13531877628E+01 -0.34792360539E+02  0.10108515231E+03  0.10691841510E+03  0.10000000000E+01 0.  0.
    9000005    1    3    3    0    0 -0.13531877628E+01  0.34792360539E+02 -0.21812297355E+02  0.41098853815E+02  0.10000000000E+01 0.  0.
<mgrwt>
<rscale>  0 0.12499971E+03</rscale>
<asrwt>0</asrwt>
<pdfrwt beam="2">  1        4 0.52880319E-02 0.12499971E+03</pdfrwt>
<pdfrwt beam="1">  1       -4 0.17483856E-01 0.12499971E+03</pdfrwt>
<totfact> 0.99701065E+03</totfact>
</mgrwt>
</event>
<event>
 5    1  0.3270363E-002  0.1249907E+03  0.7818608E-02  0.1235084E+00
          4   -1    0    0  501    0  0.00000000000E+00  0.00000000000E+00  0.30187699847E+02  0.30214402560E+02  0.12700000000E+01 0. -1.
         -4   -1    0    0    0  501 -0.00000000000E+00 -0.00000000000E+00 -0.12929236622E+03  0.12929860348E+03  0.12700000000E+01 0. -1.
         25    2    1    2    0    0  0.00000000000E+00  0.00000000000E+00 -0.99104666372E+02  0.15951300604E+03  0.12499065645E+03 0.  0.
    9000005    1    3    3    0    0  0.33791808055E+02  0.37314944680E+02 -0.23092524390E+01  0.50404603311E+02  0.10000000000E+01 0.  0.
    9000005    1    3    3    0    0 -0.33791808055E+02 -0.37314944680E+02 -0.96795413933E+02  0.10910840273E+03  0.10000000000E+01 0.  0.
<mgrwt>
<rscale>  0 0.12499066E+03</rscale>
<asrwt>0</asrwt>
<pdfrwt beam="1">  1        4 0.46467954E-02 0.12499066E+03</pdfrwt>
<pdfrwt beam="2">  1       -4 0.19893667E-01 0.12499066E+03</pdfrwt>
<totfact> 0.97457223E+03</totfact>
</mgrwt>
</event>
<event>
 5    1  0.3270363E-002  0.1249998E+03  0.7818608E-02  0.1235070E+00
         -4   -1    0    0    0  501 -0.00000000000E+00  0.00000000000E+00  0.29353490882E+02  0.29380951771E+02  0.12700000000E+01 0. -1.
          4   -1    0    0  501    0  0.00000000000E+00 -0.00000000000E+00 -0.13298309258E+03  0.13298915675E+03  0.12700000000E+01 0. -1.
         25    2    1    2    0    0  0.00000000000E+00  0.00000000000E+00 -0.10362960170E+03  0.16237010852E+03  0.12499983117E+03 0.  0.
    9000005    1    3    3    0    0  0.45621928979E+02 -0.36511373520E+02 -0.80591987480E+02  0.99551540651E+02  0.10000000000E+01 0.  0.
    9000005    1    3    3    0    0 -0.45621928979E+02  0.36511373520E+02 -0.23037614221E+02  0.62818567869E+02  0.10000000000E+01 0.  0.
<mgrwt>
<rscale>  0 0.12499983E+03</rscale>
<asrwt>0</asrwt>
<pdfrwt beam="2">  1        4 0.20461516E-01 0.12499983E+03</pdfrwt>
<pdfrwt beam="1">  1       -4 0.45185006E-02 0.12499983E+03</pdfrwt>
<totfact> 0.96888151E+03</totfact>
</mgrwt>
</event>
<event>
 5    1  0.3270363E-002  0.1249886E+03  0.7818608E-02  0.1235087E+00
          4   -1    0    0  501    0  0.00000000000E+00  0.00000000000E+00  0.45898934920E+02  0.45916501683E+02  0.12700000000E+01 0. -1.
         -4   -1    0    0    0  501 -0.00000000000E+00 -0.00000000000E+00 -0.85051289191E+02  0.85060770588E+02  0.12700000000E+01 0. -1.
         25    2    1    2    0    0  0.00000000000E+00  0.00000000000E+00 -0.39152354271E+02  0.13097727227E+03  0.12498855550E+03 0.  0.
    9000005    1    3    3    0    0  0.32097257689E+01 -0.60908546644E+02 -0.33805498804E+02  0.69742133199E+02  0.10000000000E+01 0.  0.
    9000005    1    3    3    0    0 -0.32097257689E+01  0.60908546644E+02 -0.53468554663E+01  0.61235139072E+02  0.10000000000E+01 0.  0.
<mgrwt>
<rscale>  0 0.12498856E+03</rscale>
<asrwt>0</asrwt>
<pdfrwt beam="1">  1        4 0.70634552E-02 0.12498856E+03</pdfrwt>
<pdfrwt beam="2">  1       -4 0.13086894E-01 0.12498856E+03</pdfrwt>
<totfact> 0.10326242E+04</totfact>
</mgrwt>
</event>
<event>
 5    1  0.3270363E-002  0.1249815E+03  0.7818608E-02  0.1235098E+00
          4   -1    0    0  501    0  0.00000000000E+00  0.00000000000E+00  0.19162563421E+02  0.19204601971E+02  0.12700000000E+01 0. -1.
         -4   -1    0    0    0  501 -0.00000000000E+00 -0.00000000000E+00 -0.20352035787E+03  0.20352432033E+03  0.12700000000E+01 0. -1.
         25    2    1    2    0    0  0.00000000000E+00  0.00000000000E+00 -0.18435779445E+03  0.22272892230E+03  0.12498150446E+03 0.  0.
    9000005    1    3    3    0    0  0.30651428130E+02  0.16943380231E+02 -0.18439273321E+03  0.18769195039E+03  0.10000000000E+01 0.  0.
    9000005    1    3    3    0    0 -0.30651428130E+02 -0.16943380231E+02  0.34938766330E-01  0.35036971912E+02  0.10000000000E+01 0.  0.
<mgrwt>
<rscale>  0 0.12498150E+03</rscale>
<asrwt>0</asrwt>
<pdfrwt beam="1">  1        4 0.29516254E-02 0.12498150E+03</pdfrwt>
<pdfrwt beam="2">  1       -4 0.31314361E-01 0.12498150E+03</pdfrwt>
<totfact> 0.86474079E+03</totfact>
</mgrwt>
</event>
<event>
 5    1  0.3270363E-002  0.1249977E+03  0.7818608E-02  0.1235073E+00
          4   -1    0    0  501    0  0.00000000000E+00  0.00000000000E+00  0.33612778586E+02  0.33636762393E+02  0.12700000000E+01 0. -1.
         -4   -1    0    0    0  501 -0.00000000000E+00 -0.00000000000E+00 -0.11614013593E+03  0.11614707949E+03  0.12700000000E+01 0. -1.
         25    2    1    2    0    0  0.00000000000E+00  0.00000000000E+00 -0.82527357346E+02  0.14978384188E+03  0.12499773830E+03 0.  0.
    9000005    1    3    3    0    0 -0.95284739656E+01 -0.51186574981E+02  0.14684141890E+00  0.52075702941E+02  0.10000000000E+01 0.  0.
    9000005    1    3    3    0    0  0.95284739656E+01  0.51186574981E+02 -0.82674198765E+02  0.97708138944E+02  0.10000000000E+01 0.  0.
<mgrwt>
<rscale>  0 0.12499774E+03</rscale>
<asrwt>0</asrwt>
<pdfrwt beam="1">  1        4 0.51735758E-02 0.12499774E+03</pdfrwt>
<pdfrwt beam="2">  1       -4 0.17870092E-01 0.12499774E+03</pdfrwt>
<totfact> 0.99351860E+03</totfact>
</mgrwt>
</event>
<event>
 5    1  0.3270363E-002  0.1249992E+03  0.7818608E-02  0.1235071E+00
         -4   -1    0    0    0  501 -0.00000000000E+00  0.00000000000E+00  0.59956732725E+02  0.59970181749E+02  0.12700000000E+01 0. -1.
          4   -1    0    0  501    0  0.00000000000E+00 -0.00000000000E+00 -0.65123322473E+02  0.65135704724E+02  0.12700000000E+01 0. -1.
         25    2    1    2    0    0  0.00000000000E+00  0.00000000000E+00 -0.51665897481E+01  0.12510588647E+03  0.12499915672E+03 0.  0.
    9000005    1    3    3    0    0  0.30075910836E+02  0.36991786701E+02  0.37852248315E+02  0.60883046889E+02  0.10000000000E+01 0.  0.
    9000005    1    3    3    0    0 -0.30075910836E+02 -0.36991786701E+02 -0.43018838063E+02  0.64222839584E+02  0.10000000000E+01 0.  0.
<mgrwt>
<rscale>  0 0.12499916E+03</rscale>
<asrwt>0</asrwt>
<pdfrwt beam="2">  1        4 0.10020960E-01 0.12499916E+03</pdfrwt>
<pdfrwt beam="1">  1       -4 0.92260997E-02 0.12499916E+03</pdfrwt>
<totfact> 0.10450762E+04</totfact>
</mgrwt>
</event>
<event>
 5    1  0.3270363E-002  0.1249988E+03  0.7818608E-02  0.1235071E+00
          4   -1    0    0  501    0  0.00000000000E+00  0.00000000000E+00  0.11817953278E+03  0.11818635653E+03  0.12700000000E+01 0. -1.
         -4   -1    0    0    0  501 -0.00000000000E+00 -0.00000000000E+00 -0.33032908054E+02  0.33057312572E+02  0.12700000000E+01 0. -1.
         25    2    1    2    0    0  0.00000000000E+00  0.00000000000E+00  0.85146624729E+02  0.15124366910E+03  0.12499879895E+03 0.  0.
    9000005    1    3    3    0    0 -0.26229740820E+02  0.46295879196E+02  0.82223628416E+02  0.97944028935E+02  0.10000000000E+01 0.  0.
    9000005    1    3    3    0    0  0.26229740820E+02 -0.46295879196E+02  0.29229963121E+01  0.53299640163E+02  0.10000000000E+01 0.  0.
<mgrwt>
<rscale>  0 0.12499880E+03</rscale>
<asrwt>0</asrwt>
<pdfrwt beam="1">  1        4 0.18183869E-01 0.12499880E+03</pdfrwt>
<pdfrwt beam="2">  1       -4 0.50843880E-02 0.12499880E+03</pdfrwt>
<totfact> 0.99059044E+03</totfact>
</mgrwt>
</event>
<event>
 5    1  0.3270363E-002  0.1250034E+03  0.7818608E-02  0.1235064E+00
          4   -1    0    0  501    0  0.00000000000E+00  0.00000000000E+00  0.10525788830E+02  0.10602128583E+02  0.12700000000E+01 0. -1.
         -4   -1    0    0    0  501 -0.00000000000E+00 -0.00000000000E+00 -0.36971380809E+03  0.36971598936E+03  0.12700000000E+01 0. -1.
         25    2    1    2    0    0  0.00000000000E+00  0.00000000000E+00 -0.35918801926E+03  0.38031811795E+03  0.12500335059E+03 0.  0.
    9000005    1    3    3    0    0  0.47447397738E+02 -0.78852125828E+01 -0.58199061305E+02  0.75508693979E+02  0.10000000000E+01 0.  0.
    9000005    1    3    3    0    0 -0.47447397738E+02  0.78852125828E+01 -0.30098895795E+03  0.30480942397E+03  0.10000000000E+01 0.  0.
<mgrwt>
<rscale>  0 0.12500335E+03</rscale>
<asrwt>0</asrwt>
<pdfrwt beam="1">  1        4 0.16253925E-02 0.12500335E+03</pdfrwt>
<pdfrwt beam="2">  1       -4 0.56885078E-01 0.12500335E+03</pdfrwt>
<totfact> 0.66508188E+03</totfact>
</mgrwt>
</event>
<event>
 5    1  0.3270363E-002  0.1250009E+03  0.7818608E-02  0.1235068E+00
         -4   -1    0    0    0  501 -0.00000000000E+00  0.00000000000E+00  0.13214417527E+03  0.13215027793E+03  0.12700000000E+01 0.  1.
          4   -1    0    0  501    0  0.00000000000E+00 -0.00000000000E+00 -0.29540536117E+02  0.29567823289E+02  0.12700000000E+01 0.  1.
         25    2    1    2    0    0  0.00000000000E+00  0.00000000000E+00  0.10260363915E+03  0.16171810122E+03  0.12500094998E+03 0.  0.
    9000005    1    3    3    0    0 -0.19045546600E+02 -0.55899836023E+02  0.77745485951E+02  0.97636494706E+02  0.10000000000E+01 0.  0.
    9000005    1    3    3    0    0  0.19045546600E+02  0.55899836023E+02  0.24858153197E+02  0.64081606512E+02  0.10000000000E+01 0.  0.
<mgrwt>
<rscale>  0 0.12500095E+03</rscale>
<asrwt>0</asrwt>
<pdfrwt beam="2">  1        4 0.45472664E-02 0.12500095E+03</pdfrwt>
<pdfrwt beam="1">  1       -4 0.20332441E-01 0.12500095E+03</pdfrwt>
<totfact> 0.97010497E+03</totfact>
</mgrwt>
</event>
<event>
 5    1  0.3270363E-002  0.1249999E+03  0.7818608E-02  0.1235069E+00
         -4   -1    0    0    0  501 -0.00000000000E+00  0.00000000000E+00  0.16781540708E+02  0.16829527877E+02  0.12700000000E+01 0.  1.
          4   -1    0    0  501    0  0.00000000000E+00 -0.00000000000E+00 -0.23238827188E+03  0.23239174212E+03  0.12700000000E+01 0.  1.
         25    2    1    2    0    0  0.00000000000E+00  0.00000000000E+00 -0.21560673117E+03  0.24922127000E+03  0.12499991558E+03 0.  0.
    9000005    1    3    3    0    0 -0.14963815894E+02  0.25868235300E+02  0.16211529441E+01  0.29945108457E+02  0.10000000000E+01 0.  0.
    9000005    1    3    3    0    0  0.14963815894E+02 -0.25868235300E+02 -0.21722788411E+03  0.21927616154E+03  0.10000000000E+01 0.  0.
<mgrwt>
<rscale>  0 0.12499992E+03</rscale>
<asrwt>0</asrwt>
<pdfrwt beam="2">  1        4 0.35755998E-01 0.12499992E+03</pdfrwt>
<pdfrwt beam="1">  1       -4 0.25857339E-02 0.12499992E+03</pdfrwt>
<totfact> 0.82443065E+03</totfact>
</mgrwt>
</event>
<event>
 5    1  0.3270363E-002  0.1249977E+03  0.7818608E-02  0.1235073E+00
         -4   -1    0    0    0  501 -0.00000000000E+00  0.00000000000E+00  0.25905665789E+01  0.28851230823E+01  0.12700000000E+01 0. -1.
          4   -1    0    0  501    0  0.00000000000E+00 -0.00000000000E+00 -0.14264141461E+04  0.14264147115E+04  0.12700000000E+01 0. -1.
         25    2    1    2    0    0  0.00000000000E+00  0.00000000000E+00 -0.14238235796E+04  0.14292998346E+04  0.12499772577E+03 0.  0.
    9000005    1    3    3    0    0  0.58760243092E+01  0.60957338348E+02 -0.85417185539E+03  0.85636492414E+03  0.10000000000E+01 0.  0.
    9000005    1    3    3    0    0 -0.58760243092E+01 -0.60957338348E+02 -0.56965172418E+03  0.57293491046E+03  0.10000000000E+01 0.  0.
<mgrwt>
<rscale>  0 0.12499773E+03</rscale>
<asrwt>0</asrwt>
<pdfrwt beam="2">  1        4 0.21947044E+00 0.12499773E+03</pdfrwt>
<pdfrwt beam="1">  1       -4 0.42125152E-03 0.12499773E+03</pdfrwt>
<totfact> 0.19361810E+03</totfact>
</mgrwt>
</event>
<event>
 5    1  0.3270363E-002  0.1250025E+03  0.7818608E-02  0.1235065E+00
          4   -1    0    0  501    0  0.00000000000E+00  0.00000000000E+00  0.19578229000E+02  0.19619376922E+02  0.12700000000E+01 0.  1.
         -4   -1    0    0    0  501 -0.00000000000E+00 -0.00000000000E+00 -0.19927546955E+03  0.19927951642E+03  0.12700000000E+01 0.  1.
         25    2    1    2    0    0  0.00000000000E+00  0.00000000000E+00 -0.17969724055E+03  0.21889889334E+03  0.12500250895E+03 0.  0.
    9000005    1    3    3    0    0 -0.43220912749E+02 -0.35214555098E+02 -0.40402268609E+02  0.68858227529E+02  0.10000000000E+01 0.  0.
    9000005    1    3    3    0    0  0.43220912749E+02  0.35214555098E+02 -0.13929497194E+03  0.15004066582E+03  0.10000000000E+01 0.  0.
<mgrwt>
<rscale>  0 0.12500251E+03</rscale>
<asrwt>0</asrwt>
<pdfrwt beam="1">  1        4 0.30155119E-02 0.12500251E+03</pdfrwt>
<pdfrwt beam="2">  1       -4 0.30661240E-01 0.12500251E+03</pdfrwt>
<totfact> 0.87038008E+03</totfact>
</mgrwt>
</event>
<event>
 5    1  0.3270363E-002  0.1250015E+03  0.7818608E-02  0.1235067E+00
          4   -1    0    0  501    0  0.00000000000E+00  0.00000000000E+00  0.10061738643E+03  0.10062540113E+03  0.12700000000E+01 0.  1.
         -4   -1    0    0    0  501 -0.00000000000E+00 -0.00000000000E+00 -0.38803821963E+02  0.38824599147E+02  0.12700000000E+01 0.  1.
         25    2    1    2    0    0  0.00000000000E+00  0.00000000000E+00  0.61813564466E+02  0.13945000027E+03  0.12500154329E+03 0.  0.
    9000005    1    3    3    0    0  0.40777307868E+02 -0.30529368009E+02  0.71292164095E+02  0.87626501752E+02  0.10000000000E+01 0.  0.
    9000005    1    3    3    0    0 -0.40777307868E+02  0.30529368009E+02 -0.94785996294E+01  0.51823498521E+02  0.10000000000E+01 0.  0.
<mgrwt>
<rscale>  0 0.12500154E+03</rscale>
<asrwt>0</asrwt>
<pdfrwt beam="1">  1        4 0.15481812E-01 0.12500154E+03</pdfrwt>
<pdfrwt beam="2">  1       -4 0.59720337E-02 0.12500154E+03</pdfrwt>
<totfact> 0.10144645E+04</totfact>
</mgrwt>
</event>
<event>
 5    1  0.3270363E-002  0.1250001E+03  0.7818608E-02  0.1235069E+00
          4   -1    0    0  501    0  0.00000000000E+00  0.00000000000E+00  0.10137367213E+03  0.10138162704E+03  0.12700000000E+01 0.  1.
         -4   -1    0    0    0  501 -0.00000000000E+00 -0.00000000000E+00 -0.38513331314E+02  0.38534265127E+02  0.12700000000E+01 0.  1.
         25    2    1    2    0    0  0.00000000000E+00  0.00000000000E+00  0.62860340818E+02  0.13991589217E+03  0.12500013773E+03 0.  0.
    9000005    1    3    3    0    0  0.17587850980E+02 -0.15774100364E+02 -0.33327489869E+02  0.40864120269E+02  0.10000000000E+01 0.  0.
    9000005    1    3    3    0    0 -0.17587850980E+02  0.15774100364E+02  0.96187830687E+02  0.99051771901E+02  0.10000000000E+01 0.  0.
<mgrwt>
<rscale>  0 0.12500014E+03</rscale>
<asrwt>0</asrwt>
<pdfrwt beam="1">  1        4 0.15598172E-01 0.12500014E+03</pdfrwt>
<pdfrwt beam="2">  1       -4 0.59273500E-02 0.12500014E+03</pdfrwt>
<totfact> 0.10135298E+04</totfact>
</mgrwt>
</event>
<event>
 5    1  0.3270363E-002  0.1249887E+03  0.7818608E-02  0.1235087E+00
          4   -1    0    0  501    0  0.00000000000E+00  0.00000000000E+00  0.55812147068E+02  0.55826594561E+02  0.12700000000E+01 0.  1.
         -4   -1    0    0    0  501 -0.00000000000E+00 -0.00000000000E+00 -0.69947278631E+02  0.69958807079E+02  0.12700000000E+01 0.  1.
         25    2    1    2    0    0  0.00000000000E+00  0.00000000000E+00 -0.14135131563E+02  0.12578540164E+03  0.12498866077E+03 0.  0.
    9000005    1    3    3    0    0  0.56560599826E+02 -0.23797772522E+02  0.48019336068E+01  0.61558866104E+02  0.10000000000E+01 0.  0.
    9000005    1    3    3    0    0 -0.56560599826E+02  0.23797772522E+02 -0.18937065170E+02  0.64226535536E+02  0.10000000000E+01 0.  0.
<mgrwt>
<rscale>  0 0.12498866E+03</rscale>
<asrwt>0</asrwt>
<pdfrwt beam="1">  1        4 0.85884824E-02 0.12498866E+03</pdfrwt>
<pdfrwt beam="2">  1       -4 0.10763118E-01 0.12498866E+03</pdfrwt>
<totfact> 0.10438337E+04</totfact>
</mgrwt>
</event>
<event>
 5    1  0.3270363E-002  0.1250006E+03  0.7818608E-02  0.1235068E+00
         -4   -1    0    0    0  501 -0.00000000000E+00  0.00000000000E+00  0.27966743945E+01  0.30715285557E+01  0.12700000000E+01 0.  1.
          4   -1    0    0  501    0  0.00000000000E+00 -0.00000000000E+00 -0.13310653973E+04  0.13310660032E+04  0.12700000000E+01 0.  1.
         25    2    1    2    0    0  0.00000000000E+00  0.00000000000E+00 -0.13282687229E+04  0.13341375318E+04  0.12500061322E+03 0.  0.
    9000005    1    3    3    0    0 -0.18071999267E+02  0.30059790545E+02 -0.11210969748E+03  0.11747243266E+03  0.10000000000E+01 0.  0.
    9000005    1    3    3    0    0  0.18071999267E+02 -0.30059790545E+02 -0.12161590255E+04  0.12166650991E+04  0.10000000000E+01 0.  0.
<mgrwt>
<rscale>  0 0.12500061E+03</rscale>
<asrwt>0</asrwt>
<pdfrwt beam="2">  1        4 0.20480000E+00 0.12500061E+03</pdfrwt>
<pdfrwt beam="1">  1       -4 0.45144790E-03 0.12500061E+03</pdfrwt>
<totfact> 0.21436650E+03</totfact>
</mgrwt>
</event>
<event>
 5    1  0.3270363E-002  0.1250002E+03  0.7818608E-02  0.1235069E+00
          4   -1    0    0  501    0  0.00000000000E+00  0.00000000000E+00  0.52198181999E+02  0.52213629485E+02  0.12700000000E+01 0.  1.
         -4   -1    0    0    0  501 -0.00000000000E+00 -0.00000000000E+00 -0.74803351859E+02  0.74814132017E+02  0.12700000000E+01 0.  1.
         25    2    1    2    0    0  0.00000000000E+00  0.00000000000E+00 -0.22605169861E+02  0.12702776150E+03  0.12500023395E+03 0.  0.
    9000005    1    3    3    0    0 -0.11413647313E+02  0.24687121641E+02  0.45873139257E+02  0.53339199705E+02  0.10000000000E+01 0.  0.
    9000005    1    3    3    0    0  0.11413647313E+02 -0.24687121641E+02 -0.68478309118E+02  0.73688561796E+02  0.10000000000E+01 0.  0.
<mgrwt>
<rscale>  0 0.12500023E+03</rscale>
<asrwt>0</asrwt>
<pdfrwt beam="1">  1        4 0.80325071E-02 0.12500023E+03</pdfrwt>
<pdfrwt beam="2">  1       -4 0.11510225E-01 0.12500023E+03</pdfrwt>
<totfact> 0.10408488E+04</totfact>
</mgrwt>
</event>
<event>
 5    1  0.3270363E-002  0.1250014E+03  0.7818608E-02  0.1235067E+00
         -4   -1    0    0    0  501 -0.00000000000E+00  0.00000000000E+00  0.10766577196E+02  0.10841221542E+02  0.12700000000E+01 0.  1.
          4   -1    0    0  501    0  0.00000000000E+00 -0.00000000000E+00 -0.36149138245E+03  0.36149361334E+03  0.12700000000E+01 0.  1.
         25    2    1    2    0    0  0.00000000000E+00  0.00000000000E+00 -0.35072480526E+03  0.37233483488E+03  0.12500136098E+03 0.  0.
    9000005    1    3    3    0    0 -0.60655396004E+02  0.80619512898E+01 -0.21318803635E+03  0.22179768026E+03  0.10000000000E+01 0.  0.
    9000005    1    3    3    0    0  0.60655396004E+02 -0.80619512898E+01 -0.13753676890E+03  0.15053715463E+03  0.10000000000E+01 0.  0.
<mgrwt>
<rscale>  0 0.12500136E+03</rscale>
<asrwt>0</asrwt>
<pdfrwt beam="2">  1        4 0.55619963E-01 0.12500136E+03</pdfrwt>
<pdfrwt beam="1">  1       -4 0.16623103E-02 0.12500136E+03</pdfrwt>
<totfact> 0.67333354E+03</totfact>
</mgrwt>
</event>
<event>
 5    1  0.3270363E-002  0.1249963E+03  0.7818608E-02  0.1235075E+00
          4   -1    0    0  501    0  0.00000000000E+00  0.00000000000E+00  0.18511183768E+02  0.18554698178E+02  0.12700000000E+01 0.  1.
         -4   -1    0    0    0  501 -0.00000000000E+00 -0.00000000000E+00 -0.21071544317E+03  0.21071927033E+03  0.12700000000E+01 0.  1.
         25    2    1    2    0    0  0.00000000000E+00  0.00000000000E+00 -0.19220425940E+03  0.22927396851E+03  0.12499630116E+03 0.  0.
    9000005    1    3    3    0    0  0.53276754648E+02  0.30669169057E+02 -0.11669216919E+03  0.13189796384E+03  0.10000000000E+01 0.  0.
    9000005    1    3    3    0    0 -0.53276754648E+02 -0.30669169057E+02 -0.75512090212E+02  0.97376004666E+02  0.10000000000E+01 0.  0.
<mgrwt>
<rscale>  0 0.12499630E+03</rscale>
<asrwt>0</asrwt>
<pdfrwt beam="1">  1        4 0.28515162E-02 0.12499630E+03</pdfrwt>
<pdfrwt beam="2">  1       -4 0.32421400E-01 0.12499630E+03</pdfrwt>
<totfact> 0.85428255E+03</totfact>
</mgrwt>
</event>
<event>
 5    1  0.3270363E-002  0.1249992E+03  0.7818608E-02  0.1235070E+00
          4   -1    0    0  501    0  0.00000000000E+00  0.00000000000E+00  0.40881509776E+03  0.40881707041E+03  0.12700000000E+01 0. -1.
         -4   -1    0    0    0  501 -0.00000000000E+00 -0.00000000000E+00 -0.95107317317E+01  0.95951507582E+01  0.12700000000E+01 0. -1.
         25    2    1    2    0    0  0.00000000000E+00  0.00000000000E+00  0.39930436603E+03  0.41841222116E+03  0.12499924036E+03 0.  0.
    9000005    1    3    3    0    0  0.26797425820E+02  0.56330962505E+02  0.18716208562E+03  0.19728640516E+03  0.10000000000E+01 0.  0.
    9000005    1    3    3    0    0 -0.26797425820E+02 -0.56330962505E+02  0.21214228040E+03  0.22112581600E+03  0.10000000000E+01 0.  0.
<mgrwt>
<rscale>  0 0.12499924E+03</rscale>
<asrwt>0</asrwt>
<pdfrwt beam="1">  1        4 0.62901275E-01 0.12499924E+03</pdfrwt>
<pdfrwt beam="2">  1       -4 0.14698350E-02 0.12499924E+03</pdfrwt>
<totfact> 0.62801635E+03</totfact>
</mgrwt>
</event>
<event>
 5    1  0.3270363E-002  0.1250021E+03  0.7818608E-02  0.1235066E+00
         -4   -1    0    0    0  501 -0.00000000000E+00  0.00000000000E+00  0.92405253737E+01  0.93273902665E+01  0.12700000000E+01 0. -1.
          4   -1    0    0  501    0  0.00000000000E+00 -0.00000000000E+00 -0.42067901885E+03  0.42068093587E+03  0.12700000000E+01 0. -1.
         25    2    1    2    0    0  0.00000000000E+00  0.00000000000E+00 -0.41143849348E+03  0.43000832613E+03  0.12500210650E+03 0.  0.
    9000005    1    3    3    0    0  0.39635221338E+02  0.48312763754E+02 -0.20381090974E+03  0.21317823726E+03  0.10000000000E+01 0.  0.
    9000005    1    3    3    0    0 -0.39635221338E+02 -0.48312763754E+02 -0.20762758374E+03  0.21683008887E+03  0.10000000000E+01 0.  0.
<mgrwt>
<rscale>  0 0.12500211E+03</rscale>
<asrwt>0</asrwt>
<pdfrwt beam="2">  1        4 0.64726664E-01 0.12500211E+03</pdfrwt>
<pdfrwt beam="1">  1       -4 0.14284490E-02 0.12500211E+03</pdfrwt>
<totfact> 0.61732376E+03</totfact>
</mgrwt>
</event>
<event>
 5    1  0.3270363E-002  0.1250015E+03  0.7818608E-02  0.1235067E+00
         -4   -1    0    0    0  501 -0.00000000000E+00  0.00000000000E+00  0.14924086938E+03  0.14924627297E+03  0.12700000000E+01 0. -1.
          4   -1    0    0  501    0  0.00000000000E+00 -0.00000000000E+00 -0.26153477149E+02  0.26184294280E+02  0.12700000000E+01 0. -1.
         25    2    1    2    0    0  0.00000000000E+00  0.00000000000E+00  0.12308739224E+03  0.17543056725E+03  0.12500151118E+03 0.  0.
    9000005    1    3    3    0    0  0.46019642258E+02  0.34752287227E+01  0.12067880779E+03  0.12920626663E+03  0.10000000000E+01 0.  0.
    9000005    1    3    3    0    0 -0.46019642258E+02 -0.34752287227E+01  0.24085844486E+01  0.46224300615E+02  0.10000000000E+01 0.  0.
<mgrwt>
<rscale>  0 0.12500151E+03</rscale>
<asrwt>0</asrwt>
<pdfrwt beam="2">  1        4 0.40263981E-02 0.12500151E+03</pdfrwt>
<pdfrwt beam="1">  1       -4 0.22962920E-01 0.12500151E+03</pdfrwt>
<totfact> 0.94442841E+03</totfact>
</mgrwt>
</event>
<event>
 5    1  0.3270363E-002  0.1250051E+03  0.7818608E-02  0.1235061E+00
         -4   -1    0    0    0  501 -0.00000000000E+00  0.00000000000E+00  0.25455273112E+03  0.25455589921E+03  0.12700000000E+01 0.  1.
          4   -1    0    0  501    0  0.00000000000E+00 -0.00000000000E+00 -0.15317251311E+02  0.15369810920E+02  0.12700000000E+01 0.  1.
         25    2    1    2    0    0  0.00000000000E+00  0.00000000000E+00  0.23923547981E+03  0.26992571013E+03  0.12500509665E+03 0.  0.
    9000005    1    3    3    0    0  0.50291100923E+02 -0.31747750193E+01  0.39801972176E+02  0.64222044638E+02  0.10000000000E+01 0.  0.
    9000005    1    3    3    0    0 -0.50291100923E+02  0.31747750193E+01  0.19943350764E+03  0.20570366549E+03  0.10000000000E+01 0.  0.
<mgrwt>
<rscale>  0 0.12500510E+03</rscale>
<asrwt>0</asrwt>
<pdfrwt beam="2">  1        4 0.23607869E-02 0.12500510E+03</pdfrwt>
<pdfrwt beam="1">  1       -4 0.39166247E-01 0.12500510E+03</pdfrwt>
<totfact> 0.79523978E+03</totfact>
</mgrwt>
</event>
<event>
 5    1  0.3270363E-002  0.1249523E+03  0.7818608E-02  0.1235144E+00
         -4   -1    0    0    0  501 -0.00000000000E+00  0.00000000000E+00  0.61771741997E+02  0.61784795940E+02  0.12700000000E+01 0.  1.
          4   -1    0    0  501    0  0.00000000000E+00 -0.00000000000E+00 -0.63162490787E+02  0.63175257359E+02  0.12700000000E+01 0.  1.
         25    2    1    2    0    0  0.00000000000E+00  0.00000000000E+00 -0.13907487898E+01  0.12496005330E+03  0.12495231386E+03 0.  0.
    9000005    1    3    3    0    0  0.35949406170E+02 -0.10959176632E+02 -0.50596429201E+02  0.63035402786E+02  0.10000000000E+01 0.  0.
    9000005    1    3    3    0    0 -0.35949406170E+02  0.10959176632E+02  0.49205680412E+02  0.61924650514E+02  0.10000000000E+01 0.  0.
<mgrwt>
<rscale>  0 0.12495231E+03</rscale>
<asrwt>0</asrwt>
<pdfrwt beam="2">  1        4 0.97192925E-02 0.12495231E+03</pdfrwt>
<pdfrwt beam="1">  1       -4 0.95053311E-02 0.12495231E+03</pdfrwt>
<totfact> 0.10465005E+04</totfact>
</mgrwt>
</event>
<event>
 5    1  0.3270363E-002  0.1249951E+03  0.7818608E-02  0.1235077E+00
         -4   -1    0    0    0  501 -0.00000000000E+00  0.00000000000E+00  0.56683262088E+02  0.56697487607E+02  0.12700000000E+01 0.  1.
          4   -1    0    0  501    0  0.00000000000E+00 -0.00000000000E+00 -0.68879516976E+02  0.68891224106E+02  0.12700000000E+01 0.  1.
         25    2    1    2    0    0  0.00000000000E+00  0.00000000000E+00 -0.12196254887E+02  0.12558871171E+03  0.12499510341E+03 0.  0.
    9000005    1    3    3    0    0 -0.50793040437E+02 -0.12775887066E+02 -0.40345006222E+02  0.66120161631E+02  0.10000000000E+01 0.  0.
    9000005    1    3    3    0    0  0.50793040437E+02  0.12775887066E+02  0.28148751335E+02  0.59468550082E+02  0.10000000000E+01 0.  0.
<mgrwt>
<rscale>  0 0.12499510E+03</rscale>
<asrwt>0</asrwt>
<pdfrwt beam="2">  1        4 0.10598844E-01 0.12499510E+03</pdfrwt>
<pdfrwt beam="1">  1       -4 0.87224967E-02 0.12499510E+03</pdfrwt>
<totfact> 0.10441149E+04</totfact>
</mgrwt>
</event>
<event>
 5    1  0.3270363E-002  0.1250013E+03  0.7818608E-02  0.1235067E+00
          4   -1    0    0  501    0  0.00000000000E+00  0.00000000000E+00  0.87263539492E+02  0.87272780548E+02  0.12700000000E+01 0. -1.
         -4   -1    0    0    0  501 -0.00000000000E+00 -0.00000000000E+00 -0.44744112562E+02  0.44762132533E+02  0.12700000000E+01 0. -1.
         25    2    1    2    0    0  0.00000000000E+00  0.00000000000E+00  0.42519426930E+02  0.13203491308E+03  0.12500126642E+03 0.  0.
    9000005    1    3    3    0    0 -0.38650600831E+02 -0.49080364159E+02  0.19563732567E+02  0.65471296937E+02  0.10000000000E+01 0.  0.
    9000005    1    3    3    0    0  0.38650600831E+02  0.49080364159E+02  0.22955694363E+02  0.66563616145E+02  0.10000000000E+01 0.  0.
<mgrwt>
<rscale>  0 0.12500127E+03</rscale>
<asrwt>0</asrwt>
<pdfrwt beam="1">  1        4 0.13427257E-01 0.12500127E+03</pdfrwt>
<pdfrwt beam="2">  1       -4 0.68858066E-02 0.12500127E+03</pdfrwt>
<totfact> 0.10300659E+04</totfact>
</mgrwt>
</event>
<event>
 5    1  0.3270363E-002  0.1250024E+03  0.7818608E-02  0.1235065E+00
          4   -1    0    0  501    0  0.00000000000E+00  0.00000000000E+00  0.12653961469E+03  0.12654598763E+03  0.12700000000E+01 0. -1.
         -4   -1    0    0    0  501 -0.00000000000E+00 -0.00000000000E+00 -0.30850768491E+02  0.30876897780E+02  0.12700000000E+01 0. -1.
         25    2    1    2    0    0  0.00000000000E+00  0.00000000000E+00  0.95688846197E+02  0.15742288541E+03  0.12500243823E+03 0.  0.
    9000005    1    3    3    0    0 -0.57123648372E+00 -0.30753866487E+01  0.12644714229E+03  0.12648977867E+03  0.10000000000E+01 0.  0.
    9000005    1    3    3    0    0  0.57123648372E+00  0.30753866487E+01 -0.30758296093E+02  0.30933106742E+02  0.10000000000E+01 0.  0.
<mgrwt>
<rscale>  0 0.12500244E+03</rscale>
<asrwt>0</asrwt>
<pdfrwt beam="1">  1        4 0.19470133E-01 0.12500244E+03</pdfrwt>
<pdfrwt beam="2">  1       -4 0.47487722E-02 0.12500244E+03</pdfrwt>
<totfact> 0.97836581E+03</totfact>
</mgrwt>
</event>
<event>
 5    1  0.3270363E-002  0.1249992E+03  0.7818608E-02  0.1235070E+00
          4   -1    0    0  501    0  0.00000000000E+00  0.00000000000E+00  0.18833122949E+02  0.18875895211E+02  0.12700000000E+01 0.  1.
         -4   -1    0    0    0  501 -0.00000000000E+00 -0.00000000000E+00 -0.20713134560E+03  0.20713523899E+03  0.12700000000E+01 0.  1.
         25    2    1    2    0    0  0.00000000000E+00  0.00000000000E+00 -0.18829822265E+03  0.22601113420E+03  0.12499924851E+03 0.  0.
    9000005    1    3    3    0    0  0.42995928816E+02  0.32632086508E+02 -0.37209748352E+02  0.65567280994E+02  0.10000000000E+01 0.  0.
    9000005    1    3    3    0    0 -0.42995928816E+02 -0.32632086508E+02 -0.15108847430E+03  0.16044385321E+03  0.10000000000E+01 0.  0.
<mgrwt>
<rscale>  0 0.12499925E+03</rscale>
<asrwt>0</asrwt>
<pdfrwt beam="1">  1        4 0.29009933E-02 0.12499925E+03</pdfrwt>
<pdfrwt beam="2">  1       -4 0.31869949E-01 0.12499925E+03</pdfrwt>
<totfact> 0.85927320E+03</totfact>
</mgrwt>
</event>
<event>
 5    1  0.3270363E-002  0.1249953E+03  0.7818608E-02  0.1235077E+00
          4   -1    0    0  501    0  0.00000000000E+00  0.00000000000E+00  0.63497028794E+02  0.63509728118E+02  0.12700000000E+01 0. -1.
         -4   -1    0    0    0  501 -0.00000000000E+00 -0.00000000000E+00 -0.61488544538E+02  0.61501658591E+02  0.12700000000E+01 0. -1.
         25    2    1    2    0    0  0.00000000000E+00  0.00000000000E+00  0.20084842556E+01  0.12501138671E+03  0.12499525110E+03 0.  0.
    9000005    1    3    3    0    0  0.17895821227E+02 -0.89036089515E+01  0.60218460146E+02  0.63457053289E+02  0.10000000000E+01 0.  0.
    9000005    1    3    3    0    0 -0.17895821227E+02  0.89036089515E+01 -0.58209975890E+02  0.61554333421E+02  0.10000000000E+01 0.  0.
<mgrwt>
<rscale>  0 0.12499525E+03</rscale>
<asrwt>0</asrwt>
<pdfrwt beam="1">  1        4 0.97707593E-02 0.12499525E+03</pdfrwt>
<pdfrwt beam="2">  1       -4 0.94617617E-02 0.12499525E+03</pdfrwt>
<totfact> 0.10453737E+04</totfact>
</mgrwt>
</event>
<event>
 5    1  0.3270363E-002  0.1250031E+03  0.7818608E-02  0.1235064E+00
         -4   -1    0    0    0  501 -0.00000000000E+00  0.00000000000E+00  0.75687507287E+02  0.75698161532E+02  0.12700000000E+01 0.  1.
          4   -1    0    0  501    0  0.00000000000E+00 -0.00000000000E+00 -0.51590726112E+02  0.51606355430E+02  0.12700000000E+01 0.  1.
         25    2    1    2    0    0  0.00000000000E+00  0.00000000000E+00  0.24096781175E+02  0.12730451696E+03  0.12500314066E+03 0.  0.
    9000005    1    3    3    0    0 -0.44416411549E+02 -0.25371942992E+02 -0.24513727996E+02  0.56731613465E+02  0.10000000000E+01 0.  0.
    9000005    1    3    3    0    0  0.44416411549E+02  0.25371942992E+02  0.48610509171E+02  0.70572903497E+02  0.10000000000E+01 0.  0.
<mgrwt>
<rscale>  0 0.12500314E+03</rscale>
<asrwt>0</asrwt>
<pdfrwt beam="2">  1        4 0.79390566E-02 0.12500314E+03</pdfrwt>
<pdfrwt beam="1">  1       -4 0.11646254E-01 0.12500314E+03</pdfrwt>
<totfact> 0.10401799E+04</totfact>
</mgrwt>
</event>
<event>
 5    1  0.3270363E-002  0.1250043E+03  0.7818608E-02  0.1235062E+00
          4   -1    0    0  501    0  0.00000000000E+00  0.00000000000E+00  0.12188584770E+04  0.12188591387E+04  0.12700000000E+01 0. -1.
         -4   -1    0    0    0  501 -0.00000000000E+00 -0.00000000000E+00 -0.30785682794E+01  0.33302376268E+01  0.12700000000E+01 0. -1.
         25    2    1    2    0    0  0.00000000000E+00  0.00000000000E+00  0.12157799087E+04  0.12221893763E+04  0.12500434000E+03 0.  0.
    9000005    1    3    3    0    0 -0.48473609917E+02  0.32042773206E+01  0.99226640271E+03  0.99345537001E+03  0.10000000000E+01 0.  0.
    9000005    1    3    3    0    0  0.48473609917E+02 -0.32042773206E+01  0.22351350602E+03  0.22873400627E+03  0.10000000000E+01 0.  0.
<mgrwt>
<rscale>  0 0.12500434E+03</rscale>
<asrwt>0</asrwt>
<pdfrwt beam="1">  1        4 0.18753610E+00 0.12500434E+03</pdfrwt>
<pdfrwt beam="2">  1       -4 0.49303597E-03 0.12500434E+03</pdfrwt>
<totfact> 0.24136942E+03</totfact>
</mgrwt>
</event>
<event>
 5    1  0.3270363E-002  0.1249973E+03  0.7818608E-02  0.1235073E+00
          4   -1    0    0  501    0  0.00000000000E+00  0.00000000000E+00  0.54561228579E+02  0.54576007220E+02  0.12700000000E+01 0. -1.
         -4   -1    0    0    0  501 -0.00000000000E+00 -0.00000000000E+00 -0.71560732195E+02  0.71572000756E+02  0.12700000000E+01 0. -1.
         25    2    1    2    0    0  0.00000000000E+00  0.00000000000E+00 -0.16999503615E+02  0.12614800798E+03  0.12499734714E+03 0.  0.
    9000005    1    3    3    0    0  0.34254583778E+02 -0.35080771090E+02  0.30600249652E+02  0.57804950383E+02  0.10000000000E+01 0.  0.
    9000005    1    3    3    0    0 -0.34254583778E+02  0.35080771090E+02 -0.47599753267E+02  0.68343057593E+02  0.10000000000E+01 0.  0.
<mgrwt>
<rscale>  0 0.12499735E+03</rscale>
<asrwt>0</asrwt>
<pdfrwt beam="1">  1        4 0.83960388E-02 0.12499735E+03</pdfrwt>
<pdfrwt beam="2">  1       -4 0.11011347E-01 0.12499735E+03</pdfrwt>
<totfact> 0.10428340E+04</totfact>
</mgrwt>
</event>
<event>
 5    1  0.3270363E-002  0.1249996E+03  0.7818608E-02  0.1235070E+00
          4   -1    0    0  501    0  0.00000000000E+00  0.00000000000E+00  0.12130021386E+02  0.12196323988E+02  0.12700000000E+01 0.  1.
         -4   -1    0    0    0  501 -0.00000000000E+00 -0.00000000000E+00 -0.32108437308E+03  0.32108688471E+03  0.12700000000E+01 0.  1.
         25    2    1    2    0    0  0.00000000000E+00  0.00000000000E+00 -0.30895435169E+03  0.33328320870E+03  0.12499962309E+03 0.  0.
    9000005    1    3    3    0    0 -0.37980449113E+02  0.85906149759E+01 -0.28479533035E+03  0.28744685312E+03  0.10000000000E+01 0.  0.
    9000005    1    3    3    0    0  0.37980449113E+02 -0.85906149759E+01 -0.24159021339E+02  0.45836355577E+02  0.10000000000E+01 0.  0.
<mgrwt>
<rscale>  0 0.12499962E+03</rscale>
<asrwt>0</asrwt>
<pdfrwt beam="1">  1        4 0.18714508E-02 0.12499962E+03</pdfrwt>
<pdfrwt beam="2">  1       -4 0.49402883E-01 0.12499962E+03</pdfrwt>
<totfact> 0.71604227E+03</totfact>
</mgrwt>
</event>
<event>
 5    1  0.3270363E-002  0.1249982E+03  0.7818608E-02  0.1235072E+00
          4   -1    0    0  501    0  0.00000000000E+00  0.00000000000E+00  0.14806030381E+03  0.14806575048E+03  0.12700000000E+01 0.  1.
         -4   -1    0    0    0  501 -0.00000000000E+00 -0.00000000000E+00 -0.26360851799E+02  0.26391426782E+02  0.12700000000E+01 0.  1.
         25    2    1    2    0    0  0.00000000000E+00  0.00000000000E+00  0.12169945201E+03  0.17445717726E+03  0.12499820030E+03 0.  0.
    9000005    1    3    3    0    0 -0.82293956121E+01 -0.61028345485E+02  0.75683067410E+02  0.97576168184E+02  0.10000000000E+01 0.  0.
    9000005    1    3    3    0    0  0.82293956121E+01  0.61028345485E+02  0.46016384602E+02  0.76881009077E+02  0.10000000000E+01 0.  0.
<mgrwt>
<rscale>  0 0.12499820E+03</rscale>
<asrwt>0</asrwt>
<pdfrwt beam="1">  1        4 0.22781279E-01 0.12499820E+03</pdfrwt>
<pdfrwt beam="2">  1       -4 0.40582865E-02 0.12499820E+03</pdfrwt>
<totfact> 0.94628172E+03</totfact>
</mgrwt>
</event>
<event>
 5    1  0.3270363E-002  0.1249968E+03  0.7818608E-02  0.1235074E+00
          4   -1    0    0  501    0  0.00000000000E+00  0.00000000000E+00  0.29729434645E+02  0.29756548595E+02  0.12700000000E+01 0.  1.
         -4   -1    0    0    0  501 -0.00000000000E+00 -0.00000000000E+00 -0.13129655300E+03  0.13130269506E+03  0.12700000000E+01 0.  1.
         25    2    1    2    0    0  0.00000000000E+00  0.00000000000E+00 -0.10156711835E+03  0.16105924365E+03  0.12499680170E+03 0.  0.
    9000005    1    3    3    0    0  0.45247992121E+02 -0.41112687716E+02 -0.67455475774E+02  0.91043259466E+02  0.10000000000E+01 0.  0.
    9000005    1    3    3    0    0 -0.45247992121E+02  0.41112687716E+02 -0.34111642581E+02  0.70015984188E+02  0.10000000000E+01 0.  0.
<mgrwt>
<rscale>  0 0.12499680E+03</rscale>
<asrwt>0</asrwt>
<pdfrwt beam="1">  1        4 0.45763174E-02 0.12499680E+03</pdfrwt>
<pdfrwt beam="2">  1       -4 0.20202027E-01 0.12499680E+03</pdfrwt>
<totfact> 0.97145942E+03</totfact>
</mgrwt>
</event>
<event>
 5    1  0.3270363E-002  0.1250022E+03  0.7818608E-02  0.1235066E+00
         -4   -1    0    0    0  501 -0.00000000000E+00  0.00000000000E+00  0.39835942020E+02  0.39856181159E+02  0.12700000000E+01 0.  1.
          4   -1    0    0  501    0  0.00000000000E+00 -0.00000000000E+00 -0.98012598009E+02  0.98020825688E+02  0.12700000000E+01 0.  1.
         25    2    1    2    0    0  0.00000000000E+00  0.00000000000E+00 -0.58176655989E+02  0.13787700685E+03  0.12500218284E+03 0.  0.
    9000005    1    3    3    0    0  0.56535186090E+02 -0.61638710445E+01 -0.51313466730E+00  0.56881313976E+02  0.10000000000E+01 0.  0.
    9000005    1    3    3    0    0 -0.56535186090E+02  0.61638710445E+01 -0.57663521322E+02  0.80995692871E+02  0.10000000000E+01 0.  0.
<mgrwt>
<rscale>  0 0.12500218E+03</rscale>
<asrwt>0</asrwt>
<pdfrwt beam="2">  1        4 0.15081051E-01 0.12500218E+03</pdfrwt>
<pdfrwt beam="1">  1       -4 0.61307963E-02 0.12500218E+03</pdfrwt>
<totfact> 0.10177276E+04</totfact>
</mgrwt>
</event>
<event>
 5    1  0.3270363E-002  0.1249885E+03  0.7818608E-02  0.1235087E+00
         -4   -1    0    0    0  501 -0.00000000000E+00  0.00000000000E+00  0.81266506024E+02  0.81276428941E+02  0.12700000000E+01 0.  1.
          4   -1    0    0  501    0  0.00000000000E+00 -0.00000000000E+00 -0.48037057785E+02  0.48053842933E+02  0.12700000000E+01 0.  1.
         25    2    1    2    0    0  0.00000000000E+00  0.00000000000E+00  0.33229448239E+02  0.12933027187E+03  0.12498849144E+03 0.  0.
    9000005    1    3    3    0    0  0.10485980187E+02 -0.90109530062E+01 -0.46439578438E+02  0.48464290978E+02  0.10000000000E+01 0.  0.
    9000005    1    3    3    0    0 -0.10485980187E+02  0.90109530062E+01  0.79669026677E+02  0.80865980895E+02  0.10000000000E+01 0.  0.
<mgrwt>
<rscale>  0 0.12498849E+03</rscale>
<asrwt>0</asrwt>
<pdfrwt beam="2">  1        4 0.73923711E-02 0.12498849E+03</pdfrwt>
<pdfrwt beam="1">  1       -4 0.12504594E-01 0.12498849E+03</pdfrwt>
<totfact> 0.10361547E+04</totfact>
</mgrwt>
</event>
<event>
 5    1  0.3270363E-002  0.1249964E+03  0.7818608E-02  0.1235075E+00
          4   -1    0    0  501    0  0.00000000000E+00  0.00000000000E+00  0.33414041160E+01  0.35746162684E+01  0.12700000000E+01 0. -1.
         -4   -1    0    0    0  501 -0.00000000000E+00 -0.00000000000E+00 -0.11293245064E+04  0.11293252205E+04  0.12700000000E+01 0. -1.
         25    2    1    2    0    0  0.00000000000E+00  0.00000000000E+00 -0.11259831023E+04  0.11328998368E+04  0.12499637403E+03 0.  0.
    9000005    1    3    3    0    0 -0.23007507414E+02  0.25517070555E+02 -0.89903416515E+02  0.96250145912E+02  0.10000000000E+01 0.  0.
    9000005    1    3    3    0    0  0.23007507414E+02 -0.25517070555E+02 -0.10360796858E+04  0.10366496909E+04  0.10000000000E+01 0.  0.
<mgrwt>
<rscale>  0 0.12499637E+03</rscale>
<asrwt>0</asrwt>
<pdfrwt beam="1">  1        4 0.53205740E-03 0.12499637E+03</pdfrwt>
<pdfrwt beam="2">  1       -4 0.17375993E+00 0.12499637E+03</pdfrwt>
<totfact> 0.26541654E+03</totfact>
</mgrwt>
</event>
<event>
 5    1  0.3270363E-002  0.1249943E+03  0.7818608E-02  0.1235078E+00
          4   -1    0    0  501    0  0.00000000000E+00  0.00000000000E+00  0.90036548845E+03  0.90036638414E+03  0.12700000000E+01 0.  1.
         -4   -1    0    0    0  501 -0.00000000000E+00 -0.00000000000E+00 -0.42442563931E+01  0.44301932610E+01  0.12700000000E+01 0.  1.
         25    2    1    2    0    0  0.00000000000E+00  0.00000000000E+00  0.89612123205E+03  0.90479657740E+03  0.12499433561E+03 0.  0.
    9000005    1    3    3    0    0 -0.83183695117E+01  0.59586380716E+02  0.57029909135E+03  0.57346472047E+03  0.10000000000E+01 0.  0.
    9000005    1    3    3    0    0  0.83183695117E+01 -0.59586380716E+02  0.32582214071E+03  0.33133185693E+03  0.10000000000E+01 0.  0.
<mgrwt>
<rscale>  0 0.12499434E+03</rscale>
<asrwt>0</asrwt>
<pdfrwt beam="1">  1        4 0.13853218E+00 0.12499434E+03</pdfrwt>
<pdfrwt beam="2">  1       -4 0.66733407E-03 0.12499434E+03</pdfrwt>
<totfact> 0.33981106E+03</totfact>
</mgrwt>
</event>
<event>
 5    1  0.3270363E-002  0.1249992E+03  0.7818608E-02  0.1235071E+00
          4   -1    0    0  501    0  0.00000000000E+00  0.00000000000E+00  0.13528815015E+03  0.13529411100E+03  0.12700000000E+01 0. -1.
         -4   -1    0    0    0  501 -0.00000000000E+00 -0.00000000000E+00 -0.28852613544E+02  0.28880550693E+02  0.12700000000E+01 0. -1.
         25    2    1    2    0    0  0.00000000000E+00  0.00000000000E+00  0.10643553660E+03  0.16417466169E+03  0.12499918435E+03 0.  0.
    9000005    1    3    3    0    0 -0.94226255597E+01  0.48296945963E+02  0.26249011633E+01  0.49287635041E+02  0.10000000000E+01 0.  0.
    9000005    1    3    3    0    0  0.94226255597E+01 -0.48296945963E+02  0.10381063544E+03  0.11488702665E+03  0.10000000000E+01 0.  0.
<mgrwt>
<rscale>  0 0.12499918E+03</rscale>
<asrwt>0</asrwt>
<pdfrwt beam="1">  1        4 0.20816169E-01 0.12499918E+03</pdfrwt>
<pdfrwt beam="2">  1       -4 0.44414712E-02 0.12499918E+03</pdfrwt>
<totfact> 0.96545696E+03</totfact>
</mgrwt>
</event>
<event>
 5    1  0.3270363E-002  0.1250002E+03  0.7818608E-02  0.1235069E+00
          4   -1    0    0  501    0  0.00000000000E+00  0.00000000000E+00  0.15703165617E+03  0.15703679168E+03  0.12700000000E+01 0. -1.
         -4   -1    0    0    0  501 -0.00000000000E+00 -0.00000000000E+00 -0.24853867820E+02  0.24886294333E+02  0.12700000000E+01 0. -1.
         25    2    1    2    0    0  0.00000000000E+00  0.00000000000E+00  0.13217778835E+03  0.18192308601E+03  0.12500016596E+03 0.  0.
    9000005    1    3    3    0    0  0.17813126364E+01  0.54749364112E+02  0.22316109206E+02  0.59158048273E+02  0.10000000000E+01 0.  0.
    9000005    1    3    3    0    0 -0.17813126364E+01 -0.54749364112E+02  0.10986167915E+03  0.12276503774E+03  0.10000000000E+01 0.  0.
<mgrwt>
<rscale>  0 0.12500017E+03</rscale>
<asrwt>0</asrwt>
<pdfrwt beam="1">  1        4 0.24161606E-01 0.12500017E+03</pdfrwt>
<pdfrwt beam="2">  1       -4 0.38265613E-02 0.12500017E+03</pdfrwt>
<totfact> 0.93271635E+03</totfact>
</mgrwt>
</event>
<event>
 5    1  0.3270363E-002  0.1250017E+03  0.7818608E-02  0.1235067E+00
          4   -1    0    0  501    0  0.00000000000E+00  0.00000000000E+00  0.52952877179E+02  0.52968104568E+02  0.12700000000E+01 0. -1.
         -4   -1    0    0    0  501 -0.00000000000E+00 -0.00000000000E+00 -0.73739089266E+02  0.73750024988E+02  0.12700000000E+01 0. -1.
         25    2    1    2    0    0  0.00000000000E+00  0.00000000000E+00 -0.20786212087E+02  0.12671812956E+03  0.12500167097E+03 0.  0.
    9000005    1    3    3    0    0  0.10372761403E+02  0.46169902925E+02 -0.51771488492E+02  0.70146568953E+02  0.10000000000E+01 0.  0.
    9000005    1    3    3    0    0 -0.10372761403E+02 -0.46169902925E+02  0.30985276405E+02  0.56571560603E+02  0.10000000000E+01 0.  0.
<mgrwt>
<rscale>  0 0.12500167E+03</rscale>
<asrwt>0</asrwt>
<pdfrwt beam="1">  1        4 0.81486091E-02 0.12500167E+03</pdfrwt>
<pdfrwt beam="2">  1       -4 0.11346488E-01 0.12500167E+03</pdfrwt>
<totfact> 0.10414883E+04</totfact>
</mgrwt>
</event>
<event>
 5    1  0.3270363E-002  0.1249987E+03  0.7818608E-02  0.1235071E+00
          4   -1    0    0  501    0  0.00000000000E+00  0.00000000000E+00  0.20220084678E+02  0.20259929033E+02  0.12700000000E+01 0. -1.
         -4   -1    0    0    0  501 -0.00000000000E+00 -0.00000000000E+00 -0.19295066330E+03  0.19295484282E+03  0.12700000000E+01 0. -1.
         25    2    1    2    0    0  0.00000000000E+00  0.00000000000E+00 -0.17273057863E+03  0.21321477186E+03  0.12499874458E+03 0.  0.
    9000005    1    3    3    0    0 -0.58335925675E+02 -0.12044686217E+02 -0.54135609328E+02  0.80497322239E+02  0.10000000000E+01 0.  0.
    9000005    1    3    3    0    0  0.58335925675E+02  0.12044686217E+02 -0.11859496930E+03  0.13271744962E+03  0.10000000000E+01 0.  0.
<mgrwt>
<rscale>  0 0.12499874E+03</rscale>
<asrwt>0</asrwt>
<pdfrwt beam="1">  1        4 0.31141688E-02 0.12499874E+03</pdfrwt>
<pdfrwt beam="2">  1       -4 0.29688103E-01 0.12499874E+03</pdfrwt>
<totfact> 0.87956012E+03</totfact>
</mgrwt>
</event>
<event>
 5    1  0.3270363E-002  0.1249826E+03  0.7818608E-02  0.1235097E+00
          4   -1    0    0  501    0  0.00000000000E+00  0.00000000000E+00  0.42268372817E+02  0.42287447790E+02  0.12700000000E+01 0. -1.
         -4   -1    0    0    0  501 -0.00000000000E+00 -0.00000000000E+00 -0.92345349171E+02  0.92354081737E+02  0.12700000000E+01 0. -1.
         25    2    1    2    0    0  0.00000000000E+00  0.00000000000E+00 -0.50076976354E+02  0.13464152953E+03  0.12498255043E+03 0.  0.
    9000005    1    3    3    0    0 -0.50349093864E+02  0.87624818045E+01 -0.63765968903E+02  0.81724605417E+02  0.10000000000E+01 0.  0.
    9000005    1    3    3    0    0  0.50349093864E+02 -0.87624818045E+01  0.13688992549E+02  0.52916924111E+02  0.10000000000E+01 0.  0.
<mgrwt>
<rscale>  0 0.12498255E+03</rscale>
<asrwt>0</asrwt>
<pdfrwt beam="1">  1        4 0.65049656E-02 0.12498255E+03</pdfrwt>
<pdfrwt beam="2">  1       -4 0.14209116E-01 0.12498255E+03</pdfrwt>
<totfact> 0.10249665E+04</totfact>
</mgrwt>
</event>
<event>
 5    1  0.3270363E-002  0.1249785E+03  0.7818608E-02  0.1235103E+00
          4   -1    0    0  501    0  0.00000000000E+00  0.00000000000E+00  0.82416433672E+02  0.82426218154E+02  0.12700000000E+01 0. -1.
         -4   -1    0    0    0  501 -0.00000000000E+00 -0.00000000000E+00 -0.47359093786E+02  0.47376119135E+02  0.12700000000E+01 0. -1.
         25    2    1    2    0    0  0.00000000000E+00  0.00000000000E+00  0.35057339886E+02  0.12980233729E+03  0.12497851690E+03 0.  0.
    9000005    1    3    3    0    0  0.13898647912E+02 -0.38450666432E+02  0.66599296418E+02  0.78154286167E+02  0.10000000000E+01 0.  0.
    9000005    1    3    3    0    0 -0.13898647912E+02  0.38450666432E+02 -0.31541956532E+02  0.51648051122E+02  0.10000000000E+01 0.  0.
<mgrwt>
<rscale>  0 0.12497852E+03</rscale>
<asrwt>0</asrwt>
<pdfrwt beam="1">  1        4 0.12681514E-01 0.12497852E+03</pdfrwt>
<pdfrwt beam="2">  1       -4 0.72880767E-02 0.12497852E+03</pdfrwt>
<totfact> 0.10353758E+04</totfact>
</mgrwt>
</event>
<event>
 5    1  0.3270363E-002  0.1249840E+03  0.7818608E-02  0.1235094E+00
         -4   -1    0    0    0  501 -0.00000000000E+00  0.00000000000E+00  0.24889104457E+02  0.24921485121E+02  0.12700000000E+01 0. -1.
          4   -1    0    0  501    0  0.00000000000E+00 -0.00000000000E+00 -0.15676912486E+03  0.15677426896E+03  0.12700000000E+01 0. -1.
         25    2    1    2    0    0  0.00000000000E+00  0.00000000000E+00 -0.13188002040E+03  0.18169575408E+03  0.12498402806E+03 0.  0.
    9000005    1    3    3    0    0 -0.49755135112E+01  0.60516351303E+02 -0.87368297131E+02  0.10640114592E+03  0.10000000000E+01 0.  0.
    9000005    1    3    3    0    0  0.49755135112E+01 -0.60516351303E+02 -0.44511723268E+02  0.75294608160E+02  0.10000000000E+01 0.  0.
<mgrwt>
<rscale>  0 0.12498403E+03</rscale>
<asrwt>0</asrwt>
<pdfrwt beam="2">  1        4 0.24121213E-01 0.12498403E+03</pdfrwt>
<pdfrwt beam="1">  1       -4 0.38319796E-02 0.12498403E+03</pdfrwt>
<totfact> 0.93346069E+03</totfact>
</mgrwt>
</event>
<event>
 5    1  0.3270363E-002  0.1250030E+03  0.7818608E-02  0.1235065E+00
         -4   -1    0    0    0  501 -0.00000000000E+00  0.00000000000E+00  0.56620111912E+03  0.56620254343E+03  0.12700000000E+01 0.  1.
          4   -1    0    0  501    0  0.00000000000E+00 -0.00000000000E+00 -0.68394953600E+01  0.69564068872E+01  0.12700000000E+01 0.  1.
         25    2    1    2    0    0  0.00000000000E+00  0.00000000000E+00  0.55936162376E+03  0.57315895032E+03  0.12500302476E+03 0.  0.
    9000005    1    3    3    0    0 -0.48972318180E+02  0.10280067991E+02  0.45133193980E+03  0.45409854397E+03  0.10000000000E+01 0.  0.
    9000005    1    3    3    0    0  0.48972318180E+02 -0.10280067991E+02  0.10802968395E+03  0.11906040635E+03  0.10000000000E+01 0.  0.
<mgrwt>
<rscale>  0 0.12500302E+03</rscale>
<asrwt>0</asrwt>
<pdfrwt beam="2">  1        4 0.10613328E-02 0.12500302E+03</pdfrwt>
<pdfrwt beam="1">  1       -4 0.87116966E-01 0.12500302E+03</pdfrwt>
<totfact> 0.50603586E+03</totfact>
</mgrwt>
</event>
<event>
 5    1  0.3270363E-002  0.1250061E+03  0.7818608E-02  0.1235060E+00
         -4   -1    0    0    0  501 -0.00000000000E+00  0.00000000000E+00  0.21513720495E+03  0.21514095345E+03  0.12700000000E+01 0.  1.
          4   -1    0    0  501    0  0.00000000000E+00 -0.00000000000E+00 -0.18132671109E+02  0.18177091669E+02  0.12700000000E+01 0.  1.
         25    2    1    2    0    0  0.00000000000E+00  0.00000000000E+00  0.19700453384E+03  0.23331804512E+03  0.12500609516E+03 0.  0.
    9000005    1    3    3    0    0 -0.54014440710E+02 -0.24955087475E+02  0.62828353838E+02  0.86537380605E+02  0.10000000000E+01 0.  0.
    9000005    1    3    3    0    0  0.54014440710E+02  0.24955087475E+02  0.13417618000E+03  0.14678066452E+03  0.10000000000E+01 0.  0.
<mgrwt>
<rscale>  0 0.12500610E+03</rscale>
<asrwt>0</asrwt>
<pdfrwt beam="2">  1        4 0.27933471E-02 0.12500610E+03</pdfrwt>
<pdfrwt beam="1">  1       -4 0.33101736E-01 0.12500610E+03</pdfrwt>
<totfact> 0.84791170E+03</totfact>
</mgrwt>
</event>
<event>
 5    1  0.3270363E-002  0.1249956E+03  0.7818608E-02  0.1235076E+00
          4   -1    0    0  501    0  0.00000000000E+00  0.00000000000E+00  0.15309424446E+02  0.15362010834E+02  0.12700000000E+01 0. -1.
         -4   -1    0    0    0  501 -0.00000000000E+00 -0.00000000000E+00 -0.25464374969E+03  0.25464691664E+03  0.12700000000E+01 0. -1.
         25    2    1    2    0    0  0.00000000000E+00  0.00000000000E+00 -0.23933432524E+03  0.27000892748E+03  0.12499560663E+03 0.  0.
    9000005    1    3    3    0    0  0.28817483422E+02  0.53179745225E+02 -0.85756098911E+02  0.10494589631E+03  0.10000000000E+01 0.  0.
    9000005    1    3    3    0    0 -0.28817483422E+02 -0.53179745225E+02 -0.15357822633E+03  0.16506303116E+03  0.10000000000E+01 0.  0.
<mgrwt>
<rscale>  0 0.12499561E+03</rscale>
<asrwt>0</asrwt>
<pdfrwt beam="1">  1        4 0.23595850E-02 0.12499561E+03</pdfrwt>
<pdfrwt beam="2">  1       -4 0.39180247E-01 0.12499561E+03</pdfrwt>
<totfact> 0.79529423E+03</totfact>
</mgrwt>
</event>
<event>
 5    1  0.3270363E-002  0.1249999E+03  0.7818608E-02  0.1235069E+00
         -4   -1    0    0    0  501 -0.00000000000E+00  0.00000000000E+00  0.97195506457E+01  0.98021714306E+01  0.12700000000E+01 0. -1.
          4   -1    0    0  501    0  0.00000000000E+00 -0.00000000000E+00 -0.40011074945E+03  0.40011276501E+03  0.12700000000E+01 0. -1.
         25    2    1    2    0    0  0.00000000000E+00  0.00000000000E+00 -0.39039119880E+03  0.40991493644E+03  0.12499986806E+03 0.  0.
    9000005    1    3    3    0    0 -0.50244792258E+01  0.61878707640E+02 -0.21861967792E+03  0.22726588706E+03  0.10000000000E+01 0.  0.
    9000005    1    3    3    0    0  0.50244792258E+01 -0.61878707640E+02 -0.17177152088E+03  0.18264904937E+03  0.10000000000E+01 0.  0.
<mgrwt>
<rscale>  0 0.12499987E+03</rscale>
<asrwt>0</asrwt>
<pdfrwt beam="2">  1        4 0.61561998E-01 0.12499987E+03</pdfrwt>
<pdfrwt beam="1">  1       -4 0.15018263E-02 0.12499987E+03</pdfrwt>
<totfact> 0.63599955E+03</totfact>
</mgrwt>
</event>
<event>
 5    1  0.3270363E-002  0.1249945E+03  0.7818608E-02  0.1235078E+00
         -4   -1    0    0    0  501 -0.00000000000E+00  0.00000000000E+00  0.57241285212E+02  0.57255372086E+02  0.12700000000E+01 0.  1.
          4   -1    0    0  501    0  0.00000000000E+00 -0.00000000000E+00 -0.68207396266E+02  0.68219218739E+02  0.12700000000E+01 0.  1.
         25    2    1    2    0    0  0.00000000000E+00  0.00000000000E+00 -0.10966111054E+02  0.12547459083E+03  0.12499446928E+03 0.  0.
    9000005    1    3    3    0    0  0.43347976998E+02  0.17164630058E+02  0.36284851633E+02  0.59086902888E+02  0.10000000000E+01 0.  0.
    9000005    1    3    3    0    0 -0.43347976998E+02 -0.17164630058E+02 -0.47250962687E+02  0.66387687938E+02  0.10000000000E+01 0.  0.
<mgrwt>
<rscale>  0 0.12499447E+03</rscale>
<asrwt>0</asrwt>
<pdfrwt beam="2">  1        4 0.10495439E-01 0.12499447E+03</pdfrwt>
<pdfrwt beam="1">  1       -4 0.88083446E-02 0.12499447E+03</pdfrwt>
<totfact> 0.10443818E+04</totfact>
</mgrwt>
</event>
<event>
 4    1  0.3270363E-002  0.1245503E+03  0.7818608E-02  0.1235774E+00
         -4   -1    0    0    0  501 -0.00000000000E+00  0.00000000000E+00  0.59919888929E+01  0.61250984394E+01  0.12700000000E+01 0.  1.
          4   -1    0    0  501    0  0.00000000000E+00 -0.00000000000E+00 -0.63998599138E+03  0.63998725149E+03  0.12700000000E+01 0.  1.
    9000005    1    1    2    0    0  0.53248438248E+02 -0.32112546827E+02 -0.30012223213E+03  0.30649790548E+03  0.10000000000E+01 0.  0.
    9000005    1    1    2    0    0 -0.53248438248E+02  0.32112546827E+02 -0.33387177035E+03  0.33961444445E+03  0.10000000000E+01 0.  0.
<mgrwt>
<rscale>  0 0.12455029E+03</rscale>
<asrwt>0</asrwt>
<pdfrwt beam="2">  1        4 0.98469666E-01 0.12455029E+03</pdfrwt>
<pdfrwt beam="1">  1       -4 0.93218108E-03 0.12455029E+03</pdfrwt>
<totfact> 0.46537223E+03</totfact>
</mgrwt>
</event>
<event>
 5    1  0.3270363E-002  0.1249861E+03  0.7818608E-02  0.1235091E+00
          4   -1    0    0  501    0  0.00000000000E+00  0.00000000000E+00  0.35504524851E+02  0.35527231596E+02  0.12700000000E+01 0.  1.
         -4   -1    0    0    0  501 -0.00000000000E+00 -0.00000000000E+00 -0.10993520473E+03  0.10994254017E+03  0.12700000000E+01 0.  1.
         25    2    1    2    0    0  0.00000000000E+00  0.00000000000E+00 -0.74430679875E+02  0.14546977176E+03  0.12498611279E+03 0.  0.
    9000005    1    3    3    0    0  0.49790804479E+02  0.35602790784E+02 -0.51831244792E+02  0.80213221223E+02  0.10000000000E+01 0.  0.
    9000005    1    3    3    0    0 -0.49790804479E+02 -0.35602790784E+02 -0.22599435082E+02  0.65256550539E+02  0.10000000000E+01 0.  0.
<mgrwt>
<rscale>  0 0.12498611E+03</rscale>
<asrwt>0</asrwt>
<pdfrwt beam="1">  1        4 0.54645456E-02 0.12498611E+03</pdfrwt>
<pdfrwt beam="2">  1       -4 0.16915419E-01 0.12498611E+03</pdfrwt>
<totfact> 0.10024587E+04</totfact>
</mgrwt>
</event>
<event>
 5    1  0.3270363E-002  0.1249468E+03  0.7818608E-02  0.1235152E+00
          4   -1    0    0  501    0  0.00000000000E+00  0.00000000000E+00  0.10095108376E+03  0.10095907196E+03  0.12700000000E+01 0. -1.
         -4   -1    0    0    0  501 -0.00000000000E+00 -0.00000000000E+00 -0.38641606281E+02  0.38662470640E+02  0.12700000000E+01 0. -1.
         25    2    1    2    0    0  0.00000000000E+00  0.00000000000E+00  0.62309477475E+02  0.13962154260E+03  0.12494680538E+03 0.  0.
    9000005    1    3    3    0    0  0.37272954910E+02  0.49678494199E+02  0.23683691622E+02  0.66476636516E+02  0.10000000000E+01 0.  0.
    9000005    1    3    3    0    0 -0.37272954910E+02 -0.49678494199E+02  0.38625785853E+02  0.73144906086E+02  0.10000000000E+01 0.  0.
<mgrwt>
<rscale>  0 0.12494681E+03</rscale>
<asrwt>0</asrwt>
<pdfrwt beam="1">  1        4 0.15533155E-01 0.12494681E+03</pdfrwt>
<pdfrwt beam="2">  1       -4 0.59470820E-02 0.12494681E+03</pdfrwt>
<totfact> 0.10153599E+04</totfact>
</mgrwt>
</event>
<event>
 5    1  0.3270363E-002  0.1249763E+03  0.7818608E-02  0.1235106E+00
          4   -1    0    0  501    0  0.00000000000E+00  0.00000000000E+00  0.12413327360E+02  0.12478124705E+02  0.12700000000E+01 0.  1.
         -4   -1    0    0    0  501 -0.00000000000E+00 -0.00000000000E+00 -0.31367791825E+03  0.31368048919E+03  0.12700000000E+01 0.  1.
         25    2    1    2    0    0  0.00000000000E+00  0.00000000000E+00 -0.30126459089E+03  0.32615861389E+03  0.12497634854E+03 0.  0.
    9000005    1    3    3    0    0 -0.48487714079E+02 -0.39221910327E+02 -0.14074433986E+03  0.15394604856E+03  0.10000000000E+01 0.  0.
    9000005    1    3    3    0    0  0.48487714079E+02  0.39221910327E+02 -0.16052025103E+03  0.17221256533E+03  0.10000000000E+01 0.  0.
<mgrwt>
<rscale>  0 0.12497635E+03</rscale>
<asrwt>0</asrwt>
<pdfrwt beam="1">  1        4 0.19149251E-02 0.12497635E+03</pdfrwt>
<pdfrwt beam="2">  1       -4 0.48263317E-01 0.12497635E+03</pdfrwt>
<totfact> 0.72467554E+03</totfact>
</mgrwt>
</event>
<event>
 5    1  0.3270363E-002  0.1250004E+03  0.7818608E-02  0.1235069E+00
          4   -1    0    0  501    0  0.00000000000E+00  0.00000000000E+00  0.54478869339E+03  0.54479017368E+03  0.12700000000E+01 0. -1.
         -4   -1    0    0    0  501 -0.00000000000E+00 -0.00000000000E+00 -0.71125172766E+01  0.72250122499E+01  0.12700000000E+01 0. -1.
         25    2    1    2    0    0  0.00000000000E+00  0.00000000000E+00  0.53767617611E+03  0.55201518593E+03  0.12500038058E+03 0.  0.
    9000005    1    3    3    0    0  0.48488975484E+02  0.36584480288E+02  0.20398459147E+03  0.21283871476E+03  0.10000000000E+01 0.  0.
    9000005    1    3    3    0    0 -0.48488975484E+02 -0.36584480288E+02  0.33369158464E+03  0.33917647118E+03  0.10000000000E+01 0.  0.
<mgrwt>
<rscale>  0 0.12500038E+03</rscale>
<asrwt>0</asrwt>
<pdfrwt beam="1">  1        4 0.83822411E-01 0.12500038E+03</pdfrwt>
<pdfrwt beam="2">  1       -4 0.11030008E-02 0.12500038E+03</pdfrwt>
<totfact> 0.52043323E+03</totfact>
</mgrwt>
</event>
<event>
 5    1  0.3270363E-002  0.1249990E+03  0.7818608E-02  0.1235071E+00
         -4   -1    0    0    0  501 -0.00000000000E+00  0.00000000000E+00  0.21357608136E+02  0.21395334194E+02  0.12700000000E+01 0.  1.
          4   -1    0    0  501    0  0.00000000000E+00 -0.00000000000E+00 -0.18269317752E+03  0.18269759170E+03  0.12700000000E+01 0.  1.
         25    2    1    2    0    0  0.00000000000E+00  0.00000000000E+00 -0.16133556939E+03  0.20409292589E+03  0.12499902580E+03 0.  0.
    9000005    1    3    3    0    0 -0.37436398391E+02 -0.36242038927E+02 -0.13699715669E+03  0.14657486227E+03  0.10000000000E+01 0.  0.
    9000005    1    3    3    0    0  0.37436398391E+02  0.36242038927E+02 -0.24338412699E+02  0.57518063621E+02  0.10000000000E+01 0.  0.
<mgrwt>
<rscale>  0 0.12499903E+03</rscale>
<asrwt>0</asrwt>
<pdfrwt beam="2">  1        4 0.28109883E-01 0.12499903E+03</pdfrwt>
<pdfrwt beam="1">  1       -4 0.32890276E-02 0.12499903E+03</pdfrwt>
<totfact> 0.89451713E+03</totfact>
</mgrwt>
</event>
<event>
 5    1  0.3270363E-002  0.1249978E+03  0.7818608E-02  0.1235073E+00
         -4   -1    0    0    0  501 -0.00000000000E+00  0.00000000000E+00  0.15024898437E+03  0.15025435169E+03  0.12700000000E+01 0. -1.
          4   -1    0    0  501    0  0.00000000000E+00 -0.00000000000E+00 -0.25976252801E+02  0.26007279934E+02  0.12700000000E+01 0. -1.
         25    2    1    2    0    0  0.00000000000E+00  0.00000000000E+00  0.12427273156E+03  0.17626163163E+03  0.12499780387E+03 0.  0.
    9000005    1    3    3    0    0  0.41323038462E+02 -0.74052894964E+01  0.12740945310E+03  0.13415140909E+03  0.10000000000E+01 0.  0.
    9000005    1    3    3    0    0 -0.41323038462E+02  0.74052894964E+01 -0.31367215394E+01  0.42110222539E+02  0.10000000000E+01 0.  0.
<mgrwt>
<rscale>  0 0.12499780E+03</rscale>
<asrwt>0</asrwt>
<pdfrwt beam="2">  1        4 0.39991462E-02 0.12499780E+03</pdfrwt>
<pdfrwt beam="1">  1       -4 0.23118028E-01 0.12499780E+03</pdfrwt>
<totfact> 0.94298928E+03</totfact>
</mgrwt>
</event>
<event>
 5    1  0.3270363E-002  0.1250050E+03  0.7818608E-02  0.1235061E+00
          4   -1    0    0  501    0  0.00000000000E+00  0.00000000000E+00  0.91396771898E+02  0.91405595088E+02  0.12700000000E+01 0. -1.
         -4   -1    0    0    0  501 -0.00000000000E+00 -0.00000000000E+00 -0.42722581778E+02  0.42741454044E+02  0.12700000000E+01 0. -1.
         25    2    1    2    0    0  0.00000000000E+00  0.00000000000E+00  0.48674190119E+02  0.13414704913E+03  0.12500501593E+03 0.  0.
    9000005    1    3    3    0    0 -0.33067279125E+02  0.46370620908E+02 -0.32715217031E+01  0.57055957501E+02  0.10000000000E+01 0.  0.
    9000005    1    3    3    0    0  0.33067279125E+02 -0.46370620908E+02  0.51945711823E+02  0.77091091631E+02  0.10000000000E+01 0.  0.
<mgrwt>
<rscale>  0 0.12500502E+03</rscale>
<asrwt>0</asrwt>
<pdfrwt beam="1">  1        4 0.14063172E-01 0.12500502E+03</pdfrwt>
<pdfrwt beam="2">  1       -4 0.65748355E-02 0.12500502E+03</pdfrwt>
<totfact> 0.10254920E+04</totfact>
</mgrwt>
</event>
<event>
 5    1  0.3270363E-002  0.1250006E+03  0.7818608E-02  0.1235068E+00
          4   -1    0    0  501    0  0.00000000000E+00  0.00000000000E+00  0.17744846235E+03  0.17745300699E+03  0.12700000000E+01 0.  1.
         -4   -1    0    0    0  501 -0.00000000000E+00 -0.00000000000E+00 -0.21990504107E+02  0.22027146226E+02  0.12700000000E+01 0.  1.
         25    2    1    2    0    0  0.00000000000E+00  0.00000000000E+00  0.15545795824E+03  0.19948015322E+03  0.12500061898E+03 0.  0.
    9000005    1    3    3    0    0  0.25339310572E+02 -0.40416996137E+02  0.14215153604E+03  0.14994556824E+03  0.10000000000E+01 0.  0.
    9000005    1    3    3    0    0 -0.25339310572E+02  0.40416996137E+02  0.13306422207E+02  0.49534584978E+02  0.10000000000E+01 0.  0.
<mgrwt>
<rscale>  0 0.12500062E+03</rscale>
<asrwt>0</asrwt>
<pdfrwt beam="1">  1        4 0.27302930E-01 0.12500062E+03</pdfrwt>
<pdfrwt beam="2">  1       -4 0.33863228E-02 0.12500062E+03</pdfrwt>
<totfact> 0.90222008E+03</totfact>
</mgrwt>
</event>
<event>
 5    1  0.3270363E-002  0.1250052E+03  0.7818608E-02  0.1235061E+00
          4   -1    0    0  501    0  0.00000000000E+00  0.00000000000E+00  0.68413916617E+01  0.69582713276E+01  0.12700000000E+01 0. -1.
         -4   -1    0    0    0  501 -0.00000000000E+00 -0.00000000000E+00 -0.56606683318E+03  0.56606825783E+03  0.12700000000E+01 0. -1.
         25    2    1    2    0    0  0.00000000000E+00  0.00000000000E+00 -0.55922544152E+03  0.57302652916E+03  0.12500523461E+03 0.  0.
    9000005    1    3    3    0    0  0.24884170425E+02  0.36560116041E+02 -0.77202755941E+02  0.88978253228E+02  0.10000000000E+01 0.  0.
    9000005    1    3    3    0    0 -0.24884170425E+02 -0.36560116041E+02 -0.48202268558E+03  0.48404827593E+03  0.10000000000E+01 0.  0.
<mgrwt>
<rscale>  0 0.12500523E+03</rscale>
<asrwt>0</asrwt>
<pdfrwt beam="1">  1        4 0.10616226E-02 0.12500523E+03</pdfrwt>
<pdfrwt beam="2">  1       -4 0.87096269E-01 0.12500523E+03</pdfrwt>
<totfact> 0.50609957E+03</totfact>
</mgrwt>
</event>
<event>
 5    1  0.3270363E-002  0.1250054E+03  0.7818608E-02  0.1235061E+00
         -4   -1    0    0    0  501 -0.00000000000E+00  0.00000000000E+00  0.90429968872E+03  0.90430058051E+03  0.12700000000E+01 0. -1.
          4   -1    0    0  501    0  0.00000000000E+00 -0.00000000000E+00 -0.42257620733E+01  0.44124783399E+01  0.12700000000E+01 0. -1.
         25    2    1    2    0    0  0.00000000000E+00  0.00000000000E+00  0.90007392664E+03  0.90871305885E+03  0.12500539950E+03 0.  0.
    9000005    1    3    3    0    0 -0.25050143058E+02 -0.56739933181E+02  0.50571204332E+03  0.50950230661E+03  0.10000000000E+01 0.  0.
    9000005    1    3    3    0    0  0.25050143058E+02  0.56739933181E+02  0.39436188333E+03  0.39921075224E+03  0.10000000000E+01 0.  0.
<mgrwt>
<rscale>  0 0.12500540E+03</rscale>
<asrwt>0</asrwt>
<pdfrwt beam="2">  1        4 0.66454915E-03 0.12500540E+03</pdfrwt>
<pdfrwt beam="1">  1       -4 0.13913735E+00 0.12500540E+03</pdfrwt>
<totfact> 0.33824516E+03</totfact>
</mgrwt>
</event>
<event>
 5    1  0.3270363E-002  0.1249992E+03  0.7818608E-02  0.1235071E+00
         -4   -1    0    0    0  501 -0.00000000000E+00  0.00000000000E+00  0.28263525200E+01  0.30985752480E+01  0.12700000000E+01 0.  1.
          4   -1    0    0  501    0  0.00000000000E+00 -0.00000000000E+00 -0.13182915721E+04  0.13182921838E+04  0.12700000000E+01 0.  1.
         25    2    1    2    0    0  0.00000000000E+00  0.00000000000E+00 -0.13154652196E+04  0.13213907591E+04  0.12499917710E+03 0.  0.
    9000005    1    3    3    0    0 -0.23725748003E+02 -0.15769452171E+02 -0.12457051192E+04  0.12460312319E+04  0.10000000000E+01 0.  0.
    9000005    1    3    3    0    0  0.23725748003E+02  0.15769452171E+02 -0.69760100337E+02  0.75359527195E+02  0.10000000000E+01 0.  0.
<mgrwt>
<rscale>  0 0.12499918E+03</rscale>
<asrwt>0</asrwt>
<pdfrwt beam="2">  1        4 0.20283461E+00 0.12499918E+03</pdfrwt>
<pdfrwt beam="1">  1       -4 0.45581178E-03 0.12499918E+03</pdfrwt>
<totfact> 0.21729684E+03</totfact>
</mgrwt>
</event>
<event>
 5    1  0.3270363E-002  0.1249999E+03  0.7818608E-02  0.1235069E+00
          4   -1    0    0  501    0  0.00000000000E+00  0.00000000000E+00  0.34966175755E+02  0.34989231871E+02  0.12700000000E+01 0.  1.
         -4   -1    0    0    0  501 -0.00000000000E+00 -0.00000000000E+00 -0.11165148868E+03  0.11165871136E+03  0.12700000000E+01 0.  1.
         25    2    1    2    0    0  0.00000000000E+00  0.00000000000E+00 -0.76685312920E+02  0.14664794323E+03  0.12499992815E+03 0.  0.
    9000005    1    3    3    0    0 -0.21410037110E+02  0.57570381396E+02 -0.51847378004E+02  0.80385876303E+02  0.10000000000E+01 0.  0.
    9000005    1    3    3    0    0  0.21410037110E+02 -0.57570381396E+02 -0.24837934916E+02  0.66262066932E+02  0.10000000000E+01 0.  0.
<mgrwt>
<rscale>  0 0.12499993E+03</rscale>
<asrwt>0</asrwt>
<pdfrwt beam="1">  1        4 0.53817409E-02 0.12499993E+03</pdfrwt>
<pdfrwt beam="2">  1       -4 0.17179481E-01 0.12499993E+03</pdfrwt>
<totfact> 0.99976289E+03</totfact>
</mgrwt>
</event>
<event>
 5    1  0.3270363E-002  0.1250035E+03  0.7818608E-02  0.1235064E+00
         -4   -1    0    0    0  501 -0.00000000000E+00  0.00000000000E+00  0.12140434416E+03  0.12141098665E+03  0.12700000000E+01 0.  1.
          4   -1    0    0  501    0  0.00000000000E+00 -0.00000000000E+00 -0.32157306759E+02  0.32182375269E+02  0.12700000000E+01 0.  1.
         25    2    1    2    0    0  0.00000000000E+00  0.00000000000E+00  0.89247037398E+02  0.15359336192E+03  0.12500354852E+03 0.  0.
    9000005    1    3    3    0    0 -0.59249376442E+02  0.18211555134E+02  0.54401043206E+02  0.82478014350E+02  0.10000000000E+01 0.  0.
    9000005    1    3    3    0    0  0.59249376442E+02 -0.18211555134E+02  0.34845994192E+02  0.71115347573E+02  0.10000000000E+01 0.  0.
<mgrwt>
<rscale>  0 0.12500355E+03</rscale>
<asrwt>0</asrwt>
<pdfrwt beam="2">  1        4 0.49497173E-02 0.12500355E+03</pdfrwt>
<pdfrwt beam="1">  1       -4 0.18680031E-01 0.12500355E+03</pdfrwt>
<totfact> 0.98584307E+03</totfact>
</mgrwt>
</event>
<event>
 5    1  0.3270363E-002  0.1250000E+03  0.7818608E-02  0.1235069E+00
         -4   -1    0    0    0  501 -0.00000000000E+00  0.00000000000E+00  0.10730061439E+02  0.10804958051E+02  0.12700000000E+01 0. -1.
          4   -1    0    0  501    0  0.00000000000E+00 -0.00000000000E+00 -0.36270526757E+03  0.36270749099E+03  0.12700000000E+01 0. -1.
         25    2    1    2    0    0  0.00000000000E+00  0.00000000000E+00 -0.35197520613E+03  0.37351244904E+03  0.12500001544E+03 0.  0.
    9000005    1    3    3    0    0 -0.46400951279E+02 -0.17369149169E+02 -0.28979124959E+03  0.29399779585E+03  0.10000000000E+01 0.  0.
    9000005    1    3    3    0    0  0.46400951279E+02  0.17369149169E+02 -0.62183956535E+02  0.79514653195E+02  0.10000000000E+01 0.  0.
<mgrwt>
<rscale>  0 0.12500002E+03</rscale>
<asrwt>0</asrwt>
<pdfrwt beam="2">  1        4 0.55806733E-01 0.12500002E+03</pdfrwt>
<pdfrwt beam="1">  1       -4 0.16567113E-02 0.12500002E+03</pdfrwt>
<totfact> 0.67213044E+03</totfact>
</mgrwt>
</event>
<event>
 5    1  0.3270363E-002  0.1250005E+03  0.7818608E-02  0.1235068E+00
          4   -1    0    0  501    0  0.00000000000E+00  0.00000000000E+00  0.18787518532E+03  0.18787947774E+03  0.12700000000E+01 0. -1.
         -4   -1    0    0    0  501 -0.00000000000E+00 -0.00000000000E+00 -0.20767978188E+02  0.20806773369E+02  0.12700000000E+01 0. -1.
         25    2    1    2    0    0  0.00000000000E+00  0.00000000000E+00  0.16710720713E+03  0.20868625111E+03  0.12500053092E+03 0.  0.
    9000005    1    3    3    0    0 -0.22145373825E+02 -0.53310289584E+02  0.43594725222E+02  0.72345729830E+02  0.10000000000E+01 0.  0.
    9000005    1    3    3    0    0  0.22145373825E+02  0.53310289584E+02  0.12351248190E+03  0.13634052128E+03  0.10000000000E+01 0.  0.
<mgrwt>
<rscale>  0 0.12500053E+03</rscale>
<asrwt>0</asrwt>
<pdfrwt beam="1">  1        4 0.28907189E-01 0.12500053E+03</pdfrwt>
<pdfrwt beam="2">  1       -4 0.31983880E-02 0.12500053E+03</pdfrwt>
<totfact> 0.88689830E+03</totfact>
</mgrwt>
</event>
<event>
 5    1  0.3270363E-002  0.1250023E+03  0.7818608E-02  0.1235066E+00
         -4   -1    0    0    0  501 -0.00000000000E+00  0.00000000000E+00  0.63111701660E+02  0.63124478504E+02  0.12700000000E+01 0. -1.
          4   -1    0    0  501    0  0.00000000000E+00 -0.00000000000E+00 -0.61870926830E+02  0.61883959850E+02  0.12700000000E+01 0. -1.
         25    2    1    2    0    0  0.00000000000E+00  0.00000000000E+00  0.12407748304E+01  0.12500843835E+03  0.12500228053E+03 0.  0.
    9000005    1    3    3    0    0 -0.18318234590E+01  0.30403876327E+02  0.55190843122E+02  0.63045859796E+02  0.10000000000E+01 0.  0.
    9000005    1    3    3    0    0  0.18318234590E+01 -0.30403876327E+02 -0.53950068292E+02  0.61962578558E+02  0.10000000000E+01 0.  0.
<mgrwt>
<rscale>  0 0.12500228E+03</rscale>
<asrwt>0</asrwt>
<pdfrwt beam="2">  1        4 0.95205894E-02 0.12500228E+03</pdfrwt>
<pdfrwt beam="1">  1       -4 0.97114780E-02 0.12500228E+03</pdfrwt>
<totfact> 0.10452141E+04</totfact>
</mgrwt>
</event>
<event>
 5    1  0.3270363E-002  0.1250008E+03  0.7818608E-02  0.1235068E+00
          4   -1    0    0  501    0  0.00000000000E+00  0.00000000000E+00  0.13326321486E+03  0.13326926628E+03  0.12700000000E+01 0. -1.
         -4   -1    0    0    0  501 -0.00000000000E+00 -0.00000000000E+00 -0.29292189993E+02  0.29319708297E+02  0.12700000000E+01 0. -1.
         25    2    1    2    0    0  0.00000000000E+00  0.00000000000E+00  0.10397102487E+03  0.16258897458E+03  0.12500080257E+03 0.  0.
    9000005    1    3    3    0    0  0.55732515337E+02 -0.12370843326E+02  0.18922328536E+02  0.60151521574E+02  0.10000000000E+01 0.  0.
    9000005    1    3    3    0    0 -0.55732515337E+02  0.12370843326E+02  0.85048696333E+02  0.10243745301E+03  0.10000000000E+01 0.  0.
<mgrwt>
<rscale>  0 0.12500080E+03</rscale>
<asrwt>0</asrwt>
<pdfrwt beam="1">  1        4 0.20504615E-01 0.12500080E+03</pdfrwt>
<pdfrwt beam="2">  1       -4 0.45090731E-02 0.12500080E+03</pdfrwt>
<totfact> 0.96844214E+03</totfact>
</mgrwt>
</event>
<event>
 5    1  0.3270363E-002  0.1250005E+03  0.7818608E-02  0.1235068E+00
          4   -1    0    0  501    0  0.00000000000E+00  0.00000000000E+00  0.33866437022E+02  0.33890241318E+02  0.12700000000E+01 0. -1.
         -4   -1    0    0    0  501 -0.00000000000E+00 -0.00000000000E+00 -0.11527597598E+03  0.11528297159E+03  0.12700000000E+01 0. -1.
         25    2    1    2    0    0  0.00000000000E+00  0.00000000000E+00 -0.81409538961E+02  0.14917321291E+03  0.12500053766E+03 0.  0.
    9000005    1    3    3    0    0 -0.56145977861E+02 -0.61211321611E+01 -0.72625067829E+02  0.92006736526E+02  0.10000000000E+01 0.  0.
    9000005    1    3    3    0    0  0.56145977861E+02  0.61211321611E+01 -0.87844711318E+01  0.57166476383E+02  0.10000000000E+01 0.  0.
<mgrwt>
<rscale>  0 0.12500054E+03</rscale>
<asrwt>0</asrwt>
<pdfrwt beam="1">  1        4 0.52125904E-02 0.12500054E+03</pdfrwt>
<pdfrwt beam="2">  1       -4 0.17737135E-01 0.12500054E+03</pdfrwt>
<totfact> 0.99467557E+03</totfact>
</mgrwt>
</event>
<event>
 5    1  0.3270363E-002  0.1249898E+03  0.7818608E-02  0.1235085E+00
          4   -1    0    0  501    0  0.00000000000E+00  0.00000000000E+00  0.11391846221E+03  0.11392554117E+03  0.12700000000E+01 0. -1.
         -4   -1    0    0    0  501 -0.00000000000E+00 -0.00000000000E+00 -0.34264390235E+02  0.34287918254E+02  0.12700000000E+01 0. -1.
         25    2    1    2    0    0  0.00000000000E+00  0.00000000000E+00  0.79654071971E+02  0.14821345943E+03  0.12498983308E+03 0.  0.
    9000005    1    3    3    0    0 -0.61919729818E+02 -0.43804343218E+01  0.48326319423E+02  0.78674483122E+02  0.10000000000E+01 0.  0.
    9000005    1    3    3    0    0  0.61919729818E+02  0.43804343218E+01  0.31327752548E+02  0.69538976303E+02  0.10000000000E+01 0.  0.
<mgrwt>
<rscale>  0 0.12498983E+03</rscale>
<asrwt>0</asrwt>
<pdfrwt beam="1">  1        4 0.17528272E-01 0.12498983E+03</pdfrwt>
<pdfrwt beam="2">  1       -4 0.52737989E-02 0.12498983E+03</pdfrwt>
<totfact> 0.99683828E+03</totfact>
</mgrwt>
</event>
<event>
 5    1  0.3270363E-002  0.1250082E+03  0.7818608E-02  0.1235057E+00
         -4   -1    0    0    0  501 -0.00000000000E+00  0.00000000000E+00  0.89060937233E+01  0.89961883822E+01  0.12700000000E+01 0. -1.
          4   -1    0    0  501    0  0.00000000000E+00 -0.00000000000E+00 -0.43636279631E+03  0.43636464442E+03  0.12700000000E+01 0. -1.
         25    2    1    2    0    0  0.00000000000E+00  0.00000000000E+00 -0.42745670258E+03  0.44536083280E+03  0.12500815498E+03 0.  0.
    9000005    1    3    3    0    0  0.43815591709E+02 -0.24348109895E+01 -0.55199231911E+02  0.70524390001E+02  0.10000000000E+01 0.  0.
    9000005    1    3    3    0    0 -0.43815591709E+02  0.24348109895E+01 -0.37225747067E+03  0.37483644280E+03  0.10000000000E+01 0.  0.
<mgrwt>
<rscale>  0 0.12500815E+03</rscale>
<asrwt>0</asrwt>
<pdfrwt beam="2">  1        4 0.67139794E-01 0.12500815E+03</pdfrwt>
<pdfrwt beam="1">  1       -4 0.13772411E-02 0.12500815E+03</pdfrwt>
<totfact> 0.60356966E+03</totfact>
</mgrwt>
</event>
<event>
 5    1  0.3270363E-002  0.1249979E+03  0.7818608E-02  0.1235073E+00
          4   -1    0    0  501    0  0.00000000000E+00  0.00000000000E+00  0.22963131549E+02  0.22998224074E+02  0.12700000000E+01 0. -1.
         -4   -1    0    0    0  501 -0.00000000000E+00 -0.00000000000E+00 -0.16993662230E+03  0.16994136783E+03  0.12700000000E+01 0. -1.
         25    2    1    2    0    0  0.00000000000E+00  0.00000000000E+00 -0.14697349075E+03  0.19293959190E+03  0.12499791654E+03 0.  0.
    9000005    1    3    3    0    0  0.44065544490E+02 -0.17448970463E+02 -0.13635424650E+03  0.14435968731E+03  0.10000000000E+01 0.  0.
    9000005    1    3    3    0    0 -0.44065544490E+02  0.17448970463E+02 -0.10619244248E+02  0.48579904588E+02  0.10000000000E+01 0.  0.
<mgrwt>
<rscale>  0 0.12499792E+03</rscale>
<asrwt>0</asrwt>
<pdfrwt beam="1">  1        4 0.35358540E-02 0.12499792E+03</pdfrwt>
<pdfrwt beam="2">  1       -4 0.26147159E-01 0.12499792E+03</pdfrwt>
<totfact> 0.91342598E+03</totfact>
</mgrwt>
</event>
<event>
 5    1  0.3270363E-002  0.1250020E+03  0.7818608E-02  0.1235066E+00
          4   -1    0    0  501    0  0.00000000000E+00  0.00000000000E+00  0.12561043652E+02  0.12625082876E+02  0.12700000000E+01 0.  1.
         -4   -1    0    0    0  501 -0.00000000000E+00 -0.00000000000E+00 -0.31013500112E+03  0.31013760142E+03  0.12700000000E+01 0.  1.
         25    2    1    2    0    0  0.00000000000E+00  0.00000000000E+00 -0.29757395746E+03  0.32276268430E+03  0.12500196085E+03 0.  0.
    9000005    1    3    3    0    0 -0.15342408062E+02 -0.35116155173E+02 -0.27624873139E+03  0.27889585051E+03  0.10000000000E+01 0.  0.
    9000005    1    3    3    0    0  0.15342408062E+02  0.35116155173E+02 -0.21325226073E+02  0.43866833786E+02  0.10000000000E+01 0.  0.
<mgrwt>
<rscale>  0 0.12500196E+03</rscale>
<asrwt>0</asrwt>
<pdfrwt beam="1">  1        4 0.19375946E-02 0.12500196E+03</pdfrwt>
<pdfrwt beam="2">  1       -4 0.47718198E-01 0.12500196E+03</pdfrwt>
<totfact> 0.72825578E+03</totfact>
</mgrwt>
</event>
<event>
 5    1  0.3270363E-002  0.1249987E+03  0.7818608E-02  0.1235071E+00
         -4   -1    0    0    0  501 -0.00000000000E+00  0.00000000000E+00  0.18749092585E+02  0.18792056108E+02  0.12700000000E+01 0.  1.
          4   -1    0    0  501    0  0.00000000000E+00 -0.00000000000E+00 -0.20805580471E+03  0.20805968080E+03  0.12700000000E+01 0.  1.
         25    2    1    2    0    0  0.00000000000E+00  0.00000000000E+00 -0.18930671213E+03  0.22685173691E+03  0.12499871712E+03 0.  0.
    9000005    1    3    3    0    0 -0.35556612574E+02 -0.44279943722E+02 -0.14198479037E+03  0.15292372874E+03  0.10000000000E+01 0.  0.
    9000005    1    3    3    0    0  0.35556612574E+02  0.44279943722E+02 -0.47321921755E+02  0.73928008172E+02  0.10000000000E+01 0.  0.
<mgrwt>
<rscale>  0 0.12499872E+03</rscale>
<asrwt>0</asrwt>
<pdfrwt beam="2">  1        4 0.32012187E-01 0.12499872E+03</pdfrwt>
<pdfrwt beam="1">  1       -4 0.28880790E-02 0.12499872E+03</pdfrwt>
<totfact> 0.85797829E+03</totfact>
</mgrwt>
</event>
<event>
 5    1  0.3270363E-002  0.1249961E+03  0.7818608E-02  0.1235075E+00
          4   -1    0    0  501    0  0.00000000000E+00  0.00000000000E+00  0.97436663601E+01  0.98260843747E+01  0.12700000000E+01 0. -1.
         -4   -1    0    0    0  501 -0.00000000000E+00 -0.00000000000E+00 -0.39910468083E+03  0.39910670147E+03  0.12700000000E+01 0. -1.
         25    2    1    2    0    0  0.00000000000E+00  0.00000000000E+00 -0.38936101447E+03  0.40893278584E+03  0.12499609495E+03 0.  0.
    9000005    1    3    3    0    0  0.58461620433E+02  0.22068933901E+02 -0.19616908951E+03  0.20588373075E+03  0.10000000000E+01 0.  0.
    9000005    1    3    3    0    0 -0.58461620433E+02 -0.22068933901E+02 -0.19319192495E+03  0.20304905509E+03  0.10000000000E+01 0.  0.
<mgrwt>
<rscale>  0 0.12499609E+03</rscale>
<asrwt>0</asrwt>
<pdfrwt beam="1">  1        4 0.15055212E-02 0.12499609E+03</pdfrwt>
<pdfrwt beam="2">  1       -4 0.61407203E-01 0.12499609E+03</pdfrwt>
<totfact> 0.63698667E+03</totfact>
</mgrwt>
</event>
<event>
 5    1  0.3270363E-002  0.1249890E+03  0.7818608E-02  0.1235086E+00
         -4   -1    0    0    0  501 -0.00000000000E+00  0.00000000000E+00  0.46606789754E+01  0.48306136786E+01  0.12700000000E+01 0. -1.
          4   -1    0    0  501    0  0.00000000000E+00 -0.00000000000E+00 -0.82280751107E+03  0.82280849119E+03  0.12700000000E+01 0. -1.
         25    2    1    2    0    0  0.00000000000E+00  0.00000000000E+00 -0.81814683209E+03  0.82763910487E+03  0.12498899568E+03 0.  0.
    9000005    1    3    3    0    0 -0.52682299251E+02  0.40286319794E+01 -0.18817184559E+03  0.19545152341E+03  0.10000000000E+01 0.  0.
    9000005    1    3    3    0    0  0.52682299251E+02 -0.40286319794E+01 -0.62997498651E+03  0.63218758146E+03  0.10000000000E+01 0.  0.
<mgrwt>
<rscale>  0 0.12498900E+03</rscale>
<asrwt>0</asrwt>
<pdfrwt beam="2">  1        4 0.12659881E+00 0.12498900E+03</pdfrwt>
<pdfrwt beam="1">  1       -4 0.73017548E-03 0.12498900E+03</pdfrwt>
<totfact> 0.37069155E+03</totfact>
</mgrwt>
</event>
<event>
 5    1  0.3270363E-002  0.1250002E+03  0.7818608E-02  0.1235069E+00
          4   -1    0    0  501    0  0.00000000000E+00  0.00000000000E+00  0.12045077624E+03  0.12045747132E+03  0.12700000000E+01 0. -1.
         -4   -1    0    0    0  501 -0.00000000000E+00 -0.00000000000E+00 -0.32410356347E+02  0.32435229281E+02  0.12700000000E+01 0. -1.
         25    2    1    2    0    0  0.00000000000E+00  0.00000000000E+00  0.88040419891E+02  0.15289270060E+03  0.12500024945E+03 0.  0.
    9000005    1    3    3    0    0 -0.41337308657E+02 -0.31148338198E+02  0.86852327840E+02  0.10111042929E+03  0.10000000000E+01 0.  0.
    9000005    1    3    3    0    0  0.41337308657E+02  0.31148338198E+02  0.11880920505E+01  0.51782271311E+02  0.10000000000E+01 0.  0.
<mgrwt>
<rscale>  0 0.12500025E+03</rscale>
<asrwt>0</asrwt>
<pdfrwt beam="1">  1        4 0.18533317E-01 0.12500025E+03</pdfrwt>
<pdfrwt beam="2">  1       -4 0.49886370E-02 0.12500025E+03</pdfrwt>
<totfact> 0.98729622E+03</totfact>
</mgrwt>
</event>
<event>
 4    1  0.3270363E-002  0.1251181E+03  0.7818608E-02  0.1234885E+00
          4   -1    0    0  501    0  0.00000000000E+00  0.00000000000E+00  0.31818060984E+02  0.31843396564E+02  0.12700000000E+01 0.  1.
         -4   -1    0    0    0  501 -0.00000000000E+00 -0.00000000000E+00 -0.12292276025E+03  0.12292932070E+03  0.12700000000E+01 0.  1.
    9000005    1    1    2    0    0 -0.16837325133E+02  0.53322902812E+02 -0.80228563044E+02  0.97798005143E+02  0.10000000000E+01 0.  0.
    9000005    1    1    2    0    0  0.16837325133E+02 -0.53322902812E+02 -0.10876136221E+02  0.56974712119E+02  0.10000000000E+01 0.  0.
<mgrwt>
<rscale>  0 0.12511806E+03</rscale>
<asrwt>0</asrwt>
<pdfrwt beam="1">  1        4 0.48975399E-02 0.12511806E+03</pdfrwt>
<pdfrwt beam="2">  1       -4 0.18913647E-01 0.12511806E+03</pdfrwt>
<totfact> 0.98099434E+03</totfact>
</mgrwt>
</event>
<event>
 5    1  0.3270363E-002  0.1249995E+03  0.7818608E-02  0.1235070E+00
          4   -1    0    0  501    0  0.00000000000E+00  0.00000000000E+00  0.15373197994E+03  0.15373722567E+03  0.12700000000E+01 0. -1.
         -4   -1    0    0    0  501 -0.00000000000E+00 -0.00000000000E+00 -0.25387730773E+02  0.25419476269E+02  0.12700000000E+01 0. -1.
         25    2    1    2    0    0  0.00000000000E+00  0.00000000000E+00  0.12834424917E+03  0.17915670194E+03  0.12499951022E+03 0.  0.
    9000005    1    3    3    0    0 -0.16099608571E+02 -0.53456242033E+02  0.23927078697E+02  0.60747611504E+02  0.10000000000E+01 0.  0.
    9000005    1    3    3    0    0  0.16099608571E+02  0.53456242033E+02  0.10441717047E+03  0.11840909044E+03  0.10000000000E+01 0.  0.
<mgrwt>
<rscale>  0 0.12499951E+03</rscale>
<asrwt>0</asrwt>
<pdfrwt beam="1">  1        4 0.23653920E-01 0.12499951E+03</pdfrwt>
<pdfrwt beam="2">  1       -4 0.39086501E-02 0.12499951E+03</pdfrwt>
<totfact> 0.93770049E+03</totfact>
</mgrwt>
</event>
<event>
 5    1  0.3270363E-002  0.1250019E+03  0.7818608E-02  0.1235066E+00
         -4   -1    0    0    0  501 -0.00000000000E+00  0.00000000000E+00  0.31711480662E+02  0.31736901326E+02  0.12700000000E+01 0.  1.
          4   -1    0    0  501    0  0.00000000000E+00 -0.00000000000E+00 -0.12310660337E+03  0.12311315402E+03  0.12700000000E+01 0.  1.
         25    2    1    2    0    0  0.00000000000E+00  0.00000000000E+00 -0.91395122710E+02  0.15485005535E+03  0.12500188473E+03 0.  0.
    9000005    1    3    3    0    0  0.45052091853E+02  0.12553838044E+02  0.56495761842E+01  0.47119078312E+02  0.10000000000E+01 0.  0.
    9000005    1    3    3    0    0 -0.45052091853E+02 -0.12553838044E+02 -0.97044698894E+02  0.10773097704E+03  0.10000000000E+01 0.  0.
<mgrwt>
<rscale>  0 0.12500188E+03</rscale>
<asrwt>0</asrwt>
<pdfrwt beam="2">  1        4 0.18941937E-01 0.12500188E+03</pdfrwt>
<pdfrwt beam="1">  1       -4 0.48811487E-02 0.12500188E+03</pdfrwt>
<totfact> 0.98340774E+03</totfact>
</mgrwt>
</event>
<event>
 5    1  0.3270363E-002  0.1250013E+03  0.7818608E-02  0.1235067E+00
          4   -1    0    0  501    0  0.00000000000E+00  0.00000000000E+00  0.73198156970E+03  0.73198267143E+03  0.12700000000E+01 0. -1.
         -4   -1    0    0    0  501 -0.00000000000E+00 -0.00000000000E+00 -0.52599698141E+01  0.54111165618E+01  0.12700000000E+01 0. -1.
         25    2    1    2    0    0  0.00000000000E+00  0.00000000000E+00  0.72672159989E+03  0.73739378800E+03  0.12500125933E+03 0.  0.
    9000005    1    3    3    0    0 -0.50080717130E+02 -0.34057030913E+02  0.27247475568E+03  0.27912622963E+03  0.10000000000E+01 0.  0.
    9000005    1    3    3    0    0  0.50080717130E+02  0.34057030913E+02  0.45424684420E+03  0.45826755837E+03  0.10000000000E+01 0.  0.
<mgrwt>
<rscale>  0 0.12500126E+03</rscale>
<asrwt>0</asrwt>
<pdfrwt beam="1">  1        4 0.11262425E+00 0.12500126E+03</pdfrwt>
<pdfrwt beam="2">  1       -4 0.82093760E-03 0.12500126E+03</pdfrwt>
<totfact> 0.41183340E+03</totfact>
</mgrwt>
</event>
<event>
 5    1  0.3270363E-002  0.1250007E+03  0.7818608E-02  0.1235068E+00
          4   -1    0    0  501    0  0.00000000000E+00  0.00000000000E+00  0.77639726072E+02  0.77650112457E+02  0.12700000000E+01 0. -1.
         -4   -1    0    0    0  501 -0.00000000000E+00 -0.00000000000E+00 -0.50291296281E+02  0.50307329303E+02  0.12700000000E+01 0. -1.
         25    2    1    2    0    0  0.00000000000E+00  0.00000000000E+00  0.27348429792E+02  0.12795744176E+03  0.12500068116E+03 0.  0.
    9000005    1    3    3    0    0 -0.59219694719E+02  0.19896627220E+02  0.15274705341E+02  0.64320794775E+02  0.10000000000E+01 0.  0.
    9000005    1    3    3    0    0  0.59219694719E+02 -0.19896627220E+02  0.12073724451E+02  0.63636646984E+02  0.10000000000E+01 0.  0.
<mgrwt>
<rscale>  0 0.12500068E+03</rscale>
<asrwt>0</asrwt>
<pdfrwt beam="1">  1        4 0.11946606E-01 0.12500068E+03</pdfrwt>
<pdfrwt beam="2">  1       -4 0.77391547E-02 0.12500068E+03</pdfrwt>
<totfact> 0.10388247E+04</totfact>
</mgrwt>
</event>
<event>
 5    1  0.3270363E-002  0.1249980E+03  0.7818608E-02  0.1235072E+00
         -4   -1    0    0    0  501 -0.00000000000E+00  0.00000000000E+00  0.87908605781E+01  0.88821241662E+01  0.12700000000E+01 0.  1.
          4   -1    0    0  501    0  0.00000000000E+00 -0.00000000000E+00 -0.44195282352E+03  0.44195464826E+03  0.12700000000E+01 0.  1.
         25    2    1    2    0    0  0.00000000000E+00  0.00000000000E+00 -0.43316196294E+03  0.45083677243E+03  0.12499803691E+03 0.  0.
    9000005    1    3    3    0    0 -0.37458846333E+02 -0.19633986057E+02 -0.50652068628E+02  0.65994625792E+02  0.10000000000E+01 0.  0.
    9000005    1    3    3    0    0  0.37458846333E+02  0.19633986057E+02 -0.38250989432E+03  0.38484214663E+03  0.10000000000E+01 0.  0.
<mgrwt>
<rscale>  0 0.12499804E+03</rscale>
<asrwt>0</asrwt>
<pdfrwt beam="2">  1        4 0.67999886E-01 0.12499804E+03</pdfrwt>
<pdfrwt beam="1">  1       -4 0.13596011E-02 0.12499804E+03</pdfrwt>
<totfact> 0.59893971E+03</totfact>
</mgrwt>
</event>
<event>
 5    1  0.3270363E-002  0.1250031E+03  0.7818608E-02  0.1235064E+00
         -4   -1    0    0    0  501 -0.00000000000E+00  0.00000000000E+00  0.88739153075E+02  0.88748240481E+02  0.12700000000E+01 0.  1.
          4   -1    0    0  501    0  0.00000000000E+00 -0.00000000000E+00 -0.44001163748E+02  0.44019487856E+02  0.12700000000E+01 0.  1.
         25    2    1    2    0    0  0.00000000000E+00  0.00000000000E+00  0.44737989327E+02  0.13276772834E+03  0.12500312796E+03 0.  0.
    9000005    1    3    3    0    0  0.13625554623E+02 -0.47393637554E+02 -0.18403407152E+02  0.52645018893E+02  0.10000000000E+01 0.  0.
    9000005    1    3    3    0    0 -0.13625554623E+02  0.47393637554E+02  0.63141396479E+02  0.80122709445E+02  0.10000000000E+01 0.  0.
<mgrwt>
<rscale>  0 0.12500313E+03</rscale>
<asrwt>0</asrwt>
<pdfrwt beam="2">  1        4 0.67715184E-02 0.12500313E+03</pdfrwt>
<pdfrwt beam="1">  1       -4 0.13654286E-01 0.12500313E+03</pdfrwt>
<totfact> 0.10284613E+04</totfact>
</mgrwt>
</event>
<event>
 5    1  0.3270363E-002  0.1249988E+03  0.7818608E-02  0.1235071E+00
         -4   -1    0    0    0  501 -0.00000000000E+00  0.00000000000E+00  0.14286965093E+03  0.14287529548E+03  0.12700000000E+01 0. -1.
          4   -1    0    0  501    0  0.00000000000E+00 -0.00000000000E+00 -0.27319879432E+02  0.27349382299E+02  0.12700000000E+01 0. -1.
         25    2    1    2    0    0  0.00000000000E+00  0.00000000000E+00  0.11554977150E+03  0.17022467778E+03  0.12499876492E+03 0.  0.
    9000005    1    3    3    0    0  0.33150876507E+02  0.14672248386E+02  0.12709249509E+03  0.13216564529E+03  0.10000000000E+01 0.  0.
    9000005    1    3    3    0    0 -0.33150876507E+02 -0.14672248386E+02 -0.11542723592E+02  0.38059032486E+02  0.10000000000E+01 0.  0.
<mgrwt>
<rscale>  0 0.12499876E+03</rscale>
<asrwt>0</asrwt>
<pdfrwt beam="2">  1        4 0.42057620E-02 0.12499876E+03</pdfrwt>
<pdfrwt beam="1">  1       -4 0.21982650E-01 0.12499876E+03</pdfrwt>
<totfact> 0.95409421E+03</totfact>
</mgrwt>
</event>
<event>
 5    1  0.3270363E-002  0.1249973E+03  0.7818608E-02  0.1235074E+00
         -4   -1    0    0    0  501 -0.00000000000E+00  0.00000000000E+00  0.10634830692E+03  0.10635588975E+03  0.12700000000E+01 0.  1.
          4   -1    0    0  501    0  0.00000000000E+00 -0.00000000000E+00 -0.36709233651E+02  0.36731195669E+02  0.12700000000E+01 0.  1.
         25    2    1    2    0    0  0.00000000000E+00  0.00000000000E+00  0.69639073265E+02  0.14308708542E+03  0.12499725392E+03 0.  0.
    9000005    1    3    3    0    0 -0.35221983094E+02  0.51592712842E+02  0.32944756069E+02  0.70631105498E+02  0.10000000000E+01 0.  0.
    9000005    1    3    3    0    0  0.35221983094E+02 -0.51592712842E+02  0.36694317196E+02  0.72455979918E+02  0.10000000000E+01 0.  0.
<mgrwt>
<rscale>  0 0.12499725E+03</rscale>
<asrwt>0</asrwt>
<pdfrwt beam="2">  1        4 0.56498471E-02 0.12499725E+03</pdfrwt>
<pdfrwt beam="1">  1       -4 0.16363551E-01 0.12499725E+03</pdfrwt>
<totfact> 0.10070623E+04</totfact>
</mgrwt>
</event>
<event>
 5    1  0.3270363E-002  0.1250001E+03  0.7818608E-02  0.1235069E+00
         -4   -1    0    0    0  501 -0.00000000000E+00  0.00000000000E+00  0.33184514099E+03  0.33184757118E+03  0.12700000000E+01 0. -1.
          4   -1    0    0  501    0  0.00000000000E+00 -0.00000000000E+00 -0.11734587895E+02  0.11803112008E+02  0.12700000000E+01 0. -1.
         25    2    1    2    0    0  0.00000000000E+00  0.00000000000E+00  0.32011055309E+03  0.34365068318E+03  0.12500010341E+03 0.  0.
    9000005    1    3    3    0    0 -0.24224454947E+02 -0.12959648266E+02  0.57448803046E+01  0.28085233671E+02  0.10000000000E+01 0.  0.
    9000005    1    3    3    0    0  0.24224454947E+02  0.12959648266E+02  0.31436567279E+03  0.31556544951E+03  0.10000000000E+01 0.  0.
<mgrwt>
<rscale>  0 0.12500010E+03</rscale>
<asrwt>0</asrwt>
<pdfrwt beam="2">  1        4 0.18107794E-02 0.12500010E+03</pdfrwt>
<pdfrwt beam="1">  1       -4 0.51058551E-01 0.12500010E+03</pdfrwt>
<totfact> 0.70428593E+03</totfact>
</mgrwt>
</event>
<event>
 5    1  0.3270363E-002  0.1249995E+03  0.7818608E-02  0.1235070E+00
         -4   -1    0    0    0  501 -0.00000000000E+00  0.00000000000E+00  0.12302026899E+02  0.12367407401E+02  0.12700000000E+01 0.  1.
          4   -1    0    0  501    0  0.00000000000E+00 -0.00000000000E+00 -0.31661817167E+03  0.31662071874E+03  0.12700000000E+01 0.  1.
         25    2    1    2    0    0  0.00000000000E+00  0.00000000000E+00 -0.30431614478E+03  0.32898812614E+03  0.12499948468E+03 0.  0.
    9000005    1    3    3    0    0  0.48039557554E+01 -0.46379572544E+02 -0.26166206388E+03  0.26578596354E+03  0.10000000000E+01 0.  0.
    9000005    1    3    3    0    0 -0.48039557554E+01  0.46379572544E+02 -0.42654080894E+02  0.63202162599E+02  0.10000000000E+01 0.  0.
<mgrwt>
<rscale>  0 0.12499948E+03</rscale>
<asrwt>0</asrwt>
<pdfrwt beam="2">  1        4 0.48715707E-01 0.12499948E+03</pdfrwt>
<pdfrwt beam="1">  1       -4 0.18978450E-02 0.12499948E+03</pdfrwt>
<totfact> 0.72100533E+03</totfact>
</mgrwt>
</event>
<event>
 5    1  0.3270363E-002  0.1250008E+03  0.7818608E-02  0.1235068E+00
         -4   -1    0    0    0  501 -0.00000000000E+00  0.00000000000E+00  0.39608245987E+02  0.39628601415E+02  0.12700000000E+01 0.  1.
          4   -1    0    0  501    0  0.00000000000E+00 -0.00000000000E+00 -0.98573605044E+02  0.98581785900E+02  0.12700000000E+01 0.  1.
         25    2    1    2    0    0  0.00000000000E+00  0.00000000000E+00 -0.58965359057E+02  0.13821038732E+03  0.12500079037E+03 0.  0.
    9000005    1    3    3    0    0 -0.94709236033E+01  0.55324761301E+02  0.89368216273E+00  0.56145581079E+02  0.10000000000E+01 0.  0.
    9000005    1    3    3    0    0  0.94709236033E+01 -0.55324761301E+02 -0.59859041220E+02  0.82064806237E+02  0.10000000000E+01 0.  0.
<mgrwt>
<rscale>  0 0.12500079E+03</rscale>
<asrwt>0</asrwt>
<pdfrwt beam="2">  1        4 0.15167365E-01 0.12500079E+03</pdfrwt>
<pdfrwt beam="1">  1       -4 0.60957714E-02 0.12500079E+03</pdfrwt>
<totfact> 0.10170631E+04</totfact>
</mgrwt>
</event>
<event>
 5    1  0.3270363E-002  0.1249737E+03  0.7818608E-02  0.1235110E+00
         -4   -1    0    0    0  501 -0.00000000000E+00  0.00000000000E+00  0.13012637472E+04  0.13012643669E+04  0.12700000000E+01 0. -1.
          4   -1    0    0  501    0  0.00000000000E+00 -0.00000000000E+00 -0.28655996299E+01  0.31344156137E+01  0.12700000000E+01 0. -1.
         25    2    1    2    0    0  0.00000000000E+00  0.00000000000E+00  0.12983981475E+04  0.13043987825E+04  0.12497373453E+03 0.  0.
    9000005    1    3    3    0    0  0.21049850008E+02  0.58459019312E+02  0.71768569421E+03  0.72037095222E+03  0.10000000000E+01 0.  0.
    9000005    1    3    3    0    0 -0.21049850008E+02 -0.58459019312E+02  0.58071245332E+03  0.58402783030E+03  0.10000000000E+01 0.  0.
<mgrwt>
<rscale>  0 0.12497373E+03</rscale>
<asrwt>0</asrwt>
<pdfrwt beam="2">  1        4 0.46158724E-03 0.12497373E+03</pdfrwt>
<pdfrwt beam="1">  1       -4 0.20021518E+00 0.12497373E+03</pdfrwt>
<totfact> 0.22137617E+03</totfact>
</mgrwt>
</event>
<event>
 5    1  0.3270363E-002  0.1250000E+03  0.7818608E-02  0.1235069E+00
          4   -1    0    0  501    0  0.00000000000E+00  0.00000000000E+00  0.23481773918E+02  0.23516092497E+02  0.12700000000E+01 0. -1.
         -4   -1    0    0    0  501 -0.00000000000E+00 -0.00000000000E+00 -0.16619426440E+03  0.16619911678E+03  0.12700000000E+01 0. -1.
         25    2    1    2    0    0  0.00000000000E+00  0.00000000000E+00 -0.14271249048E+03  0.18971520928E+03  0.12500002277E+03 0.  0.
    9000005    1    3    3    0    0 -0.41439194717E+02  0.37790989921E+02 -0.11319378878E+03  0.12632972571E+03  0.10000000000E+01 0.  0.
    9000005    1    3    3    0    0  0.41439194717E+02 -0.37790989921E+02 -0.29518701700E+02  0.63385483575E+02  0.10000000000E+01 0.  0.
<mgrwt>
<rscale>  0 0.12500002E+03</rscale>
<asrwt>0</asrwt>
<pdfrwt beam="1">  1        4 0.36155939E-02 0.12500002E+03</pdfrwt>
<pdfrwt beam="2">  1       -4 0.25571361E-01 0.12500002E+03</pdfrwt>
<totfact> 0.91896844E+03</totfact>
</mgrwt>
</event>
<event>
 5    1  0.3270363E-002  0.1249998E+03  0.7818608E-02  0.1235070E+00
         -4   -1    0    0    0  501 -0.00000000000E+00  0.00000000000E+00  0.73449945172E+01  0.74539817855E+01  0.12700000000E+01 0.  1.
          4   -1    0    0  501    0  0.00000000000E+00 -0.00000000000E+00 -0.52779708449E+03  0.52779861245E+03  0.12700000000E+01 0.  1.
         25    2    1    2    0    0  0.00000000000E+00  0.00000000000E+00 -0.52045208998E+03  0.53525259423E+03  0.12499984668E+03 0.  0.
    9000005    1    3    3    0    0  0.35502083369E+02 -0.10510839241E+02 -0.47579383059E+03  0.47723332332E+03  0.10000000000E+01 0.  0.
    9000005    1    3    3    0    0 -0.35502083369E+02  0.10510839241E+02 -0.44658259390E+02  0.58019270909E+02  0.10000000000E+01 0.  0.
<mgrwt>
<rscale>  0 0.12499985E+03</rscale>
<asrwt>0</asrwt>
<pdfrwt beam="2">  1        4 0.81208023E-01 0.12499985E+03</pdfrwt>
<pdfrwt beam="1">  1       -4 0.11385007E-02 0.12499985E+03</pdfrwt>
<totfact> 0.53229504E+03</totfact>
</mgrwt>
</event>
<event>
 5    1  0.3270363E-002  0.1250028E+03  0.7818608E-02  0.1235065E+00
          4   -1    0    0  501    0  0.00000000000E+00  0.00000000000E+00  0.12592724027E+03  0.12593364420E+03  0.12700000000E+01 0. -1.
         -4   -1    0    0    0  501 -0.00000000000E+00 -0.00000000000E+00 -0.31001072394E+02  0.31027075105E+02  0.12700000000E+01 0. -1.
         25    2    1    2    0    0  0.00000000000E+00  0.00000000000E+00  0.94926167872E+02  0.15696071930E+03  0.12500276020E+03 0.  0.
    9000005    1    3    3    0    0 -0.14630745375E+02  0.34849808696E+02  0.10995468292E+03  0.11627381550E+03  0.10000000000E+01 0.  0.
    9000005    1    3    3    0    0  0.14630745375E+02 -0.34849808696E+02 -0.15028515044E+02  0.40686903800E+02  0.10000000000E+01 0.  0.
<mgrwt>
<rscale>  0 0.12500276E+03</rscale>
<asrwt>0</asrwt>
<pdfrwt beam="1">  1        4 0.19375914E-01 0.12500276E+03</pdfrwt>
<pdfrwt beam="2">  1       -4 0.47718886E-02 0.12500276E+03</pdfrwt>
<totfact> 0.97925877E+03</totfact>
</mgrwt>
</event>
<event>
 5    1  0.3270363E-002  0.1250008E+03  0.7818608E-02  0.1235068E+00
          4   -1    0    0  501    0  0.00000000000E+00  0.00000000000E+00  0.32047853052E+03  0.32048104690E+03  0.12700000000E+01 0. -1.
         -4   -1    0    0    0  501 -0.00000000000E+00 -0.00000000000E+00 -0.12153308240E+02  0.12219484489E+02  0.12700000000E+01 0. -1.
         25    2    1    2    0    0  0.00000000000E+00  0.00000000000E+00  0.30832522228E+03  0.33270053139E+03  0.12500080357E+03 0.  0.
    9000005    1    3    3    0    0  0.35906721838E+02  0.39054723455E+02  0.66260250474E+02  0.84888072720E+02  0.10000000000E+01 0.  0.
    9000005    1    3    3    0    0 -0.35906721838E+02 -0.39054723455E+02  0.24206497180E+03  0.24781245867E+03  0.10000000000E+01 0.  0.
<mgrwt>
<rscale>  0 0.12500080E+03</rscale>
<asrwt>0</asrwt>
<pdfrwt beam="1">  1        4 0.49309675E-01 0.12500080E+03</pdfrwt>
<pdfrwt beam="2">  1       -4 0.18750237E-02 0.12500080E+03</pdfrwt>
<totfact> 0.71669321E+03</totfact>
</mgrwt>
</event>
<event>
 5    1  0.3270363E-002  0.1249990E+03  0.7818608E-02  0.1235071E+00
          4   -1    0    0  501    0  0.00000000000E+00  0.00000000000E+00  0.12641479086E+02  0.12705112888E+02  0.12700000000E+01 0.  1.
         -4   -1    0    0    0  501 -0.00000000000E+00 -0.00000000000E+00 -0.30815710869E+03  0.30815972569E+03  0.12700000000E+01 0.  1.
         25    2    1    2    0    0  0.00000000000E+00  0.00000000000E+00 -0.29551562960E+03  0.32086483858E+03  0.12499902917E+03 0.  0.
    9000005    1    3    3    0    0  0.44669407125E+02 -0.25851224096E+02 -0.23820544162E+03  0.24373443363E+03  0.10000000000E+01 0.  0.
    9000005    1    3    3    0    0 -0.44669407125E+02  0.25851224096E+02 -0.57310187984E+02  0.77130404945E+02  0.10000000000E+01 0.  0.
<mgrwt>
<rscale>  0 0.12499903E+03</rscale>
<asrwt>0</asrwt>
<pdfrwt beam="1">  1        4 0.19499394E-02 0.12499903E+03</pdfrwt>
<pdfrwt beam="2">  1       -4 0.47413877E-01 0.12499903E+03</pdfrwt>
<totfact> 0.73054956E+03</totfact>
</mgrwt>
</event>
<event>
 5    1  0.3270363E-002  0.1249999E+03  0.7818608E-02  0.1235069E+00
          4   -1    0    0  501    0  0.00000000000E+00  0.00000000000E+00  0.28971490732E+02  0.28999313358E+02  0.12700000000E+01 0. -1.
         -4   -1    0    0    0  501 -0.00000000000E+00 -0.00000000000E+00 -0.13473510170E+03  0.13474108701E+03  0.12700000000E+01 0. -1.
         25    2    1    2    0    0  0.00000000000E+00  0.00000000000E+00 -0.10576361097E+03  0.16374040037E+03  0.12499990924E+03 0.  0.
    9000005    1    3    3    0    0 -0.22386231056E+02 -0.14215016618E+02  0.21242244362E+02  0.33991807600E+02  0.10000000000E+01 0.  0.
    9000005    1    3    3    0    0  0.22386231056E+02  0.14215016618E+02 -0.12700585533E+03  0.12974859277E+03  0.10000000000E+01 0.  0.
<mgrwt>
<rscale>  0 0.12499991E+03</rscale>
<asrwt>0</asrwt>
<pdfrwt beam="1">  1        4 0.44597531E-02 0.12499991E+03</pdfrwt>
<pdfrwt beam="2">  1       -4 0.20731078E-01 0.12499991E+03</pdfrwt>
<totfact> 0.96626671E+03</totfact>
</mgrwt>
</event>
<event>
 5    1  0.3270363E-002  0.1249948E+03  0.7818608E-02  0.1235077E+00
          4   -1    0    0  501    0  0.00000000000E+00  0.00000000000E+00  0.20555733605E+03  0.20556125925E+03  0.12700000000E+01 0. -1.
         -4   -1    0    0    0  501 -0.00000000000E+00 -0.00000000000E+00 -0.18976295413E+02  0.19018745689E+02  0.12700000000E+01 0. -1.
         25    2    1    2    0    0  0.00000000000E+00  0.00000000000E+00  0.18658104064E+03  0.22458000494E+03  0.12499477546E+03 0.  0.
    9000005    1    3    3    0    0 -0.47563316676E+02 -0.40496687944E+02  0.90353209473E+02  0.10984968498E+03  0.10000000000E+01 0.  0.
    9000005    1    3    3    0    0  0.47563316676E+02  0.40496687944E+02  0.96227831169E+02  0.11473031996E+03  0.10000000000E+01 0.  0.
<mgrwt>
<rscale>  0 0.12499478E+03</rscale>
<asrwt>0</asrwt>
<pdfrwt beam="1">  1        4 0.31627773E-01 0.12499478E+03</pdfrwt>
<pdfrwt beam="2">  1       -4 0.29229972E-02 0.12499478E+03</pdfrwt>
<totfact> 0.86158821E+03</totfact>
</mgrwt>
</event>
<event>
 5    1  0.3270363E-002  0.1249996E+03  0.7818608E-02  0.1235070E+00
          4   -1    0    0  501    0  0.00000000000E+00  0.00000000000E+00  0.46562544209E+01  0.48263449143E+01  0.12700000000E+01 0.  1.
         -4   -1    0    0    0  501 -0.00000000000E+00 -0.00000000000E+00 -0.82370204557E+03  0.82370302462E+03  0.12700000000E+01 0.  1.
         25    2    1    2    0    0  0.00000000000E+00  0.00000000000E+00 -0.81904579115E+03  0.82852936954E+03  0.12499963276E+03 0.  0.
    9000005    1    3    3    0    0 -0.25075412029E+02 -0.23518405910E+02 -0.75542223437E+03  0.75620476320E+03  0.10000000000E+01 0.  0.
    9000005    1    3    3    0    0  0.25075412029E+02  0.23518405910E+02 -0.63623556779E+02  0.72324606339E+02  0.10000000000E+01 0.  0.
<mgrwt>
<rscale>  0 0.12499963E+03</rscale>
<asrwt>0</asrwt>
<pdfrwt beam="1">  1        4 0.72950668E-03 0.12499963E+03</pdfrwt>
<pdfrwt beam="2">  1       -4 0.12673644E+00 0.12499963E+03</pdfrwt>
<totfact> 0.37022705E+03</totfact>
</mgrwt>
</event>
<event>
 5    1  0.3270363E-002  0.1249985E+03  0.7818608E-02  0.1235072E+00
         -4   -1    0    0    0  501 -0.00000000000E+00  0.00000000000E+00  0.23815041119E+01  0.26989742190E+01  0.12700000000E+01 0. -1.
          4   -1    0    0  501    0  0.00000000000E+00 -0.00000000000E+00 -0.15373930971E+04  0.15373936216E+04  0.12700000000E+01 0. -1.
         25    2    1    2    0    0  0.00000000000E+00  0.00000000000E+00 -0.15350115930E+04  0.15400925958E+04  0.12499845304E+03 0.  0.
    9000005    1    3    3    0    0 -0.42541454442E+02  0.28307735977E+02 -0.32428744693E+03  0.32829019403E+03  0.10000000000E+01 0.  0.
    9000005    1    3    3    0    0  0.42541454442E+02 -0.28307735977E+02 -0.12107241460E+04  0.12118024018E+04  0.10000000000E+01 0.  0.
<mgrwt>
<rscale>  0 0.12499845E+03</rscale>
<asrwt>0</asrwt>
<pdfrwt beam="2">  1        4 0.23654573E+00 0.12499845E+03</pdfrwt>
<pdfrwt beam="1">  1       -4 0.39084760E-03 0.12499845E+03</pdfrwt>
<totfact> 0.17156295E+03</totfact>
</mgrwt>
</event>
<event>
 5    1  0.3270363E-002  0.1249997E+03  0.7818608E-02  0.1235070E+00
          4   -1    0    0  501    0  0.00000000000E+00  0.00000000000E+00  0.81021412025E+01  0.82010726168E+01  0.12700000000E+01 0. -1.
         -4   -1    0    0    0  501 -0.00000000000E+00 -0.00000000000E+00 -0.47909821501E+03  0.47909989827E+03  0.12700000000E+01 0. -1.
         25    2    1    2    0    0  0.00000000000E+00  0.00000000000E+00 -0.47099607381E+03  0.48730097089E+03  0.12499973875E+03 0.  0.
    9000005    1    3    3    0    0 -0.22965109276E+02 -0.61264347657E+00 -0.89379444585E+01  0.24671003775E+02  0.10000000000E+01 0.  0.
    9000005    1    3    3    0    0  0.22965109276E+02  0.61264347657E+00 -0.46205812935E+03  0.46262996712E+03  0.10000000000E+01 0.  0.
<mgrwt>
<rscale>  0 0.12499974E+03</rscale>
<asrwt>0</asrwt>
<pdfrwt beam="1">  1        4 0.12542232E-02 0.12499974E+03</pdfrwt>
<pdfrwt beam="2">  1       -4 0.73715135E-01 0.12499974E+03</pdfrwt>
<totfact> 0.56863631E+03</totfact>
</mgrwt>
</event>
<event>
 5    1  0.3270363E-002  0.1250000E+03  0.7818608E-02  0.1235069E+00
         -4   -1    0    0    0  501 -0.00000000000E+00  0.00000000000E+00  0.88081313621E+02  0.88090468890E+02  0.12700000000E+01 0. -1.
          4   -1    0    0  501    0  0.00000000000E+00 -0.00000000000E+00 -0.44327654994E+02  0.44345844194E+02  0.12700000000E+01 0. -1.
         25    2    1    2    0    0  0.00000000000E+00  0.00000000000E+00  0.43753658627E+02  0.13243631308E+03  0.12499997752E+03 0.  0.
    9000005    1    3    3    0    0 -0.11138502167E+02  0.32193435952E+02  0.77384082201E+02  0.84556370115E+02  0.10000000000E+01 0.  0.
    9000005    1    3    3    0    0  0.11138502167E+02 -0.32193435952E+02 -0.33630423574E+02  0.47879942969E+02  0.10000000000E+01 0.  0.
<mgrwt>
<rscale>  0 0.12499998E+03</rscale>
<asrwt>0</asrwt>
<pdfrwt beam="2">  1        4 0.68217426E-02 0.12499998E+03</pdfrwt>
<pdfrwt beam="1">  1       -4 0.13553075E-01 0.12499998E+03</pdfrwt>
<totfact> 0.10292400E+04</totfact>
</mgrwt>
</event>
<event>
 5    1  0.3270363E-002  0.1249996E+03  0.7818608E-02  0.1235070E+00
          4   -1    0    0  501    0  0.00000000000E+00  0.00000000000E+00  0.94854751160E+02  0.94863252725E+02  0.12700000000E+01 0.  1.
         -4   -1    0    0    0  501 -0.00000000000E+00 -0.00000000000E+00 -0.41160955320E+02  0.41180543256E+02  0.12700000000E+01 0.  1.
         25    2    1    2    0    0  0.00000000000E+00  0.00000000000E+00  0.53693795840E+02  0.13604379598E+03  0.12499956285E+03 0.  0.
    9000005    1    3    3    0    0 -0.60705541003E+02  0.13153687268E+02  0.34311490774E+02  0.70968025169E+02  0.10000000000E+01 0.  0.
    9000005    1    3    3    0    0  0.60705541003E+02 -0.13153687268E+02  0.19382305065E+02  0.65075770813E+02  0.10000000000E+01 0.  0.
<mgrwt>
<rscale>  0 0.12499956E+03</rscale>
<asrwt>0</asrwt>
<pdfrwt beam="1">  1        4 0.14595199E-01 0.12499956E+03</pdfrwt>
<pdfrwt beam="2">  1       -4 0.63346154E-02 0.12499956E+03</pdfrwt>
<totfact> 0.10216218E+04</totfact>
</mgrwt>
</event>
<event>
 5    1  0.3270363E-002  0.1249933E+03  0.7818608E-02  0.1235080E+00
         -4   -1    0    0    0  501 -0.00000000000E+00  0.00000000000E+00  0.27656118650E+03  0.27656410247E+03  0.12700000000E+01 0. -1.
          4   -1    0    0  501    0  0.00000000000E+00 -0.00000000000E+00 -0.14091291889E+02  0.14148406522E+02  0.12700000000E+01 0. -1.
         25    2    1    2    0    0  0.00000000000E+00  0.00000000000E+00  0.26246989461E+03  0.29071250899E+03  0.12499326906E+03 0.  0.
    9000005    1    3    3    0    0 -0.52682940104E+02  0.59837936586E+01  0.20814670105E+03  0.21479605938E+03  0.10000000000E+01 0.  0.
    9000005    1    3    3    0    0  0.52682940104E+02 -0.59837936586E+01  0.54323193554E+02  0.75916449617E+02  0.10000000000E+01 0.  0.
<mgrwt>
<rscale>  0 0.12499327E+03</rscale>
<asrwt>0</asrwt>
<pdfrwt beam="2">  1        4 0.21725089E-02 0.12499327E+03</pdfrwt>
<pdfrwt beam="1">  1       -4 0.42552490E-01 0.12499327E+03</pdfrwt>
<totfact> 0.76790292E+03</totfact>
</mgrwt>
</event>
<event>
 5    1  0.3270363E-002  0.1250008E+03  0.7818608E-02  0.1235068E+00
         -4   -1    0    0    0  501 -0.00000000000E+00  0.00000000000E+00  0.24982137219E+02  0.25014397455E+02  0.12700000000E+01 0. -1.
          4   -1    0    0  501    0  0.00000000000E+00 -0.00000000000E+00 -0.15622803877E+03  0.15623320069E+03  0.12700000000E+01 0. -1.
         25    2    1    2    0    0  0.00000000000E+00  0.00000000000E+00 -0.13124590155E+03  0.18124759814E+03  0.12500082063E+03 0.  0.
    9000005    1    3    3    0    0  0.37408842376E+02 -0.10799681249E+02  0.52515303054E+01  0.39301821504E+02  0.10000000000E+01 0.  0.
    9000005    1    3    3    0    0 -0.37408842376E+02  0.10799681249E+02 -0.13649743185E+03  0.14194577664E+03  0.10000000000E+01 0.  0.
<mgrwt>
<rscale>  0 0.12500082E+03</rscale>
<asrwt>0</asrwt>
<pdfrwt beam="2">  1        4 0.24037961E-01 0.12500082E+03</pdfrwt>
<pdfrwt beam="1">  1       -4 0.38462844E-02 0.12500082E+03</pdfrwt>
<totfact> 0.93391194E+03</totfact>
</mgrwt>
</event>
<event>
 5    1  0.3270363E-002  0.1249966E+03  0.7818608E-02  0.1235075E+00
         -4   -1    0    0    0  501 -0.00000000000E+00  0.00000000000E+00  0.20131654533E+01  0.23802804756E+01  0.12700000000E+01 0. -1.
          4   -1    0    0  501    0  0.00000000000E+00 -0.00000000000E+00 -0.17777525635E+04  0.17777530171E+04  0.12700000000E+01 0. -1.
         25    2    1    2    0    0  0.00000000000E+00  0.00000000000E+00 -0.17757393980E+04  0.17801332976E+04  0.12499658989E+03 0.  0.
    9000005    1    3    3    0    0 -0.50560883993E+02 -0.25166911848E+02 -0.50699119883E+03  0.51012827027E+03  0.10000000000E+01 0.  0.
    9000005    1    3    3    0    0  0.50560883993E+02  0.25166911848E+02 -0.12687481992E+04  0.12700050273E+04  0.10000000000E+01 0.  0.
<mgrwt>
<rscale>  0 0.12499659E+03</rscale>
<asrwt>0</asrwt>
<pdfrwt beam="2">  1        4 0.27352752E+00 0.12499659E+03</pdfrwt>
<pdfrwt beam="1">  1       -4 0.33799370E-03 0.12499659E+03</pdfrwt>
<totfact> 0.13013153E+03</totfact>
</mgrwt>
</event>
<event>
 5    1  0.3270363E-002  0.1250001E+03  0.7818608E-02  0.1235069E+00
          4   -1    0    0  501    0  0.00000000000E+00  0.00000000000E+00  0.31636374063E+02  0.31661855028E+02  0.12700000000E+01 0.  1.
         -4   -1    0    0    0  501 -0.00000000000E+00 -0.00000000000E+00 -0.12339506141E+03  0.12340159675E+03  0.12700000000E+01 0.  1.
         25    2    1    2    0    0  0.00000000000E+00  0.00000000000E+00 -0.91758687347E+02  0.15506345178E+03  0.12500006949E+03 0.  0.
    9000005    1    3    3    0    0  0.47134200424E+02  0.31040403738E+02 -0.79168291626E+02  0.97230437173E+02  0.10000000000E+01 0.  0.
    9000005    1    3    3    0    0 -0.47134200424E+02 -0.31040403738E+02 -0.12590395720E+02  0.57833014604E+02  0.10000000000E+01 0.  0.
<mgrwt>
<rscale>  0 0.12500007E+03</rscale>
<asrwt>0</asrwt>
<pdfrwt beam="1">  1        4 0.48695973E-02 0.12500007E+03</pdfrwt>
<pdfrwt beam="2">  1       -4 0.18986318E-01 0.12500007E+03</pdfrwt>
<totfact> 0.98302890E+03</totfact>
</mgrwt>
</event>
<event>
 5    1  0.3270363E-002  0.1249997E+03  0.7818608E-02  0.1235070E+00
         -4   -1    0    0    0  501 -0.00000000000E+00  0.00000000000E+00  0.55694568359E+03  0.55694713158E+03  0.12700000000E+01 0. -1.
          4   -1    0    0  501    0  0.00000000000E+00 -0.00000000000E+00 -0.69547042599E+01  0.70697108387E+01  0.12700000000E+01 0. -1.
         25    2    1    2    0    0  0.00000000000E+00  0.00000000000E+00  0.54999097933E+03  0.56401684242E+03  0.12499968473E+03 0.  0.
    9000005    1    3    3    0    0 -0.38317040057E+02  0.38344458932E+02  0.13470204722E+03  0.14520376928E+03  0.10000000000E+01 0.  0.
    9000005    1    3    3    0    0  0.38317040057E+02 -0.38344458932E+02  0.41528893212E+03  0.41881307314E+03  0.10000000000E+01 0.  0.
<mgrwt>
<rscale>  0 0.12499968E+03</rscale>
<asrwt>0</asrwt>
<pdfrwt beam="2">  1        4 0.10789123E-02 0.12499968E+03</pdfrwt>
<pdfrwt beam="1">  1       -4 0.85692927E-01 0.12499968E+03</pdfrwt>
<totfact> 0.51221056E+03</totfact>
</mgrwt>
</event>
<event>
 5    1  0.3270363E-002  0.1250006E+03  0.7818608E-02  0.1235068E+00
          4   -1    0    0  501    0  0.00000000000E+00  0.00000000000E+00  0.50493096613E+01  0.52065754633E+01  0.12700000000E+01 0. -1.
         -4   -1    0    0    0  501 -0.00000000000E+00 -0.00000000000E+00 -0.76160752509E+03  0.76160858397E+03  0.12700000000E+01 0. -1.
         25    2    1    2    0    0  0.00000000000E+00  0.00000000000E+00 -0.75655821543E+03  0.76681515943E+03  0.12500062160E+03 0.  0.
    9000005    1    3    3    0    0 -0.18390532206E+02 -0.51141018080E+01 -0.74331600737E+03  0.74356173417E+03  0.10000000000E+01 0.  0.
    9000005    1    3    3    0    0  0.18390532206E+02  0.51141018080E+01 -0.13242208062E+02  0.23253425263E+02  0.10000000000E+01 0.  0.
<mgrwt>
<rscale>  0 0.12500062E+03</rscale>
<asrwt>0</asrwt>
<pdfrwt beam="1">  1        4 0.78899629E-03 0.12500062E+03</pdfrwt>
<pdfrwt beam="2">  1       -4 0.11718248E+00 0.12500062E+03</pdfrwt>
<totfact> 0.39781975E+03</totfact>
</mgrwt>
</event>
<event>
 5    1  0.3270363E-002  0.1250002E+03  0.7818608E-02  0.1235069E+00
          4   -1    0    0  501    0  0.00000000000E+00  0.00000000000E+00  0.34311862554E+02  0.34335358043E+02  0.12700000000E+01 0.  1.
         -4   -1    0    0    0  501 -0.00000000000E+00 -0.00000000000E+00 -0.11377988448E+03  0.11378697207E+03  0.12700000000E+01 0.  1.
         25    2    1    2    0    0  0.00000000000E+00  0.00000000000E+00 -0.79468021931E+02  0.14812233011E+03  0.12500023268E+03 0.  0.
    9000005    1    3    3    0    0 -0.30835357895E+02 -0.22233873432E+02  0.19040104905E+02  0.42528696419E+02  0.10000000000E+01 0.  0.
    9000005    1    3    3    0    0  0.30835357895E+02  0.22233873432E+02 -0.98508126836E+02  0.10559363370E+03  0.10000000000E+01 0.  0.
<mgrwt>
<rscale>  0 0.12500023E+03</rscale>
<asrwt>0</asrwt>
<pdfrwt beam="1">  1        4 0.52811007E-02 0.12500023E+03</pdfrwt>
<pdfrwt beam="2">  1       -4 0.17506950E-01 0.12500023E+03</pdfrwt>
<totfact> 0.99678786E+03</totfact>
</mgrwt>
</event>
<event>
 5    1  0.3270363E-002  0.1249998E+03  0.7818608E-02  0.1235070E+00
         -4   -1    0    0    0  501 -0.00000000000E+00  0.00000000000E+00  0.11004991722E+02  0.11078029735E+02  0.12700000000E+01 0. -1.
          4   -1    0    0  501    0  0.00000000000E+00 -0.00000000000E+00 -0.35370331365E+03  0.35370559366E+03  0.12700000000E+01 0. -1.
         25    2    1    2    0    0  0.00000000000E+00  0.00000000000E+00 -0.34269832193E+03  0.36478362340E+03  0.12499980818E+03 0.  0.
    9000005    1    3    3    0    0 -0.29604274859E+02 -0.23977672631E+02 -0.26787185352E+02  0.46582133633E+02  0.10000000000E+01 0.  0.
    9000005    1    3    3    0    0  0.29604274859E+02  0.23977672631E+02 -0.31591113658E+03  0.31820148977E+03  0.10000000000E+01 0.  0.
<mgrwt>
<rscale>  0 0.12499981E+03</rscale>
<asrwt>0</asrwt>
<pdfrwt beam="2">  1        4 0.54421679E-01 0.12499981E+03</pdfrwt>
<pdfrwt beam="1">  1       -4 0.16988696E-02 0.12499981E+03</pdfrwt>
<totfact> 0.68128514E+03</totfact>
</mgrwt>
</event>
<event>
 5    1  0.3270363E-002  0.1250003E+03  0.7818608E-02  0.1235069E+00
         -4   -1    0    0    0  501 -0.00000000000E+00  0.00000000000E+00  0.94852420307E+02  0.94860922081E+02  0.12700000000E+01 0.  1.
          4   -1    0    0  501    0  0.00000000000E+00 -0.00000000000E+00 -0.41162471702E+02  0.41182058917E+02  0.12700000000E+01 0.  1.
         25    2    1    2    0    0  0.00000000000E+00  0.00000000000E+00  0.53689948604E+02  0.13604298100E+03  0.12500032839E+03 0.  0.
    9000005    1    3    3    0    0 -0.16676252253E+02  0.59233270297E+02  0.38697043907E+02  0.72698960834E+02  0.10000000000E+01 0.  0.
    9000005    1    3    3    0    0  0.16676252253E+02 -0.59233270297E+02  0.14992904697E+02  0.63344020164E+02  0.10000000000E+01 0.  0.
<mgrwt>
<rscale>  0 0.12500033E+03</rscale>
<asrwt>0</asrwt>
<pdfrwt beam="2">  1        4 0.63348487E-02 0.12500033E+03</pdfrwt>
<pdfrwt beam="1">  1       -4 0.14594840E-01 0.12500033E+03</pdfrwt>
<totfact> 0.10216058E+04</totfact>
</mgrwt>
</event>
<event>
 5    1  0.3270363E-002  0.1250600E+03  0.7818608E-02  0.1234976E+00
          4   -1    0    0  501    0  0.00000000000E+00  0.00000000000E+00  0.17731829486E+03  0.17732284284E+03  0.12700000000E+01 0.  1.
         -4   -1    0    0    0  501 -0.00000000000E+00 -0.00000000000E+00 -0.22027609586E+02  0.22064190084E+02  0.12700000000E+01 0.  1.
         25    2    1    2    0    0  0.00000000000E+00  0.00000000000E+00  0.15529068528E+03  0.19938703292E+03  0.12505995348E+03 0.  0.
    9000005    1    3    3    0    0  0.30097015102E+02  0.43207934429E+02  0.23903310842E+02  0.57837048549E+02  0.10000000000E+01 0.  0.
    9000005    1    3    3    0    0 -0.30097015102E+02 -0.43207934429E+02  0.13138737444E+03  0.14154998438E+03  0.10000000000E+01 0.  0.
<mgrwt>
<rscale>  0 0.12505995E+03</rscale>
<asrwt>0</asrwt>
<pdfrwt beam="1">  1        4 0.27282901E-01 0.12505995E+03</pdfrwt>
<pdfrwt beam="2">  1       -4 0.33920268E-02 0.12505995E+03</pdfrwt>
<totfact> 0.90118027E+03</totfact>
</mgrwt>
</event>
<event>
 5    1  0.3270363E-002  0.1250195E+03  0.7818608E-02  0.1235039E+00
          4   -1    0    0  501    0  0.00000000000E+00  0.00000000000E+00  0.35620102460E+03  0.35620328863E+03  0.12700000000E+01 0.  1.
         -4   -1    0    0    0  501 -0.00000000000E+00 -0.00000000000E+00 -0.10930783666E+02  0.11004314224E+02  0.12700000000E+01 0.  1.
         25    2    1    2    0    0  0.00000000000E+00  0.00000000000E+00  0.34527024094E+03  0.36720760285E+03  0.12501953573E+03 0.  0.
    9000005    1    3    3    0    0 -0.12013963956E+02  0.57596568094E+02  0.11069071926E+03  0.12536002280E+03  0.10000000000E+01 0.  0.
    9000005    1    3    3    0    0  0.12013963956E+02 -0.57596568094E+02  0.23457952167E+03  0.24184758005E+03  0.10000000000E+01 0.  0.
<mgrwt>
<rscale>  0 0.12501954E+03</rscale>
<asrwt>0</asrwt>
<pdfrwt beam="1">  1        4 0.54805992E-01 0.12501954E+03</pdfrwt>
<pdfrwt beam="2">  1       -4 0.16874893E-02 0.12501954E+03</pdfrwt>
<totfact> 0.67842776E+03</totfact>
</mgrwt>
</event>
<event>
 5    1  0.3270363E-002  0.1250002E+03  0.7818608E-02  0.1235069E+00
         -4   -1    0    0    0  501 -0.00000000000E+00  0.00000000000E+00  0.44011374551E+02  0.44029694410E+02  0.12700000000E+01 0.  1.
          4   -1    0    0  501    0  0.00000000000E+00 -0.00000000000E+00 -0.88714453640E+02  0.88723543576E+02  0.12700000000E+01 0.  1.
         25    2    1    2    0    0  0.00000000000E+00  0.00000000000E+00 -0.44703079090E+02  0.13275323799E+03  0.12500022766E+03 0.  0.
    9000005    1    3    3    0    0  0.13766436845E+02  0.60300551984E+02 -0.31826369348E+02  0.69567155604E+02  0.10000000000E+01 0.  0.
    9000005    1    3    3    0    0 -0.13766436845E+02 -0.60300551984E+02 -0.12876709741E+02  0.63186082382E+02  0.10000000000E+01 0.  0.
<mgrwt>
<rscale>  0 0.12500023E+03</rscale>
<asrwt>0</asrwt>
<pdfrwt beam="2">  1        4 0.13650486E-01 0.12500023E+03</pdfrwt>
<pdfrwt beam="1">  1       -4 0.67730891E-02 0.12500023E+03</pdfrwt>
<totfact> 0.10285594E+04</totfact>
</mgrwt>
</event>
<event>
 5    1  0.3270363E-002  0.1250061E+03  0.7818608E-02  0.1235060E+00
         -4   -1    0    0    0  501 -0.00000000000E+00  0.00000000000E+00  0.27298467516E+02  0.27327993500E+02  0.12700000000E+01 0.  1.
          4   -1    0    0  501    0  0.00000000000E+00 -0.00000000000E+00 -0.14299833573E+03  0.14300397520E+03  0.12700000000E+01 0.  1.
         25    2    1    2    0    0  0.00000000000E+00  0.00000000000E+00 -0.11569986822E+03  0.17033196870E+03  0.12500608007E+03 0.  0.
    9000005    1    3    3    0    0 -0.19775956909E+02  0.46288231692E+02 -0.73799962169E+01  0.50883722437E+02  0.10000000000E+01 0.  0.
    9000005    1    3    3    0    0  0.19775956909E+02 -0.46288231692E+02 -0.10831987200E+03  0.11944824626E+03  0.10000000000E+01 0.  0.
<mgrwt>
<rscale>  0 0.12500608E+03</rscale>
<asrwt>0</asrwt>
<pdfrwt beam="2">  1        4 0.22002449E-01 0.12500608E+03</pdfrwt>
<pdfrwt beam="1">  1       -4 0.42024693E-02 0.12500608E+03</pdfrwt>
<totfact> 0.95373783E+03</totfact>
</mgrwt>
</event>
<event>
 5    1  0.3270363E-002  0.1249994E+03  0.7818608E-02  0.1235070E+00
          4   -1    0    0  501    0  0.00000000000E+00  0.00000000000E+00  0.74431005700E+03  0.74431114048E+03  0.12700000000E+01 0. -1.
         -4   -1    0    0    0  501 -0.00000000000E+00 -0.00000000000E+00 -0.51701608635E+01  0.53238579390E+01  0.12700000000E+01 0. -1.
         25    2    1    2    0    0  0.00000000000E+00  0.00000000000E+00  0.73913989613E+03  0.74963499842E+03  0.12499937921E+03 0.  0.
    9000005    1    3    3    0    0 -0.41344865764E+02  0.40284550206E+02  0.22601859447E+03  0.23327590522E+03  0.10000000000E+01 0.  0.
    9000005    1    3    3    0    0  0.41344865764E+02 -0.40284550206E+02  0.51312130167E+03  0.51635909320E+03  0.10000000000E+01 0.  0.
<mgrwt>
<rscale>  0 0.12499938E+03</rscale>
<asrwt>0</asrwt>
<pdfrwt beam="1">  1        4 0.11452117E+00 0.12499938E+03</pdfrwt>
<pdfrwt beam="2">  1       -4 0.80731540E-03 0.12499938E+03</pdfrwt>
<totfact> 0.40592142E+03</totfact>
</mgrwt>
</event>
<event>
 5    1  0.3270363E-002  0.1249976E+03  0.7818608E-02  0.1235073E+00
         -4   -1    0    0    0  501 -0.00000000000E+00  0.00000000000E+00  0.75702194127E+01  0.76760095074E+01  0.12700000000E+01 0. -1.
          4   -1    0    0  501    0  0.00000000000E+00 -0.00000000000E+00 -0.51229586175E+03  0.51229743593E+03  0.12700000000E+01 0. -1.
         25    2    1    2    0    0  0.00000000000E+00  0.00000000000E+00 -0.50472564234E+03  0.51997344544E+03  0.12499763971E+03 0.  0.
    9000005    1    3    3    0    0 -0.12817128833E+02 -0.24170256060E+02 -0.48608001902E+03  0.48685035171E+03  0.10000000000E+01 0.  0.
    9000005    1    3    3    0    0  0.12817128833E+02  0.24170256060E+02 -0.18645623317E+02  0.33123093733E+02  0.10000000000E+01 0.  0.
<mgrwt>
<rscale>  0 0.12499764E+03</rscale>
<asrwt>0</asrwt>
<pdfrwt beam="2">  1        4 0.78822980E-01 0.12499764E+03</pdfrwt>
<pdfrwt beam="1">  1       -4 0.11729083E-02 0.12499764E+03</pdfrwt>
<totfact> 0.54350135E+03</totfact>
</mgrwt>
</event>
<event>
 5    1  0.3270363E-002  0.1250038E+03  0.7818608E-02  0.1235063E+00
          4   -1    0    0  501    0  0.00000000000E+00  0.00000000000E+00  0.17422410528E+03  0.17422873403E+03  0.12700000000E+01 0. -1.
         -4   -1    0    0    0  501 -0.00000000000E+00 -0.00000000000E+00 -0.22399291013E+02  0.22435265496E+02  0.12700000000E+01 0. -1.
         25    2    1    2    0    0  0.00000000000E+00  0.00000000000E+00  0.15182481427E+03  0.19666399953E+03  0.12500381787E+03 0.  0.
    9000005    1    3    3    0    0 -0.38941341825E+02 -0.48687034900E+02  0.69121235157E+02  0.93089207861E+02  0.10000000000E+01 0.  0.
    9000005    1    3    3    0    0  0.38941341825E+02  0.48687034900E+02  0.82703579112E+02  0.10357479167E+03  0.10000000000E+01 0.  0.
<mgrwt>
<rscale>  0 0.12500382E+03</rscale>
<asrwt>0</asrwt>
<pdfrwt beam="1">  1        4 0.26806832E-01 0.12500382E+03</pdfrwt>
<pdfrwt beam="2">  1       -4 0.34491680E-02 0.12500382E+03</pdfrwt>
<totfact> 0.90692803E+03</totfact>
</mgrwt>
</event>
<event>
 5    1  0.3270363E-002  0.1250014E+03  0.7818608E-02  0.1235067E+00
         -4   -1    0    0    0  501 -0.00000000000E+00  0.00000000000E+00  0.81816861015E+02  0.81826717191E+02  0.12700000000E+01 0. -1.
          4   -1    0    0  501    0  0.00000000000E+00 -0.00000000000E+00 -0.47723721497E+02  0.47740616811E+02  0.12700000000E+01 0. -1.
         25    2    1    2    0    0  0.00000000000E+00  0.00000000000E+00  0.34093139518E+02  0.12956733400E+03  0.12500140751E+03 0.  0.
    9000005    1    3    3    0    0  0.64050598989E+01  0.22704369768E+02 -0.42936243572E+02  0.49000349090E+02  0.10000000000E+01 0.  0.
    9000005    1    3    3    0    0 -0.64050598989E+01 -0.22704369768E+02  0.77029383089E+02  0.80566984913E+02  0.10000000000E+01 0.  0.
<mgrwt>
<rscale>  0 0.12500141E+03</rscale>
<asrwt>0</asrwt>
<pdfrwt beam="2">  1        4 0.73441688E-02 0.12500141E+03</pdfrwt>
<pdfrwt beam="1">  1       -4 0.12589267E-01 0.12500141E+03</pdfrwt>
<totfact> 0.10353443E+04</totfact>
</mgrwt>
</event>
<event>
 5    1  0.3270363E-002  0.1249995E+03  0.7818608E-02  0.1235070E+00
          4   -1    0    0  501    0  0.00000000000E+00  0.00000000000E+00  0.41542386811E+03  0.41542580937E+03  0.12700000000E+01 0. -1.
         -4   -1    0    0    0  501 -0.00000000000E+00 -0.00000000000E+00 -0.93581236260E+01  0.94439069139E+01  0.12700000000E+01 0. -1.
         25    2    1    2    0    0  0.00000000000E+00  0.00000000000E+00  0.40606574448E+03  0.42486971628E+03  0.12499954791E+03 0.  0.
    9000005    1    3    3    0    0  0.41744488357E+02  0.22899128557E+02  0.34060718000E+03  0.34392037373E+03  0.10000000000E+01 0.  0.
    9000005    1    3    3    0    0 -0.41744488357E+02 -0.22899128557E+02  0.65458564479E+02  0.80949342558E+02  0.10000000000E+01 0.  0.
<mgrwt>
<rscale>  0 0.12499955E+03</rscale>
<asrwt>0</asrwt>
<pdfrwt beam="1">  1        4 0.63918097E-01 0.12499955E+03</pdfrwt>
<pdfrwt beam="2">  1       -4 0.14464597E-02 0.12499955E+03</pdfrwt>
<totfact> 0.62204416E+03</totfact>
</mgrwt>
</event>
<event>
 5    1  0.3270363E-002  0.1249988E+03  0.7818608E-02  0.1235071E+00
          4   -1    0    0  501    0  0.00000000000E+00  0.00000000000E+00  0.20548968820E+04  0.20548972745E+04  0.12700000000E+01 0. -1.
         -4   -1    0    0    0  501 -0.00000000000E+00 -0.00000000000E+00 -0.16883518623E+01  0.21126836041E+01  0.12700000000E+01 0. -1.
         25    2    1    2    0    0  0.00000000000E+00  0.00000000000E+00  0.20532085302E+04  0.20570099581E+04  0.12499879725E+03 0.  0.
    9000005    1    3    3    0    0  0.15409309719E+02 -0.60069400424E+02  0.11534295943E+04  0.11550959305E+04  0.10000000000E+01 0.  0.
    9000005    1    3    3    0    0 -0.15409309719E+02  0.60069400424E+02  0.89977893589E+03  0.90191402759E+03  0.10000000000E+01 0.  0.
<mgrwt>
<rscale>  0 0.12499880E+03</rscale>
<asrwt>0</asrwt>
<pdfrwt beam="1">  1        4 0.31617244E+00 0.12499880E+03</pdfrwt>
<pdfrwt beam="2">  1       -4 0.29241588E-03 0.12499880E+03</pdfrwt>
<totfact> 0.91354733E+02</totfact>
</mgrwt>
</event>
<event>
 5    1  0.3270363E-002  0.1249857E+03  0.7818608E-02  0.1235092E+00
          4   -1    0    0  501    0  0.00000000000E+00  0.00000000000E+00  0.32011004291E+03  0.32011256219E+03  0.12700000000E+01 0. -1.
         -4   -1    0    0    0  501 -0.00000000000E+00 -0.00000000000E+00 -0.12164422576E+02  0.12230538688E+02  0.12700000000E+01 0. -1.
         25    2    1    2    0    0  0.00000000000E+00  0.00000000000E+00  0.30794562033E+03  0.33234310087E+03  0.12498572566E+03 0.  0.
    9000005    1    3    3    0    0  0.36058837443E+01  0.62357341053E+02  0.15851466709E+03  0.17037998728E+03  0.10000000000E+01 0.  0.
    9000005    1    3    3    0    0 -0.36058837443E+01 -0.62357341053E+02  0.14943095324E+03  0.16196311360E+03  0.10000000000E+01 0.  0.
<mgrwt>
<rscale>  0 0.12498573E+03</rscale>
<asrwt>0</asrwt>
<pdfrwt beam="1">  1        4 0.49252983E-01 0.12498573E+03</pdfrwt>
<pdfrwt beam="2">  1       -4 0.18767291E-02 0.12498573E+03</pdfrwt>
<totfact> 0.71734408E+03</totfact>
</mgrwt>
</event>
<event>
 5    1  0.3270363E-002  0.1249974E+03  0.7818608E-02  0.1235073E+00
          4   -1    0    0  501    0  0.00000000000E+00  0.00000000000E+00  0.30697488529E+03  0.30697751236E+03  0.12700000000E+01 0. -1.
         -4   -1    0    0    0  501 -0.00000000000E+00 -0.00000000000E+00 -0.12690080146E+02  0.12753471453E+02  0.12700000000E+01 0. -1.
         25    2    1    2    0    0  0.00000000000E+00  0.00000000000E+00  0.29428480514E+03  0.31973098382E+03  0.12499742188E+03 0.  0.
    9000005    1    3    3    0    0 -0.41641658241E+02  0.13027958036E+02  0.32711480235E+02  0.54541693509E+02  0.10000000000E+01 0.  0.
    9000005    1    3    3    0    0  0.41641658241E+02 -0.13027958036E+02  0.26157332491E+03  0.26518929031E+03  0.10000000000E+01 0.  0.
<mgrwt>
<rscale>  0 0.12499742E+03</rscale>
<asrwt>0</asrwt>
<pdfrwt beam="1">  1        4 0.47231982E-01 0.12499742E+03</pdfrwt>
<pdfrwt beam="2">  1       -4 0.19573984E-02 0.12499742E+03</pdfrwt>
<totfact> 0.73192314E+03</totfact>
</mgrwt>
</event>
<event>
 5    1  0.3270363E-002  0.1249672E+03  0.7818608E-02  0.1235121E+00
          4   -1    0    0  501    0  0.00000000000E+00  0.00000000000E+00  0.14283145360E+02  0.14339495855E+02  0.12700000000E+01 0. -1.
         -4   -1    0    0    0  501 -0.00000000000E+00 -0.00000000000E+00 -0.27274705414E+03  0.27275001089E+03  0.12700000000E+01 0. -1.
         25    2    1    2    0    0  0.00000000000E+00  0.00000000000E+00 -0.25846390878E+03  0.28708950674E+03  0.12496716666E+03 0.  0.
    9000005    1    3    3    0    0  0.61433505606E+02  0.11270887039E+02 -0.12591101241E+03  0.14055494140E+03  0.10000000000E+01 0.  0.
    9000005    1    3    3    0    0 -0.61433505606E+02 -0.11270887039E+02 -0.13255289637E+03  0.14653456535E+03  0.10000000000E+01 0.  0.
<mgrwt>
<rscale>  0 0.12496717E+03</rscale>
<asrwt>0</asrwt>
<pdfrwt beam="1">  1        4 0.22019693E-02 0.12496717E+03</pdfrwt>
<pdfrwt beam="2">  1       -4 0.41965644E-01 0.12496717E+03</pdfrwt>
<totfact> 0.77303761E+03</totfact>
</mgrwt>
</event>
<event>
 5    1  0.3270363E-002  0.1249991E+03  0.7818608E-02  0.1235071E+00
         -4   -1    0    0    0  501 -0.00000000000E+00  0.00000000000E+00  0.65516698607E+02  0.65529006526E+02  0.12700000000E+01 0. -1.
          4   -1    0    0  501    0  0.00000000000E+00 -0.00000000000E+00 -0.59596657081E+02  0.59610187344E+02  0.12700000000E+01 0. -1.
         25    2    1    2    0    0  0.00000000000E+00  0.00000000000E+00  0.59200415259E+01  0.12513919387E+03  0.12499908380E+03 0.  0.
    9000005    1    3    3    0    0 -0.35008029960E+01  0.54571119066E+02 -0.27321694829E+02  0.61137040050E+02  0.10000000000E+01 0.  0.
    9000005    1    3    3    0    0  0.35008029960E+01 -0.54571119066E+02  0.33241736355E+02  0.64002153820E+02  0.10000000000E+01 0.  0.
<mgrwt>
<rscale>  0 0.12499908E+03</rscale>
<asrwt>0</asrwt>
<pdfrwt beam="2">  1        4 0.91707041E-02 0.12499908E+03</pdfrwt>
<pdfrwt beam="1">  1       -4 0.10081480E-01 0.12499908E+03</pdfrwt>
<totfact> 0.10450056E+04</totfact>
</mgrwt>
</event>
<event>
 5    1  0.3270363E-002  0.1249920E+03  0.7818608E-02  0.1235082E+00
          4   -1    0    0  501    0  0.00000000000E+00  0.00000000000E+00  0.13947502182E+03  0.13948080374E+03  0.12700000000E+01 0.  1.
         -4   -1    0    0    0  501 -0.00000000000E+00 -0.00000000000E+00 -0.27982435249E+02  0.28011240288E+02  0.12700000000E+01 0.  1.
         25    2    1    2    0    0  0.00000000000E+00  0.00000000000E+00  0.11149258658E+03  0.16749204403E+03  0.12499195155E+03 0.  0.
    9000005    1    3    3    0    0  0.39556133255E+02  0.46042525436E+02  0.75628597113E+02  0.96980856502E+02  0.10000000000E+01 0.  0.
    9000005    1    3    3    0    0 -0.39556133255E+02 -0.46042525436E+02  0.35863989463E+02  0.70511187529E+02  0.10000000000E+01 0.  0.
<mgrwt>
<rscale>  0 0.12499195E+03</rscale>
<asrwt>0</asrwt>
<pdfrwt beam="1">  1        4 0.21460356E-01 0.12499195E+03</pdfrwt>
<pdfrwt beam="2">  1       -4 0.43076505E-02 0.12499195E+03</pdfrwt>
<totfact> 0.95934849E+03</totfact>
</mgrwt>
</event>
<event>
 5    1  0.3270363E-002  0.1249989E+03  0.7818608E-02  0.1235071E+00
          4   -1    0    0  501    0  0.00000000000E+00  0.00000000000E+00  0.10418296952E+03  0.10419070994E+03  0.12700000000E+01 0. -1.
         -4   -1    0    0    0  501 -0.00000000000E+00 -0.00000000000E+00 -0.37473562125E+02  0.37495076454E+02  0.12700000000E+01 0. -1.
         25    2    1    2    0    0  0.00000000000E+00  0.00000000000E+00  0.66709407396E+02  0.14168578640E+03  0.12499886812E+03 0.  0.
    9000005    1    3    3    0    0 -0.87087741456E+01 -0.59394271733E+02  0.13667823180E+02  0.61573790303E+02  0.10000000000E+01 0.  0.
    9000005    1    3    3    0    0  0.87087741456E+01  0.59394271733E+02  0.53041584216E+02  0.80111996093E+02  0.10000000000E+01 0.  0.
<mgrwt>
<rscale>  0 0.12499887E+03</rscale>
<asrwt>0</asrwt>
<pdfrwt beam="1">  1        4 0.16030399E-01 0.12499887E+03</pdfrwt>
<pdfrwt beam="2">  1       -4 0.57674138E-02 0.12499887E+03</pdfrwt>
<totfact> 0.10099023E+04</totfact>
</mgrwt>
</event>
<event>
 4    1  0.3270363E-002  0.1228438E+03  0.7818608E-02  0.1238478E+00
          4   -1    0    0  501    0  0.00000000000E+00  0.00000000000E+00  0.48670202781E+02  0.48686769648E+02  0.12700000000E+01 0. -1.
         -4   -1    0    0    0  501 -0.00000000000E+00 -0.00000000000E+00 -0.77479547413E+02  0.77489955267E+02  0.12700000000E+01 0. -1.
    9000005    1    1    2    0    0  0.38762988652E+02  0.75844602021E+01 -0.62707761559E+02  0.74117182121E+02  0.10000000000E+01 0.  0.
    9000005    1    1    2    0    0 -0.38762988652E+02 -0.75844602021E+01  0.33898416927E+02  0.52059542794E+02  0.10000000000E+01 0.  0.
<mgrwt>
<rscale>  0 0.12284375E+03</rscale>
<asrwt>0</asrwt>
<pdfrwt beam="1">  1        4 0.74897985E-02 0.12284375E+03</pdfrwt>
<pdfrwt beam="2">  1       -4 0.11922005E-01 0.12284375E+03</pdfrwt>
<totfact> 0.10951342E+04</totfact>
</mgrwt>
</event>
<event>
 4    1  0.3270363E-002  0.1249115E+03  0.7818608E-02  0.1235208E+00
         -4   -1    0    0    0  501 -0.00000000000E+00  0.00000000000E+00  0.34712440922E+02  0.34735665457E+02  0.12700000000E+01 0.  1.
          4   -1    0    0  501    0  0.00000000000E+00 -0.00000000000E+00 -0.11230806441E+03  0.11231524487E+03  0.12700000000E+01 0.  1.
    9000005    1    1    2    0    0 -0.89199168767E+01 -0.35890536759E+02 -0.98035670530E+02  0.10478400757E+03  0.10000000000E+01 0.  0.
    9000005    1    1    2    0    0  0.89199168767E+01  0.35890536759E+02  0.20440047043E+02  0.42266902762E+02  0.10000000000E+01 0.  0.
<mgrwt>
<rscale>  0 0.12491153E+03</rscale>
<asrwt>0</asrwt>
<pdfrwt beam="2">  1        4 0.17280502E-01 0.12491153E+03</pdfrwt>
<pdfrwt beam="1">  1       -4 0.53427144E-02 0.12491153E+03</pdfrwt>
<totfact> 0.10009407E+04</totfact>
</mgrwt>
</event>
<event>
 5    1  0.3270363E-002  0.1250008E+03  0.7818608E-02  0.1235068E+00
         -4   -1    0    0    0  501 -0.00000000000E+00  0.00000000000E+00  0.46300318630E+02  0.46317733161E+02  0.12700000000E+01 0. -1.
          4   -1    0    0  501    0  0.00000000000E+00 -0.00000000000E+00 -0.84330630447E+02  0.84340192859E+02  0.12700000000E+01 0. -1.
         25    2    1    2    0    0  0.00000000000E+00  0.00000000000E+00 -0.38030311817E+02  0.13065792602E+03  0.12500075606E+03 0.  0.
    9000005    1    3    3    0    0 -0.21281074643E+02 -0.34788405465E+02 -0.68509816884E+02  0.79735263856E+02  0.10000000000E+01 0.  0.
    9000005    1    3    3    0    0  0.21281074643E+02  0.34788405465E+02  0.30479505067E+02  0.50922662164E+02  0.10000000000E+01 0.  0.
<mgrwt>
<rscale>  0 0.12500076E+03</rscale>
<asrwt>0</asrwt>
<pdfrwt beam="2">  1        4 0.12976018E-01 0.12500076E+03</pdfrwt>
<pdfrwt beam="1">  1       -4 0.71252011E-02 0.12500076E+03</pdfrwt>
<totfact> 0.10330252E+04</totfact>
</mgrwt>
</event>
<event>
 5    1  0.3270363E-002  0.1249973E+03  0.7818608E-02  0.1235074E+00
          4   -1    0    0  501    0  0.00000000000E+00  0.00000000000E+00  0.55839030000E+02  0.55853470539E+02  0.12700000000E+01 0.  1.
         -4   -1    0    0    0  501 -0.00000000000E+00 -0.00000000000E+00 -0.69923251372E+02  0.69934783780E+02  0.12700000000E+01 0.  1.
         25    2    1    2    0    0  0.00000000000E+00  0.00000000000E+00 -0.14084221372E+02  0.12578825432E+03  0.12499727850E+03 0.  0.
    9000005    1    3    3    0    0 -0.93852965069E+01 -0.37800793852E+02 -0.56219495798E+02  0.68400405804E+02  0.10000000000E+01 0.  0.
    9000005    1    3    3    0    0  0.93852965069E+01  0.37800793852E+02  0.42135274425E+02  0.57387848516E+02  0.10000000000E+01 0.  0.
<mgrwt>
<rscale>  0 0.12499728E+03</rscale>
<asrwt>0</asrwt>
<pdfrwt beam="1">  1        4 0.85926179E-02 0.12499728E+03</pdfrwt>
<pdfrwt beam="2">  1       -4 0.10759421E-01 0.12499728E+03</pdfrwt>
<totfact> 0.10436244E+04</totfact>
</mgrwt>
</event>
<event>
 5    1  0.3270363E-002  0.1250012E+03  0.7818608E-02  0.1235067E+00
         -4   -1    0    0    0  501 -0.00000000000E+00  0.00000000000E+00  0.57137272520E+02  0.57151385031E+02  0.12700000000E+01 0.  1.
          4   -1    0    0  501    0  0.00000000000E+00 -0.00000000000E+00 -0.68338901744E+02  0.68350701471E+02  0.12700000000E+01 0.  1.
         25    2    1    2    0    0  0.00000000000E+00  0.00000000000E+00 -0.11201629224E+02  0.12550208650E+03  0.12500118887E+03 0.  0.
    9000005    1    3    3    0    0  0.24062167139E+02  0.20720489677E+02  0.48438630338E+02  0.57927778215E+02  0.10000000000E+01 0.  0.
    9000005    1    3    3    0    0 -0.24062167139E+02 -0.20720489677E+02 -0.59640259562E+02  0.67574308287E+02  0.10000000000E+01 0.  0.
<mgrwt>
<rscale>  0 0.12500119E+03</rscale>
<asrwt>0</asrwt>
<pdfrwt beam="2">  1        4 0.10515670E-01 0.12500119E+03</pdfrwt>
<pdfrwt beam="1">  1       -4 0.87923428E-02 0.12500119E+03</pdfrwt>
<totfact> 0.10441628E+04</totfact>
</mgrwt>
</event>
<event>
 5    1  0.3270363E-002  0.1249950E+03  0.7818608E-02  0.1235077E+00
          4   -1    0    0  501    0  0.00000000000E+00  0.00000000000E+00  0.73200947446E+01  0.74294472923E+01  0.12700000000E+01 0. -1.
         -4   -1    0    0    0  501 -0.00000000000E+00 -0.00000000000E+00 -0.52952472646E+03  0.52952624942E+03  0.12700000000E+01 0. -1.
         25    2    1    2    0    0  0.00000000000E+00  0.00000000000E+00 -0.52220463171E+03  0.53695569671E+03  0.12499497132E+03 0.  0.
    9000005    1    3    3    0    0 -0.34649714831E+02  0.30606231038E+02 -0.80494359993E+02  0.92831493077E+02  0.10000000000E+01 0.  0.
    9000005    1    3    3    0    0  0.34649714831E+02 -0.30606231038E+02 -0.44171027172E+03  0.44412420364E+03  0.10000000000E+01 0.  0.
<mgrwt>
<rscale>  0 0.12499497E+03</rscale>
<asrwt>0</asrwt>
<pdfrwt beam="1">  1        4 0.11346977E-02 0.12499497E+03</pdfrwt>
<pdfrwt beam="2">  1       -4 0.81473841E-01 0.12499497E+03</pdfrwt>
<totfact> 0.53112773E+03</totfact>
</mgrwt>
</event>
<event>
 5    1  0.3270363E-002  0.1250027E+03  0.7818608E-02  0.1235065E+00
          4   -1    0    0  501    0  0.00000000000E+00  0.00000000000E+00  0.12384631721E+03  0.12385282874E+03  0.12700000000E+01 0. -1.
         -4   -1    0    0    0  501 -0.00000000000E+00 -0.00000000000E+00 -0.31522357023E+02  0.31547930079E+02  0.12700000000E+01 0. -1.
         25    2    1    2    0    0  0.00000000000E+00  0.00000000000E+00  0.92323960188E+02  0.15540075882E+03  0.12500272884E+03 0.  0.
    9000005    1    3    3    0    0 -0.42056060343E+02 -0.46084178264E+02  0.41687078790E+02  0.75041829908E+02  0.10000000000E+01 0.  0.
    9000005    1    3    3    0    0  0.42056060343E+02  0.46084178264E+02  0.50636881398E+02  0.80358928910E+02  0.10000000000E+01 0.  0.
<mgrwt>
<rscale>  0 0.12500273E+03</rscale>
<asrwt>0</asrwt>
<pdfrwt beam="1">  1        4 0.19055747E-01 0.12500273E+03</pdfrwt>
<pdfrwt beam="2">  1       -4 0.48520615E-02 0.12500273E+03</pdfrwt>
<totfact> 0.98230854E+03</totfact>
</mgrwt>
</event>
<event>
 5    1  0.3270363E-002  0.1249918E+03  0.7818608E-02  0.1235082E+00
          4   -1    0    0  501    0  0.00000000000E+00  0.00000000000E+00  0.15812108017E+03  0.15812618029E+03  0.12700000000E+01 0. -1.
         -4   -1    0    0    0  501 -0.00000000000E+00 -0.00000000000E+00 -0.24679112857E+02  0.24711768682E+02  0.12700000000E+01 0. -1.
         25    2    1    2    0    0  0.00000000000E+00  0.00000000000E+00  0.13344196731E+03  0.18283794897E+03  0.12499182751E+03 0.  0.
    9000005    1    3    3    0    0 -0.33350337901E+02  0.42656640497E+02  0.11234778141E+03  0.12471911644E+03  0.10000000000E+01 0.  0.
    9000005    1    3    3    0    0  0.33350337901E+02 -0.42656640497E+02  0.21094185898E+02  0.58118832536E+02  0.10000000000E+01 0.  0.
<mgrwt>
<rscale>  0 0.12499183E+03</rscale>
<asrwt>0</asrwt>
<pdfrwt beam="1">  1        4 0.24329226E-01 0.12499183E+03</pdfrwt>
<pdfrwt beam="2">  1       -4 0.37996907E-02 0.12499183E+03</pdfrwt>
<totfact> 0.93125700E+03</totfact>
</mgrwt>
</event>
<event>
 5    1  0.3270363E-002  0.1250057E+03  0.7818608E-02  0.1235060E+00
          4   -1    0    0  501    0  0.00000000000E+00  0.00000000000E+00  0.30095796690E+03  0.30096064650E+03  0.12700000000E+01 0.  1.
         -4   -1    0    0    0  501 -0.00000000000E+00 -0.00000000000E+00 -0.12946753014E+02  0.13008893635E+02  0.12700000000E+01 0.  1.
         25    2    1    2    0    0  0.00000000000E+00  0.00000000000E+00  0.28801121389E+03  0.31396954013E+03  0.12500565110E+03 0.  0.
    9000005    1    3    3    0    0  0.19344870606E+02 -0.50535231574E+02  0.65476311011E+02  0.84948107410E+02  0.10000000000E+01 0.  0.
    9000005    1    3    3    0    0 -0.19344870606E+02  0.50535231574E+02  0.22253490287E+03  0.22902143272E+03  0.10000000000E+01 0.  0.
<mgrwt>
<rscale>  0 0.12500565E+03</rscale>
<asrwt>0</asrwt>
<pdfrwt beam="1">  1        4 0.46306213E-01 0.12500565E+03</pdfrwt>
<pdfrwt beam="2">  1       -4 0.19967943E-02 0.12500565E+03</pdfrwt>
<totfact> 0.73869896E+03</totfact>
</mgrwt>
</event>
<event>
 5    1  0.3270363E-002  0.1249968E+03  0.7818608E-02  0.1235074E+00
          4   -1    0    0  501    0  0.00000000000E+00  0.00000000000E+00  0.28838391651E+03  0.28838671294E+03  0.12700000000E+01 0. -1.
         -4   -1    0    0    0  501 -0.00000000000E+00 -0.00000000000E+00 -0.13511981446E+02  0.13571534276E+02  0.12700000000E+01 0. -1.
         25    2    1    2    0    0  0.00000000000E+00  0.00000000000E+00  0.27487193506E+03  0.30195824721E+03  0.12499680947E+03 0.  0.
    9000005    1    3    3    0    0 -0.34899754177E+02 -0.11759726891E+02  0.25939472738E+03  0.26199791719E+03  0.10000000000E+01 0.  0.
    9000005    1    3    3    0    0  0.34899754177E+02  0.11759726891E+02  0.15477207678E+02  0.39960330024E+02  0.10000000000E+01 0.  0.
<mgrwt>
<rscale>  0 0.12499681E+03</rscale>
<asrwt>0</asrwt>
<pdfrwt beam="1">  1        4 0.44371549E-01 0.12499681E+03</pdfrwt>
<pdfrwt beam="2">  1       -4 0.20835626E-02 0.12499681E+03</pdfrwt>
<totfact> 0.75359192E+03</totfact>
</mgrwt>
</event>
<event>
 5    1  0.3270363E-002  0.1250006E+03  0.7818608E-02  0.1235068E+00
          4   -1    0    0  501    0  0.00000000000E+00  0.00000000000E+00  0.34865710245E+02  0.34888832754E+02  0.12700000000E+01 0.  1.
         -4   -1    0    0    0  501 -0.00000000000E+00 -0.00000000000E+00 -0.11197422927E+03  0.11198143115E+03  0.12700000000E+01 0.  1.
         25    2    1    2    0    0  0.00000000000E+00  0.00000000000E+00 -0.77108519030E+02  0.14687026390E+03  0.12500060284E+03 0.  0.
    9000005    1    3    3    0    0  0.33464454973E+02  0.36145183785E+02 -0.83739601844E+02  0.97157938299E+02  0.10000000000E+01 0.  0.
    9000005    1    3    3    0    0 -0.33464454973E+02 -0.36145183785E+02  0.66310828145E+01  0.49712325602E+02  0.10000000000E+01 0.  0.
<mgrwt>
<rscale>  0 0.12500060E+03</rscale>
<asrwt>0</asrwt>
<pdfrwt beam="1">  1        4 0.53662881E-02 0.12500060E+03</pdfrwt>
<pdfrwt beam="2">  1       -4 0.17229137E-01 0.12500060E+03</pdfrwt>
<totfact> 0.99929907E+03</totfact>
</mgrwt>
</event>
<event>
 5    1  0.3270363E-002  0.1249996E+03  0.7818608E-02  0.1235070E+00
          4   -1    0    0  501    0  0.00000000000E+00  0.00000000000E+00  0.59497549785E+02  0.59511102581E+02  0.12700000000E+01 0.  1.
         -4   -1    0    0    0  501 -0.00000000000E+00 -0.00000000000E+00 -0.65626346569E+02  0.65638633928E+02  0.12700000000E+01 0.  1.
         25    2    1    2    0    0  0.00000000000E+00  0.00000000000E+00 -0.61287967840E+01  0.12514973651E+03  0.12499957759E+03 0.  0.
    9000005    1    3    3    0    0  0.44125205189E+02 -0.20505161861E+02 -0.42325382751E+02  0.64497545852E+02  0.10000000000E+01 0.  0.
    9000005    1    3    3    0    0 -0.44125205189E+02  0.20505161861E+02  0.36196585967E+02  0.60652190658E+02  0.10000000000E+01 0.  0.
<mgrwt>
<rscale>  0 0.12499958E+03</rscale>
<asrwt>0</asrwt>
<pdfrwt beam="1">  1        4 0.91554569E-02 0.12499958E+03</pdfrwt>
<pdfrwt beam="2">  1       -4 0.10098349E-01 0.12499958E+03</pdfrwt>
<totfact> 0.10449711E+04</totfact>
</mgrwt>
</event>
<event>
 5    1  0.3270363E-002  0.1249987E+03  0.7818608E-02  0.1235071E+00
          4   -1    0    0  501    0  0.00000000000E+00  0.00000000000E+00  0.55713765504E+02  0.55728238503E+02  0.12700000000E+01 0. -1.
         -4   -1    0    0    0  501 -0.00000000000E+00 -0.00000000000E+00 -0.70082023416E+02  0.70093529702E+02  0.12700000000E+01 0. -1.
         25    2    1    2    0    0  0.00000000000E+00  0.00000000000E+00 -0.14368257912E+02  0.12582176821E+03  0.12499868207E+03 0.  0.
    9000005    1    3    3    0    0  0.39219935862E+02  0.47556189573E+02  0.31486042554E+01  0.61730934259E+02  0.10000000000E+01 0.  0.
    9000005    1    3    3    0    0 -0.39219935862E+02 -0.47556189573E+02 -0.17516862167E+02  0.64090833946E+02  0.10000000000E+01 0.  0.
<mgrwt>
<rscale>  0 0.12499868E+03</rscale>
<asrwt>0</asrwt>
<pdfrwt beam="1">  1        4 0.85733469E-02 0.12499868E+03</pdfrwt>
<pdfrwt beam="2">  1       -4 0.10783848E-01 0.12499868E+03</pdfrwt>
<totfact> 0.10435177E+04</totfact>
</mgrwt>
</event>
<event>
 5    1  0.3270363E-002  0.1249949E+03  0.7818608E-02  0.1235077E+00
          4   -1    0    0  501    0  0.00000000000E+00  0.00000000000E+00  0.89773338723E+03  0.89773428555E+03  0.12700000000E+01 0. -1.
         -4   -1    0    0    0  501 -0.00000000000E+00 -0.00000000000E+00 -0.42572847251E+01  0.44426763590E+01  0.12700000000E+01 0. -1.
         25    2    1    2    0    0  0.00000000000E+00  0.00000000000E+00  0.89347610250E+03  0.90217696190E+03  0.12499489929E+03 0.  0.
    9000005    1    3    3    0    0  0.45053776974E+00  0.33210967303E+02  0.82878338327E+03  0.82944925567E+03  0.10000000000E+01 0.  0.
    9000005    1    3    3    0    0 -0.45053776974E+00 -0.33210967303E+02  0.64692719228E+02  0.72727706238E+02  0.10000000000E+01 0.  0.
<mgrwt>
<rscale>  0 0.12499490E+03</rscale>
<asrwt>0</asrwt>
<pdfrwt beam="1">  1        4 0.13812713E+00 0.12499490E+03</pdfrwt>
<pdfrwt beam="2">  1       -4 0.66929700E-03 0.12499490E+03</pdfrwt>
<totfact> 0.34080494E+03</totfact>
</mgrwt>
</event>
<event>
 5    1  0.3270363E-002  0.1250025E+03  0.7818608E-02  0.1235065E+00
          4   -1    0    0  501    0  0.00000000000E+00  0.00000000000E+00  0.77380097885E+02  0.77390519114E+02  0.12700000000E+01 0. -1.
         -4   -1    0    0    0  501 -0.00000000000E+00 -0.00000000000E+00 -0.50461526454E+02  0.50477505407E+02  0.12700000000E+01 0. -1.
         25    2    1    2    0    0  0.00000000000E+00  0.00000000000E+00  0.26918571431E+02  0.12786802452E+03  0.12500248880E+03 0.  0.
    9000005    1    3    3    0    0 -0.44681072073E+02  0.39238144756E+02 -0.62004306723E+01  0.59795280299E+02  0.10000000000E+01 0.  0.
    9000005    1    3    3    0    0  0.44681072073E+02 -0.39238144756E+02  0.33119002103E+02  0.68072744221E+02  0.10000000000E+01 0.  0.
<mgrwt>
<rscale>  0 0.12500249E+03</rscale>
<asrwt>0</asrwt>
<pdfrwt beam="1">  1        4 0.11906661E-01 0.12500249E+03</pdfrwt>
<pdfrwt beam="2">  1       -4 0.77653426E-02 0.12500249E+03</pdfrwt>
<totfact> 0.10389755E+04</totfact>
</mgrwt>
</event>
<event>
 5    1  0.3270363E-002  0.1250074E+03  0.7818608E-02  0.1235058E+00
         -4   -1    0    0    0  501 -0.00000000000E+00  0.00000000000E+00  0.36918988079E+02  0.36940825393E+02  0.12700000000E+01 0. -1.
          4   -1    0    0  501    0  0.00000000000E+00 -0.00000000000E+00 -0.10576149476E+03  0.10576911966E+03  0.12700000000E+01 0. -1.
         25    2    1    2    0    0  0.00000000000E+00  0.00000000000E+00 -0.68842506677E+02  0.14270994505E+03  0.12500735055E+03 0.  0.
    9000005    1    3    3    0    0 -0.55159961642E+02  0.16646285858E+02 -0.62056509982E+02  0.84686071064E+02  0.10000000000E+01 0.  0.
    9000005    1    3    3    0    0  0.55159961642E+02 -0.16646285858E+02 -0.67859966955E+01  0.58023873986E+02  0.10000000000E+01 0.  0.
<mgrwt>
<rscale>  0 0.12500735E+03</rscale>
<asrwt>0</asrwt>
<pdfrwt beam="2">  1        4 0.16273265E-01 0.12500735E+03</pdfrwt>
<pdfrwt beam="1">  1       -4 0.56821107E-02 0.12500735E+03</pdfrwt>
<totfact> 0.10076058E+04</totfact>
</mgrwt>
</event>
<event>
 5    1  0.3270363E-002  0.1250015E+03  0.7818608E-02  0.1235067E+00
          4   -1    0    0  501    0  0.00000000000E+00  0.00000000000E+00  0.20333274016E+03  0.20333670628E+03  0.12700000000E+01 0. -1.
         -4   -1    0    0    0  501 -0.00000000000E+00 -0.00000000000E+00 -0.19186449476E+02  0.19228435805E+02  0.12700000000E+01 0. -1.
         25    2    1    2    0    0  0.00000000000E+00  0.00000000000E+00  0.18414629068E+03  0.22256514208E+03  0.12500154438E+03 0.  0.
    9000005    1    3    3    0    0  0.21278318785E+02  0.58432267107E+02  0.81061390060E+02  0.10217164797E+03  0.10000000000E+01 0.  0.
    9000005    1    3    3    0    0 -0.21278318785E+02 -0.58432267107E+02  0.10308490062E+03  0.12039349412E+03  0.10000000000E+01 0.  0.
<mgrwt>
<rscale>  0 0.12500154E+03</rscale>
<asrwt>0</asrwt>
<pdfrwt beam="1">  1        4 0.31285494E-01 0.12500154E+03</pdfrwt>
<pdfrwt beam="2">  1       -4 0.29552963E-02 0.12500154E+03</pdfrwt>
<totfact> 0.86461088E+03</totfact>
</mgrwt>
</event>
<event>
 5    1  0.3270363E-002  0.1249987E+03  0.7818608E-02  0.1235071E+00
          4   -1    0    0  501    0  0.00000000000E+00  0.00000000000E+00  0.38299339486E+03  0.38299550050E+03  0.12700000000E+01 0. -1.
         -4   -1    0    0    0  501 -0.00000000000E+00 -0.00000000000E+00 -0.10157369724E+02  0.10236457381E+02  0.12700000000E+01 0. -1.
         25    2    1    2    0    0  0.00000000000E+00  0.00000000000E+00  0.37283602513E+03  0.39323195788E+03  0.12499868424E+03 0.  0.
    9000005    1    3    3    0    0 -0.25121705987E+02  0.57218079710E+02  0.18516356325E+03  0.19542659469E+03  0.10000000000E+01 0.  0.
    9000005    1    3    3    0    0  0.25121705987E+02 -0.57218079710E+02  0.18767246188E+03  0.19780536319E+03  0.10000000000E+01 0.  0.
<mgrwt>
<rscale>  0 0.12499868E+03</rscale>
<asrwt>0</asrwt>
<pdfrwt beam="1">  1        4 0.58928304E-01 0.12499868E+03</pdfrwt>
<pdfrwt beam="2">  1       -4 0.15689180E-02 0.12499868E+03</pdfrwt>
<totfact> 0.65218301E+03</totfact>
</mgrwt>
</event>
<event>
 5    1  0.3270363E-002  0.1249913E+03  0.7818608E-02  0.1235083E+00
         -4   -1    0    0    0  501 -0.00000000000E+00  0.00000000000E+00  0.10807353012E+02  0.10881717655E+02  0.12700000000E+01 0. -1.
          4   -1    0    0  501    0  0.00000000000E+00 -0.00000000000E+00 -0.36007858939E+03  0.36008082903E+03  0.12700000000E+01 0. -1.
         25    2    1    2    0    0  0.00000000000E+00  0.00000000000E+00 -0.34927123638E+03  0.37096254669E+03  0.12499125763E+03 0.  0.
    9000005    1    3    3    0    0  0.60315834533E+02  0.90661363444E+01 -0.21494991450E+03  0.22343826992E+03  0.10000000000E+01 0.  0.
    9000005    1    3    3    0    0 -0.60315834533E+02 -0.90661363444E+01 -0.13432132188E+03  0.14752427677E+03  0.10000000000E+01 0.  0.
<mgrwt>
<rscale>  0 0.12499126E+03</rscale>
<asrwt>0</asrwt>
<pdfrwt beam="2">  1        4 0.55402589E-01 0.12499126E+03</pdfrwt>
<pdfrwt beam="1">  1       -4 0.16685626E-02 0.12499126E+03</pdfrwt>
<totfact> 0.67491404E+03</totfact>
</mgrwt>
</event>
<event>
 5    1  0.3270363E-002  0.1249955E+03  0.7818608E-02  0.1235076E+00
         -4   -1    0    0    0  501 -0.00000000000E+00  0.00000000000E+00  0.92096147685E+02  0.92104903878E+02  0.12700000000E+01 0.  1.
          4   -1    0    0  501    0  0.00000000000E+00 -0.00000000000E+00 -0.42391563643E+02  0.42410583209E+02  0.12700000000E+01 0.  1.
         25    2    1    2    0    0  0.00000000000E+00  0.00000000000E+00  0.49704584042E+02  0.13451548709E+03  0.12499548228E+03 0.  0.
    9000005    1    3    3    0    0 -0.50783815333E+02 -0.25939586479E+02 -0.26501340680E+01  0.57095369839E+02  0.10000000000E+01 0.  0.
    9000005    1    3    3    0    0  0.50783815333E+02  0.25939586479E+02  0.52354718110E+02  0.77420117248E+02  0.10000000000E+01 0.  0.
<mgrwt>
<rscale>  0 0.12499548E+03</rscale>
<asrwt>0</asrwt>
<pdfrwt beam="2">  1        4 0.65239156E-02 0.12499548E+03</pdfrwt>
<pdfrwt beam="1">  1       -4 0.14170775E-01 0.12499548E+03</pdfrwt>
<totfact> 0.10249338E+04</totfact>
</mgrwt>
</event>
<event>
 5    1  0.3270363E-002  0.1250007E+03  0.7818608E-02  0.1235068E+00
          4   -1    0    0  501    0  0.00000000000E+00  0.00000000000E+00  0.34218689168E+02  0.34242248588E+02  0.12700000000E+01 0. -1.
         -4   -1    0    0    0  501 -0.00000000000E+00 -0.00000000000E+00 -0.11409027587E+03  0.11409734418E+03  0.12700000000E+01 0. -1.
         25    2    1    2    0    0  0.00000000000E+00  0.00000000000E+00 -0.79871586701E+02  0.14833959276E+03  0.12500065768E+03 0.  0.
    9000005    1    3    3    0    0  0.56841944742E+02 -0.17663223734E+02 -0.62523696905E+02  0.86331968756E+02  0.10000000000E+01 0.  0.
    9000005    1    3    3    0    0 -0.56841944742E+02  0.17663223734E+02 -0.17347889796E+02  0.62007624008E+02  0.10000000000E+01 0.  0.
<mgrwt>
<rscale>  0 0.12500066E+03</rscale>
<asrwt>0</asrwt>
<pdfrwt beam="1">  1        4 0.52667698E-02 0.12500066E+03</pdfrwt>
<pdfrwt beam="2">  1       -4 0.17554706E-01 0.12500066E+03</pdfrwt>
<totfact> 0.99634235E+03</totfact>
</mgrwt>
</event>
<event>
 5    1  0.3270363E-002  0.1250009E+03  0.7818608E-02  0.1235068E+00
         -4   -1    0    0    0  501 -0.00000000000E+00  0.00000000000E+00  0.46990965164E+02  0.47008123841E+02  0.12700000000E+01 0.  1.
          4   -1    0    0  501    0  0.00000000000E+00 -0.00000000000E+00 -0.83091633081E+02  0.83101338065E+02  0.12700000000E+01 0.  1.
         25    2    1    2    0    0  0.00000000000E+00  0.00000000000E+00 -0.36100667917E+02  0.13010946191E+03  0.12500085541E+03 0.  0.
    9000005    1    3    3    0    0  0.43194392759E+02 -0.33780180507E+02 -0.49249443598E+02  0.73711354998E+02  0.10000000000E+01 0.  0.
    9000005    1    3    3    0    0 -0.43194392759E+02  0.33780180507E+02  0.13148775681E+02  0.56398106908E+02  0.10000000000E+01 0.  0.
<mgrwt>
<rscale>  0 0.12500086E+03</rscale>
<asrwt>0</asrwt>
<pdfrwt beam="2">  1        4 0.12785395E-01 0.12500086E+03</pdfrwt>
<pdfrwt beam="1">  1       -4 0.72314457E-02 0.12500086E+03</pdfrwt>
<totfact> 0.10341967E+04</totfact>
</mgrwt>
</event>
<event>
 5    1  0.3270363E-002  0.1249797E+03  0.7818608E-02  0.1235101E+00
          4   -1    0    0  501    0  0.00000000000E+00  0.00000000000E+00  0.80614981185E+02  0.80624984288E+02  0.12700000000E+01 0.  1.
         -4   -1    0    0    0  501 -0.00000000000E+00 -0.00000000000E+00 -0.48418578634E+02  0.48435231567E+02  0.12700000000E+01 0.  1.
         25    2    1    2    0    0  0.00000000000E+00  0.00000000000E+00  0.32196402550E+02  0.12906021586E+03  0.12497972227E+03 0.  0.
    9000005    1    3    3    0    0 -0.41573827174E+02  0.11736498443E+02  0.62714672039E+02  0.76159428770E+02  0.10000000000E+01 0.  0.
    9000005    1    3    3    0    0  0.41573827174E+02 -0.11736498443E+02 -0.30518269489E+02  0.52900787085E+02  0.10000000000E+01 0.  0.
<mgrwt>
<rscale>  0 0.12497972E+03</rscale>
<asrwt>0</asrwt>
<pdfrwt beam="1">  1        4 0.12404355E-01 0.12497972E+03</pdfrwt>
<pdfrwt beam="2">  1       -4 0.74510626E-02 0.12497972E+03</pdfrwt>
<totfact> 0.10369399E+04</totfact>
</mgrwt>
</event>
<event>
 5    1  0.3270363E-002  0.1250039E+03  0.7818608E-02  0.1235063E+00
         -4   -1    0    0    0  501 -0.00000000000E+00  0.00000000000E+00  0.14972128529E+04  0.14972133915E+04  0.12700000000E+01 0.  1.
          4   -1    0    0  501    0  0.00000000000E+00 -0.00000000000E+00 -0.24540672043E+01  0.27632129565E+01  0.12700000000E+01 0.  1.
         25    2    1    2    0    0  0.00000000000E+00  0.00000000000E+00  0.14947587857E+04  0.14999766045E+04  0.12500394635E+03 0.  0.
    9000005    1    3    3    0    0 -0.33609963040E+02 -0.50548387143E+02  0.56910495530E+03  0.57233401017E+03  0.10000000000E+01 0.  0.
    9000005    1    3    3    0    0  0.33609963040E+02  0.50548387143E+02  0.92565383037E+03  0.92764259429E+03  0.10000000000E+01 0.  0.
<mgrwt>
<rscale>  0 0.12500395E+03</rscale>
<asrwt>0</asrwt>
<pdfrwt beam="2">  1        4 0.40137083E-03 0.12500395E+03</pdfrwt>
<pdfrwt beam="1">  1       -4 0.23036417E+00 0.12500395E+03</pdfrwt>
<totfact> 0.17929366E+03</totfact>
</mgrwt>
</event>
<event>
 5    1  0.3270363E-002  0.1250003E+03  0.7818608E-02  0.1235069E+00
          4   -1    0    0  501    0  0.00000000000E+00  0.00000000000E+00  0.80855869247E+02  0.80865842552E+02  0.12700000000E+01 0. -1.
         -4   -1    0    0    0  501 -0.00000000000E+00 -0.00000000000E+00 -0.48290207572E+02  0.48306904759E+02  0.12700000000E+01 0. -1.
         25    2    1    2    0    0  0.00000000000E+00  0.00000000000E+00  0.32565661675E+02  0.12917274731E+03  0.12500030531E+03 0.  0.
    9000005    1    3    3    0    0  0.27369665256E+02 -0.54031397746E+02  0.32184071597E+02  0.68595225659E+02  0.10000000000E+01 0.  0.
    9000005    1    3    3    0    0 -0.27369665256E+02  0.54031397746E+02  0.38159007796E+00  0.60577521653E+02  0.10000000000E+01 0.  0.
<mgrwt>
<rscale>  0 0.12500031E+03</rscale>
<asrwt>0</asrwt>
<pdfrwt beam="1">  1        4 0.12441416E-01 0.12500031E+03</pdfrwt>
<pdfrwt beam="2">  1       -4 0.74313144E-02 0.12500031E+03</pdfrwt>
<totfact> 0.10362165E+04</totfact>
</mgrwt>
</event>
<event>
 5    1  0.3270363E-002  0.1249996E+03  0.7818608E-02  0.1235070E+00
          4   -1    0    0  501    0  0.00000000000E+00  0.00000000000E+00  0.16366910448E+02  0.16416109698E+02  0.12700000000E+01 0.  1.
         -4   -1    0    0    0  501 -0.00000000000E+00 -0.00000000000E+00 -0.23825691925E+03  0.23826030402E+03  0.12700000000E+01 0.  1.
         25    2    1    2    0    0  0.00000000000E+00  0.00000000000E+00 -0.22189000881E+03  0.25467641372E+03  0.12499959879E+03 0.  0.
    9000005    1    3    3    0    0 -0.43908323650E+01 -0.23971591646E+02 -0.22818611292E+03  0.22948598812E+03  0.10000000000E+01 0.  0.
    9000005    1    3    3    0    0  0.43908323650E+01  0.23971591646E+02  0.62961041108E+01  0.25190425600E+02  0.10000000000E+01 0.  0.
<mgrwt>
<rscale>  0 0.12499960E+03</rscale>
<asrwt>0</asrwt>
<pdfrwt beam="1">  1        4 0.25220313E-02 0.12499960E+03</pdfrwt>
<pdfrwt beam="2">  1       -4 0.36658953E-01 0.12499960E+03</pdfrwt>
<totfact> 0.81659735E+03</totfact>
</mgrwt>
</event>
<event>
 5    1  0.3270363E-002  0.1249994E+03  0.7818608E-02  0.1235070E+00
         -4   -1    0    0    0  501 -0.00000000000E+00  0.00000000000E+00  0.21036665957E+03  0.21037049308E+03  0.12700000000E+01 0.  1.
          4   -1    0    0  501    0  0.00000000000E+00 -0.00000000000E+00 -0.18542870659E+02  0.18586310884E+02  0.12700000000E+01 0.  1.
         25    2    1    2    0    0  0.00000000000E+00  0.00000000000E+00  0.19182378892E+03  0.22895680397E+03  0.12499940836E+03 0.  0.
    9000005    1    3    3    0    0 -0.35413356350E+02 -0.97945093362E+01  0.33236382777E+01  0.36906432942E+02  0.10000000000E+01 0.  0.
    9000005    1    3    3    0    0  0.35413356350E+02  0.97945093362E+01  0.18850015064E+03  0.19205037103E+03  0.10000000000E+01 0.  0.
<mgrwt>
<rscale>  0 0.12499941E+03</rscale>
<asrwt>0</asrwt>
<pdfrwt beam="2">  1        4 0.28563859E-02 0.12499941E+03</pdfrwt>
<pdfrwt beam="1">  1       -4 0.32367737E-01 0.12499941E+03</pdfrwt>
<totfact> 0.85471167E+03</totfact>
</mgrwt>
</event>
<event>
 5    1  0.3270363E-002  0.1249920E+03  0.7818608E-02  0.1235082E+00
          4   -1    0    0  501    0  0.00000000000E+00  0.00000000000E+00  0.57053756672E+02  0.57067889837E+02  0.12700000000E+01 0.  1.
         -4   -1    0    0    0  501 -0.00000000000E+00 -0.00000000000E+00 -0.68428886420E+02  0.68440670633E+02  0.12700000000E+01 0.  1.
         25    2    1    2    0    0  0.00000000000E+00  0.00000000000E+00 -0.11375129747E+02  0.12550856047E+03  0.12499202044E+03 0.  0.
    9000005    1    3    3    0    0 -0.37647390877E+02 -0.32901449892E+02  0.31949594171E+02  0.59343137872E+02  0.10000000000E+01 0.  0.
    9000005    1    3    3    0    0  0.37647390877E+02  0.32901449892E+02 -0.43324723918E+02  0.66165422597E+02  0.10000000000E+01 0.  0.
<mgrwt>
<rscale>  0 0.12499202E+03</rscale>
<asrwt>0</asrwt>
<pdfrwt beam="1">  1        4 0.87794947E-02 0.12499202E+03</pdfrwt>
<pdfrwt beam="2">  1       -4 0.10529515E-01 0.12499202E+03</pdfrwt>
<totfact> 0.10443645E+04</totfact>
</mgrwt>
</event>
<event>
 5    1  0.3270363E-002  0.1250002E+03  0.7818608E-02  0.1235069E+00
          4   -1    0    0  501    0  0.00000000000E+00  0.00000000000E+00  0.15772892487E+03  0.15773403768E+03  0.12700000000E+01 0. -1.
         -4   -1    0    0    0  501 -0.00000000000E+00 -0.00000000000E+00 -0.24743851915E+02  0.24776422413E+02  0.12700000000E+01 0. -1.
         25    2    1    2    0    0  0.00000000000E+00  0.00000000000E+00  0.13298507296E+03  0.18251046009E+03  0.12500015365E+03 0.  0.
    9000005    1    3    3    0    0 -0.61452261034E+02 -0.47800710618E+01  0.81527136383E+02  0.10221009457E+03  0.10000000000E+01 0.  0.
    9000005    1    3    3    0    0  0.61452261034E+02  0.47800710618E+01  0.51457936576E+02  0.80300365518E+02  0.10000000000E+01 0.  0.
<mgrwt>
<rscale>  0 0.12500015E+03</rscale>
<asrwt>0</asrwt>
<pdfrwt beam="1">  1        4 0.24268888E-01 0.12500015E+03</pdfrwt>
<pdfrwt beam="2">  1       -4 0.38096451E-02 0.12500015E+03</pdfrwt>
<totfact> 0.93166733E+03</totfact>
</mgrwt>
</event>
<event>
 5    1  0.3270363E-002  0.1250010E+03  0.7818608E-02  0.1235068E+00
          4   -1    0    0  501    0  0.00000000000E+00  0.00000000000E+00  0.40058279034E+02  0.40078405896E+02  0.12700000000E+01 0. -1.
         -4   -1    0    0    0  501 -0.00000000000E+00 -0.00000000000E+00 -0.97467036293E+02  0.97475310021E+02  0.12700000000E+01 0. -1.
         25    2    1    2    0    0  0.00000000000E+00  0.00000000000E+00 -0.57408757259E+02  0.13755371592E+03  0.12500103741E+03 0.  0.
    9000005    1    3    3    0    0  0.57889642727E+02 -0.53672812578E+01 -0.53925298359E+02  0.79302939707E+02  0.10000000000E+01 0.  0.
    9000005    1    3    3    0    0 -0.57889642727E+02  0.53672812578E+01 -0.34834588996E+01  0.58250776210E+02  0.10000000000E+01 0.  0.
<mgrwt>
<rscale>  0 0.12500104E+03</rscale>
<asrwt>0</asrwt>
<pdfrwt beam="1">  1        4 0.61649968E-02 0.12500104E+03</pdfrwt>
<pdfrwt beam="2">  1       -4 0.14997113E-01 0.12500104E+03</pdfrwt>
<totfact> 0.10184283E+04</totfact>
</mgrwt>
</event>
<event>
 5    1  0.3270363E-002  0.1249997E+03  0.7818608E-02  0.1235070E+00
          4   -1    0    0  501    0  0.00000000000E+00  0.00000000000E+00  0.43791785120E+03  0.43791969275E+03  0.12700000000E+01 0. -1.
         -4   -1    0    0    0  501 -0.00000000000E+00 -0.00000000000E+00 -0.88729418673E+01  0.89633697559E+01  0.12700000000E+01 0. -1.
         25    2    1    2    0    0  0.00000000000E+00  0.00000000000E+00  0.42904490933E+03  0.44688306250E+03  0.12499974933E+03 0.  0.
    9000005    1    3    3    0    0  0.32649948309E+02 -0.10969843256E+02  0.28107996602E+02  0.44468146562E+02  0.10000000000E+01 0.  0.
    9000005    1    3    3    0    0 -0.32649948309E+02  0.10969843256E+02  0.40093691273E+03  0.40241491594E+03  0.10000000000E+01 0.  0.
<mgrwt>
<rscale>  0 0.12499975E+03</rscale>
<asrwt>0</asrwt>
<pdfrwt beam="1">  1        4 0.67379089E-01 0.12499975E+03</pdfrwt>
<pdfrwt beam="2">  1       -4 0.13721653E-02 0.12499975E+03</pdfrwt>
<totfact> 0.60235092E+03</totfact>
</mgrwt>
</event>
<event>
 5    1  0.3270363E-002  0.1249929E+03  0.7818608E-02  0.1235080E+00
         -4   -1    0    0    0  501 -0.00000000000E+00  0.00000000000E+00  0.21217980000E+03  0.21218360075E+03  0.12700000000E+01 0.  1.
          4   -1    0    0  501    0  0.00000000000E+00 -0.00000000000E+00 -0.18382132249E+02  0.18425951427E+02  0.12700000000E+01 0.  1.
         25    2    1    2    0    0  0.00000000000E+00  0.00000000000E+00  0.19379766775E+03  0.23060955217E+03  0.12499291792E+03 0.  0.
    9000005    1    3    3    0    0 -0.13850232498E+02  0.55866168645E+02  0.52010419236E+02  0.77581837104E+02  0.10000000000E+01 0.  0.
    9000005    1    3    3    0    0  0.13850232498E+02 -0.55866168645E+02  0.14178724851E+03  0.15302771507E+03  0.10000000000E+01 0.  0.
<mgrwt>
<rscale>  0 0.12499292E+03</rscale>
<asrwt>0</asrwt>
<pdfrwt beam="2">  1        4 0.28316835E-02 0.12499292E+03</pdfrwt>
<pdfrwt beam="1">  1       -4 0.32646708E-01 0.12499292E+03</pdfrwt>
<totfact> 0.85229554E+03</totfact>
</mgrwt>
</event>
<event>
 5    1  0.3270363E-002  0.1250031E+03  0.7818608E-02  0.1235064E+00
          4   -1    0    0  501    0  0.00000000000E+00  0.00000000000E+00  0.41523440927E+03  0.41523635142E+03  0.12700000000E+01 0. -1.
         -4   -1    0    0    0  501 -0.00000000000E+00 -0.00000000000E+00 -0.93629649173E+01  0.94487042520E+01  0.12700000000E+01 0. -1.
         25    2    1    2    0    0  0.00000000000E+00  0.00000000000E+00  0.40587144435E+03  0.42468505567E+03  0.12500306865E+03 0.  0.
    9000005    1    3    3    0    0 -0.13141827227E+02 -0.52145565316E+02  0.94773880015E+02  0.10897227142E+03  0.10000000000E+01 0.  0.
    9000005    1    3    3    0    0  0.13141827227E+02  0.52145565316E+02  0.31109756433E+03  0.31571278425E+03  0.10000000000E+01 0.  0.
<mgrwt>
<rscale>  0 0.12500307E+03</rscale>
<asrwt>0</asrwt>
<pdfrwt beam="1">  1        4 0.63888952E-01 0.12500307E+03</pdfrwt>
<pdfrwt beam="2">  1       -4 0.14472011E-02 0.12500307E+03</pdfrwt>
<totfact> 0.62216524E+03</totfact>
</mgrwt>
</event>
<event>
 5    1  0.3270363E-002  0.1250011E+03  0.7818608E-02  0.1235068E+00
          4   -1    0    0  501    0  0.00000000000E+00  0.00000000000E+00  0.51714507985E+01  0.53251106431E+01  0.12700000000E+01 0. -1.
         -4   -1    0    0    0  501 -0.00000000000E+00 -0.00000000000E+00 -0.74415068925E+03  0.74415177296E+03  0.12700000000E+01 0. -1.
         25    2    1    2    0    0  0.00000000000E+00  0.00000000000E+00 -0.73897923845E+03  0.74947688361E+03  0.12500113681E+03 0.  0.
    9000005    1    3    3    0    0 -0.57700902282E+02  0.23936300669E+02 -0.37984066611E+03  0.38494450541E+03  0.10000000000E+01 0.  0.
    9000005    1    3    3    0    0  0.57700902282E+02 -0.23936300669E+02 -0.35913857234E+03  0.36453237820E+03  0.10000000000E+01 0.  0.
<mgrwt>
<rscale>  0 0.12500114E+03</rscale>
<asrwt>0</asrwt>
<pdfrwt beam="1">  1        4 0.80751176E-03 0.12500114E+03</pdfrwt>
<pdfrwt beam="2">  1       -4 0.11449654E+00 0.12500114E+03</pdfrwt>
<totfact> 0.40598184E+03</totfact>
</mgrwt>
</event>
<event>
 5    1  0.3270363E-002  0.1249948E+03  0.7818608E-02  0.1235077E+00
          4   -1    0    0  501    0  0.00000000000E+00  0.00000000000E+00  0.43262466297E+03  0.43262652705E+03  0.12700000000E+01 0. -1.
         -4   -1    0    0    0  501 -0.00000000000E+00 -0.00000000000E+00 -0.89818827417E+01  0.90712247016E+01  0.12700000000E+01 0. -1.
         25    2    1    2    0    0  0.00000000000E+00  0.00000000000E+00  0.42364278023E+03  0.44169775175E+03  0.12499479455E+03 0.  0.
    9000005    1    3    3    0    0  0.42879822267E+02 -0.36282683869E+02  0.11505833784E+03  0.12804113954E+03  0.10000000000E+01 0.  0.
    9000005    1    3    3    0    0 -0.42879822267E+02  0.36282683869E+02  0.30858444238E+03  0.31365661221E+03  0.10000000000E+01 0.  0.
<mgrwt>
<rscale>  0 0.12499479E+03</rscale>
<asrwt>0</asrwt>
<pdfrwt beam="1">  1        4 0.66564645E-01 0.12499479E+03</pdfrwt>
<pdfrwt beam="2">  1       -4 0.13888442E-02 0.12499479E+03</pdfrwt>
<totfact> 0.60696754E+03</totfact>
</mgrwt>
</event>
<event>
 5    1  0.3270363E-002  0.1250025E+03  0.7818608E-02  0.1235065E+00
          4   -1    0    0  501    0  0.00000000000E+00  0.00000000000E+00  0.54780836798E+02  0.54795556209E+02  0.12700000000E+01 0. -1.
         -4   -1    0    0    0  501 -0.00000000000E+00 -0.00000000000E+00 -0.71279769356E+02  0.71291082328E+02  0.12700000000E+01 0. -1.
         25    2    1    2    0    0  0.00000000000E+00  0.00000000000E+00 -0.16498932558E+02  0.12608663854E+03  0.12500250254E+03 0.  0.
    9000005    1    3    3    0    0 -0.91275691855E+01 -0.20789072292E+02  0.50478415695E+02  0.55358544932E+02  0.10000000000E+01 0.  0.
    9000005    1    3    3    0    0  0.91275691855E+01  0.20789072292E+02 -0.66977348252E+02  0.70728093605E+02  0.10000000000E+01 0.  0.
<mgrwt>
<rscale>  0 0.12500250E+03</rscale>
<asrwt>0</asrwt>
<pdfrwt beam="1">  1        4 0.84298235E-02 0.12500250E+03</pdfrwt>
<pdfrwt beam="2">  1       -4 0.10968121E-01 0.12500250E+03</pdfrwt>
<totfact> 0.10428470E+04</totfact>
</mgrwt>
</event>
<event>
 5    1  0.3270363E-002  0.1249842E+03  0.7818608E-02  0.1235094E+00
          4   -1    0    0  501    0  0.00000000000E+00  0.00000000000E+00  0.46123178273E+03  0.46123353120E+03  0.12700000000E+01 0. -1.
         -4   -1    0    0    0  501 -0.00000000000E+00 -0.00000000000E+00 -0.84176351482E+01  0.85129008856E+01  0.12700000000E+01 0. -1.
         25    2    1    2    0    0  0.00000000000E+00  0.00000000000E+00  0.45281414758E+03  0.46974643208E+03  0.12498423182E+03 0.  0.
    9000005    1    3    3    0    0 -0.45756679886E+02 -0.22162099258E+02  0.36292880802E+03  0.36647394462E+03  0.10000000000E+01 0.  0.
    9000005    1    3    3    0    0  0.45756679886E+02  0.22162099258E+02  0.89885339565E+02  0.10327248746E+03  0.10000000000E+01 0.  0.
<mgrwt>
<rscale>  0 0.12498423E+03</rscale>
<asrwt>0</asrwt>
<pdfrwt beam="1">  1        4 0.70966200E-01 0.12498423E+03</pdfrwt>
<pdfrwt beam="2">  1       -4 0.13024834E-02 0.12498423E+03</pdfrwt>
<totfact> 0.58310765E+03</totfact>
</mgrwt>
</event>
<event>
 5    1  0.3270363E-002  0.1249970E+03  0.7818608E-02  0.1235074E+00
         -4   -1    0    0    0  501 -0.00000000000E+00  0.00000000000E+00  0.66862390131E+02  0.66874450383E+02  0.12700000000E+01 0.  1.
          4   -1    0    0  501    0  0.00000000000E+00 -0.00000000000E+00 -0.58395187489E+02  0.58408996070E+02  0.12700000000E+01 0.  1.
         25    2    1    2    0    0  0.00000000000E+00  0.00000000000E+00  0.84672026417E+01  0.12528344645E+03  0.12499699370E+03 0.  0.
    9000005    1    3    3    0    0  0.45992442336E+02  0.34523423527E+02  0.28741438209E+02  0.64298069912E+02  0.10000000000E+01 0.  0.
    9000005    1    3    3    0    0 -0.45992442336E+02 -0.34523423527E+02 -0.20274235567E+02  0.60985376541E+02  0.10000000000E+01 0.  0.
<mgrwt>
<rscale>  0 0.12499699E+03</rscale>
<asrwt>0</asrwt>
<pdfrwt beam="2">  1        4 0.89858650E-02 0.12499699E+03</pdfrwt>
<pdfrwt beam="1">  1       -4 0.10288511E-01 0.12499699E+03</pdfrwt>
<totfact> 0.10447419E+04</totfact>
</mgrwt>
</event>
<event>
 5    1  0.3270363E-002  0.1249874E+03  0.7818608E-02  0.1235089E+00
         -4   -1    0    0    0  501 -0.00000000000E+00  0.00000000000E+00  0.57527283696E+03  0.57527423881E+03  0.12700000000E+01 0. -1.
          4   -1    0    0  501    0  0.00000000000E+00 -0.00000000000E+00 -0.67280671284E+01  0.68468815737E+01  0.12700000000E+01 0. -1.
         25    2    1    2    0    0  0.00000000000E+00  0.00000000000E+00  0.56854476983E+03  0.58212112039E+03  0.12498737336E+03 0.  0.
    9000005    1    3    3    0    0  0.47119614752E+02  0.39665788729E+02  0.33330351846E+03  0.33894817939E+03  0.10000000000E+01 0.  0.
    9000005    1    3    3    0    0 -0.47119614752E+02 -0.39665788729E+02  0.23524125137E+03  0.24317294100E+03  0.10000000000E+01 0.  0.
<mgrwt>
<rscale>  0 0.12498737E+03</rscale>
<asrwt>0</asrwt>
<pdfrwt beam="2">  1        4 0.10443348E-02 0.12498737E+03</pdfrwt>
<pdfrwt beam="1">  1       -4 0.88512749E-01 0.12498737E+03</pdfrwt>
<totfact> 0.50029842E+03</totfact>
</mgrwt>
</event>
<event>
 5    1  0.3270363E-002  0.1249995E+03  0.7818608E-02  0.1235070E+00
          4   -1    0    0  501    0  0.00000000000E+00  0.00000000000E+00  0.34571729592E+01  0.36830618878E+01  0.12700000000E+01 0. -1.
         -4   -1    0    0    0  501 -0.00000000000E+00 -0.00000000000E+00 -0.10939169815E+04  0.10939177187E+04  0.12700000000E+01 0. -1.
         25    2    1    2    0    0  0.00000000000E+00  0.00000000000E+00 -0.10904598086E+04  0.10976007806E+04  0.12499951813E+03 0.  0.
    9000005    1    3    3    0    0  0.20520782972E+02  0.19392657013E+02 -0.10347601412E+04  0.10351457518E+04  0.10000000000E+01 0.  0.
    9000005    1    3    3    0    0 -0.20520782972E+02 -0.19392657013E+02 -0.55699667399E+02  0.62455028846E+02  0.10000000000E+01 0.  0.
<mgrwt>
<rscale>  0 0.12499952E+03</rscale>
<asrwt>0</asrwt>
<pdfrwt beam="1">  1        4 0.54930642E-03 0.12499952E+03</pdfrwt>
<pdfrwt beam="2">  1       -4 0.16831209E+00 0.12499952E+03</pdfrwt>
<totfact> 0.27554051E+03</totfact>
</mgrwt>
</event>
<event>
 5    1  0.3270363E-002  0.1249994E+03  0.7818608E-02  0.1235070E+00
          4   -1    0    0  501    0  0.00000000000E+00  0.00000000000E+00  0.44853652918E+03  0.44853832714E+03  0.12700000000E+01 0. -1.
         -4   -1    0    0    0  501 -0.00000000000E+00 -0.00000000000E+00 -0.86606704939E+01  0.87532915754E+01  0.12700000000E+01 0. -1.
         25    2    1    2    0    0  0.00000000000E+00  0.00000000000E+00  0.43987585869E+03  0.45729161871E+03  0.12499941395E+03 0.  0.
    9000005    1    3    3    0    0 -0.30681750738E+02  0.41522097666E+02  0.91126650857E+02  0.10474025453E+03  0.10000000000E+01 0.  0.
    9000005    1    3    3    0    0  0.30681750738E+02 -0.41522097666E+02  0.34874920783E+03  0.35255136418E+03  0.10000000000E+01 0.  0.
<mgrwt>
<rscale>  0 0.12499941E+03</rscale>
<asrwt>0</asrwt>
<pdfrwt beam="1">  1        4 0.69012873E-01 0.12499941E+03</pdfrwt>
<pdfrwt beam="2">  1       -4 0.13396740E-02 0.12499941E+03</pdfrwt>
<totfact> 0.59338056E+03</totfact>
</mgrwt>
</event>
<event>
 5    1  0.3270363E-002  0.1250008E+03  0.7818608E-02  0.1235068E+00
         -4   -1    0    0    0  501 -0.00000000000E+00  0.00000000000E+00  0.15296570239E+03  0.15297097439E+03  0.12700000000E+01 0. -1.
          4   -1    0    0  501    0  0.00000000000E+00 -0.00000000000E+00 -0.25515580941E+02  0.25547167568E+02  0.12700000000E+01 0. -1.
         25    2    1    2    0    0  0.00000000000E+00  0.00000000000E+00  0.12745012145E+03  0.17851814196E+03  0.12500077421E+03 0.  0.
    9000005    1    3    3    0    0  0.37931587950E+02  0.49141397046E+02  0.53464707004E+02  0.81933858466E+02  0.10000000000E+01 0.  0.
    9000005    1    3    3    0    0 -0.37931587950E+02 -0.49141397046E+02  0.73985414441E+02  0.96584283495E+02  0.10000000000E+01 0.  0.
<mgrwt>
<rscale>  0 0.12500077E+03</rscale>
<asrwt>0</asrwt>
<pdfrwt beam="2">  1        4 0.39283093E-02 0.12500077E+03</pdfrwt>
<pdfrwt beam="1">  1       -4 0.23536020E-01 0.12500077E+03</pdfrwt>
<totfact> 0.93882794E+03</totfact>
</mgrwt>
</event>
<event>
 5    1  0.3270363E-002  0.1249950E+03  0.7818608E-02  0.1235077E+00
         -4   -1    0    0    0  501 -0.00000000000E+00  0.00000000000E+00  0.51111001161E+01  0.52665210905E+01  0.12700000000E+01 0.  1.
          4   -1    0    0  501    0  0.00000000000E+00 -0.00000000000E+00 -0.75260573493E+03  0.75260680647E+03  0.12700000000E+01 0.  1.
         25    2    1    2    0    0  0.00000000000E+00  0.00000000000E+00 -0.74749463481E+03  0.75787332756E+03  0.12499500613E+03 0.  0.
    9000005    1    3    3    0    0 -0.15613775367E+02 -0.28581772113E+01 -0.72865113809E+01  0.17494353555E+02  0.10000000000E+01 0.  0.
    9000005    1    3    3    0    0  0.15613775367E+02  0.28581772113E+01 -0.74020812343E+03  0.74037897400E+03  0.10000000000E+01 0.  0.
<mgrwt>
<rscale>  0 0.12499501E+03</rscale>
<asrwt>0</asrwt>
<pdfrwt beam="2">  1        4 0.11579745E+00 0.12499501E+03</pdfrwt>
<pdfrwt beam="1">  1       -4 0.79836158E-03 0.12499501E+03</pdfrwt>
<totfact> 0.40204773E+03</totfact>
</mgrwt>
</event>
<event>
 5    1  0.3270363E-002  0.1249977E+03  0.7818608E-02  0.1235073E+00
         -4   -1    0    0    0  501 -0.00000000000E+00  0.00000000000E+00  0.33427663531E+03  0.33427904782E+03  0.12700000000E+01 0.  1.
          4   -1    0    0  501    0  0.00000000000E+00 -0.00000000000E+00 -0.11648282852E+02  0.11717311697E+02  0.12700000000E+01 0.  1.
         25    2    1    2    0    0  0.00000000000E+00  0.00000000000E+00  0.32262835246E+03  0.34599635952E+03  0.12499770794E+03 0.  0.
    9000005    1    3    3    0    0 -0.23161736487E+02 -0.54002411141E+02  0.10244047729E+03  0.11810071055E+03  0.10000000000E+01 0.  0.
    9000005    1    3    3    0    0  0.23161736487E+02  0.54002411141E+02  0.22018787517E+03  0.22789564897E+03  0.10000000000E+01 0.  0.
<mgrwt>
<rscale>  0 0.12499771E+03</rscale>
<asrwt>0</asrwt>
<pdfrwt beam="2">  1        4 0.17975391E-02 0.12499771E+03</pdfrwt>
<pdfrwt beam="1">  1       -4 0.51432669E-01 0.12499771E+03</pdfrwt>
<totfact> 0.70170822E+03</totfact>
</mgrwt>
</event>
<event>
 5    1  0.3270363E-002  0.1250022E+03  0.7818608E-02  0.1235066E+00
         -4   -1    0    0    0  501 -0.00000000000E+00  0.00000000000E+00  0.45251112579E+03  0.45251290795E+03  0.12700000000E+01 0. -1.
          4   -1    0    0  501    0  0.00000000000E+00 -0.00000000000E+00 -0.85841746679E+01  0.86776122712E+01  0.12700000000E+01 0. -1.
         25    2    1    2    0    0  0.00000000000E+00  0.00000000000E+00  0.44392695112E+03  0.46119052022E+03  0.12500223203E+03 0.  0.
    9000005    1    3    3    0    0 -0.37293370968E+02 -0.34672539070E+02  0.35562216768E+03  0.35925075731E+03  0.10000000000E+01 0.  0.
    9000005    1    3    3    0    0  0.37293370968E+02  0.34672539070E+02  0.88304783441E+02  0.10193976291E+03  0.10000000000E+01 0.  0.
<mgrwt>
<rscale>  0 0.12500223E+03</rscale>
<asrwt>0</asrwt>
<pdfrwt beam="2">  1        4 0.13279668E-02 0.12500223E+03</pdfrwt>
<pdfrwt beam="1">  1       -4 0.69624423E-01 0.12500223E+03</pdfrwt>
<totfact> 0.59003571E+03</totfact>
</mgrwt>
</event>
<event>
 5    1  0.3270363E-002  0.1250002E+03  0.7818608E-02  0.1235069E+00
         -4   -1    0    0    0  501 -0.00000000000E+00  0.00000000000E+00  0.13147945007E+02  0.13209139182E+02  0.12700000000E+01 0. -1.
          4   -1    0    0  501    0  0.00000000000E+00 -0.00000000000E+00 -0.29634819562E+03  0.29635091690E+03  0.12700000000E+01 0. -1.
         25    2    1    2    0    0  0.00000000000E+00  0.00000000000E+00 -0.28320025061E+03  0.30956005608E+03  0.12500018550E+03 0.  0.
    9000005    1    3    3    0    0 -0.26501948480E+02 -0.40782391816E+02 -0.23877477783E+03  0.24368001823E+03  0.10000000000E+01 0.  0.
    9000005    1    3    3    0    0  0.26501948480E+02  0.40782391816E+02 -0.44425472778E+02  0.65880037849E+02  0.10000000000E+01 0.  0.
<mgrwt>
<rscale>  0 0.12500019E+03</rscale>
<asrwt>0</asrwt>
<pdfrwt beam="2">  1        4 0.45596942E-01 0.12500019E+03</pdfrwt>
<pdfrwt beam="1">  1       -4 0.20276776E-02 0.12500019E+03</pdfrwt>
<totfact> 0.74414776E+03</totfact>
</mgrwt>
</event>
<event>
 5    1  0.3270363E-002  0.1249993E+03  0.7818608E-02  0.1235070E+00
         -4   -1    0    0    0  501 -0.00000000000E+00  0.00000000000E+00  0.21695057978E+02  0.21732198247E+02  0.12700000000E+01 0.  1.
          4   -1    0    0  501    0  0.00000000000E+00 -0.00000000000E+00 -0.17985713975E+03  0.17986162353E+03  0.12700000000E+01 0.  1.
         25    2    1    2    0    0  0.00000000000E+00  0.00000000000E+00 -0.15816208178E+03  0.20159382178E+03  0.12499929947E+03 0.  0.
    9000005    1    3    3    0    0  0.44577930628E+02 -0.42110858321E+02 -0.59681618829E+02  0.85576935641E+02  0.10000000000E+01 0.  0.
    9000005    1    3    3    0    0 -0.44577930628E+02  0.42110858321E+02 -0.98480462946E+02  0.11601688614E+03  0.10000000000E+01 0.  0.
<mgrwt>
<rscale>  0 0.12499930E+03</rscale>
<asrwt>0</asrwt>
<pdfrwt beam="2">  1        4 0.27673530E-01 0.12499930E+03</pdfrwt>
<pdfrwt beam="1">  1       -4 0.33409032E-02 0.12499930E+03</pdfrwt>
<totfact> 0.89868799E+03</totfact>
</mgrwt>
</event>
<event>
 5    1  0.3270363E-002  0.1250006E+03  0.7818608E-02  0.1235068E+00
         -4   -1    0    0    0  501 -0.00000000000E+00  0.00000000000E+00  0.84416782484E+02  0.84426335139E+02  0.12700000000E+01 0.  1.
          4   -1    0    0  501    0  0.00000000000E+00 -0.00000000000E+00 -0.46252934529E+02  0.46270366894E+02  0.12700000000E+01 0.  1.
         25    2    1    2    0    0  0.00000000000E+00  0.00000000000E+00  0.38163847955E+02  0.13069670203E+03  0.12500059452E+03 0.  0.
    9000005    1    3    3    0    0  0.30832585228E+01  0.49012217768E+02  0.59489914900E+02  0.77147611424E+02  0.10000000000E+01 0.  0.
    9000005    1    3    3    0    0 -0.30832585228E+01 -0.49012217768E+02 -0.21326066945E+02  0.53549090609E+02  0.10000000000E+01 0.  0.
<mgrwt>
<rscale>  0 0.12500059E+03</rscale>
<asrwt>0</asrwt>
<pdfrwt beam="2">  1        4 0.71179120E-02 0.12500059E+03</pdfrwt>
<pdfrwt beam="1">  1       -4 0.12989273E-01 0.12500059E+03</pdfrwt>
<totfact> 0.10329457E+04</totfact>
</mgrwt>
</event>
<event>
 5    1  0.3270363E-002  0.1250002E+03  0.7818608E-02  0.1235069E+00
         -4   -1    0    0    0  501 -0.00000000000E+00  0.00000000000E+00  0.28089647359E+01  0.30827232907E+01  0.12700000000E+01 0. -1.
          4   -1    0    0  501    0  0.00000000000E+00 -0.00000000000E+00 -0.13257508697E+04  0.13257514780E+04  0.12700000000E+01 0. -1.
         25    2    1    2    0    0  0.00000000000E+00  0.00000000000E+00 -0.13229419050E+04  0.13288342013E+04  0.12500020240E+03 0.  0.
    9000005    1    3    3    0    0 -0.23795260683E+02  0.42275298918E+02 -0.24269226010E+03  0.24749535034E+03  0.10000000000E+01 0.  0.
    9000005    1    3    3    0    0  0.23795260683E+02 -0.42275298918E+02 -0.10802496449E+04  0.10813388510E+04  0.10000000000E+01 0.  0.
<mgrwt>
<rscale>  0 0.12500020E+03</rscale>
<asrwt>0</asrwt>
<pdfrwt beam="2">  1        4 0.20398230E+00 0.12500020E+03</pdfrwt>
<pdfrwt beam="1">  1       -4 0.45325462E-03 0.12500020E+03</pdfrwt>
<totfact> 0.21558022E+03</totfact>
</mgrwt>
</event>
<event>
 5    1  0.3270363E-002  0.1250004E+03  0.7818608E-02  0.1235069E+00
         -4   -1    0    0    0  501 -0.00000000000E+00  0.00000000000E+00  0.95947093124E+02  0.95955497909E+02  0.12700000000E+01 0. -1.
          4   -1    0    0  501    0  0.00000000000E+00 -0.00000000000E+00 -0.40692736158E+02  0.40712549367E+02  0.12700000000E+01 0. -1.
         25    2    1    2    0    0  0.00000000000E+00  0.00000000000E+00  0.55254356966E+02  0.13666804728E+03  0.12500044473E+03 0.  0.
    9000005    1    3    3    0    0 -0.42380260376E+02 -0.10871888302E+02  0.76412631043E+02  0.88057791294E+02  0.10000000000E+01 0.  0.
    9000005    1    3    3    0    0  0.42380260376E+02  0.10871888302E+02 -0.21158274076E+02  0.48610255982E+02  0.10000000000E+01 0.  0.
<mgrwt>
<rscale>  0 0.12500044E+03</rscale>
<asrwt>0</asrwt>
<pdfrwt beam="2">  1        4 0.62625916E-02 0.12500044E+03</pdfrwt>
<pdfrwt beam="1">  1       -4 0.14763262E-01 0.12500044E+03</pdfrwt>
<totfact> 0.10202929E+04</totfact>
</mgrwt>
</event>
<event>
 5    1  0.3270363E-002  0.1249971E+03  0.7818608E-02  0.1235074E+00
          4   -1    0    0  501    0  0.00000000000E+00  0.00000000000E+00  0.10277554570E+02  0.10355724404E+02  0.12700000000E+01 0.  1.
         -4   -1    0    0    0  501 -0.00000000000E+00 -0.00000000000E+00 -0.37853889281E+03  0.37854102323E+03  0.12700000000E+01 0.  1.
         25    2    1    2    0    0  0.00000000000E+00  0.00000000000E+00 -0.36826133824E+03  0.38889674763E+03  0.12499706828E+03 0.  0.
    9000005    1    3    3    0    0 -0.28885217988E+01 -0.32699127697E+01 -0.37807969732E+03  0.37810619330E+03  0.10000000000E+01 0.  0.
    9000005    1    3    3    0    0  0.28885217988E+01  0.32699127697E+01  0.98183590829E+01  0.10790554332E+02  0.10000000000E+01 0.  0.
<mgrwt>
<rscale>  0 0.12499707E+03</rscale>
<asrwt>0</asrwt>
<pdfrwt beam="1">  1        4 0.15873395E-02 0.12499707E+03</pdfrwt>
<pdfrwt beam="2">  1       -4 0.58242919E-01 0.12499707E+03</pdfrwt>
<totfact> 0.65651452E+03</totfact>
</mgrwt>
</event>
<event>
 5    1  0.3270363E-002  0.1250039E+03  0.7818608E-02  0.1235063E+00
         -4   -1    0    0    0  501 -0.00000000000E+00  0.00000000000E+00  0.25049753649E+03  0.25050075586E+03  0.12700000000E+01 0. -1.
          4   -1    0    0  501    0  0.00000000000E+00 -0.00000000000E+00 -0.15565757768E+02  0.15617481068E+02  0.12700000000E+01 0. -1.
         25    2    1    2    0    0  0.00000000000E+00  0.00000000000E+00  0.23493177872E+03  0.26611823693E+03  0.12500390143E+03 0.  0.
    9000005    1    3    3    0    0 -0.55517003829E+02  0.17350879640E+02  0.16611919733E+03  0.17601073393E+03  0.10000000000E+01 0.  0.
    9000005    1    3    3    0    0  0.55517003829E+02 -0.17350879640E+02  0.68812581397E+02  0.90107503001E+02  0.10000000000E+01 0.  0.
<mgrwt>
<rscale>  0 0.12500390E+03</rscale>
<asrwt>0</asrwt>
<pdfrwt beam="2">  1        4 0.23989584E-02 0.12500390E+03</pdfrwt>
<pdfrwt beam="1">  1       -4 0.38542308E-01 0.12500390E+03</pdfrwt>
<totfact> 0.80048098E+03</totfact>
</mgrwt>
</event>
<event>
 5    1  0.3270363E-002  0.1249983E+03  0.7818608E-02  0.1235072E+00
         -4   -1    0    0    0  501 -0.00000000000E+00  0.00000000000E+00  0.73513141225E+01  0.74602090673E+01  0.12700000000E+01 0. -1.
          4   -1    0    0  501    0  0.00000000000E+00 -0.00000000000E+00 -0.52733655431E+03  0.52733808360E+03  0.12700000000E+01 0. -1.
         25    2    1    2    0    0  0.00000000000E+00  0.00000000000E+00 -0.51998524019E+03  0.53479829266E+03  0.12499825528E+03 0.  0.
    9000005    1    3    3    0    0  0.16526867084E+02  0.15363082162E+02 -0.50931920006E+03  0.50981978107E+03  0.10000000000E+01 0.  0.
    9000005    1    3    3    0    0 -0.16526867084E+02 -0.15363082162E+02 -0.10666040131E+02  0.24978511589E+02  0.10000000000E+01 0.  0.
<mgrwt>
<rscale>  0 0.12499826E+03</rscale>
<asrwt>0</asrwt>
<pdfrwt beam="2">  1        4 0.81137166E-01 0.12499826E+03</pdfrwt>
<pdfrwt beam="1">  1       -4 0.11394660E-02 0.12499826E+03</pdfrwt>
<totfact> 0.53264094E+03</totfact>
</mgrwt>
</event>
<event>
 5    1  0.3270363E-002  0.1249984E+03  0.7818608E-02  0.1235072E+00
         -4   -1    0    0    0  501 -0.00000000000E+00  0.00000000000E+00  0.95835652659E+02  0.95844067217E+02  0.12700000000E+01 0.  1.
          4   -1    0    0  501    0  0.00000000000E+00 -0.00000000000E+00 -0.40738760095E+02  0.40758550932E+02  0.12700000000E+01 0.  1.
         25    2    1    2    0    0  0.00000000000E+00  0.00000000000E+00  0.55096892564E+02  0.13660261815E+03  0.12499843085E+03 0.  0.
    9000005    1    3    3    0    0 -0.92290839012E+01 -0.43093172152E+02  0.75966750332E+02  0.87830203414E+02  0.10000000000E+01 0.  0.
    9000005    1    3    3    0    0  0.92290839012E+01  0.43093172152E+02 -0.20869857768E+02  0.48772414735E+02  0.10000000000E+01 0.  0.
<mgrwt>
<rscale>  0 0.12499843E+03</rscale>
<asrwt>0</asrwt>
<pdfrwt beam="2">  1        4 0.62696712E-02 0.12499843E+03</pdfrwt>
<pdfrwt beam="1">  1       -4 0.14746116E-01 0.12499843E+03</pdfrwt>
<totfact> 0.10204762E+04</totfact>
</mgrwt>
</event>
<event>
 5    1  0.3270363E-002  0.1249996E+03  0.7818608E-02  0.1235070E+00
          4   -1    0    0  501    0  0.00000000000E+00  0.00000000000E+00  0.84060427815E+02  0.84070020961E+02  0.12700000000E+01 0.  1.
         -4   -1    0    0    0  501 -0.00000000000E+00 -0.00000000000E+00 -0.46448314363E+02  0.46465673428E+02  0.12700000000E+01 0.  1.
         25    2    1    2    0    0  0.00000000000E+00  0.00000000000E+00  0.37612113452E+02  0.13053569439E+03  0.12499958572E+03 0.  0.
    9000005    1    3    3    0    0 -0.43928978804E+02  0.40685443867E+02  0.37491640827E+02  0.70651848195E+02  0.10000000000E+01 0.  0.
    9000005    1    3    3    0    0  0.43928978804E+02 -0.40685443867E+02  0.12047262449E+00  0.59883846195E+02  0.10000000000E+01 0.  0.
<mgrwt>
<rscale>  0 0.12499959E+03</rscale>
<asrwt>0</asrwt>
<pdfrwt beam="1">  1        4 0.12934447E-01 0.12499959E+03</pdfrwt>
<pdfrwt beam="2">  1       -4 0.71479678E-02 0.12499959E+03</pdfrwt>
<totfact> 0.10333150E+04</totfact>
</mgrwt>
</event>
<event>
 5    1  0.3270363E-002  0.1250017E+03  0.7818608E-02  0.1235067E+00
         -4   -1    0    0    0  501 -0.00000000000E+00  0.00000000000E+00  0.17958066076E+03  0.17958515145E+03  0.12700000000E+01 0. -1.
          4   -1    0    0  501    0  0.00000000000E+00 -0.00000000000E+00 -0.21729358289E+02  0.21766440032E+02  0.12700000000E+01 0. -1.
         25    2    1    2    0    0  0.00000000000E+00  0.00000000000E+00  0.15785130247E+03  0.20135159148E+03  0.12500171878E+03 0.  0.
    9000005    1    3    3    0    0 -0.32121371414E+02 -0.30515610470E+02  0.14991698501E+03  0.15633005910E+03  0.10000000000E+01 0.  0.
    9000005    1    3    3    0    0  0.32121371414E+02  0.30515610470E+02  0.79343174620E+01  0.45021532376E+02  0.10000000000E+01 0.  0.
<mgrwt>
<rscale>  0 0.12500172E+03</rscale>
<asrwt>0</asrwt>
<pdfrwt beam="2">  1        4 0.33461760E-02 0.12500172E+03</pdfrwt>
<pdfrwt beam="1">  1       -4 0.27630993E-01 0.12500172E+03</pdfrwt>
<totfact> 0.89904590E+03</totfact>
</mgrwt>
</event>
<event>
 5    1  0.3270363E-002  0.1249945E+03  0.7818608E-02  0.1235078E+00
          4   -1    0    0  501    0  0.00000000000E+00  0.00000000000E+00  0.10594110744E+02  0.10669961690E+02  0.12700000000E+01 0.  1.
         -4   -1    0    0    0  501 -0.00000000000E+00 -0.00000000000E+00 -0.36729472476E+03  0.36729692040E+03  0.12700000000E+01 0.  1.
         25    2    1    2    0    0  0.00000000000E+00  0.00000000000E+00 -0.35670061402E+03  0.37796688209E+03  0.12499454356E+03 0.  0.
    9000005    1    3    3    0    0 -0.14959531860E+02 -0.60372465336E+02 -0.16013497376E+03  0.17179299166E+03  0.10000000000E+01 0.  0.
    9000005    1    3    3    0    0  0.14959531860E+02  0.60372465336E+02 -0.19656564026E+03  0.20617389043E+03  0.10000000000E+01 0.  0.
<mgrwt>
<rscale>  0 0.12499454E+03</rscale>
<asrwt>0</asrwt>
<pdfrwt beam="1">  1        4 0.16358671E-02 0.12499454E+03</pdfrwt>
<pdfrwt beam="2">  1       -4 0.56512875E-01 0.12499454E+03</pdfrwt>
<totfact> 0.66761662E+03</totfact>
</mgrwt>
</event>
<event>
 5    1  0.3270363E-002  0.1250016E+03  0.7818608E-02  0.1235067E+00
          4   -1    0    0  501    0  0.00000000000E+00  0.00000000000E+00  0.17046190102E+02  0.17093434324E+02  0.12700000000E+01 0.  1.
         -4   -1    0    0    0  501 -0.00000000000E+00 -0.00000000000E+00 -0.22879647671E+03  0.22880000143E+03  0.12700000000E+01 0.  1.
         25    2    1    2    0    0  0.00000000000E+00  0.00000000000E+00 -0.21175028661E+03  0.24589343576E+03  0.12500159147E+03 0.  0.
    9000005    1    3    3    0    0 -0.61085047568E+02 -0.12657287781E+02 -0.11317194713E+03  0.12923033540E+03  0.10000000000E+01 0.  0.
    9000005    1    3    3    0    0  0.61085047568E+02  0.12657287781E+02 -0.98578339479E+02  0.11666310036E+03  0.10000000000E+01 0.  0.
<mgrwt>
<rscale>  0 0.12500159E+03</rscale>
<asrwt>0</asrwt>
<pdfrwt beam="1">  1        4 0.26263963E-02 0.12500159E+03</pdfrwt>
<pdfrwt beam="2">  1       -4 0.35203361E-01 0.12500159E+03</pdfrwt>
<totfact> 0.82924460E+03</totfact>
</mgrwt>
</event>
<event>
 5    1  0.3270363E-002  0.1250008E+03  0.7818608E-02  0.1235068E+00
          4   -1    0    0  501    0  0.00000000000E+00  0.00000000000E+00  0.17828086643E+04  0.17828091166E+04  0.12700000000E+01 0.  1.
         -4   -1    0    0    0  501 -0.00000000000E+00 -0.00000000000E+00 -0.20065728958E+01  0.23747073054E+01  0.12700000000E+01 0.  1.
         25    2    1    2    0    0  0.00000000000E+00  0.00000000000E+00  0.17808020914E+04  0.17851838239E+04  0.12500078622E+03 0.  0.
    9000005    1    3    3    0    0 -0.54951617094E+02 -0.10835103382E+02  0.49456727063E+03  0.49772971066E+03  0.10000000000E+01 0.  0.
    9000005    1    3    3    0    0  0.54951617094E+02  0.10835103382E+02  0.12862348208E+04  0.12874541133E+04  0.10000000000E+01 0.  0.
<mgrwt>
<rscale>  0 0.12500079E+03</rscale>
<asrwt>0</asrwt>
<pdfrwt beam="1">  1        4 0.27430743E+00 0.12500079E+03</pdfrwt>
<pdfrwt beam="2">  1       -4 0.33705534E-03 0.12500079E+03</pdfrwt>
<totfact> 0.12932834E+03</totfact>
</mgrwt>
</event>
<event>
 5    1  0.3270363E-002  0.1249997E+03  0.7818608E-02  0.1235070E+00
         -4   -1    0    0    0  501 -0.00000000000E+00  0.00000000000E+00  0.90963782397E+02  0.90972647581E+02  0.12700000000E+01 0. -1.
          4   -1    0    0  501    0  0.00000000000E+00 -0.00000000000E+00 -0.42922337953E+02  0.42941122428E+02  0.12700000000E+01 0. -1.
         25    2    1    2    0    0  0.00000000000E+00  0.00000000000E+00  0.48041444444E+02  0.13391377001E+03  0.12499966965E+03 0.  0.
    9000005    1    3    3    0    0 -0.60979649214E+02  0.58734127739E+01  0.10803361229E+02  0.62215168646E+02  0.10000000000E+01 0.  0.
    9000005    1    3    3    0    0  0.60979649214E+02 -0.58734127739E+01  0.37238083215E+02  0.71698601363E+02  0.10000000000E+01 0.  0.
<mgrwt>
<rscale>  0 0.12499967E+03</rscale>
<asrwt>0</asrwt>
<pdfrwt beam="2">  1        4 0.66055635E-02 0.12499967E+03</pdfrwt>
<pdfrwt beam="1">  1       -4 0.13996555E-01 0.12499967E+03</pdfrwt>
<totfact> 0.10261093E+04</totfact>
</mgrwt>
</event>
<event>
 5    1  0.3270363E-002  0.1250039E+03  0.7818608E-02  0.1235063E+00
          4   -1    0    0  501    0  0.00000000000E+00  0.00000000000E+00  0.30820347796E+02  0.30846502853E+02  0.12700000000E+01 0.  1.
         -4   -1    0    0    0  501 -0.00000000000E+00 -0.00000000000E+00 -0.12666734811E+03  0.12667371463E+03  0.12700000000E+01 0.  1.
         25    2    1    2    0    0  0.00000000000E+00  0.00000000000E+00 -0.95847000319E+02  0.15752021748E+03  0.12500388572E+03 0.  0.
    9000005    1    3    3    0    0 -0.61047003065E+02 -0.13364117600E+02 -0.48422227139E+02  0.79063571280E+02  0.10000000000E+01 0.  0.
    9000005    1    3    3    0    0  0.61047003065E+02  0.13364117600E+02 -0.47424773180E+02  0.78456646204E+02  0.10000000000E+01 0.  0.
<mgrwt>
<rscale>  0 0.12500389E+03</rscale>
<asrwt>0</asrwt>
<pdfrwt beam="1">  1        4 0.47440937E-02 0.12500389E+03</pdfrwt>
<pdfrwt beam="2">  1       -4 0.19489786E-01 0.12500389E+03</pdfrwt>
<totfact> 0.97814463E+03</totfact>
</mgrwt>
</event>
<event>
 5    1  0.3270363E-002  0.1249875E+03  0.7818608E-02  0.1235089E+00
         -4   -1    0    0    0  501 -0.00000000000E+00  0.00000000000E+00  0.63229829620E+01  0.64492645734E+01  0.12700000000E+01 0. -1.
          4   -1    0    0  501    0  0.00000000000E+00 -0.00000000000E+00 -0.61142862419E+03  0.61142994315E+03  0.12700000000E+01 0. -1.
         25    2    1    2    0    0  0.00000000000E+00  0.00000000000E+00 -0.60510564122E+03  0.61787920772E+03  0.12498751253E+03 0.  0.
    9000005    1    3    3    0    0  0.23712208109E+02 -0.24284782193E+02 -0.43196590882E+02  0.54945108275E+02  0.10000000000E+01 0.  0.
    9000005    1    3    3    0    0 -0.23712208109E+02  0.24284782193E+02 -0.56190905034E+03  0.56293409944E+03  0.10000000000E+01 0.  0.
<mgrwt>
<rscale>  0 0.12498751E+03</rscale>
<asrwt>0</asrwt>
<pdfrwt beam="2">  1        4 0.94075711E-01 0.12498751E+03</pdfrwt>
<pdfrwt beam="1">  1       -4 0.98258252E-03 0.12498751E+03</pdfrwt>
<totfact> 0.47771219E+03</totfact>
</mgrwt>
</event>
<event>
 5    1  0.3270363E-002  0.1250020E+03  0.7818608E-02  0.1235066E+00
          4   -1    0    0  501    0  0.00000000000E+00  0.00000000000E+00  0.91202875770E+01  0.92082867835E+01  0.12700000000E+01 0.  1.
         -4   -1    0    0    0  501 -0.00000000000E+00 -0.00000000000E+00 -0.42617193119E+03  0.42617382350E+03  0.12700000000E+01 0.  1.
         25    2    1    2    0    0  0.00000000000E+00  0.00000000000E+00 -0.41705164361E+03  0.43538211028E+03  0.12500203403E+03 0.  0.
    9000005    1    3    3    0    0 -0.91151648585E+00 -0.26120729851E+02 -0.40623797608E+03  0.40707912818E+03  0.10000000000E+01 0.  0.
    9000005    1    3    3    0    0  0.91151648585E+00  0.26120729851E+02 -0.10813667533E+02  0.28302982100E+02  0.10000000000E+01 0.  0.
<mgrwt>
<rscale>  0 0.12500203E+03</rscale>
<asrwt>0</asrwt>
<pdfrwt beam="1">  1        4 0.14100362E-02 0.12500203E+03</pdfrwt>
<pdfrwt beam="2">  1       -4 0.65571812E-01 0.12500203E+03</pdfrwt>
<totfact> 0.61248409E+03</totfact>
</mgrwt>
</event>
<event>
 5    1  0.3270363E-002  0.1249999E+03  0.7818608E-02  0.1235069E+00
          4   -1    0    0  501    0  0.00000000000E+00  0.00000000000E+00  0.27236005485E+03  0.27236301581E+03  0.12700000000E+01 0.  1.
         -4   -1    0    0    0  501 -0.00000000000E+00 -0.00000000000E+00 -0.14311048812E+02  0.14367289866E+02  0.12700000000E+01 0.  1.
         25    2    1    2    0    0  0.00000000000E+00  0.00000000000E+00  0.25804900604E+03  0.28673030567E+03  0.12499991469E+03 0.  0.
    9000005    1    3    3    0    0 -0.38173250858E+02  0.21730002222E+02  0.27061792678E+02  0.51601654049E+02  0.10000000000E+01 0.  0.
    9000005    1    3    3    0    0  0.38173250858E+02 -0.21730002222E+02  0.23098721336E+03  0.23512865163E+03  0.10000000000E+01 0.  0.
<mgrwt>
<rscale>  0 0.12499991E+03</rscale>
<asrwt>0</asrwt>
<pdfrwt beam="1">  1        4 0.41906101E-01 0.12499991E+03</pdfrwt>
<pdfrwt beam="2">  1       -4 0.22062538E-02 0.12499991E+03</pdfrwt>
<totfact> 0.77294241E+03</totfact>
</mgrwt>
</event>
<event>
 5    1  0.3270363E-002  0.1250008E+03  0.7818608E-02  0.1235068E+00
          4   -1    0    0  501    0  0.00000000000E+00  0.00000000000E+00  0.86472228120E+01  0.87399864051E+01  0.12700000000E+01 0. -1.
         -4   -1    0    0    0  501 -0.00000000000E+00 -0.00000000000E+00 -0.44923658350E+03  0.44923837865E+03  0.12700000000E+01 0. -1.
         25    2    1    2    0    0  0.00000000000E+00  0.00000000000E+00 -0.44058936069E+03  0.45797836506E+03  0.12500079244E+03 0.  0.
    9000005    1    3    3    0    0 -0.18345934406E+02 -0.57334794321E+02 -0.15882924608E+03  0.16985753254E+03  0.10000000000E+01 0.  0.
    9000005    1    3    3    0    0  0.18345934406E+02  0.57334794321E+02 -0.28176011461E+03  0.28812083252E+03  0.10000000000E+01 0.  0.
<mgrwt>
<rscale>  0 0.12500079E+03</rscale>
<asrwt>0</asrwt>
<pdfrwt beam="1">  1        4 0.13376161E-02 0.12500079E+03</pdfrwt>
<pdfrwt beam="2">  1       -4 0.69120577E-01 0.12500079E+03</pdfrwt>
<totfact> 0.59277781E+03</totfact>
</mgrwt>
</event>
<event>
 5    1  0.3270363E-002  0.1249924E+03  0.7818608E-02  0.1235081E+00
          4   -1    0    0  501    0  0.00000000000E+00  0.00000000000E+00  0.35454118256E+02  0.35476857264E+02  0.12700000000E+01 0. -1.
         -4   -1    0    0    0  501 -0.00000000000E+00 -0.00000000000E+00 -0.11010252875E+03  0.11010985305E+03  0.12700000000E+01 0. -1.
         25    2    1    2    0    0  0.00000000000E+00  0.00000000000E+00 -0.74648410497E+02  0.14558671031E+03  0.12499241989E+03 0.  0.
    9000005    1    3    3    0    0  0.60897686255E+02  0.71093407159E+01 -0.23264513733E+02  0.65584361824E+02  0.10000000000E+01 0.  0.
    9000005    1    3    3    0    0 -0.60897686255E+02 -0.71093407159E+01 -0.51383896763E+02  0.80002348486E+02  0.10000000000E+01 0.  0.
<mgrwt>
<rscale>  0 0.12499242E+03</rscale>
<asrwt>0</asrwt>
<pdfrwt beam="1">  1        4 0.54567924E-02 0.12499242E+03</pdfrwt>
<pdfrwt beam="2">  1       -4 0.16941163E-01 0.12499242E+03</pdfrwt>
<totfact> 0.10020792E+04</totfact>
</mgrwt>
</event>
<event>
 5    1  0.3270363E-002  0.1249979E+03  0.7818608E-02  0.1235072E+00
          4   -1    0    0  501    0  0.00000000000E+00  0.00000000000E+00  0.13653769932E+02  0.13712707004E+02  0.12700000000E+01 0.  1.
         -4   -1    0    0    0  501 -0.00000000000E+00 -0.00000000000E+00 -0.28540727893E+03  0.28541010452E+03  0.12700000000E+01 0.  1.
         25    2    1    2    0    0  0.00000000000E+00  0.00000000000E+00 -0.27175350899E+03  0.29912281153E+03  0.12499794688E+03 0.  0.
    9000005    1    3    3    0    0  0.91102777058E+01 -0.16437739535E+02  0.67426315918E+01  0.19991486230E+02  0.10000000000E+01 0.  0.
    9000005    1    3    3    0    0 -0.91102777058E+01  0.16437739535E+02 -0.27849614059E+03  0.27913132530E+03  0.10000000000E+01 0.  0.
<mgrwt>
<rscale>  0 0.12499795E+03</rscale>
<asrwt>0</asrwt>
<pdfrwt beam="1">  1        4 0.21053312E-02 0.12499795E+03</pdfrwt>
<pdfrwt beam="2">  1       -4 0.43913559E-01 0.12499795E+03</pdfrwt>
<totfact> 0.75712456E+03</totfact>
</mgrwt>
</event>
<event>
 5    1  0.3270363E-002  0.1249992E+03  0.7818608E-02  0.1235071E+00
         -4   -1    0    0    0  501 -0.00000000000E+00  0.00000000000E+00  0.54482267839E+02  0.54497067893E+02  0.12700000000E+01 0. -1.
          4   -1    0    0  501    0  0.00000000000E+00 -0.00000000000E+00 -0.71666525964E+02  0.71677777893E+02  0.12700000000E+01 0. -1.
         25    2    1    2    0    0  0.00000000000E+00  0.00000000000E+00 -0.17184258124E+02  0.12617484579E+03  0.12499917192E+03 0.  0.
    9000005    1    3    3    0    0  0.39376960910E+02 -0.23657991635E+02 -0.51357490030E+02  0.68911808864E+02  0.10000000000E+01 0.  0.
    9000005    1    3    3    0    0 -0.39376960910E+02  0.23657991635E+02  0.34173231905E+02  0.57263036923E+02  0.10000000000E+01 0.  0.
<mgrwt>
<rscale>  0 0.12499917E+03</rscale>
<asrwt>0</asrwt>
<pdfrwt beam="2">  1        4 0.11027623E-01 0.12499917E+03</pdfrwt>
<pdfrwt beam="1">  1       -4 0.83838913E-02 0.12499917E+03</pdfrwt>
<totfact> 0.10427324E+04</totfact>
</mgrwt>
</event>
<event>
 5    1  0.3270363E-002  0.1249979E+03  0.7818608E-02  0.1235073E+00
         -4   -1    0    0    0  501 -0.00000000000E+00  0.00000000000E+00  0.62257701743E+02  0.62270653814E+02  0.12700000000E+01 0.  1.
          4   -1    0    0  501    0  0.00000000000E+00 -0.00000000000E+00 -0.62715223871E+02  0.62728081473E+02  0.12700000000E+01 0.  1.
         25    2    1    2    0    0  0.00000000000E+00  0.00000000000E+00 -0.45752212806E+00  0.12499873529E+03  0.12499789797E+03 0.  0.
    9000005    1    3    3    0    0 -0.48060429928E+02  0.39939928249E+02 -0.56910257139E+00  0.62500613366E+02  0.10000000000E+01 0.  0.
    9000005    1    3    3    0    0  0.48060429928E+02 -0.39939928249E+02  0.11158044332E+00  0.62498121920E+02  0.10000000000E+01 0.  0.
<mgrwt>
<rscale>  0 0.12499790E+03</rscale>
<asrwt>0</asrwt>
<pdfrwt beam="2">  1        4 0.96504813E-02 0.12499790E+03</pdfrwt>
<pdfrwt beam="1">  1       -4 0.95800933E-02 0.12499790E+03</pdfrwt>
<totfact> 0.10453387E+04</totfact>
</mgrwt>
</event>
<event>
 5    1  0.3270363E-002  0.1250000E+03  0.7818608E-02  0.1235069E+00
         -4   -1    0    0    0  501 -0.00000000000E+00  0.00000000000E+00  0.72913123234E+02  0.72924182819E+02  0.12700000000E+01 0. -1.
          4   -1    0    0  501    0  0.00000000000E+00 -0.00000000000E+00 -0.53551415731E+02  0.53566472973E+02  0.12700000000E+01 0. -1.
         25    2    1    2    0    0  0.00000000000E+00  0.00000000000E+00  0.19361707504E+02  0.12649065579E+03  0.12500004114E+03 0.  0.
    9000005    1    3    3    0    0 -0.27067732268E+02 -0.53921992591E+02  0.26154082452E+02  0.65766856729E+02  0.10000000000E+01 0.  0.
    9000005    1    3    3    0    0  0.27067732268E+02  0.53921992591E+02 -0.67923749487E+01  0.60723799062E+02  0.10000000000E+01 0.  0.
<mgrwt>
<rscale>  0 0.12500004E+03</rscale>
<asrwt>0</asrwt>
<pdfrwt beam="2">  1        4 0.82406884E-02 0.12500004E+03</pdfrwt>
<pdfrwt beam="1">  1       -4 0.11219412E-01 0.12500004E+03</pdfrwt>
<totfact> 0.10420222E+04</totfact>
</mgrwt>
</event>
<event>
 5    1  0.3270363E-002  0.1250029E+03  0.7818608E-02  0.1235065E+00
         -4   -1    0    0    0  501 -0.00000000000E+00  0.00000000000E+00  0.18445977256E+03  0.18446414446E+03  0.12700000000E+01 0. -1.
          4   -1    0    0  501    0  0.00000000000E+00 -0.00000000000E+00 -0.21154005507E+02  0.21192094020E+02  0.12700000000E+01 0. -1.
         25    2    1    2    0    0  0.00000000000E+00  0.00000000000E+00  0.16330576705E+03  0.20565623848E+03  0.12500285947E+03 0.  0.
    9000005    1    3    3    0    0 -0.61025210990E+02  0.13427442561E+02  0.79962129859E+02  0.10148553987E+03  0.10000000000E+01 0.  0.
    9000005    1    3    3    0    0  0.61025210990E+02 -0.13427442561E+02  0.83343637194E+02  0.10417069862E+03  0.10000000000E+01 0.  0.
<mgrwt>
<rscale>  0 0.12500286E+03</rscale>
<asrwt>0</asrwt>
<pdfrwt beam="2">  1        4 0.32577285E-02 0.12500286E+03</pdfrwt>
<pdfrwt beam="1">  1       -4 0.28381693E-01 0.12500286E+03</pdfrwt>
<totfact> 0.89184519E+03</totfact>
</mgrwt>
</event>
<event>
 5    1  0.3270363E-002  0.1249999E+03  0.7818608E-02  0.1235069E+00
          4   -1    0    0  501    0  0.00000000000E+00  0.00000000000E+00  0.15078579585E+04  0.15078584933E+04  0.12700000000E+01 0.  1.
         -4   -1    0    0    0  501 -0.00000000000E+00 -0.00000000000E+00 -0.24343739706E+01  0.27457379024E+01  0.12700000000E+01 0.  1.
         25    2    1    2    0    0  0.00000000000E+00  0.00000000000E+00  0.15054235845E+04  0.15106042312E+04  0.12499989826E+03 0.  0.
    9000005    1    3    3    0    0  0.61040804072E+02  0.71044734629E+00  0.91428716645E+03  0.91632336390E+03  0.10000000000E+01 0.  0.
    9000005    1    3    3    0    0 -0.61040804072E+02 -0.71044734629E+00  0.59113641807E+03  0.59428086733E+03  0.10000000000E+01 0.  0.
<mgrwt>
<rscale>  0 0.12499990E+03</rscale>
<asrwt>0</asrwt>
<pdfrwt beam="1">  1        4 0.23200195E+00 0.12499990E+03</pdfrwt>
<pdfrwt beam="2">  1       -4 0.39851161E-03 0.12499990E+03</pdfrwt>
<totfact> 0.17722960E+03</totfact>
</mgrwt>
</event>
<event>
 5    1  0.3270363E-002  0.1249964E+03  0.7818608E-02  0.1235075E+00
         -4   -1    0    0    0  501 -0.00000000000E+00  0.00000000000E+00  0.24770471263E+02  0.24803006806E+02  0.12700000000E+01 0. -1.
          4   -1    0    0  501    0  0.00000000000E+00 -0.00000000000E+00 -0.15755013958E+03  0.15755525819E+03  0.12700000000E+01 0. -1.
         25    2    1    2    0    0  0.00000000000E+00  0.00000000000E+00 -0.13277966832E+03  0.18235826499E+03  0.12499638592E+03 0.  0.
    9000005    1    3    3    0    0 -0.37591610400E+02 -0.13470241309E+02 -0.13651534731E+03  0.14223929353E+03  0.10000000000E+01 0.  0.
    9000005    1    3    3    0    0  0.37591610400E+02  0.13470241309E+02  0.37356789933E+01  0.40118971459E+02  0.10000000000E+01 0.  0.
<mgrwt>
<rscale>  0 0.12499639E+03</rscale>
<asrwt>0</asrwt>
<pdfrwt beam="2">  1        4 0.24241379E-01 0.12499639E+03</pdfrwt>
<pdfrwt beam="1">  1       -4 0.38137383E-02 0.12499639E+03</pdfrwt>
<totfact> 0.93201773E+03</totfact>
</mgrwt>
</event>
<event>
 5    1  0.3270363E-002  0.1249982E+03  0.7818608E-02  0.1235072E+00
          4   -1    0    0  501    0  0.00000000000E+00  0.00000000000E+00  0.12037761012E+02  0.12104568980E+02  0.12700000000E+01 0. -1.
         -4   -1    0    0    0  501 -0.00000000000E+00 -0.00000000000E+00 -0.32352445970E+03  0.32352695240E+03  0.12700000000E+01 0. -1.
         25    2    1    2    0    0  0.00000000000E+00  0.00000000000E+00 -0.31148669869E+03  0.33563152138E+03  0.12499821870E+03 0.  0.
    9000005    1    3    3    0    0 -0.46805272592E+02 -0.38217439967E+02 -0.19852252917E+03  0.20751747119E+03  0.10000000000E+01 0.  0.
    9000005    1    3    3    0    0  0.46805272592E+02  0.38217439967E+02 -0.11296416952E+03  0.12811405019E+03  0.10000000000E+01 0.  0.
<mgrwt>
<rscale>  0 0.12499822E+03</rscale>
<asrwt>0</asrwt>
<pdfrwt beam="1">  1        4 0.18572943E-02 0.12499822E+03</pdfrwt>
<pdfrwt beam="2">  1       -4 0.49778318E-01 0.12499822E+03</pdfrwt>
<totfact> 0.71337554E+03</totfact>
</mgrwt>
</event>
<event>
 5    1  0.3270363E-002  0.1250027E+03  0.7818608E-02  0.1235065E+00
         -4   -1    0    0    0  501 -0.00000000000E+00  0.00000000000E+00  0.82129453681E+03  0.82129551873E+03  0.12700000000E+01 0. -1.
          4   -1    0    0  501    0  0.00000000000E+00 -0.00000000000E+00 -0.46706428129E+01  0.48402277101E+01  0.12700000000E+01 0. -1.
         25    2    1    2    0    0  0.00000000000E+00  0.00000000000E+00  0.81662389399E+03  0.82613574644E+03  0.12500274920E+03 0.  0.
    9000005    1    3    3    0    0 -0.41701496270E+02 -0.23853470506E+02  0.67245626307E+03  0.67417091941E+03  0.10000000000E+01 0.  0.
    9000005    1    3    3    0    0  0.41701496270E+02  0.23853470506E+02  0.14416763093E+03  0.15196482703E+03  0.10000000000E+01 0.  0.
<mgrwt>
<rscale>  0 0.12500275E+03</rscale>
<asrwt>0</asrwt>
<pdfrwt beam="2">  1        4 0.73168113E-03 0.12500275E+03</pdfrwt>
<pdfrwt beam="1">  1       -4 0.12636610E+00 0.12500275E+03</pdfrwt>
<totfact> 0.37122023E+03</totfact>
</mgrwt>
</event>
<event>
 5    1  0.3270363E-002  0.1250022E+03  0.7818608E-02  0.1235066E+00
         -4   -1    0    0    0  501 -0.00000000000E+00  0.00000000000E+00  0.14150907921E+03  0.14151477802E+03  0.12700000000E+01 0.  1.
          4   -1    0    0  501    0  0.00000000000E+00 -0.00000000000E+00 -0.27584332387E+02  0.27613552709E+02  0.12700000000E+01 0.  1.
         25    2    1    2    0    0  0.00000000000E+00  0.00000000000E+00  0.11392474682E+03  0.16912833073E+03  0.12500217725E+03 0.  0.
    9000005    1    3    3    0    0 -0.31745924467E+02 -0.38227895858E+02  0.56871207384E+01  0.50025184500E+02  0.10000000000E+01 0.  0.
    9000005    1    3    3    0    0  0.31745924467E+02  0.38227895858E+02  0.10823762608E+03  0.11910314623E+03  0.10000000000E+01 0.  0.
<mgrwt>
<rscale>  0 0.12500218E+03</rscale>
<asrwt>0</asrwt>
<pdfrwt beam="2">  1        4 0.42464296E-02 0.12500218E+03</pdfrwt>
<pdfrwt beam="1">  1       -4 0.21773313E-01 0.12500218E+03</pdfrwt>
<totfact> 0.95606540E+03</totfact>
</mgrwt>
</event>
<event>
 5    1  0.3270363E-002  0.1250012E+03  0.7818608E-02  0.1235067E+00
          4   -1    0    0  501    0  0.00000000000E+00  0.00000000000E+00  0.67583561727E+01  0.68766473050E+01  0.12700000000E+01 0. -1.
         -4   -1    0    0    0  501 -0.00000000000E+00 -0.00000000000E+00 -0.57286601370E+03  0.57286742144E+03  0.12700000000E+01 0. -1.
         25    2    1    2    0    0  0.00000000000E+00  0.00000000000E+00 -0.56610765753E+03  0.57974406875E+03  0.12500122135E+03 0.  0.
    9000005    1    3    3    0    0 -0.40929315012E+02 -0.97223602281E+01 -0.68724637928E+02  0.80584173224E+02  0.10000000000E+01 0.  0.
    9000005    1    3    3    0    0  0.40929315012E+02  0.97223602281E+01 -0.49738301960E+03  0.49915989553E+03  0.10000000000E+01 0.  0.
<mgrwt>
<rscale>  0 0.12500122E+03</rscale>
<asrwt>0</asrwt>
<pdfrwt beam="1">  1        4 0.10489552E-02 0.12500122E+03</pdfrwt>
<pdfrwt beam="2">  1       -4 0.88142403E-01 0.12500122E+03</pdfrwt>
<totfact> 0.50170377E+03</totfact>
</mgrwt>
</event>
<event>
 5    1  0.3270363E-002  0.1249975E+03  0.7818608E-02  0.1235073E+00
          4   -1    0    0  501    0  0.00000000000E+00  0.00000000000E+00  0.15523599233E+02  0.15575462534E+02  0.12700000000E+01 0.  1.
         -4   -1    0    0    0  501 -0.00000000000E+00 -0.00000000000E+00 -0.25115000508E+03  0.25115321609E+03  0.12700000000E+01 0.  1.
         25    2    1    2    0    0  0.00000000000E+00  0.00000000000E+00 -0.23562640584E+03  0.26672867862E+03  0.12499753944E+03 0.  0.
    9000005    1    3    3    0    0  0.20147232727E+02 -0.10037460219E+02 -0.24220957342E+03  0.24325529604E+03  0.10000000000E+01 0.  0.
    9000005    1    3    3    0    0 -0.20147232727E+02  0.10037460219E+02  0.65831675801E+01  0.23473382577E+02  0.10000000000E+01 0.  0.
<mgrwt>
<rscale>  0 0.12499754E+03</rscale>
<asrwt>0</asrwt>
<pdfrwt beam="1">  1        4 0.23924827E-02 0.12499754E+03</pdfrwt>
<pdfrwt beam="2">  1       -4 0.38642696E-01 0.12499754E+03</pdfrwt>
<totfact> 0.79975342E+03</totfact>
</mgrwt>
</event>
<event>
 5    1  0.3270363E-002  0.1250003E+03  0.7818608E-02  0.1235069E+00
          4   -1    0    0  501    0  0.00000000000E+00  0.00000000000E+00  0.21890991131E+02  0.21927799541E+02  0.12700000000E+01 0. -1.
         -4   -1    0    0    0  501 -0.00000000000E+00 -0.00000000000E+00 -0.17825297789E+03  0.17825750202E+03  0.12700000000E+01 0. -1.
         25    2    1    2    0    0  0.00000000000E+00  0.00000000000E+00 -0.15636198676E+03  0.20018530156E+03  0.12500033623E+03 0.  0.
    9000005    1    3    3    0    0  0.31233944893E+02  0.53644866923E+02 -0.89722746610E+02  0.10910775554E+03  0.10000000000E+01 0.  0.
    9000005    1    3    3    0    0 -0.31233944893E+02 -0.53644866923E+02 -0.66639240147E+02  0.91077546015E+02  0.10000000000E+01 0.  0.
<mgrwt>
<rscale>  0 0.12500034E+03</rscale>
<asrwt>0</asrwt>
<pdfrwt beam="1">  1        4 0.33710243E-02 0.12500034E+03</pdfrwt>
<pdfrwt beam="2">  1       -4 0.27426714E-01 0.12500034E+03</pdfrwt>
<totfact> 0.90103586E+03</totfact>
</mgrwt>
</event>
<event>
 5    1  0.3270363E-002  0.1249945E+03  0.7818608E-02  0.1235078E+00
         -4   -1    0    0    0  501 -0.00000000000E+00  0.00000000000E+00  0.16194227075E+04  0.16194232055E+04  0.12700000000E+01 0. -1.
          4   -1    0    0  501    0  0.00000000000E+00 -0.00000000000E+00 -0.22441980611E+01  0.25786284993E+01  0.12700000000E+01 0. -1.
         25    2    1    2    0    0  0.00000000000E+00  0.00000000000E+00  0.16171785095E+04  0.16220018340E+04  0.12499447212E+03 0.  0.
    9000005    1    3    3    0    0 -0.32483569778E+02  0.48844846404E+02  0.10880843644E+04  0.10896648959E+04  0.10000000000E+01 0.  0.
    9000005    1    3    3    0    0  0.32483569778E+02 -0.48844846404E+02  0.52909414510E+03  0.53233693813E+03  0.10000000000E+01 0.  0.
<mgrwt>
<rscale>  0 0.12499447E+03</rscale>
<asrwt>0</asrwt>
<pdfrwt beam="2">  1        4 0.37102418E-03 0.12499447E+03</pdfrwt>
<pdfrwt beam="1">  1       -4 0.24916825E+00 0.12499447E+03</pdfrwt>
<totfact> 0.15653497E+03</totfact>
</mgrwt>
</event>
<event>
 5    1  0.3270363E-002  0.1250013E+03  0.7818608E-02  0.1235067E+00
         -4   -1    0    0    0  501 -0.00000000000E+00  0.00000000000E+00  0.21812206882E+02  0.21849148016E+02  0.12700000000E+01 0. -1.
          4   -1    0    0  501    0  0.00000000000E+00 -0.00000000000E+00 -0.17889843582E+03  0.17890294363E+03  0.12700000000E+01 0. -1.
         25    2    1    2    0    0  0.00000000000E+00  0.00000000000E+00 -0.15708622894E+03  0.20075209165E+03  0.12500127590E+03 0.  0.
    9000005    1    3    3    0    0  0.35728312125E+02  0.79092102718E+01  0.28141086531E+01  0.36714943851E+02  0.10000000000E+01 0.  0.
    9000005    1    3    3    0    0 -0.35728312125E+02 -0.79092102718E+01 -0.15990033759E+03  0.16403714780E+03  0.10000000000E+01 0.  0.
<mgrwt>
<rscale>  0 0.12500128E+03</rscale>
<asrwt>0</asrwt>
<pdfrwt beam="2">  1        4 0.27526024E-01 0.12500128E+03</pdfrwt>
<pdfrwt beam="1">  1       -4 0.33589126E-02 0.12500128E+03</pdfrwt>
<totfact> 0.90006246E+03</totfact>
</mgrwt>
</event>
<event>
 5    1  0.3270363E-002  0.1250030E+03  0.7818608E-02  0.1235065E+00
         -4   -1    0    0    0  501 -0.00000000000E+00  0.00000000000E+00  0.43109406314E+01  0.44941193940E+01  0.12700000000E+01 0. -1.
          4   -1    0    0  501    0  0.00000000000E+00 -0.00000000000E+00 -0.88713326291E+03  0.88713417196E+03  0.12700000000E+01 0. -1.
         25    2    1    2    0    0  0.00000000000E+00  0.00000000000E+00 -0.88282232227E+03  0.89162829135E+03  0.12500302889E+03 0.  0.
    9000005    1    3    3    0    0 -0.46683196457E+02  0.36213957063E+02 -0.58666026281E+03  0.58962872680E+03  0.10000000000E+01 0.  0.
    9000005    1    3    3    0    0  0.46683196457E+02 -0.36213957063E+02 -0.29616205947E+03  0.30199956455E+03  0.10000000000E+01 0.  0.
<mgrwt>
<rscale>  0 0.12500303E+03</rscale>
<asrwt>0</asrwt>
<pdfrwt beam="2">  1        4 0.13649606E+00 0.12500303E+03</pdfrwt>
<pdfrwt beam="1">  1       -4 0.67738294E-03 0.12500303E+03</pdfrwt>
<totfact> 0.34479402E+03</totfact>
</mgrwt>
</event>
<event>
 5    1  0.3270363E-002  0.1249985E+03  0.7818608E-02  0.1235072E+00
          4   -1    0    0  501    0  0.00000000000E+00  0.00000000000E+00  0.26281956941E+03  0.26282263785E+03  0.12700000000E+01 0. -1.
         -4   -1    0    0    0  501 -0.00000000000E+00 -0.00000000000E+00 -0.14832218358E+02  0.14886490568E+02  0.12700000000E+01 0. -1.
         25    2    1    2    0    0  0.00000000000E+00  0.00000000000E+00  0.24798735105E+03  0.27770912842E+03  0.12499853488E+03 0.  0.
    9000005    1    3    3    0    0 -0.45517188236E+02  0.37919613269E+02  0.79813306413E+02  0.99402592400E+02  0.10000000000E+01 0.  0.
    9000005    1    3    3    0    0  0.45517188236E+02 -0.37919613269E+02  0.16817404464E+03  0.17830653602E+03  0.10000000000E+01 0.  0.
<mgrwt>
<rscale>  0 0.12499853E+03</rscale>
<asrwt>0</asrwt>
<pdfrwt beam="1">  1        4 0.40438184E-01 0.12499853E+03</pdfrwt>
<pdfrwt beam="2">  1       -4 0.22862909E-02 0.12499853E+03</pdfrwt>
<totfact> 0.78485402E+03</totfact>
</mgrwt>
</event>
<event>
 5    1  0.3270363E-002  0.1249998E+03  0.7818608E-02  0.1235070E+00
          4   -1    0    0  501    0  0.00000000000E+00  0.00000000000E+00  0.27585912867E+02  0.27615131517E+02  0.12700000000E+01 0.  1.
         -4   -1    0    0    0  501 -0.00000000000E+00 -0.00000000000E+00 -0.14149553408E+03  0.14150123344E+03  0.12700000000E+01 0.  1.
         25    2    1    2    0    0  0.00000000000E+00  0.00000000000E+00 -0.11390962121E+03  0.16911636496E+03  0.12499977236E+03 0.  0.
    9000005    1    3    3    0    0  0.34616575956E+02 -0.34040967475E+02 -0.37217218864E+01  0.48702628382E+02  0.10000000000E+01 0.  0.
    9000005    1    3    3    0    0 -0.34616575956E+02  0.34040967475E+02 -0.11018789933E+03  0.12041373657E+03  0.10000000000E+01 0.  0.
<mgrwt>
<rscale>  0 0.12499977E+03</rscale>
<asrwt>0</asrwt>
<pdfrwt beam="1">  1        4 0.42466727E-02 0.12499977E+03</pdfrwt>
<pdfrwt beam="2">  1       -4 0.21771229E-01 0.12499977E+03</pdfrwt>
<totfact> 0.95613936E+03</totfact>
</mgrwt>
</event>
<event>
 5    1  0.3270363E-002  0.1250041E+03  0.7818608E-02  0.1235063E+00
         -4   -1    0    0    0  501 -0.00000000000E+00  0.00000000000E+00  0.76231577289E+03  0.76231683078E+03  0.12700000000E+01 0. -1.
          4   -1    0    0  501    0  0.00000000000E+00 -0.00000000000E+00 -0.50447647132E+01  0.52021679146E+01  0.12700000000E+01 0. -1.
         25    2    1    2    0    0  0.00000000000E+00  0.00000000000E+00  0.75727100817E+03  0.76751899870E+03  0.12500413409E+03 0.  0.
    9000005    1    3    3    0    0 -0.19516691419E+02 -0.36496904546E+02  0.66613877472E+03  0.66742399752E+03  0.10000000000E+01 0.  0.
    9000005    1    3    3    0    0  0.19516691419E+02  0.36496904546E+02  0.91132233458E+02  0.10009500118E+03  0.10000000000E+01 0.  0.
<mgrwt>
<rscale>  0 0.12500413E+03</rscale>
<asrwt>0</asrwt>
<pdfrwt beam="2">  1        4 0.78830695E-03 0.12500413E+03</pdfrwt>
<pdfrwt beam="1">  1       -4 0.11729154E+00 0.12500413E+03</pdfrwt>
<totfact> 0.39746297E+03</totfact>
</mgrwt>
</event>
<event>
 5    1  0.3270363E-002  0.1250017E+03  0.7818608E-02  0.1235067E+00
         -4   -1    0    0    0  501 -0.00000000000E+00  0.00000000000E+00  0.65580753799E+01  0.66799141228E+01  0.12700000000E+01 0. -1.
          4   -1    0    0  501    0  0.00000000000E+00 -0.00000000000E+00 -0.59005086938E+03  0.59005223612E+03  0.12700000000E+01 0. -1.
         25    2    1    2    0    0  0.00000000000E+00  0.00000000000E+00 -0.58349279400E+03  0.59673215025E+03  0.12500167395E+03 0.  0.
    9000005    1    3    3    0    0  0.16972823940E+02 -0.46340451054E+02 -0.47476646317E+03  0.47732557935E+03  0.10000000000E+01 0.  0.
    9000005    1    3    3    0    0 -0.16972823940E+02  0.46340451054E+02 -0.10872633083E+03  0.11940657089E+03  0.10000000000E+01 0.  0.
<mgrwt>
<rscale>  0 0.12500167E+03</rscale>
<asrwt>0</asrwt>
<pdfrwt beam="2">  1        4 0.90786493E-01 0.12500167E+03</pdfrwt>
<pdfrwt beam="1">  1       -4 0.10184125E-02 0.12500167E+03</pdfrwt>
<totfact> 0.49072753E+03</totfact>
</mgrwt>
</event>
<event>
 5    1  0.3270363E-002  0.1250026E+03  0.7818608E-02  0.1235065E+00
          4   -1    0    0  501    0  0.00000000000E+00  0.00000000000E+00  0.33562993443E+03  0.33563233721E+03  0.12700000000E+01 0.  1.
         -4   -1    0    0    0  501 -0.00000000000E+00 -0.00000000000E+00 -0.11601950925E+02  0.11671253800E+02  0.12700000000E+01 0.  1.
         25    2    1    2    0    0  0.00000000000E+00  0.00000000000E+00  0.32402798350E+03  0.34730359101E+03  0.12500260093E+03 0.  0.
    9000005    1    3    3    0    0 -0.54479461501E+02  0.30305612694E+02  0.14991270372E+03  0.16236151214E+03  0.10000000000E+01 0.  0.
    9000005    1    3    3    0    0  0.54479461501E+02 -0.30305612694E+02  0.17411527978E+03  0.18494207888E+03  0.10000000000E+01 0.  0.
<mgrwt>
<rscale>  0 0.12500260E+03</rscale>
<asrwt>0</asrwt>
<pdfrwt beam="1">  1        4 0.51640885E-01 0.12500260E+03</pdfrwt>
<pdfrwt beam="2">  1       -4 0.17904315E-02 0.12500260E+03</pdfrwt>
<totfact> 0.70018186E+03</totfact>
</mgrwt>
</event>
<event>
 5    1  0.3270363E-002  0.1249943E+03  0.7818608E-02  0.1235078E+00
          4   -1    0    0  501    0  0.00000000000E+00  0.00000000000E+00  0.14622029894E+03  0.14622581415E+03  0.12700000000E+01 0. -1.
         -4   -1    0    0    0  501 -0.00000000000E+00 -0.00000000000E+00 -0.26691289987E+02  0.26721486881E+02  0.12700000000E+01 0. -1.
         25    2    1    2    0    0  0.00000000000E+00  0.00000000000E+00  0.11952900896E+03  0.17294730103E+03  0.12499433968E+03 0.  0.
    9000005    1    3    3    0    0 -0.26756195886E+02  0.31179039409E+02  0.12491137049E+03  0.13149858172E+03  0.10000000000E+01 0.  0.
    9000005    1    3    3    0    0  0.26756195886E+02 -0.31179039409E+02 -0.53823615326E+01  0.41448719309E+02  0.10000000000E+01 0.  0.
<mgrwt>
<rscale>  0 0.12499434E+03</rscale>
<asrwt>0</asrwt>
<pdfrwt beam="1">  1        4 0.22498178E-01 0.12499434E+03</pdfrwt>
<pdfrwt beam="2">  1       -4 0.41090994E-02 0.12499434E+03</pdfrwt>
<totfact> 0.94914192E+03</totfact>
</mgrwt>
</event>
<event>
 5    1  0.3270363E-002  0.1250081E+03  0.7818608E-02  0.1235057E+00
         -4   -1    0    0    0  501 -0.00000000000E+00  0.00000000000E+00  0.11351990834E+02  0.11422810332E+02  0.12700000000E+01 0. -1.
          4   -1    0    0  501    0  0.00000000000E+00 -0.00000000000E+00 -0.34300484419E+03  0.34300719532E+03  0.12700000000E+01 0. -1.
         25    2    1    2    0    0  0.00000000000E+00  0.00000000000E+00 -0.33165285336E+03  0.35443000565E+03  0.12500805479E+03 0.  0.
    9000005    1    3    3    0    0 -0.73149934929E+01  0.86207772149E+01 -0.34009506477E+03  0.34028441047E+03  0.10000000000E+01 0.  0.
    9000005    1    3    3    0    0  0.73149934929E+01 -0.86207772149E+01  0.84422114070E+01  0.14145595181E+02  0.10000000000E+01 0.  0.
<mgrwt>
<rscale>  0 0.12500805E+03</rscale>
<asrwt>0</asrwt>
<pdfrwt beam="2">  1        4 0.52775597E-01 0.12500805E+03</pdfrwt>
<pdfrwt beam="1">  1       -4 0.17520889E-02 0.12500805E+03</pdfrwt>
<totfact> 0.69227600E+03</totfact>
</mgrwt>
</event>
<event>
 5    1  0.3270363E-002  0.1250094E+03  0.7818608E-02  0.1235055E+00
         -4   -1    0    0    0  501 -0.00000000000E+00  0.00000000000E+00  0.25860516058E+02  0.25891681884E+02  0.12700000000E+01 0.  1.
          4   -1    0    0  501    0  0.00000000000E+00 -0.00000000000E+00 -0.15094875389E+03  0.15095409634E+03  0.12700000000E+01 0.  1.
         25    2    1    2    0    0  0.00000000000E+00  0.00000000000E+00 -0.12508823784E+03  0.17684577822E+03  0.12500944777E+03 0.  0.
    9000005    1    3    3    0    0 -0.40129040956E+02 -0.15680520829E+02  0.15013973103E+01  0.43121605436E+02  0.10000000000E+01 0.  0.
    9000005    1    3    3    0    0  0.40129040956E+02  0.15680520829E+02 -0.12658963515E+03  0.13372417279E+03  0.10000000000E+01 0.  0.
<mgrwt>
<rscale>  0 0.12500945E+03</rscale>
<asrwt>0</asrwt>
<pdfrwt beam="2">  1        4 0.23225693E-01 0.12500945E+03</pdfrwt>
<pdfrwt beam="1">  1       -4 0.39813494E-02 0.12500945E+03</pdfrwt>
<totfact> 0.94167918E+03</totfact>
</mgrwt>
</event>
<event>
 5    1  0.3270363E-002  0.1249907E+03  0.7818608E-02  0.1235084E+00
         -4   -1    0    0    0  501 -0.00000000000E+00  0.00000000000E+00  0.12606804325E+02  0.12670612270E+02  0.12700000000E+01 0.  1.
          4   -1    0    0  501    0  0.00000000000E+00 -0.00000000000E+00 -0.30895901404E+03  0.30896162424E+03  0.12700000000E+01 0.  1.
         25    2    1    2    0    0  0.00000000000E+00  0.00000000000E+00 -0.29635220971E+03  0.32163223651E+03  0.12499065310E+03 0.  0.
    9000005    1    3    3    0    0  0.60065436264E+02 -0.17219922699E+02 -0.14680605904E+03  0.15955375690E+03  0.10000000000E+01 0.  0.
    9000005    1    3    3    0    0 -0.60065436264E+02  0.17219922699E+02 -0.14954615067E+03  0.16207847961E+03  0.10000000000E+01 0.  0.
<mgrwt>
<rscale>  0 0.12499065E+03</rscale>
<asrwt>0</asrwt>
<pdfrwt beam="2">  1        4 0.47537259E-01 0.12499065E+03</pdfrwt>
<pdfrwt beam="1">  1       -4 0.19446177E-02 0.12499065E+03</pdfrwt>
<totfact> 0.72977532E+03</totfact>
</mgrwt>
</event>
<event>
 5    1  0.3270363E-002  0.1249988E+03  0.7818608E-02  0.1235071E+00
          4   -1    0    0  501    0  0.00000000000E+00  0.00000000000E+00  0.18426570430E+03  0.18427008080E+03  0.12700000000E+01 0.  1.
         -4   -1    0    0    0  501 -0.00000000000E+00 -0.00000000000E+00 -0.21174941230E+02  0.21212992153E+02  0.12700000000E+01 0.  1.
         25    2    1    2    0    0  0.00000000000E+00  0.00000000000E+00  0.16309076307E+03  0.20548307296E+03  0.12499878509E+03 0.  0.
    9000005    1    3    3    0    0 -0.54086104251E+02  0.31196747519E+02  0.85778282957E+02  0.10610116661E+03  0.10000000000E+01 0.  0.
    9000005    1    3    3    0    0  0.54086104251E+02 -0.31196747519E+02  0.77312480108E+02  0.99381906348E+02  0.10000000000E+01 0.  0.
<mgrwt>
<rscale>  0 0.12499879E+03</rscale>
<asrwt>0</asrwt>
<pdfrwt beam="1">  1        4 0.28351833E-01 0.12499879E+03</pdfrwt>
<pdfrwt beam="2">  1       -4 0.32609470E-02 0.12499879E+03</pdfrwt>
<totfact> 0.89221333E+03</totfact>
</mgrwt>
</event>
<event>
 5    1  0.3270363E-002  0.1249972E+03  0.7818608E-02  0.1235074E+00
         -4   -1    0    0    0  501 -0.00000000000E+00  0.00000000000E+00  0.10145191380E+03  0.10145986257E+03  0.12700000000E+01 0. -1.
          4   -1    0    0  501    0  0.00000000000E+00 -0.00000000000E+00 -0.38481811059E+02  0.38502762010E+02  0.12700000000E+01 0. -1.
         25    2    1    2    0    0  0.00000000000E+00  0.00000000000E+00  0.62970102737E+02  0.13996262458E+03  0.12499720973E+03 0.  0.
    9000005    1    3    3    0    0  0.17822023702E+02 -0.18529998004E+02 -0.32291087618E+02  0.41288009088E+02  0.10000000000E+01 0.  0.
    9000005    1    3    3    0    0 -0.17822023702E+02  0.18529998004E+02  0.95261190355E+02  0.98674615493E+02  0.10000000000E+01 0.  0.
<mgrwt>
<rscale>  0 0.12499721E+03</rscale>
<asrwt>0</asrwt>
<pdfrwt beam="2">  1        4 0.59225017E-02 0.12499721E+03</pdfrwt>
<pdfrwt beam="1">  1       -4 0.15610210E-01 0.12499721E+03</pdfrwt>
<totfact> 0.10134998E+04</totfact>
</mgrwt>
</event>
<event>
 5    1  0.3270363E-002  0.1249879E+03  0.7818608E-02  0.1235088E+00
         -4   -1    0    0    0  501 -0.00000000000E+00  0.00000000000E+00  0.14532200379E+01  0.19299607454E+01  0.12700000000E+01 0. -1.
          4   -1    0    0  501    0  0.00000000000E+00 -0.00000000000E+00 -0.23082946645E+04  0.23082950139E+04  0.12700000000E+01 0. -1.
         25    2    1    2    0    0  0.00000000000E+00  0.00000000000E+00 -0.23068414445E+04  0.23102249746E+04  0.12498793322E+03 0.  0.
    9000005    1    3    3    0    0 -0.29422033008E+02  0.16974120382E+01 -0.21718575895E+04  0.21720577631E+04  0.10000000000E+01 0.  0.
    9000005    1    3    3    0    0  0.29422033008E+02 -0.16974120382E+01 -0.13498385498E+03  0.13816721152E+03  0.10000000000E+01 0.  0.
<mgrwt>
<rscale>  0 0.12498793E+03</rscale>
<asrwt>0</asrwt>
<pdfrwt beam="2">  1        4 0.35515644E+00 0.12498793E+03</pdfrwt>
<pdfrwt beam="1">  1       -4 0.26027340E-03 0.12498793E+03</pdfrwt>
<totfact> 0.63380930E+02</totfact>
</mgrwt>
</event>
<event>
 5    1  0.3270363E-002  0.1250069E+03  0.7818608E-02  0.1235058E+00
         -4   -1    0    0    0  501 -0.00000000000E+00  0.00000000000E+00  0.20540745001E+02  0.20579968542E+02  0.12700000000E+01 0. -1.
          4   -1    0    0  501    0  0.00000000000E+00 -0.00000000000E+00 -0.18996915083E+03  0.18997339595E+03  0.12700000000E+01 0. -1.
         25    2    1    2    0    0  0.00000000000E+00  0.00000000000E+00 -0.16942840583E+03  0.21055336449E+03  0.12500693819E+03 0.  0.
    9000005    1    3    3    0    0  0.64312878391E+01  0.26671328835E+02  0.98632172874E+01  0.29171977999E+02  0.10000000000E+01 0.  0.
    9000005    1    3    3    0    0 -0.64312878391E+01 -0.26671328835E+02 -0.17929162312E+03  0.18138138649E+03  0.10000000000E+01 0.  0.
<mgrwt>
<rscale>  0 0.12500694E+03</rscale>
<asrwt>0</asrwt>
<pdfrwt beam="2">  1        4 0.29229366E-01 0.12500694E+03</pdfrwt>
<pdfrwt beam="1">  1       -4 0.31634585E-02 0.12500694E+03</pdfrwt>
<totfact> 0.88371882E+03</totfact>
</mgrwt>
</event>
<event>
 5    1  0.3270363E-002  0.1250020E+03  0.7818608E-02  0.1235066E+00
         -4   -1    0    0    0  501 -0.00000000000E+00  0.00000000000E+00  0.29660392690E+01  0.32264979382E+01  0.12700000000E+01 0.  1.
          4   -1    0    0  501    0  0.00000000000E+00 -0.00000000000E+00 -0.12613787606E+04  0.12613794000E+04  0.12700000000E+01 0.  1.
         25    2    1    2    0    0  0.00000000000E+00  0.00000000000E+00 -0.12584127213E+04  0.12646058979E+04  0.12500199895E+03 0.  0.
    9000005    1    3    3    0    0  0.22034723579E+01 -0.39099390979E+02 -0.13651679453E+03  0.14202624002E+03  0.10000000000E+01 0.  0.
    9000005    1    3    3    0    0 -0.22034723579E+01  0.39099390979E+02 -0.11218959268E+04  0.11225796579E+04  0.10000000000E+01 0.  0.
<mgrwt>
<rscale>  0 0.12500200E+03</rscale>
<asrwt>0</asrwt>
<pdfrwt beam="2">  1        4 0.19407795E+00 0.12500200E+03</pdfrwt>
<pdfrwt beam="1">  1       -4 0.47639920E-03 0.12500200E+03</pdfrwt>
<totfact> 0.23078656E+03</totfact>
</mgrwt>
</event>
<event>
 5    1  0.3270363E-002  0.1249982E+03  0.7818608E-02  0.1235072E+00
          4   -1    0    0  501    0  0.00000000000E+00  0.00000000000E+00  0.13674633619E+02  0.13733481154E+02  0.12700000000E+01 0.  1.
         -4   -1    0    0    0  501 -0.00000000000E+00 -0.00000000000E+00 -0.28497476447E+03  0.28497759436E+03  0.12700000000E+01 0.  1.
         25    2    1    2    0    0  0.00000000000E+00  0.00000000000E+00 -0.27130013085E+03  0.29871107551E+03  0.12499818252E+03 0.  0.
    9000005    1    3    3    0    0 -0.36106881243E+02 -0.36466924861E+02 -0.50433960638E+02  0.71959209748E+02  0.10000000000E+01 0.  0.
    9000005    1    3    3    0    0  0.36106881243E+02  0.36466924861E+02 -0.22086617021E+03  0.22675186576E+03  0.10000000000E+01 0.  0.
<mgrwt>
<rscale>  0 0.12499818E+03</rscale>
<asrwt>0</asrwt>
<pdfrwt beam="1">  1        4 0.21085344E-02 0.12499818E+03</pdfrwt>
<pdfrwt beam="2">  1       -4 0.43847011E-01 0.12499818E+03</pdfrwt>
<totfact> 0.75763863E+03</totfact>
</mgrwt>
</event>
<event>
 5    1  0.3270363E-002  0.1249994E+03  0.7818608E-02  0.1235070E+00
          4   -1    0    0  501    0  0.00000000000E+00  0.00000000000E+00  0.20978142143E+02  0.21016549378E+02  0.12700000000E+01 0.  1.
         -4   -1    0    0    0  501 -0.00000000000E+00 -0.00000000000E+00 -0.18599305024E+03  0.18599738611E+03  0.12700000000E+01 0.  1.
         25    2    1    2    0    0  0.00000000000E+00  0.00000000000E+00 -0.16501490810E+03  0.20701393548E+03  0.12499939836E+03 0.  0.
    9000005    1    3    3    0    0 -0.10975076661E+02  0.60160145527E+02 -0.10381399434E+03  0.12049083300E+03  0.10000000000E+01 0.  0.
    9000005    1    3    3    0    0  0.10975076661E+02 -0.60160145527E+02 -0.61200913763E+02  0.86523102481E+02  0.10000000000E+01 0.  0.
<mgrwt>
<rscale>  0 0.12499940E+03</rscale>
<asrwt>0</asrwt>
<pdfrwt beam="1">  1        4 0.32306945E-02 0.12499940E+03</pdfrwt>
<pdfrwt beam="2">  1       -4 0.28617602E-01 0.12499940E+03</pdfrwt>
<totfact> 0.88967075E+03</totfact>
</mgrwt>
</event>
<event>
 5    1  0.3270363E-002  0.1249993E+03  0.7818608E-02  0.1235070E+00
          4   -1    0    0  501    0  0.00000000000E+00  0.00000000000E+00  0.70064030896E+02  0.70075540136E+02  0.12700000000E+01 0. -1.
         -4   -1    0    0    0  501 -0.00000000000E+00 -0.00000000000E+00 -0.55728655574E+02  0.55743124707E+02  0.12700000000E+01 0. -1.
         25    2    1    2    0    0  0.00000000000E+00  0.00000000000E+00  0.14335375322E+02  0.12581866484E+03  0.12499933375E+03 0.  0.
    9000005    1    3    3    0    0 -0.59040054120E+02 -0.18948101049E+02 -0.65822389843E+00  0.62017673147E+02  0.10000000000E+01 0.  0.
    9000005    1    3    3    0    0  0.59040054120E+02  0.18948101049E+02  0.14993599220E+02  0.63800991696E+02  0.10000000000E+01 0.  0.
<mgrwt>
<rscale>  0 0.12499933E+03</rscale>
<asrwt>0</asrwt>
<pdfrwt beam="1">  1        4 0.10781080E-01 0.12499933E+03</pdfrwt>
<pdfrwt beam="2">  1       -4 0.85756377E-02 0.12499933E+03</pdfrwt>
<totfact> 0.10435092E+04</totfact>
</mgrwt>
</event>
<event>
 5    1  0.3270363E-002  0.1250023E+03  0.7818608E-02  0.1235066E+00
         -4   -1    0    0    0  501 -0.00000000000E+00  0.00000000000E+00  0.52298437139E+01  0.53818366077E+01  0.12700000000E+01 0.  1.
          4   -1    0    0  501    0  0.00000000000E+00 -0.00000000000E+00 -0.73609162052E+03  0.73609271610E+03  0.12700000000E+01 0.  1.
         25    2    1    2    0    0  0.00000000000E+00  0.00000000000E+00 -0.73086177681E+03  0.74147455271E+03  0.12500230206E+03 0.  0.
    9000005    1    3    3    0    0  0.49244249418E+02  0.74697365732E+01 -0.14154597273E+03  0.15005684077E+03  0.10000000000E+01 0.  0.
    9000005    1    3    3    0    0 -0.49244249418E+02 -0.74697365732E+01 -0.58931580408E+03  0.59141771194E+03  0.10000000000E+01 0.  0.
<mgrwt>
<rscale>  0 0.12500230E+03</rscale>
<asrwt>0</asrwt>
<pdfrwt beam="2">  1        4 0.11325656E+00 0.12500230E+03</pdfrwt>
<pdfrwt beam="1">  1       -4 0.81636796E-03 0.12500230E+03</pdfrwt>
<totfact> 0.40983227E+03</totfact>
</mgrwt>
</event>
<event>
 5    1  0.3270363E-002  0.1249987E+03  0.7818608E-02  0.1235071E+00
         -4   -1    0    0    0  501 -0.00000000000E+00  0.00000000000E+00  0.17342988671E+02  0.17389426559E+02  0.12700000000E+01 0. -1.
          4   -1    0    0  501    0  0.00000000000E+00 -0.00000000000E+00 -0.22488112446E+03  0.22488471055E+03  0.12700000000E+01 0. -1.
         25    2    1    2    0    0  0.00000000000E+00  0.00000000000E+00 -0.20753813579E+03  0.24227413711E+03  0.12499871881E+03 0.  0.
    9000005    1    3    3    0    0 -0.43593940824E+02 -0.37724300043E+02 -0.15051237717E+03  0.16117856610E+03  0.10000000000E+01 0.  0.
    9000005    1    3    3    0    0  0.43593940824E+02  0.37724300043E+02 -0.57025758626E+02  0.81095571008E+02  0.10000000000E+01 0.  0.
<mgrwt>
<rscale>  0 0.12499872E+03</rscale>
<asrwt>0</asrwt>
<pdfrwt beam="2">  1        4 0.34600942E-01 0.12499872E+03</pdfrwt>
<pdfrwt beam="1">  1       -4 0.26720003E-02 0.12499872E+03</pdfrwt>
<totfact> 0.83462221E+03</totfact>
</mgrwt>
</event>
<event>
 5    1  0.3270363E-002  0.1250022E+03  0.7818608E-02  0.1235066E+00
         -4   -1    0    0    0  501 -0.00000000000E+00  0.00000000000E+00  0.11628672136E+03  0.11629365617E+03  0.12700000000E+01 0.  1.
          4   -1    0    0  501    0  0.00000000000E+00 -0.00000000000E+00 -0.33572773790E+02  0.33596786156E+02  0.12700000000E+01 0.  1.
         25    2    1    2    0    0  0.00000000000E+00  0.00000000000E+00  0.82713947568E+02  0.14989044232E+03  0.12500219029E+03 0.  0.
    9000005    1    3    3    0    0  0.23291605161E+02  0.26395304178E+02 -0.20558716756E+02  0.40778324982E+02  0.10000000000E+01 0.  0.
    9000005    1    3    3    0    0 -0.23291605161E+02 -0.26395304178E+02  0.10327266432E+03  0.10911211734E+03  0.10000000000E+01 0.  0.
<mgrwt>
<rscale>  0 0.12500219E+03</rscale>
<asrwt>0</asrwt>
<pdfrwt beam="2">  1        4 0.51674226E-02 0.12500219E+03</pdfrwt>
<pdfrwt beam="1">  1       -4 0.17892646E-01 0.12500219E+03</pdfrwt>
<totfact> 0.99320645E+03</totfact>
</mgrwt>
</event>
<event>
 5    1  0.3270363E-002  0.1250033E+03  0.7818608E-02  0.1235064E+00
         -4   -1    0    0    0  501 -0.00000000000E+00  0.00000000000E+00  0.39379634830E+03  0.39379839618E+03  0.12700000000E+01 0.  1.
          4   -1    0    0  501    0  0.00000000000E+00 -0.00000000000E+00 -0.98772554574E+01  0.99585679378E+01  0.12700000000E+01 0.  1.
         25    2    1    2    0    0  0.00000000000E+00  0.00000000000E+00  0.38391909284E+03  0.40375696412E+03  0.12500326486E+03 0.  0.
    9000005    1    3    3    0    0  0.50228333992E+02  0.32170961031E+02  0.25217905006E+03  0.25913920884E+03  0.10000000000E+01 0.  0.
    9000005    1    3    3    0    0 -0.50228333992E+02 -0.32170961031E+02  0.13174004279E+03  0.14461775528E+03  0.10000000000E+01 0.  0.
<mgrwt>
<rscale>  0 0.12500326E+03</rscale>
<asrwt>0</asrwt>
<pdfrwt beam="2">  1        4 0.15259902E-02 0.12500326E+03</pdfrwt>
<pdfrwt beam="1">  1       -4 0.60590461E-01 0.12500326E+03</pdfrwt>
<totfact> 0.64184400E+03</totfact>
</mgrwt>
</event>
<event>
 5    1  0.3270363E-002  0.1250027E+03  0.7818608E-02  0.1235065E+00
          4   -1    0    0  501    0  0.00000000000E+00  0.00000000000E+00  0.10643099638E+03  0.10643857332E+03  0.12700000000E+01 0. -1.
         -4   -1    0    0    0  501 -0.00000000000E+00 -0.00000000000E+00 -0.36683920016E+02  0.36705897179E+02  0.12700000000E+01 0. -1.
         25    2    1    2    0    0  0.00000000000E+00  0.00000000000E+00  0.69747076361E+02  0.14314447050E+03  0.12500273906E+03 0.  0.
    9000005    1    3    3    0    0 -0.59497213423E+02 -0.18935598886E+02  0.31855541373E+02  0.70101717714E+02  0.10000000000E+01 0.  0.
    9000005    1    3    3    0    0  0.59497213423E+02  0.18935598886E+02  0.37891534988E+02  0.73042752783E+02  0.10000000000E+01 0.  0.
<mgrwt>
<rscale>  0 0.12500274E+03</rscale>
<asrwt>0</asrwt>
<pdfrwt beam="1">  1        4 0.16376273E-01 0.12500274E+03</pdfrwt>
<pdfrwt beam="2">  1       -4 0.56459534E-02 0.12500274E+03</pdfrwt>
<totfact> 0.10068205E+04</totfact>
</mgrwt>
</event>
<event>
 5    1  0.3270363E-002  0.1250001E+03  0.7818608E-02  0.1235069E+00
         -4   -1    0    0    0  501 -0.00000000000E+00  0.00000000000E+00  0.11471784695E+04  0.11471791724E+04  0.12700000000E+01 0.  1.
          4   -1    0    0  501    0  0.00000000000E+00 -0.00000000000E+00 -0.32859541491E+01  0.35228390071E+01  0.12700000000E+01 0.  1.
         25    2    1    2    0    0  0.00000000000E+00  0.00000000000E+00  0.11438925153E+04  0.11507020115E+04  0.12500013031E+03 0.  0.
    9000005    1    3    3    0    0 -0.21751162644E+02  0.20708302055E+02  0.67456235516E+02  0.73846398425E+02  0.10000000000E+01 0.  0.
    9000005    1    3    3    0    0  0.21751162644E+02 -0.20708302055E+02  0.10764362798E+04  0.10768556130E+04  0.10000000000E+01 0.  0.
<mgrwt>
<rscale>  0 0.12500013E+03</rscale>
<asrwt>0</asrwt>
<pdfrwt beam="2">  1        4 0.52380810E-03 0.12500013E+03</pdfrwt>
<pdfrwt beam="1">  1       -4 0.17650703E+00 0.12500013E+03</pdfrwt>
<totfact> 0.26040730E+03</totfact>
</mgrwt>
</event>
<event>
 5    1  0.3270363E-002  0.1250001E+03  0.7818608E-02  0.1235069E+00
          4   -1    0    0  501    0  0.00000000000E+00  0.00000000000E+00  0.20031496846E+03  0.20031899433E+03  0.12700000000E+01 0.  1.
         -4   -1    0    0    0  501 -0.00000000000E+00 -0.00000000000E+00 -0.19475679997E+02  0.19517044124E+02  0.12700000000E+01 0.  1.
         25    2    1    2    0    0  0.00000000000E+00  0.00000000000E+00  0.18083928846E+03  0.21983603845E+03  0.12500014220E+03 0.  0.
    9000005    1    3    3    0    0 -0.28782850110E+02 -0.51149044066E+02  0.52676182492E+02  0.78869876197E+02  0.10000000000E+01 0.  0.
    9000005    1    3    3    0    0  0.28782850110E+02  0.51149044066E+02  0.12816310597E+03  0.14096616225E+03  0.10000000000E+01 0.  0.
<mgrwt>
<rscale>  0 0.12500014E+03</rscale>
<asrwt>0</asrwt>
<pdfrwt beam="1">  1        4 0.30821180E-01 0.12500014E+03</pdfrwt>
<pdfrwt beam="2">  1       -4 0.29997499E-02 0.12500014E+03</pdfrwt>
<totfact> 0.86894023E+03</totfact>
</mgrwt>
</event>
<event>
 5    1  0.3270363E-002  0.1250051E+03  0.7818608E-02  0.1235061E+00
         -4   -1    0    0    0  501 -0.00000000000E+00  0.00000000000E+00  0.13304955829E+02  0.13365431142E+02  0.12700000000E+01 0.  1.
          4   -1    0    0  501    0  0.00000000000E+00 -0.00000000000E+00 -0.29288977420E+03  0.29289252761E+03  0.12700000000E+01 0.  1.
         25    2    1    2    0    0  0.00000000000E+00  0.00000000000E+00 -0.27958481837E+03  0.30625795876E+03  0.12500506645E+03 0.  0.
    9000005    1    3    3    0    0 -0.56293156772E+02 -0.19868279597E+02 -0.18509347771E+03  0.19448460999E+03  0.10000000000E+01 0.  0.
    9000005    1    3    3    0    0  0.56293156772E+02  0.19868279597E+02 -0.94491340665E+02  0.11177334877E+03  0.10000000000E+01 0.  0.
<mgrwt>
<rscale>  0 0.12500507E+03</rscale>
<asrwt>0</asrwt>
<pdfrwt beam="2">  1        4 0.45064824E-01 0.12500507E+03</pdfrwt>
<pdfrwt beam="1">  1       -4 0.20517803E-02 0.12500507E+03</pdfrwt>
<totfact> 0.74812089E+03</totfact>
</mgrwt>
</event>
<event>
 5    1  0.3270363E-002  0.1250007E+03  0.7818608E-02  0.1235068E+00
          4   -1    0    0  501    0  0.00000000000E+00  0.00000000000E+00  0.91038189793E+02  0.91047047733E+02  0.12700000000E+01 0.  1.
         -4   -1    0    0    0  501 -0.00000000000E+00 -0.00000000000E+00 -0.42887934273E+02  0.42906733809E+02  0.12700000000E+01 0.  1.
         25    2    1    2    0    0  0.00000000000E+00  0.00000000000E+00  0.48150255521E+02  0.13395378154E+03  0.12500067393E+03 0.  0.
    9000005    1    3    3    0    0 -0.47867497642E+02  0.35131226814E+02  0.44959208060E+02  0.74483762105E+02  0.10000000000E+01 0.  0.
    9000005    1    3    3    0    0  0.47867497642E+02 -0.35131226814E+02  0.31910474609E+01  0.59470019437E+02  0.10000000000E+01 0.  0.
<mgrwt>
<rscale>  0 0.12500067E+03</rscale>
<asrwt>0</asrwt>
<pdfrwt beam="1">  1        4 0.14008003E-01 0.12500067E+03</pdfrwt>
<pdfrwt beam="2">  1       -4 0.66002712E-02 0.12500067E+03</pdfrwt>
<totfact> 0.10260014E+04</totfact>
</mgrwt>
</event>
<event>
 5    1  0.3270363E-002  0.1249991E+03  0.7818608E-02  0.1235071E+00
         -4   -1    0    0    0  501 -0.00000000000E+00  0.00000000000E+00  0.14885185127E+02  0.14939264918E+02  0.12700000000E+01 0. -1.
          4   -1    0    0  501    0  0.00000000000E+00 -0.00000000000E+00 -0.26189013900E+03  0.26189321832E+03  0.12700000000E+01 0. -1.
         25    2    1    2    0    0  0.00000000000E+00  0.00000000000E+00 -0.24700495387E+03  0.27683248324E+03  0.12499910616E+03 0.  0.
    9000005    1    3    3    0    0 -0.45622296049E+02 -0.23820410928E+02 -0.20200291423E+03  0.20845858877E+03  0.10000000000E+01 0.  0.
    9000005    1    3    3    0    0  0.45622296049E+02  0.23820410928E+02 -0.45002039634E+02  0.68373894469E+02  0.10000000000E+01 0.  0.
<mgrwt>
<rscale>  0 0.12499911E+03</rscale>
<asrwt>0</asrwt>
<pdfrwt beam="2">  1        4 0.40295184E-01 0.12499911E+03</pdfrwt>
<pdfrwt beam="1">  1       -4 0.22944255E-02 0.12499911E+03</pdfrwt>
<totfact> 0.78601541E+03</totfact>
</mgrwt>
</event>
<event>
 5    1  0.3270363E-002  0.1250015E+03  0.7818608E-02  0.1235067E+00
          4   -1    0    0  501    0  0.00000000000E+00  0.00000000000E+00  0.30472480868E+02  0.30498934248E+02  0.12700000000E+01 0. -1.
         -4   -1    0    0    0  501 -0.00000000000E+00 -0.00000000000E+00 -0.12810722061E+03  0.12811351558E+03  0.12700000000E+01 0. -1.
         25    2    1    2    0    0  0.00000000000E+00  0.00000000000E+00 -0.97634739746E+02  0.15861244982E+03  0.12500146733E+03 0.  0.
    9000005    1    3    3    0    0 -0.60940520580E+02  0.13596942293E+02 -0.45528578285E+02  0.77281791704E+02  0.10000000000E+01 0.  0.
    9000005    1    3    3    0    0  0.60940520580E+02 -0.13596942293E+02 -0.52106161460E+02  0.81330658121E+02  0.10000000000E+01 0.  0.
<mgrwt>
<rscale>  0 0.12500147E+03</rscale>
<asrwt>0</asrwt>
<pdfrwt beam="1">  1        4 0.46905931E-02 0.12500147E+03</pdfrwt>
<pdfrwt beam="2">  1       -4 0.19711322E-01 0.12500147E+03</pdfrwt>
<totfact> 0.97607743E+03</totfact>
</mgrwt>
</event>
<event>
 5    1  0.3270363E-002  0.1249964E+03  0.7818608E-02  0.1235075E+00
         -4   -1    0    0    0  501 -0.00000000000E+00  0.00000000000E+00  0.17350497029E+03  0.17350961822E+03  0.12700000000E+01 0. -1.
          4   -1    0    0  501    0  0.00000000000E+00 -0.00000000000E+00 -0.22489605742E+02  0.22525435987E+02  0.12700000000E+01 0. -1.
         25    2    1    2    0    0  0.00000000000E+00  0.00000000000E+00  0.15101536455E+03  0.19603505421E+03  0.12499640854E+03 0.  0.
    9000005    1    3    3    0    0 -0.18547705459E+02  0.59662179487E+02  0.77384764322E+02  0.99463534967E+02  0.10000000000E+01 0.  0.
    9000005    1    3    3    0    0  0.18547705459E+02 -0.59662179487E+02  0.73630600226E+02  0.96571519241E+02  0.10000000000E+01 0.  0.
<mgrwt>
<rscale>  0 0.12499641E+03</rscale>
<asrwt>0</asrwt>
<pdfrwt beam="2">  1        4 0.34630529E-02 0.12499641E+03</pdfrwt>
<pdfrwt beam="1">  1       -4 0.26696187E-01 0.12499641E+03</pdfrwt>
<totfact> 0.90815009E+03</totfact>
</mgrwt>
</event>
<event>
 5    1  0.3270363E-002  0.1249996E+03  0.7818608E-02  0.1235070E+00
          4   -1    0    0  501    0  0.00000000000E+00  0.00000000000E+00  0.22170591706E+03  0.22170955451E+03  0.12700000000E+01 0. -1.
         -4   -1    0    0    0  501 -0.00000000000E+00 -0.00000000000E+00 -0.17592266726E+02  0.17638048320E+02  0.12700000000E+01 0. -1.
         25    2    1    2    0    0  0.00000000000E+00  0.00000000000E+00  0.20411365034E+03  0.23934760283E+03  0.12499957090E+03 0.  0.
    9000005    1    3    3    0    0  0.30777863904E+02 -0.11782487009E+02  0.20372318771E+03  0.20637403208E+03  0.10000000000E+01 0.  0.
    9000005    1    3    3    0    0 -0.30777863904E+02  0.11782487009E+02  0.39046262372E+00  0.32973570745E+02  0.10000000000E+01 0.  0.
<mgrwt>
<rscale>  0 0.12499957E+03</rscale>
<asrwt>0</asrwt>
<pdfrwt beam="1">  1        4 0.34112403E-01 0.12499957E+03</pdfrwt>
<pdfrwt beam="2">  1       -4 0.27103041E-02 0.12499957E+03</pdfrwt>
<totfact> 0.83895429E+03</totfact>
</mgrwt>
</event>
<event>
 5    1  0.3270363E-002  0.1250010E+03  0.7818608E-02  0.1235068E+00
          4   -1    0    0  501    0  0.00000000000E+00  0.00000000000E+00  0.69492841066E+01  0.70643789249E+01  0.12700000000E+01 0.  1.
         -4   -1    0    0    0  501 -0.00000000000E+00 -0.00000000000E+00 -0.55738486507E+03  0.55738631191E+03  0.12700000000E+01 0.  1.
         25    2    1    2    0    0  0.00000000000E+00  0.00000000000E+00 -0.55043558096E+03  0.56445069084E+03  0.12500101439E+03 0.  0.
    9000005    1    3    3    0    0  0.54444918955E+02 -0.11844458615E+02 -0.40299905518E+03  0.40683384676E+03  0.10000000000E+01 0.  0.
    9000005    1    3    3    0    0 -0.54444918955E+02  0.11844458615E+02 -0.14743652578E+03  0.15761684407E+03  0.10000000000E+01 0.  0.
<mgrwt>
<rscale>  0 0.12500101E+03</rscale>
<asrwt>0</asrwt>
<pdfrwt beam="1">  1        4 0.10780858E-02 0.12500101E+03</pdfrwt>
<pdfrwt beam="2">  1       -4 0.85760448E-01 0.12500101E+03</pdfrwt>
<totfact> 0.51190203E+03</totfact>
</mgrwt>
</event>
<event>
 5    1  0.3270363E-002  0.1250005E+03  0.7818608E-02  0.1235068E+00
          4   -1    0    0  501    0  0.00000000000E+00  0.00000000000E+00  0.82532783595E+03  0.82532881308E+03  0.12700000000E+01 0.  1.
         -4   -1    0    0    0  501 -0.00000000000E+00 -0.00000000000E+00 -0.46468162040E+01  0.48172399602E+01  0.12700000000E+01 0.  1.
         25    2    1    2    0    0  0.00000000000E+00  0.00000000000E+00  0.82068101975E+03  0.83014605304E+03  0.12500053280E+03 0.  0.
    9000005    1    3    3    0    0 -0.62308053363E+02 -0.43341764445E+01  0.42395841150E+03  0.42853566163E+03  0.10000000000E+01 0.  0.
    9000005    1    3    3    0    0  0.62308053363E+02  0.43341764445E+01  0.39672260824E+03  0.40161039141E+03  0.10000000000E+01 0.  0.
<mgrwt>
<rscale>  0 0.12500053E+03</rscale>
<asrwt>0</asrwt>
<pdfrwt beam="1">  1        4 0.12698678E+00 0.12500053E+03</pdfrwt>
<pdfrwt beam="2">  1       -4 0.72807903E-03 0.12500053E+03</pdfrwt>
<totfact> 0.36953364E+03</totfact>
</mgrwt>
</event>
<event>
 5    1  0.3270363E-002  0.1249900E+03  0.7818608E-02  0.1235085E+00
          4   -1    0    0  501    0  0.00000000000E+00  0.00000000000E+00  0.80307060829E+03  0.80307161250E+03  0.12700000000E+01 0.  1.
         -4   -1    0    0    0  501 -0.00000000000E+00 -0.00000000000E+00 -0.47794331807E+01  0.49452888215E+01  0.12700000000E+01 0.  1.
         25    2    1    2    0    0  0.00000000000E+00  0.00000000000E+00  0.79829117511E+03  0.80801690132E+03  0.12499004984E+03 0.  0.
    9000005    1    3    3    0    0  0.24066593610E+02  0.52735124678E+02  0.54998594691E+03  0.55303321429E+03  0.10000000000E+01 0.  0.
    9000005    1    3    3    0    0 -0.24066593610E+02 -0.52735124678E+02  0.24830522820E+03  0.25498368703E+03  0.10000000000E+01 0.  0.
<mgrwt>
<rscale>  0 0.12499005E+03</rscale>
<asrwt>0</asrwt>
<pdfrwt beam="1">  1        4 0.12356206E+00 0.12499005E+03</pdfrwt>
<pdfrwt beam="2">  1       -4 0.74813337E-03 0.12499005E+03</pdfrwt>
<totfact> 0.37917594E+03</totfact>
</mgrwt>
</event>
<event>
 5    1  0.3270363E-002  0.1249996E+03  0.7818608E-02  0.1235070E+00
         -4   -1    0    0    0  501 -0.00000000000E+00  0.00000000000E+00  0.18191611548E+03  0.18192054852E+03  0.12700000000E+01 0. -1.
          4   -1    0    0  501    0  0.00000000000E+00 -0.00000000000E+00 -0.21449196796E+02  0.21486762046E+02  0.12700000000E+01 0. -1.
         25    2    1    2    0    0  0.00000000000E+00  0.00000000000E+00  0.16046691869E+03  0.20340731056E+03  0.12499960799E+03 0.  0.
    9000005    1    3    3    0    0  0.12443668857E+02 -0.56162716214E+02  0.40502562941E+02  0.70360167652E+02  0.10000000000E+01 0.  0.
    9000005    1    3    3    0    0 -0.12443668857E+02  0.56162716214E+02  0.11996435575E+03  0.13304714291E+03  0.10000000000E+01 0.  0.
<mgrwt>
<rscale>  0 0.12499961E+03</rscale>
<asrwt>0</asrwt>
<pdfrwt beam="2">  1        4 0.33031071E-02 0.12499961E+03</pdfrwt>
<pdfrwt beam="1">  1       -4 0.27990325E-01 0.12499961E+03</pdfrwt>
<totfact> 0.89564786E+03</totfact>
</mgrwt>
</event>
<event>
 5    1  0.3270363E-002  0.1250003E+03  0.7818608E-02  0.1235069E+00
         -4   -1    0    0    0  501 -0.00000000000E+00  0.00000000000E+00  0.13797740294E+04  0.13797746139E+04  0.12700000000E+01 0. -1.
          4   -1    0    0  501    0  0.00000000000E+00 -0.00000000000E+00 -0.26880496374E+01  0.29729633118E+01  0.12700000000E+01 0. -1.
         25    2    1    2    0    0  0.00000000000E+00  0.00000000000E+00  0.13770859798E+04  0.13827475772E+04  0.12500026628E+03 0.  0.
    9000005    1    3    3    0    0  0.22773739854E+02  0.23054829919E+02  0.97468119512E+02  0.10271904756E+03  0.10000000000E+01 0.  0.
    9000005    1    3    3    0    0 -0.22773739854E+02 -0.23054829919E+02  0.12796178603E+04  0.12800285297E+04  0.10000000000E+01 0.  0.
<mgrwt>
<rscale>  0 0.12500027E+03</rscale>
<asrwt>0</asrwt>
<pdfrwt beam="2">  1        4 0.43550774E-03 0.12500027E+03</pdfrwt>
<pdfrwt beam="1">  1       -4 0.21229477E+00 0.12500027E+03</pdfrwt>
<totfact> 0.20354099E+03</totfact>
</mgrwt>
</event>
<event>
 5    1  0.3270363E-002  0.1249677E+03  0.7818608E-02  0.1235120E+00
          4   -1    0    0  501    0  0.00000000000E+00  0.00000000000E+00  0.80325941580E+02  0.80335980673E+02  0.12700000000E+01 0. -1.
         -4   -1    0    0    0  501 -0.00000000000E+00 -0.00000000000E+00 -0.48583505850E+02  0.48600102270E+02  0.12700000000E+01 0. -1.
         25    2    1    2    0    0  0.00000000000E+00  0.00000000000E+00  0.31742435730E+02  0.12893608294E+03  0.12496772087E+03 0.  0.
    9000005    1    3    3    0    0  0.47766012320E+02  0.12867646921E+01  0.57398368712E+02  0.74691501706E+02  0.10000000000E+01 0.  0.
    9000005    1    3    3    0    0 -0.47766012320E+02 -0.12867646921E+01 -0.25655932982E+02  0.54244581236E+02  0.10000000000E+01 0.  0.
<mgrwt>
<rscale>  0 0.12496772E+03</rscale>
<asrwt>0</asrwt>
<pdfrwt beam="1">  1        4 0.12359886E-01 0.12496772E+03</pdfrwt>
<pdfrwt beam="2">  1       -4 0.74764345E-02 0.12496772E+03</pdfrwt>
<totfact> 0.10374878E+04</totfact>
</mgrwt>
</event>
<event>
 5    1  0.3270363E-002  0.1250038E+03  0.7818608E-02  0.1235063E+00
         -4   -1    0    0    0  501 -0.00000000000E+00  0.00000000000E+00  0.24302358126E+03  0.24302689963E+03  0.12700000000E+01 0. -1.
          4   -1    0    0  501    0  0.00000000000E+00 -0.00000000000E+00 -0.16046001914E+02  0.16096182076E+02  0.12700000000E+01 0. -1.
         25    2    1    2    0    0  0.00000000000E+00  0.00000000000E+00  0.22697757934E+03  0.25912308171E+03  0.12500379975E+03 0.  0.
    9000005    1    3    3    0    0  0.14414140820E+02  0.49980504085E+02  0.18528700479E+03  0.19245283160E+03  0.10000000000E+01 0.  0.
    9000005    1    3    3    0    0 -0.14414140820E+02 -0.49980504085E+02  0.41690574549E+02  0.66670250115E+02  0.10000000000E+01 0.  0.
<mgrwt>
<rscale>  0 0.12500380E+03</rscale>
<asrwt>0</asrwt>
<pdfrwt beam="2">  1        4 0.24727308E-02 0.12500380E+03</pdfrwt>
<pdfrwt beam="1">  1       -4 0.37392360E-01 0.12500380E+03</pdfrwt>
<totfact> 0.81022425E+03</totfact>
</mgrwt>
</event>
<event>
 5    1  0.3270363E-002  0.1250024E+03  0.7818608E-02  0.1235065E+00
         -4   -1    0    0    0  501 -0.00000000000E+00  0.00000000000E+00  0.47574926690E+03  0.47575096201E+03  0.12700000000E+01 0. -1.
          4   -1    0    0  501    0  0.00000000000E+00 -0.00000000000E+00 -0.81602227757E+01  0.82584584366E+01  0.12700000000E+01 0. -1.
         25    2    1    2    0    0  0.00000000000E+00  0.00000000000E+00  0.46758904412E+03  0.48400942044E+03  0.12500241957E+03 0.  0.
    9000005    1    3    3    0    0 -0.37757998424E+02 -0.32768472765E+02  0.37897966695E+03  0.38226434206E+03  0.10000000000E+01 0.  0.
    9000005    1    3    3    0    0  0.37757998424E+02  0.32768472765E+02  0.88609377173E+02  0.10174507838E+03  0.10000000000E+01 0.  0.
<mgrwt>
<rscale>  0 0.12500242E+03</rscale>
<asrwt>0</asrwt>
<pdfrwt beam="2">  1        4 0.12631056E-02 0.12500242E+03</pdfrwt>
<pdfrwt beam="1">  1       -4 0.73199897E-01 0.12500242E+03</pdfrwt>
<totfact> 0.57123690E+03</totfact>
</mgrwt>
</event>
<event>
 5    1  0.3270363E-002  0.1249974E+03  0.7818608E-02  0.1235073E+00
         -4   -1    0    0    0  501 -0.00000000000E+00  0.00000000000E+00  0.18823168710E+02  0.18865963540E+02  0.12700000000E+01 0.  1.
          4   -1    0    0  501    0  0.00000000000E+00 -0.00000000000E+00 -0.20723446766E+03  0.20723835911E+03  0.12700000000E+01 0.  1.
         25    2    1    2    0    0  0.00000000000E+00  0.00000000000E+00 -0.18841129895E+03  0.22610432264E+03  0.12499738856E+03 0.  0.
    9000005    1    3    3    0    0 -0.44548124084E+02  0.20351425245E+02 -0.23999704928E+02  0.54549992719E+02  0.10000000000E+01 0.  0.
    9000005    1    3    3    0    0  0.44548124084E+02 -0.20351425245E+02 -0.16441159402E+03  0.17155432993E+03  0.10000000000E+01 0.  0.
<mgrwt>
<rscale>  0 0.12499739E+03</rscale>
<asrwt>0</asrwt>
<pdfrwt beam="2">  1        4 0.31885815E-01 0.12499739E+03</pdfrwt>
<pdfrwt beam="1">  1       -4 0.28994635E-02 0.12499739E+03</pdfrwt>
<totfact> 0.85916402E+03</totfact>
</mgrwt>
</event>
<event>
 5    1  0.3270363E-002  0.1250009E+03  0.7818608E-02  0.1235068E+00
          4   -1    0    0  501    0  0.00000000000E+00  0.00000000000E+00  0.34362953241E+02  0.34386413820E+02  0.12700000000E+01 0.  1.
         -4   -1    0    0    0  501 -0.00000000000E+00 -0.00000000000E+00 -0.11361200220E+03  0.11361910026E+03  0.12700000000E+01 0.  1.
         25    2    1    2    0    0  0.00000000000E+00  0.00000000000E+00 -0.79249048959E+02  0.14800551408E+03  0.12500088175E+03 0.  0.
    9000005    1    3    3    0    0  0.60296784446E+02 -0.12761715685E+02 -0.27391566464E+02  0.67452661290E+02  0.10000000000E+01 0.  0.
    9000005    1    3    3    0    0 -0.60296784446E+02  0.12761715685E+02 -0.51857482495E+02  0.80552852789E+02  0.10000000000E+01 0.  0.
<mgrwt>
<rscale>  0 0.12500088E+03</rscale>
<asrwt>0</asrwt>
<pdfrwt beam="1">  1        4 0.52889589E-02 0.12500088E+03</pdfrwt>
<pdfrwt beam="2">  1       -4 0.17481120E-01 0.12500088E+03</pdfrwt>
<totfact> 0.99700785E+03</totfact>
</mgrwt>
</event>
<event>
 5    1  0.3270363E-002  0.1250055E+03  0.7818608E-02  0.1235061E+00
         -4   -1    0    0    0  501 -0.00000000000E+00  0.00000000000E+00  0.19207572290E+01  0.23026524560E+01  0.12700000000E+01 0. -1.
          4   -1    0    0  501    0  0.00000000000E+00 -0.00000000000E+00 -0.18495896905E+04  0.18495901265E+04  0.12700000000E+01 0. -1.
         25    2    1    2    0    0  0.00000000000E+00  0.00000000000E+00 -0.18476689332E+04  0.18518927790E+04  0.12500551121E+03 0.  0.
    9000005    1    3    3    0    0  0.45574340836E+02 -0.26138953547E+02 -0.42247200878E+03  0.42572745229E+03  0.10000000000E+01 0.  0.
    9000005    1    3    3    0    0 -0.45574340836E+02  0.26138953547E+02 -0.14251969245E+04  0.14261653267E+04  0.10000000000E+01 0.  0.
<mgrwt>
<rscale>  0 0.12500551E+03</rscale>
<asrwt>0</asrwt>
<pdfrwt beam="2">  1        4 0.28458038E+00 0.12500551E+03</pdfrwt>
<pdfrwt beam="1">  1       -4 0.32491269E-03 0.12500551E+03</pdfrwt>
<totfact> 0.11919377E+03</totfact>
</mgrwt>
</event>
<event>
 5    1  0.3270363E-002  0.1250059E+03  0.7818608E-02  0.1235060E+00
          4   -1    0    0  501    0  0.00000000000E+00  0.00000000000E+00  0.82398256584E+03  0.82398354456E+03  0.12700000000E+01 0.  1.
         -4   -1    0    0    0  501 -0.00000000000E+00 -0.00000000000E+00 -0.46550927740E+01  0.48252242160E+01  0.12700000000E+01 0.  1.
         25    2    1    2    0    0  0.00000000000E+00  0.00000000000E+00  0.81932747306E+03  0.82880876878E+03  0.12500586819E+03 0.  0.
    9000005    1    3    3    0    0  0.36390358056E+02  0.32280281862E+02  0.66979436968E+03  0.67155920991E+03  0.10000000000E+01 0.  0.
    9000005    1    3    3    0    0 -0.36390358056E+02 -0.32280281862E+02  0.14953310338E+03  0.15724955886E+03  0.10000000000E+01 0.  0.
<mgrwt>
<rscale>  0 0.12500587E+03</rscale>
<asrwt>0</asrwt>
<pdfrwt beam="1">  1        4 0.12677972E+00 0.12500587E+03</pdfrwt>
<pdfrwt beam="2">  1       -4 0.72933040E-03 0.12500587E+03</pdfrwt>
<totfact> 0.37005769E+03</totfact>
</mgrwt>
</event>
<event>
 5    1  0.3270363E-002  0.1250022E+03  0.7818608E-02  0.1235066E+00
          4   -1    0    0  501    0  0.00000000000E+00  0.00000000000E+00  0.61045516592E+01  0.62352586923E+01  0.12700000000E+01 0. -1.
         -4   -1    0    0    0  501 -0.00000000000E+00 -0.00000000000E+00 -0.63300410510E+03  0.63300537910E+03  0.12700000000E+01 0. -1.
         25    2    1    2    0    0  0.00000000000E+00  0.00000000000E+00 -0.62689955344E+03  0.63924063779E+03  0.12500217160E+03 0.  0.
    9000005    1    3    3    0    0 -0.18588120609E+02  0.35058498613E+02 -0.66563783733E+02  0.77500670046E+02  0.10000000000E+01 0.  0.
    9000005    1    3    3    0    0  0.18588120609E+02 -0.35058498613E+02 -0.56033576970E+03  0.56173996775E+03  0.10000000000E+01 0.  0.
<mgrwt>
<rscale>  0 0.12500217E+03</rscale>
<asrwt>0</asrwt>
<pdfrwt beam="1">  1        4 0.94931468E-03 0.12500217E+03</pdfrwt>
<pdfrwt beam="2">  1       -4 0.97395348E-01 0.12500217E+03</pdfrwt>
<totfact> 0.46478515E+03</totfact>
</mgrwt>
</event>
<event>
 5    1  0.3270363E-002  0.1250011E+03  0.7818608E-02  0.1235068E+00
          4   -1    0    0  501    0  0.00000000000E+00  0.00000000000E+00  0.25332550963E+03  0.25332869306E+03  0.12700000000E+01 0. -1.
         -4   -1    0    0    0  501 -0.00000000000E+00 -0.00000000000E+00 -0.15390714835E+02  0.15443024417E+02  0.12700000000E+01 0. -1.
         25    2    1    2    0    0  0.00000000000E+00  0.00000000000E+00  0.23793479479E+03  0.26877171748E+03  0.12500107817E+03 0.  0.
    9000005    1    3    3    0    0  0.51368136986E+02 -0.20224087542E+02  0.55999847531E+02  0.78642750065E+02  0.10000000000E+01 0.  0.
    9000005    1    3    3    0    0 -0.51368136986E+02  0.20224087542E+02  0.18193494726E+03  0.19012896741E+03  0.10000000000E+01 0.  0.
<mgrwt>
<rscale>  0 0.12500108E+03</rscale>
<asrwt>0</asrwt>
<pdfrwt beam="1">  1        4 0.38977421E-01 0.12500108E+03</pdfrwt>
<pdfrwt beam="2">  1       -4 0.23720711E-02 0.12500108E+03</pdfrwt>
<totfact> 0.79688709E+03</totfact>
</mgrwt>
</event>
<event>
 5    1  0.3270363E-002  0.1250008E+03  0.7818608E-02  0.1235068E+00
         -4   -1    0    0    0  501 -0.00000000000E+00  0.00000000000E+00  0.43168762839E+01  0.44998134240E+01  0.12700000000E+01 0.  1.
          4   -1    0    0  501    0  0.00000000000E+00 -0.00000000000E+00 -0.88593215032E+03  0.88593306060E+03  0.12700000000E+01 0.  1.
         25    2    1    2    0    0  0.00000000000E+00  0.00000000000E+00 -0.88161527404E+03  0.89043287403E+03  0.12500084694E+03 0.  0.
    9000005    1    3    3    0    0  0.16157484799E+02  0.22550470889E+02 -0.41914546774E+02  0.50273425223E+02  0.10000000000E+01 0.  0.
    9000005    1    3    3    0    0 -0.16157484799E+02 -0.22550470889E+02 -0.83970072726E+03  0.84015944881E+03  0.10000000000E+01 0.  0.
<mgrwt>
<rscale>  0 0.12500085E+03</rscale>
<asrwt>0</asrwt>
<pdfrwt beam="2">  1        4 0.13631125E+00 0.12500085E+03</pdfrwt>
<pdfrwt beam="1">  1       -4 0.67827763E-03 0.12500085E+03</pdfrwt>
<totfact> 0.34526771E+03</totfact>
</mgrwt>
</event>
<event>
 5    1  0.3270363E-002  0.1250023E+03  0.7818608E-02  0.1235066E+00
         -4   -1    0    0    0  501 -0.00000000000E+00  0.00000000000E+00  0.34798412260E+02  0.34821579456E+02  0.12700000000E+01 0.  1.
          4   -1    0    0  501    0  0.00000000000E+00 -0.00000000000E+00 -0.11219372159E+03  0.11220090937E+03  0.12700000000E+01 0.  1.
         25    2    1    2    0    0  0.00000000000E+00  0.00000000000E+00 -0.77395309326E+02  0.14702248883E+03  0.12500231324E+03 0.  0.
    9000005    1    3    3    0    0 -0.25010737354E+02  0.10235759160E+02 -0.10497170658E+03  0.10839910945E+03  0.10000000000E+01 0.  0.
    9000005    1    3    3    0    0  0.25010737354E+02 -0.10235759160E+02  0.27576397252E+02  0.38623379370E+02  0.10000000000E+01 0.  0.
<mgrwt>
<rscale>  0 0.12500231E+03</rscale>
<asrwt>0</asrwt>
<pdfrwt beam="2">  1        4 0.17262907E-01 0.12500231E+03</pdfrwt>
<pdfrwt beam="1">  1       -4 0.53559369E-02 0.12500231E+03</pdfrwt>
<totfact> 0.99895364E+03</totfact>
</mgrwt>
</event>
<event>
 5    1  0.3270363E-002  0.1249973E+03  0.7818608E-02  0.1235074E+00
         -4   -1    0    0    0  501 -0.00000000000E+00  0.00000000000E+00  0.26435213660E+02  0.26465702735E+02  0.12700000000E+01 0.  1.
          4   -1    0    0  501    0  0.00000000000E+00 -0.00000000000E+00 -0.14764210442E+03  0.14764756651E+03  0.12700000000E+01 0.  1.
         25    2    1    2    0    0  0.00000000000E+00  0.00000000000E+00 -0.12120689076E+03  0.17411326925E+03  0.12499728061E+03 0.  0.
    9000005    1    3    3    0    0  0.34629923812E+02 -0.22577652999E+02 -0.12587999099E+03  0.13249812893E+03  0.10000000000E+01 0.  0.
    9000005    1    3    3    0    0 -0.34629923812E+02  0.22577652999E+02  0.46731002290E+01  0.41615140321E+02  0.10000000000E+01 0.  0.
<mgrwt>
<rscale>  0 0.12499728E+03</rscale>
<asrwt>0</asrwt>
<pdfrwt beam="2">  1        4 0.22716935E-01 0.12499728E+03</pdfrwt>
<pdfrwt beam="1">  1       -4 0.40697215E-02 0.12499728E+03</pdfrwt>
<totfact> 0.94693272E+03</totfact>
</mgrwt>
</event>
<event>
 5    1  0.3270363E-002  0.1250036E+03  0.7818608E-02  0.1235064E+00
          4   -1    0    0  501    0  0.00000000000E+00  0.00000000000E+00  0.13197643467E+03  0.13198254509E+03  0.12700000000E+01 0. -1.
         -4   -1    0    0    0  501 -0.00000000000E+00 -0.00000000000E+00 -0.29579374899E+02  0.29606626276E+02  0.12700000000E+01 0. -1.
         25    2    1    2    0    0  0.00000000000E+00  0.00000000000E+00  0.10239705977E+03  0.16158917136E+03  0.12500360976E+03 0.  0.
    9000005    1    3    3    0    0  0.19874169426E+02  0.33831787060E+02  0.11407500459E+03  0.12063863020E+03  0.10000000000E+01 0.  0.
    9000005    1    3    3    0    0 -0.19874169426E+02 -0.33831787060E+02 -0.11677944818E+02  0.40950541159E+02  0.10000000000E+01 0.  0.
<mgrwt>
<rscale>  0 0.12500361E+03</rscale>
<asrwt>0</asrwt>
<pdfrwt beam="1">  1        4 0.20306633E-01 0.12500361E+03</pdfrwt>
<pdfrwt beam="2">  1       -4 0.45532393E-02 0.12500361E+03</pdfrwt>
<totfact> 0.97029406E+03</totfact>
</mgrwt>
</event>
<event>
 5    1  0.3270363E-002  0.1249994E+03  0.7818608E-02  0.1235070E+00
          4   -1    0    0  501    0  0.00000000000E+00  0.00000000000E+00  0.10629203726E+03  0.10629962411E+03  0.12700000000E+01 0. -1.
         -4   -1    0    0    0  501 -0.00000000000E+00 -0.00000000000E+00 -0.36729965283E+02  0.36751914911E+02  0.12700000000E+01 0. -1.
         25    2    1    2    0    0  0.00000000000E+00  0.00000000000E+00  0.69562071980E+02  0.14305153902E+03  0.12499944383E+03 0.  0.
    9000005    1    3    3    0    0 -0.54730753034E+02 -0.95117286354E+01  0.67537911272E+02  0.87454546871E+02  0.10000000000E+01 0.  0.
    9000005    1    3    3    0    0  0.54730753034E+02  0.95117286354E+01  0.20241607074E+01  0.55596992148E+02  0.10000000000E+01 0.  0.
<mgrwt>
<rscale>  0 0.12499944E+03</rscale>
<asrwt>0</asrwt>
<pdfrwt beam="1">  1        4 0.16354893E-01 0.12499944E+03</pdfrwt>
<pdfrwt beam="2">  1       -4 0.56530359E-02 0.12499944E+03</pdfrwt>
<totfact> 0.10070854E+04</totfact>
</mgrwt>
</event>
<event>
 5    1  0.3270363E-002  0.1249966E+03  0.7818608E-02  0.1235075E+00
          4   -1    0    0  501    0  0.00000000000E+00  0.00000000000E+00  0.38362345228E+01  0.40409893979E+01  0.12700000000E+01 0.  1.
         -4   -1    0    0    0  501 -0.00000000000E+00 -0.00000000000E+00 -0.99152392039E+03  0.99152473373E+03  0.12700000000E+01 0.  1.
         25    2    1    2    0    0  0.00000000000E+00  0.00000000000E+00 -0.98768768587E+03  0.99556572313E+03  0.12499657700E+03 0.  0.
    9000005    1    3    3    0    0  0.54376596637E+02 -0.29766819028E+02 -0.55663830417E+03  0.56008042230E+03  0.10000000000E+01 0.  0.
    9000005    1    3    3    0    0 -0.54376596637E+02  0.29766819028E+02 -0.43104938170E+03  0.43548530083E+03  0.10000000000E+01 0.  0.
<mgrwt>
<rscale>  0 0.12499658E+03</rscale>
<asrwt>0</asrwt>
<pdfrwt beam="1">  1        4 0.60600365E-03 0.12499658E+03</pdfrwt>
<pdfrwt beam="2">  1       -4 0.15255776E+00 0.12499658E+03</pdfrwt>
<totfact> 0.30753684E+03</totfact>
</mgrwt>
</event>
<event>
 5    1  0.3270363E-002  0.1249955E+03  0.7818608E-02  0.1235076E+00
         -4   -1    0    0    0  501 -0.00000000000E+00  0.00000000000E+00  0.25377748752E+02  0.25409506719E+02  0.12700000000E+01 0. -1.
          4   -1    0    0  501    0  0.00000000000E+00 -0.00000000000E+00 -0.15378250258E+03  0.15378774658E+03  0.12700000000E+01 0. -1.
         25    2    1    2    0    0  0.00000000000E+00  0.00000000000E+00 -0.12840475382E+03  0.17919725330E+03  0.12499549906E+03 0.  0.
    9000005    1    3    3    0    0  0.25890947893E+02 -0.51760178157E+02 -0.30412742783E+02  0.65386482924E+02  0.10000000000E+01 0.  0.
    9000005    1    3    3    0    0 -0.25890947893E+02  0.51760178157E+02 -0.97992011042E+02  0.11381077038E+03  0.10000000000E+01 0.  0.
<mgrwt>
<rscale>  0 0.12499550E+03</rscale>
<asrwt>0</asrwt>
<pdfrwt beam="2">  1        4 0.23661692E-01 0.12499550E+03</pdfrwt>
<pdfrwt beam="1">  1       -4 0.39071154E-02 0.12499550E+03</pdfrwt>
<totfact> 0.93771164E+03</totfact>
</mgrwt>
</event>
<event>
 5    1  0.3270363E-002  0.1250078E+03  0.7818608E-02  0.1235057E+00
          4   -1    0    0  501    0  0.00000000000E+00  0.00000000000E+00  0.72939002043E+02  0.72950057704E+02  0.12700000000E+01 0. -1.
         -4   -1    0    0    0  501 -0.00000000000E+00 -0.00000000000E+00 -0.53539059980E+02  0.53554120697E+02  0.12700000000E+01 0. -1.
         25    2    1    2    0    0  0.00000000000E+00  0.00000000000E+00  0.19399942063E+02  0.12650417840E+03  0.12500779736E+03 0.  0.
    9000005    1    3    3    0    0 -0.45626059902E+02  0.20710820474E+02 -0.28097653804E+02  0.57455666180E+02  0.10000000000E+01 0.  0.
    9000005    1    3    3    0    0  0.45626059902E+02 -0.20710820474E+02  0.47497595867E+02  0.69048512221E+02  0.10000000000E+01 0.  0.
<mgrwt>
<rscale>  0 0.12500780E+03</rscale>
<asrwt>0</asrwt>
<pdfrwt beam="1">  1        4 0.11223394E-01 0.12500780E+03</pdfrwt>
<pdfrwt beam="2">  1       -4 0.82387874E-02 0.12500780E+03</pdfrwt>
<totfact> 0.10418103E+04</totfact>
</mgrwt>
</event>
<event>
 5    1  0.3270363E-002  0.1249979E+03  0.7818608E-02  0.1235073E+00
         -4   -1    0    0    0  501 -0.00000000000E+00  0.00000000000E+00  0.29520846053E+03  0.29521119231E+03  0.12700000000E+01 0.  1.
          4   -1    0    0  501    0  0.00000000000E+00 -0.00000000000E+00 -0.13198460243E+02  0.13259421284E+02  0.12700000000E+01 0.  1.
         25    2    1    2    0    0  0.00000000000E+00  0.00000000000E+00  0.28201000028E+03  0.30847061359E+03  0.12499791675E+03 0.  0.
    9000005    1    3    3    0    0 -0.30220141930E+02 -0.91237971831E+01  0.27409776634E+03  0.27591137375E+03  0.10000000000E+01 0.  0.
    9000005    1    3    3    0    0  0.30220141930E+02  0.91237971831E+01  0.79122339456E+01  0.32559239845E+02  0.10000000000E+01 0.  0.
<mgrwt>
<rscale>  0 0.12499792E+03</rscale>
<asrwt>0</asrwt>
<pdfrwt beam="2">  1        4 0.20354318E-02 0.12499792E+03</pdfrwt>
<pdfrwt beam="1">  1       -4 0.45421586E-01 0.12499792E+03</pdfrwt>
<totfact> 0.74551883E+03</totfact>
</mgrwt>
</event>
