<event>
 6    4  0.2398389E-003  0.1280999E+03  0.7818608E-02  0.1230303E+00
         -4   -1    0    0    0  501 -0.00000000000E+00  0.00000000000E+00  0.93201589641E+02  0.93210241989E+02  0.12700000000E+01 0.  1.
          4   -1    0    0  502    0  0.00000000000E+00 -0.00000000000E+00 -0.78133839202E+02  0.78144159913E+02  0.12700000000E+01 0.  1.
         25    2    1    2    0    0  0.27107405778E+02  0.66531648107E+01  0.39717835022E+02  0.13411594436E+03  0.12502201431E+03 0.  0.
    9000005    1    3    3    0    0  0.66545971399E+02 -0.22703185865E+02  0.46748629331E+02  0.84440720640E+02  0.10000000000E+01 0.  0.
    9000005    1    3    3    0    0 -0.39438565621E+02  0.29356350676E+02 -0.70307943096E+01  0.49675223722E+02  0.10000000000E+01 0.  0.
         21    1    1    2  502  501 -0.27107405778E+02 -0.66531648107E+01 -0.24650084583E+02  0.37238457540E+02  0.00000000000E+00 0.  1.
<mgrwt>
<rscale>  1 0.12809988E+03</rscale>
<asrwt>0</asrwt>
<pdfrwt beam="2">  1        4 0.12022050E-01 0.12809988E+03</pdfrwt>
<pdfrwt beam="1">  1       -4 0.14340165E-01 0.12809988E+03</pdfrwt>
<totfact> 0.36454500E+03</totfact>
</mgrwt>
</event>
<event>
 6    4  0.2398389E-003  0.1363147E+03  0.7818608E-02  0.1218376E+00
         -4   -1    0    0    0  501 -0.00000000000E+00  0.00000000000E+00  0.11431954447E+03  0.11432659860E+03  0.12700000000E+01 0.  1.
          4   -1    0    0  502    0  0.00000000000E+00 -0.00000000000E+00 -0.79519242060E+02  0.79529382984E+02  0.12700000000E+01 0.  1.
         25    2    1    2    0    0  0.98120432266E+01 -0.53499699525E+02  0.24838616510E+02  0.13855924364E+03  0.12499285214E+03 0.  0.
    9000005    1    3    3    0    0 -0.11106709436E+02  0.33769142286E+02 -0.17142888884E+02  0.39479014736E+02  0.10000000000E+01 0.  0.
    9000005    1    3    3    0    0  0.20918752662E+02 -0.87268841811E+02  0.41981505394E+02  0.99080228901E+02  0.10000000000E+01 0.  0.
         21    1    1    2  502  501 -0.98120432266E+01  0.53499699525E+02  0.99616858975E+01  0.55296737946E+02  0.00000000000E+00 0.  1.
<mgrwt>
<rscale>  1 0.13631474E+03</rscale>
<asrwt>0</asrwt>
<pdfrwt beam="2">  1        4 0.12235052E-01 0.13631474E+03</pdfrwt>
<pdfrwt beam="1">  1       -4 0.17588945E-01 0.13631474E+03</pdfrwt>
<totfact> 0.25085505E+03</totfact>
</mgrwt>
</event>
<event>
 6    4  0.2398389E-003  0.1361077E+03  0.7818608E-02  0.1218664E+00
         -4   -1    0    0    0  501 -0.00000000000E+00  0.00000000000E+00  0.88272262629E+02  0.88281398095E+02  0.12700000000E+01 0. -1.
          4   -1    0    0  502    0  0.00000000000E+00 -0.00000000000E+00 -0.10229260557E+03  0.10230048903E+03  0.12700000000E+01 0. -1.
         25    2    1    2    0    0 -0.53796172025E+02  0.22592043549E+01 -0.13019585699E+02  0.13672899821E+03  0.12500470876E+03 0.  0.
    9000005    1    3    3    0    0  0.27812940339E+02  0.26088146200E+02  0.22831188949E+02  0.44456880359E+02  0.10000000000E+01 0.  0.
    9000005    1    3    3    0    0 -0.81609112364E+02 -0.23828941845E+02 -0.35850774648E+02  0.92272117854E+02  0.10000000000E+01 0.  0.
         21    1    1    2  502  501  0.53796172025E+02 -0.22592043549E+01 -0.10007572469E+01  0.53852888910E+02  0.00000000000E+00 0. -1.
<mgrwt>
<rscale>  1 0.13610771E+03</rscale>
<asrwt>0</asrwt>
<pdfrwt beam="2">  1        4 0.15738633E-01 0.13610771E+03</pdfrwt>
<pdfrwt beam="1">  1       -4 0.13581657E-01 0.13610771E+03</pdfrwt>
<totfact> 0.25489563E+03</totfact>
</mgrwt>
</event>
<event>
 6    4  0.2398389E-003  0.2396304E+03  0.7818608E-02  0.1120039E+00
          4   -1    0    0  502    0  0.00000000000E+00  0.00000000000E+00  0.63165669983E+02  0.63178435912E+02  0.12700000000E+01 0. -1.
         -4   -1    0    0    0  501 -0.00000000000E+00 -0.00000000000E+00 -0.78042611996E+03  0.78042715331E+03  0.12700000000E+01 0. -1.
         25    2    1    2    0    0 -0.14696296441E+03 -0.14212598445E+03 -0.38502021656E+03  0.45350114030E+03  0.12499923491E+03 0.  0.
    9000005    1    3    3    0    0 -0.14263199005E+03 -0.14966472615E+03 -0.27969389358E+03  0.34781185855E+03  0.10000000000E+01 0.  0.
    9000005    1    3    3    0    0 -0.43309743609E+01  0.75387416981E+01 -0.10532632298E+03  0.10568928175E+03  0.10000000000E+01 0.  0.
         21    1    1    2  502  501  0.14696296441E+03  0.14212598445E+03 -0.33224023342E+03  0.39010444892E+03  0.00000000000E+00 0. -1.
<mgrwt>
<rscale>  1 0.23963038E+03</rscale>
<asrwt>0</asrwt>
<pdfrwt beam="1">  1        4 0.97188574E-02 0.23963038E+03</pdfrwt>
<pdfrwt beam="2">  1       -4 0.12006661E+00 0.23963038E+03</pdfrwt>
<totfact> 0.80109632E+01</totfact>
</mgrwt>
</event>
<event>
 6    4  0.2398389E-003  0.1375513E+03  0.7818608E-02  0.1216662E+00
         -4   -1    0    0    0  501 -0.00000000000E+00  0.00000000000E+00  0.25948227578E+03  0.25948538368E+03  0.12700000000E+01 0. -1.
          4   -1    0    0  502    0  0.00000000000E+00 -0.00000000000E+00 -0.71079018062E+02  0.71090362980E+02  0.12700000000E+01 0. -1.
         25    2    1    2    0    0  0.26380125541E+02 -0.50965293925E+02  0.22413218621E+03  0.26297450008E+03  0.12500791410E+03 0.  0.
    9000005    1    3    3    0    0  0.64822981554E+02 -0.69146616755E+02  0.16157348492E+03  0.18732395622E+03  0.10000000000E+01 0.  0.
    9000005    1    3    3    0    0 -0.38442856012E+02  0.18181322830E+02  0.62558701294E+02  0.75650543857E+02  0.10000000000E+01 0.  0.
         21    1    1    2  502  501 -0.26380125541E+02  0.50965293925E+02 -0.35728928493E+02  0.67601246584E+02  0.00000000000E+00 0.  1.
<mgrwt>
<rscale>  1 0.13755127E+03</rscale>
<asrwt>0</asrwt>
<pdfrwt beam="2">  1        4 0.10936345E-01 0.13755127E+03</pdfrwt>
<pdfrwt beam="1">  1       -4 0.39921461E-01 0.13755127E+03</pdfrwt>
<totfact> 0.66060977E+02</totfact>
</mgrwt>
</event>
<event>
 6    4  0.2398389E-003  0.1268351E+03  0.7818608E-02  0.1232229E+00
          4   -1    0    0  502    0  0.00000000000E+00  0.00000000000E+00  0.10050314840E+03  0.10051117221E+03  0.12700000000E+01 0. -1.
         -4   -1    0    0    0  501 -0.00000000000E+00 -0.00000000000E+00 -0.83413567645E+02  0.83423235176E+02  0.12700000000E+01 0. -1.
         25    2    1    2    0    0  0.19641149683E+02 -0.86590199291E+01 -0.31609459081E+02  0.13071458149E+03  0.12500556197E+03 0.  0.
    9000005    1    3    3    0    0 -0.87133729589E+01  0.23304474631E+02  0.40119122556E+02  0.47218274014E+02  0.10000000000E+01 0.  0.
    9000005    1    3    3    0    0  0.28354522642E+02 -0.31963494560E+02 -0.71728581637E+02  0.83496307478E+02  0.10000000000E+01 0.  0.
         21    1    1    2  502  501 -0.19641149683E+02  0.86590199291E+01  0.48699039841E+02  0.53219825896E+02  0.00000000000E+00 0. -1.
<mgrwt>
<rscale>  1 0.12683511E+03</rscale>
<asrwt>0</asrwt>
<pdfrwt beam="1">  1        4 0.15463384E-01 0.12683511E+03</pdfrwt>
<pdfrwt beam="2">  1       -4 0.12834217E-01 0.12683511E+03</pdfrwt>
<totfact> 0.28509853E+03</totfact>
</mgrwt>
</event>
<event>
 6    4  0.2398389E-003  0.1294832E+03  0.7818608E-02  0.1228225E+00
          4   -1    0    0  502    0  0.00000000000E+00  0.00000000000E+00  0.41202325137E+03  0.41202520865E+03  0.12700000000E+01 0.  1.
         -4   -1    0    0    0  501 -0.00000000000E+00 -0.00000000000E+00 -0.27338892890E+02  0.27368375261E+02  0.12700000000E+01 0.  1.
         25    2    1    2    0    0 -0.28647940824E+02 -0.17888240629E+02  0.13361030983E+03  0.18605809179E+03  0.12500081985E+03 0.  0.
    9000005    1    3    3    0    0  0.28433992602E+01 -0.67554801327E+02  0.91247465148E+02  0.11357304257E+03  0.10000000000E+01 0.  0.
    9000005    1    3    3    0    0 -0.31491340084E+02  0.49666560698E+02  0.42362844686E+02  0.72485049229E+02  0.10000000000E+01 0.  0.
         21    1    1    2  502  501  0.28647940824E+02  0.17888240629E+02  0.25107404864E+03  0.25333549212E+03  0.00000000000E+00 0.  1.
<mgrwt>
<rscale>  1 0.12948320E+03</rscale>
<asrwt>0</asrwt>
<pdfrwt beam="1">  1        4 0.63390603E-01 0.12948320E+03</pdfrwt>
<pdfrwt beam="2">  1       -4 0.42084025E-02 0.12948320E+03</pdfrwt>
<totfact> 0.12160688E+03</totfact>
</mgrwt>
</event>
<event>
 6    4  0.2398389E-003  0.1610728E+03  0.7818608E-02  0.1187491E+00
         -4   -1    0    0    0  501 -0.00000000000E+00  0.00000000000E+00  0.80231657157E+02  0.80241708046E+02  0.12700000000E+01 0. -1.
          4   -1    0    0  502    0  0.00000000000E+00 -0.00000000000E+00 -0.29574900762E+03  0.29575173442E+03  0.12700000000E+01 0. -1.
         25    2    1    2    0    0  0.56582169267E+02 -0.84366615314E+02 -0.29079333883E+02  0.16367669398E+03  0.12500073934E+03 0.  0.
    9000005    1    3    3    0    0  0.93664965983E+02 -0.69340913047E+02 -0.38167952138E+02  0.12263392942E+03  0.10000000000E+01 0.  0.
    9000005    1    3    3    0    0 -0.37082796715E+02 -0.15025702267E+02  0.90886182551E+01  0.41042764559E+02  0.10000000000E+01 0.  0.
         21    1    1    2  502  501 -0.56582169267E+02  0.84366615314E+02 -0.18643801658E+03  0.21231674848E+03  0.00000000000E+00 0. -1.
<mgrwt>
<rscale>  1 0.16107282E+03</rscale>
<asrwt>0</asrwt>
<pdfrwt beam="2">  1        4 0.45500830E-01 0.16107282E+03</pdfrwt>
<pdfrwt beam="1">  1       -4 0.12344315E-01 0.16107282E+03</pdfrwt>
<totfact> 0.42654604E+02</totfact>
</mgrwt>
</event>
<event>
 6    4  0.2398389E-003  0.1307123E+03  0.7818608E-02  0.1226403E+00
          4   -1    0    0  502    0  0.00000000000E+00  0.00000000000E+00  0.60574466305E+03  0.60574599438E+03  0.12700000000E+01 0.  1.
         -4   -1    0    0    0  501 -0.00000000000E+00 -0.00000000000E+00 -0.20900736245E+02  0.20939285460E+02  0.12700000000E+01 0.  1.
         25    2    1    2    0    0  0.31630645934E+02  0.21463511170E+02  0.19369997803E+03  0.23367794056E+03  0.12499807334E+03 0.  0.
    9000005    1    3    3    0    0  0.41260491489E+01  0.70965678118E+02  0.13197254943E+03  0.14990298715E+03  0.10000000000E+01 0.  0.
    9000005    1    3    3    0    0  0.27504596785E+02 -0.49502166948E+02  0.61727428597E+02  0.83774953405E+02  0.10000000000E+01 0.  0.
         21    1    1    2  502  501 -0.31630645934E+02 -0.21463511170E+02  0.39114394877E+03  0.39300733929E+03  0.00000000000E+00 0. -1.
<mgrwt>
<rscale>  1 0.13071227E+03</rscale>
<asrwt>0</asrwt>
<pdfrwt beam="1">  1        4 0.93194541E-01 0.13071227E+03</pdfrwt>
<pdfrwt beam="2">  1       -4 0.32185661E-02 0.13071227E+03</pdfrwt>
<totfact> 0.79945572E+02</totfact>
</mgrwt>
</event>
<event>
 6    4  0.2398389E-003  0.1309349E+03  0.7818608E-02  0.1226075E+00
          4   -1    0    0  502    0  0.00000000000E+00  0.00000000000E+00  0.11260071308E+02  0.11331465301E+02  0.12700000000E+01 0.  1.
         -4   -1    0    0    0  501 -0.00000000000E+00 -0.00000000000E+00 -0.64520355315E+03  0.64520480306E+03  0.12700000000E+01 0.  1.
         25    2    1    2    0    0  0.25561330829E+02  0.29418997980E+02 -0.51428514860E+03  0.53069122162E+03  0.12500039823E+03 0.  0.
    9000005    1    3    3    0    0 -0.28866968914E+01 -0.39701364387E+02 -0.73317971265E+02  0.83432944714E+02  0.10000000000E+01 0.  0.
    9000005    1    3    3    0    0  0.28448027721E+02  0.69120362367E+02 -0.44096717733E+03  0.44725827690E+03  0.10000000000E+01 0.  0.
         21    1    1    2  502  501 -0.25561330829E+02 -0.29418997980E+02 -0.11965833324E+03  0.12584504675E+03  0.00000000000E+00 0.  1.
<mgrwt>
<rscale>  1 0.13093494E+03</rscale>
<asrwt>0</asrwt>
<pdfrwt beam="1">  1        4 0.17379072E-02 0.13093494E+03</pdfrwt>
<pdfrwt beam="2">  1       -4 0.99267644E-01 0.13093494E+03</pdfrwt>
<totfact> 0.17989525E+03</totfact>
</mgrwt>
</event>
<event>
 6    4  0.2398389E-003  0.1266795E+03  0.7818608E-02  0.1232468E+00
          4   -1    0    0  502    0  0.00000000000E+00  0.00000000000E+00  0.33635662114E+02  0.33659629615E+02  0.12700000000E+01 0.  1.
         -4   -1    0    0    0  501 -0.00000000000E+00 -0.00000000000E+00 -0.16113639325E+03  0.16114139794E+03  0.12700000000E+01 0.  1.
         25    2    1    2    0    0  0.94035045614E+01  0.18269745627E+02 -0.11145764753E+03  0.16873207984E+03  0.12500199227E+03 0.  0.
    9000005    1    3    3    0    0  0.60905947034E+02 -0.12992908423E+02 -0.35206190152E+02  0.71545970385E+02  0.10000000000E+01 0.  0.
    9000005    1    3    3    0    0 -0.51502442472E+02  0.31262654050E+02 -0.76251457377E+02  0.97186109455E+02  0.10000000000E+01 0.  0.
         21    1    1    2  502  501 -0.94035045614E+01 -0.18269745627E+02 -0.16043083611E+02  0.26068947717E+02  0.00000000000E+00 0.  1.
<mgrwt>
<rscale>  1 0.12667955E+03</rscale>
<asrwt>0</asrwt>
<pdfrwt beam="1">  1        4 0.51769460E-02 0.12667955E+03</pdfrwt>
<pdfrwt beam="2">  1       -4 0.24792442E-01 0.12667955E+03</pdfrwt>
<totfact> 0.55121208E+03</totfact>
</mgrwt>
</event>
<event>
 6    4  0.2398389E-003  0.1369093E+03  0.7818608E-02  0.1217549E+00
          4   -1    0    0  502    0  0.00000000000E+00  0.00000000000E+00  0.76027150171E+01  0.77080591352E+01  0.12700000000E+01 0. -1.
         -4   -1    0    0    0  501 -0.00000000000E+00 -0.00000000000E+00 -0.13564192329E+04  0.13564198275E+04  0.12700000000E+01 0. -1.
         25    2    1    2    0    0  0.55528042995E+02  0.59251125276E+01 -0.11314306987E+04  0.11396839851E+04  0.12500275787E+03 0.  0.
    9000005    1    3    3    0    0 -0.34904230234E+02  0.24298783780E+02 -0.45555191228E+03  0.45753391237E+03  0.10000000000E+01 0.  0.
    9000005    1    3    3    0    0  0.90432273229E+02 -0.18373671252E+02 -0.67587878644E+03  0.68215007278E+03  0.10000000000E+01 0.  0.
         21    1    1    2  502  501 -0.55528042995E+02 -0.59251125276E+01 -0.21738581919E+03  0.22444390145E+03  0.00000000000E+00 0. -1.
<mgrwt>
<rscale>  1 0.13690931E+03</rscale>
<asrwt>0</asrwt>
<pdfrwt beam="1">  1        4 0.11777987E-02 0.13690931E+03</pdfrwt>
<pdfrwt beam="2">  1       -4 0.20868784E+00 0.13690931E+03</pdfrwt>
<totfact> 0.49388645E+02</totfact>
</mgrwt>
</event>
<event>
 6    4  0.2398389E-003  0.1327849E+03  0.7818608E-02  0.1223381E+00
         -4   -1    0    0    0  501 -0.00000000000E+00  0.00000000000E+00  0.54643145685E+02  0.54657902176E+02  0.12700000000E+01 0.  1.
          4   -1    0    0  502    0  0.00000000000E+00 -0.00000000000E+00 -0.14423819401E+03  0.14424378500E+03  0.12700000000E+01 0.  1.
         25    2    1    2    0    0  0.42409301562E+01  0.44590849790E+02 -0.67484342935E+02  0.14894958345E+03  0.12500204997E+03 0.  0.
    9000005    1    3    3    0    0  0.57455897188E+02  0.53380508046E+02 -0.45673480228E+02  0.90761916887E+02  0.10000000000E+01 0.  0.
    9000005    1    3    3    0    0 -0.53214967032E+02 -0.87896582560E+01 -0.21810862707E+02  0.58187666567E+02  0.10000000000E+01 0.  0.
         21    1    1    2  502  501 -0.42409301562E+01 -0.44590849790E+02 -0.22110705391E+02  0.49952103724E+02  0.00000000000E+00 0.  1.
<mgrwt>
<rscale>  1 0.13278495E+03</rscale>
<asrwt>0</asrwt>
<pdfrwt beam="2">  1        4 0.22192056E-01 0.13278495E+03</pdfrwt>
<pdfrwt beam="1">  1       -4 0.84082031E-02 0.13278495E+03</pdfrwt>
<totfact> 0.30922139E+03</totfact>
</mgrwt>
</event>
<event>
 6    4  0.2398389E-003  0.1299680E+03  0.7818608E-02  0.1227503E+00
          4   -1    0    0  502    0  0.00000000000E+00  0.00000000000E+00  0.18406751207E+03  0.18407189330E+03  0.12700000000E+01 0. -1.
         -4   -1    0    0    0  501 -0.00000000000E+00 -0.00000000000E+00 -0.91305090558E+02  0.91313922606E+02  0.12700000000E+01 0. -1.
         25    2    1    2    0    0  0.32004105056E+02  0.15582275421E+02 -0.41540951524E+02  0.13644530324E+03  0.12499840029E+03 0.  0.
    9000005    1    3    3    0    0  0.69169361771E+02  0.17569118881E+02  0.10828811818E+02  0.72189595590E+02  0.10000000000E+01 0.  0.
    9000005    1    3    3    0    0 -0.37165256715E+02 -0.19868434595E+01 -0.52369763342E+02  0.64255707654E+02  0.10000000000E+01 0.  0.
         21    1    1    2  502  501 -0.32004105056E+02 -0.15582275421E+02  0.13430337304E+03  0.13894051266E+03  0.00000000000E+00 0. -1.
<mgrwt>
<rscale>  1 0.12996796E+03</rscale>
<asrwt>0</asrwt>
<pdfrwt beam="1">  1        4 0.28319095E-01 0.12996796E+03</pdfrwt>
<pdfrwt beam="2">  1       -4 0.14047954E-01 0.12996796E+03</pdfrwt>
<totfact> 0.82161468E+02</totfact>
</mgrwt>
</event>
<event>
 6    4  0.2398389E-003  0.1266136E+03  0.7818608E-02  0.1232569E+00
         -4   -1    0    0    0  501 -0.00000000000E+00  0.00000000000E+00  0.13705504191E+03  0.13706092592E+03  0.12700000000E+01 0.  1.
          4   -1    0    0  502    0  0.00000000000E+00 -0.00000000000E+00 -0.40194392989E+02  0.40214451727E+02  0.12700000000E+01 0.  1.
         25    2    1    2    0    0  0.10057953357E+02  0.17511721740E+02  0.91986490451E+02  0.15650086815E+03  0.12499273771E+03 0.  0.
    9000005    1    3    3    0    0  0.38406032917E+02  0.56200065335E+02  0.21792973512E+02  0.71480097948E+02  0.10000000000E+01 0.  0.
    9000005    1    3    3    0    0 -0.28348079559E+02 -0.38688343595E+02  0.70193516939E+02  0.85020770199E+02  0.10000000000E+01 0.  0.
         21    1    1    2  502  501 -0.10057953357E+02 -0.17511721740E+02  0.48741584698E+01  0.20774509497E+02  0.00000000000E+00 0.  1.
<mgrwt>
<rscale>  1 0.12661361E+03</rscale>
<asrwt>0</asrwt>
<pdfrwt beam="2">  1        4 0.61857484E-02 0.12661361E+03</pdfrwt>
<pdfrwt beam="1">  1       -4 0.21087387E-01 0.12661361E+03</pdfrwt>
<totfact> 0.55521298E+03</totfact>
</mgrwt>
</event>
<event>
 6    4  0.2398389E-003  0.1287626E+03  0.7818608E-02  0.1229303E+00
         -4   -1    0    0    0  501 -0.00000000000E+00  0.00000000000E+00  0.55117387649E+03  0.55117533964E+03  0.12700000000E+01 0. -1.
          4   -1    0    0  502    0  0.00000000000E+00 -0.00000000000E+00 -0.16653772696E+02  0.16702126960E+02  0.12700000000E+01 0. -1.
         25    2    1    2    0    0 -0.16588995863E+02  0.26067741141E+02  0.51606684394E+03  0.53188795825E+03  0.12500036322E+03 0.  0.
    9000005    1    3    3    0    0 -0.73963850910E+01 -0.50758308212E+02  0.19674705243E+03  0.20332612967E+03  0.10000000000E+01 0.  0.
    9000005    1    3    3    0    0 -0.91926107723E+01  0.76826049352E+02  0.31931979151E+03  0.32856182858E+03  0.10000000000E+01 0.  0.
         21    1    1    2  502  501  0.16588995863E+02 -0.26067741141E+02  0.18453259853E+02  0.35989508348E+02  0.00000000000E+00 0. -1.
<mgrwt>
<rscale>  1 0.12876262E+03</rscale>
<asrwt>0</asrwt>
<pdfrwt beam="2">  1        4 0.25659514E-02 0.12876262E+03</pdfrwt>
<pdfrwt beam="1">  1       -4 0.84799798E-01 0.12876262E+03</pdfrwt>
<totfact> 0.14042066E+03</totfact>
</mgrwt>
</event>
<event>
 6    4  0.2398389E-003  0.1394878E+03  0.7818608E-02  0.1214020E+00
          4   -1    0    0  502    0  0.00000000000E+00  0.00000000000E+00  0.17896185322E+03  0.17896635943E+03  0.12700000000E+01 0. -1.
         -4   -1    0    0    0  501 -0.00000000000E+00 -0.00000000000E+00 -0.67793764619E+02  0.67805659212E+02  0.12700000000E+01 0. -1.
         25    2    1    2    0    0  0.60886646516E+02  0.11157093198E+02  0.26650529948E+02  0.14201094680E+03  0.12500077525E+03 0.  0.
    9000005    1    3    3    0    0  0.30299535334E+02 -0.49712171576E+02 -0.17532174577E+02  0.60809037072E+02  0.10000000000E+01 0.  0.
    9000005    1    3    3    0    0  0.30587111182E+02  0.60869264774E+02  0.44182704525E+02  0.81201909730E+02  0.10000000000E+01 0.  0.
         21    1    1    2  502  501 -0.60886646516E+02 -0.11157093198E+02  0.84517558650E+02  0.10476107184E+03  0.00000000000E+00 0. -1.
<mgrwt>
<rscale>  1 0.13948784E+03</rscale>
<asrwt>0</asrwt>
<pdfrwt beam="1">  1        4 0.27533854E-01 0.13948784E+03</pdfrwt>
<pdfrwt beam="2">  1       -4 0.10431072E-01 0.13948784E+03</pdfrwt>
<totfact> 0.14632423E+03</totfact>
</mgrwt>
</event>
<event>
 6    4  0.2398389E-003  0.1268078E+03  0.7818608E-02  0.1232271E+00
         -4   -1    0    0    0  501 -0.00000000000E+00  0.00000000000E+00  0.41750448903E+03  0.41750642062E+03  0.12700000000E+01 0. -1.
          4   -1    0    0  502    0  0.00000000000E+00 -0.00000000000E+00 -0.13358633838E+02  0.13418867241E+02  0.12700000000E+01 0. -1.
         25    2    1    2    0    0 -0.21120631874E+02 -0.29984317964E+01  0.32240195271E+03  0.34644370835E+03  0.12500060904E+03 0.  0.
    9000005    1    3    3    0    0 -0.71419779836E+01 -0.49789185978E+02  0.54680202229E+02  0.74302728117E+02  0.10000000000E+01 0.  0.
    9000005    1    3    3    0    0 -0.13978653890E+02  0.46790754181E+02  0.26772175048E+03  0.27214098023E+03  0.10000000000E+01 0.  0.
         21    1    1    2  502  501  0.21120631874E+02  0.29984317964E+01  0.81743902479E+02  0.84481579510E+02  0.00000000000E+00 0. -1.
<mgrwt>
<rscale>  1 0.12680782E+03</rscale>
<asrwt>0</asrwt>
<pdfrwt beam="2">  1        4 0.20599563E-02 0.12680782E+03</pdfrwt>
<pdfrwt beam="1">  1       -4 0.64236242E-01 0.12680782E+03</pdfrwt>
<totfact> 0.35965842E+03</totfact>
</mgrwt>
</event>
<event>
 6    4  0.2398389E-003  0.1424740E+03  0.7818608E-02  0.1210038E+00
         -4   -1    0    0    0  501 -0.00000000000E+00  0.00000000000E+00  0.12212714358E+03  0.12213374677E+03  0.12700000000E+01 0. -1.
          4   -1    0    0  502    0  0.00000000000E+00 -0.00000000000E+00 -0.97903710698E+02  0.97911947527E+02  0.12700000000E+01 0. -1.
         25    2    1    2    0    0  0.47930333962E+02  0.48739388974E+02 -0.11460383091E+02  0.14293421866E+03  0.12500402207E+03 0.  0.
    9000005    1    3    3    0    0 -0.30209923522E+02 -0.17684826080E+02 -0.19454085397E+02  0.40060628944E+02  0.10000000000E+01 0.  0.
    9000005    1    3    3    0    0  0.78140257485E+02  0.66424215055E+02  0.79937023066E+01  0.10287358972E+03  0.10000000000E+01 0.  0.
         21    1    1    2  502  501 -0.47930333962E+02 -0.48739388974E+02  0.35683815974E+02  0.77111475630E+02  0.00000000000E+00 0. -1.
<mgrwt>
<rscale>  1 0.14247403E+03</rscale>
<asrwt>0</asrwt>
<pdfrwt beam="2">  1        4 0.15063251E-01 0.14247403E+03</pdfrwt>
<pdfrwt beam="1">  1       -4 0.18789933E-01 0.14247403E+03</pdfrwt>
<totfact> 0.15711813E+03</totfact>
</mgrwt>
</event>
<event>
 6    4  0.2398389E-003  0.1376378E+03  0.7818608E-02  0.1216543E+00
         -4   -1    0    0    0  501 -0.00000000000E+00  0.00000000000E+00  0.40573717985E+02  0.40593589286E+02  0.12700000000E+01 0. -1.
          4   -1    0    0  502    0  0.00000000000E+00 -0.00000000000E+00 -0.25388348763E+03  0.25388666406E+03  0.12700000000E+01 0. -1.
         25    2    1    2    0    0  0.26576546222E+01 -0.57538995799E+02 -0.10998245068E+03  0.17618260329E+03  0.12500548420E+03 0.  0.
    9000005    1    3    3    0    0  0.37940691698E+02 -0.66550291268E+02 -0.11624343935E+03  0.13921916013E+03  0.10000000000E+01 0.  0.
    9000005    1    3    3    0    0 -0.35283037076E+02  0.90112954690E+01  0.62609886722E+01  0.36963443163E+02  0.10000000000E+01 0.  0.
         21    1    1    2  502  501 -0.26576546222E+01  0.57538995799E+02 -0.10332731896E+03  0.11829765006E+03  0.00000000000E+00 0. -1.
<mgrwt>
<rscale>  1 0.13763782E+03</rscale>
<asrwt>0</asrwt>
<pdfrwt beam="2">  1        4 0.39060770E-01 0.13763782E+03</pdfrwt>
<pdfrwt beam="1">  1       -4 0.62438835E-02 0.13763782E+03</pdfrwt>
<totfact> 0.17504720E+03</totfact>
</mgrwt>
</event>
<event>
 6    4  0.2398389E-003  0.1276755E+03  0.7818608E-02  0.1230946E+00
         -4   -1    0    0    0  501 -0.00000000000E+00  0.00000000000E+00  0.13657955015E+04  0.13657960920E+04  0.12700000000E+01 0. -1.
          4   -1    0    0  502    0  0.00000000000E+00 -0.00000000000E+00 -0.43688755120E+01  0.45497223255E+01  0.12700000000E+01 0. -1.
         25    2    1    2    0    0 -0.22423222791E+02 -0.13135455348E+02  0.12086440544E+04  0.12153688635E+04  0.12500273164E+03 0.  0.
    9000005    1    3    3    0    0  0.21689411564E+02  0.13812834043E+02  0.56715409335E+02  0.62280515527E+02  0.10000000000E+01 0.  0.
    9000005    1    3    3    0    0 -0.44112634355E+02 -0.26948289390E+02  0.11519286451E+04  0.11530883480E+04  0.10000000000E+01 0.  0.
         21    1    1    2  502  501  0.22423222791E+02  0.13135455348E+02  0.15278257159E+03  0.15497695083E+03  0.00000000000E+00 0.  1.
<mgrwt>
<rscale>  1 0.12767546E+03</rscale>
<asrwt>0</asrwt>
<pdfrwt beam="2">  1        4 0.68609052E-03 0.12767546E+03</pdfrwt>
<pdfrwt beam="1">  1       -4 0.21013661E+00 0.12767546E+03</pdfrwt>
<totfact> 0.10751205E+03</totfact>
</mgrwt>
</event>
<event>
 6    4  0.2398389E-003  0.1281635E+03  0.7818608E-02  0.1230206E+00
         -4   -1    0    0    0  501 -0.00000000000E+00  0.00000000000E+00  0.12802715260E+03  0.12803345149E+03  0.12700000000E+01 0.  1.
          4   -1    0    0  502    0  0.00000000000E+00 -0.00000000000E+00 -0.70407207086E+02  0.70418660237E+02  0.12700000000E+01 0.  1.
         25    2    1    2    0    0  0.30452165204E+01  0.28151986426E+02  0.89114195407E+02  0.15610006975E+03  0.12499633703E+03 0.  0.
    9000005    1    3    3    0    0 -0.23512193836E+02  0.58177169159E+02  0.50463826979E+01  0.62959290408E+02  0.10000000000E+01 0.  0.
    9000005    1    3    3    0    0  0.26557410357E+02 -0.30025182733E+02  0.84067812709E+02  0.93140779343E+02  0.10000000000E+01 0.  0.
         21    1    1    2  502  501 -0.30452165204E+01 -0.28151986426E+02 -0.31494249897E+02  0.42352041981E+02  0.00000000000E+00 0. -1.
<mgrwt>
<rscale>  1 0.12816354E+03</rscale>
<asrwt>0</asrwt>
<pdfrwt beam="2">  1        4 0.10833244E-01 0.12816354E+03</pdfrwt>
<pdfrwt beam="1">  1       -4 0.19697850E-01 0.12816354E+03</pdfrwt>
<totfact> 0.24861234E+03</totfact>
</mgrwt>
</event>
<event>
 6    4  0.2398389E-003  0.1271861E+03  0.7818608E-02  0.1231692E+00
          4   -1    0    0  502    0  0.00000000000E+00  0.00000000000E+00  0.36119107329E+02  0.36141427950E+02  0.12700000000E+01 0.  1.
         -4   -1    0    0    0  501 -0.00000000000E+00 -0.00000000000E+00 -0.20145914163E+03  0.20146314464E+03  0.12700000000E+01 0.  1.
         25    2    1    2    0    0 -0.16975750728E+02 -0.16247462046E+02 -0.17130799768E+03  0.21336054811E+03  0.12499654910E+03 0.  0.
    9000005    1    3    3    0    0  0.49762346613E+02 -0.27393903924E+02 -0.10029523695E+03  0.11526860660E+03  0.10000000000E+01 0.  0.
    9000005    1    3    3    0    0 -0.66738097341E+02  0.11146441878E+02 -0.71012760735E+02  0.98091941516E+02  0.10000000000E+01 0.  0.
         21    1    1    2  502  501  0.16975750728E+02  0.16247462046E+02  0.59679633798E+01  0.24244024473E+02  0.00000000000E+00 0.  1.
<mgrwt>
<rscale>  1 0.12718606E+03</rscale>
<asrwt>0</asrwt>
<pdfrwt beam="1">  1        4 0.55588107E-02 0.12718606E+03</pdfrwt>
<pdfrwt beam="2">  1       -4 0.30995738E-01 0.12718606E+03</pdfrwt>
<totfact> 0.32416297E+03</totfact>
</mgrwt>
</event>
<event>
 6    4  0.2398389E-003  0.1703184E+03  0.7818608E-02  0.1177516E+00
          4   -1    0    0  502    0  0.00000000000E+00  0.00000000000E+00  0.82544572964E+02  0.82554342259E+02  0.12700000000E+01 0.  1.
         -4   -1    0    0    0  501 -0.00000000000E+00 -0.00000000000E+00 -0.36242513867E+03  0.36242736381E+03  0.12700000000E+01 0.  1.
         25    2    1    2    0    0 -0.61822446985E+02 -0.97786759248E+02 -0.28180467982E+03  0.32927532141E+03  0.12499637791E+03 0.  0.
    9000005    1    3    3    0    0  0.17815926525E+02 -0.88316064857E+02 -0.15103480683E+03  0.17586826725E+03  0.10000000000E+01 0.  0.
    9000005    1    3    3    0    0 -0.79638373510E+02 -0.94706943914E+01 -0.13076987298E+03  0.15340705417E+03  0.10000000000E+01 0.  0.
         21    1    1    2  502  501  0.61822446985E+02  0.97786759248E+02  0.19241141107E+01  0.11570638466E+03  0.00000000000E+00 0.  1.
<mgrwt>
<rscale>  1 0.17031841E+03</rscale>
<asrwt>0</asrwt>
<pdfrwt beam="1">  1        4 0.12700088E-01 0.17031841E+03</pdfrwt>
<pdfrwt beam="2">  1       -4 0.55758635E-01 0.17031841E+03</pdfrwt>
<totfact> 0.27036107E+02</totfact>
</mgrwt>
</event>
<event>
 6    4  0.2398389E-003  0.1273364E+03  0.7818608E-02  0.1231462E+00
         -4   -1    0    0    0  501 -0.00000000000E+00  0.00000000000E+00  0.21558786146E+03  0.21559160213E+03  0.12700000000E+01 0. -1.
          4   -1    0    0  502    0  0.00000000000E+00 -0.00000000000E+00 -0.41430702381E+02  0.41450162844E+02  0.12700000000E+01 0. -1.
         25    2    1    2    0    0 -0.10417934713E+02  0.21950505400E+02  0.18949787970E+03  0.22830684266E+03  0.12499683974E+03 0.  0.
    9000005    1    3    3    0    0 -0.71993873222E+01  0.59773733983E+02  0.35941749459E+02  0.70125172415E+02  0.10000000000E+01 0.  0.
    9000005    1    3    3    0    0 -0.32185473908E+01 -0.37823228584E+02  0.15355613024E+03  0.15818167025E+03  0.10000000000E+01 0.  0.
         21    1    1    2  502  501  0.10417934713E+02 -0.21950505400E+02 -0.15340720622E+02  0.28734922310E+02  0.00000000000E+00 0. -1.
<mgrwt>
<rscale>  1 0.12733644E+03</rscale>
<asrwt>0</asrwt>
<pdfrwt beam="2">  1        4 0.63757390E-02 0.12733644E+03</pdfrwt>
<pdfrwt beam="1">  1       -4 0.33169148E-01 0.12733644E+03</pdfrwt>
<totfact> 0.22815988E+03</totfact>
</mgrwt>
</event>
<event>
 6    4  0.2398389E-003  0.1349354E+03  0.7818608E-02  0.1220311E+00
         -4   -1    0    0    0  501 -0.00000000000E+00  0.00000000000E+00  0.40826465441E+02  0.40846213783E+02  0.12700000000E+01 0.  1.
          4   -1    0    0  502    0  0.00000000000E+00 -0.00000000000E+00 -0.28720272506E+03  0.28720553300E+03  0.12700000000E+01 0.  1.
         25    2    1    2    0    0  0.27423842871E+02  0.42788687400E+02 -0.86472110347E+02  0.16026534720E+03  0.12499846687E+03 0.  0.
    9000005    1    3    3    0    0  0.41008881917E+02 -0.18489344119E+02 -0.86487088409E+02  0.97491541702E+02  0.10000000000E+01 0.  0.
    9000005    1    3    3    0    0 -0.13585039046E+02  0.61278031519E+02  0.14978061685E-01  0.62773805501E+02  0.10000000000E+01 0.  0.
         21    1    1    2  502  501 -0.27423842871E+02 -0.42788687400E+02 -0.15990414928E+03  0.16778639958E+03  0.00000000000E+00 0.  1.
<mgrwt>
<rscale>  1 0.13493538E+03</rscale>
<asrwt>0</asrwt>
<pdfrwt beam="2">  1        4 0.44186768E-01 0.13493538E+03</pdfrwt>
<pdfrwt beam="1">  1       -4 0.62827300E-02 0.13493538E+03</pdfrwt>
<totfact> 0.13518338E+03</totfact>
</mgrwt>
</event>
<event>
 6    4  0.2398389E-003  0.1297608E+03  0.7818608E-02  0.1227811E+00
         -4   -1    0    0    0  501 -0.00000000000E+00  0.00000000000E+00  0.51955344105E+01  0.53485023895E+01  0.12700000000E+01 0. -1.
          4   -1    0    0  502    0  0.00000000000E+00 -0.00000000000E+00 -0.15332930781E+04  0.15332936040E+04  0.12700000000E+01 0. -1.
         25    2    1    2    0    0 -0.32173019257E+02  0.13330514802E+02 -0.86999427453E+03  0.87961804113E+03  0.12500021908E+03 0.  0.
    9000005    1    3    3    0    0 -0.70298877385E+02  0.41419417313E+02 -0.59593751300E+03  0.60149814605E+03  0.10000000000E+01 0.  0.
    9000005    1    3    3    0    0  0.38125858128E+02 -0.28088902510E+02 -0.27405676152E+03  0.27811989508E+03  0.10000000000E+01 0.  0.
         21    1    1    2  502  501  0.32173019257E+02 -0.13330514802E+02 -0.65810326915E+03  0.65902406531E+03  0.00000000000E+00 0. -1.
<mgrwt>
<rscale>  1 0.12976078E+03</rscale>
<asrwt>0</asrwt>
<pdfrwt beam="2">  1        4 0.23590269E+00 0.12976078E+03</pdfrwt>
<pdfrwt beam="1">  1       -4 0.81112143E-03 0.12976078E+03</pdfrwt>
<totfact> 0.59089450E+02</totfact>
</mgrwt>
</event>
<event>
 6    4  0.2398389E-003  0.1874486E+03  0.7818608E-02  0.1160783E+00
         -4   -1    0    0    0  501 -0.00000000000E+00  0.00000000000E+00  0.61612856261E+02  0.61625943860E+02  0.12700000000E+01 0.  1.
          4   -1    0    0  502    0  0.00000000000E+00 -0.00000000000E+00 -0.10014090232E+04  0.10014098285E+04  0.12700000000E+01 0.  1.
         25    2    1    2    0    0 -0.36911950238E+02  0.13472315403E+03 -0.10146834373E+03  0.21314968620E+03  0.12499657453E+03 0.  0.
    9000005    1    3    3    0    0 -0.69395702817E+02  0.13137037294E+03 -0.59701945881E+02  0.16012264299E+03  0.10000000000E+01 0.  0.
    9000005    1    3    3    0    0  0.32483752580E+02  0.33527810949E+01 -0.41766397846E+02  0.53027043212E+02  0.10000000000E+01 0.  0.
         21    1    1    2  502  501  0.36911950238E+02 -0.13472315403E+03 -0.83832782317E+03  0.84988608614E+03  0.00000000000E+00 0.  1.
<mgrwt>
<rscale>  1 0.18744856E+03</rscale>
<asrwt>0</asrwt>
<pdfrwt beam="2">  1        4 0.15406398E+00 0.18744856E+03</pdfrwt>
<pdfrwt beam="1">  1       -4 0.94799704E-02 0.18744856E+03</pdfrwt>
<totfact> 0.43419770E+01</totfact>
</mgrwt>
</event>
<event>
 6    4  0.2398389E-003  0.1296168E+03  0.7818608E-02  0.1228025E+00
         -4   -1    0    0    0  501 -0.00000000000E+00  0.00000000000E+00  0.84358016664E+02  0.84367575973E+02  0.12700000000E+01 0.  1.
          4   -1    0    0  502    0  0.00000000000E+00 -0.00000000000E+00 -0.79628465685E+02  0.79638592700E+02  0.12700000000E+01 0.  1.
         25    2    1    2    0    0 -0.34271663119E+02  0.10843209052E+01  0.50642254037E+01  0.12971572319E+03  0.12499919927E+03 0.  0.
    9000005    1    3    3    0    0 -0.66457194994E+02 -0.22300793777E+02 -0.30396725476E+02  0.76412335975E+02  0.10000000000E+01 0.  0.
    9000005    1    3    3    0    0  0.32185531875E+02  0.23385114682E+02  0.35460950880E+02  0.53303387210E+02  0.10000000000E+01 0.  0.
         21    1    1    2  502  501  0.34271663119E+02 -0.10843209052E+01 -0.33467442428E+00  0.34290445488E+02  0.00000000000E+00 0.  1.
<mgrwt>
<rscale>  1 0.12961683E+03</rscale>
<asrwt>0</asrwt>
<pdfrwt beam="2">  1        4 0.12252048E-01 0.12961683E+03</pdfrwt>
<pdfrwt beam="1">  1       -4 0.12979671E-01 0.12961683E+03</pdfrwt>
<totfact> 0.42050737E+03</totfact>
</mgrwt>
</event>
<event>
 6    4  0.2398389E-003  0.1304386E+03  0.7818608E-02  0.1226806E+00
          4   -1    0    0  502    0  0.00000000000E+00  0.00000000000E+00  0.55461445204E+02  0.55475984030E+02  0.12700000000E+01 0.  1.
         -4   -1    0    0    0  501 -0.00000000000E+00 -0.00000000000E+00 -0.15034773351E+03  0.15035309731E+03  0.12700000000E+01 0.  1.
         25    2    1    2    0    0  0.33350763820E+01  0.37126968412E+02 -0.10472404524E+03  0.16727631258E+03  0.12499881832E+03 0.  0.
    9000005    1    3    3    0    0 -0.86285375792E+01  0.50716730512E+02  0.88958640246E+01  0.52218529387E+02  0.10000000000E+01 0.  0.
    9000005    1    3    3    0    0  0.11963613961E+02 -0.13589762100E+02 -0.11361990926E+03  0.11505778319E+03  0.10000000000E+01 0.  0.
         21    1    1    2  502  501 -0.33350763820E+01 -0.37126968412E+02  0.98377569290E+01  0.38552768764E+02  0.00000000000E+00 0.  1.
<mgrwt>
<rscale>  1 0.13043864E+03</rscale>
<asrwt>0</asrwt>
<pdfrwt beam="1">  1        4 0.85340611E-02 0.13043864E+03</pdfrwt>
<pdfrwt beam="2">  1       -4 0.23131951E-01 0.13043864E+03</pdfrwt>
<totfact> 0.27851261E+03</totfact>
</mgrwt>
</event>
<event>
 6    4  0.2398389E-003  0.1267212E+03  0.7818608E-02  0.1232404E+00
         -4   -1    0    0    0  501 -0.00000000000E+00  0.00000000000E+00  0.12702426438E+03  0.12703061300E+03  0.12700000000E+01 0. -1.
          4   -1    0    0  502    0  0.00000000000E+00 -0.00000000000E+00 -0.49539776571E+02  0.49556052735E+02  0.12700000000E+01 0. -1.
         25    2    1    2    0    0 -0.34359240890E+01  0.20530763179E+02  0.86986713459E+02  0.15370413739E+03  0.12499982289E+03 0.  0.
    9000005    1    3    3    0    0 -0.25052626970E+02 -0.14451588233E+02  0.10491452109E+03  0.10883262037E+03  0.10000000000E+01 0.  0.
    9000005    1    3    3    0    0  0.21616702881E+02  0.34982351411E+02 -0.17927807632E+02  0.44871517026E+02  0.10000000000E+01 0.  0.
         21    1    1    2  502  501  0.34359240890E+01 -0.20530763179E+02 -0.95022256540E+01  0.22882528344E+02  0.00000000000E+00 0. -1.
<mgrwt>
<rscale>  1 0.12672124E+03</rscale>
<asrwt>0</asrwt>
<pdfrwt beam="2">  1        4 0.76232445E-02 0.12672124E+03</pdfrwt>
<pdfrwt beam="1">  1       -4 0.19543935E-01 0.12672124E+03</pdfrwt>
<totfact> 0.45225213E+03</totfact>
</mgrwt>
</event>
<event>
 6    4  0.2398389E-003  0.1266018E+03  0.7818608E-02  0.1232587E+00
         -4   -1    0    0    0  501 -0.00000000000E+00  0.00000000000E+00  0.23279776985E+02  0.23314392904E+02  0.12700000000E+01 0. -1.
          4   -1    0    0  502    0  0.00000000000E+00 -0.00000000000E+00 -0.44132731155E+03  0.44132913888E+03  0.12700000000E+01 0. -1.
         25    2    1    2    0    0 -0.12073397071E+02 -0.16005243648E+02 -0.15189714968E+03  0.19773912545E+03  0.12500433158E+03 0.  0.
    9000005    1    3    3    0    0  0.38610179363E+02  0.14207811081E+02 -0.12733077160E+03  0.13381604255E+03  0.10000000000E+01 0.  0.
    9000005    1    3    3    0    0 -0.50683576434E+02 -0.30213054729E+02 -0.24566378073E+02  0.63923082903E+02  0.10000000000E+01 0.  0.
         21    1    1    2  502  501  0.12073397071E+02  0.16005243648E+02 -0.26615038489E+03  0.26690440633E+03  0.00000000000E+00 0. -1.
<mgrwt>
<rscale>  1 0.12660181E+03</rscale>
<asrwt>0</asrwt>
<pdfrwt beam="2">  1        4 0.67899307E-01 0.12660181E+03</pdfrwt>
<pdfrwt beam="1">  1       -4 0.35843078E-02 0.12660181E+03</pdfrwt>
<totfact> 0.13478390E+03</totfact>
</mgrwt>
</event>
<event>
 6    4  0.2398389E-003  0.1290972E+03  0.7818608E-02  0.1228801E+00
         -4   -1    0    0    0  501 -0.00000000000E+00  0.00000000000E+00  0.94749811255E+03  0.94749896369E+03  0.12700000000E+01 0.  1.
          4   -1    0    0  502    0  0.00000000000E+00 -0.00000000000E+00 -0.74511201947E+01  0.75585773897E+01  0.12700000000E+01 0.  1.
         25    2    1    2    0    0  0.12972993777E+02 -0.29521946782E+02  0.84212060920E+03  0.85195846045E+03  0.12500501579E+03 0.  0.
    9000005    1    3    3    0    0  0.68845268029E+02 -0.23543138651E+02  0.45603417838E+03  0.46180312056E+03  0.10000000000E+01 0.  0.
    9000005    1    3    3    0    0 -0.55872274252E+02 -0.59788081312E+01  0.38608643082E+03  0.39015533989E+03  0.10000000000E+01 0.  0.
         21    1    1    2  502  501 -0.12972993777E+02  0.29521946782E+02  0.97926383151E+02  0.10309908063E+03  0.00000000000E+00 0.  1.
<mgrwt>
<rscale>  1 0.12909724E+03</rscale>
<asrwt>0</asrwt>
<pdfrwt beam="2">  1        4 0.11546580E-02 0.12909724E+03</pdfrwt>
<pdfrwt beam="1">  1       -4 0.14577722E+00 0.12909724E+03</pdfrwt>
<totfact> 0.13247870E+03</totfact>
</mgrwt>
</event>
<event>
 6    4  0.2398389E-003  0.1281714E+03  0.7818608E-02  0.1230195E+00
         -4   -1    0    0    0  501 -0.00000000000E+00  0.00000000000E+00  0.79275014313E+02  0.79285186475E+02  0.12700000000E+01 0. -1.
          4   -1    0    0  502    0  0.00000000000E+00 -0.00000000000E+00 -0.10941994974E+03  0.10942731972E+03  0.12700000000E+01 0. -1.
         25    2    1    2    0    0  0.24291663582E+02  0.14317569894E+02  0.21412985043E+02  0.12994774728E+03  0.12503128955E+03 0.  0.
    9000005    1    3    3    0    0  0.62785335376E+02  0.36869274267E+02 -0.12521922192E+02  0.73885995010E+02  0.10000000000E+01 0.  0.
    9000005    1    3    3    0    0 -0.38493671794E+02 -0.22551704373E+02  0.33934907236E+02  0.56061752268E+02  0.10000000000E+01 0.  0.
         21    1    1    2  502  501 -0.24291663582E+02 -0.14317569894E+02 -0.51557920470E+02  0.58764758916E+02  0.00000000000E+00 0. -1.
<mgrwt>
<rscale>  1 0.12817137E+03</rscale>
<asrwt>0</asrwt>
<pdfrwt beam="2">  1        4 0.16835188E-01 0.12817137E+03</pdfrwt>
<pdfrwt beam="1">  1       -4 0.12197505E-01 0.12817137E+03</pdfrwt>
<totfact> 0.26862295E+03</totfact>
</mgrwt>
</event>
<event>
 6    4  0.2398389E-003  0.1711092E+03  0.7818608E-02  0.1176696E+00
         -4   -1    0    0    0  501 -0.00000000000E+00  0.00000000000E+00  0.54883670816E+03  0.54883817754E+03  0.12700000000E+01 0.  1.
          4   -1    0    0  502    0  0.00000000000E+00 -0.00000000000E+00 -0.40621916213E+02  0.40641763948E+02  0.12700000000E+01 0.  1.
         25    2    1    2    0    0  0.31584139670E+01 -0.11680561845E+03  0.22168464740E+03  0.28004004132E+03  0.12499925507E+03 0.  0.
    9000005    1    3    3    0    0 -0.33769816273E+02 -0.11191643517E+03  0.10356087044E+03  0.15617792046E+03  0.10000000000E+01 0.  0.
    9000005    1    3    3    0    0  0.36928230240E+02 -0.48891832838E+01  0.11812377696E+03  0.12386212086E+03  0.10000000000E+01 0.  0.
         21    1    1    2  502  501 -0.31584139670E+01  0.11680561845E+03  0.28653014455E+03  0.30943990017E+03  0.00000000000E+00 0.  1.
<mgrwt>
<rscale>  1 0.17110915E+03</rscale>
<asrwt>0</asrwt>
<pdfrwt beam="2">  1        4 0.62511653E-02 0.17110915E+03</pdfrwt>
<pdfrwt beam="1">  1       -4 0.84438057E-01 0.17110915E+03</pdfrwt>
<totfact> 0.36277232E+02</totfact>
</mgrwt>
</event>
<event>
 6    4  0.2398389E-003  0.1266389E+03  0.7818608E-02  0.1232530E+00
          4   -1    0    0  502    0  0.00000000000E+00  0.00000000000E+00  0.91178203549E+03  0.91178291996E+03  0.12700000000E+01 0.  1.
         -4   -1    0    0    0  501 -0.00000000000E+00 -0.00000000000E+00 -0.67497649202E+01  0.68682040213E+01  0.12700000000E+01 0.  1.
         25    2    1    2    0    0  0.19846182859E+02 -0.42762810389E+01  0.61466870018E+03  0.62757869218E+03  0.12500098533E+03 0.  0.
    9000005    1    3    3    0    0 -0.12856822001E+02 -0.39556570588E+02  0.74983654507E+02  0.85752950922E+02  0.10000000000E+01 0.  0.
    9000005    1    3    3    0    0  0.32703004860E+02  0.35280289549E+02  0.53968504568E+03  0.54182574125E+03  0.10000000000E+01 0.  0.
         21    1    1    2  502  501 -0.19846182859E+02  0.42762810389E+01  0.29036357038E+03  0.29107243181E+03  0.00000000000E+00 0.  1.
<mgrwt>
<rscale>  1 0.12663887E+03</rscale>
<asrwt>0</asrwt>
<pdfrwt beam="1">  1        4 0.14028329E+00 0.12663887E+03</pdfrwt>
<pdfrwt beam="2">  1       -4 0.10476045E-02 0.12663887E+03</pdfrwt>
<totfact> 0.16824505E+03</totfact>
</mgrwt>
</event>
<event>
 6    4  0.2398389E-003  0.1269346E+03  0.7818608E-02  0.1232077E+00
         -4   -1    0    0    0  501 -0.00000000000E+00  0.00000000000E+00  0.28568263931E+03  0.28568546218E+03  0.12700000000E+01 0. -1.
          4   -1    0    0  502    0  0.00000000000E+00 -0.00000000000E+00 -0.31588230967E+02  0.31613750736E+02  0.12700000000E+01 0. -1.
         25    2    1    2    0    0 -0.47769921181E+01 -0.21560990301E+02  0.26412560976E+03  0.29304388446E+03  0.12499873813E+03 0.  0.
    9000005    1    3    3    0    0  0.38598267914E+02 -0.50784711941E+01  0.23509842247E+03  0.23830208854E+03  0.10000000000E+01 0.  0.
    9000005    1    3    3    0    0 -0.43375260032E+02 -0.16482519107E+02  0.29027187293E+02  0.54741795925E+02  0.10000000000E+01 0.  0.
         21    1    1    2  502  501  0.47769921181E+01  0.21560990301E+02 -0.10031201419E+02  0.24255328453E+02  0.00000000000E+00 0. -1.
<mgrwt>
<rscale>  1 0.12693455E+03</rscale>
<asrwt>0</asrwt>
<pdfrwt beam="2">  1        4 0.48619078E-02 0.12693455E+03</pdfrwt>
<pdfrwt beam="1">  1       -4 0.43953358E-01 0.12693455E+03</pdfrwt>
<totfact> 0.20392356E+03</totfact>
</mgrwt>
</event>
<event>
 6    4  0.2398389E-003  0.1271797E+03  0.7818608E-02  0.1231702E+00
          4   -1    0    0  502    0  0.00000000000E+00  0.00000000000E+00  0.14235950301E+03  0.14236516778E+03  0.12700000000E+01 0. -1.
         -4   -1    0    0    0  501 -0.00000000000E+00 -0.00000000000E+00 -0.46112945388E+02  0.46130430654E+02  0.12700000000E+01 0. -1.
         25    2    1    2    0    0 -0.60805348305E+01  0.22882752609E+02  0.50219676963E+02  0.13673589390E+03  0.12495637421E+03 0.  0.
    9000005    1    3    3    0    0 -0.46009889082E+02  0.12823841984E+02 -0.22772702355E+02  0.52924066256E+02  0.10000000000E+01 0.  0.
    9000005    1    3    3    0    0  0.39929354251E+02  0.10058910625E+02  0.72992379318E+02  0.83811827640E+02  0.10000000000E+01 0.  0.
         21    1    1    2  502  501  0.60805348305E+01 -0.22882752609E+02  0.46026880659E+02  0.51759704540E+02  0.00000000000E+00 0. -1.
<mgrwt>
<rscale>  1 0.12717975E+03</rscale>
<asrwt>0</asrwt>
<pdfrwt beam="1">  1        4 0.21903242E-01 0.12717975E+03</pdfrwt>
<pdfrwt beam="2">  1       -4 0.70960803E-02 0.12717975E+03</pdfrwt>
<totfact> 0.41466599E+03</totfact>
</mgrwt>
</event>
<event>
 6    4  0.2398389E-003  0.1294710E+03  0.7818608E-02  0.1228243E+00
          4   -1    0    0  502    0  0.00000000000E+00  0.00000000000E+00  0.29682518914E+02  0.29709675681E+02  0.12700000000E+01 0.  1.
         -4   -1    0    0    0  501 -0.00000000000E+00 -0.00000000000E+00 -0.24448615158E+03  0.24448945011E+03  0.12700000000E+01 0.  1.
         25    2    1    2    0    0  0.30959390455E+02 -0.13409489635E+02 -0.13252458416E+03  0.18527140181E+03  0.12499771458E+03 0.  0.
    9000005    1    3    3    0    0  0.19897451810E+01 -0.73126434019E+01 -0.15045304311E+03  0.15064711089E+03  0.10000000000E+01 0.  0.
    9000005    1    3    3    0    0  0.28969645274E+02 -0.60968462331E+01  0.17928458947E+02  0.34624290917E+02  0.10000000000E+01 0.  0.
         21    1    1    2  502  501 -0.30959390455E+02  0.13409489635E+02 -0.82279048504E+02  0.88927723981E+02  0.00000000000E+00 0.  1.
<mgrwt>
<rscale>  1 0.12947095E+03</rscale>
<asrwt>0</asrwt>
<pdfrwt beam="1">  1        4 0.45688843E-02 0.12947095E+03</pdfrwt>
<pdfrwt beam="2">  1       -4 0.37615595E-01 0.12947095E+03</pdfrwt>
<totfact> 0.30757894E+03</totfact>
</mgrwt>
</event>
<event>
 6    4  0.2398389E-003  0.1267605E+03  0.7818608E-02  0.1232343E+00
          4   -1    0    0  502    0  0.00000000000E+00  0.00000000000E+00  0.57676739984E+02  0.57690720530E+02  0.12700000000E+01 0. -1.
         -4   -1    0    0    0  501 -0.00000000000E+00 -0.00000000000E+00 -0.13533587631E+03  0.13534183505E+03  0.12700000000E+01 0. -1.
         25    2    1    2    0    0 -0.15380903890E+02 -0.14795562529E+02 -0.10050432480E+03  0.16176942216E+03  0.12495097345E+03 0.  0.
    9000005    1    3    3    0    0  0.40620956840E+02  0.31701949201E+02 -0.57516671105E+02  0.77228512693E+02  0.10000000000E+01 0.  0.
    9000005    1    3    3    0    0 -0.56001860730E+02 -0.46497511730E+02 -0.42987653700E+02  0.84540909463E+02  0.10000000000E+01 0.  0.
         21    1    1    2  502  501  0.15380903890E+02  0.14795562529E+02  0.22845188482E+02  0.31263133428E+02  0.00000000000E+00 0. -1.
<mgrwt>
<rscale>  1 0.12676051E+03</rscale>
<asrwt>0</asrwt>
<pdfrwt beam="1">  1        4 0.88748784E-02 0.12676051E+03</pdfrwt>
<pdfrwt beam="2">  1       -4 0.20822438E-01 0.12676051E+03</pdfrwt>
<totfact> 0.31368499E+03</totfact>
</mgrwt>
</event>
<event>
 6    4  0.2398389E-003  0.1299639E+03  0.7818608E-02  0.1227509E+00
          4   -1    0    0  502    0  0.00000000000E+00  0.00000000000E+00  0.12390728755E+02  0.12455643664E+02  0.12700000000E+01 0. -1.
         -4   -1    0    0    0  501 -0.00000000000E+00 -0.00000000000E+00 -0.57334711471E+03  0.57334852127E+03  0.12700000000E+01 0. -1.
         25    2    1    2    0    0 -0.35486605665E+02 -0.24115388642E+01 -0.48185259132E+03  0.49907167375E+03  0.12500200430E+03 0.  0.
    9000005    1    3    3    0    0 -0.15103238542E+01 -0.47089841867E+02 -0.76497448432E+02  0.89847614893E+02  0.10000000000E+01 0.  0.
    9000005    1    3    3    0    0 -0.33976281811E+02  0.44678303003E+02 -0.40535514289E+03  0.40922405886E+03  0.10000000000E+01 0.  0.
         21    1    1    2  502  501  0.35486605665E+02  0.24115388642E+01 -0.79103794631E+02  0.86732491181E+02  0.00000000000E+00 0. -1.
<mgrwt>
<rscale>  1 0.12996390E+03</rscale>
<asrwt>0</asrwt>
<pdfrwt beam="1">  1        4 0.19113681E-02 0.12996390E+03</pdfrwt>
<pdfrwt beam="2">  1       -4 0.88212329E-01 0.12996390E+03</pdfrwt>
<totfact> 0.20304530E+03</totfact>
</mgrwt>
</event>
<event>
 6    4  0.2398389E-003  0.1273047E+03  0.7818608E-02  0.1231511E+00
         -4   -1    0    0    0  501 -0.00000000000E+00  0.00000000000E+00  0.17941783476E+03  0.17942232952E+03  0.12700000000E+01 0. -1.
          4   -1    0    0  502    0  0.00000000000E+00 -0.00000000000E+00 -0.32043020506E+02  0.32068178357E+02  0.12700000000E+01 0. -1.
         25    2    1    2    0    0 -0.92884468851E+01  0.22232312520E+02  0.11896166563E+03  0.17423654191E+03  0.12500377467E+03 0.  0.
    9000005    1    3    3    0    0  0.21699267601E+02  0.65671237281E+02  0.90019009818E+02  0.11352529123E+03  0.10000000000E+01 0.  0.
    9000005    1    3    3    0    0 -0.30987714486E+02 -0.43438924761E+02  0.28942655813E+02  0.60711250679E+02  0.10000000000E+01 0.  0.
         21    1    1    2  502  501  0.92884468851E+01 -0.22232312520E+02  0.28413148620E+02  0.37253965964E+02  0.00000000000E+00 0. -1.
<mgrwt>
<rscale>  1 0.12730473E+03</rscale>
<asrwt>0</asrwt>
<pdfrwt beam="2">  1        4 0.49319763E-02 0.12730473E+03</pdfrwt>
<pdfrwt beam="1">  1       -4 0.27605025E-01 0.12730473E+03</pdfrwt>
<totfact> 0.48882795E+03</totfact>
</mgrwt>
</event>
<event>
 6    4  0.2398389E-003  0.1269103E+03  0.7818608E-02  0.1232114E+00
          4   -1    0    0  502    0  0.00000000000E+00  0.00000000000E+00  0.17536594123E+02  0.17582520679E+02  0.12700000000E+01 0. -1.
         -4   -1    0    0    0  501 -0.00000000000E+00 -0.00000000000E+00 -0.66787048319E+03  0.66787169068E+03  0.12700000000E+01 0. -1.
         25    2    1    2    0    0 -0.17200343676E+02 -0.13620920059E+02 -0.65124441550E+03  0.66349492303E+03  0.12499937148E+03 0.  0.
    9000005    1    3    3    0    0  0.49111302542E+02 -0.90844604951E+01 -0.15584272775E+03  0.16365330200E+03  0.10000000000E+01 0.  0.
    9000005    1    3    3    0    0 -0.66311646218E+02 -0.45364595637E+01 -0.49540168775E+03  0.49984162103E+03  0.10000000000E+01 0.  0.
         21    1    1    2  502  501  0.17200343676E+02  0.13620920059E+02  0.91052643810E+00  0.21959288336E+02  0.00000000000E+00 0. -1.
<mgrwt>
<rscale>  1 0.12691030E+03</rscale>
<asrwt>0</asrwt>
<pdfrwt beam="1">  1        4 0.27015638E-02 0.12691030E+03</pdfrwt>
<pdfrwt beam="2">  1       -4 0.10275291E+00 0.12691030E+03</pdfrwt>
<totfact> 0.83472911E+02</totfact>
</mgrwt>
</event>
<event>
 6    4  0.2398389E-003  0.1339613E+03  0.7818608E-02  0.1221693E+00
          4   -1    0    0  502    0  0.00000000000E+00  0.00000000000E+00  0.12625669876E+03  0.12626308599E+03  0.12700000000E+01 0.  1.
         -4   -1    0    0    0  501 -0.00000000000E+00 -0.00000000000E+00 -0.68178013181E+02  0.68189840748E+02  0.12700000000E+01 0.  1.
         25    2    1    2    0    0 -0.35730889417E+02  0.32304286272E+02  0.25676597426E+02  0.13639985888E+03  0.12500148190E+03 0.  0.
    9000005    1    3    3    0    0 -0.31809646076E+02  0.76827532120E+02  0.35839164938E+02  0.90552575991E+02  0.10000000000E+01 0.  0.
    9000005    1    3    3    0    0 -0.39212433403E+01 -0.44523245848E+02 -0.10162567512E+02  0.45847282892E+02  0.10000000000E+01 0.  0.
         21    1    1    2  502  501  0.35730889417E+02 -0.32304286272E+02  0.32402088156E+02  0.58053067851E+02  0.00000000000E+00 0.  1.
<mgrwt>
<rscale>  1 0.13396131E+03</rscale>
<asrwt>0</asrwt>
<pdfrwt beam="1">  1        4 0.19425509E-01 0.13396131E+03</pdfrwt>
<pdfrwt beam="2">  1       -4 0.10490326E-01 0.13396131E+03</pdfrwt>
<totfact> 0.27196958E+03</totfact>
</mgrwt>
</event>
<event>
 6    4  0.2398389E-003  0.1354150E+03  0.7818608E-02  0.1219635E+00
         -4   -1    0    0    0  501 -0.00000000000E+00  0.00000000000E+00  0.35943794796E+02  0.35966224216E+02  0.12700000000E+01 0. -1.
          4   -1    0    0  502    0  0.00000000000E+00 -0.00000000000E+00 -0.27896492716E+03  0.27896781801E+03  0.12700000000E+01 0. -1.
         25    2    1    2    0    0  0.49435184531E+02  0.16383483508E+02 -0.11843248055E+03  0.17989853519E+03  0.12499989804E+03 0.  0.
    9000005    1    3    3    0    0  0.10295187057E+02 -0.24152053754E+02 -0.12067029236E+03  0.12349749809E+03  0.10000000000E+01 0.  0.
    9000005    1    3    3    0    0  0.39139997474E+02  0.40535537262E+02  0.22378118079E+01  0.56401037092E+02  0.10000000000E+01 0.  0.
         21    1    1    2  502  501 -0.49435184531E+02 -0.16383483508E+02 -0.12458865181E+03  0.13503550704E+03  0.00000000000E+00 0. -1.
<mgrwt>
<rscale>  1 0.13541503E+03</rscale>
<asrwt>0</asrwt>
<pdfrwt beam="2">  1        4 0.42919627E-01 0.13541503E+03</pdfrwt>
<pdfrwt beam="1">  1       -4 0.55317625E-02 0.13541503E+03</pdfrwt>
<totfact> 0.17627148E+03</totfact>
</mgrwt>
</event>
<event>
 6    4  0.2398389E-003  0.1281516E+03  0.7818608E-02  0.1230224E+00
          4   -1    0    0  502    0  0.00000000000E+00  0.00000000000E+00  0.55996722595E+02  0.56011122479E+02  0.12700000000E+01 0.  1.
         -4   -1    0    0    0  501 -0.00000000000E+00 -0.00000000000E+00 -0.10932839096E+03  0.10933576711E+03  0.12700000000E+01 0.  1.
         25    2    1    2    0    0 -0.78728584679E+01 -0.27026123715E+02 -0.46964632643E+02  0.13648632121E+03  0.12502178168E+03 0.  0.
    9000005    1    3    3    0    0 -0.23480257430E+02 -0.60139518938E+02  0.13341097392E+02  0.65932307003E+02  0.10000000000E+01 0.  0.
    9000005    1    3    3    0    0  0.15607398962E+02  0.33113395223E+02 -0.60305730035E+02  0.70554014206E+02  0.10000000000E+01 0.  0.
         21    1    1    2  502  501  0.78728584679E+01  0.27026123715E+02 -0.63670357233E+01  0.28860568384E+02  0.00000000000E+00 0.  1.
<mgrwt>
<rscale>  1 0.12815163E+03</rscale>
<asrwt>0</asrwt>
<pdfrwt beam="1">  1        4 0.86165555E-02 0.12815163E+03</pdfrwt>
<pdfrwt beam="2">  1       -4 0.16821428E-01 0.12815163E+03</pdfrwt>
<totfact> 0.48340963E+03</totfact>
</mgrwt>
</event>
<event>
 6    4  0.2398389E-003  0.1300041E+03  0.7818608E-02  0.1227450E+00
         -4   -1    0    0    0  501 -0.00000000000E+00  0.00000000000E+00  0.30339369811E+03  0.30339635620E+03  0.12700000000E+01 0. -1.
          4   -1    0    0  502    0  0.00000000000E+00 -0.00000000000E+00 -0.33299710181E+02  0.33323919309E+02  0.12700000000E+01 0. -1.
         25    2    1    2    0    0 -0.21525349548E+02  0.28510330278E+02  0.27144524629E+03  0.30097107265E+03  0.12499954092E+03 0.  0.
    9000005    1    3    3    0    0 -0.66059552441E+02 -0.13559776423E+02  0.16321286399E+03  0.17659889857E+03  0.10000000000E+01 0.  0.
    9000005    1    3    3    0    0  0.44534202893E+02  0.42070106701E+02  0.10823238231E+03  0.12437217408E+03  0.10000000000E+01 0.  0.
         21    1    1    2  502  501  0.21525349548E+02 -0.28510330278E+02 -0.13512583646E+01  0.35749202857E+02  0.00000000000E+00 0. -1.
<mgrwt>
<rscale>  1 0.13000410E+03</rscale>
<asrwt>0</asrwt>
<pdfrwt beam="2">  1        4 0.51250989E-02 0.13000410E+03</pdfrwt>
<pdfrwt beam="1">  1       -4 0.46678021E-01 0.13000410E+03</pdfrwt>
<totfact> 0.16702328E+03</totfact>
</mgrwt>
</event>
<event>
 6    4  0.2398389E-003  0.1302271E+03  0.7818608E-02  0.1227119E+00
          4   -1    0    0  502    0  0.00000000000E+00  0.00000000000E+00  0.64454302417E+02  0.64466813168E+02  0.12700000000E+01 0.  1.
         -4   -1    0    0    0  501 -0.00000000000E+00 -0.00000000000E+00 -0.18273096077E+03  0.18273537403E+03  0.12700000000E+01 0.  1.
         25    2    1    2    0    0 -0.30087434316E+02 -0.20718401721E+02 -0.15012499742E+03  0.19873753436E+03  0.12499834735E+03 0.  0.
    9000005    1    3    3    0    0 -0.56831286683E+02 -0.55080721891E+02 -0.62377497856E+02  0.10077516216E+03  0.10000000000E+01 0.  0.
    9000005    1    3    3    0    0  0.26743852367E+02  0.34362320170E+02 -0.87747499563E+02  0.97962372197E+02  0.10000000000E+01 0.  0.
         21    1    1    2  502  501  0.30087434316E+02  0.20718401721E+02  0.31848339069E+02  0.48464652842E+02  0.00000000000E+00 0.  1.
<mgrwt>
<rscale>  1 0.13022708E+03</rscale>
<asrwt>0</asrwt>
<pdfrwt beam="1">  1        4 0.99173485E-02 0.13022708E+03</pdfrwt>
<pdfrwt beam="2">  1       -4 0.28113757E-01 0.13022708E+03</pdfrwt>
<totfact> 0.15097658E+03</totfact>
</mgrwt>
</event>
<event>
 6    4  0.2398389E-003  0.1277523E+03  0.7818608E-02  0.1230830E+00
         -4   -1    0    0    0  501 -0.00000000000E+00  0.00000000000E+00  0.11231816043E+03  0.11232534025E+03  0.12700000000E+01 0.  1.
          4   -1    0    0  502    0  0.00000000000E+00 -0.00000000000E+00 -0.77232370758E+02  0.77242811917E+02  0.12700000000E+01 0.  1.
         25    2    1    2    0    0 -0.24446849602E+02 -0.98955778068E+01  0.70108853642E+02  0.14572541132E+03  0.12500029292E+03 0.  0.
    9000005    1    3    3    0    0  0.45145488213E+02 -0.73035880356E+01 -0.15856381827E+01  0.45770861393E+02  0.10000000000E+01 0.  0.
    9000005    1    3    3    0    0 -0.69592337815E+02 -0.25919897712E+01  0.71694491824E+02  0.99954549929E+02  0.10000000000E+01 0.  0.
         21    1    1    2  502  501  0.24446849602E+02  0.98955778068E+01 -0.35023063966E+02  0.43842740849E+02  0.00000000000E+00 0.  1.
<mgrwt>
<rscale>  1 0.12775228E+03</rscale>
<asrwt>0</asrwt>
<pdfrwt beam="2">  1        4 0.11883259E-01 0.12775228E+03</pdfrwt>
<pdfrwt beam="1">  1       -4 0.17281073E-01 0.12775228E+03</pdfrwt>
<totfact> 0.26799239E+03</totfact>
</mgrwt>
</event>
<event>
 6    4  0.2398389E-003  0.1340765E+03  0.7818608E-02  0.1221529E+00
          4   -1    0    0  502    0  0.00000000000E+00  0.00000000000E+00  0.45401250607E+02  0.45419009860E+02  0.12700000000E+01 0.  1.
         -4   -1    0    0    0  501 -0.00000000000E+00 -0.00000000000E+00 -0.20996910087E+03  0.20997294164E+03  0.12700000000E+01 0.  1.
         25    2    1    2    0    0  0.44924762185E+02 -0.18260242580E+02 -0.15675395777E+03  0.20627242755E+03  0.12499936151E+03 0.  0.
    9000005    1    3    3    0    0  0.32635404052E+02 -0.66716256758E+02 -0.53467167785E+02  0.91519760404E+02  0.10000000000E+01 0.  0.
    9000005    1    3    3    0    0  0.12289358133E+02  0.48456014178E+02 -0.10328678998E+03  0.11475266715E+03  0.10000000000E+01 0.  0.
         21    1    1    2  502  501 -0.44924762185E+02  0.18260242580E+02 -0.78138924954E+01  0.49119523943E+02  0.00000000000E+00 0.  1.
<mgrwt>
<rscale>  1 0.13407651E+03</rscale>
<asrwt>0</asrwt>
<pdfrwt beam="1">  1        4 0.69864695E-02 0.13407651E+03</pdfrwt>
<pdfrwt beam="2">  1       -4 0.32304599E-01 0.13407651E+03</pdfrwt>
<totfact> 0.20911205E+03</totfact>
</mgrwt>
</event>
<event>
 6    4  0.2398389E-003  0.1315774E+03  0.7818608E-02  0.1225134E+00
          4   -1    0    0  502    0  0.00000000000E+00  0.00000000000E+00  0.23825480544E+02  0.23859304750E+02  0.12700000000E+01 0. -1.
         -4   -1    0    0    0  501 -0.00000000000E+00 -0.00000000000E+00 -0.35261401032E+03  0.35261629737E+03  0.12700000000E+01 0. -1.
         25    2    1    2    0    0  0.35307468669E+02  0.20999486615E+02 -0.29595692938E+03  0.32388748782E+03  0.12500001973E+03 0.  0.
    9000005    1    3    3    0    0  0.15462154721E+02  0.73409197997E+02 -0.15527275837E+03  0.17244888538E+03  0.10000000000E+01 0.  0.
    9000005    1    3    3    0    0  0.19845313948E+02 -0.52409711382E+02 -0.14068417102E+03  0.15143860243E+03  0.10000000000E+01 0.  0.
         21    1    1    2  502  501 -0.35307468669E+02 -0.20999486615E+02 -0.32831600396E+02  0.52588114308E+02  0.00000000000E+00 0. -1.
<mgrwt>
<rscale>  1 0.13157736E+03</rscale>
<asrwt>0</asrwt>
<pdfrwt beam="1">  1        4 0.36682366E-02 0.13157736E+03</pdfrwt>
<pdfrwt beam="2">  1       -4 0.54251083E-01 0.13157736E+03</pdfrwt>
<totfact> 0.21011268E+03</totfact>
</mgrwt>
</event>
<event>
 6    4  0.2398389E-003  0.1315632E+03  0.7818608E-02  0.1225155E+00
          4   -1    0    0  502    0  0.00000000000E+00  0.00000000000E+00  0.18732143889E+03  0.18732574400E+03  0.12700000000E+01 0.  1.
         -4   -1    0    0    0  501 -0.00000000000E+00 -0.00000000000E+00 -0.64125864519E+02  0.64138439335E+02  0.12700000000E+01 0.  1.
         25    2    1    2    0    0  0.41026150117E+02  0.10293231063E+01  0.11027750332E+02  0.13202455320E+03  0.12499866747E+03 0.  0.
    9000005    1    3    3    0    0 -0.30956198850E+02  0.19073099166E+02  0.38427029306E+02  0.52912247545E+02  0.10000000000E+01 0.  0.
    9000005    1    3    3    0    0  0.71982348966E+02 -0.18043776060E+02 -0.27399278974E+02  0.79112305651E+02  0.10000000000E+01 0.  0.
         21    1    1    2  502  501 -0.41026150117E+02 -0.10293231063E+01  0.11216782403E+03  0.11943963014E+03  0.00000000000E+00 0.  1.
<mgrwt>
<rscale>  1 0.13156318E+03</rscale>
<asrwt>0</asrwt>
<pdfrwt beam="1">  1        4 0.28819981E-01 0.13156318E+03</pdfrwt>
<pdfrwt beam="2">  1       -4 0.98668162E-02 0.13156318E+03</pdfrwt>
<totfact> 0.14569097E+03</totfact>
</mgrwt>
</event>
<event>
 6    4  0.2398389E-003  0.1607745E+03  0.7818608E-02  0.1187825E+00
         -4   -1    0    0    0  501 -0.00000000000E+00  0.00000000000E+00  0.94515207833E+03  0.94515293158E+03  0.12700000000E+01 0. -1.
          4   -1    0    0  502    0  0.00000000000E+00 -0.00000000000E+00 -0.20834853186E+02  0.20873524074E+02  0.12700000000E+01 0. -1.
         25    2    1    2    0    0 -0.15791591699E+02 -0.99870201586E+02  0.72401363024E+03  0.74164962604E+03  0.12499999802E+03 0.  0.
    9000005    1    3    3    0    0  0.20319531809E+02 -0.42940308102E+02  0.58724906695E+03  0.58916824428E+03  0.10000000000E+01 0.  0.
    9000005    1    3    3    0    0 -0.36111123508E+02 -0.56929893484E+02  0.13676456328E+03  0.15248138176E+03  0.10000000000E+01 0.  0.
         21    1    1    2  502  501  0.15791591699E+02  0.99870201586E+02  0.20030359490E+03  0.22437682961E+03  0.00000000000E+00 0. -1.
<mgrwt>
<rscale>  1 0.16077447E+03</rscale>
<asrwt>0</asrwt>
<pdfrwt beam="2">  1        4 0.32084022E-02 0.16077447E+03</pdfrwt>
<pdfrwt beam="1">  1       -4 0.14541106E+00 0.16077447E+03</pdfrwt>
<totfact> 0.28753083E+02</totfact>
</mgrwt>
</event>
<event>
 6    4  0.2398389E-003  0.1272085E+03  0.7818608E-02  0.1231658E+00
          4   -1    0    0  502    0  0.00000000000E+00  0.00000000000E+00  0.36449122526E+02  0.36471241176E+02  0.12700000000E+01 0.  1.
         -4   -1    0    0    0  501 -0.00000000000E+00 -0.00000000000E+00 -0.18172518115E+03  0.18172961884E+03  0.12700000000E+01 0.  1.
         25    2    1    2    0    0  0.20330844650E+02  0.11987038790E+02 -0.14716499041E+03  0.19452385838E+03  0.12499985894E+03 0.  0.
    9000005    1    3    3    0    0  0.58472539993E+02 -0.33269722871E+02 -0.67837014299E+02  0.95544612105E+02  0.10000000000E+01 0.  0.
    9000005    1    3    3    0    0 -0.38141695344E+02  0.45256761661E+02 -0.79327976108E+02  0.98979246275E+02  0.10000000000E+01 0.  0.
         21    1    1    2  502  501 -0.20330844650E+02 -0.11987038790E+02  0.18889317865E+01  0.23677001635E+02  0.00000000000E+00 0.  1.
<mgrwt>
<rscale>  1 0.12720848E+03</rscale>
<asrwt>0</asrwt>
<pdfrwt beam="1">  1        4 0.56096002E-02 0.12720848E+03</pdfrwt>
<pdfrwt beam="2">  1       -4 0.27959762E-01 0.12720848E+03</pdfrwt>
<totfact> 0.38786874E+03</totfact>
</mgrwt>
</event>
<event>
 6    4  0.2398389E-003  0.1288940E+03  0.7818608E-02  0.1229106E+00
         -4   -1    0    0    0  501 -0.00000000000E+00  0.00000000000E+00  0.14206768809E+03  0.14207336449E+03  0.12700000000E+01 0.  1.
          4   -1    0    0  502    0  0.00000000000E+00 -0.00000000000E+00 -0.45313791611E+02  0.45331585127E+02  0.12700000000E+01 0.  1.
         25    2    1    2    0    0 -0.27227136527E+02 -0.15717350543E+02  0.74347169860E+02  0.14879907611E+03  0.12500124525E+03 0.  0.
    9000005    1    3    3    0    0 -0.27890741858E+02  0.51826730399E+02  0.20235942840E+02  0.62244653167E+02  0.10000000000E+01 0.  0.
    9000005    1    3    3    0    0  0.66360533065E+00 -0.67544080941E+02  0.54111227020E+02  0.86554422948E+02  0.10000000000E+01 0.  0.
         21    1    1    2  502  501  0.27227136527E+02  0.15717350543E+02  0.22406726618E+02  0.38605873507E+02  0.00000000000E+00 0.  1.
<mgrwt>
<rscale>  1 0.12889400E+03</rscale>
<asrwt>0</asrwt>
<pdfrwt beam="2">  1        4 0.69731578E-02 0.12889400E+03</pdfrwt>
<pdfrwt beam="1">  1       -4 0.21858373E-01 0.12889400E+03</pdfrwt>
<totfact> 0.42974057E+03</totfact>
</mgrwt>
</event>
<event>
 6    4  0.2398389E-003  0.1269437E+03  0.7818608E-02  0.1232062E+00
          4   -1    0    0  502    0  0.00000000000E+00  0.00000000000E+00  0.97038757200E+02  0.97047067441E+02  0.12700000000E+01 0.  1.
         -4   -1    0    0    0  501 -0.00000000000E+00 -0.00000000000E+00 -0.58997385539E+02  0.59011053205E+02  0.12700000000E+01 0.  1.
         25    2    1    2    0    0 -0.47196718108E+00 -0.22139827438E+02  0.22297550845E+02  0.12888713233E+03  0.12499726955E+03 0.  0.
    9000005    1    3    3    0    0  0.36016342389E+02  0.39690332541E+02  0.19467376744E+02  0.57030502134E+02  0.10000000000E+01 0.  0.
    9000005    1    3    3    0    0 -0.36488309571E+02 -0.61830159979E+02  0.28301741010E+01  0.71856630200E+02  0.10000000000E+01 0.  0.
         21    1    1    2  502  501  0.47196718108E+00  0.22139827438E+02  0.15743820816E+02  0.27170988312E+02  0.00000000000E+00 0. -1.
<mgrwt>
<rscale>  1 0.12694374E+03</rscale>
<asrwt>0</asrwt>
<pdfrwt beam="1">  1        4 0.14930730E-01 0.12694374E+03</pdfrwt>
<pdfrwt beam="2">  1       -4 0.90782115E-02 0.12694374E+03</pdfrwt>
<totfact> 0.54485087E+03</totfact>
</mgrwt>
</event>
<event>
 6    4  0.2398389E-003  0.1266840E+03  0.7818608E-02  0.1232461E+00
         -4   -1    0    0    0  501 -0.00000000000E+00  0.00000000000E+00  0.74289775328E+03  0.74289883883E+03  0.12700000000E+01 0.  1.
          4   -1    0    0  502    0  0.00000000000E+00 -0.00000000000E+00 -0.80947745370E+01  0.81937948964E+01  0.12700000000E+01 0.  1.
         25    2    1    2    0    0 -0.12104897603E+02  0.16632063943E+02  0.69321156043E+03  0.70469220081E+03  0.12500270507E+03 0.  0.
    9000005    1    3    3    0    0  0.23725516928E+02  0.63113520548E+02  0.33756937800E+03  0.34423872762E+03  0.10000000000E+01 0.  0.
    9000005    1    3    3    0    0 -0.35830414530E+02 -0.46481456606E+02  0.35564218243E+03  0.36045347319E+03  0.10000000000E+01 0.  0.
         21    1    1    2  502  501  0.12104897603E+02 -0.16632063943E+02  0.41591418320E+02  0.46400432917E+02  0.00000000000E+00 0. -1.
<mgrwt>
<rscale>  1 0.12668398E+03</rscale>
<asrwt>0</asrwt>
<pdfrwt beam="2">  1        4 0.12530507E-02 0.12668398E+03</pdfrwt>
<pdfrwt beam="1">  1       -4 0.11429964E+00 0.12668398E+03</pdfrwt>
<totfact> 0.21120621E+03</totfact>
</mgrwt>
</event>
<event>
 6    4  0.2398389E-003  0.1273158E+03  0.7818608E-02  0.1231494E+00
          4   -1    0    0  502    0  0.00000000000E+00  0.00000000000E+00  0.43246847929E+02  0.43265491512E+02  0.12700000000E+01 0.  1.
         -4   -1    0    0    0  501 -0.00000000000E+00 -0.00000000000E+00 -0.14119641377E+03  0.14120212520E+03  0.12700000000E+01 0.  1.
         25    2    1    2    0    0 -0.22421725161E+02  0.90449574994E+01 -0.97372653951E+02  0.16028336889E+03  0.12499911836E+03 0.  0.
    9000005    1    3    3    0    0  0.80147710395E+01  0.46344556446E+02 -0.10158325383E+03  0.11194736229E+03  0.10000000000E+01 0.  0.
    9000005    1    3    3    0    0 -0.30436496201E+02 -0.37299598947E+02  0.42105998749E+01  0.48336006598E+02  0.10000000000E+01 0.  0.
         21    1    1    2  502  501  0.22421725161E+02 -0.90449574994E+01 -0.57691189096E+00  0.24184247822E+02  0.00000000000E+00 0.  1.
<mgrwt>
<rscale>  1 0.12731585E+03</rscale>
<asrwt>0</asrwt>
<pdfrwt beam="1">  1        4 0.66552348E-02 0.12731585E+03</pdfrwt>
<pdfrwt beam="2">  1       -4 0.21724398E-01 0.12731585E+03</pdfrwt>
<totfact> 0.46760884E+03</totfact>
</mgrwt>
</event>
<event>
 6    4  0.2398389E-003  0.1270662E+03  0.7818608E-02  0.1231875E+00
         -4   -1    0    0    0  501 -0.00000000000E+00  0.00000000000E+00  0.36204636423E+02  0.36226904346E+02  0.12700000000E+01 0. -1.
          4   -1    0    0  502    0  0.00000000000E+00 -0.00000000000E+00 -0.20328877752E+03  0.20329274449E+03  0.12700000000E+01 0. -1.
         25    2    1    2    0    0 -0.26087649727E+01 -0.22658625708E+02 -0.81520643133E+02  0.15096835773E+03  0.12500244320E+03 0.  0.
    9000005    1    3    3    0    0 -0.53113284302E+02 -0.26451448307E+02 -0.80869697248E+02  0.10030756711E+03  0.10000000000E+01 0.  0.
    9000005    1    3    3    0    0  0.50504519329E+02  0.37928225987E+01 -0.65094588584E+00  0.50660790622E+02  0.10000000000E+01 0.  0.
         21    1    1    2  502  501  0.26087649727E+01  0.22658625708E+02 -0.85563497961E+02  0.88551291108E+02  0.00000000000E+00 0. -1.
<mgrwt>
<rscale>  1 0.12706624E+03</rscale>
<asrwt>0</asrwt>
<pdfrwt beam="2">  1        4 0.31277214E-01 0.12706624E+03</pdfrwt>
<pdfrwt beam="1">  1       -4 0.55719623E-02 0.12706624E+03</pdfrwt>
<totfact> 0.31736551E+03</totfact>
</mgrwt>
</event>
<event>
 6    4  0.2398389E-003  0.1280537E+03  0.7818608E-02  0.1230373E+00
         -4   -1    0    0    0  501 -0.00000000000E+00  0.00000000000E+00  0.39373004751E+02  0.39393481734E+02  0.12700000000E+01 0. -1.
          4   -1    0    0  502    0  0.00000000000E+00 -0.00000000000E+00 -0.23871199269E+03  0.23871537100E+03  0.12700000000E+01 0. -1.
         25    2    1    2    0    0  0.19758288910E+02  0.19379540853E+02 -0.70192023172E+02  0.14602972837E+03  0.12502721651E+03 0.  0.
    9000005    1    3    3    0    0 -0.42463772605E+02  0.15983344870E+02  0.79541475881E+01  0.46075023179E+02  0.10000000000E+01 0.  0.
    9000005    1    3    3    0    0  0.62222061514E+02  0.33961959828E+01 -0.78146170760E+02  0.99954705196E+02  0.10000000000E+01 0.  0.
         21    1    1    2  502  501 -0.19758288910E+02 -0.19379540853E+02 -0.12914696476E+03  0.13207912436E+03  0.00000000000E+00 0. -1.
<mgrwt>
<rscale>  1 0.12805374E+03</rscale>
<asrwt>0</asrwt>
<pdfrwt beam="2">  1        4 0.36726756E-01 0.12805374E+03</pdfrwt>
<pdfrwt beam="1">  1       -4 0.60592205E-02 0.12805374E+03</pdfrwt>
<totfact> 0.20395176E+03</totfact>
</mgrwt>
</event>
<event>
 6    4  0.2398389E-003  0.1397487E+03  0.7818608E-02  0.1213668E+00
          4   -1    0    0  502    0  0.00000000000E+00  0.00000000000E+00  0.49154418889E+02  0.49170822612E+02  0.12700000000E+01 0. -1.
         -4   -1    0    0    0  501 -0.00000000000E+00 -0.00000000000E+00 -0.31650205382E+03  0.31650460182E+03  0.12700000000E+01 0. -1.
         25    2    1    2    0    0  0.14610046590E+02 -0.60756081771E+02 -0.26903366412E+03  0.30316464434E+03  0.12499973686E+03 0.  0.
    9000005    1    3    3    0    0 -0.15572033325E+02 -0.57649336168E+02 -0.39436925361E+02  0.71569583374E+02  0.10000000000E+01 0.  0.
    9000005    1    3    3    0    0  0.30182079915E+02 -0.31067456032E+01 -0.22959673876E+03  0.23159506097E+03  0.10000000000E+01 0.  0.
         21    1    1    2  502  501 -0.14610046590E+02  0.60756081771E+02  0.16860291831E+01  0.62510780094E+02  0.00000000000E+00 0. -1.
<mgrwt>
<rscale>  1 0.13974866E+03</rscale>
<asrwt>0</asrwt>
<pdfrwt beam="1">  1        4 0.75636763E-02 0.13974866E+03</pdfrwt>
<pdfrwt beam="2">  1       -4 0.48694080E-01 0.13974866E+03</pdfrwt>
<totfact> 0.82592829E+02</totfact>
</mgrwt>
</event>
<event>
 6    4  0.2398389E-003  0.1838211E+03  0.7818608E-02  0.1164155E+00
          4   -1    0    0  502    0  0.00000000000E+00  0.00000000000E+00  0.48224213032E+03  0.48224380261E+03  0.12700000000E+01 0. -1.
         -4   -1    0    0    0  501 -0.00000000000E+00 -0.00000000000E+00 -0.52954664576E+02  0.52969891451E+02  0.12700000000E+01 0. -1.
         25    2    1    2    0    0  0.62135225407E+02  0.11960197724E+03  0.22621844353E+03  0.29148752193E+03  0.12499908821E+03 0.  0.
    9000005    1    3    3    0    0  0.28315524247E+02  0.72838943901E+02  0.24851406282E+02  0.82011420279E+02  0.10000000000E+01 0.  0.
    9000005    1    3    3    0    0  0.33819701160E+02  0.46763033342E+02  0.20136703725E+03  0.20947610166E+03  0.10000000000E+01 0.  0.
         21    1    1    2  502  501 -0.62135225407E+02 -0.11960197724E+03  0.20306902221E+03  0.24372617212E+03  0.00000000000E+00 0. -1.
<mgrwt>
<rscale>  1 0.18382108E+03</rscale>
<asrwt>0</asrwt>
<pdfrwt beam="1">  1        4 0.74192393E-01 0.18382108E+03</pdfrwt>
<pdfrwt beam="2">  1       -4 0.81481719E-02 0.18382108E+03</pdfrwt>
<totfact> 0.31569369E+02</totfact>
</mgrwt>
</event>
<event>
 6    4  0.2398389E-003  0.1267603E+03  0.7818608E-02  0.1232344E+00
         -4   -1    0    0    0  501 -0.00000000000E+00  0.00000000000E+00  0.60473162607E+02  0.60486496805E+02  0.12700000000E+01 0. -1.
          4   -1    0    0  502    0  0.00000000000E+00 -0.00000000000E+00 -0.95051199130E+02  0.95059683127E+02  0.12700000000E+01 0. -1.
         25    2    1    2    0    0  0.17763434530E+02  0.11298792531E+02 -0.16562629079E+02  0.12783774756E+03  0.12499986680E+03 0.  0.
    9000005    1    3    3    0    0 -0.50182132013E+02 -0.16411626415E+02 -0.12904103406E+02  0.54360865884E+02  0.10000000000E+01 0.  0.
    9000005    1    3    3    0    0  0.67945566543E+02  0.27710418946E+02 -0.36585256734E+01  0.73476881678E+02  0.10000000000E+01 0.  0.
         21    1    1    2  502  501 -0.17763434530E+02 -0.11298792531E+02 -0.18015407444E+02  0.27708432369E+02  0.00000000000E+00 0.  1.
<mgrwt>
<rscale>  1 0.12676028E+03</rscale>
<asrwt>0</asrwt>
<pdfrwt beam="2">  1        4 0.14624940E-01 0.12676028E+03</pdfrwt>
<pdfrwt beam="1">  1       -4 0.93052418E-02 0.12676028E+03</pdfrwt>
<totfact> 0.54179238E+03</totfact>
</mgrwt>
</event>
<event>
 6    4  0.2398389E-003  0.1304322E+03  0.7818608E-02  0.1226816E+00
          4   -1    0    0  502    0  0.00000000000E+00  0.00000000000E+00  0.22470456078E+03  0.22470814969E+03  0.12700000000E+01 0.  1.
         -4   -1    0    0    0  501 -0.00000000000E+00 -0.00000000000E+00 -0.31274059700E+02  0.31299835625E+02  0.12700000000E+01 0.  1.
         25    2    1    2    0    0 -0.36717750772E+02  0.62287250819E+01  0.14844243228E+03  0.19760493255E+03  0.12500225369E+03 0.  0.
    9000005    1    3    3    0    0 -0.81165143125E+02  0.18847558117E+02  0.84172687445E+02  0.11844430006E+03  0.10000000000E+01 0.  0.
    9000005    1    3    3    0    0  0.44447392353E+02 -0.12618833035E+02  0.64269744836E+02  0.79160632485E+02  0.10000000000E+01 0.  0.
         21    1    1    2  502  501  0.36717750772E+02 -0.62287250819E+01  0.44988068801E+02  0.58403052766E+02  0.00000000000E+00 0.  1.
<mgrwt>
<rscale>  1 0.13043218E+03</rscale>
<asrwt>0</asrwt>
<pdfrwt beam="1">  1        4 0.34572191E-01 0.13043218E+03</pdfrwt>
<pdfrwt beam="2">  1       -4 0.48136527E-02 0.13043218E+03</pdfrwt>
<totfact> 0.33374266E+03</totfact>
</mgrwt>
</event>
<event>
 6    4  0.2398389E-003  0.1307985E+03  0.7818608E-02  0.1226276E+00
         -4   -1    0    0    0  501 -0.00000000000E+00  0.00000000000E+00  0.55172117926E+03  0.55172264095E+03  0.12700000000E+01 0.  1.
          4   -1    0    0  502    0  0.00000000000E+00 -0.00000000000E+00 -0.13545304538E+02  0.13604711501E+02  0.12700000000E+01 0.  1.
         25    2    1    2    0    0 -0.11389475553E+02 -0.36713697398E+02  0.45964864296E+03  0.47789656922E+03  0.12502255862E+03 0.  0.
    9000005    1    3    3    0    0  0.28052938081E+01 -0.78818238106E+02  0.36369912094E+03  0.37215350986E+03  0.10000000000E+01 0.  0.
    9000005    1    3    3    0    0 -0.14194769361E+02  0.42104540708E+02  0.95949522022E+02  0.10574305935E+03  0.10000000000E+01 0.  0.
         21    1    1    2  502  501  0.11389475553E+02  0.36713697398E+02  0.78527231760E+02  0.87430783240E+02  0.00000000000E+00 0.  1.
<mgrwt>
<rscale>  1 0.13079853E+03</rscale>
<asrwt>0</asrwt>
<pdfrwt beam="2">  1        4 0.20885748E-02 0.13079853E+03</pdfrwt>
<pdfrwt beam="1">  1       -4 0.84884880E-01 0.13079853E+03</pdfrwt>
<totfact> 0.19336647E+03</totfact>
</mgrwt>
</event>
<event>
 6    4  0.2398389E-003  0.1283089E+03  0.7818608E-02  0.1229987E+00
          4   -1    0    0  502    0  0.00000000000E+00  0.00000000000E+00  0.89619182844E+01  0.90514573046E+01  0.12700000000E+01 0. -1.
         -4   -1    0    0    0  501 -0.00000000000E+00 -0.00000000000E+00 -0.89755894471E+03  0.89755984320E+03  0.12700000000E+01 0. -1.
         25    2    1    2    0    0 -0.22506658881E+02 -0.18198242584E+02 -0.84226278820E+03  0.85197992345E+03  0.12500183938E+03 0.  0.
    9000005    1    3    3    0    0 -0.12345790889E+02 -0.65324481572E+02 -0.28580773149E+03  0.29343954374E+03  0.10000000000E+01 0.  0.
    9000005    1    3    3    0    0 -0.10160867992E+02  0.47126238988E+02 -0.55645505670E+03  0.55854037971E+03  0.10000000000E+01 0.  0.
         21    1    1    2  502  501  0.22506658881E+02  0.18198242584E+02 -0.46334238228E+02  0.54631377058E+02  0.00000000000E+00 0.  1.
<mgrwt>
<rscale>  1 0.12830895E+03</rscale>
<asrwt>0</asrwt>
<pdfrwt beam="1">  1        4 0.13857141E-02 0.12830895E+03</pdfrwt>
<pdfrwt beam="2">  1       -4 0.13809288E+00 0.12830895E+03</pdfrwt>
<totfact> 0.11495579E+03</totfact>
</mgrwt>
</event>
<event>
 6    4  0.2398389E-003  0.1318590E+03  0.7818608E-02  0.1224723E+00
         -4   -1    0    0    0  501 -0.00000000000E+00  0.00000000000E+00  0.35465907966E+02  0.35488639420E+02  0.12700000000E+01 0.  1.
          4   -1    0    0  502    0  0.00000000000E+00 -0.00000000000E+00 -0.23913884078E+03  0.23914221307E+03  0.12700000000E+01 0.  1.
         25    2    1    2    0    0 -0.50964452346E+01  0.41664699521E+02 -0.10903066597E+03  0.17109786444E+03  0.12499948861E+03 0.  0.
    9000005    1    3    3    0    0  0.41270508548E+02  0.66783439668E+02 -0.57107275234E+02  0.97085135702E+02  0.10000000000E+01 0.  0.
    9000005    1    3    3    0    0 -0.46366953782E+02 -0.25118740147E+02 -0.51923390733E+02  0.74012728735E+02  0.10000000000E+01 0.  0.
         21    1    1    2  502  501  0.50964452346E+01 -0.41664699521E+02 -0.94642266851E+02  0.10353298805E+03  0.00000000000E+00 0. -1.
<mgrwt>
<rscale>  1 0.13185899E+03</rscale>
<asrwt>0</asrwt>
<pdfrwt beam="2">  1        4 0.36792598E-01 0.13185899E+03</pdfrwt>
<pdfrwt beam="1">  1       -4 0.54583017E-02 0.13185899E+03</pdfrwt>
<totfact> 0.24235425E+03</totfact>
</mgrwt>
</event>
<event>
 6    4  0.2398389E-003  0.1280125E+03  0.7818608E-02  0.1230435E+00
          4   -1    0    0  502    0  0.00000000000E+00  0.00000000000E+00  0.15904594533E+03  0.15905101580E+03  0.12700000000E+01 0. -1.
         -4   -1    0    0    0  501 -0.00000000000E+00 -0.00000000000E+00 -0.94715700726E+02  0.94724214771E+02  0.12700000000E+01 0. -1.
         25    2    1    2    0    0 -0.17119542610E+02  0.21669114403E+02 -0.49044264572E+02  0.13708586263E+03  0.12499825834E+03 0.  0.
    9000005    1    3    3    0    0  0.34676887571E+02  0.43269225568E+02 -0.57999231094E+02  0.80247263008E+02  0.10000000000E+01 0.  0.
    9000005    1    3    3    0    0 -0.51796430181E+02 -0.21600111165E+02  0.89549665225E+01  0.56838599624E+02  0.10000000000E+01 0.  0.
         21    1    1    2  502  501  0.17119542610E+02 -0.21669114403E+02  0.11337450918E+03  0.11668936794E+03  0.00000000000E+00 0. -1.
<mgrwt>
<rscale>  1 0.12801248E+03</rscale>
<asrwt>0</asrwt>
<pdfrwt beam="1">  1        4 0.24469652E-01 0.12801248E+03</pdfrwt>
<pdfrwt beam="2">  1       -4 0.14572691E-01 0.12801248E+03</pdfrwt>
<totfact> 0.10077925E+03</totfact>
</mgrwt>
</event>
<event>
 6    4  0.2398389E-003  0.1313976E+03  0.7818608E-02  0.1225397E+00
         -4   -1    0    0    0  501 -0.00000000000E+00  0.00000000000E+00  0.32690178236E+03  0.32690424930E+03  0.12700000000E+01 0.  1.
          4   -1    0    0  502    0  0.00000000000E+00 -0.00000000000E+00 -0.34030669765E+02  0.34054359261E+02  0.12700000000E+01 0.  1.
         25    2    1    2    0    0  0.35210927472E+02  0.20012477307E+02  0.29227577465E+03  0.32045350902E+03  0.12500005734E+03 0.  0.
    9000005    1    3    3    0    0 -0.37029592824E+02  0.67230012812E+01  0.30161752516E+02  0.48240240524E+02  0.10000000000E+01 0.  0.
    9000005    1    3    3    0    0  0.72240520296E+02  0.13289476026E+02  0.26211402213E+03  0.27221326849E+03  0.10000000000E+01 0.  0.
         21    1    1    2  502  501 -0.35210927472E+02 -0.20012477307E+02  0.59533794216E+00  0.40505099539E+02  0.00000000000E+00 0.  1.
<mgrwt>
<rscale>  1 0.13139758E+03</rscale>
<asrwt>0</asrwt>
<pdfrwt beam="2">  1        4 0.52374995E-02 0.13139758E+03</pdfrwt>
<pdfrwt beam="1">  1       -4 0.50294596E-01 0.13139758E+03</pdfrwt>
<totfact> 0.13900269E+03</totfact>
</mgrwt>
</event>
<event>
 6    4  0.2398389E-003  0.1480550E+03  0.7818608E-02  0.1202884E+00
          4   -1    0    0  502    0  0.00000000000E+00  0.00000000000E+00  0.59022768020E+02  0.59036429810E+02  0.12700000000E+01 0.  1.
         -4   -1    0    0    0  501 -0.00000000000E+00 -0.00000000000E+00 -0.22562013054E+03  0.22562370488E+03  0.12700000000E+01 0.  1.
         25    2    1    2    0    0 -0.40353837589E+02 -0.68312127592E+02 -0.13103812077E+03  0.19771510230E+03  0.12500117439E+03 0.  0.
    9000005    1    3    3    0    0  0.22977649633E+01 -0.80697666751E+02 -0.27908583706E+02  0.85424131177E+02  0.10000000000E+01 0.  0.
    9000005    1    3    3    0    0 -0.42651602552E+02  0.12385539159E+02 -0.10312953706E+03  0.11229097112E+03  0.10000000000E+01 0.  0.
         21    1    1    2  502  501  0.40353837589E+02  0.68312127592E+02 -0.35559241752E+02  0.86945032396E+02  0.00000000000E+00 0.  1.
<mgrwt>
<rscale>  1 0.14805496E+03</rscale>
<asrwt>0</asrwt>
<pdfrwt beam="1">  1        4 0.90817518E-02 0.14805496E+03</pdfrwt>
<pdfrwt beam="2">  1       -4 0.34712115E-01 0.14805496E+03</pdfrwt>
<totfact> 0.12046401E+03</totfact>
</mgrwt>
</event>
<event>
 6    4  0.2398389E-003  0.1321272E+03  0.7818608E-02  0.1224333E+00
          4   -1    0    0  502    0  0.00000000000E+00  0.00000000000E+00  0.67879879599E+02  0.67891759105E+02  0.12700000000E+01 0. -1.
         -4   -1    0    0    0  501 -0.00000000000E+00 -0.00000000000E+00 -0.11984252076E+03  0.11984924982E+03  0.12700000000E+01 0. -1.
         25    2    1    2    0    0  0.42390222512E+02 -0.59165538465E+01 -0.58400647130E+02  0.14445839700E+03  0.12500262519E+03 0.  0.
    9000005    1    3    3    0    0 -0.41786291782E+02 -0.19740852728E+02 -0.27123697005E+02  0.53595619098E+02  0.10000000000E+01 0.  0.
    9000005    1    3    3    0    0  0.84176514295E+02  0.13824298881E+02 -0.31276950125E+02  0.90862777899E+02  0.10000000000E+01 0.  0.
         21    1    1    2  502  501 -0.42390222512E+02  0.59165538465E+01  0.64380059711E+01  0.43282611924E+02  0.00000000000E+00 0. -1.
<mgrwt>
<rscale>  1 0.13212718E+03</rscale>
<asrwt>0</asrwt>
<pdfrwt beam="1">  1        4 0.10444490E-01 0.13212718E+03</pdfrwt>
<pdfrwt beam="2">  1       -4 0.18438742E-01 0.13212718E+03</pdfrwt>
<totfact> 0.29979209E+03</totfact>
</mgrwt>
</event>
<event>
 6    4  0.2398389E-003  0.1291441E+03  0.7818608E-02  0.1228731E+00
          4   -1    0    0  502    0  0.00000000000E+00  0.00000000000E+00  0.30464933504E+02  0.30491393432E+02  0.12700000000E+01 0. -1.
         -4   -1    0    0    0  501 -0.00000000000E+00 -0.00000000000E+00 -0.29752749056E+03  0.29753020106E+03  0.12700000000E+01 0. -1.
         25    2    1    2    0    0 -0.18197965185E+02 -0.26874811038E+02 -0.26583223073E+03  0.29554182990E+03  0.12499910766E+03 0.  0.
    9000005    1    3    3    0    0 -0.21629311284E+02  0.22474064876E+02 -0.23538778561E+03  0.23744751064E+03  0.10000000000E+01 0.  0.
    9000005    1    3    3    0    0  0.34313460994E+01 -0.49348875914E+02 -0.30444445128E+02  0.58094319251E+02  0.10000000000E+01 0.  0.
         21    1    1    2  502  501  0.18197965185E+02  0.26874811038E+02 -0.12303263243E+01  0.32479764593E+02  0.00000000000E+00 0.  1.
<mgrwt>
<rscale>  1 0.12914410E+03</rscale>
<asrwt>0</asrwt>
<pdfrwt beam="1">  1        4 0.46891569E-02 0.12914410E+03</pdfrwt>
<pdfrwt beam="2">  1       -4 0.45775702E-01 0.12914410E+03</pdfrwt>
<totfact> 0.20002859E+03</totfact>
</mgrwt>
</event>
<event>
 6    4  0.2398389E-003  0.1266258E+03  0.7818608E-02  0.1232550E+00
         -4   -1    0    0    0  501 -0.00000000000E+00  0.00000000000E+00  0.82963157035E+02  0.82972877045E+02  0.12700000000E+01 0. -1.
          4   -1    0    0  502    0  0.00000000000E+00 -0.00000000000E+00 -0.65214097362E+02  0.65226462381E+02  0.12700000000E+01 0. -1.
         25    2    1    2    0    0 -0.19834496503E+02  0.38026253418E+01  0.18605894496E+02  0.12798544873E+03  0.12500491417E+03 0.  0.
    9000005    1    3    3    0    0 -0.61003657182E+01 -0.30235680126E+02  0.63132583639E+02  0.70271857322E+02  0.10000000000E+01 0.  0.
    9000005    1    3    3    0    0 -0.13734130785E+02  0.34038305468E+02 -0.44526689144E+02  0.57713591411E+02  0.10000000000E+01 0.  0.
         21    1    1    2  502  501  0.19834496503E+02 -0.38026253418E+01 -0.85683482281E+00  0.20213890693E+02  0.00000000000E+00 0. -1.
<mgrwt>
<rscale>  1 0.12662581E+03</rscale>
<asrwt>0</asrwt>
<pdfrwt beam="2">  1        4 0.10034637E-01 0.12662581E+03</pdfrwt>
<pdfrwt beam="1">  1       -4 0.12765261E-01 0.12662581E+03</pdfrwt>
<totfact> 0.60367253E+03</totfact>
</mgrwt>
</event>
<event>
 6    4  0.2398389E-003  0.1347378E+03  0.7818608E-02  0.1220590E+00
          4   -1    0    0  502    0  0.00000000000E+00  0.00000000000E+00  0.25053556519E+02  0.25085724910E+02  0.12700000000E+01 0. -1.
         -4   -1    0    0    0  501 -0.00000000000E+00 -0.00000000000E+00 -0.38371375726E+03  0.38371585895E+03  0.12700000000E+01 0. -1.
         25    2    1    2    0    0 -0.36998509444E+02 -0.34106828280E+02 -0.31333991218E+03  0.34108087808E+03  0.12498839702E+03 0.  0.
    9000005    1    3    3    0    0  0.29110976512E+02 -0.54374170895E+02 -0.18890561340E+03  0.19872174060E+03  0.10000000000E+01 0.  0.
    9000005    1    3    3    0    0 -0.66109485956E+02  0.20267342615E+02 -0.12443429878E+03  0.14235913748E+03  0.10000000000E+01 0.  0.
         21    1    1    2  502  501  0.36998509444E+02  0.34106828280E+02 -0.45320288560E+02  0.67720705781E+02  0.00000000000E+00 0.  1.
<mgrwt>
<rscale>  1 0.13473776E+03</rscale>
<asrwt>0</asrwt>
<pdfrwt beam="1">  1        4 0.38570298E-02 0.13473776E+03</pdfrwt>
<pdfrwt beam="2">  1       -4 0.59035518E-01 0.13473776E+03</pdfrwt>
<totfact> 0.16366955E+03</totfact>
</mgrwt>
</event>
<event>
 6    4  0.2398389E-003  0.1306978E+03  0.7818608E-02  0.1226424E+00
          4   -1    0    0  502    0  0.00000000000E+00  0.00000000000E+00  0.48292062881E+02  0.48308759426E+02  0.12700000000E+01 0. -1.
         -4   -1    0    0    0  501 -0.00000000000E+00 -0.00000000000E+00 -0.30943598120E+03  0.30943858738E+03  0.12700000000E+01 0. -1.
         25    2    1    2    0    0 -0.35047373763E+02 -0.15148929589E+02 -0.28443287780E+03  0.31302392890E+03  0.12499643841E+03 0.  0.
    9000005    1    3    3    0    0  0.19727276815E+02 -0.54261014174E+02 -0.86893004350E+02  0.10433032788E+03  0.10000000000E+01 0.  0.
    9000005    1    3    3    0    0 -0.54774650578E+02  0.39112084585E+02 -0.19753987345E+03  0.20869360103E+03  0.10000000000E+01 0.  0.
         21    1    1    2  502  501  0.35047373763E+02  0.15148929589E+02  0.23288959482E+02  0.44723417906E+02  0.00000000000E+00 0. -1.
<mgrwt>
<rscale>  1 0.13069781E+03</rscale>
<asrwt>0</asrwt>
<pdfrwt beam="1">  1        4 0.74310331E-02 0.13069781E+03</pdfrwt>
<pdfrwt beam="2">  1       -4 0.47607019E-01 0.13069781E+03</pdfrwt>
<totfact> 0.87804004E+02</totfact>
</mgrwt>
</event>
<event>
 6    4  0.2398389E-003  0.1270258E+03  0.7818608E-02  0.1231937E+00
          4   -1    0    0  502    0  0.00000000000E+00  0.00000000000E+00  0.41488025916E+03  0.41488220297E+03  0.12700000000E+01 0.  1.
         -4   -1    0    0    0  501 -0.00000000000E+00 -0.00000000000E+00 -0.13469257861E+02  0.13528998755E+02  0.12700000000E+01 0.  1.
         25    2    1    2    0    0 -0.22212309786E+02  0.42835710580E+01  0.33725640263E+03  0.36038511689E+03  0.12499526261E+03 0.  0.
    9000005    1    3    3    0    0  0.14539087364E+02  0.55729689480E+02  0.10601252913E+03  0.12065172888E+03  0.10000000000E+01 0.  0.
    9000005    1    3    3    0    0 -0.36751397150E+02 -0.51446118422E+02  0.23124387350E+03  0.23973338801E+03  0.10000000000E+01 0.  0.
         21    1    1    2  502  501  0.22212309786E+02 -0.42835710580E+01  0.64154598664E+02  0.68026084826E+02  0.00000000000E+00 0. -1.
<mgrwt>
<rscale>  1 0.12702579E+03</rscale>
<asrwt>0</asrwt>
<pdfrwt beam="1">  1        4 0.63832487E-01 0.12702579E+03</pdfrwt>
<pdfrwt beam="2">  1       -4 0.20769382E-02 0.12702579E+03</pdfrwt>
<totfact> 0.36007029E+03</totfact>
</mgrwt>
</event>
<event>
 6    4  0.2398389E-003  0.1296583E+03  0.7818608E-02  0.1227964E+00
         -4   -1    0    0    0  501 -0.00000000000E+00  0.00000000000E+00  0.22476347318E+03  0.22476706114E+03  0.12700000000E+01 0. -1.
          4   -1    0    0  502    0  0.00000000000E+00 -0.00000000000E+00 -0.10505278496E+03  0.10506046130E+03  0.12700000000E+01 0. -1.
         25    2    1    2    0    0  0.18521358463E+01 -0.34384607582E+02  0.20233562770E+03  0.24031432636E+03  0.12500215027E+03 0.  0.
    9000005    1    3    3    0    0  0.21717900536E+00  0.33837881592E+02  0.15143839535E+03  0.15517614824E+03  0.10000000000E+01 0.  0.
    9000005    1    3    3    0    0  0.16349568409E+01 -0.68222489174E+02  0.50897232358E+02  0.85138178126E+02  0.10000000000E+01 0.  0.
         21    1    1    2  502  501 -0.18521358463E+01  0.34384607582E+02 -0.82624939487E+02  0.89513196072E+02  0.00000000000E+00 0. -1.
<mgrwt>
<rscale>  1 0.12965828E+03</rscale>
<asrwt>0</asrwt>
<pdfrwt beam="2">  1        4 0.16162833E-01 0.12965828E+03</pdfrwt>
<pdfrwt beam="1">  1       -4 0.34579862E-01 0.12965828E+03</pdfrwt>
<totfact> 0.43998240E+02</totfact>
</mgrwt>
</event>
<event>
 6    4  0.2398389E-003  0.1268904E+03  0.7818608E-02  0.1232144E+00
         -4   -1    0    0    0  501 -0.00000000000E+00  0.00000000000E+00  0.89087025861E+03  0.89087116385E+03  0.12700000000E+01 0. -1.
          4   -1    0    0  502    0  0.00000000000E+00 -0.00000000000E+00 -0.66433089689E+01  0.67636125005E+01  0.12700000000E+01 0. -1.
         25    2    1    2    0    0  0.21741046738E+02  0.18617866115E+01  0.82101039432E+03  0.83075823166E+03  0.12500013012E+03 0.  0.
    9000005    1    3    3    0    0  0.43988500589E+02 -0.29243792119E+02  0.15708053252E+03  0.16572712892E+03  0.10000000000E+01 0.  0.
    9000005    1    3    3    0    0 -0.22247453852E+02  0.31105578730E+02  0.66392986179E+03  0.66503110274E+03  0.10000000000E+01 0.  0.
         21    1    1    2  502  501 -0.21741046738E+02 -0.18617866115E+01  0.63216555326E+02  0.66876544692E+02  0.00000000000E+00 0. -1.
<mgrwt>
<rscale>  1 0.12689039E+03</rscale>
<asrwt>0</asrwt>
<pdfrwt beam="2">  1        4 0.10313706E-02 0.12689039E+03</pdfrwt>
<pdfrwt beam="1">  1       -4 0.13706638E+00 0.12689039E+03</pdfrwt>
<totfact> 0.18257487E+03</totfact>
</mgrwt>
</event>
<event>
 6    4  0.2398389E-003  0.1984908E+03  0.7818608E-02  0.1151019E+00
         -4   -1    0    0    0  501 -0.00000000000E+00  0.00000000000E+00  0.25953703966E+02  0.25984758024E+02  0.12700000000E+01 0. -1.
          4   -1    0    0  502    0  0.00000000000E+00 -0.00000000000E+00 -0.14108412487E+04  0.14108418203E+04  0.12700000000E+01 0. -1.
         25    2    1    2    0    0 -0.12344260304E+03  0.92390563074E+02 -0.48869760297E+03  0.52746938553E+03  0.12499805250E+03 0.  0.
    9000005    1    3    3    0    0 -0.57613803937E+02  0.30587494229E+01 -0.54702645014E+02  0.79511544594E+02  0.10000000000E+01 0.  0.
    9000005    1    3    3    0    0 -0.65828799107E+02  0.89331813651E+02 -0.43399495796E+03  0.44795784093E+03  0.10000000000E+01 0.  0.
         21    1    1    2  502  501  0.12344260304E+03 -0.92390563074E+02 -0.89618994179E+03  0.90935719283E+03  0.00000000000E+00 0. -1.
<mgrwt>
<rscale>  1 0.19849082E+03</rscale>
<asrwt>0</asrwt>
<pdfrwt beam="2">  1        4 0.21705487E+00 0.19849082E+03</pdfrwt>
<pdfrwt beam="1">  1       -4 0.39953114E-02 0.19849082E+03</pdfrwt>
<totfact> 0.69357316E+01</totfact>
</mgrwt>
</event>
<event>
 6    4  0.2398389E-003  0.1268538E+03  0.7818608E-02  0.1232200E+00
         -4   -1    0    0    0  501 -0.00000000000E+00  0.00000000000E+00  0.12908035038E+03  0.12908659789E+03  0.12700000000E+01 0. -1.
          4   -1    0    0  502    0  0.00000000000E+00 -0.00000000000E+00 -0.43907802218E+02  0.43926165273E+02  0.12700000000E+01 0. -1.
         25    2    1    2    0    0  0.20991822752E+02  0.51394810790E+01  0.61556220359E+02  0.14100023706E+03  0.12499931079E+03 0.  0.
    9000005    1    3    3    0    0  0.27765404804E+02 -0.45961475659E+02  0.70547872423E+02  0.88664408035E+02  0.10000000000E+01 0.  0.
    9000005    1    3    3    0    0 -0.67735820519E+01  0.51100956738E+02 -0.89916520643E+01  0.52335829030E+02  0.10000000000E+01 0.  0.
         21    1    1    2  502  501 -0.20991822752E+02 -0.51394810790E+01  0.23616327808E+02  0.32012526101E+02  0.00000000000E+00 0. -1.
<mgrwt>
<rscale>  1 0.12685385E+03</rscale>
<asrwt>0</asrwt>
<pdfrwt beam="2">  1        4 0.67569397E-02 0.12685385E+03</pdfrwt>
<pdfrwt beam="1">  1       -4 0.19860408E-01 0.12685385E+03</pdfrwt>
<totfact> 0.53580407E+03</totfact>
</mgrwt>
</event>
<event>
 6    4  0.2398389E-003  0.1270960E+03  0.7818608E-02  0.1231830E+00
          4   -1    0    0  502    0  0.00000000000E+00  0.00000000000E+00  0.72689244079E+03  0.72689355024E+03  0.12700000000E+01 0.  1.
         -4   -1    0    0    0  501 -0.00000000000E+00 -0.00000000000E+00 -0.10935476933E+02  0.11008976144E+02  0.12700000000E+01 0.  1.
         25    2    1    2    0    0  0.15678925921E+02 -0.16796268834E+02  0.37071229949E+03  0.39189411371E+03  0.12500177600E+03 0.  0.
    9000005    1    3    3    0    0 -0.46839798114E+02  0.15820773521E+02  0.92561688696E+02  0.10494250700E+03  0.10000000000E+01 0.  0.
    9000005    1    3    3    0    0  0.62518724035E+02 -0.32617042354E+02  0.27815061079E+03  0.28695160671E+03  0.10000000000E+01 0.  0.
         21    1    1    2  502  501 -0.15678925921E+02  0.16796268834E+02  0.34524466437E+03  0.34600841268E+03  0.00000000000E+00 0.  1.
<mgrwt>
<rscale>  1 0.12709598E+03</rscale>
<asrwt>0</asrwt>
<pdfrwt beam="1">  1        4 0.11183533E+00 0.12709598E+03</pdfrwt>
<pdfrwt beam="2">  1       -4 0.16881204E-02 0.12709598E+03</pdfrwt>
<totfact> 0.14141287E+03</totfact>
</mgrwt>
</event>
<event>
 6    4  0.2398389E-003  0.1349694E+03  0.7818608E-02  0.1220263E+00
         -4   -1    0    0    0  501 -0.00000000000E+00  0.00000000000E+00  0.18578500161E+02  0.18621857271E+02  0.12700000000E+01 0.  1.
          4   -1    0    0  502    0  0.00000000000E+00 -0.00000000000E+00 -0.50710230760E+03  0.50710389791E+03  0.12700000000E+01 0.  1.
         25    2    1    2    0    0  0.37792523003E+02 -0.34111458944E+02 -0.27660653983E+03  0.30777898476E+03  0.12499943662E+03 0.  0.
    9000005    1    3    3    0    0  0.27434437687E+02  0.46332592713E+02 -0.11049749211E+03  0.12292295669E+03  0.10000000000E+01 0.  0.
    9000005    1    3    3    0    0  0.10358085316E+02 -0.80444051658E+02 -0.16610904772E+03  0.18485602807E+03  0.10000000000E+01 0.  0.
         21    1    1    2  502  501 -0.37792523003E+02  0.34111458944E+02 -0.21191726761E+03  0.21794677042E+03  0.00000000000E+00 0.  1.
<mgrwt>
<rscale>  1 0.13496935E+03</rscale>
<asrwt>0</asrwt>
<pdfrwt beam="2">  1        4 0.78019187E-01 0.13496935E+03</pdfrwt>
<pdfrwt beam="1">  1       -4 0.28616887E-02 0.13496935E+03</pdfrwt>
<totfact> 0.14397736E+03</totfact>
</mgrwt>
</event>
<event>
 6    4  0.2398389E-003  0.1281676E+03  0.7818608E-02  0.1230200E+00
         -4   -1    0    0    0  501 -0.00000000000E+00  0.00000000000E+00  0.25244484081E+02  0.25276409486E+02  0.12700000000E+01 0. -1.
          4   -1    0    0  502    0  0.00000000000E+00 -0.00000000000E+00 -0.50152726074E+03  0.50152886872E+03  0.12700000000E+01 0. -1.
         25    2    1    2    0    0 -0.23062073184E+02 -0.16543551825E+02 -0.14187331652E+03  0.19119354517E+03  0.12498554095E+03 0.  0.
    9000005    1    3    3    0    0 -0.27909953889E+02 -0.47513427000E+02 -0.10469836049E+02  0.56099097482E+02  0.10000000000E+01 0.  0.
    9000005    1    3    3    0    0  0.48478807057E+01  0.30969875175E+02 -0.13140348047E+03  0.13509444769E+03  0.10000000000E+01 0.  0.
         21    1    1    2  502  501  0.23062073184E+02  0.16543551825E+02 -0.33440946013E+03  0.33561173304E+03  0.00000000000E+00 0.  1.
<mgrwt>
<rscale>  1 0.12816760E+03</rscale>
<asrwt>0</asrwt>
<pdfrwt beam="2">  1        4 0.77160612E-01 0.12816760E+03</pdfrwt>
<pdfrwt beam="1">  1       -4 0.38863467E-02 0.12816760E+03</pdfrwt>
<totfact> 0.90135627E+02</totfact>
</mgrwt>
</event>
<event>
 6    4  0.2398389E-003  0.1309130E+03  0.7818608E-02  0.1226107E+00
          4   -1    0    0  502    0  0.00000000000E+00  0.00000000000E+00  0.20750583631E+03  0.20750972267E+03  0.12700000000E+01 0.  1.
         -4   -1    0    0    0  501 -0.00000000000E+00 -0.00000000000E+00 -0.37464789063E+02  0.37486308428E+02  0.12700000000E+01 0.  1.
         25    2    1    2    0    0  0.36520234270E+02 -0.13684848740E+02  0.99655823208E+02  0.16452813465E+03  0.12496888171E+03 0.  0.
    9000005    1    3    3    0    0  0.40625328392E+01  0.54631952896E+02  0.48864181226E+02  0.73415684000E+02  0.10000000000E+01 0.  0.
    9000005    1    3    3    0    0  0.32457701431E+02 -0.68316801636E+02  0.50791641982E+02  0.91112450648E+02  0.10000000000E+01 0.  0.
         21    1    1    2  502  501 -0.36520234270E+02  0.13684848740E+02  0.70385224043E+02  0.80467896454E+02  0.00000000000E+00 0.  1.
<mgrwt>
<rscale>  1 0.13091304E+03</rscale>
<asrwt>0</asrwt>
<pdfrwt beam="1">  1        4 0.31925929E-01 0.13091304E+03</pdfrwt>
<pdfrwt beam="2">  1       -4 0.57657680E-02 0.13091304E+03</pdfrwt>
<totfact> 0.29088014E+03</totfact>
</mgrwt>
</event>
<event>
 6    4  0.2398389E-003  0.1297032E+03  0.7818608E-02  0.1227897E+00
         -4   -1    0    0    0  501 -0.00000000000E+00  0.00000000000E+00  0.16295747925E+03  0.16296242802E+03  0.12700000000E+01 0. -1.
          4   -1    0    0  502    0  0.00000000000E+00 -0.00000000000E+00 -0.51793106192E+02  0.51808674457E+02  0.12700000000E+01 0. -1.
         25    2    1    2    0    0  0.34374289590E+02 -0.42457318397E+01  0.12242019112E+03  0.17835254314E+03  0.12499323352E+03 0.  0.
    9000005    1    3    3    0    0  0.42424514238E+02 -0.49087669866E+01  0.14667454405E+03  0.15276896699E+03  0.10000000000E+01 0.  0.
    9000005    1    3    3    0    0 -0.80502246473E+01  0.66303514689E+00 -0.24254352933E+02  0.25583576151E+02  0.10000000000E+01 0.  0.
         21    1    1    2  502  501 -0.34374289590E+02  0.42457318397E+01 -0.11255818058E+02  0.36418559333E+02  0.00000000000E+00 0.  1.
<mgrwt>
<rscale>  1 0.12970322E+03</rscale>
<asrwt>0</asrwt>
<pdfrwt beam="2">  1        4 0.79697485E-02 0.12970322E+03</pdfrwt>
<pdfrwt beam="1">  1       -4 0.25071959E-01 0.12970322E+03</pdfrwt>
<totfact> 0.26873134E+03</totfact>
</mgrwt>
</event>
<event>
 6    4  0.2398389E-003  0.1340910E+03  0.7818608E-02  0.1221509E+00
          4   -1    0    0  502    0  0.00000000000E+00  0.00000000000E+00  0.30877282147E+03  0.30877543325E+03  0.12700000000E+01 0. -1.
         -4   -1    0    0    0  501 -0.00000000000E+00 -0.00000000000E+00 -0.51214451561E+02  0.51230195673E+02  0.12700000000E+01 0. -1.
         25    2    1    2    0    0  0.33553957249E+02  0.34931995132E+02  0.44154179459E+02  0.14117359097E+03  0.12503711007E+03 0.  0.
    9000005    1    3    3    0    0  0.10545349265E+02  0.55302065585E+02  0.77513516365E+02  0.95806409329E+02  0.10000000000E+01 0.  0.
    9000005    1    3    3    0    0  0.23008607984E+02 -0.20370070453E+02 -0.33359336907E+02  0.45367181646E+02  0.10000000000E+01 0.  0.
         21    1    1    2  502  501 -0.33553957249E+02 -0.34931995132E+02  0.21340419045E+03  0.21883203795E+03  0.00000000000E+00 0. -1.
<mgrwt>
<rscale>  1 0.13409098E+03</rscale>
<asrwt>0</asrwt>
<pdfrwt beam="1">  1        4 0.47504924E-01 0.13409098E+03</pdfrwt>
<pdfrwt beam="2">  1       -4 0.78805582E-02 0.13409098E+03</pdfrwt>
<totfact> 0.80466241E+02</totfact>
</mgrwt>
</event>
<event>
 6    4  0.2398389E-003  0.1282818E+03  0.7818608E-02  0.1230028E+00
          4   -1    0    0  502    0  0.00000000000E+00  0.00000000000E+00  0.33991623336E+03  0.33991860585E+03  0.12700000000E+01 0.  1.
         -4   -1    0    0    0  501 -0.00000000000E+00 -0.00000000000E+00 -0.19683283222E+02  0.19724211984E+02  0.12700000000E+01 0.  1.
         25    2    1    2    0    0  0.54728930605E+01  0.28226397765E+02  0.21322563013E+03  0.24884007136E+03  0.12501811742E+03 0.  0.
    9000005    1    3    3    0    0  0.32014045106E+02 -0.42127392222E+02  0.81990713099E+02  0.97586337640E+02  0.10000000000E+01 0.  0.
    9000005    1    3    3    0    0 -0.26541152046E+02  0.70353789987E+02  0.13123491703E+03  0.15125373372E+03  0.10000000000E+01 0.  0.
         21    1    1    2  502  501 -0.54728930605E+01 -0.28226397765E+02  0.10700732001E+03  0.11080274647E+03  0.00000000000E+00 0.  1.
<mgrwt>
<rscale>  1 0.12828177E+03</rscale>
<asrwt>0</asrwt>
<pdfrwt beam="1">  1        4 0.52298134E-01 0.12828177E+03</pdfrwt>
<pdfrwt beam="2">  1       -4 0.30315284E-02 0.12828177E+03</pdfrwt>
<totfact> 0.30395325E+03</totfact>
</mgrwt>
</event>
<event>
 6    4  0.2398389E-003  0.1275676E+03  0.7818608E-02  0.1231110E+00
         -4   -1    0    0    0  501 -0.00000000000E+00  0.00000000000E+00  0.35976042003E+03  0.35976266165E+03  0.12700000000E+01 0.  1.
          4   -1    0    0  502    0  0.00000000000E+00 -0.00000000000E+00 -0.23875131825E+02  0.23908885789E+02  0.12700000000E+01 0.  1.
         25    2    1    2    0    0 -0.22826779209E+02 -0.11297310798E+02  0.33468654518E+03  0.35817393843E+03  0.12499918227E+03 0.  0.
    9000005    1    3    3    0    0  0.34702574512E+02  0.31257091848E+02  0.20291755085E+03  0.20822537528E+03  0.10000000000E+01 0.  0.
    9000005    1    3    3    0    0 -0.57529353721E+02 -0.42554402645E+02  0.13176899434E+03  0.14994856315E+03  0.10000000000E+01 0.  0.
         21    1    1    2  502  501  0.22826779209E+02  0.11297310798E+02  0.11987430228E+01  0.25497609009E+02  0.00000000000E+00 0. -1.
<mgrwt>
<rscale>  1 0.12756758E+03</rscale>
<asrwt>0</asrwt>
<pdfrwt beam="2">  1        4 0.36758659E-02 0.12756758E+03</pdfrwt>
<pdfrwt beam="1">  1       -4 0.55350528E-01 0.12756758E+03</pdfrwt>
<totfact> 0.19948203E+03</totfact>
</mgrwt>
</event>
<event>
 6    4  0.2398389E-003  0.1274256E+03  0.7818608E-02  0.1231326E+00
         -4   -1    0    0    0  501 -0.00000000000E+00  0.00000000000E+00  0.41708868392E+03  0.41709061744E+03  0.12700000000E+01 0.  1.
          4   -1    0    0  502    0  0.00000000000E+00 -0.00000000000E+00 -0.15624569885E+02  0.15676099135E+02  0.12700000000E+01 0.  1.
         25    2    1    2    0    0 -0.23653092393E+02 -0.74606464442E+01  0.37690594010E+03  0.39786350852E+03  0.12498861431E+03 0.  0.
    9000005    1    3    3    0    0 -0.32839599780E+02 -0.21397814197E+02  0.37898914416E+03  0.38101191210E+03  0.10000000000E+01 0.  0.
    9000005    1    3    3    0    0  0.91865073863E+01  0.13937167752E+02 -0.20832040647E+01  0.16851596426E+02  0.10000000000E+01 0.  0.
         21    1    1    2  502  501  0.23653092393E+02  0.74606464442E+01  0.24558173937E+02  0.34903208051E+02  0.00000000000E+00 0.  1.
<mgrwt>
<rscale>  1 0.12742560E+03</rscale>
<asrwt>0</asrwt>
<pdfrwt beam="2">  1        4 0.24078928E-02 0.12742560E+03</pdfrwt>
<pdfrwt beam="1">  1       -4 0.64171595E-01 0.12742560E+03</pdfrwt>
<totfact> 0.28354304E+03</totfact>
</mgrwt>
</event>
<event>
 6    4  0.2398389E-003  0.1288459E+03  0.7818608E-02  0.1229178E+00
          4   -1    0    0  502    0  0.00000000000E+00  0.00000000000E+00  0.68102071164E+03  0.68102189582E+03  0.12700000000E+01 0. -1.
         -4   -1    0    0    0  501 -0.00000000000E+00 -0.00000000000E+00 -0.12729424004E+02  0.12792620352E+02  0.12700000000E+01 0. -1.
         25    2    1    2    0    0  0.17583796649E+01 -0.31177373697E+02  0.33277136353E+03  0.35684457686E+03  0.12500460438E+03 0.  0.
    9000005    1    3    3    0    0  0.45350340691E+02 -0.74944785094E+01  0.28247249892E+03  0.28618968055E+03  0.10000000000E+01 0.  0.
    9000005    1    3    3    0    0 -0.43591961026E+02 -0.23682895188E+02  0.50298864614E+02  0.70654896307E+02  0.10000000000E+01 0.  0.
         21    1    1    2  502  501 -0.17583796649E+01  0.31177373697E+02  0.33551992410E+03  0.33696993931E+03  0.00000000000E+00 0. -1.
<mgrwt>
<rscale>  1 0.12884592E+03</rscale>
<asrwt>0</asrwt>
<pdfrwt beam="1">  1        4 0.10477735E+00 0.12884592E+03</pdfrwt>
<pdfrwt beam="2">  1       -4 0.19633257E-02 0.12884592E+03</pdfrwt>
<totfact> 0.13112511E+03</totfact>
</mgrwt>
</event>
<event>
 6    4  0.2398389E-003  0.1325559E+03  0.7818608E-02  0.1223712E+00
          4   -1    0    0  502    0  0.00000000000E+00  0.00000000000E+00  0.12154416604E+02  0.12220586851E+02  0.12700000000E+01 0. -1.
         -4   -1    0    0    0  501 -0.00000000000E+00 -0.00000000000E+00 -0.80147444526E+03  0.80147545146E+03  0.12700000000E+01 0. -1.
         25    2    1    2    0    0 -0.43892156726E+02 -0.42223028431E+01 -0.71577049025E+03  0.72794124916E+03  0.12500687283E+03 0.  0.
    9000005    1    3    3    0    0 -0.65089487126E+02  0.15466946773E+01 -0.69382336062E+03  0.69687221880E+03  0.10000000000E+01 0.  0.
    9000005    1    3    3    0    0  0.21197330400E+02 -0.57689975204E+01 -0.21947129635E+02  0.31069030363E+02  0.10000000000E+01 0.  0.
         21    1    1    2  502  501  0.43892156726E+02  0.42223028431E+01 -0.73549538401E+02  0.85754789151E+02  0.00000000000E+00 0. -1.
<mgrwt>
<rscale>  1 0.13255590E+03</rscale>
<asrwt>0</asrwt>
<pdfrwt beam="1">  1        4 0.18750783E-02 0.13255590E+03</pdfrwt>
<pdfrwt beam="2">  1       -4 0.12330889E+00 0.13255590E+03</pdfrwt>
<totfact> 0.96226843E+02</totfact>
</mgrwt>
</event>
<event>
 6    4  0.2398389E-003  0.1287751E+03  0.7818608E-02  0.1229285E+00
         -4   -1    0    0    0  501 -0.00000000000E+00  0.00000000000E+00  0.63488712581E+03  0.63488839604E+03  0.12700000000E+01 0.  1.
          4   -1    0    0  502    0  0.00000000000E+00 -0.00000000000E+00 -0.10014751940E+02  0.10094956979E+02  0.12700000000E+01 0.  1.
         25    2    1    2    0    0 -0.61066273773E+01 -0.30351217205E+02  0.51122711422E+03  0.52719654423E+03  0.12499818657E+03 0.  0.
    9000005    1    3    3    0    0  0.23809255241E+02  0.41390432715E+02  0.14014499744E+03  0.14805968008E+03  0.10000000000E+01 0.  0.
    9000005    1    3    3    0    0 -0.29915882618E+02 -0.71741649920E+02  0.37108211678E+03  0.37913686415E+03  0.10000000000E+01 0.  0.
         21    1    1    2  502  501  0.61066273773E+01  0.30351217205E+02  0.11364525965E+03  0.11778680879E+03  0.00000000000E+00 0.  1.
<mgrwt>
<rscale>  1 0.12877513E+03</rscale>
<asrwt>0</asrwt>
<pdfrwt beam="2">  1        4 0.15469982E-02 0.12877513E+03</pdfrwt>
<pdfrwt beam="1">  1       -4 0.97681224E-01 0.12877513E+03</pdfrwt>
<totfact> 0.22216312E+03</totfact>
</mgrwt>
</event>
<event>
 6    4  0.2398389E-003  0.1298579E+03  0.7818608E-02  0.1227667E+00
         -4   -1    0    0    0  501 -0.00000000000E+00  0.00000000000E+00  0.24099948780E+02  0.24133388308E+02  0.12700000000E+01 0. -1.
          4   -1    0    0  502    0  0.00000000000E+00 -0.00000000000E+00 -0.28266592527E+03  0.28266877827E+03  0.12700000000E+01 0. -1.
         25    2    1    2    0    0  0.35000085584E+02 -0.36302984508E+01 -0.19910998815E+03  0.23771382018E+03  0.12499955147E+03 0.  0.
    9000005    1    3    3    0    0 -0.36063748411E+02  0.33825910894E+02 -0.79571336385E+02  0.93687692743E+02  0.10000000000E+01 0.  0.
    9000005    1    3    3    0    0  0.71063833995E+02 -0.37456209345E+02 -0.11953865176E+03  0.14402612744E+03  0.10000000000E+01 0.  0.
         21    1    1    2  502  501 -0.35000085584E+02  0.36302984508E+01 -0.59455988340E+02  0.69088346392E+02  0.00000000000E+00 0. -1.
<mgrwt>
<rscale>  1 0.12985790E+03</rscale>
<asrwt>0</asrwt>
<pdfrwt beam="2">  1        4 0.43489855E-01 0.12985790E+03</pdfrwt>
<pdfrwt beam="1">  1       -4 0.37104764E-02 0.12985790E+03</pdfrwt>
<totfact> 0.32196235E+03</totfact>
</mgrwt>
</event>
<event>
 6    4  0.2398389E-003  0.1432257E+03  0.7818608E-02  0.1209053E+00
         -4   -1    0    0    0  501 -0.00000000000E+00  0.00000000000E+00  0.44155189039E+03  0.44155371679E+03  0.12700000000E+01 0.  1.
          4   -1    0    0  502    0  0.00000000000E+00 -0.00000000000E+00 -0.27495814339E+02  0.27525128631E+02  0.12700000000E+01 0.  1.
         25    2    1    2    0    0  0.33084450651E+01 -0.69839090406E+02  0.33002733224E+03  0.35976610991E+03  0.12500067783E+03 0.  0.
    9000005    1    3    3    0    0 -0.10975997814E+02  0.34816504955E+02  0.10526107444E+03  0.11141613589E+03  0.10000000000E+01 0.  0.
    9000005    1    3    3    0    0  0.14284442879E+02 -0.10465559536E+03  0.22476625780E+03  0.24834997402E+03  0.10000000000E+01 0.  0.
         21    1    1    2  502  501 -0.33084450651E+01  0.69839090406E+02  0.84028743819E+02  0.10931273551E+03  0.00000000000E+00 0.  1.
<mgrwt>
<rscale>  1 0.14322574E+03</rscale>
<asrwt>0</asrwt>
<pdfrwt beam="2">  1        4 0.42325207E-02 0.14322574E+03</pdfrwt>
<pdfrwt beam="1">  1       -4 0.67933456E-01 0.14322574E+03</pdfrwt>
<totfact> 0.10619629E+03</totfact>
</mgrwt>
</event>
<event>
 6    4  0.2398389E-003  0.1276272E+03  0.7818608E-02  0.1231020E+00
          4   -1    0    0  502    0  0.00000000000E+00  0.00000000000E+00  0.61920945010E+03  0.61921075248E+03  0.12700000000E+01 0. -1.
         -4   -1    0    0    0  501 -0.00000000000E+00 -0.00000000000E+00 -0.26329898140E+02  0.26360509025E+02  0.12700000000E+01 0. -1.
         25    2    1    2    0    0 -0.21262244178E+02  0.14555025940E+02  0.13071352134E+03  0.18268750541E+03  0.12499907265E+03 0.  0.
    9000005    1    3    3    0    0 -0.36547625053E+02  0.29773019238E+02  0.14780878486E+03  0.15514702206E+03  0.10000000000E+01 0.  0.
    9000005    1    3    3    0    0  0.15285380875E+02 -0.15217993298E+02 -0.17095263516E+02  0.27540483351E+02  0.10000000000E+01 0.  0.
         21    1    1    2  502  501  0.21262244178E+02 -0.14555025940E+02  0.46216603061E+03  0.46288375610E+03  0.00000000000E+00 0.  1.
<mgrwt>
<rscale>  1 0.12762719E+03</rscale>
<asrwt>0</asrwt>
<pdfrwt beam="1">  1        4 0.95265448E-01 0.12762719E+03</pdfrwt>
<pdfrwt beam="2">  1       -4 0.40532084E-02 0.12762719E+03</pdfrwt>
<totfact> 0.52581413E+02</totfact>
</mgrwt>
</event>
<event>
 6    4  0.2398389E-003  0.1282262E+03  0.7818608E-02  0.1230112E+00
          4   -1    0    0  502    0  0.00000000000E+00  0.00000000000E+00  0.19260011344E+02  0.19301837658E+02  0.12700000000E+01 0. -1.
         -4   -1    0    0    0  501 -0.00000000000E+00 -0.00000000000E+00 -0.50441238826E+03  0.50441398705E+03  0.12700000000E+01 0. -1.
         25    2    1    2    0    0 -0.18586394291E+02 -0.21713762107E+02 -0.47708598347E+03  0.49401720150E+03  0.12500007293E+03 0.  0.
    9000005    1    3    3    0    0  0.23108808344E+02  0.35903167797E+01 -0.41207147578E+03  0.41273576117E+03  0.10000000000E+01 0.  0.
    9000005    1    3    3    0    0 -0.41695202634E+02 -0.25304078887E+02 -0.65014507685E+02  0.81281440321E+02  0.10000000000E+01 0.  0.
         21    1    1    2  502  501  0.18586394291E+02  0.21713762107E+02 -0.80663934514E+01  0.29698623216E+02  0.00000000000E+00 0. -1.
<mgrwt>
<rscale>  1 0.12822621E+03</rscale>
<asrwt>0</asrwt>
<pdfrwt beam="1">  1        4 0.29664194E-02 0.12822621E+03</pdfrwt>
<pdfrwt beam="2">  1       -4 0.77605236E-01 0.12822621E+03</pdfrwt>
<totfact> 0.13616933E+03</totfact>
</mgrwt>
</event>
<event>
 6    4  0.2398389E-003  0.1282342E+03  0.7818608E-02  0.1230100E+00
          4   -1    0    0  502    0  0.00000000000E+00  0.00000000000E+00  0.18815457833E+02  0.18858270161E+02  0.12700000000E+01 0.  1.
         -4   -1    0    0    0  501 -0.00000000000E+00 -0.00000000000E+00 -0.32658858038E+03  0.32659104968E+03  0.12700000000E+01 0.  1.
         25    2    1    2    0    0  0.21162086495E+01 -0.28562536414E+02 -0.25066330941E+03  0.28156013780E+03  0.12499487866E+03 0.  0.
    9000005    1    3    3    0    0  0.21985888227E+02 -0.48587371492E+02 -0.34417420767E+02  0.63479688105E+02  0.10000000000E+01 0.  0.
    9000005    1    3    3    0    0 -0.19869679577E+02  0.20024835078E+02 -0.21624588864E+03  0.21808044970E+03  0.10000000000E+01 0.  0.
         21    1    1    2  502  501 -0.21162086495E+01  0.28562536414E+02 -0.57109813136E+02  0.63889182042E+02  0.00000000000E+00 0. -1.
<mgrwt>
<rscale>  1 0.12823423E+03</rscale>
<asrwt>0</asrwt>
<pdfrwt beam="1">  1        4 0.28981693E-02 0.12823423E+03</pdfrwt>
<pdfrwt beam="2">  1       -4 0.50247876E-01 0.12823423E+03</pdfrwt>
<totfact> 0.35383676E+03</totfact>
</mgrwt>
</event>
<event>
 6    4  0.2398389E-003  0.1299200E+03  0.7818608E-02  0.1227574E+00
          4   -1    0    0  502    0  0.00000000000E+00  0.00000000000E+00  0.10328138783E+03  0.10328919581E+03  0.12700000000E+01 0.  1.
         -4   -1    0    0    0  501 -0.00000000000E+00 -0.00000000000E+00 -0.79303205254E+02  0.79313373800E+02  0.12700000000E+01 0.  1.
         25    2    1    2    0    0  0.31872912771E+02  0.15441486849E+02 -0.14001164985E+02  0.13067229977E+03  0.12499958089E+03 0.  0.
    9000005    1    3    3    0    0  0.51202516690E+02  0.61257288299E+02 -0.13206856003E+02  0.80929439209E+02  0.10000000000E+01 0.  0.
    9000005    1    3    3    0    0 -0.19329603919E+02 -0.45815801450E+02 -0.79430898279E+00  0.49742860563E+02  0.10000000000E+01 0.  0.
         21    1    1    2  502  501 -0.31872912771E+02 -0.15441486849E+02  0.37979347557E+02  0.51930269838E+02  0.00000000000E+00 0.  1.
<mgrwt>
<rscale>  1 0.12992004E+03</rscale>
<asrwt>0</asrwt>
<pdfrwt beam="1">  1        4 0.15890827E-01 0.12992004E+03</pdfrwt>
<pdfrwt beam="2">  1       -4 0.12201876E-01 0.12992004E+03</pdfrwt>
<totfact> 0.29811826E+03</totfact>
</mgrwt>
</event>
<event>
 6    4  0.2398389E-003  0.1298344E+03  0.7818608E-02  0.1227702E+00
          4   -1    0    0  502    0  0.00000000000E+00  0.00000000000E+00  0.36281597847E+03  0.36281820122E+03  0.12700000000E+01 0.  1.
         -4   -1    0    0    0  501 -0.00000000000E+00 -0.00000000000E+00 -0.27026323552E+02  0.27056146524E+02  0.12700000000E+01 0.  1.
         25    2    1    2    0    0  0.25340328203E+02 -0.24467889798E+02  0.13998355590E+03  0.19092501178E+03  0.12496461234E+03 0.  0.
    9000005    1    3    3    0    0  0.25932683332E+02  0.15701624188E+02  0.14702949618E+03  0.15012567340E+03  0.10000000000E+01 0.  0.
    9000005    1    3    3    0    0 -0.59235512874E+00 -0.40169513986E+02 -0.70459402757E+01  0.40799338388E+02  0.10000000000E+01 0.  0.
         21    1    1    2  502  501 -0.25340328203E+02  0.24467889798E+02  0.19580609902E+03  0.19894933596E+03  0.00000000000E+00 0.  1.
<mgrwt>
<rscale>  1 0.12983437E+03</rscale>
<asrwt>0</asrwt>
<pdfrwt beam="1">  1        4 0.55820301E-01 0.12983437E+03</pdfrwt>
<pdfrwt beam="2">  1       -4 0.41603615E-02 0.12983437E+03</pdfrwt>
<totfact> 0.16175375E+03</totfact>
</mgrwt>
</event>
<event>
 6    4  0.2398389E-003  0.1297940E+03  0.7818608E-02  0.1227762E+00
          4   -1    0    0  502    0  0.00000000000E+00  0.00000000000E+00  0.37580585722E+02  0.37602038817E+02  0.12700000000E+01 0. -1.
         -4   -1    0    0    0  501 -0.00000000000E+00 -0.00000000000E+00 -0.51470512632E+03  0.51470669314E+03  0.12700000000E+01 0. -1.
         25    2    1    2    0    0  0.12083077463E+02 -0.32794794367E+02 -0.49592110860E+03  0.51262485277E+03  0.12499997771E+03 0.  0.
    9000005    1    3    3    0    0  0.35408077994E+02 -0.31173079155E+02 -0.61219410593E+02  0.77293654879E+02  0.10000000000E+01 0.  0.
    9000005    1    3    3    0    0 -0.23325000531E+02 -0.16217152122E+01 -0.43470169800E+03  0.43533119789E+03  0.10000000000E+01 0.  0.
         21    1    1    2  502  501 -0.12083077463E+02  0.32794794367E+02  0.18796567998E+02  0.39683879184E+02  0.00000000000E+00 0. -1.
<mgrwt>
<rscale>  1 0.12979404E+03</rscale>
<asrwt>0</asrwt>
<pdfrwt beam="1">  1        4 0.57833997E-02 0.12979404E+03</pdfrwt>
<pdfrwt beam="2">  1       -4 0.79187170E-01 0.12979404E+03</pdfrwt>
<totfact> 0.45164604E+02</totfact>
</mgrwt>
</event>
<event>
 6    4  0.2398389E-003  0.1291328E+03  0.7818608E-02  0.1228748E+00
          4   -1    0    0  502    0  0.00000000000E+00  0.00000000000E+00  0.21905077013E+04  0.21905080694E+04  0.12700000000E+01 0. -1.
         -4   -1    0    0    0  501 -0.00000000000E+00 -0.00000000000E+00 -0.68781717376E+01  0.69944368216E+01  0.12700000000E+01 0. -1.
         25    2    1    2    0    0 -0.55415213863E+01  0.31916685483E+02  0.60901824423E+03  0.62255803641E+03  0.12500361444E+03 0.  0.
    9000005    1    3    3    0    0 -0.21863764527E+02  0.98397572029E+00  0.12921648063E+02  0.25435435836E+02  0.10000000000E+01 0.  0.
    9000005    1    3    3    0    0  0.16322243141E+02  0.30932709763E+02  0.59609659617E+03  0.59712260057E+03  0.10000000000E+01 0.  0.
         21    1    1    2  502  501  0.55415213863E+01 -0.31916685483E+02  0.15746112853E+04  0.15749444698E+04  0.00000000000E+00 0. -1.
<mgrwt>
<rscale>  1 0.12913283E+03</rscale>
<asrwt>0</asrwt>
<pdfrwt beam="1">  1        4 0.33701000E+00 0.12913283E+03</pdfrwt>
<pdfrwt beam="2">  1       -4 0.10671526E-02 0.12913283E+03</pdfrwt>
<totfact> 0.10158030E+02</totfact>
</mgrwt>
</event>
<event>
 6    4  0.2398389E-003  0.1374447E+03  0.7818608E-02  0.1216809E+00
          4   -1    0    0  502    0  0.00000000000E+00  0.00000000000E+00  0.35869052544E+02  0.35891528672E+02  0.12700000000E+01 0.  1.
         -4   -1    0    0    0  501 -0.00000000000E+00 -0.00000000000E+00 -0.26396334878E+03  0.26396640392E+03  0.12700000000E+01 0.  1.
         25    2    1    2    0    0  0.52661037137E+02 -0.22305624933E+02 -0.16263719306E+03  0.21293636972E+03  0.12498125958E+03 0.  0.
    9000005    1    3    3    0    0  0.67901413789E+02 -0.53370875830E+02 -0.61474707443E+02  0.10601505571E+03  0.10000000000E+01 0.  0.
    9000005    1    3    3    0    0 -0.15240376651E+02  0.31065250897E+02 -0.10116248562E+03  0.10692131402E+03  0.10000000000E+01 0.  0.
         21    1    1    2  502  501 -0.52661037137E+02  0.22305624933E+02 -0.65457103170E+02  0.86921562868E+02  0.00000000000E+00 0.  1.
<mgrwt>
<rscale>  1 0.13744468E+03</rscale>
<asrwt>0</asrwt>
<pdfrwt beam="1">  1        4 0.55202799E-02 0.13744468E+03</pdfrwt>
<pdfrwt beam="2">  1       -4 0.40611709E-01 0.13744468E+03</pdfrwt>
<totfact> 0.19797093E+03</totfact>
</mgrwt>
</event>
<event>
 6    4  0.2398389E-003  0.1266215E+03  0.7818608E-02  0.1232557E+00
         -4   -1    0    0    0  501 -0.00000000000E+00  0.00000000000E+00  0.55195310333E+01  0.56637551878E+01  0.12700000000E+01 0.  1.
          4   -1    0    0  502    0  0.00000000000E+00 -0.00000000000E+00 -0.97707621907E+03  0.97707704444E+03  0.12700000000E+01 0.  1.
         25    2    1    2    0    0  0.77383231499E+01  0.18664440471E+02 -0.79314284622E+03  0.80318651275E+03  0.12499902710E+03 0.  0.
    9000005    1    3    3    0    0  0.42901217933E+02  0.18755613617E+02 -0.11553306272E+03  0.12466425359E+03  0.10000000000E+01 0.  0.
    9000005    1    3    3    0    0 -0.35162894783E+02 -0.91173146220E-01 -0.67760978350E+03  0.67852225916E+03  0.10000000000E+01 0.  0.
         21    1    1    2  502  501 -0.77383231499E+01 -0.18664440471E+02 -0.17841384181E+03  0.17955428687E+03  0.00000000000E+00 0. -1.
<mgrwt>
<rscale>  1 0.12662148E+03</rscale>
<asrwt>0</asrwt>
<pdfrwt beam="2">  1        4 0.15033044E+00 0.12662148E+03</pdfrwt>
<pdfrwt beam="1">  1       -4 0.86031705E-03 0.12662148E+03</pdfrwt>
<totfact> 0.18996147E+03</totfact>
</mgrwt>
</event>
<event>
 6    4  0.2398389E-003  0.1267851E+03  0.7818608E-02  0.1232306E+00
          4   -1    0    0  502    0  0.00000000000E+00  0.00000000000E+00  0.68430428615E+03  0.68430546464E+03  0.12700000000E+01 0.  1.
         -4   -1    0    0    0  501 -0.00000000000E+00 -0.00000000000E+00 -0.79690550968E+01  0.80696182770E+01  0.12700000000E+01 0.  1.
         25    2    1    2    0    0  0.15914518322E+02 -0.14016967083E+02  0.59068416188E+03  0.60413760273E+03  0.12499886672E+03 0.  0.
    9000005    1    3    3    0    0  0.14343930603E+02 -0.27035835568E+02  0.59018284572E+03  0.59097671369E+03  0.10000000000E+01 0.  0.
    9000005    1    3    3    0    0  0.15705877187E+01  0.13018868485E+02  0.50131616376E+00  0.13160889040E+02  0.10000000000E+01 0.  0.
         21    1    1    2  502  501 -0.15914518322E+02  0.14016967083E+02  0.85651069171E+02  0.88237480187E+02  0.00000000000E+00 0. -1.
<mgrwt>
<rscale>  1 0.12678511E+03</rscale>
<asrwt>0</asrwt>
<pdfrwt beam="1">  1        4 0.10528541E+00 0.12678511E+03</pdfrwt>
<pdfrwt beam="2">  1       -4 0.12338348E-02 0.12678511E+03</pdfrwt>
<totfact> 0.26231636E+03</totfact>
</mgrwt>
</event>
<event>
 6    4  0.2398389E-003  0.1356747E+03  0.7818608E-02  0.1219270E+00
         -4   -1    0    0    0  501 -0.00000000000E+00  0.00000000000E+00  0.45244603249E+02  0.45262423964E+02  0.12700000000E+01 0. -1.
          4   -1    0    0  502    0  0.00000000000E+00 -0.00000000000E+00 -0.21517512851E+03  0.21517887635E+03  0.12700000000E+01 0. -1.
         25    2    1    2    0    0  0.20996832026E+02  0.48403801078E+02 -0.83900900989E+02  0.15952107853E+03  0.12499527349E+03 0.  0.
    9000005    1    3    3    0    0  0.35288417126E+02  0.51848151303E+02  0.10827748041E+02  0.63653305526E+02  0.10000000000E+01 0.  0.
    9000005    1    3    3    0    0 -0.14291585100E+02 -0.34443502240E+01 -0.94728649030E+02  0.95867773001E+02  0.10000000000E+01 0.  0.
         21    1    1    2  502  501 -0.20996832026E+02 -0.48403801078E+02 -0.86029624268E+02  0.10092022179E+03  0.00000000000E+00 0. -1.
<mgrwt>
<rscale>  1 0.13567466E+03</rscale>
<asrwt>0</asrwt>
<pdfrwt beam="2">  1        4 0.33105524E-01 0.13567466E+03</pdfrwt>
<pdfrwt beam="1">  1       -4 0.69623675E-02 0.13567466E+03</pdfrwt>
<totfact> 0.20120845E+03</totfact>
</mgrwt>
</event>
<event>
 6    4  0.2398389E-003  0.1369259E+03  0.7818608E-02  0.1217526E+00
         -4   -1    0    0    0  501 -0.00000000000E+00  0.00000000000E+00  0.11125758339E+03  0.11126483165E+03  0.12700000000E+01 0.  1.
          4   -1    0    0  502    0  0.00000000000E+00 -0.00000000000E+00 -0.14033829796E+03  0.14034404431E+03  0.12700000000E+01 0.  1.
         25    2    1    2    0    0 -0.98752642349E+01 -0.55016847544E+02  0.57535441935E+02  0.14852282974E+03  0.12499731805E+03 0.  0.
    9000005    1    3    3    0    0 -0.20722421946E+02 -0.76909358661E+02 -0.65533148823E+01  0.79927555679E+02  0.10000000000E+01 0.  0.
    9000005    1    3    3    0    0  0.10847157711E+02  0.21892511117E+02  0.64088756817E+02  0.68595274063E+02  0.10000000000E+01 0.  0.
         21    1    1    2  502  501  0.98752642349E+01  0.55016847544E+02 -0.86616156502E+02  0.10308604622E+03  0.00000000000E+00 0.  1.
<mgrwt>
<rscale>  1 0.13692591E+03</rscale>
<asrwt>0</asrwt>
<pdfrwt beam="2">  1        4 0.21591507E-01 0.13692591E+03</pdfrwt>
<pdfrwt beam="1">  1       -4 0.17117551E-01 0.13692591E+03</pdfrwt>
<totfact> 0.96877606E+02</totfact>
</mgrwt>
</event>
<event>
 6    4  0.2398389E-003  0.1311373E+03  0.7818608E-02  0.1225778E+00
          4   -1    0    0  502    0  0.00000000000E+00  0.00000000000E+00  0.35593528999E+02  0.35616179001E+02  0.12700000000E+01 0. -1.
         -4   -1    0    0    0  501 -0.00000000000E+00 -0.00000000000E+00 -0.47527555214E+03  0.47527724894E+03  0.12700000000E+01 0. -1.
         25    2    1    2    0    0 -0.34808620293E+02  0.18989215753E+02 -0.45098363462E+03  0.46966289576E+03  0.12499906640E+03 0.  0.
    9000005    1    3    3    0    0 -0.77291178519E+01  0.53954374899E+01  0.62960373459E+01  0.11379371456E+02  0.10000000000E+01 0.  0.
    9000005    1    3    3    0    0 -0.27079502441E+02  0.13593778264E+02 -0.45727967196E+03  0.45828352430E+03  0.10000000000E+01 0.  0.
         21    1    1    2  502  501  0.34808620293E+02 -0.18989215753E+02  0.11301611479E+02  0.41230532178E+02  0.00000000000E+00 0.  1.
<mgrwt>
<rscale>  1 0.13113732E+03</rscale>
<asrwt>0</asrwt>
<pdfrwt beam="1">  1        4 0.54778007E-02 0.13113732E+03</pdfrwt>
<pdfrwt beam="2">  1       -4 0.73121184E-01 0.13113732E+03</pdfrwt>
<totfact> 0.58829108E+02</totfact>
</mgrwt>
</event>
<event>
 6    4  0.2398389E-003  0.1538649E+03  0.7818608E-02  0.1195803E+00
         -4   -1    0    0    0  501 -0.00000000000E+00  0.00000000000E+00  0.99866114056E+01  0.10067040646E+02  0.12700000000E+01 0.  1.
          4   -1    0    0  502    0  0.00000000000E+00 -0.00000000000E+00 -0.15083505977E+04  0.15083511324E+04  0.12700000000E+01 0.  1.
         25    2    1    2    0    0 -0.27929074983E+02 -0.85264428651E+02 -0.10443501437E+04  0.10556238069E+04  0.12499737214E+03 0.  0.
    9000005    1    3    3    0    0 -0.40660085871E+02  0.18542904802E+02 -0.20729029467E+03  0.21205505928E+03  0.10000000000E+01 0.  0.
    9000005    1    3    3    0    0  0.12731010888E+02 -0.10380733345E+03 -0.83705984904E+03  0.84356874764E+03  0.10000000000E+01 0.  0.
         21    1    1    2  502  501  0.27929074983E+02  0.85264428651E+02 -0.45401384261E+03  0.46279436611E+03  0.00000000000E+00 0.  1.
<mgrwt>
<rscale>  1 0.15386487E+03</rscale>
<asrwt>0</asrwt>
<pdfrwt beam="2">  1        4 0.23205999E+00 0.15386487E+03</pdfrwt>
<pdfrwt beam="1">  1       -4 0.15426309E-02 0.15386487E+03</pdfrwt>
<totfact> 0.24181232E+02</totfact>
</mgrwt>
</event>
<event>
 6    4  0.2398389E-003  0.1268588E+03  0.7818608E-02  0.1232193E+00
          4   -1    0    0  502    0  0.00000000000E+00  0.00000000000E+00  0.71478505591E+02  0.71489787113E+02  0.12700000000E+01 0.  1.
         -4   -1    0    0    0  501 -0.00000000000E+00 -0.00000000000E+00 -0.77355073197E+02  0.77365497797E+02  0.12700000000E+01 0.  1.
         25    2    1    2    0    0 -0.14583184587E+02  0.15981826928E+02 -0.80319523205E+01  0.12711284374E+03  0.12500029889E+03 0.  0.
    9000005    1    3    3    0    0 -0.30837110118E+01 -0.42433552845E+02 -0.40962935569E+02  0.59068416020E+02  0.10000000000E+01 0.  0.
    9000005    1    3    3    0    0 -0.11499473575E+02  0.58415379773E+02  0.32930983248E+02  0.68044427723E+02  0.10000000000E+01 0.  0.
         21    1    1    2  502  501  0.14583184587E+02 -0.15981826928E+02  0.21553847144E+01  0.21742441167E+02  0.00000000000E+00 0.  1.
<mgrwt>
<rscale>  1 0.12685883E+03</rscale>
<asrwt>0</asrwt>
<pdfrwt beam="1">  1        4 0.10998363E-01 0.12685883E+03</pdfrwt>
<pdfrwt beam="2">  1       -4 0.11902450E-01 0.12685883E+03</pdfrwt>
<totfact> 0.58312806E+03</totfact>
</mgrwt>
</event>
<event>
 6    4  0.2398389E-003  0.1269127E+03  0.7818608E-02  0.1232110E+00
          4   -1    0    0  502    0  0.00000000000E+00  0.00000000000E+00  0.65275470896E+02  0.65287824292E+02  0.12700000000E+01 0.  1.
         -4   -1    0    0    0  501 -0.00000000000E+00 -0.00000000000E+00 -0.10303648437E+03  0.10304431091E+03  0.12700000000E+01 0.  1.
         25    2    1    2    0    0  0.35192176897E+01 -0.21653554218E+02 -0.57026279234E+02  0.13913604355E+03  0.12500232313E+03 0.  0.
    9000005    1    3    3    0    0  0.77235583687E+01  0.51749716137E+02 -0.14985639554E+02  0.54435795824E+02  0.10000000000E+01 0.  0.
    9000005    1    3    3    0    0 -0.42043406789E+01 -0.73403270356E+02 -0.42040639680E+02  0.84700247722E+02  0.10000000000E+01 0.  0.
         21    1    1    2  502  501 -0.35192176897E+01  0.21653554218E+02  0.19265265759E+02  0.29196091659E+02  0.00000000000E+00 0. -1.
<mgrwt>
<rscale>  1 0.12691273E+03</rscale>
<asrwt>0</asrwt>
<pdfrwt beam="1">  1        4 0.10043932E-01 0.12691273E+03</pdfrwt>
<pdfrwt beam="2">  1       -4 0.15853319E-01 0.12691273E+03</pdfrwt>
<totfact> 0.41412648E+03</totfact>
</mgrwt>
</event>
<event>
 6    4  0.2398389E-003  0.1336537E+03  0.7818608E-02  0.1222133E+00
          4   -1    0    0  502    0  0.00000000000E+00  0.00000000000E+00  0.82523742108E+03  0.82523839831E+03  0.12700000000E+01 0. -1.
         -4   -1    0    0    0  501 -0.00000000000E+00 -0.00000000000E+00 -0.10581336019E+02  0.10657277886E+02  0.12700000000E+01 0. -1.
         25    2    1    2    0    0 -0.35798063738E+02 -0.31089112451E+02  0.68319744983E+03  0.69614802127E+03  0.12496110510E+03 0.  0.
    9000005    1    3    3    0    0 -0.82625748473E+02 -0.18227414638E+02  0.40552528611E+03  0.41425959329E+03  0.10000000000E+01 0.  0.
    9000005    1    3    3    0    0  0.46827684735E+02 -0.12861697813E+02  0.27767216372E+03  0.28188842799E+03  0.10000000000E+01 0.  0.
         21    1    1    2  502  501  0.35798063738E+02  0.31089112451E+02  0.13145863523E+03  0.13974765492E+03  0.00000000000E+00 0.  1.
<mgrwt>
<rscale>  1 0.13365370E+03</rscale>
<asrwt>0</asrwt>
<pdfrwt beam="1">  1        4 0.12696553E+00 0.13365370E+03</pdfrwt>
<pdfrwt beam="2">  1       -4 0.16338146E-02 0.13365370E+03</pdfrwt>
<totfact> 0.11088195E+03</totfact>
</mgrwt>
</event>
<event>
 6    4  0.2398389E-003  0.1272441E+03  0.7818608E-02  0.1231603E+00
          4   -1    0    0  502    0  0.00000000000E+00  0.00000000000E+00  0.94495556137E+02  0.94504090015E+02  0.12700000000E+01 0.  1.
         -4   -1    0    0    0  501 -0.00000000000E+00 -0.00000000000E+00 -0.84006058719E+02  0.84015658073E+02  0.12700000000E+01 0.  1.
         25    2    1    2    0    0 -0.18461955644E+02 -0.14988681863E+02 -0.30757478576E+02  0.13090864204E+03  0.12500218271E+03 0.  0.
    9000005    1    3    3    0    0 -0.44927447525E+02  0.96947630584E+01 -0.65967793603E+02  0.80406552997E+02  0.10000000000E+01 0.  0.
    9000005    1    3    3    0    0  0.26465491881E+02 -0.24683444921E+02  0.35210315027E+02  0.50502089046E+02  0.10000000000E+01 0.  0.
         21    1    1    2  502  501  0.18461955644E+02  0.14988681863E+02  0.41246975994E+02  0.47611106046E+02  0.00000000000E+00 0.  1.
<mgrwt>
<rscale>  1 0.12724406E+03</rscale>
<asrwt>0</asrwt>
<pdfrwt beam="1">  1        4 0.14539173E-01 0.12724406E+03</pdfrwt>
<pdfrwt beam="2">  1       -4 0.12925404E-01 0.12724406E+03</pdfrwt>
<totfact> 0.31384381E+03</totfact>
</mgrwt>
</event>
<event>
 6    4  0.2398389E-003  0.1321181E+03  0.7818608E-02  0.1224346E+00
          4   -1    0    0  502    0  0.00000000000E+00  0.00000000000E+00  0.28275435726E+03  0.28275720937E+03  0.12700000000E+01 0.  1.
         -4   -1    0    0    0  501 -0.00000000000E+00 -0.00000000000E+00 -0.27292638590E+02  0.27322170873E+02  0.12700000000E+01 0.  1.
         25    2    1    2    0    0  0.14278261798E+02  0.40331199414E+02  0.17923353983E+03  0.22266536732E+03  0.12499891838E+03 0.  0.
    9000005    1    3    3    0    0 -0.54316061257E+02  0.16986436711E+02  0.10166648543E+03  0.11651544019E+03  0.10000000000E+01 0.  0.
    9000005    1    3    3    0    0  0.68594323055E+02  0.23344762703E+02  0.77567054401E+02  0.10614992713E+03  0.10000000000E+01 0.  0.
         21    1    1    2  502  501 -0.14278261798E+02 -0.40331199414E+02  0.76228178838E+02  0.87414012922E+02  0.00000000000E+00 0.  1.
<mgrwt>
<rscale>  1 0.13211814E+03</rscale>
<asrwt>0</asrwt>
<pdfrwt beam="1">  1        4 0.43503160E-01 0.13211814E+03</pdfrwt>
<pdfrwt beam="2">  1       -4 0.42013587E-02 0.13211814E+03</pdfrwt>
<totfact> 0.26531165E+03</totfact>
</mgrwt>
</event>
<event>
 6    4  0.2398389E-003  0.1287573E+03  0.7818608E-02  0.1229311E+00
          4   -1    0    0  502    0  0.00000000000E+00  0.00000000000E+00  0.48929244750E+02  0.48945723938E+02  0.12700000000E+01 0. -1.
         -4   -1    0    0    0  501 -0.00000000000E+00 -0.00000000000E+00 -0.13608222180E+03  0.13608814787E+03  0.12700000000E+01 0. -1.
         25    2    1    2    0    0  0.20908787654E+02  0.22643406182E+02 -0.84694404219E+02  0.15411549822E+03  0.12501417296E+03 0.  0.
    9000005    1    3    3    0    0  0.70390522129E+02  0.15809438575E+02 -0.25199107013E+02  0.76424858181E+02  0.10000000000E+01 0.  0.
    9000005    1    3    3    0    0 -0.49481734475E+02  0.68339676080E+01 -0.59495297206E+02  0.77690640038E+02  0.10000000000E+01 0.  0.
         21    1    1    2  502  501 -0.20908787654E+02 -0.22643406182E+02 -0.24585728285E+01  0.30918373584E+02  0.00000000000E+00 0. -1.
<mgrwt>
<rscale>  1 0.12875731E+03</rscale>
<asrwt>0</asrwt>
<pdfrwt beam="1">  1        4 0.75292997E-02 0.12875731E+03</pdfrwt>
<pdfrwt beam="2">  1       -4 0.20937450E-01 0.12875731E+03</pdfrwt>
<totfact> 0.40941966E+03</totfact>
</mgrwt>
</event>
<event>
 6    4  0.2398389E-003  0.1273896E+03  0.7818608E-02  0.1231381E+00
          4   -1    0    0  502    0  0.00000000000E+00  0.00000000000E+00  0.16285875139E+02  0.16335318456E+02  0.12700000000E+01 0. -1.
         -4   -1    0    0    0  501 -0.00000000000E+00 -0.00000000000E+00 -0.36417840173E+03  0.36418061616E+03  0.12700000000E+01 0. -1.
         25    2    1    2    0    0  0.23585887655E+02  0.68361734193E+01 -0.31221939721E+03  0.33720774228E+03  0.12500032838E+03 0.  0.
    9000005    1    3    3    0    0  0.45594787205E+02 -0.33596243513E+02 -0.26600850520E+03  0.27197264024E+03  0.10000000000E+01 0.  0.
    9000005    1    3    3    0    0 -0.22008899550E+02  0.40432416932E+02 -0.46210892012E+02  0.65235102046E+02  0.10000000000E+01 0.  0.
         21    1    1    2  502  501 -0.23585887655E+02 -0.68361734193E+01 -0.35673129375E+02  0.43308192330E+02  0.00000000000E+00 0.  1.
<mgrwt>
<rscale>  1 0.12738960E+03</rscale>
<asrwt>0</asrwt>
<pdfrwt beam="1">  1        4 0.25094932E-02 0.12738960E+03</pdfrwt>
<pdfrwt beam="2">  1       -4 0.56031414E-01 0.12738960E+03</pdfrwt>
<totfact> 0.35341309E+03</totfact>
</mgrwt>
</event>
<event>
 6    4  0.2398389E-003  0.1518283E+03  0.7818608E-02  0.1198244E+00
         -4   -1    0    0    0  501 -0.00000000000E+00  0.00000000000E+00  0.25289845626E+03  0.25290164507E+03  0.12700000000E+01 0. -1.
          4   -1    0    0  502    0  0.00000000000E+00 -0.00000000000E+00 -0.67956419777E+02  0.67968285905E+02  0.12700000000E+01 0. -1.
         25    2    1    2    0    0 -0.10061746473E+02 -0.85587587458E+02  0.48305789276E+02  0.15932755907E+03  0.12500139173E+03 0.  0.
    9000005    1    3    3    0    0 -0.66650660347E+02 -0.56120994869E+02  0.36315777479E+02  0.94401865891E+02  0.10000000000E+01 0.  0.
    9000005    1    3    3    0    0  0.56588913874E+02 -0.29466592589E+02  0.11990011797E+02  0.64925693181E+02  0.10000000000E+01 0.  0.
         21    1    1    2  502  501  0.10061746473E+02  0.85587587458E+02  0.13663624721E+03  0.16154237191E+03  0.00000000000E+00 0. -1.
<mgrwt>
<rscale>  1 0.15182826E+03</rscale>
<asrwt>0</asrwt>
<pdfrwt beam="2">  1        4 0.10455992E-01 0.15182826E+03</pdfrwt>
<pdfrwt beam="1">  1       -4 0.38908613E-01 0.15182826E+03</pdfrwt>
<totfact> 0.76456822E+02</totfact>
</mgrwt>
</event>
<event>
 6    4  0.2398389E-003  0.1280593E+03  0.7818608E-02  0.1230364E+00
         -4   -1    0    0    0  501 -0.00000000000E+00  0.00000000000E+00  0.56868086559E+02  0.56882265855E+02  0.12700000000E+01 0. -1.
          4   -1    0    0  502    0  0.00000000000E+00 -0.00000000000E+00 -0.15396784644E+03  0.15397308413E+03  0.12700000000E+01 0. -1.
         25    2    1    2    0    0  0.53758630271E+01 -0.27272376759E+02 -0.20912548361E+02  0.12975557418E+03  0.12500596751E+03 0.  0.
    9000005    1    3    3    0    0 -0.54111367482E+02 -0.17711037141E+02  0.15923685916E+02  0.59129389482E+02  0.10000000000E+01 0.  0.
    9000005    1    3    3    0    0  0.59487230509E+02 -0.95613396182E+01 -0.36836234278E+02  0.70626184696E+02  0.10000000000E+01 0.  0.
         21    1    1    2  502  501 -0.53758630271E+01  0.27272376759E+02 -0.76187211518E+02  0.81099775809E+02  0.00000000000E+00 0. -1.
<mgrwt>
<rscale>  1 0.12805926E+03</rscale>
<asrwt>0</asrwt>
<pdfrwt beam="2">  1        4 0.23688854E-01 0.12805926E+03</pdfrwt>
<pdfrwt beam="1">  1       -4 0.87504301E-02 0.12805926E+03</pdfrwt>
<totfact> 0.25464768E+03</totfact>
</mgrwt>
</event>
<event>
 6    4  0.2398389E-003  0.1314423E+03  0.7818608E-02  0.1225331E+00
         -4   -1    0    0    0  501 -0.00000000000E+00  0.00000000000E+00  0.17664484573E+04  0.17664489138E+04  0.12700000000E+01 0. -1.
          4   -1    0    0  502    0  0.00000000000E+00 -0.00000000000E+00 -0.49410526833E+01  0.51016567524E+01  0.12700000000E+01 0. -1.
         25    2    1    2    0    0  0.23279845771E+02  0.33326454830E+02  0.15841538548E+04  0.15895975947E+04  0.12499789405E+03 0.  0.
    9000005    1    3    3    0    0  0.39539171023E+02  0.75841779948E+02  0.97512703477E+03  0.97887131717E+03  0.10000000000E+01 0.  0.
    9000005    1    3    3    0    0 -0.16259325252E+02 -0.42515325118E+02  0.60902682001E+03  0.61072627749E+03  0.10000000000E+01 0.  0.
         21    1    1    2  502  501 -0.23279845771E+02 -0.33326454830E+02  0.17735354981E+03  0.18195297591E+03  0.00000000000E+00 0. -1.
<mgrwt>
<rscale>  1 0.13144230E+03</rscale>
<asrwt>0</asrwt>
<pdfrwt beam="2">  1        4 0.77255078E-03 0.13144230E+03</pdfrwt>
<pdfrwt beam="1">  1       -4 0.27177385E+00 0.13144230E+03</pdfrwt>
<totfact> 0.39575782E+02</totfact>
</mgrwt>
</event>
<event>
 6    4  0.2398389E-003  0.1315981E+03  0.7818608E-02  0.1225104E+00
         -4   -1    0    0    0  501 -0.00000000000E+00  0.00000000000E+00  0.17459895048E+03  0.17460356929E+03  0.12700000000E+01 0. -1.
          4   -1    0    0  502    0  0.00000000000E+00 -0.00000000000E+00 -0.46277476498E+02  0.46294899622E+02  0.12700000000E+01 0. -1.
         25    2    1    2    0    0  0.13612673061E+02  0.38832145627E+02  0.12165116260E+03  0.17921233865E+03  0.12499926625E+03 0.  0.
    9000005    1    3    3    0    0 -0.15916746614E+01 -0.35625711782E+02  0.90130515926E+02  0.96934176993E+02  0.10000000000E+01 0.  0.
    9000005    1    3    3    0    0  0.15204347722E+02  0.74457857409E+02  0.31520646672E+02  0.82278161660E+02  0.10000000000E+01 0.  0.
         21    1    1    2  502  501 -0.13612673061E+02 -0.38832145627E+02  0.66703113818E+01  0.41686130257E+02  0.00000000000E+00 0.  1.
<mgrwt>
<rscale>  1 0.13159809E+03</rscale>
<asrwt>0</asrwt>
<pdfrwt beam="2">  1        4 0.71213074E-02 0.13159809E+03</pdfrwt>
<pdfrwt beam="1">  1       -4 0.26863072E-01 0.13159809E+03</pdfrwt>
<totfact> 0.28567445E+03</totfact>
</mgrwt>
</event>
<event>
 6    4  0.2398389E-003  0.1276749E+03  0.7818608E-02  0.1230947E+00
          4   -1    0    0  502    0  0.00000000000E+00  0.00000000000E+00  0.96976845858E+03  0.96976929017E+03  0.12700000000E+01 0.  1.
         -4   -1    0    0    0  501 -0.00000000000E+00 -0.00000000000E+00 -0.65673239303E+01  0.66889942148E+01  0.12700000000E+01 0.  1.
         25    2    1    2    0    0 -0.21781313842E+02  0.14195152581E+02  0.66637817382E+03  0.67849889442E+03  0.12499980481E+03 0.  0.
    9000005    1    3    3    0    0 -0.55167531734E+01  0.69402219965E+02  0.33515498919E+03  0.34231121729E+03  0.10000000000E+01 0.  0.
    9000005    1    3    3    0    0 -0.16264560668E+02 -0.55207067383E+02  0.33122318463E+03  0.33618767714E+03  0.10000000000E+01 0.  0.
         21    1    1    2  502  501  0.21781313842E+02 -0.14195152581E+02  0.29682296083E+03  0.29795938996E+03  0.00000000000E+00 0.  1.
<mgrwt>
<rscale>  1 0.12767490E+03</rscale>
<asrwt>0</asrwt>
<pdfrwt beam="1">  1        4 0.14920446E+00 0.12767490E+03</pdfrwt>
<pdfrwt beam="2">  1       -4 0.10197815E-02 0.12767490E+03</pdfrwt>
<totfact> 0.15028198E+03</totfact>
</mgrwt>
</event>
<event>
 6    4  0.2398389E-003  0.1339186E+03  0.7818608E-02  0.1221754E+00
          4   -1    0    0  502    0  0.00000000000E+00  0.00000000000E+00  0.14587362583E+02  0.14642542372E+02  0.12700000000E+01 0.  1.
         -4   -1    0    0    0  501 -0.00000000000E+00 -0.00000000000E+00 -0.61925598411E+03  0.61925728640E+03  0.12700000000E+01 0.  1.
         25    2    1    2    0    0 -0.27242656919E+02  0.39603087594E+02 -0.51537716769E+03  0.53249208433E+03  0.12499451188E+03 0.  0.
    9000005    1    3    3    0    0 -0.48013872534E+02  0.53591170612E+02 -0.49496658833E+03  0.50017024010E+03  0.10000000000E+01 0.  0.
    9000005    1    3    3    0    0  0.20771215616E+02 -0.13988083017E+02 -0.20410579361E+02  0.32321844231E+02  0.10000000000E+01 0.  0.
         21    1    1    2  502  501  0.27242656919E+02 -0.39603087594E+02 -0.89291453841E+02  0.10140774444E+03  0.00000000000E+00 0. -1.
<mgrwt>
<rscale>  1 0.13391861E+03</rscale>
<asrwt>0</asrwt>
<pdfrwt beam="1">  1        4 0.22485549E-02 0.13391861E+03</pdfrwt>
<pdfrwt beam="2">  1       -4 0.95274476E-01 0.13391861E+03</pdfrwt>
<totfact> 0.13362509E+03</totfact>
</mgrwt>
</event>
<event>
 6    4  0.2398389E-003  0.1307941E+03  0.7818608E-02  0.1226282E+00
          4   -1    0    0  502    0  0.00000000000E+00  0.00000000000E+00  0.16076754550E+03  0.16077256167E+03  0.12700000000E+01 0.  1.
         -4   -1    0    0    0  501 -0.00000000000E+00 -0.00000000000E+00 -0.50026327592E+02  0.50042445507E+02  0.12700000000E+01 0.  1.
         25    2    1    2    0    0  0.16438628450E+02  0.34817996628E+02  0.52371222995E+02  0.14088949180E+03  0.12499833002E+03 0.  0.
    9000005    1    3    3    0    0 -0.12853606134E+02 -0.16212467900E+02 -0.31941752042E+02  0.38070130412E+02  0.10000000000E+01 0.  0.
    9000005    1    3    3    0    0  0.29292234584E+02  0.51030464527E+02  0.84312975037E+02  0.10281936139E+03  0.10000000000E+01 0.  0.
         21    1    1    2  502  501 -0.16438628450E+02 -0.34817996628E+02  0.58369994910E+02  0.69925515374E+02  0.00000000000E+00 0.  1.
<mgrwt>
<rscale>  1 0.13079413E+03</rscale>
<asrwt>0</asrwt>
<pdfrwt beam="1">  1        4 0.24735094E-01 0.13079413E+03</pdfrwt>
<pdfrwt beam="2">  1       -4 0.76979838E-02 0.13079413E+03</pdfrwt>
<totfact> 0.29236256E+03</totfact>
</mgrwt>
</event>
<event>
 6    4  0.2398389E-003  0.1326611E+03  0.7818608E-02  0.1223560E+00
          4   -1    0    0  502    0  0.00000000000E+00  0.00000000000E+00  0.93158753519E+02  0.93167409845E+02  0.12700000000E+01 0. -1.
         -4   -1    0    0    0  501 -0.00000000000E+00 -0.00000000000E+00 -0.95331472531E+02  0.95339931587E+02  0.12700000000E+01 0. -1.
         25    2    1    2    0    0  0.39549387119E+02 -0.20247490188E+02 -0.30093788354E+02  0.13603162330E+03  0.12499940624E+03 0.  0.
    9000005    1    3    3    0    0 -0.26672861624E+02 -0.51198616526E+02 -0.21834572181E+01  0.57779817989E+02  0.10000000000E+01 0.  0.
    9000005    1    3    3    0    0  0.66222248743E+02  0.30951126337E+02 -0.27910331136E+02  0.78251805310E+02  0.10000000000E+01 0.  0.
         21    1    1    2  502  501 -0.39549387119E+02  0.20247490188E+02  0.27921069342E+02  0.52475718134E+02  0.00000000000E+00 0.  1.
<mgrwt>
<rscale>  1 0.13266110E+03</rscale>
<asrwt>0</asrwt>
<pdfrwt beam="1">  1        4 0.14333432E-01 0.13266110E+03</pdfrwt>
<pdfrwt beam="2">  1       -4 0.14667697E-01 0.13266110E+03</pdfrwt>
<totfact> 0.26108011E+03</totfact>
</mgrwt>
</event>
<event>
 6    4  0.2398389E-003  0.1280155E+03  0.7818608E-02  0.1230430E+00
          4   -1    0    0  502    0  0.00000000000E+00  0.00000000000E+00  0.91639421053E+02  0.91648220883E+02  0.12700000000E+01 0. -1.
         -4   -1    0    0    0  501 -0.00000000000E+00 -0.00000000000E+00 -0.72047168333E+02  0.72058360825E+02  0.12700000000E+01 0. -1.
         25    2    1    2    0    0 -0.90088398481E+01  0.26108177661E+02 -0.29602948576E+01  0.12804969544E+03  0.12500066008E+03 0.  0.
    9000005    1    3    3    0    0 -0.37951034040E+02  0.53453697929E+02 -0.37325346675E+02  0.75443755947E+02  0.10000000000E+01 0.  0.
    9000005    1    3    3    0    0  0.28942194192E+02 -0.27345520267E+02  0.34365051818E+02  0.52605939492E+02  0.10000000000E+01 0.  0.
         21    1    1    2  502  501  0.90088398481E+01 -0.26108177661E+02  0.22552547577E+02  0.35656886269E+02  0.00000000000E+00 0. -1.
<mgrwt>
<rscale>  1 0.12801547E+03</rscale>
<asrwt>0</asrwt>
<pdfrwt beam="1">  1        4 0.14099910E-01 0.12801547E+03</pdfrwt>
<pdfrwt beam="2">  1       -4 0.11085718E-01 0.12801547E+03</pdfrwt>
<totfact> 0.43089577E+03</totfact>
</mgrwt>
</event>
<event>
 6    4  0.2398389E-003  0.2266613E+03  0.7818608E-02  0.1129012E+00
         -4   -1    0    0    0  501 -0.00000000000E+00  0.00000000000E+00  0.46883043300E+03  0.46883215313E+03  0.12700000000E+01 0.  1.
          4   -1    0    0  502    0  0.00000000000E+00 -0.00000000000E+00 -0.10419156506E+03  0.10419930484E+03  0.12700000000E+01 0.  1.
         25    2    1    2    0    0  0.17147671701E+03 -0.79661964081E+02  0.29390965510E+03  0.37115794671E+03  0.12500017216E+03 0.  0.
    9000005    1    3    3    0    0  0.17033462005E+03 -0.57950022845E+02  0.29885595730E+03  0.34883802997E+03  0.10000000000E+01 0.  0.
    9000005    1    3    3    0    0  0.11420969621E+01 -0.21711941237E+02 -0.49463021997E+01  0.22319916738E+02  0.10000000000E+01 0.  0.
         21    1    1    2  502  501 -0.17147671701E+03  0.79661964081E+02  0.70729212837E+02  0.20187351126E+03  0.00000000000E+00 0.  1.
<mgrwt>
<rscale>  1 0.22666128E+03</rscale>
<asrwt>0</asrwt>
<pdfrwt beam="2">  1        4 0.16030199E-01 0.22666128E+03</pdfrwt>
<pdfrwt beam="1">  1       -4 0.72128486E-01 0.22666128E+03</pdfrwt>
<totfact> 0.10818887E+02</totfact>
</mgrwt>
</event>
<event>
 6    4  0.2398389E-003  0.1297303E+03  0.7818608E-02  0.1227856E+00
         -4   -1    0    0    0  501 -0.00000000000E+00  0.00000000000E+00  0.10967147005E+04  0.10967154358E+04  0.12700000000E+01 0. -1.
          4   -1    0    0  502    0  0.00000000000E+00 -0.00000000000E+00 -0.61261253358E+01  0.62563816724E+01  0.12700000000E+01 0. -1.
         25    2    1    2    0    0 -0.33581820868E+02 -0.87707043558E+01  0.88933023240E+03  0.89874257259E+03  0.12500114228E+03 0.  0.
    9000005    1    3    3    0    0 -0.73637204108E+02 -0.17448554181E+02  0.36231578813E+03  0.37013594827E+03  0.10000000000E+01 0.  0.
    9000005    1    3    3    0    0  0.40055383240E+02  0.86778498254E+01  0.52701444427E+03  0.52860662431E+03  0.10000000000E+01 0.  0.
         21    1    1    2  502  501  0.33581820868E+02  0.87707043558E+01  0.20125834275E+03  0.20422924490E+03  0.00000000000E+00 0.  1.
<mgrwt>
<rscale>  1 0.12973030E+03</rscale>
<asrwt>0</asrwt>
<pdfrwt beam="2">  1        4 0.95255797E-03 0.12973030E+03</pdfrwt>
<pdfrwt beam="1">  1       -4 0.16873526E+00 0.12973030E+03</pdfrwt>
<totfact> 0.12146025E+03</totfact>
</mgrwt>
</event>
<event>
 6    4  0.2398389E-003  0.1266208E+03  0.7818608E-02  0.1232558E+00
          4   -1    0    0  502    0  0.00000000000E+00  0.00000000000E+00  0.79260001182E+01  0.80271027073E+01  0.12700000000E+01 0.  1.
         -4   -1    0    0    0  501 -0.00000000000E+00 -0.00000000000E+00 -0.69144379450E+03  0.69144496082E+03  0.12700000000E+01 0.  1.
         25    2    1    2    0    0 -0.18771530477E+02  0.74172574724E+01 -0.54658343147E+03  0.56105817041E+03  0.12500174781E+03 0.  0.
    9000005    1    3    3    0    0 -0.63262109794E+02  0.81785678089E+01 -0.16526673275E+03  0.17715269251E+03  0.10000000000E+01 0.  0.
    9000005    1    3    3    0    0  0.44490579317E+02 -0.76131033657E+00 -0.38131669872E+03  0.38390547790E+03  0.10000000000E+01 0.  0.
         21    1    1    2  502  501  0.18771530477E+02 -0.74172574724E+01 -0.13693436291E+03  0.13841389312E+03  0.00000000000E+00 0.  1.
<mgrwt>
<rscale>  1 0.12662078E+03</rscale>
<asrwt>0</asrwt>
<pdfrwt beam="1">  1        4 0.12272520E-02 0.12662078E+03</pdfrwt>
<pdfrwt beam="2">  1       -4 0.10638379E+00 0.12662078E+03</pdfrwt>
<totfact> 0.25802955E+03</totfact>
</mgrwt>
</event>
<event>
 6    4  0.2398389E-003  0.1266736E+03  0.7818608E-02  0.1232477E+00
         -4   -1    0    0    0  501 -0.00000000000E+00  0.00000000000E+00  0.72612587470E+03  0.72612698532E+03  0.12700000000E+01 0.  1.
          4   -1    0    0  502    0  0.00000000000E+00 -0.00000000000E+00 -0.88629344431E+01  0.89534634049E+01  0.12700000000E+01 0.  1.
         25    2    1    2    0    0 -0.15778847652E+02 -0.13033829218E+02  0.68677984460E+03  0.69836435065E+03  0.12500943390E+03 0.  0.
    9000005    1    3    3    0    0 -0.63222227741E+02 -0.17719382003E+02  0.23270486699E+03  0.24179243516E+03  0.10000000000E+01 0.  0.
    9000005    1    3    3    0    0  0.47443380089E+02  0.46855527840E+01  0.45407497761E+03  0.45657191548E+03  0.10000000000E+01 0.  0.
         21    1    1    2  502  501  0.15778847652E+02  0.13033829218E+02  0.30483095655E+02  0.36716098077E+02  0.00000000000E+00 0.  1.
<mgrwt>
<rscale>  1 0.12667364E+03</rscale>
<asrwt>0</asrwt>
<pdfrwt beam="2">  1        4 0.13705771E-02 0.12667364E+03</pdfrwt>
<pdfrwt beam="1">  1       -4 0.11171876E+00 0.12667364E+03</pdfrwt>
<totfact> 0.19458325E+03</totfact>
</mgrwt>
</event>
<event>
 6    4  0.2398389E-003  0.1275596E+03  0.7818608E-02  0.1231122E+00
          4   -1    0    0  502    0  0.00000000000E+00  0.00000000000E+00  0.28471954795E+03  0.28472238038E+03  0.12700000000E+01 0. -1.
         -4   -1    0    0    0  501 -0.00000000000E+00 -0.00000000000E+00 -0.20507065205E+02  0.20546353042E+02  0.12700000000E+01 0. -1.
         25    2    1    2    0    0  0.21724653872E+02 -0.13041506488E+02  0.22168424778E+03  0.25576426648E+03  0.12501765002E+03 0.  0.
    9000005    1    3    3    0    0 -0.56972884854E+01 -0.40148369997E+02  0.21220261183E+03  0.21604466940E+03  0.10000000000E+01 0.  0.
    9000005    1    3    3    0    0  0.27421942357E+02  0.27106863509E+02  0.94816359551E+01  0.39719597082E+02  0.10000000000E+01 0.  0.
         21    1    1    2  502  501 -0.21724653872E+02  0.13041506488E+02  0.42528234967E+02  0.49504466937E+02  0.00000000000E+00 0. -1.
<mgrwt>
<rscale>  1 0.12755961E+03</rscale>
<asrwt>0</asrwt>
<pdfrwt beam="1">  1        4 0.43806248E-01 0.12755961E+03</pdfrwt>
<pdfrwt beam="2">  1       -4 0.31581731E-02 0.12755961E+03</pdfrwt>
<totfact> 0.40722690E+03</totfact>
</mgrwt>
</event>
<event>
 6    4  0.2398389E-003  0.1268750E+03  0.7818608E-02  0.1232168E+00
          4   -1    0    0  502    0  0.00000000000E+00  0.00000000000E+00  0.84955722771E+01  0.85899737086E+01  0.12700000000E+01 0. -1.
         -4   -1    0    0    0  501 -0.00000000000E+00 -0.00000000000E+00 -0.64659603070E+03  0.64659727793E+03  0.12700000000E+01 0. -1.
         25    2    1    2    0    0 -0.21581480764E+02  0.26068287413E+01 -0.55008371611E+03  0.56452577803E+03  0.12499881385E+03 0.  0.
    9000005    1    3    3    0    0  0.56774327495E+01  0.44651595054E+02 -0.80169031726E+02  0.91946026730E+02  0.10000000000E+01 0.  0.
    9000005    1    3    3    0    0 -0.27258913513E+02 -0.42044766313E+02 -0.46991468438E+03  0.47257975130E+03  0.10000000000E+01 0.  0.
         21    1    1    2  502  501  0.21581480764E+02 -0.26068287413E+01 -0.88016742316E+02  0.90661473604E+02  0.00000000000E+00 0. -1.
<mgrwt>
<rscale>  1 0.12687498E+03</rscale>
<asrwt>0</asrwt>
<pdfrwt beam="1">  1        4 0.13143692E-02 0.12687498E+03</pdfrwt>
<pdfrwt beam="2">  1       -4 0.99483631E-01 0.12687498E+03</pdfrwt>
<totfact> 0.27196346E+03</totfact>
</mgrwt>
</event>
<event>
 6    4  0.2398389E-003  0.1272853E+03  0.7818608E-02  0.1231540E+00
         -4   -1    0    0    0  501 -0.00000000000E+00  0.00000000000E+00  0.53727330320E+01  0.55207934424E+01  0.12700000000E+01 0.  1.
          4   -1    0    0  502    0  0.00000000000E+00 -0.00000000000E+00 -0.10542733719E+04  0.10542741369E+04  0.12700000000E+01 0.  1.
         25    2    1    2    0    0  0.54894039163E+01  0.23355233681E+02 -0.85717683548E+03  0.86657583888E+03  0.12500382693E+03 0.  0.
    9000005    1    3    3    0    0 -0.14695963163E+02 -0.33011799450E+02 -0.64771048711E+03  0.64871844845E+03  0.10000000000E+01 0.  0.
    9000005    1    3    3    0    0  0.20185367079E+02  0.56367033130E+02 -0.20946634837E+03  0.21785739044E+03  0.10000000000E+01 0.  0.
         21    1    1    2  502  501 -0.54894039163E+01 -0.23355233681E+02 -0.19172380341E+03  0.19321909143E+03  0.00000000000E+00 0.  1.
<mgrwt>
<rscale>  1 0.12728534E+03</rscale>
<asrwt>0</asrwt>
<pdfrwt beam="2">  1        4 0.16220719E+00 0.12728534E+03</pdfrwt>
<pdfrwt beam="1">  1       -4 0.83802326E-03 0.12728534E+03</pdfrwt>
<totfact> 0.16260942E+03</totfact>
</mgrwt>
</event>
<event>
 6    4  0.2398389E-003  0.1316834E+03  0.7818608E-02  0.1224979E+00
         -4   -1    0    0    0  501 -0.00000000000E+00  0.00000000000E+00  0.37747461585E+02  0.37768819893E+02  0.12700000000E+01 0.  1.
          4   -1    0    0  502    0  0.00000000000E+00 -0.00000000000E+00 -0.20782426587E+03  0.20782814628E+03  0.12700000000E+01 0.  1.
         25    2    1    2    0    0 -0.37918712789E+02 -0.16645918919E+02 -0.10481594917E+03  0.16830599252E+03  0.12500243407E+03 0.  0.
    9000005    1    3    3    0    0 -0.27917267389E+02  0.40495072865E+02 -0.98299654688E+02  0.10992291325E+03  0.10000000000E+01 0.  0.
    9000005    1    3    3    0    0 -0.10001445400E+02 -0.57140991785E+02 -0.65162944786E+01  0.58383079278E+02  0.10000000000E+01 0.  0.
         21    1    1    2  502  501  0.37918712789E+02  0.16645918919E+02 -0.65260855119E+02  0.77290973646E+02  0.00000000000E+00 0.  1.
<mgrwt>
<rscale>  1 0.13168342E+03</rscale>
<asrwt>0</asrwt>
<pdfrwt beam="2">  1        4 0.31974905E-01 0.13168342E+03</pdfrwt>
<pdfrwt beam="1">  1       -4 0.58092433E-02 0.13168342E+03</pdfrwt>
<totfact> 0.28692619E+03</totfact>
</mgrwt>
</event>
<event>
 6    4  0.2398389E-003  0.1275131E+03  0.7818608E-02  0.1231193E+00
         -4   -1    0    0    0  501 -0.00000000000E+00  0.00000000000E+00  0.72615625920E+02  0.72626730807E+02  0.12700000000E+01 0. -1.
          4   -1    0    0  502    0  0.00000000000E+00 -0.00000000000E+00 -0.94597234559E+02  0.94605759266E+02  0.12700000000E+01 0. -1.
         25    2    1    2    0    0 -0.16980877987E+02 -0.18598995214E+02  0.83762260705E+01  0.12778795980E+03  0.12500131466E+03 0.  0.
    9000005    1    3    3    0    0 -0.56396980458E+02  0.22123803469E+02 -0.20769773438E+02  0.64050492374E+02  0.10000000000E+01 0.  0.
    9000005    1    3    3    0    0  0.39416102471E+02 -0.40722798682E+02  0.29145999509E+02  0.63737467426E+02  0.10000000000E+01 0.  0.
         21    1    1    2  502  501  0.16980877987E+02  0.18598995214E+02 -0.30357834710E+02  0.39444530273E+02  0.00000000000E+00 0. -1.
<mgrwt>
<rscale>  1 0.12751314E+03</rscale>
<asrwt>0</asrwt>
<pdfrwt beam="2">  1        4 0.14554931E-01 0.12751314E+03</pdfrwt>
<pdfrwt beam="1">  1       -4 0.11173145E-01 0.12751314E+03</pdfrwt>
<totfact> 0.40198371E+03</totfact>
</mgrwt>
</event>
<event>
 6    4  0.2398389E-003  0.1311636E+03  0.7818608E-02  0.1225739E+00
          4   -1    0    0  502    0  0.00000000000E+00  0.00000000000E+00  0.89279449040E+01  0.90178212562E+01  0.12700000000E+01 0. -1.
         -4   -1    0    0    0  501 -0.00000000000E+00 -0.00000000000E+00 -0.81362408923E+03  0.81362508041E+03  0.12700000000E+01 0. -1.
         25    2    1    2    0    0 -0.25286947935E+02  0.30619617568E+02 -0.62309282510E+03  0.63674842550E+03  0.12500759165E+03 0.  0.
    9000005    1    3    3    0    0  0.26710633235E+02 -0.44699274388E+01 -0.47681180099E+03  0.47758133521E+03  0.10000000000E+01 0.  0.
    9000005    1    3    3    0    0 -0.51997581170E+02  0.35089545006E+02 -0.14628102411E+03  0.15916709029E+03  0.10000000000E+01 0.  0.
         21    1    1    2  502  501  0.25286947935E+02 -0.30619617568E+02 -0.18160331923E+03  0.18589447617E+03  0.00000000000E+00 0.  1.
<mgrwt>
<rscale>  1 0.13116360E+03</rscale>
<asrwt>0</asrwt>
<pdfrwt beam="1">  1        4 0.13805204E-02 0.13116360E+03</pdfrwt>
<pdfrwt beam="2">  1       -4 0.12517987E+00 0.13116360E+03</pdfrwt>
<totfact> 0.14777115E+03</totfact>
</mgrwt>
</event>
<event>
 6    4  0.2398389E-003  0.1392709E+03  0.7818608E-02  0.1214313E+00
          4   -1    0    0  502    0  0.00000000000E+00  0.00000000000E+00  0.10795655006E+04  0.10795662476E+04  0.12700000000E+01 0. -1.
         -4   -1    0    0    0  501 -0.00000000000E+00 -0.00000000000E+00 -0.13025670408E+02  0.13087436326E+02  0.12700000000E+01 0. -1.
         25    2    1    2    0    0 -0.58494545431E+02 -0.18716370450E+02  0.95692001758E+03  0.96700171346E+03  0.12499791763E+03 0.  0.
    9000005    1    3    3    0    0  0.44659329612E+01 -0.59381902170E+01 -0.41916533981E+00  0.75088188052E+01  0.10000000000E+01 0.  0.
    9000005    1    3    3    0    0 -0.62960478392E+02 -0.12778180233E+02  0.95733918292E+03  0.95949289465E+03  0.10000000000E+01 0.  0.
         21    1    1    2  502  501  0.58494545431E+02  0.18716370450E+02  0.10961981257E+03  0.12565197044E+03  0.00000000000E+00 0. -1.
<mgrwt>
<rscale>  1 0.13927094E+03</rscale>
<asrwt>0</asrwt>
<pdfrwt beam="1">  1        4 0.16609185E+00 0.13927094E+03</pdfrwt>
<pdfrwt beam="2">  1       -4 0.20087575E-02 0.13927094E+03</pdfrwt>
<totfact> 0.41266531E+02</totfact>
</mgrwt>
</event>
<event>
 6    4  0.2398389E-003  0.1285678E+03  0.7818608E-02  0.1229596E+00
          4   -1    0    0  502    0  0.00000000000E+00  0.00000000000E+00  0.23081593708E+03  0.23081943096E+03  0.12700000000E+01 0. -1.
         -4   -1    0    0    0  501 -0.00000000000E+00 -0.00000000000E+00 -0.27274144612E+02  0.27303696898E+02  0.12700000000E+01 0. -1.
         25    2    1    2    0    0 -0.18049340330E+02  0.24061715903E+02  0.16141502576E+03  0.20636011663E+03  0.12499976934E+03 0.  0.
    9000005    1    3    3    0    0  0.34994092769E+01  0.71482921691E+02  0.64594653508E+02  0.96413293796E+02  0.10000000000E+01 0.  0.
    9000005    1    3    3    0    0 -0.21548749607E+02 -0.47421205788E+02  0.96820372247E+02  0.10994682283E+03  0.10000000000E+01 0.  0.
         21    1    1    2  502  501  0.18049340330E+02 -0.24061715903E+02  0.42126766709E+02  0.51763011233E+02  0.00000000000E+00 0. -1.
<mgrwt>
<rscale>  1 0.12856783E+03</rscale>
<asrwt>0</asrwt>
<pdfrwt beam="1">  1        4 0.35512685E-01 0.12856783E+03</pdfrwt>
<pdfrwt beam="2">  1       -4 0.41985644E-02 0.12856783E+03</pdfrwt>
<totfact> 0.39283349E+03</totfact>
</mgrwt>
</event>
<event>
 6    4  0.2398389E-003  0.1270600E+03  0.7818608E-02  0.1231885E+00
         -4   -1    0    0    0  501 -0.00000000000E+00  0.00000000000E+00  0.80434982247E+02  0.80445007732E+02  0.12700000000E+01 0. -1.
          4   -1    0    0  502    0  0.00000000000E+00 -0.00000000000E+00 -0.69762881268E+02  0.69774440183E+02  0.12700000000E+01 0. -1.
         25    2    1    2    0    0 -0.19699528956E+02 -0.11438897260E+02  0.90969802788E+01  0.12738524513E+03  0.12500130325E+03 0.  0.
    9000005    1    3    3    0    0 -0.15709403189E+02  0.39866507601E+02 -0.38252242776E+02  0.57448741103E+02  0.10000000000E+01 0.  0.
    9000005    1    3    3    0    0 -0.39901257675E+01 -0.51305404861E+02  0.47349223055E+02  0.69936504027E+02  0.10000000000E+01 0.  0.
         21    1    1    2  502  501  0.19699528956E+02  0.11438897260E+02  0.15751206998E+01  0.22834202785E+02  0.00000000000E+00 0.  1.
<mgrwt>
<rscale>  1 0.12706001E+03</rscale>
<asrwt>0</asrwt>
<pdfrwt beam="2">  1        4 0.10734411E-01 0.12706001E+03</pdfrwt>
<pdfrwt beam="1">  1       -4 0.12376273E-01 0.12706001E+03</pdfrwt>
<totfact> 0.56862303E+03</totfact>
</mgrwt>
</event>
<event>
 6    4  0.2398389E-003  0.1299924E+03  0.7818608E-02  0.1227467E+00
          4   -1    0    0  502    0  0.00000000000E+00  0.00000000000E+00  0.68770502650E+01  0.69933339937E+01  0.12700000000E+01 0.  1.
         -4   -1    0    0    0  501 -0.00000000000E+00 -0.00000000000E+00 -0.99367539517E+03  0.99367620675E+03  0.12700000000E+01 0.  1.
         25    2    1    2    0    0 -0.30724147793E+02  0.17985176812E+02 -0.80323397499E+03  0.81368473456E+03  0.12502235334E+03 0.  0.
    9000005    1    3    3    0    0 -0.68185734847E+02 -0.19351331612E+02 -0.57755292047E+03  0.58188671098E+03  0.10000000000E+01 0.  0.
    9000005    1    3    3    0    0  0.37461587054E+02  0.37336508424E+02 -0.22568105452E+03  0.23179802358E+03  0.10000000000E+01 0.  0.
         21    1    1    2  502  501  0.30724147793E+02 -0.17985176812E+02 -0.18356436991E+03  0.18698480619E+03  0.00000000000E+00 0.  1.
<mgrwt>
<rscale>  1 0.12999242E+03</rscale>
<asrwt>0</asrwt>
<pdfrwt beam="1">  1        4 0.10670159E-02 0.12999242E+03</pdfrwt>
<pdfrwt beam="2">  1       -4 0.15288203E+00 0.12999242E+03</pdfrwt>
<totfact> 0.13244862E+03</totfact>
</mgrwt>
</event>
<event>
 6    4  0.2398389E-003  0.1269008E+03  0.7818608E-02  0.1232128E+00
         -4   -1    0    0    0  501 -0.00000000000E+00  0.00000000000E+00  0.50389324926E+02  0.50405326767E+02  0.12700000000E+01 0.  1.
          4   -1    0    0  502    0  0.00000000000E+00 -0.00000000000E+00 -0.10981214999E+03  0.10981949365E+03  0.12700000000E+01 0.  1.
         25    2    1    2    0    0  0.21823374313E+02  0.10262827197E+01 -0.52151716044E+02  0.13719914021E+03  0.12500595852E+03 0.  0.
    9000005    1    3    3    0    0  0.27022430921E+02 -0.53366951613E+02 -0.56613452169E+02  0.82367021701E+02  0.10000000000E+01 0.  0.
    9000005    1    3    3    0    0 -0.51990566080E+01  0.54393234333E+02  0.44617361254E+01  0.54832118508E+02  0.10000000000E+01 0.  0.
         21    1    1    2  502  501 -0.21823374313E+02 -0.10262827197E+01 -0.72711090191E+01  0.23025680207E+02  0.00000000000E+00 0.  1.
<mgrwt>
<rscale>  1 0.12690076E+03</rscale>
<asrwt>0</asrwt>
<pdfrwt beam="2">  1        4 0.16895973E-01 0.12690076E+03</pdfrwt>
<pdfrwt beam="1">  1       -4 0.77539997E-02 0.12690076E+03</pdfrwt>
<totfact> 0.56983878E+03</totfact>
</mgrwt>
</event>
<event>
 6    4  0.2398389E-003  0.1280858E+03  0.7818608E-02  0.1230324E+00
          4   -1    0    0  502    0  0.00000000000E+00  0.00000000000E+00  0.12407328787E+03  0.12407978749E+03  0.12700000000E+01 0. -1.
         -4   -1    0    0    0  501 -0.00000000000E+00 -0.00000000000E+00 -0.55755912181E+02  0.55770374243E+02  0.12700000000E+01 0. -1.
         25    2    1    2    0    0 -0.26913234076E+02  0.75391408333E+01  0.28525918622E+02  0.13122382248E+03  0.12499921096E+03 0.  0.
    9000005    1    3    3    0    0 -0.48892397069E+02  0.73251721705E+01  0.69157620347E+02  0.85017063526E+02  0.10000000000E+01 0.  0.
    9000005    1    3    3    0    0  0.21979162992E+02  0.21396866283E+00 -0.40631701725E+02  0.46206758959E+02  0.10000000000E+01 0.  0.
         21    1    1    2  502  501  0.26913234076E+02 -0.75391408333E+01  0.39791457071E+02  0.48626339250E+02  0.00000000000E+00 0.  1.
<mgrwt>
<rscale>  1 0.12808577E+03</rscale>
<asrwt>0</asrwt>
<pdfrwt beam="1">  1        4 0.19089810E-01 0.12808577E+03</pdfrwt>
<pdfrwt beam="2">  1       -4 0.85794452E-02 0.12808577E+03</pdfrwt>
<totfact> 0.38890327E+03</totfact>
</mgrwt>
</event>
<event>
 6    4  0.2398389E-003  0.1320670E+03  0.7818608E-02  0.1224421E+00
          4   -1    0    0  502    0  0.00000000000E+00  0.00000000000E+00  0.16731366084E+02  0.16779496746E+02  0.12700000000E+01 0. -1.
         -4   -1    0    0    0  501 -0.00000000000E+00 -0.00000000000E+00 -0.50629910954E+03  0.50630070237E+03  0.12700000000E+01 0. -1.
         25    2    1    2    0    0  0.17066303492E+02 -0.39057229865E+02 -0.43006785757E+03  0.44988892683E+03  0.12499983377E+03 0.  0.
    9000005    1    3    3    0    0  0.54495983887E+02 -0.65903805077E+02 -0.29715814089E+03  0.30922012302E+03  0.10000000000E+01 0.  0.
    9000005    1    3    3    0    0 -0.37429680394E+02  0.26846575211E+02 -0.13290971668E+03  0.14066880380E+03  0.10000000000E+01 0.  0.
         21    1    1    2  502  501 -0.17066303492E+02  0.39057229865E+02 -0.59499885882E+02  0.73191272292E+02  0.00000000000E+00 0.  1.
<mgrwt>
<rscale>  1 0.13206697E+03</rscale>
<asrwt>0</asrwt>
<pdfrwt beam="1">  1        4 0.25778816E-02 0.13206697E+03</pdfrwt>
<pdfrwt beam="2">  1       -4 0.77895984E-01 0.13206697E+03</pdfrwt>
<totfact> 0.16922709E+03</totfact>
</mgrwt>
</event>
<event>
 6    4  0.2398389E-003  0.1279111E+03  0.7818608E-02  0.1230589E+00
         -4   -1    0    0    0  501 -0.00000000000E+00  0.00000000000E+00  0.64181170599E+01  0.65425626932E+01  0.12700000000E+01 0.  1.
          4   -1    0    0  502    0  0.00000000000E+00 -0.00000000000E+00 -0.92744392173E+03  0.92744479127E+03  0.12700000000E+01 0.  1.
         25    2    1    2    0    0 -0.26953238451E+02  0.29421391097E+01 -0.76748049018E+03  0.77806655084E+03  0.12500448584E+03 0.  0.
    9000005    1    3    3    0    0 -0.71970275844E+02 -0.54526496998E+01 -0.60375280667E+03  0.60805255000E+03  0.10000000000E+01 0.  0.
    9000005    1    3    3    0    0  0.45017037393E+02  0.83947888096E+01 -0.16372768351E+03  0.17001400084E+03  0.10000000000E+01 0.  0.
         21    1    1    2  502  501  0.26953238451E+02 -0.29421391097E+01 -0.15354531449E+03  0.15592080313E+03  0.00000000000E+00 0.  1.
<mgrwt>
<rscale>  1 0.12791112E+03</rscale>
<asrwt>0</asrwt>
<pdfrwt beam="2">  1        4 0.14269321E+00 0.12791112E+03</pdfrwt>
<pdfrwt beam="1">  1       -4 0.99704299E-03 0.12791112E+03</pdfrwt>
<totfact> 0.17406257E+03</totfact>
</mgrwt>
</event>
<event>
 6    4  0.2398389E-003  0.1275336E+03  0.7818608E-02  0.1231162E+00
         -4   -1    0    0    0  501 -0.00000000000E+00  0.00000000000E+00  0.43951558989E+02  0.43969903770E+02  0.12700000000E+01 0.  1.
          4   -1    0    0  502    0  0.00000000000E+00 -0.00000000000E+00 -0.13468749509E+03  0.13469348253E+03  0.12700000000E+01 0.  1.
         25    2    1    2    0    0 -0.23982559800E+02  0.79659815499E+01 -0.67317045750E+02  0.14420958444E+03  0.12500479815E+03 0.  0.
    9000005    1    3    3    0    0 -0.20284033555E+02 -0.12457358317E+02  0.33592061480E+02  0.41183180887E+02  0.10000000000E+01 0.  0.
    9000005    1    3    3    0    0 -0.36985262444E+01  0.20423339867E+02 -0.10090910723E+03  0.10302640356E+03  0.10000000000E+01 0.  0.
         21    1    1    2  502  501  0.23982559800E+02 -0.79659815499E+01 -0.23418890356E+02  0.34453801853E+02  0.00000000000E+00 0.  1.
<mgrwt>
<rscale>  1 0.12753360E+03</rscale>
<asrwt>0</asrwt>
<pdfrwt beam="2">  1        4 0.20723025E-01 0.12753360E+03</pdfrwt>
<pdfrwt beam="1">  1       -4 0.67636501E-02 0.12753360E+03</pdfrwt>
<totfact> 0.49620603E+03</totfact>
</mgrwt>
</event>
<event>
 6    4  0.2398389E-003  0.1286437E+03  0.7818608E-02  0.1229482E+00
         -4   -1    0    0    0  501 -0.00000000000E+00  0.00000000000E+00  0.41728377396E+03  0.41728570658E+03  0.12700000000E+01 0. -1.
          4   -1    0    0  502    0  0.00000000000E+00 -0.00000000000E+00 -0.25841978289E+02  0.25873166444E+02  0.12700000000E+01 0. -1.
         25    2    1    2    0    0  0.29709070174E+02  0.65102263806E+01  0.39217574541E+03  0.41273601023E+03  0.12499674777E+03 0.  0.
    9000005    1    3    3    0    0  0.41749391972E+02 -0.28698680843E+02  0.60231976242E+02  0.78711606350E+02  0.10000000000E+01 0.  0.
    9000005    1    3    3    0    0 -0.12040321798E+02  0.35208907224E+02  0.33194376917E+03  0.33402440388E+03  0.10000000000E+01 0.  0.
         21    1    1    2  502  501 -0.29709070174E+02 -0.65102263806E+01 -0.73394973771E+00  0.30422862790E+02  0.00000000000E+00 0. -1.
<mgrwt>
<rscale>  1 0.12864369E+03</rscale>
<asrwt>0</asrwt>
<pdfrwt beam="2">  1        4 0.39782366E-02 0.12864369E+03</pdfrwt>
<pdfrwt beam="1">  1       -4 0.64200054E-01 0.12864369E+03</pdfrwt>
<totfact> 0.12925494E+03</totfact>
</mgrwt>
</event>
<event>
 6    4  0.2398389E-003  0.1309056E+03  0.7818608E-02  0.1226118E+00
         -4   -1    0    0    0  501 -0.00000000000E+00  0.00000000000E+00  0.87339640072E+01  0.88258159554E+01  0.12700000000E+01 0.  1.
          4   -1    0    0  502    0  0.00000000000E+00 -0.00000000000E+00 -0.13251219902E+04  0.13251225988E+04  0.12700000000E+01 0.  1.
         25    2    1    2    0    0  0.34803220856E+02 -0.17335252081E+02 -0.50700071907E+03  0.52362774483E+03  0.12499804349E+03 0.  0.
    9000005    1    3    3    0    0 -0.26069529881E+02  0.26401680754E+02 -0.32024534167E+03  0.32238912512E+03  0.10000000000E+01 0.  0.
    9000005    1    3    3    0    0  0.60872750737E+02 -0.43736932835E+02 -0.18675537740E+03  0.20123861971E+03  0.10000000000E+01 0.  0.
         21    1    1    2  502  501 -0.34803220856E+02  0.17335252081E+02 -0.80938730712E+03  0.81032066990E+03  0.00000000000E+00 0. -1.
<mgrwt>
<rscale>  1 0.13090564E+03</rscale>
<asrwt>0</asrwt>
<pdfrwt beam="2">  1        4 0.20387188E+00 0.13090564E+03</pdfrwt>
<pdfrwt beam="1">  1       -4 0.13508002E-02 0.13090564E+03</pdfrwt>
<totfact> 0.42609873E+02</totfact>
</mgrwt>
</event>
<event>
 6    4  0.2398389E-003  0.1283883E+03  0.7818608E-02  0.1229867E+00
          4   -1    0    0  502    0  0.00000000000E+00  0.00000000000E+00  0.86377118023E+02  0.86386453904E+02  0.12700000000E+01 0.  1.
         -4   -1    0    0    0  501 -0.00000000000E+00 -0.00000000000E+00 -0.73103446871E+02  0.73114477666E+02  0.12700000000E+01 0.  1.
         25    2    1    2    0    0  0.35220010135E+01 -0.29071083483E+02  0.28581039444E+01  0.12842012678E+03  0.12500411121E+03 0.  0.
    9000005    1    3    3    0    0 -0.26590069712E+02  0.33388228706E+02  0.31841645184E+02  0.53260642049E+02  0.10000000000E+01 0.  0.
    9000005    1    3    3    0    0  0.30112070725E+02 -0.62459312189E+02 -0.28983541239E+02  0.75159484733E+02  0.10000000000E+01 0.  0.
         21    1    1    2  502  501 -0.35220010135E+01  0.29071083483E+02  0.10415567208E+02  0.31080804788E+02  0.00000000000E+00 0. -1.
<mgrwt>
<rscale>  1 0.12838832E+03</rscale>
<asrwt>0</asrwt>
<pdfrwt beam="1">  1        4 0.13290354E-01 0.12838832E+03</pdfrwt>
<pdfrwt beam="2">  1       -4 0.11248251E-01 0.12838832E+03</pdfrwt>
<totfact> 0.46596739E+03</totfact>
</mgrwt>
</event>
<event>
 6    4  0.2398389E-003  0.1275669E+03  0.7818608E-02  0.1231111E+00
          4   -1    0    0  502    0  0.00000000000E+00  0.00000000000E+00  0.21223828271E+03  0.21224208242E+03  0.12700000000E+01 0. -1.
         -4   -1    0    0    0  501 -0.00000000000E+00 -0.00000000000E+00 -0.28499096568E+02  0.28527379922E+02  0.12700000000E+01 0. -1.
         25    2    1    2    0    0  0.60322506733E+01  0.24950434076E+02  0.13533994960E+03  0.18598444333E+03  0.12495758879E+03 0.  0.
    9000005    1    3    3    0    0 -0.80951823791E+01 -0.17693380425E+02 -0.17799021375E+02  0.26389256347E+02  0.10000000000E+01 0.  0.
    9000005    1    3    3    0    0  0.14127433052E+02  0.42643814501E+02  0.15313897097E+03  0.15959518699E+03  0.10000000000E+01 0.  0.
         21    1    1    2  502  501 -0.60322506733E+01 -0.24950434076E+02  0.48399236550E+02  0.54785019005E+02  0.00000000000E+00 0. -1.
<mgrwt>
<rscale>  1 0.12756689E+03</rscale>
<asrwt>0</asrwt>
<pdfrwt beam="1">  1        4 0.32654511E-01 0.12756689E+03</pdfrwt>
<pdfrwt beam="2">  1       -4 0.43869444E-02 0.12756689E+03</pdfrwt>
<totfact> 0.42952824E+03</totfact>
</mgrwt>
</event>
<event>
 6    4  0.2398389E-003  0.1295030E+03  0.7818608E-02  0.1228195E+00
         -4   -1    0    0    0  501 -0.00000000000E+00  0.00000000000E+00  0.81826679029E+02  0.81836534024E+02  0.12700000000E+01 0.  1.
          4   -1    0    0  502    0  0.00000000000E+00 -0.00000000000E+00 -0.15114463621E+03  0.15114997173E+03  0.12700000000E+01 0.  1.
         25    2    1    2    0    0  0.21832980187E+02  0.25866810921E+02  0.25779893325E+02  0.13204408602E+03  0.12500106729E+03 0.  0.
    9000005    1    3    3    0    0 -0.15125839629E+02 -0.20014393570E+02 -0.37787051758E+02  0.45367700570E+02  0.10000000000E+01 0.  0.
    9000005    1    3    3    0    0  0.36958819816E+02  0.45881204492E+02  0.63566945083E+02  0.86676385452E+02  0.10000000000E+01 0.  0.
         21    1    1    2  502  501 -0.21832980187E+02 -0.25866810921E+02 -0.95097850506E+02  0.10094241973E+03  0.00000000000E+00 0.  1.
<mgrwt>
<rscale>  1 0.12950304E+03</rscale>
<asrwt>0</asrwt>
<pdfrwt beam="2">  1        4 0.23254189E-01 0.12950304E+03</pdfrwt>
<pdfrwt beam="1">  1       -4 0.12589888E-01 0.12950304E+03</pdfrwt>
<totfact> 0.14281838E+03</totfact>
</mgrwt>
</event>
<event>
 6    4  0.2398389E-003  0.1270135E+03  0.7818608E-02  0.1231956E+00
          4   -1    0    0  502    0  0.00000000000E+00  0.00000000000E+00  0.61697956412E+01  0.62991490104E+01  0.12700000000E+01 0.  1.
         -4   -1    0    0    0  501 -0.00000000000E+00 -0.00000000000E+00 -0.94173543186E+03  0.94173628820E+03  0.12700000000E+01 0.  1.
         25    2    1    2    0    0  0.22546103595E+02 -0.35377311699E+01 -0.70564042663E+03  0.71698036946E+03  0.12494637318E+03 0.  0.
    9000005    1    3    3    0    0 -0.43778815847E+02  0.24667653961E+02 -0.38935553101E+03  0.39258605094E+03  0.10000000000E+01 0.  0.
    9000005    1    3    3    0    0  0.66324919441E+02 -0.28205385131E+02 -0.31628489562E+03  0.32439431852E+03  0.10000000000E+01 0.  0.
         21    1    1    2  502  501 -0.22546103595E+02  0.35377311699E+01 -0.22992520959E+03  0.23105506775E+03  0.00000000000E+00 0.  1.
<mgrwt>
<rscale>  1 0.12701354E+03</rscale>
<asrwt>0</asrwt>
<pdfrwt beam="1">  1        4 0.95921621E-03 0.12701354E+03</pdfrwt>
<pdfrwt beam="2">  1       -4 0.14489228E+00 0.12701354E+03</pdfrwt>
<totfact> 0.17724696E+03</totfact>
</mgrwt>
</event>
<event>
 6    4  0.2398389E-003  0.1304418E+03  0.7818608E-02  0.1226802E+00
         -4   -1    0    0    0  501 -0.00000000000E+00  0.00000000000E+00  0.77854634458E+02  0.77864992176E+02  0.12700000000E+01 0. -1.
          4   -1    0    0  502    0  0.00000000000E+00 -0.00000000000E+00 -0.12264558993E+03  0.12265216520E+03  0.12700000000E+01 0. -1.
         25    2    1    2    0    0  0.30759662677E+02 -0.21065151484E+02  0.13695687361E+02  0.13115877761E+03  0.12500062254E+03 0.  0.
    9000005    1    3    3    0    0  0.19929331481E+02  0.52320379168E+02  0.18109975609E+01  0.56025708757E+02  0.10000000000E+01 0.  0.
    9000005    1    3    3    0    0  0.10830331195E+02 -0.73385530652E+02  0.11884689800E+02  0.75133068848E+02  0.10000000000E+01 0.  0.
         21    1    1    2  502  501 -0.30759662677E+02  0.21065151484E+02 -0.58486642834E+02  0.69358379775E+02  0.00000000000E+00 0. -1.
<mgrwt>
<rscale>  1 0.13044176E+03</rscale>
<asrwt>0</asrwt>
<pdfrwt beam="2">  1        4 0.18869855E-01 0.13044176E+03</pdfrwt>
<pdfrwt beam="1">  1       -4 0.11978939E-01 0.13044176E+03</pdfrwt>
<totfact> 0.22721649E+03</totfact>
</mgrwt>
</event>
<event>
 6    4  0.2398389E-003  0.1272940E+03  0.7818608E-02  0.1231527E+00
         -4   -1    0    0    0  501 -0.00000000000E+00  0.00000000000E+00  0.28427712114E+03  0.28427995797E+03  0.12700000000E+01 0. -1.
          4   -1    0    0  502    0  0.00000000000E+00 -0.00000000000E+00 -0.24476563377E+02  0.24509489076E+02  0.12700000000E+01 0. -1.
         25    2    1    2    0    0  0.20137395116E+02  0.13165497591E+02  0.25389146679E+03  0.28401521921E+03  0.12499969129E+03 0.  0.
    9000005    1    3    3    0    0 -0.16660812778E+02 -0.95348030953E+01  0.23669383240E+03  0.23747308363E+03  0.10000000000E+01 0.  0.
    9000005    1    3    3    0    0  0.36798207894E+02  0.22700300686E+02  0.17197634395E+02  0.46542135578E+02  0.10000000000E+01 0.  0.
         21    1    1    2  502  501 -0.20137395116E+02 -0.13165497591E+02  0.59090909675E+01  0.24774227837E+02  0.00000000000E+00 0.  1.
<mgrwt>
<rscale>  1 0.12729402E+03</rscale>
<asrwt>0</asrwt>
<pdfrwt beam="2">  1        4 0.37683762E-02 0.12729402E+03</pdfrwt>
<pdfrwt beam="1">  1       -4 0.43737692E-01 0.12729402E+03</pdfrwt>
<totfact> 0.30914578E+03</totfact>
</mgrwt>
</event>
<event>
 6    4  0.2398389E-003  0.1268016E+03  0.7818608E-02  0.1232280E+00
         -4   -1    0    0    0  501 -0.00000000000E+00  0.00000000000E+00  0.80452618431E+03  0.80452718670E+03  0.12700000000E+01 0.  1.
          4   -1    0    0  502    0  0.00000000000E+00 -0.00000000000E+00 -0.35774661948E+02  0.35797197341E+02  0.12700000000E+01 0.  1.
         25    2    1    2    0    0  0.20954865731E+02  0.38261425368E+01  0.79583179095E+03  0.80587025930E+03  0.12499955830E+03 0.  0.
    9000005    1    3    3    0    0 -0.29403008330E+02  0.25777176969E+02  0.92958265187E+02  0.10085255980E+03  0.10000000000E+01 0.  0.
    9000005    1    3    3    0    0  0.50357874061E+02 -0.21951034433E+02  0.70287352576E+03  0.70501769950E+03  0.10000000000E+01 0.  0.
         21    1    1    2  502  501 -0.20954865731E+02 -0.38261425368E+01 -0.27080268591E+02  0.34454124738E+02  0.00000000000E+00 0.  1.
<mgrwt>
<rscale>  1 0.12680156E+03</rscale>
<asrwt>0</asrwt>
<pdfrwt beam="2">  1        4 0.55056049E-02 0.12680156E+03</pdfrwt>
<pdfrwt beam="1">  1       -4 0.12377507E+00 0.12680156E+03</pdfrwt>
<totfact> 0.17393998E+02</totfact>
</mgrwt>
</event>
<event>
 6    4  0.2398389E-003  0.1296591E+03  0.7818608E-02  0.1227962E+00
         -4   -1    0    0    0  501 -0.00000000000E+00  0.00000000000E+00  0.21729803292E+03  0.21730174416E+03  0.12700000000E+01 0. -1.
          4   -1    0    0  502    0  0.00000000000E+00 -0.00000000000E+00 -0.31043577462E+02  0.31069544600E+02  0.12700000000E+01 0. -1.
         25    2    1    2    0    0 -0.33642407540E+02  0.73527940130E+01  0.14186707488E+03  0.19219198011E+03  0.12500246045E+03 0.  0.
    9000005    1    3    3    0    0  0.37446227293E+01  0.54680065805E+02  0.24112139673E+02  0.59885950568E+02  0.10000000000E+01 0.  0.
    9000005    1    3    3    0    0 -0.37387030269E+02 -0.47327271792E+02  0.11775493521E+03  0.13230602955E+03  0.10000000000E+01 0.  0.
         21    1    1    2  502  501  0.33642407540E+02 -0.73527940130E+01  0.44387380579E+02  0.56179308642E+02  0.00000000000E+00 0. -1.
<mgrwt>
<rscale>  1 0.12965913E+03</rscale>
<asrwt>0</asrwt>
<pdfrwt beam="2">  1        4 0.47782182E-02 0.12965913E+03</pdfrwt>
<pdfrwt beam="1">  1       -4 0.33432748E-01 0.12965913E+03</pdfrwt>
<totfact> 0.35964741E+03</totfact>
</mgrwt>
</event>
<event>
 6    4  0.2398389E-003  0.1285976E+03  0.7818608E-02  0.1229552E+00
         -4   -1    0    0    0  501 -0.00000000000E+00  0.00000000000E+00  0.55178907508E+02  0.55193520759E+02  0.12700000000E+01 0. -1.
          4   -1    0    0  502    0  0.00000000000E+00 -0.00000000000E+00 -0.14184425575E+03  0.14184994110E+03  0.12700000000E+01 0. -1.
         25    2    1    2    0    0  0.27715648370E+02 -0.12008796449E+02 -0.28821216610E+02  0.13178771942E+03  0.12499988842E+03 0.  0.
    9000005    1    3    3    0    0 -0.28853056120E+02 -0.28626356147E+02 -0.54063303749E+02  0.67644718389E+02  0.10000000000E+01 0.  0.
    9000005    1    3    3    0    0  0.56568704491E+02  0.16617559698E+02  0.25242087138E+02  0.64143001030E+02  0.10000000000E+01 0.  0.
         21    1    1    2  502  501 -0.27715648370E+02  0.12008796449E+02 -0.57844131629E+02  0.65255742435E+02  0.00000000000E+00 0. -1.
<mgrwt>
<rscale>  1 0.12859759E+03</rscale>
<asrwt>0</asrwt>
<pdfrwt beam="2">  1        4 0.21823755E-01 0.12859759E+03</pdfrwt>
<pdfrwt beam="1">  1       -4 0.84906242E-02 0.12859759E+03</pdfrwt>
<totfact> 0.31123378E+03</totfact>
</mgrwt>
</event>
<event>
 6    4  0.2398389E-003  0.1279109E+03  0.7818608E-02  0.1230589E+00
          4   -1    0    0  502    0  0.00000000000E+00  0.00000000000E+00  0.14056542531E+03  0.14057116238E+03  0.12700000000E+01 0.  1.
         -4   -1    0    0    0  501 -0.00000000000E+00 -0.00000000000E+00 -0.48327119901E+02  0.48343804338E+02  0.12700000000E+01 0.  1.
         25    2    1    2    0    0  0.21895448767E+02  0.15941501077E+02  0.47163451006E+02  0.13632899299E+03  0.12501064389E+03 0.  0.
    9000005    1    3    3    0    0  0.28727541863E+02  0.63158014877E+02  0.54257735688E+02  0.88085801277E+02  0.10000000000E+01 0.  0.
    9000005    1    3    3    0    0 -0.68320930951E+01 -0.47216513800E+02 -0.70942846819E+01  0.48243191712E+02  0.10000000000E+01 0.  0.
         21    1    1    2  502  501 -0.21895448767E+02 -0.15941501077E+02  0.45074854400E+02  0.52585973724E+02  0.00000000000E+00 0. -1.
<mgrwt>
<rscale>  1 0.12791092E+03</rscale>
<asrwt>0</asrwt>
<pdfrwt beam="1">  1        4 0.21627174E-01 0.12791092E+03</pdfrwt>
<pdfrwt beam="2">  1       -4 0.74366665E-02 0.12791092E+03</pdfrwt>
<totfact> 0.39341030E+03</totfact>
</mgrwt>
</event>
<event>
 6    4  0.2398389E-003  0.1457935E+03  0.7818608E-02  0.1205739E+00
          4   -1    0    0  502    0  0.00000000000E+00  0.00000000000E+00  0.19780577547E+03  0.19780985240E+03  0.12700000000E+01 0. -1.
         -4   -1    0    0    0  501 -0.00000000000E+00 -0.00000000000E+00 -0.84984671073E+02  0.84994159901E+02  0.12700000000E+01 0. -1.
         25    2    1    2    0    0  0.71641098786E+02 -0.22313285127E+02 -0.18022099727E+01  0.14580461842E+03  0.12500163624E+03 0.  0.
    9000005    1    3    3    0    0 -0.35771068315E+02 -0.10384252420E+02 -0.54955988576E+01  0.37664354946E+02  0.10000000000E+01 0.  0.
    9000005    1    3    3    0    0  0.10741216710E+03 -0.11929032707E+02  0.36933888850E+01  0.10814026347E+03  0.10000000000E+01 0.  0.
         21    1    1    2  502  501 -0.71641098786E+02  0.22313285127E+02  0.11462331437E+03  0.13699939388E+03  0.00000000000E+00 0. -1.
<mgrwt>
<rscale>  1 0.14579348E+03</rscale>
<asrwt>0</asrwt>
<pdfrwt beam="1">  1        4 0.30432701E-01 0.14579348E+03</pdfrwt>
<pdfrwt beam="2">  1       -4 0.13075609E-01 0.14579348E+03</pdfrwt>
<totfact> 0.83130148E+02</totfact>
</mgrwt>
</event>
<event>
 6    4  0.2398389E-003  0.1350724E+03  0.7818608E-02  0.1220117E+00
          4   -1    0    0  502    0  0.00000000000E+00  0.00000000000E+00  0.32155825546E+03  0.32156076340E+03  0.12700000000E+01 0.  1.
         -4   -1    0    0    0  501 -0.00000000000E+00 -0.00000000000E+00 -0.56817256847E+02  0.56831448825E+02  0.12700000000E+01 0.  1.
         25    2    1    2    0    0  0.38691895679E+02 -0.33546544473E+02  0.30307656032E+02  0.13843091211E+03  0.12498851938E+03 0.  0.
    9000005    1    3    3    0    0  0.61752400819E+02  0.14635206616E+02  0.50711746421E+02  0.81241796538E+02  0.10000000000E+01 0.  0.
    9000005    1    3    3    0    0 -0.23060505141E+02 -0.48181751088E+02 -0.20404090388E+02  0.57189115571E+02  0.10000000000E+01 0.  0.
         21    1    1    2  502  501 -0.38691895679E+02  0.33546544473E+02  0.23443334258E+03  0.23996130011E+03  0.00000000000E+00 0.  1.
<mgrwt>
<rscale>  1 0.13507244E+03</rscale>
<asrwt>0</asrwt>
<pdfrwt beam="1">  1        4 0.49471786E-01 0.13507244E+03</pdfrwt>
<pdfrwt beam="2">  1       -4 0.87424010E-02 0.13507244E+03</pdfrwt>
<totfact> 0.62471513E+02</totfact>
</mgrwt>
</event>
<event>
 6    4  0.2398389E-003  0.1311279E+03  0.7818608E-02  0.1225792E+00
         -4   -1    0    0    0  501 -0.00000000000E+00  0.00000000000E+00  0.57924516304E+03  0.57924655528E+03  0.12700000000E+01 0.  1.
          4   -1    0    0  502    0  0.00000000000E+00 -0.00000000000E+00 -0.16922801168E+02  0.16970388898E+02  0.12700000000E+01 0.  1.
         25    2    1    2    0    0  0.38491567465E+02 -0.93422301309E+01  0.52725205311E+03  0.54331321476E+03  0.12500257516E+03 0.  0.
    9000005    1    3    3    0    0  0.64822549851E+02 -0.95309381539E+01  0.50378241302E+03  0.50802610309E+03  0.10000000000E+01 0.  0.
    9000005    1    3    3    0    0 -0.26330982386E+02  0.18870802303E+00  0.23469640084E+02  0.35287111667E+02  0.10000000000E+01 0.  0.
         21    1    1    2  502  501 -0.38491567465E+02  0.93422301309E+01  0.35070308764E+02  0.52903729420E+02  0.00000000000E+00 0.  1.
<mgrwt>
<rscale>  1 0.13112788E+03</rscale>
<asrwt>0</asrwt>
<pdfrwt beam="2">  1        4 0.26072756E-02 0.13112788E+03</pdfrwt>
<pdfrwt beam="1">  1       -4 0.89118406E-01 0.13112788E+03</pdfrwt>
<totfact> 0.12303291E+03</totfact>
</mgrwt>
</event>
<event>
 6    4  0.2398389E-003  0.1364653E+03  0.7818608E-02  0.1218166E+00
          4   -1    0    0  502    0  0.00000000000E+00  0.00000000000E+00  0.27527442722E+03  0.27527735682E+03  0.12700000000E+01 0.  1.
         -4   -1    0    0    0  501 -0.00000000000E+00 -0.00000000000E+00 -0.43367952611E+02  0.43386544154E+02  0.12700000000E+01 0.  1.
         25    2    1    2    0    0 -0.35083859402E+02  0.42032391048E+02  0.82317916912E+02  0.15937066295E+03  0.12500067871E+03 0.  0.
    9000005    1    3    3    0    0 -0.71236650342E+02  0.45432358290E+02  0.88681398367E+02  0.12249142806E+03  0.10000000000E+01 0.  0.
    9000005    1    3    3    0    0  0.36152790940E+02 -0.33999672416E+01 -0.63634814556E+01  0.36879234892E+02  0.10000000000E+01 0.  0.
         21    1    1    2  502  501  0.35083859402E+02 -0.42032391048E+02  0.14958855769E+03  0.15929323802E+03  0.00000000000E+00 0.  1.
<mgrwt>
<rscale>  1 0.13646527E+03</rscale>
<asrwt>0</asrwt>
<pdfrwt beam="1">  1        4 0.42351568E-01 0.13646527E+03</pdfrwt>
<pdfrwt beam="2">  1       -4 0.66736481E-02 0.13646527E+03</pdfrwt>
<totfact> 0.13360678E+03</totfact>
</mgrwt>
</event>
<event>
 6    4  0.2398389E-003  0.1279129E+03  0.7818608E-02  0.1230586E+00
         -4   -1    0    0    0  501 -0.00000000000E+00  0.00000000000E+00  0.10873327221E+04  0.10873334637E+04  0.12700000000E+01 0.  1.
          4   -1    0    0  502    0  0.00000000000E+00 -0.00000000000E+00 -0.11902407487E+02  0.11969970927E+02  0.12700000000E+01 0.  1.
         25    2    1    2    0    0 -0.26311170949E+02  0.66296921592E+01  0.10607859756E+04  0.10684702188E+04  0.12500196792E+03 0.  0.
    9000005    1    3    3    0    0 -0.44190010242E+02 -0.40223343796E+02  0.29218787390E+03  0.29823720097E+03  0.10000000000E+01 0.  0.
    9000005    1    3    3    0    0  0.17878839293E+02  0.46853035955E+02  0.76859810168E+03  0.77023301784E+03  0.10000000000E+01 0.  0.
         21    1    1    2  502  501  0.26311170949E+02 -0.66296921592E+01  0.14644338998E+02  0.30833215848E+02  0.00000000000E+00 0.  1.
<mgrwt>
<rscale>  1 0.12791295E+03</rscale>
<asrwt>0</asrwt>
<pdfrwt beam="2">  1        4 0.18363937E-02 0.12791295E+03</pdfrwt>
<pdfrwt beam="1">  1       -4 0.16728723E+00 0.12791295E+03</pdfrwt>
<totfact> 0.45770919E+02</totfact>
</mgrwt>
</event>
<event>
 6    4  0.2398389E-003  0.1293264E+03  0.7818608E-02  0.1228459E+00
         -4   -1    0    0    0  501 -0.00000000000E+00  0.00000000000E+00  0.21676402275E+02  0.21713574455E+02  0.12700000000E+01 0. -1.
          4   -1    0    0  502    0  0.00000000000E+00 -0.00000000000E+00 -0.33154225964E+03  0.33154469206E+03  0.12700000000E+01 0. -1.
         25    2    1    2    0    0  0.21947778863E+01  0.33116382922E+02 -0.19735254586E+03  0.23595201291E+03  0.12499525259E+03 0.  0.
    9000005    1    3    3    0    0 -0.34745305440E+02  0.65257140895E+02 -0.80776273803E+02  0.10950587700E+03  0.10000000000E+01 0.  0.
    9000005    1    3    3    0    0  0.36940083326E+02 -0.32140757972E+02 -0.11657627206E+03  0.12644613591E+03  0.10000000000E+01 0.  0.
         21    1    1    2  502  501 -0.21947778863E+01 -0.33116382922E+02 -0.11251331151E+03  0.11730625360E+03  0.00000000000E+00 0. -1.
<mgrwt>
<rscale>  1 0.12932643E+03</rscale>
<asrwt>0</asrwt>
<pdfrwt beam="2">  1        4 0.51009544E-01 0.12932643E+03</pdfrwt>
<pdfrwt beam="1">  1       -4 0.33378779E-02 0.12932643E+03</pdfrwt>
<totfact> 0.27555833E+03</totfact>
</mgrwt>
</event>
<event>
 6    4  0.2398389E-003  0.1271434E+03  0.7818608E-02  0.1231757E+00
         -4   -1    0    0    0  501 -0.00000000000E+00  0.00000000000E+00  0.10645064596E+02  0.10720555035E+02  0.12700000000E+01 0.  1.
          4   -1    0    0  502    0  0.00000000000E+00 -0.00000000000E+00 -0.10687894029E+04  0.10687901575E+04  0.12700000000E+01 0.  1.
         25    2    1    2    0    0 -0.18844228135E+02  0.13599871506E+02 -0.37493326081E+03  0.39590451162E+03  0.12500148328E+03 0.  0.
    9000005    1    3    3    0    0 -0.33829155996E+02 -0.12906732324E+02 -0.36028353666E+03  0.36209974085E+03  0.10000000000E+01 0.  0.
    9000005    1    3    3    0    0  0.14984927860E+02  0.26506603830E+02 -0.14649724154E+02  0.33804770779E+02  0.10000000000E+01 0.  0.
         21    1    1    2  502  501  0.18844228135E+02 -0.13599871506E+02 -0.68321107751E+03  0.68360620087E+03  0.00000000000E+00 0.  1.
<mgrwt>
<rscale>  1 0.12714335E+03</rscale>
<asrwt>0</asrwt>
<pdfrwt beam="2">  1        4 0.16443492E+00 0.12714335E+03</pdfrwt>
<pdfrwt beam="1">  1       -4 0.16435681E-02 0.12714335E+03</pdfrwt>
<totfact> 0.56685705E+02</totfact>
</mgrwt>
</event>
<event>
 6    4  0.2398389E-003  0.1269649E+03  0.7818608E-02  0.1232030E+00
          4   -1    0    0  502    0  0.00000000000E+00  0.00000000000E+00  0.76372043988E+01  0.77420792445E+01  0.12700000000E+01 0. -1.
         -4   -1    0    0    0  501 -0.00000000000E+00 -0.00000000000E+00 -0.72395884951E+03  0.72395996346E+03  0.12700000000E+01 0. -1.
         25    2    1    2    0    0 -0.20301661939E+02  0.91157175530E+01 -0.60561071541E+03  0.61877656400E+03  0.12499937501E+03 0.  0.
    9000005    1    3    3    0    0 -0.63493024881E+02  0.47432089574E+01 -0.17952455170E+03  0.19048340322E+03  0.10000000000E+01 0.  0.
    9000005    1    3    3    0    0  0.43191362942E+02  0.43725085956E+01 -0.42608616371E+03  0.42829316078E+03  0.10000000000E+01 0.  0.
         21    1    1    2  502  501  0.20301661939E+02 -0.91157175530E+01 -0.11071092970E+03  0.11292547870E+03  0.00000000000E+00 0. -1.
<mgrwt>
<rscale>  1 0.12696495E+03</rscale>
<asrwt>0</asrwt>
<pdfrwt beam="1">  1        4 0.11831081E-02 0.12696495E+03</pdfrwt>
<pdfrwt beam="2">  1       -4 0.11138638E+00 0.12696495E+03</pdfrwt>
<totfact> 0.24498024E+03</totfact>
</mgrwt>
</event>
<event>
 6    4  0.2398389E-003  0.1271870E+03  0.7818608E-02  0.1231690E+00
          4   -1    0    0  502    0  0.00000000000E+00  0.00000000000E+00  0.52295298222E+03  0.52295452433E+03  0.12700000000E+01 0.  1.
         -4   -1    0    0    0  501 -0.00000000000E+00 -0.00000000000E+00 -0.19174417852E+02  0.19216430469E+02  0.12700000000E+01 0.  1.
         25    2    1    2    0    0  0.37578635460E+01  0.23207052247E+02  0.19698114510E+03  0.23447411490E+03  0.12499540080E+03 0.  0.
    9000005    1    3    3    0    0  0.40269691273E+02 -0.46833417316E+01  0.97820801324E+01  0.41716553270E+02  0.10000000000E+01 0.  0.
    9000005    1    3    3    0    0 -0.36511827727E+02  0.27890393979E+02  0.18719906496E+03  0.19275756163E+03  0.10000000000E+01 0.  0.
         21    1    1    2  502  501 -0.37578635460E+01 -0.23207052247E+02  0.30679741927E+03  0.30769683990E+03  0.00000000000E+00 0.  1.
<mgrwt>
<rscale>  1 0.12718702E+03</rscale>
<asrwt>0</asrwt>
<pdfrwt beam="1">  1        4 0.80457664E-01 0.12718702E+03</pdfrwt>
<pdfrwt beam="2">  1       -4 0.29532605E-02 0.12718702E+03</pdfrwt>
<totfact> 0.12640917E+03</totfact>
</mgrwt>
</event>
<event>
 6    4  0.2398389E-003  0.1385967E+03  0.7818608E-02  0.1215230E+00
          4   -1    0    0  502    0  0.00000000000E+00  0.00000000000E+00  0.52428127744E+02  0.52443507498E+02  0.12700000000E+01 0. -1.
         -4   -1    0    0    0  501 -0.00000000000E+00 -0.00000000000E+00 -0.19098012332E+03  0.19098434596E+03  0.12700000000E+01 0. -1.
         25    2    1    2    0    0  0.47044716340E+02  0.37031093953E+02 -0.11077929739E+03  0.17742914120E+03  0.12499816064E+03 0.  0.
    9000005    1    3    3    0    0  0.29565443807E+02  0.46849911340E+02  0.88650867622E+01  0.56112560300E+02  0.10000000000E+01 0.  0.
    9000005    1    3    3    0    0  0.17479272532E+02 -0.98188173874E+01 -0.11964438415E+03  0.12131658090E+03  0.10000000000E+01 0.  0.
         21    1    1    2  502  501 -0.47044716340E+02 -0.37031093953E+02 -0.27772698182E+02  0.65998712254E+02  0.00000000000E+00 0. -1.
<mgrwt>
<rscale>  1 0.13859671E+03</rscale>
<asrwt>0</asrwt>
<pdfrwt beam="1">  1        4 0.80673738E-02 0.13859671E+03</pdfrwt>
<pdfrwt beam="2">  1       -4 0.29383065E-01 0.13859671E+03</pdfrwt>
<totfact> 0.19887859E+03</totfact>
</mgrwt>
</event>
<event>
 6    4  0.2398389E-003  0.1266860E+03  0.7818608E-02  0.1232458E+00
         -4   -1    0    0    0  501 -0.00000000000E+00  0.00000000000E+00  0.30963800612E+03  0.30964061060E+03  0.12700000000E+01 0. -1.
          4   -1    0    0  502    0  0.00000000000E+00 -0.00000000000E+00 -0.21273829166E+02  0.21311703531E+02  0.12700000000E+01 0. -1.
         25    2    1    2    0    0  0.16331225127E+02 -0.12534880326E+02  0.28240682477E+03  0.30952051103E+03  0.12500199972E+03 0.  0.
    9000005    1    3    3    0    0  0.15648913270E+02  0.35038735665E+02  0.20879094195E+02  0.43698261498E+02  0.10000000000E+01 0.  0.
    9000005    1    3    3    0    0  0.68231185676E+00 -0.47573615991E+02  0.26152773058E+03  0.26582224954E+03  0.10000000000E+01 0.  0.
         21    1    1    2  502  501 -0.16331225127E+02  0.12534880326E+02  0.59573521786E+01  0.21431803095E+02  0.00000000000E+00 0.  1.
<mgrwt>
<rscale>  1 0.12668596E+03</rscale>
<asrwt>0</asrwt>
<pdfrwt beam="2">  1        4 0.32760105E-02 0.12668596E+03</pdfrwt>
<pdfrwt beam="1">  1       -4 0.47639730E-01 0.12668596E+03</pdfrwt>
<totfact> 0.32439683E+03</totfact>
</mgrwt>
</event>
<event>
 6    4  0.2398389E-003  0.1302857E+03  0.7818608E-02  0.1227032E+00
         -4   -1    0    0    0  501 -0.00000000000E+00  0.00000000000E+00  0.37063618119E+02  0.37085370270E+02  0.12700000000E+01 0.  1.
          4   -1    0    0  502    0  0.00000000000E+00 -0.00000000000E+00 -0.19450453890E+03  0.19450868503E+03  0.12700000000E+01 0.  1.
         25    2    1    2    0    0 -0.98683683014E+00 -0.36722575272E+02 -0.10380033953E+03  0.16657995422E+03  0.12499939713E+03 0.  0.
    9000005    1    3    3    0    0 -0.17743840876E+02  0.39835428288E+02 -0.67109962461E+02  0.80040316700E+02  0.10000000000E+01 0.  0.
    9000005    1    3    3    0    0  0.16757004046E+02 -0.76558003559E+02 -0.36690377064E+02  0.86539637523E+02  0.10000000000E+01 0.  0.
         21    1    1    2  502  501  0.98683683014E+00  0.36722575272E+02 -0.53640581250E+02  0.65014101073E+02  0.00000000000E+00 0.  1.
<mgrwt>
<rscale>  1 0.13028573E+03</rscale>
<asrwt>0</asrwt>
<pdfrwt beam="2">  1        4 0.29925767E-01 0.13028573E+03</pdfrwt>
<pdfrwt beam="1">  1       -4 0.57040874E-02 0.13028573E+03</pdfrwt>
<totfact> 0.33423038E+03</totfact>
</mgrwt>
</event>
<event>
 6    4  0.2398389E-003  0.1285374E+03  0.7818608E-02  0.1229642E+00
          4   -1    0    0  502    0  0.00000000000E+00  0.00000000000E+00  0.27490805473E+02  0.27520125101E+02  0.12700000000E+01 0.  1.
         -4   -1    0    0    0  501 -0.00000000000E+00 -0.00000000000E+00 -0.23667482384E+03  0.23667823123E+03  0.12700000000E+01 0.  1.
         25    2    1    2    0    0  0.18150748882E+02 -0.23816669793E+02 -0.14762238663E+03  0.19574020892E+03  0.12500070764E+03 0.  0.
    9000005    1    3    3    0    0 -0.32742347102E+01 -0.50080747260E+02 -0.15334453162E+03  0.16135162607E+03  0.10000000000E+01 0.  0.
    9000005    1    3    3    0    0  0.21424983593E+02  0.26264077466E+02  0.57221449879E+01  0.34388582849E+02  0.10000000000E+01 0.  0.
         21    1    1    2  502  501 -0.18150748882E+02  0.23816669793E+02 -0.61561631733E+02  0.68458147409E+02  0.00000000000E+00 0.  1.
<mgrwt>
<rscale>  1 0.12853739E+03</rscale>
<asrwt>0</asrwt>
<pdfrwt beam="1">  1        4 0.42318723E-02 0.12853739E+03</pdfrwt>
<pdfrwt beam="2">  1       -4 0.36414027E-01 0.12853739E+03</pdfrwt>
<totfact> 0.36953834E+03</totfact>
</mgrwt>
</event>
<event>
 6    4  0.2398389E-003  0.1293131E+03  0.7818608E-02  0.1228479E+00
          4   -1    0    0  502    0  0.00000000000E+00  0.00000000000E+00  0.27695474268E+02  0.27724577453E+02  0.12700000000E+01 0.  1.
         -4   -1    0    0    0  501 -0.00000000000E+00 -0.00000000000E+00 -0.27357185669E+03  0.27357480452E+03  0.12700000000E+01 0.  1.
         25    2    1    2    0    0  0.27240722711E+02 -0.19008231882E+02 -0.14114077613E+03  0.19142255513E+03  0.12497402159E+03 0.  0.
    9000005    1    3    3    0    0 -0.48049100002E+01  0.39329832181E+02 -0.50911633535E+01  0.39960515560E+02  0.10000000000E+01 0.  0.
    9000005    1    3    3    0    0  0.32045632711E+02 -0.58338064063E+02 -0.13604961278E+03  0.15146203957E+03  0.10000000000E+01 0.  0.
         21    1    1    2  502  501 -0.27240722711E+02  0.19008231882E+02 -0.10473560629E+03  0.10987682685E+03  0.00000000000E+00 0.  1.
<mgrwt>
<rscale>  1 0.12931309E+03</rscale>
<asrwt>0</asrwt>
<pdfrwt beam="1">  1        4 0.42633079E-02 0.12931309E+03</pdfrwt>
<pdfrwt beam="2">  1       -4 0.42090441E-01 0.12931309E+03</pdfrwt>
<totfact> 0.27535760E+03</totfact>
</mgrwt>
</event>
<event>
 6    4  0.2398389E-003  0.1328016E+03  0.7818608E-02  0.1223357E+00
         -4   -1    0    0    0  501 -0.00000000000E+00  0.00000000000E+00  0.46699418513E+03  0.46699591202E+03  0.12700000000E+01 0.  1.
          4   -1    0    0  502    0  0.00000000000E+00 -0.00000000000E+00 -0.16918997615E+02  0.16966596014E+02  0.12700000000E+01 0.  1.
         25    2    1    2    0    0  0.13464911653E+02 -0.42790186322E+02  0.34726386569E+03  0.37179089047E+03  0.12499587967E+03 0.  0.
    9000005    1    3    3    0    0  0.27149234520E+02  0.39528017820E+02  0.10192177534E+03  0.11264365680E+03  0.10000000000E+01 0.  0.
    9000005    1    3    3    0    0 -0.13684322866E+02 -0.82318204143E+02  0.24534209035E+03  0.25914723368E+03  0.10000000000E+01 0.  0.
         21    1    1    2  502  501 -0.13464911653E+02  0.42790186322E+02  0.10281132182E+03  0.11217161756E+03  0.00000000000E+00 0.  1.
<mgrwt>
<rscale>  1 0.13280163E+03</rscale>
<asrwt>0</asrwt>
<pdfrwt beam="2">  1        4 0.26067177E-02 0.13280163E+03</pdfrwt>
<pdfrwt beam="1">  1       -4 0.71849034E-01 0.13280163E+03</pdfrwt>
<totfact> 0.19865339E+03</totfact>
</mgrwt>
</event>
<event>
 6    4  0.2398389E-003  0.1272060E+03  0.7818608E-02  0.1231661E+00
          4   -1    0    0  502    0  0.00000000000E+00  0.00000000000E+00  0.40436353628E+03  0.40436553064E+03  0.12700000000E+01 0.  1.
         -4   -1    0    0    0  501 -0.00000000000E+00 -0.00000000000E+00 -0.14545291915E+02  0.14600630702E+02  0.12700000000E+01 0.  1.
         25    2    1    2    0    0  0.19247007301E+02 -0.13594244937E+02  0.29487883712E+03  0.32114621535E+03  0.12500444900E+03 0.  0.
    9000005    1    3    3    0    0  0.41340689596E+02  0.46286009704E+02  0.16834361289E+03  0.17942134575E+03  0.10000000000E+01 0.  0.
    9000005    1    3    3    0    0 -0.22093682295E+02 -0.59880254641E+02  0.12653522423E+03  0.14172486961E+03  0.10000000000E+01 0.  0.
         21    1    1    2  502  501 -0.19247007301E+02  0.13594244937E+02  0.94939407244E+02  0.97819945989E+02  0.00000000000E+00 0. -1.
<mgrwt>
<rscale>  1 0.12720599E+03</rscale>
<asrwt>0</asrwt>
<pdfrwt beam="1">  1        4 0.62214180E-01 0.12720599E+03</pdfrwt>
<pdfrwt beam="2">  1       -4 0.22421476E-02 0.12720599E+03</pdfrwt>
<totfact> 0.33793513E+03</totfact>
</mgrwt>
</event>
<event>
 6    4  0.2398389E-003  0.1272385E+03  0.7818608E-02  0.1231612E+00
         -4   -1    0    0    0  501 -0.00000000000E+00  0.00000000000E+00  0.26419371302E+01  0.29313361800E+01  0.12700000000E+01 0. -1.
          4   -1    0    0  502    0  0.00000000000E+00 -0.00000000000E+00 -0.24038653843E+04  0.24038657198E+04  0.12700000000E+01 0. -1.
         25    2    1    2    0    0 -0.23765920002E+02  0.19597867510E+00 -0.15405637657E+04  0.15458092833E+04  0.12499906716E+03 0.  0.
    9000005    1    3    3    0    0  0.42299295154E+02 -0.26642791778E+02 -0.87700928862E+03  0.87843346990E+03  0.10000000000E+01 0.  0.
    9000005    1    3    3    0    0 -0.66065215156E+02  0.26838770453E+02 -0.66355447711E+03  0.66737581342E+03  0.10000000000E+01 0.  0.
         21    1    1    2  502  501  0.23765920002E+02 -0.19597867510E+00 -0.86065968147E+03  0.86098777266E+03  0.00000000000E+00 0. -1.
<mgrwt>
<rscale>  1 0.12723845E+03</rscale>
<asrwt>0</asrwt>
<pdfrwt beam="2">  1        4 0.36984607E+00 0.12723845E+03</pdfrwt>
<pdfrwt beam="1">  1       -4 0.42874106E-03 0.12723845E+03</pdfrwt>
<totfact> 0.24835197E+02</totfact>
</mgrwt>
</event>
<event>
 6    4  0.2398389E-003  0.1276246E+03  0.7818608E-02  0.1231024E+00
          4   -1    0    0  502    0  0.00000000000E+00  0.00000000000E+00  0.23998803382E+02  0.24032383648E+02  0.12700000000E+01 0. -1.
         -4   -1    0    0    0  501 -0.00000000000E+00 -0.00000000000E+00 -0.24597456371E+03  0.24597784228E+03  0.12700000000E+01 0. -1.
         25    2    1    2    0    0  0.15595282576E+02 -0.20501457520E+02 -0.17760292460E+03  0.21870261295E+03  0.12499804592E+03 0.  0.
    9000005    1    3    3    0    0 -0.38911693221E+02  0.31652873562E+02 -0.52549139899E+02  0.72652848384E+02  0.10000000000E+01 0.  0.
    9000005    1    3    3    0    0  0.54506975798E+02 -0.52154331082E+02 -0.12505378470E+03  0.14604976456E+03  0.10000000000E+01 0.  0.
         21    1    1    2  502  501 -0.15595282576E+02  0.20501457520E+02 -0.44372835726E+02  0.51307612978E+02  0.00000000000E+00 0. -1.
<mgrwt>
<rscale>  1 0.12762458E+03</rscale>
<asrwt>0</asrwt>
<pdfrwt beam="1">  1        4 0.36949591E-02 0.12762458E+03</pdfrwt>
<pdfrwt beam="2">  1       -4 0.37845074E-01 0.12762458E+03</pdfrwt>
<totfact> 0.42439336E+03</totfact>
</mgrwt>
</event>
<event>
 6    4  0.2398389E-003  0.1271499E+03  0.7818608E-02  0.1231747E+00
          4   -1    0    0  502    0  0.00000000000E+00  0.00000000000E+00  0.20505220073E+03  0.20505613359E+03  0.12700000000E+01 0. -1.
         -4   -1    0    0    0  501 -0.00000000000E+00 -0.00000000000E+00 -0.28511857053E+02  0.28540127761E+02  0.12700000000E+01 0. -1.
         25    2    1    2    0    0 -0.67455126094E+00 -0.23273223378E+02  0.13164837570E+03  0.18302564998E+03  0.12499998312E+03 0.  0.
    9000005    1    3    3    0    0  0.37812815302E+02 -0.60601071196E+02  0.91245449353E+02  0.11588369540E+03  0.10000000000E+01 0.  0.
    9000005    1    3    3    0    0 -0.38487366563E+02  0.37327847818E+02  0.40402926343E+02  0.67141954579E+02  0.10000000000E+01 0.  0.
         21    1    1    2  502  501  0.67455126094E+00  0.23273223378E+02  0.44891967978E+02  0.50570611374E+02  0.00000000000E+00 0. -1.
<mgrwt>
<rscale>  1 0.12714989E+03</rscale>
<asrwt>0</asrwt>
<pdfrwt beam="1">  1        4 0.31548971E-01 0.12714989E+03</pdfrwt>
<pdfrwt beam="2">  1       -4 0.43889166E-02 0.12714989E+03</pdfrwt>
<totfact> 0.45794493E+03</totfact>
</mgrwt>
</event>
<event>
 6    4  0.2398389E-003  0.1311923E+03  0.7818608E-02  0.1225697E+00
          4   -1    0    0  502    0  0.00000000000E+00  0.00000000000E+00  0.40782531187E+02  0.40802300793E+02  0.12700000000E+01 0.  1.
         -4   -1    0    0    0  501 -0.00000000000E+00 -0.00000000000E+00 -0.42967961655E+03  0.42968149341E+03  0.12700000000E+01 0.  1.
         25    2    1    2    0    0  0.14080281991E+02  0.37260715371E+02 -0.40634441028E+03  0.42699788387E+03  0.12499919125E+03 0.  0.
    9000005    1    3    3    0    0  0.13900871292E+02  0.25832059803E+02 -0.10782590043E+02  0.31269694344E+02  0.10000000000E+01 0.  0.
    9000005    1    3    3    0    0  0.17941069904E+00  0.11428655568E+02 -0.39556182023E+03  0.39572818952E+03  0.10000000000E+01 0.  0.
         21    1    1    2  502  501 -0.14080281991E+02 -0.37260715371E+02  0.17447324915E+02  0.43485910334E+02  0.00000000000E+00 0.  1.
<mgrwt>
<rscale>  1 0.13119228E+03</rscale>
<asrwt>0</asrwt>
<pdfrwt beam="1">  1        4 0.62759010E-02 0.13119228E+03</pdfrwt>
<pdfrwt beam="2">  1       -4 0.66106218E-01 0.13119228E+03</pdfrwt>
<totfact> 0.58635194E+02</totfact>
</mgrwt>
</event>
<event>
 6    4  0.2398389E-003  0.1267209E+03  0.7818608E-02  0.1232404E+00
          4   -1    0    0  502    0  0.00000000000E+00  0.00000000000E+00  0.11484529710E+03  0.11485231894E+03  0.12700000000E+01 0.  1.
         -4   -1    0    0    0  501 -0.00000000000E+00 -0.00000000000E+00 -0.47601026276E+02  0.47617965124E+02  0.12700000000E+01 0.  1.
         25    2    1    2    0    0 -0.10749730050E+02  0.17772865338E+02  0.53425957952E+02  0.13752279503E+03  0.12500701873E+03 0.  0.
    9000005    1    3    3    0    0  0.40999549347E+02  0.42215356833E+02 -0.53298215530E+00  0.58859013491E+02  0.10000000000E+01 0.  0.
    9000005    1    3    3    0    0 -0.51749279397E+02 -0.24442491495E+02  0.53958940107E+02  0.78663781539E+02  0.10000000000E+01 0.  0.
         21    1    1    2  502  501  0.10749730050E+02 -0.17772865338E+02  0.13818312872E+02  0.24947489034E+02  0.00000000000E+00 0. -1.
<mgrwt>
<rscale>  1 0.12672090E+03</rscale>
<asrwt>0</asrwt>
<pdfrwt beam="1">  1        4 0.17670350E-01 0.12672090E+03</pdfrwt>
<pdfrwt beam="2">  1       -4 0.73250780E-02 0.12672090E+03</pdfrwt>
<totfact> 0.57795780E+03</totfact>
</mgrwt>
</event>
<event>
 6    4  0.2398389E-003  0.1298174E+03  0.7818608E-02  0.1227727E+00
         -4   -1    0    0    0  501 -0.00000000000E+00  0.00000000000E+00  0.67912456432E+02  0.67924330241E+02  0.12700000000E+01 0. -1.
          4   -1    0    0  502    0  0.00000000000E+00 -0.00000000000E+00 -0.16208576923E+03  0.16209074461E+03  0.12700000000E+01 0. -1.
         25    2    1    2    0    0 -0.34918083301E+02  0.28931543699E+01 -0.30175404873E+00  0.12981770749E+03  0.12499961295E+03 0.  0.
    9000005    1    3    3    0    0  0.75807192900E+01  0.58858557720E+02 -0.35827435333E+01  0.59461190478E+02  0.10000000000E+01 0.  0.
    9000005    1    3    3    0    0 -0.42498802591E+02 -0.55965403350E+02  0.32809894846E+01  0.70356517010E+02  0.10000000000E+01 0.  0.
         21    1    1    2  502  501  0.34918083301E+02 -0.28931543699E+01 -0.93871558754E+02  0.10019736736E+03  0.00000000000E+00 0. -1.
<mgrwt>
<rscale>  1 0.12981736E+03</rscale>
<asrwt>0</asrwt>
<pdfrwt beam="2">  1        4 0.24937568E-01 0.12981736E+03</pdfrwt>
<pdfrwt beam="1">  1       -4 0.10449366E-01 0.12981736E+03</pdfrwt>
<totfact> 0.17260982E+03</totfact>
</mgrwt>
</event>
<event>
 6    4  0.2398389E-003  0.1265934E+03  0.7818608E-02  0.1232600E+00
          4   -1    0    0  502    0  0.00000000000E+00  0.00000000000E+00  0.54963117259E+02  0.54977787868E+02  0.12700000000E+01 0. -1.
         -4   -1    0    0    0  501 -0.00000000000E+00 -0.00000000000E+00 -0.10949859134E+03  0.10950595603E+03  0.12700000000E+01 0. -1.
         25    2    1    2    0    0 -0.27661629696E+01  0.19852295561E+02 -0.64523901090E+02  0.14208878976E+03  0.12499650022E+03 0.  0.
    9000005    1    3    3    0    0  0.13245625625E+02  0.56994620364E+01 -0.99795210689E+02  0.10083657344E+03  0.10000000000E+01 0.  0.
    9000005    1    3    3    0    0 -0.16011788595E+02  0.14152833524E+02  0.35271309600E+02  0.41252216324E+02  0.10000000000E+01 0.  0.
         21    1    1    2  502  501  0.27661629696E+01 -0.19852295561E+02  0.99884270089E+01  0.22394954135E+02  0.00000000000E+00 0.  1.
<mgrwt>
<rscale>  1 0.12659341E+03</rscale>
<asrwt>0</asrwt>
<pdfrwt beam="1">  1        4 0.84575592E-02 0.12659341E+03</pdfrwt>
<pdfrwt beam="2">  1       -4 0.16847632E-01 0.12659341E+03</pdfrwt>
<totfact> 0.49571162E+03</totfact>
</mgrwt>
</event>
<event>
 6    4  0.2398389E-003  0.1275241E+03  0.7818608E-02  0.1231176E+00
          4   -1    0    0  502    0  0.00000000000E+00  0.00000000000E+00  0.35771388874E+02  0.35793926328E+02  0.12700000000E+01 0. -1.
         -4   -1    0    0    0  501 -0.00000000000E+00 -0.00000000000E+00 -0.16511322676E+03  0.16511811091E+03  0.12700000000E+01 0. -1.
         25    2    1    2    0    0  0.84277891306E+01 -0.23724579096E+02 -0.11613606388E+03  0.17248184642E+03  0.12501407412E+03 0.  0.
    9000005    1    3    3    0    0 -0.77208426845E+01 -0.60172280803E+02 -0.13202354715E+02  0.62093614477E+02  0.10000000000E+01 0.  0.
    9000005    1    3    3    0    0  0.16148631815E+02  0.36447701706E+02 -0.10293370917E+03  0.11038823195E+03  0.10000000000E+01 0.  0.
         21    1    1    2  502  501 -0.84277891306E+01  0.23724579096E+02 -0.13205774006E+02  0.28430190820E+02  0.00000000000E+00 0. -1.
<mgrwt>
<rscale>  1 0.12752412E+03</rscale>
<asrwt>0</asrwt>
<pdfrwt beam="1">  1        4 0.55054000E-02 0.12752412E+03</pdfrwt>
<pdfrwt beam="2">  1       -4 0.25404144E-01 0.12752412E+03</pdfrwt>
<totfact> 0.47804956E+03</totfact>
</mgrwt>
</event>
<event>
 6    4  0.2398389E-003  0.1295123E+03  0.7818608E-02  0.1228181E+00
         -4   -1    0    0    0  501 -0.00000000000E+00  0.00000000000E+00  0.13127838666E+02  0.13189126128E+02  0.12700000000E+01 0. -1.
          4   -1    0    0  502    0  0.00000000000E+00 -0.00000000000E+00 -0.72246444133E+03  0.72246555757E+03  0.12700000000E+01 0. -1.
         25    2    1    2    0    0 -0.33859261887E+02 -0.13541499532E+01 -0.32541388270E+03  0.35023940347E+03  0.12500064539E+03 0.  0.
    9000005    1    3    3    0    0  0.23130632714E+01  0.19781323485E+02  0.21035757750E+01  0.20051834120E+02  0.10000000000E+01 0.  0.
    9000005    1    3    3    0    0 -0.36172325158E+02 -0.21135473439E+02 -0.32751745848E+03  0.33018756935E+03  0.10000000000E+01 0.  0.
         21    1    1    2  502  501  0.33859261887E+02  0.13541499532E+01 -0.38392271995E+03  0.38541528023E+03  0.00000000000E+00 0.  1.
<mgrwt>
<rscale>  1 0.12951233E+03</rscale>
<asrwt>0</asrwt>
<pdfrwt beam="2">  1        4 0.11115315E+00 0.12951233E+03</pdfrwt>
<pdfrwt beam="1">  1       -4 0.20244683E-02 0.12951233E+03</pdfrwt>
<totfact> 0.10901482E+03</totfact>
</mgrwt>
</event>
<event>
 6    4  0.2398389E-003  0.1276624E+03  0.7818608E-02  0.1230966E+00
         -4   -1    0    0    0  501 -0.00000000000E+00  0.00000000000E+00  0.11981326638E+04  0.11981333369E+04  0.12700000000E+01 0.  1.
          4   -1    0    0  502    0  0.00000000000E+00 -0.00000000000E+00 -0.48349718501E+01  0.49989851761E+01  0.12700000000E+01 0.  1.
         25    2    1    2    0    0  0.25798812211E+02 -0.16974173263E+01  0.99018930140E+03  0.99838496983E+03  0.12501694058E+03 0.  0.
    9000005    1    3    3    0    0  0.95992601150E+01  0.34303830158E+02  0.82876392925E+02  0.90213053726E+02  0.10000000000E+01 0.  0.
    9000005    1    3    3    0    0  0.16199552096E+02 -0.36001247485E+02  0.90731290848E+03  0.90817191610E+03  0.10000000000E+01 0.  0.
         21    1    1    2  502  501 -0.25798812211E+02  0.16974173263E+01  0.20310839060E+03  0.20474735229E+03  0.00000000000E+00 0.  1.
<mgrwt>
<rscale>  1 0.12766243E+03</rscale>
<asrwt>0</asrwt>
<pdfrwt beam="2">  1        4 0.75651011E-03 0.12766243E+03</pdfrwt>
<pdfrwt beam="1">  1       -4 0.18434075E+00 0.12766243E+03</pdfrwt>
<totfact> 0.13466797E+03</totfact>
</mgrwt>
</event>
<event>
 6    4  0.2398389E-003  0.1414586E+03  0.7818608E-02  0.1211380E+00
         -4   -1    0    0    0  501 -0.00000000000E+00  0.00000000000E+00  0.18698826604E+04  0.18698830917E+04  0.12700000000E+01 0. -1.
          4   -1    0    0  502    0  0.00000000000E+00 -0.00000000000E+00 -0.76064355993E+01  0.77117288935E+01  0.12700000000E+01 0. -1.
         25    2    1    2    0    0 -0.66198039076E+02  0.18514450407E+01  0.16281283846E+04  0.16342620869E+04  0.12499969437E+03 0.  0.
    9000005    1    3    3    0    0 -0.79284716005E+02 -0.25080529388E+02  0.60431344472E+03  0.61000888405E+03  0.10000000000E+01 0.  0.
    9000005    1    3    3    0    0  0.13086676929E+02  0.26931974429E+02  0.10238149399E+04  0.10242532028E+04  0.10000000000E+01 0.  0.
         21    1    1    2  502  501  0.66198039076E+02 -0.18514450407E+01  0.23414784022E+03  0.24333273373E+03  0.00000000000E+00 0. -1.
<mgrwt>
<rscale>  1 0.14145859E+03</rscale>
<asrwt>0</asrwt>
<pdfrwt beam="2">  1        4 0.11783534E-02 0.14145859E+03</pdfrwt>
<pdfrwt beam="1">  1       -4 0.28768242E+00 0.14145859E+03</pdfrwt>
<totfact> 0.17168424E+02</totfact>
</mgrwt>
</event>
<event>
 6    4  0.2398389E-003  0.1327101E+03  0.7818608E-02  0.1223489E+00
          4   -1    0    0  502    0  0.00000000000E+00  0.00000000000E+00  0.21674550405E+04  0.21674554126E+04  0.12700000000E+01 0.  1.
         -4   -1    0    0    0  501 -0.00000000000E+00 -0.00000000000E+00 -0.74773686281E+01  0.75844539421E+01  0.12700000000E+01 0.  1.
         25    2    1    2    0    0 -0.42024259350E+02 -0.14857618845E+02  0.60328946073E+03  0.61771364060E+03  0.12500072457E+03 0.  0.
    9000005    1    3    3    0    0  0.75125927833E+01  0.30798207032E+02  0.43901966980E+03  0.44016387752E+03  0.10000000000E+01 0.  0.
    9000005    1    3    3    0    0 -0.49536852133E+02 -0.45655825878E+02  0.16426979093E+03  0.17754976308E+03  0.10000000000E+01 0.  0.
         21    1    1    2  502  501  0.42024259350E+02  0.14857618845E+02  0.15566882112E+04  0.15573262260E+04  0.00000000000E+00 0.  1.
<mgrwt>
<rscale>  1 0.13271009E+03</rscale>
<asrwt>0</asrwt>
<pdfrwt beam="1">  1        4 0.33346280E+00 0.13271009E+03</pdfrwt>
<pdfrwt beam="2">  1       -4 0.11586307E-02 0.13271009E+03</pdfrwt>
<totfact> 0.94474591E+01</totfact>
</mgrwt>
</event>
<event>
 6    4  0.2398389E-003  0.1287352E+03  0.7818608E-02  0.1229345E+00
          4   -1    0    0  502    0  0.00000000000E+00  0.00000000000E+00  0.25300643574E+02  0.25332498204E+02  0.12700000000E+01 0. -1.
         -4   -1    0    0    0  501 -0.00000000000E+00 -0.00000000000E+00 -0.26131685534E+03  0.26131994142E+03  0.12700000000E+01 0. -1.
         25    2    1    2    0    0 -0.18583324314E+02 -0.24532550836E+02 -0.21016703736E+03  0.24646082594E+03  0.12500227653E+03 0.  0.
    9000005    1    3    3    0    0  0.38102431551E+02 -0.32073127529E+02 -0.16847158529E+03  0.17568197361E+03  0.10000000000E+01 0.  0.
    9000005    1    3    3    0    0 -0.56685755865E+02  0.75405766929E+01 -0.41695452074E+02  0.70778852340E+02  0.10000000000E+01 0.  0.
         21    1    1    2  502  501  0.18583324314E+02  0.24532550836E+02 -0.25849174405E+02  0.40191613684E+02  0.00000000000E+00 0. -1.
<mgrwt>
<rscale>  1 0.12873521E+03</rscale>
<asrwt>0</asrwt>
<pdfrwt beam="1">  1        4 0.38950947E-02 0.12873521E+03</pdfrwt>
<pdfrwt beam="2">  1       -4 0.40205279E-01 0.12873521E+03</pdfrwt>
<totfact> 0.34754240E+03</totfact>
</mgrwt>
</event>
<event>
 6    4  0.2398389E-003  0.1268682E+03  0.7818608E-02  0.1232178E+00
          4   -1    0    0  502    0  0.00000000000E+00  0.00000000000E+00  0.24104161204E+03  0.24104495770E+03  0.12700000000E+01 0.  1.
         -4   -1    0    0    0  501 -0.00000000000E+00 -0.00000000000E+00 -0.22888505777E+02  0.22923712542E+02  0.12700000000E+01 0.  1.
         25    2    1    2    0    0  0.12963791845E+02  0.17372271563E+02  0.18321372499E+03  0.22285156818E+03  0.12500278677E+03 0.  0.
    9000005    1    3    3    0    0 -0.36154320322E+02 -0.50066812804E+01  0.52607129510E+01  0.36890064192E+02  0.10000000000E+01 0.  0.
    9000005    1    3    3    0    0  0.49118112166E+02  0.22378952843E+02  0.17795301204E+03  0.18596150399E+03  0.10000000000E+01 0.  0.
         21    1    1    2  502  501 -0.12963791845E+02 -0.17372271563E+02  0.34939381273E+02  0.41117102062E+02  0.00000000000E+00 0.  1.
<mgrwt>
<rscale>  1 0.12686825E+03</rscale>
<asrwt>0</asrwt>
<pdfrwt beam="1">  1        4 0.37086291E-01 0.12686825E+03</pdfrwt>
<pdfrwt beam="2">  1       -4 0.35242741E-02 0.12686825E+03</pdfrwt>
<totfact> 0.47495597E+03</totfact>
</mgrwt>
</event>
<event>
 6    4  0.2398389E-003  0.1411856E+03  0.7818608E-02  0.1211742E+00
          4   -1    0    0  502    0  0.00000000000E+00  0.00000000000E+00  0.18854560267E+03  0.18854987984E+03  0.12700000000E+01 0.  1.
         -4   -1    0    0    0  501 -0.00000000000E+00 -0.00000000000E+00 -0.11868487876E+03  0.11869167345E+03  0.12700000000E+01 0.  1.
         25    2    1    2    0    0  0.19931079090E+02  0.62532948859E+02 -0.66383181987E+02  0.15601318458E+03  0.12500307718E+03 0.  0.
    9000005    1    3    3    0    0  0.45700553514E+02  0.10722443002E+01  0.17425524089E+02  0.48931985338E+02  0.10000000000E+01 0.  0.
    9000005    1    3    3    0    0 -0.25769474424E+02  0.61460704558E+02 -0.83808706076E+02  0.10708119924E+03  0.10000000000E+01 0.  0.
         21    1    1    2  502  501 -0.19931079090E+02 -0.62532948859E+02  0.13624390590E+03  0.15122836871E+03  0.00000000000E+00 0.  1.
<mgrwt>
<rscale>  1 0.14118565E+03</rscale>
<asrwt>0</asrwt>
<pdfrwt beam="1">  1        4 0.29007867E-01 0.14118565E+03</pdfrwt>
<pdfrwt beam="2">  1       -4 0.18260064E-01 0.14118565E+03</pdfrwt>
<totfact> 0.50356692E+02</totfact>
</mgrwt>
</event>
<event>
 6    4  0.2398389E-003  0.1291490E+03  0.7818608E-02  0.1228724E+00
         -4   -1    0    0    0  501 -0.00000000000E+00  0.00000000000E+00  0.12904524270E+03  0.12905149191E+03  0.12700000000E+01 0. -1.
          4   -1    0    0  502    0  0.00000000000E+00 -0.00000000000E+00 -0.50689711131E+02  0.50705618175E+02  0.12700000000E+01 0. -1.
         25    2    1    2    0    0  0.70301565239E+01 -0.31713553859E+02  0.65651643477E+02  0.14487787024E+03  0.12499714555E+03 0.  0.
    9000005    1    3    3    0    0 -0.24934250497E+02  0.36977945237E+02 -0.16653553164E-01  0.44610375017E+02  0.10000000000E+01 0.  0.
    9000005    1    3    3    0    0  0.31964407021E+02 -0.68691499097E+02  0.65668297031E+02  0.10026749523E+03  0.10000000000E+01 0.  0.
         21    1    1    2  502  501 -0.70301565239E+01  0.31713553859E+02  0.12703888095E+02  0.34879239841E+02  0.00000000000E+00 0. -1.
<mgrwt>
<rscale>  1 0.12914898E+03</rscale>
<asrwt>0</asrwt>
<pdfrwt beam="2">  1        4 0.78001213E-02 0.12914898E+03</pdfrwt>
<pdfrwt beam="1">  1       -4 0.19854819E-01 0.12914898E+03</pdfrwt>
<totfact> 0.42530608E+03</totfact>
</mgrwt>
</event>
<event>
 6    4  0.2398389E-003  0.1268739E+03  0.7818608E-02  0.1232169E+00
          4   -1    0    0  502    0  0.00000000000E+00  0.00000000000E+00  0.90086500386E+03  0.90086589905E+03  0.12700000000E+01 0. -1.
         -4   -1    0    0    0  501 -0.00000000000E+00 -0.00000000000E+00 -0.65868853405E+01  0.67082008385E+01  0.12700000000E+01 0. -1.
         25    2    1    2    0    0  0.98498380311E+01 -0.19360340404E+02  0.64556641466E+03  0.65791562572E+03  0.12500053096E+03 0.  0.
    9000005    1    3    3    0    0 -0.16173411540E+02 -0.26429734616E+02  0.61989712182E+03  0.62067185513E+03  0.10000000000E+01 0.  0.
    9000005    1    3    3    0    0  0.26023249571E+02  0.70693942117E+01  0.25669292844E+02  0.37243770591E+02  0.10000000000E+01 0.  0.
         21    1    1    2  502  501 -0.98498380311E+01  0.19360340404E+02  0.24871170385E+03  0.24965847417E+03  0.00000000000E+00 0. -1.
<mgrwt>
<rscale>  1 0.12687385E+03</rscale>
<asrwt>0</asrwt>
<pdfrwt beam="1">  1        4 0.13860410E+00 0.12687385E+03</pdfrwt>
<pdfrwt beam="2">  1       -4 0.10227672E-02 0.12687385E+03</pdfrwt>
<totfact> 0.17982539E+03</totfact>
</mgrwt>
</event>
<event>
 6    4  0.2398389E-003  0.1300725E+03  0.7818608E-02  0.1227348E+00
          4   -1    0    0  502    0  0.00000000000E+00  0.00000000000E+00  0.63433766888E+02  0.63446478874E+02  0.12700000000E+01 0. -1.
         -4   -1    0    0    0  501 -0.00000000000E+00 -0.00000000000E+00 -0.20135221024E+03  0.20135621537E+03  0.12700000000E+01 0. -1.
         25    2    1    2    0    0  0.31338861236E+02 -0.17671422929E+02 -0.17173032395E+03  0.21543016461E+03  0.12499779298E+03 0.  0.
    9000005    1    3    3    0    0  0.57630829371E+02  0.29757472538E+02 -0.13543541101E+03  0.15016847280E+03  0.10000000000E+01 0.  0.
    9000005    1    3    3    0    0 -0.26291968135E+02 -0.47428895467E+02 -0.36294912942E+02  0.65261691819E+02  0.10000000000E+01 0.  0.
         21    1    1    2  502  501 -0.31338861236E+02  0.17671422929E+02  0.33811880604E+02  0.49372529628E+02  0.00000000000E+00 0. -1.
<mgrwt>
<rscale>  1 0.13007249E+03</rscale>
<asrwt>0</asrwt>
<pdfrwt beam="1">  1        4 0.97603271E-02 0.13007249E+03</pdfrwt>
<pdfrwt beam="2">  1       -4 0.30978549E-01 0.13007249E+03</pdfrwt>
<totfact> 0.12913459E+03</totfact>
</mgrwt>
</event>
<event>
 6    4  0.2398389E-003  0.1266543E+03  0.7818608E-02  0.1232506E+00
          4   -1    0    0  502    0  0.00000000000E+00  0.00000000000E+00  0.71964577015E+03  0.71964689077E+03  0.12700000000E+01 0.  1.
         -4   -1    0    0    0  501 -0.00000000000E+00 -0.00000000000E+00 -0.77387699846E+01  0.78422867121E+01  0.12700000000E+01 0.  1.
         25    2    1    2    0    0 -0.11869477996E+01 -0.20364126603E+02  0.55538716040E+03  0.56964568938E+03  0.12500082796E+03 0.  0.
    9000005    1    3    3    0    0 -0.55113146145E+02 -0.24012779708E+02  0.41278426222E+03  0.41714016781E+03  0.10000000000E+01 0.  0.
    9000005    1    3    3    0    0  0.53926198346E+02  0.36486531051E+01  0.14260289818E+03  0.15250552157E+03  0.10000000000E+01 0.  0.
         21    1    1    2  502  501  0.11869477996E+01  0.20364126603E+02  0.15651983977E+03  0.15784348811E+03  0.00000000000E+00 0. -1.
<mgrwt>
<rscale>  1 0.12665431E+03</rscale>
<asrwt>0</asrwt>
<pdfrwt beam="1">  1        4 0.11072276E+00 0.12665431E+03</pdfrwt>
<pdfrwt beam="2">  1       -4 0.11986293E-02 0.12665431E+03</pdfrwt>
<totfact> 0.24346783E+03</totfact>
</mgrwt>
</event>
<event>
 6    4  0.2398389E-003  0.1329354E+03  0.7818608E-02  0.1223164E+00
         -4   -1    0    0    0  501 -0.00000000000E+00  0.00000000000E+00  0.89971950406E+02  0.89980913308E+02  0.12700000000E+01 0. -1.
          4   -1    0    0  502    0  0.00000000000E+00 -0.00000000000E+00 -0.12202682600E+03  0.12203343461E+03  0.12700000000E+01 0. -1.
         25    2    1    2    0    0  0.26879424969E+02 -0.36393615466E+02  0.28961757268E+02  0.13605364611E+03  0.12499925001E+03 0.  0.
    9000005    1    3    3    0    0 -0.50327146962E+02 -0.98940557862E+01  0.11470115571E+02  0.52566887033E+02  0.10000000000E+01 0.  0.
    9000005    1    3    3    0    0  0.77206571931E+02 -0.26499559680E+02  0.17491641697E+02  0.83486759081E+02  0.10000000000E+01 0.  0.
         21    1    1    2  502  501 -0.26879424969E+02  0.36393615466E+02 -0.61016632859E+02  0.75960701806E+02  0.00000000000E+00 0.  1.
<mgrwt>
<rscale>  1 0.13293536E+03</rscale>
<asrwt>0</asrwt>
<pdfrwt beam="2">  1        4 0.18774556E-01 0.13293536E+03</pdfrwt>
<pdfrwt beam="1">  1       -4 0.13843036E-01 0.13293536E+03</pdfrwt>
<totfact> 0.17955913E+03</totfact>
</mgrwt>
</event>
<event>
 6    4  0.2398389E-003  0.1704940E+03  0.7818608E-02  0.1177334E+00
         -4   -1    0    0    0  501 -0.00000000000E+00  0.00000000000E+00  0.43234465180E+02  0.43253114100E+02  0.12700000000E+01 0. -1.
          4   -1    0    0  502    0  0.00000000000E+00 -0.00000000000E+00 -0.48574193286E+03  0.48574359310E+03  0.12700000000E+01 0. -1.
         25    2    1    2    0    0  0.62472139430E+02 -0.97681489012E+02 -0.22257372373E+03  0.28036989202E+03  0.12499508932E+03 0.  0.
    9000005    1    3    3    0    0  0.16735892944E+02 -0.76327985183E+02 -0.21569836618E+03  0.22941847486E+03  0.10000000000E+01 0.  0.
    9000005    1    3    3    0    0  0.45736246486E+02 -0.21353503829E+02 -0.68753575446E+01  0.50951417152E+02  0.10000000000E+01 0.  0.
         21    1    1    2  502  501 -0.62472139430E+02  0.97681489012E+02 -0.21993374395E+03  0.24862681519E+03  0.00000000000E+00 0. -1.
<mgrwt>
<rscale>  1 0.17049403E+03</rscale>
<asrwt>0</asrwt>
<pdfrwt beam="2">  1        4 0.74731086E-01 0.17049403E+03</pdfrwt>
<pdfrwt beam="1">  1       -4 0.66530188E-02 0.17049403E+03</pdfrwt>
<totfact> 0.42921648E+02</totfact>
</mgrwt>
</event>
<event>
 6    4  0.2398389E-003  0.1273013E+03  0.7818608E-02  0.1231516E+00
         -4   -1    0    0    0  501 -0.00000000000E+00  0.00000000000E+00  0.13418902742E+04  0.13418908752E+04  0.12700000000E+01 0. -1.
          4   -1    0    0  502    0  0.00000000000E+00 -0.00000000000E+00 -0.61142728445E+01  0.62447764105E+01  0.12700000000E+01 0. -1.
         25    2    1    2    0    0  0.39342164427E+01 -0.23687219364E+02  0.12915769356E+04  0.12978353551E+04  0.12501626208E+03 0.  0.
    9000005    1    3    3    0    0 -0.36914556651E+02 -0.61425246386E+02  0.73462559106E+03  0.73811347665E+03  0.10000000000E+01 0.  0.
    9000005    1    3    3    0    0  0.40848773094E+02  0.37738027022E+02  0.55695134457E+03  0.55972187841E+03  0.10000000000E+01 0.  0.
         21    1    1    2  502  501 -0.39342164427E+01  0.23687219364E+02  0.44199065773E+02  0.50300296574E+02  0.00000000000E+00 0. -1.
<mgrwt>
<rscale>  1 0.12730133E+03</rscale>
<asrwt>0</asrwt>
<pdfrwt beam="2">  1        4 0.95074222E-03 0.12730133E+03</pdfrwt>
<pdfrwt beam="1">  1       -4 0.20645477E+00 0.12730133E+03</pdfrwt>
<totfact> 0.69467593E+02</totfact>
</mgrwt>
</event>
<event>
 6    4  0.2398389E-003  0.1316367E+03  0.7818608E-02  0.1225047E+00
         -4   -1    0    0    0  501 -0.00000000000E+00  0.00000000000E+00  0.67753403444E+01  0.68933400309E+01  0.12700000000E+01 0.  1.
          4   -1    0    0  502    0  0.00000000000E+00 -0.00000000000E+00 -0.11008050556E+04  0.11008057882E+04  0.12700000000E+01 0.  1.
         25    2    1    2    0    0 -0.41070830807E+02  0.41746417187E+01 -0.79290234139E+03  0.80375515960E+03  0.12499597123E+03 0.  0.
    9000005    1    3    3    0    0  0.17022805739E+02  0.47069246658E+02 -0.18780213918E+03  0.19436031842E+03  0.10000000000E+01 0.  0.
    9000005    1    3    3    0    0 -0.58093636546E+02 -0.42894604939E+02 -0.60510020221E+03  0.60939484118E+03  0.10000000000E+01 0.  0.
         21    1    1    2  502  501  0.41070830807E+02 -0.41746417187E+01 -0.30112737391E+03  0.30394396868E+03  0.00000000000E+00 0.  1.
<mgrwt>
<rscale>  1 0.13163675E+03</rscale>
<asrwt>0</asrwt>
<pdfrwt beam="2">  1        4 0.16936362E+00 0.13163675E+03</pdfrwt>
<pdfrwt beam="1">  1       -4 0.10514942E-02 0.13163675E+03</pdfrwt>
<totfact> 0.10396485E+03</totfact>
</mgrwt>
</event>
<event>
 6    4  0.2398389E-003  0.1443757E+03  0.7818608E-02  0.1207559E+00
          4   -1    0    0  502    0  0.00000000000E+00  0.00000000000E+00  0.12954452388E+03  0.12955074900E+03  0.12700000000E+01 0. -1.
         -4   -1    0    0    0  501 -0.00000000000E+00 -0.00000000000E+00 -0.10832463932E+03  0.10833208382E+03  0.12700000000E+01 0. -1.
         25    2    1    2    0    0 -0.16209552494E+02  0.70401840217E+02 -0.32336346488E+02  0.14795264555E+03  0.12500070929E+03 0.  0.
    9000005    1    3    3    0    0 -0.16090899792E+02 -0.37988852926E+01  0.40632949049E+02  0.43879210727E+02  0.10000000000E+01 0.  0.
    9000005    1    3    3    0    0 -0.11865270180E+00  0.74200725509E+02 -0.72969295537E+02  0.10407343482E+03  0.10000000000E+01 0.  0.
         21    1    1    2  502  501  0.16209552494E+02 -0.70401840217E+02  0.53556231048E+02  0.89930187268E+02  0.00000000000E+00 0. -1.
<mgrwt>
<rscale>  1 0.14437571E+03</rscale>
<asrwt>0</asrwt>
<pdfrwt beam="1">  1        4 0.19930978E-01 0.14437571E+03</pdfrwt>
<pdfrwt beam="2">  1       -4 0.16666381E-01 0.14437571E+03</pdfrwt>
<totfact> 0.11865822E+03</totfact>
</mgrwt>
</event>
<event>
 6    4  0.2398389E-003  0.1559381E+03  0.7818608E-02  0.1193360E+00
         -4   -1    0    0    0  501 -0.00000000000E+00  0.00000000000E+00  0.73426636735E+03  0.73426746566E+03  0.12700000000E+01 0. -1.
          4   -1    0    0  502    0  0.00000000000E+00 -0.00000000000E+00 -0.22004932669E+02  0.22041550802E+02  0.12700000000E+01 0. -1.
         25    2    1    2    0    0  0.86881427749E+02  0.33787377109E+02  0.36858887061E+03  0.40021801596E+03  0.12500694150E+03 0.  0.
    9000005    1    3    3    0    0  0.42716428223E+02 -0.37942770214E+02  0.72129614769E+02  0.92021890756E+02  0.10000000000E+01 0.  0.
    9000005    1    3    3    0    0  0.44164999526E+02  0.71730147324E+02  0.29645925584E+03  0.30819612521E+03  0.10000000000E+01 0.  0.
         21    1    1    2  502  501 -0.86881427749E+02 -0.33787377109E+02  0.34367256407E+03  0.35609100050E+03  0.00000000000E+00 0. -1.
<mgrwt>
<rscale>  1 0.15593814E+03</rscale>
<asrwt>0</asrwt>
<pdfrwt beam="2">  1        4 0.33882759E-02 0.15593814E+03</pdfrwt>
<pdfrwt beam="1">  1       -4 0.11296695E+00 0.15593814E+03</pdfrwt>
<totfact> 0.48747534E+02</totfact>
</mgrwt>
</event>
<event>
 6    4  0.2398389E-003  0.1266133E+03  0.7818608E-02  0.1232569E+00
          4   -1    0    0  502    0  0.00000000000E+00  0.00000000000E+00  0.69160996371E+02  0.69172655862E+02  0.12700000000E+01 0.  1.
         -4   -1    0    0    0  501 -0.00000000000E+00 -0.00000000000E+00 -0.83897554053E+02  0.83907165821E+02  0.12700000000E+01 0.  1.
         25    2    1    2    0    0  0.26322732701E+01  0.19995193363E+02 -0.27022075315E+02  0.12946477217E+03  0.12499679219E+03 0.  0.
    9000005    1    3    3    0    0 -0.43904737966E+02 -0.31162492693E+02  0.32889781262E+01  0.53949461015E+02  0.10000000000E+01 0.  0.
    9000005    1    3    3    0    0  0.46537011236E+02  0.51157686056E+02 -0.30311053442E+02  0.75515311150E+02  0.10000000000E+01 0.  0.
         21    1    1    2  502  501 -0.26322732701E+01 -0.19995193363E+02  0.12285517634E+02  0.23615049518E+02  0.00000000000E+00 0.  1.
<mgrwt>
<rscale>  1 0.12661333E+03</rscale>
<asrwt>0</asrwt>
<pdfrwt beam="1">  1        4 0.10641790E-01 0.12661333E+03</pdfrwt>
<pdfrwt beam="2">  1       -4 0.12908952E-01 0.12661333E+03</pdfrwt>
<totfact> 0.53629260E+03</totfact>
</mgrwt>
</event>
<event>
 6    4  0.2398389E-003  0.1272130E+03  0.7818608E-02  0.1231651E+00
          4   -1    0    0  502    0  0.00000000000E+00  0.00000000000E+00  0.67270806444E+03  0.67270926325E+03  0.12700000000E+01 0. -1.
         -4   -1    0    0    0  501 -0.00000000000E+00 -0.00000000000E+00 -0.20173244836E+02  0.20213181521E+02  0.12700000000E+01 0. -1.
         25    2    1    2    0    0 -0.18689148957E+02 -0.14504421372E+02  0.18345390535E+03  0.22324535714E+03  0.12499396613E+03 0.  0.
    9000005    1    3    3    0    0 -0.61353155208E+02  0.94343926680E+01  0.45785536002E+02  0.77139696175E+02  0.10000000000E+01 0.  0.
    9000005    1    3    3    0    0  0.42664006252E+02 -0.23938814040E+02  0.13766836935E+03  0.14610566097E+03  0.10000000000E+01 0.  0.
         21    1    1    2  502  501  0.18689148957E+02  0.14504421372E+02  0.46908091425E+03  0.46967708763E+03  0.00000000000E+00 0. -1.
<mgrwt>
<rscale>  1 0.12721303E+03</rscale>
<asrwt>0</asrwt>
<pdfrwt beam="1">  1        4 0.10349670E+00 0.12721303E+03</pdfrwt>
<pdfrwt beam="2">  1       -4 0.31067409E-02 0.12721303E+03</pdfrwt>
<totfact> 0.66020636E+02</totfact>
</mgrwt>
</event>
<event>
 6    4  0.2398389E-003  0.1297894E+03  0.7818608E-02  0.1227769E+00
          4   -1    0    0  502    0  0.00000000000E+00  0.00000000000E+00  0.26521947860E+03  0.26522251927E+03  0.12700000000E+01 0. -1.
         -4   -1    0    0    0  501 -0.00000000000E+00 -0.00000000000E+00 -0.25634992187E+02  0.25666431860E+02  0.12700000000E+01 0. -1.
         25    2    1    2    0    0  0.33718985387E+02 -0.94379620369E+01  0.18318125499E+03  0.22450092798E+03  0.12497699541E+03 0.  0.
    9000005    1    3    3    0    0  0.57501039477E+02  0.25050854671E+02  0.37883295633E+02  0.73280686055E+02  0.10000000000E+01 0.  0.
    9000005    1    3    3    0    0 -0.23782054090E+02 -0.34488816708E+02  0.14529795936E+03  0.15122024193E+03  0.10000000000E+01 0.  0.
         21    1    1    2  502  501 -0.33718985387E+02  0.94379620369E+01  0.56403231421E+02  0.66388023150E+02  0.00000000000E+00 0.  1.
<mgrwt>
<rscale>  1 0.12978942E+03</rscale>
<asrwt>0</asrwt>
<pdfrwt beam="1">  1        4 0.40805650E-01 0.12978942E+03</pdfrwt>
<pdfrwt beam="2">  1       -4 0.39464972E-02 0.12978942E+03</pdfrwt>
<totfact> 0.33125870E+03</totfact>
</mgrwt>
</event>
<event>
 6    4  0.2398389E-003  0.1336345E+03  0.7818608E-02  0.1222160E+00
          4   -1    0    0  502    0  0.00000000000E+00  0.00000000000E+00  0.65307498367E+02  0.65319845705E+02  0.12700000000E+01 0. -1.
         -4   -1    0    0    0  501 -0.00000000000E+00 -0.00000000000E+00 -0.13231045948E+03  0.13231655448E+03  0.12700000000E+01 0. -1.
         25    2    1    2    0    0  0.15032625993E+02  0.44826759011E+02 -0.68834200183E+02  0.15032074100E+03  0.12499103924E+03 0.  0.
    9000005    1    3    3    0    0 -0.15887016357E+02  0.78352110449E+02 -0.67577008534E+02  0.10468573247E+03  0.10000000000E+01 0.  0.
    9000005    1    3    3    0    0  0.30919642351E+02 -0.33525351439E+02 -0.12571916493E+01  0.45635008524E+02  0.10000000000E+01 0.  0.
         21    1    1    2  502  501 -0.15032625993E+02 -0.44826759011E+02  0.18312390677E+01  0.47315659186E+02  0.00000000000E+00 0. -1.
<mgrwt>
<rscale>  1 0.13363449E+03</rscale>
<asrwt>0</asrwt>
<pdfrwt beam="1">  1        4 0.10048726E-01 0.13363449E+03</pdfrwt>
<pdfrwt beam="2">  1       -4 0.20356874E-01 0.13363449E+03</pdfrwt>
<totfact> 0.26868975E+03</totfact>
</mgrwt>
</event>
<event>
 6    4  0.2398389E-003  0.1309253E+03  0.7818608E-02  0.1226089E+00
          4   -1    0    0  502    0  0.00000000000E+00  0.00000000000E+00  0.56494192992E+03  0.56494335741E+03  0.12700000000E+01 0.  1.
         -4   -1    0    0    0  501 -0.00000000000E+00 -0.00000000000E+00 -0.14071625626E+02  0.14128819758E+02  0.12700000000E+01 0.  1.
         25    2    1    2    0    0 -0.19974424748E+02 -0.33432836382E+02  0.33421625004E+03  0.35894559673E+03  0.12499882970E+03 0.  0.
    9000005    1    3    3    0    0 -0.69241618416E+02 -0.10485081135E+01  0.21613607577E+03  0.22696101942E+03  0.10000000000E+01 0.  0.
    9000005    1    3    3    0    0  0.49267193668E+02 -0.32384328268E+02  0.11808017427E+03  0.13198457730E+03  0.10000000000E+01 0.  0.
         21    1    1    2  502  501  0.19974424748E+02  0.33432836382E+02  0.21665405425E+03  0.22012658044E+03  0.00000000000E+00 0.  1.
<mgrwt>
<rscale>  1 0.13092532E+03</rscale>
<asrwt>0</asrwt>
<pdfrwt beam="1">  1        4 0.86918649E-01 0.13092532E+03</pdfrwt>
<pdfrwt beam="2">  1       -4 0.21693749E-02 0.13092532E+03</pdfrwt>
<totfact> 0.17299495E+03</totfact>
</mgrwt>
</event>
<event>
 6    4  0.2398389E-003  0.1269046E+03  0.7818608E-02  0.1232122E+00
          4   -1    0    0  502    0  0.00000000000E+00  0.00000000000E+00  0.69999104497E+02  0.70010624411E+02  0.12700000000E+01 0. -1.
         -4   -1    0    0    0  501 -0.00000000000E+00 -0.00000000000E+00 -0.79054217411E+02  0.79064417979E+02  0.12700000000E+01 0. -1.
         25    2    1    2    0    0  0.16245524163E+02 -0.14644427562E+02 -0.86582450685E+01  0.12719962655E+03  0.12500561377E+03 0.  0.
    9000005    1    3    3    0    0 -0.53624577079E+02 -0.25148835457E+01 -0.15667235132E+02  0.55931942241E+02  0.10000000000E+01 0.  0.
    9000005    1    3    3    0    0  0.69870101242E+02 -0.12129544016E+02  0.70089900639E+01  0.71267684313E+02  0.10000000000E+01 0.  0.
         21    1    1    2  502  501 -0.16245524163E+02  0.14644427562E+02 -0.39686784524E+00  0.21875415837E+02  0.00000000000E+00 0. -1.
<mgrwt>
<rscale>  1 0.12690461E+03</rscale>
<asrwt>0</asrwt>
<pdfrwt beam="1">  1        4 0.10770764E-01 0.12690461E+03</pdfrwt>
<pdfrwt beam="2">  1       -4 0.12163858E-01 0.12690461E+03</pdfrwt>
<totfact> 0.58219717E+03</totfact>
</mgrwt>
</event>
<event>
 6    4  0.2398389E-003  0.1391312E+03  0.7818608E-02  0.1214503E+00
          4   -1    0    0  502    0  0.00000000000E+00  0.00000000000E+00  0.75576585111E+02  0.75587254991E+02  0.12700000000E+01 0. -1.
         -4   -1    0    0    0  501 -0.00000000000E+00 -0.00000000000E+00 -0.22244714486E+03  0.22245077019E+03  0.12700000000E+01 0. -1.
         25    2    1    2    0    0 -0.22742948743E+02 -0.56705005808E+02 -0.18081319705E+03  0.22814666643E+03  0.12499915909E+03 0.  0.
    9000005    1    3    3    0    0  0.18965044595E+02 -0.65534906859E+01  0.12811527040E+02  0.23827639030E+02  0.10000000000E+01 0.  0.
    9000005    1    3    3    0    0 -0.41707993338E+02 -0.50151515122E+02 -0.19362472409E+03  0.20431902740E+03  0.10000000000E+01 0.  0.
         21    1    1    2  502  501  0.22742948743E+02  0.56705005808E+02  0.33942637301E+02  0.69891358751E+02  0.00000000000E+00 0.  1.
<mgrwt>
<rscale>  1 0.13913119E+03</rscale>
<asrwt>0</asrwt>
<pdfrwt beam="1">  1        4 0.11628267E-01 0.13913119E+03</pdfrwt>
<pdfrwt beam="2">  1       -4 0.34223737E-01 0.13913119E+03</pdfrwt>
<totfact> 0.80486684E+02</totfact>
</mgrwt>
</event>
<event>
 6    4  0.2398389E-003  0.1287148E+03  0.7818608E-02  0.1229375E+00
          4   -1    0    0  502    0  0.00000000000E+00  0.00000000000E+00  0.20786255073E+04  0.20786258952E+04  0.12700000000E+01 0.  1.
         -4   -1    0    0    0  501 -0.00000000000E+00 -0.00000000000E+00 -0.38029177932E+01  0.40093744826E+01  0.12700000000E+01 0.  1.
         25    2    1    2    0    0 -0.30540136240E+02  0.29345895790E+01  0.11287226081E+04  0.11360379496E+04  0.12500474040E+03 0.  0.
    9000005    1    3    3    0    0  0.35500579390E+02 -0.22719869490E+02  0.18887749097E+03  0.19352568357E+03  0.10000000000E+01 0.  0.
    9000005    1    3    3    0    0 -0.66040715630E+02  0.25654459069E+02  0.93984511716E+03  0.94251226605E+03  0.10000000000E+01 0.  0.
         21    1    1    2  502  501  0.30540136240E+02 -0.29345895790E+01  0.94609998135E+03  0.94659732011E+03  0.00000000000E+00 0.  1.
<mgrwt>
<rscale>  1 0.12871479E+03</rscale>
<asrwt>0</asrwt>
<pdfrwt beam="1">  1        4 0.31980477E+00 0.12871479E+03</pdfrwt>
<pdfrwt beam="2">  1       -4 0.60097479E-03 0.12871479E+03</pdfrwt>
<totfact> 0.30284911E+02</totfact>
</mgrwt>
</event>
<event>
 6    4  0.2398389E-003  0.1652073E+03  0.7818608E-02  0.1182940E+00
          4   -1    0    0  502    0  0.00000000000E+00  0.00000000000E+00  0.48782709376E+03  0.48782874691E+03  0.12700000000E+01 0. -1.
         -4   -1    0    0    0  501 -0.00000000000E+00 -0.00000000000E+00 -0.42734171474E+02  0.42753038624E+02  0.12700000000E+01 0. -1.
         25    2    1    2    0    0  0.20473346309E+02  0.10606057661E+03  0.17998023838E+03  0.24430789747E+03  0.12500183494E+03 0.  0.
    9000005    1    3    3    0    0  0.69132686473E+01  0.52624139977E+02 -0.30295095484E+01  0.53172091550E+02  0.10000000000E+01 0.  0.
    9000005    1    3    3    0    0  0.13560077662E+02  0.53436436629E+02  0.18300974793E+03  0.19113580592E+03  0.10000000000E+01 0.  0.
         21    1    1    2  502  501 -0.20473346309E+02 -0.10606057661E+03  0.26511268390E+03  0.28627388806E+03  0.00000000000E+00 0. -1.
<mgrwt>
<rscale>  1 0.16520733E+03</rscale>
<asrwt>0</asrwt>
<pdfrwt beam="1">  1        4 0.75051899E-01 0.16520733E+03</pdfrwt>
<pdfrwt beam="2">  1       -4 0.65760665E-02 0.16520733E+03</pdfrwt>
<totfact> 0.43104999E+02</totfact>
</mgrwt>
</event>
<event>
 6    4  0.2398389E-003  0.1313264E+03  0.7818608E-02  0.1225501E+00
          4   -1    0    0  502    0  0.00000000000E+00  0.00000000000E+00  0.39989367235E+02  0.40009528764E+02  0.12700000000E+01 0.  1.
         -4   -1    0    0    0  501 -0.00000000000E+00 -0.00000000000E+00 -0.18633269880E+03  0.18633702676E+03  0.12700000000E+01 0.  1.
         25    2    1    2    0    0 -0.16566094759E+02 -0.36847217671E+02 -0.12155809632E+03  0.17894971141E+03  0.12495789486E+03 0.  0.
    9000005    1    3    3    0    0 -0.32115326672E+01 -0.82592172831E+02 -0.87478727499E+02  0.12035492811E+03  0.10000000000E+01 0.  0.
    9000005    1    3    3    0    0 -0.13354562091E+02  0.45744955160E+02 -0.34079368824E+02  0.58594783306E+02  0.10000000000E+01 0.  0.
         21    1    1    2  502  501  0.16566094759E+02  0.36847217671E+02 -0.24785235243E+02  0.47396844111E+02  0.00000000000E+00 0.  1.
<mgrwt>
<rscale>  1 0.13132642E+03</rscale>
<asrwt>0</asrwt>
<pdfrwt beam="1">  1        4 0.61540943E-02 0.13132642E+03</pdfrwt>
<pdfrwt beam="2">  1       -4 0.28668452E-01 0.13132642E+03</pdfrwt>
<totfact> 0.32097160E+03</totfact>
</mgrwt>
</event>
<event>
 6    4  0.2398389E-003  0.1267744E+03  0.7818608E-02  0.1232322E+00
         -4   -1    0    0    0  501 -0.00000000000E+00  0.00000000000E+00  0.38449368245E+02  0.38470336864E+02  0.12700000000E+01 0.  1.
          4   -1    0    0  502    0  0.00000000000E+00 -0.00000000000E+00 -0.14328214261E+03  0.14328777091E+03  0.12700000000E+01 0.  1.
         25    2    1    2    0    0  0.16067543631E+02  0.13747234285E+02 -0.84028959577E+02  0.15209413773E+03  0.12499843309E+03 0.  0.
    9000005    1    3    3    0    0 -0.49835067155E+02 -0.60726481663E+01 -0.62096018936E+02  0.79858165154E+02  0.10000000000E+01 0.  0.
    9000005    1    3    3    0    0  0.65902610786E+02  0.19819882451E+02 -0.21932940641E+02  0.72235972575E+02  0.10000000000E+01 0.  0.
         21    1    1    2  502  501 -0.16067543631E+02 -0.13747234285E+02 -0.20803814790E+02  0.29663970041E+02  0.00000000000E+00 0. -1.
<mgrwt>
<rscale>  1 0.12677445E+03</rscale>
<asrwt>0</asrwt>
<pdfrwt beam="2">  1        4 0.22045452E-01 0.12677445E+03</pdfrwt>
<pdfrwt beam="1">  1       -4 0.59173334E-02 0.12677445E+03</pdfrwt>
<totfact> 0.55071004E+03</totfact>
</mgrwt>
</event>
<event>
 6    4  0.2398389E-003  0.1320689E+03  0.7818608E-02  0.1224418E+00
         -4   -1    0    0    0  501 -0.00000000000E+00  0.00000000000E+00  0.43508026632E+03  0.43508211989E+03  0.12700000000E+01 0. -1.
          4   -1    0    0  502    0  0.00000000000E+00 -0.00000000000E+00 -0.17511105965E+02  0.17557099194E+02  0.12700000000E+01 0. -1.
         25    2    1    2    0    0  0.41148953677E+02  0.11119465636E+02  0.31633260470E+03  0.34279515185E+03  0.12500128171E+03 0.  0.
    9000005    1    3    3    0    0  0.50428092849E+02  0.62230822315E+02  0.18998996788E+03  0.20618645855E+03  0.10000000000E+01 0.  0.
    9000005    1    3    3    0    0 -0.92791391715E+01 -0.51111356680E+02  0.12634263682E+03  0.13660869330E+03  0.10000000000E+01 0.  0.
         21    1    1    2  502  501 -0.41148953677E+02 -0.11119465636E+02  0.10123655566E+03  0.10984406723E+03  0.00000000000E+00 0. -1.
<mgrwt>
<rscale>  1 0.13206892E+03</rscale>
<asrwt>0</asrwt>
<pdfrwt beam="2">  1        4 0.26976967E-02 0.13206892E+03</pdfrwt>
<pdfrwt beam="1">  1       -4 0.66939109E-01 0.13206892E+03</pdfrwt>
<totfact> 0.21904301E+03</totfact>
</mgrwt>
</event>
<event>
 6    4  0.2398389E-003  0.1387015E+03  0.7818608E-02  0.1215087E+00
         -4   -1    0    0    0  501 -0.00000000000E+00  0.00000000000E+00  0.18400692686E+04  0.18400697069E+04  0.12700000000E+01 0.  1.
          4   -1    0    0  502    0  0.00000000000E+00 -0.00000000000E+00 -0.70551163925E+01  0.71685122105E+01  0.12700000000E+01 0.  1.
         25    2    1    2    0    0  0.59532674068E+02  0.83194700906E+01  0.16193550084E+04  0.16252842090E+04  0.12499905555E+03 0.  0.
    9000005    1    3    3    0    0 -0.39307917256E+02  0.21358844011E+01  0.50904850760E+03  0.51056934637E+03  0.10000000000E+01 0.  0.
    9000005    1    3    3    0    0  0.98840591324E+02  0.61835856895E+01  0.11103065008E+04  0.11147148626E+04  0.10000000000E+01 0.  0.
         21    1    1    2  502  501 -0.59532674068E+02 -0.83194700906E+01  0.21365914379E+03  0.22195401008E+03  0.00000000000E+00 0.  1.
<mgrwt>
<rscale>  1 0.13870154E+03</rscale>
<asrwt>0</asrwt>
<pdfrwt beam="2">  1        4 0.10941586E-02 0.13870154E+03</pdfrwt>
<pdfrwt beam="1">  1       -4 0.28309645E+00 0.13870154E+03</pdfrwt>
<totfact> 0.20357790E+02</totfact>
</mgrwt>
</event>
<event>
 6    4  0.2398389E-003  0.1272860E+03  0.7818608E-02  0.1231539E+00
          4   -1    0    0  502    0  0.00000000000E+00  0.00000000000E+00  0.37017726014E+03  0.37017943869E+03  0.12700000000E+01 0.  1.
         -4   -1    0    0    0  501 -0.00000000000E+00 -0.00000000000E+00 -0.19990286746E+02  0.20030588214E+02  0.12700000000E+01 0.  1.
         25    2    1    2    0    0  0.22863116255E+02  0.73981351815E+01  0.19298244996E+03  0.23117947424E+03  0.12499707529E+03 0.  0.
    9000005    1    3    3    0    0  0.12062291878E+02  0.65079576562E+02  0.79779589941E+02  0.10366596906E+03  0.10000000000E+01 0.  0.
    9000005    1    3    3    0    0  0.10800824377E+02 -0.57681441381E+02  0.11320286002E+03  0.12751350518E+03  0.10000000000E+01 0.  0.
         21    1    1    2  502  501 -0.22863116255E+02 -0.73981351815E+01  0.15720452344E+03  0.15903055266E+03  0.00000000000E+00 0.  1.
<mgrwt>
<rscale>  1 0.12728599E+03</rscale>
<asrwt>0</asrwt>
<pdfrwt beam="1">  1        4 0.56953614E-01 0.12728599E+03</pdfrwt>
<pdfrwt beam="2">  1       -4 0.30786965E-02 0.12728599E+03</pdfrwt>
<totfact> 0.24834970E+03</totfact>
</mgrwt>
</event>
<event>
 6    4  0.2398389E-003  0.1331070E+03  0.7818608E-02  0.1222917E+00
         -4   -1    0    0    0  501 -0.00000000000E+00  0.00000000000E+00  0.14238351351E+02  0.14294878426E+02  0.12700000000E+01 0.  1.
          4   -1    0    0  502    0  0.00000000000E+00 -0.00000000000E+00 -0.80291892326E+03  0.80291992766E+03  0.12700000000E+01 0.  1.
         25    2    1    2    0    0  0.45678947130E+02 -0.38712209857E+01 -0.32396965469E+03  0.35024822361E+03  0.12496370841E+03 0.  0.
    9000005    1    3    3    0    0  0.12412801300E+02  0.16407756049E+02 -0.30708508732E+03  0.30777514999E+03  0.10000000000E+01 0.  0.
    9000005    1    3    3    0    0  0.33266145829E+02 -0.20278977035E+02 -0.16884567370E+02  0.42473073625E+02  0.10000000000E+01 0.  0.
         21    1    1    2  502  501 -0.45678947130E+02  0.38712209857E+01 -0.46471091722E+03  0.46696658247E+03  0.00000000000E+00 0.  1.
<mgrwt>
<rscale>  1 0.13310703E+03</rscale>
<asrwt>0</asrwt>
<pdfrwt beam="2">  1        4 0.12353038E+00 0.13310703E+03</pdfrwt>
<pdfrwt beam="1">  1       -4 0.21949417E-02 0.13310703E+03</pdfrwt>
<totfact> 0.75228772E+02</totfact>
</mgrwt>
</event>
<event>
 6    4  0.2398389E-003  0.1500812E+03  0.7818608E-02  0.1200373E+00
         -4   -1    0    0    0  501 -0.00000000000E+00  0.00000000000E+00  0.81480356206E+02  0.81490253083E+02  0.12700000000E+01 0.  1.
          4   -1    0    0  502    0  0.00000000000E+00 -0.00000000000E+00 -0.16786813998E+03  0.16787294398E+03  0.12700000000E+01 0.  1.
         25    2    1    2    0    0  0.20767038131E+02 -0.80426232227E+02 -0.65249162908E+02  0.16365152928E+03  0.12499888428E+03 0.  0.
    9000005    1    3    3    0    0  0.24623139402E+02 -0.75130655143E+02 -0.10044778851E+03  0.12783455148E+03  0.10000000000E+01 0.  0.
    9000005    1    3    3    0    0 -0.38561012705E+01 -0.52955770841E+01  0.35198625604E+02  0.35816977791E+02  0.10000000000E+01 0.  0.
         21    1    1    2  502  501 -0.20767038131E+02  0.80426232227E+02 -0.21138620867E+02  0.85711667789E+02  0.00000000000E+00 0. -1.
<mgrwt>
<rscale>  1 0.15008121E+03</rscale>
<asrwt>0</asrwt>
<pdfrwt beam="2">  1        4 0.25826998E-01 0.15008121E+03</pdfrwt>
<pdfrwt beam="1">  1       -4 0.12536570E-01 0.15008121E+03</pdfrwt>
<totfact> 0.12234091E+03</totfact>
</mgrwt>
</event>
<event>
 6    4  0.2398389E-003  0.1291184E+03  0.7818608E-02  0.1228770E+00
         -4   -1    0    0    0  501 -0.00000000000E+00  0.00000000000E+00  0.69767401282E+02  0.69778959448E+02  0.12700000000E+01 0.  1.
          4   -1    0    0  502    0  0.00000000000E+00 -0.00000000000E+00 -0.96883957003E+02  0.96892280521E+02  0.12700000000E+01 0.  1.
         25    2    1    2    0    0 -0.25466884094E+02  0.20049216053E+02 -0.87437373364E+01  0.12941411038E+03  0.12498410208E+03 0.  0.
    9000005    1    3    3    0    0 -0.28506043070E+02  0.56751759183E+02  0.34760337244E+02  0.72406061260E+02  0.10000000000E+01 0.  0.
    9000005    1    3    3    0    0  0.30391589766E+01 -0.36702543130E+02 -0.43504074580E+02  0.57008049121E+02  0.10000000000E+01 0.  0.
         21    1    1    2  502  501  0.25466884094E+02 -0.20049216053E+02 -0.18372818384E+02  0.37257129588E+02  0.00000000000E+00 0.  1.
<mgrwt>
<rscale>  1 0.12911839E+03</rscale>
<asrwt>0</asrwt>
<pdfrwt beam="2">  1        4 0.14906754E-01 0.12911839E+03</pdfrwt>
<pdfrwt beam="1">  1       -4 0.10734976E-01 0.12911839E+03</pdfrwt>
<totfact> 0.41395240E+03</totfact>
</mgrwt>
</event>
<event>
 6    4  0.2398389E-003  0.1275216E+03  0.7818608E-02  0.1231180E+00
         -4   -1    0    0    0  501 -0.00000000000E+00  0.00000000000E+00  0.76320622893E+01  0.77370068365E+01  0.12700000000E+01 0. -1.
          4   -1    0    0  502    0  0.00000000000E+00 -0.00000000000E+00 -0.75971966196E+03  0.75972072346E+03  0.12700000000E+01 0. -1.
         25    2    1    2    0    0  0.14860377025E+02  0.20374680094E+02 -0.63717241404E+03  0.64980800322E+03  0.12500318974E+03 0.  0.
    9000005    1    3    3    0    0  0.18831004888E+02 -0.30164107442E+02 -0.53057139603E+03  0.53176262223E+03  0.10000000000E+01 0.  0.
    9000005    1    3    3    0    0 -0.39706278626E+01  0.50538787536E+02 -0.10660101801E+03  0.11804538098E+03  0.10000000000E+01 0.  0.
         21    1    1    2  502  501 -0.14860377025E+02 -0.20374680094E+02 -0.11491518563E+03  0.11764972708E+03  0.00000000000E+00 0. -1.
<mgrwt>
<rscale>  1 0.12752159E+03</rscale>
<asrwt>0</asrwt>
<pdfrwt beam="2">  1        4 0.11688804E+00 0.12752159E+03</pdfrwt>
<pdfrwt beam="1">  1       -4 0.11823183E-02 0.12752159E+03</pdfrwt>
<totfact> 0.21901675E+03</totfact>
</mgrwt>
</event>
<event>
 6    4  0.2398389E-003  0.1266832E+03  0.7818608E-02  0.1232462E+00
         -4   -1    0    0    0  501 -0.00000000000E+00  0.00000000000E+00  0.39627709493E+02  0.39648054929E+02  0.12700000000E+01 0. -1.
          4   -1    0    0  502    0  0.00000000000E+00 -0.00000000000E+00 -0.13700073966E+03  0.13700662600E+03  0.12700000000E+01 0. -1.
         25    2    1    2    0    0 -0.12077473841E+02  0.16609408227E+02 -0.86698905315E+02  0.15351003236E+03  0.12500756791E+03 0.  0.
    9000005    1    3    3    0    0 -0.28824359831E+02  0.42139233311E+02  0.10057767286E+02  0.52045339719E+02  0.10000000000E+01 0.  0.
    9000005    1    3    3    0    0  0.16746885990E+02 -0.25529825084E+02 -0.96756672601E+02  0.10146469264E+03  0.10000000000E+01 0.  0.
         21    1    1    2  502  501  0.12077473841E+02 -0.16609408227E+02 -0.10674124849E+02  0.23144648568E+02  0.00000000000E+00 0. -1.
<mgrwt>
<rscale>  1 0.12668319E+03</rscale>
<asrwt>0</asrwt>
<pdfrwt beam="2">  1        4 0.21079054E-01 0.12668319E+03</pdfrwt>
<pdfrwt beam="1">  1       -4 0.60985886E-02 0.12668319E+03</pdfrwt>
<totfact> 0.56865242E+03</totfact>
</mgrwt>
</event>
<event>
 6    4  0.2398389E-003  0.2226828E+03  0.7818608E-02  0.1131899E+00
         -4   -1    0    0    0  501 -0.00000000000E+00  0.00000000000E+00  0.25947818347E+04  0.25947821455E+04  0.12700000000E+01 0.  1.
          4   -1    0    0  502    0  0.00000000000E+00 -0.00000000000E+00 -0.19936446239E+02  0.19976856325E+02  0.12700000000E+01 0.  1.
         25    2    1    2    0    0 -0.16852815825E+03  0.74572321088E+02  0.80136736711E+03  0.83173150248E+03  0.12499945581E+03 0.  0.
    9000005    1    3    3    0    0 -0.96699737058E+02 -0.19615090162E+02  0.27404639399E+03  0.29126966366E+03  0.10000000000E+01 0.  0.
    9000005    1    3    3    0    0 -0.71828421195E+02  0.94187411250E+02  0.52732097312E+03  0.54046183882E+03  0.10000000000E+01 0.  0.
         21    1    1    2  502  501  0.16852815825E+03 -0.74572321088E+02  0.17734780214E+04  0.17830274994E+04  0.00000000000E+00 0.  1.
<mgrwt>
<rscale>  1 0.22268281E+03</rscale>
<asrwt>0</asrwt>
<pdfrwt beam="2">  1        4 0.30702766E-02 0.22268281E+03</pdfrwt>
<pdfrwt beam="1">  1       -4 0.39920051E+00 0.22268281E+03</pdfrwt>
<totfact> 0.83369956E+00</totfact>
</mgrwt>
</event>
<event>
 6    4  0.2398389E-003  0.1280404E+03  0.7818608E-02  0.1230393E+00
         -4   -1    0    0    0  501 -0.00000000000E+00  0.00000000000E+00  0.12093522635E+03  0.12094189461E+03  0.12700000000E+01 0. -1.
          4   -1    0    0  502    0  0.00000000000E+00 -0.00000000000E+00 -0.14855754619E+03  0.14856297462E+03  0.12700000000E+01 0. -1.
         25    2    1    2    0    0  0.21748355298E+02 -0.17221698212E+02  0.84888669367E+02  0.15362432496E+03  0.12499907674E+03 0.  0.
    9000005    1    3    3    0    0  0.14432761163E+02 -0.42328197322E+02  0.10913633278E+03  0.11794795469E+03  0.10000000000E+01 0.  0.
    9000005    1    3    3    0    0  0.73155941353E+01  0.25106499110E+02 -0.24247663409E+02  0.35676370274E+02  0.10000000000E+01 0.  0.
         21    1    1    2  502  501 -0.21748355298E+02  0.17221698212E+02 -0.11251098921E+03  0.11588054427E+03  0.00000000000E+00 0.  1.
<mgrwt>
<rscale>  1 0.12804041E+03</rscale>
<asrwt>0</asrwt>
<pdfrwt beam="2">  1        4 0.22855938E-01 0.12804041E+03</pdfrwt>
<pdfrwt beam="1">  1       -4 0.18606350E-01 0.12804041E+03</pdfrwt>
<totfact> 0.74279878E+02</totfact>
</mgrwt>
</event>
<event>
 6    4  0.2398389E-003  0.1388864E+03  0.7818608E-02  0.1214835E+00
         -4   -1    0    0    0  501 -0.00000000000E+00  0.00000000000E+00  0.54480779990E+02  0.54495580447E+02  0.12700000000E+01 0.  1.
          4   -1    0    0  502    0  0.00000000000E+00 -0.00000000000E+00 -0.18492009476E+03  0.18492445578E+03  0.12700000000E+01 0.  1.
         25    2    1    2    0    0 -0.52928890682E+02  0.29384311502E+02 -0.10322584816E+03  0.17304626131E+03  0.12499811036E+03 0.  0.
    9000005    1    3    3    0    0 -0.86486623215E+02 -0.94895741835E+01 -0.57647356731E+02  0.10437531198E+03  0.10000000000E+01 0.  0.
    9000005    1    3    3    0    0  0.33557732533E+02  0.38873885685E+02 -0.45578491428E+02  0.68670949330E+02  0.10000000000E+01 0.  0.
         21    1    1    2  502  501  0.52928890682E+02 -0.29384311502E+02 -0.27213466607E+02  0.66373774912E+02  0.00000000000E+00 0.  1.
<mgrwt>
<rscale>  1 0.13888640E+03</rscale>
<asrwt>0</asrwt>
<pdfrwt beam="2">  1        4 0.28450719E-01 0.13888640E+03</pdfrwt>
<pdfrwt beam="1">  1       -4 0.83831325E-02 0.13888640E+03</pdfrwt>
<totfact> 0.19835709E+03</totfact>
</mgrwt>
</event>
<event>
 6    4  0.2398389E-003  0.1289505E+03  0.7818608E-02  0.1229021E+00
          4   -1    0    0  502    0  0.00000000000E+00  0.00000000000E+00  0.22710360265E+03  0.22710715365E+03  0.12700000000E+01 0.  1.
         -4   -1    0    0    0  501 -0.00000000000E+00 -0.00000000000E+00 -0.39960168393E+02  0.39980344646E+02  0.12700000000E+01 0.  1.
         25    2    1    2    0    0  0.14421591311E+02 -0.28186360719E+02  0.72040559585E+02  0.14770942248E+03  0.12500311211E+03 0.  0.
    9000005    1    3    3    0    0  0.59019514727E+02 -0.46938780207E+02  0.63461896813E+02  0.98564519747E+02  0.10000000000E+01 0.  0.
    9000005    1    3    3    0    0 -0.44597923416E+02  0.18752419488E+02  0.85786627728E+01  0.49144902733E+02  0.10000000000E+01 0.  0.
         21    1    1    2  502  501 -0.14421591311E+02  0.28186360719E+02  0.11510287468E+03  0.11937807581E+03  0.00000000000E+00 0.  1.
<mgrwt>
<rscale>  1 0.12895050E+03</rscale>
<asrwt>0</asrwt>
<pdfrwt beam="1">  1        4 0.34940840E-01 0.12895050E+03</pdfrwt>
<pdfrwt beam="2">  1       -4 0.61495436E-02 0.12895050E+03</pdfrwt>
<totfact> 0.21961679E+03</totfact>
</mgrwt>
</event>
<event>
 6    4  0.2398389E-003  0.1271732E+03  0.7818608E-02  0.1231712E+00
          4   -1    0    0  502    0  0.00000000000E+00  0.00000000000E+00  0.19856452763E+03  0.19856858899E+03  0.12700000000E+01 0.  1.
         -4   -1    0    0    0  501 -0.00000000000E+00 -0.00000000000E+00 -0.42128239665E+02  0.42147378059E+02  0.12700000000E+01 0.  1.
         25    2    1    2    0    0 -0.23271146585E+02 -0.24950725012E+01  0.58430016626E+02  0.13995386667E+03  0.12500098521E+03 0.  0.
    9000005    1    3    3    0    0  0.27736296669E+02  0.39820738414E+02  0.55324010762E+02  0.73598502210E+02  0.10000000000E+01 0.  0.
    9000005    1    3    3    0    0 -0.51007443254E+02 -0.42315810915E+02  0.31060058639E+01  0.66355364464E+02  0.10000000000E+01 0.  0.
         21    1    1    2  502  501  0.23271146585E+02  0.24950725012E+01  0.98006271342E+02  0.10076210038E+03  0.00000000000E+00 0.  1.
<mgrwt>
<rscale>  1 0.12717318E+03</rscale>
<asrwt>0</asrwt>
<pdfrwt beam="1">  1        4 0.30550173E-01 0.12717318E+03</pdfrwt>
<pdfrwt beam="2">  1       -4 0.64830523E-02 0.12717318E+03</pdfrwt>
<totfact> 0.25956346E+03</totfact>
</mgrwt>
</event>
<event>
 6    4  0.2398389E-003  0.1266617E+03  0.7818608E-02  0.1232495E+00
         -4   -1    0    0    0  501 -0.00000000000E+00  0.00000000000E+00  0.49831877342E+02  0.49848058131E+02  0.12700000000E+01 0. -1.
          4   -1    0    0  502    0  0.00000000000E+00 -0.00000000000E+00 -0.12113342729E+03  0.12114008464E+03  0.12700000000E+01 0. -1.
         25    2    1    2    0    0  0.19311465298E+02  0.67249226224E+01 -0.38588109917E+02  0.13240930875E+03  0.12500010216E+03 0.  0.
    9000005    1    3    3    0    0  0.30918091926E+02 -0.55395199393E+02 -0.18443803700E+02  0.66073674175E+02  0.10000000000E+01 0.  0.
    9000005    1    3    3    0    0 -0.11606626628E+02  0.62120122015E+02 -0.20144306217E+02  0.66335634570E+02  0.10000000000E+01 0.  0.
         21    1    1    2  502  501 -0.19311465298E+02 -0.67249226224E+01 -0.32713440032E+02  0.38578834028E+02  0.00000000000E+00 0. -1.
<mgrwt>
<rscale>  1 0.12666169E+03</rscale>
<asrwt>0</asrwt>
<pdfrwt beam="2">  1        4 0.18637669E-01 0.12666169E+03</pdfrwt>
<pdfrwt beam="1">  1       -4 0.76681995E-02 0.12666169E+03</pdfrwt>
<totfact> 0.48749649E+03</totfact>
</mgrwt>
</event>
<event>
 6    4  0.2398389E-003  0.1270007E+03  0.7818608E-02  0.1231975E+00
         -4   -1    0    0    0  501 -0.00000000000E+00  0.00000000000E+00  0.55290671922E+03  0.55290817778E+03  0.12700000000E+01 0. -1.
          4   -1    0    0  502    0  0.00000000000E+00 -0.00000000000E+00 -0.50383508319E+02  0.50399512007E+02  0.12700000000E+01 0. -1.
         25    2    1    2    0    0  0.22160706181E+02 -0.40010116585E+01  0.54263947048E+03  0.55730313268E+03  0.12498832659E+03 0.  0.
    9000005    1    3    3    0    0 -0.30609769494E+02  0.80353389963E+01  0.36679134477E+02  0.48454964320E+02  0.10000000000E+01 0.  0.
    9000005    1    3    3    0    0  0.52770475675E+02 -0.12036350655E+02  0.50596033600E+03  0.50884816836E+03  0.10000000000E+01 0.  0.
         21    1    1    2  502  501 -0.22160706181E+02  0.40010116585E+01 -0.40116259573E+02  0.46004557110E+02  0.00000000000E+00 0. -1.
<mgrwt>
<rscale>  1 0.12700074E+03</rscale>
<asrwt>0</asrwt>
<pdfrwt beam="2">  1        4 0.77526525E-02 0.12700074E+03</pdfrwt>
<pdfrwt beam="1">  1       -4 0.85063912E-01 0.12700074E+03</pdfrwt>
<totfact> 0.23764420E+02</totfact>
</mgrwt>
</event>
<event>
 6    4  0.2398389E-003  0.2195362E+03  0.7818608E-02  0.1134229E+00
          4   -1    0    0  502    0  0.00000000000E+00  0.00000000000E+00  0.34642706866E+03  0.34642939656E+03  0.12700000000E+01 0.  1.
         -4   -1    0    0    0  501 -0.00000000000E+00 -0.00000000000E+00 -0.51247343269E+03  0.51247500633E+03  0.12700000000E+01 0.  1.
         25    2    1    2    0    0  0.17881041875E+03  0.24454173553E+02  0.29273046755E+03  0.36590607261E+03  0.12499981954E+03 0.  0.
    9000005    1    3    3    0    0  0.15460730850E+03 -0.28886160409E+02  0.18132636108E+03  0.24003766231E+03  0.10000000000E+01 0.  0.
    9000005    1    3    3    0    0  0.24203110247E+02  0.53340333963E+02  0.11140410648E+03  0.12586841031E+03  0.10000000000E+01 0.  0.
         21    1    1    2  502  501 -0.17881041875E+03 -0.24454173553E+02 -0.45877683159E+03  0.49299833028E+03  0.00000000000E+00 0.  1.
<mgrwt>
<rscale>  1 0.21953616E+03</rscale>
<asrwt>0</asrwt>
<pdfrwt beam="1">  1        4 0.53296772E-01 0.21953616E+03</pdfrwt>
<pdfrwt beam="2">  1       -4 0.78842367E-01 0.21953616E+03</pdfrwt>
<totfact> 0.89218672E+00</totfact>
</mgrwt>
</event>
<event>
 6    4  0.2398389E-003  0.1282256E+03  0.7818608E-02  0.1230113E+00
          4   -1    0    0  502    0  0.00000000000E+00  0.00000000000E+00  0.16258029878E+02  0.16307557620E+02  0.12700000000E+01 0. -1.
         -4   -1    0    0    0  501 -0.00000000000E+00 -0.00000000000E+00 -0.75930392691E+03  0.75930498900E+03  0.12700000000E+01 0. -1.
         25    2    1    2    0    0  0.14404465938E+01  0.28555271092E+02 -0.73473153003E+03  0.74583659840E+03  0.12499732758E+03 0.  0.
    9000005    1    3    3    0    0  0.27443510319E+02  0.71710662249E+02 -0.39593050313E+03  0.40330823032E+03  0.10000000000E+01 0.  0.
    9000005    1    3    3    0    0 -0.26003063726E+02 -0.43155391158E+02 -0.33880102690E+03  0.34252836808E+03  0.10000000000E+01 0.  0.
         21    1    1    2  502  501 -0.14404465938E+01 -0.28555271092E+02 -0.83143669987E+01  0.29775948215E+02  0.00000000000E+00 0. -1.
<mgrwt>
<rscale>  1 0.12822562E+03</rscale>
<asrwt>0</asrwt>
<pdfrwt beam="1">  1        4 0.25051275E-02 0.12822562E+03</pdfrwt>
<pdfrwt beam="2">  1       -4 0.11681985E+00 0.12822562E+03</pdfrwt>
<totfact> 0.69573963E+02</totfact>
</mgrwt>
</event>
<event>
 6    4  0.2398389E-003  0.1273860E+03  0.7818608E-02  0.1231387E+00
          4   -1    0    0  502    0  0.00000000000E+00  0.00000000000E+00  0.31013427355E+02  0.31039419716E+02  0.12700000000E+01 0. -1.
         -4   -1    0    0    0  501 -0.00000000000E+00 -0.00000000000E+00 -0.18604216695E+03  0.18604650167E+03  0.12700000000E+01 0. -1.
         25    2    1    2    0    0 -0.21325950557E+02  0.12141972401E+02 -0.12823512420E+03  0.18075244526E+03  0.12499990292E+03 0.  0.
    9000005    1    3    3    0    0  0.45717245929E+02  0.48955192213E+00 -0.94082695720E+02  0.10460812526E+03  0.10000000000E+01 0.  0.
    9000005    1    3    3    0    0 -0.67043196486E+02  0.11652420479E+02 -0.34152428479E+02  0.76144320005E+02  0.10000000000E+01 0.  0.
         21    1    1    2  502  501  0.21325950557E+02 -0.12141972401E+02 -0.26793615395E+02  0.36333476119E+02  0.00000000000E+00 0. -1.
<mgrwt>
<rscale>  1 0.12738603E+03</rscale>
<asrwt>0</asrwt>
<pdfrwt beam="1">  1        4 0.47736295E-02 0.12738603E+03</pdfrwt>
<pdfrwt beam="2">  1       -4 0.28624204E-01 0.12738603E+03</pdfrwt>
<totfact> 0.48136644E+03</totfact>
</mgrwt>
</event>
<event>
 6    4  0.2398389E-003  0.1348874E+03  0.7818608E-02  0.1220379E+00
         -4   -1    0    0    0  501 -0.00000000000E+00  0.00000000000E+00  0.20663164188E+02  0.20702155788E+02  0.12700000000E+01 0. -1.
          4   -1    0    0  502    0  0.00000000000E+00 -0.00000000000E+00 -0.43295215040E+03  0.43295401307E+03  0.12700000000E+01 0. -1.
         25    2    1    2    0    0  0.69153914633E+01  0.50216819620E+02 -0.25615393540E+03  0.28949860521E+03  0.12500020874E+03 0.  0.
    9000005    1    3    3    0    0  0.62860166104E+02  0.89680713066E+01 -0.98465337045E+02  0.11716761236E+03  0.10000000000E+01 0.  0.
    9000005    1    3    3    0    0 -0.55944774641E+02  0.41248748313E+02 -0.15768859836E+03  0.17233099285E+03  0.10000000000E+01 0.  0.
         21    1    1    2  502  501 -0.69153914633E+01 -0.50216819620E+02 -0.15613505081E+03  0.16415756365E+03  0.00000000000E+00 0. -1.
<mgrwt>
<rscale>  1 0.13488737E+03</rscale>
<asrwt>0</asrwt>
<pdfrwt beam="2">  1        4 0.66611159E-01 0.13488737E+03</pdfrwt>
<pdfrwt beam="1">  1       -4 0.31820913E-02 0.13488737E+03</pdfrwt>
<totfact> 0.17176539E+03</totfact>
</mgrwt>
</event>
<event>
 6    4  0.2398389E-003  0.1338988E+03  0.7818608E-02  0.1221783E+00
         -4   -1    0    0    0  501 -0.00000000000E+00  0.00000000000E+00  0.41287744673E+03  0.41287939997E+03  0.12700000000E+01 0.  1.
          4   -1    0    0  502    0  0.00000000000E+00 -0.00000000000E+00 -0.21348258554E+02  0.21386001106E+02  0.12700000000E+01 0.  1.
         25    2    1    2    0    0 -0.46851384139E+02  0.10436427806E+02  0.33069798192E+03  0.35677729311E+03  0.12499964165E+03 0.  0.
    9000005    1    3    3    0    0 -0.46836849382E+02  0.51872481422E+02  0.29138399227E+03  0.29964992198E+03  0.10000000000E+01 0.  0.
    9000005    1    3    3    0    0 -0.14534757198E-01 -0.41436053616E+02  0.39313989646E+02  0.57127371132E+02  0.10000000000E+01 0.  0.
         21    1    1    2  502  501  0.46851384139E+02 -0.10436427806E+02  0.60831206253E+02  0.77488107960E+02  0.00000000000E+00 0.  1.
<mgrwt>
<rscale>  1 0.13389877E+03</rscale>
<asrwt>0</asrwt>
<pdfrwt beam="2">  1        4 0.32874012E-02 0.13389877E+03</pdfrwt>
<pdfrwt beam="1">  1       -4 0.63522657E-01 0.13389877E+03</pdfrwt>
<totfact> 0.18026708E+03</totfact>
</mgrwt>
</event>
<event>
 6    4  0.2398389E-003  0.1271387E+03  0.7818608E-02  0.1231764E+00
         -4   -1    0    0    0  501 -0.00000000000E+00  0.00000000000E+00  0.20690220109E+03  0.20690609879E+03  0.12700000000E+01 0. -1.
          4   -1    0    0  502    0  0.00000000000E+00 -0.00000000000E+00 -0.36184571733E+02  0.36206851996E+02  0.12700000000E+01 0. -1.
         25    2    1    2    0    0 -0.19306185568E+02 -0.12875955032E+02  0.17804367796E+03  0.21877799635E+03  0.12500296559E+03 0.  0.
    9000005    1    3    3    0    0 -0.41973298170E+02 -0.28446361172E+02  0.14235425861E+02  0.52674477431E+02  0.10000000000E+01 0.  0.
    9000005    1    3    3    0    0  0.22667112602E+02  0.15570406140E+02  0.16380825210E+03  0.16610351892E+03  0.10000000000E+01 0.  0.
         21    1    1    2  502  501  0.19306185568E+02  0.12875955032E+02 -0.73260486047E+01  0.24334954434E+02  0.00000000000E+00 0.  1.
<mgrwt>
<rscale>  1 0.12713874E+03</rscale>
<asrwt>0</asrwt>
<pdfrwt beam="2">  1        4 0.55688708E-02 0.12713874E+03</pdfrwt>
<pdfrwt beam="1">  1       -4 0.31833122E-01 0.12713874E+03</pdfrwt>
<totfact> 0.30723564E+03</totfact>
</mgrwt>
</event>
<event>
 6    4  0.2398389E-003  0.1298879E+03  0.7818608E-02  0.1227622E+00
          4   -1    0    0  502    0  0.00000000000E+00  0.00000000000E+00  0.57956124338E+03  0.57956263486E+03  0.12700000000E+01 0.  1.
         -4   -1    0    0    0  501 -0.00000000000E+00 -0.00000000000E+00 -0.18215623338E+02  0.18259842102E+02  0.12700000000E+01 0.  1.
         25    2    1    2    0    0  0.33850403523E+02 -0.10055140386E+02  0.22634092919E+03  0.26096182542E+03  0.12499560965E+03 0.  0.
    9000005    1    3    3    0    0  0.77554622701E+00  0.60866153773E+01 -0.15309090636E+02  0.16523214421E+02  0.10000000000E+01 0.  0.
    9000005    1    3    3    0    0  0.33074857296E+02 -0.16141755763E+02  0.24165001982E+03  0.24443861099E+03  0.10000000000E+01 0.  0.
         21    1    1    2  502  501 -0.33850403523E+02  0.10055140386E+02  0.33500469085E+03  0.33686065155E+03  0.00000000000E+00 0.  1.
<mgrwt>
<rscale>  1 0.12988787E+03</rscale>
<asrwt>0</asrwt>
<pdfrwt beam="1">  1        4 0.89166770E-01 0.12988787E+03</pdfrwt>
<pdfrwt beam="2">  1       -4 0.28059123E-02 0.12988787E+03</pdfrwt>
<totfact> 0.10937302E+03</totfact>
</mgrwt>
</event>
<event>
 6    4  0.2398389E-003  0.1343961E+03  0.7818608E-02  0.1221075E+00
         -4   -1    0    0    0  501 -0.00000000000E+00  0.00000000000E+00  0.46826790732E+03  0.46826962951E+03  0.12700000000E+01 0.  1.
          4   -1    0    0  502    0  0.00000000000E+00 -0.00000000000E+00 -0.19783998808E+02  0.19824719641E+02  0.12700000000E+01 0.  1.
         25    2    1    2    0    0  0.24231465440E+02 -0.43011458887E+02  0.38428794370E+03  0.40711119405E+03  0.12500060453E+03 0.  0.
    9000005    1    3    3    0    0  0.31432119854E+02 -0.59248838218E+02  0.38348001587E+03  0.38930235751E+03  0.10000000000E+01 0.  0.
    9000005    1    3    3    0    0 -0.72006544136E+01  0.16237379331E+02  0.80792782922E+00  0.17808836540E+02  0.10000000000E+01 0.  0.
         21    1    1    2  502  501 -0.24231465440E+02  0.43011458887E+02  0.64195964806E+02  0.80983155102E+02  0.00000000000E+00 0.  1.
<mgrwt>
<rscale>  1 0.13439606E+03</rscale>
<asrwt>0</asrwt>
<pdfrwt beam="2">  1        4 0.30469572E-02 0.13439606E+03</pdfrwt>
<pdfrwt beam="1">  1       -4 0.72044477E-01 0.13439606E+03</pdfrwt>
<totfact> 0.15518034E+03</totfact>
</mgrwt>
</event>
<event>
 6    4  0.2398389E-003  0.1267091E+03  0.7818608E-02  0.1232422E+00
          4   -1    0    0  502    0  0.00000000000E+00  0.00000000000E+00  0.19064951086E+03  0.19065374082E+03  0.12700000000E+01 0. -1.
         -4   -1    0    0    0  501 -0.00000000000E+00 -0.00000000000E+00 -0.40181629871E+02  0.40201694978E+02  0.12700000000E+01 0. -1.
         25    2    1    2    0    0  0.14884568117E+02 -0.14451249411E+02  0.64040842944E+02  0.14197336853E+03  0.12499927532E+03 0.  0.
    9000005    1    3    3    0    0  0.62481547398E+02 -0.38419683772E+02  0.35057342131E+02  0.81302110081E+02  0.10000000000E+01 0.  0.
    9000005    1    3    3    0    0 -0.47596979281E+02  0.23968434361E+02  0.28983500813E+02  0.60671258449E+02  0.10000000000E+01 0.  0.
         21    1    1    2  502  501 -0.14884568117E+02  0.14451249411E+02  0.86427038041E+02  0.88882067270E+02  0.00000000000E+00 0. -1.
<mgrwt>
<rscale>  1 0.12670915E+03</rscale>
<asrwt>0</asrwt>
<pdfrwt beam="1">  1        4 0.29332563E-01 0.12670915E+03</pdfrwt>
<pdfrwt beam="2">  1       -4 0.61836580E-02 0.12670915E+03</pdfrwt>
<totfact> 0.30243419E+03</totfact>
</mgrwt>
</event>
<event>
 6    4  0.2398389E-003  0.1286170E+03  0.7818608E-02  0.1229522E+00
         -4   -1    0    0    0  501 -0.00000000000E+00  0.00000000000E+00  0.41469508639E+02  0.41488950900E+02  0.12700000000E+01 0.  1.
          4   -1    0    0  502    0  0.00000000000E+00 -0.00000000000E+00 -0.24193046328E+03  0.24193379666E+03  0.12700000000E+01 0.  1.
         25    2    1    2    0    0  0.18182356919E+02  0.24222049057E+02 -0.64036408811E+02  0.14367668332E+03  0.12500008765E+03 0.  0.
    9000005    1    3    3    0    0  0.15501456767E+02  0.68683456592E+02 -0.69317895400E+02  0.98811350532E+02  0.10000000000E+01 0.  0.
    9000005    1    3    3    0    0  0.26809001515E+01 -0.44461407535E+02  0.52814865892E+01  0.44865332788E+02  0.10000000000E+01 0.  0.
         21    1    1    2  502  501 -0.18182356919E+02 -0.24222049057E+02 -0.13642454583E+03  0.13974606424E+03  0.00000000000E+00 0.  1.
<mgrwt>
<rscale>  1 0.12861698E+03</rscale>
<asrwt>0</asrwt>
<pdfrwt beam="2">  1        4 0.37221823E-01 0.12861698E+03</pdfrwt>
<pdfrwt beam="1">  1       -4 0.63816765E-02 0.12861698E+03</pdfrwt>
<totfact> 0.18282415E+03</totfact>
</mgrwt>
</event>
<event>
 6    4  0.2398389E-003  0.1272336E+03  0.7818608E-02  0.1231619E+00
         -4   -1    0    0    0  501 -0.00000000000E+00  0.00000000000E+00  0.73470054369E+02  0.73481030130E+02  0.12700000000E+01 0.  1.
          4   -1    0    0  502    0  0.00000000000E+00 -0.00000000000E+00 -0.11359075946E+03  0.11359785885E+03  0.12700000000E+01 0.  1.
         25    2    1    2    0    0 -0.73867835696E+01 -0.22556310423E+02  0.13981257598E+02  0.12799950105E+03  0.12500017997E+03 0.  0.
    9000005    1    3    3    0    0 -0.60369458310E+02  0.13319950142E+02  0.16372498634E+02  0.63960544713E+02  0.10000000000E+01 0.  0.
    9000005    1    3    3    0    0  0.52982674740E+02 -0.35876260566E+02 -0.23912410364E+01  0.64038956335E+02  0.10000000000E+01 0.  0.
         21    1    1    2  502  501  0.73867835696E+01  0.22556310423E+02 -0.54101962691E+02  0.59079387932E+02  0.00000000000E+00 0.  1.
<mgrwt>
<rscale>  1 0.12723363E+03</rscale>
<asrwt>0</asrwt>
<pdfrwt beam="2">  1        4 0.17476892E-01 0.12723363E+03</pdfrwt>
<pdfrwt beam="1">  1       -4 0.11304476E-01 0.12723363E+03</pdfrwt>
<totfact> 0.28574092E+03</totfact>
</mgrwt>
</event>
<event>
 6    4  0.2398389E-003  0.1315813E+03  0.7818608E-02  0.1225128E+00
         -4   -1    0    0    0  501 -0.00000000000E+00  0.00000000000E+00  0.28794705189E+03  0.28794985257E+03  0.12700000000E+01 0. -1.
          4   -1    0    0  502    0  0.00000000000E+00 -0.00000000000E+00 -0.27814010618E+02  0.27842989902E+02  0.12700000000E+01 0. -1.
         25    2    1    2    0    0 -0.32774691083E+02  0.24774124685E+02  0.22950198875E+03  0.26454638885E+03  0.12500276551E+03 0.  0.
    9000005    1    3    3    0    0 -0.24531787537E+02  0.71973123346E+02  0.94545087300E+02  0.12133306481E+03  0.10000000000E+01 0.  0.
    9000005    1    3    3    0    0 -0.82429035467E+01 -0.47198998661E+02  0.13495690145E+03  0.14321332404E+03  0.10000000000E+01 0.  0.
         21    1    1    2  502  501  0.32774691083E+02 -0.24774124685E+02  0.30631052519E+02  0.51246453613E+02  0.00000000000E+00 0. -1.
<mgrwt>
<rscale>  1 0.13158126E+03</rscale>
<asrwt>0</asrwt>
<pdfrwt beam="2">  1        4 0.42815233E-02 0.13158126E+03</pdfrwt>
<pdfrwt beam="1">  1       -4 0.44301990E-01 0.13158126E+03</pdfrwt>
<totfact> 0.24803122E+03</totfact>
</mgrwt>
</event>
<event>
 6    4  0.2398389E-003  0.1434402E+03  0.7818608E-02  0.1208773E+00
         -4   -1    0    0    0  501 -0.00000000000E+00  0.00000000000E+00  0.11794304512E+03  0.11794988255E+03  0.12700000000E+01 0. -1.
          4   -1    0    0  502    0  0.00000000000E+00 -0.00000000000E+00 -0.10817353399E+03  0.10818098888E+03  0.12700000000E+01 0. -1.
         25    2    1    2    0    0 -0.67083291041E+02  0.21254509029E+02  0.40937248668E+02  0.14916756879E+03  0.12499273242E+03 0.  0.
    9000005    1    3    3    0    0  0.16556582546E+01  0.50947033395E+02  0.52744992134E+02  0.73357859915E+02  0.10000000000E+01 0.  0.
    9000005    1    3    3    0    0 -0.68738949296E+02 -0.29692524366E+02 -0.11807743466E+02  0.75809708872E+02  0.10000000000E+01 0.  0.
         21    1    1    2  502  501  0.67083291041E+02 -0.21254509029E+02 -0.31167737533E+02  0.76963302644E+02  0.00000000000E+00 0. -1.
<mgrwt>
<rscale>  1 0.14344025E+03</rscale>
<asrwt>0</asrwt>
<pdfrwt beam="2">  1        4 0.16643182E-01 0.14344025E+03</pdfrwt>
<pdfrwt beam="1">  1       -4 0.18146183E-01 0.14344025E+03</pdfrwt>
<totfact> 0.14052600E+03</totfact>
</mgrwt>
</event>
<event>
 6    4  0.2398389E-003  0.1273831E+03  0.7818608E-02  0.1231391E+00
         -4   -1    0    0    0  501 -0.00000000000E+00  0.00000000000E+00  0.40635836747E+02  0.40655677686E+02  0.12700000000E+01 0. -1.
          4   -1    0    0  502    0  0.00000000000E+00 -0.00000000000E+00 -0.14205360524E+03  0.14205928221E+03  0.12700000000E+01 0. -1.
         25    2    1    2    0    0 -0.15532124422E+02 -0.19064039162E+02 -0.84203912480E+02  0.15269827592E+03  0.12498711979E+03 0.  0.
    9000005    1    3    3    0    0 -0.49041731807E+02 -0.23044407211E+01  0.11051587361E+02  0.50334277474E+02  0.10000000000E+01 0.  0.
    9000005    1    3    3    0    0  0.33509607385E+02 -0.16759598441E+02 -0.95255499841E+02  0.10236399844E+03  0.10000000000E+01 0.  0.
         21    1    1    2  502  501  0.15532124422E+02  0.19064039162E+02 -0.17213856012E+02  0.30016683978E+02  0.00000000000E+00 0.  1.
<mgrwt>
<rscale>  1 0.12738314E+03</rscale>
<asrwt>0</asrwt>
<pdfrwt beam="2">  1        4 0.21856364E-01 0.12738314E+03</pdfrwt>
<pdfrwt beam="1">  1       -4 0.62536301E-02 0.12738314E+03</pdfrwt>
<totfact> 0.51197512E+03</totfact>
</mgrwt>
</event>
<event>
 6    4  0.2398389E-003  0.1284533E+03  0.7818608E-02  0.1229769E+00
          4   -1    0    0  502    0  0.00000000000E+00  0.00000000000E+00  0.86434655237E+02  0.86443984903E+02  0.12700000000E+01 0. -1.
         -4   -1    0    0    0  501 -0.00000000000E+00 -0.00000000000E+00 -0.73866221898E+02  0.73877138801E+02  0.12700000000E+01 0. -1.
         25    2    1    2    0    0 -0.53373009740E+01 -0.29094865608E+02  0.71813962500E+00  0.12845535135E+03  0.12500105432E+03 0.  0.
    9000005    1    3    3    0    0  0.46711067610E+02  0.25282291130E+02  0.20773879060E+01  0.53164213739E+02  0.10000000000E+01 0.  0.
    9000005    1    3    3    0    0 -0.52048368584E+02 -0.54377156738E+02 -0.13592482810E+01  0.75291137613E+02  0.10000000000E+01 0.  0.
         21    1    1    2  502  501  0.53373009740E+01  0.29094865608E+02  0.11850293714E+02  0.31865772352E+02  0.00000000000E+00 0. -1.
<mgrwt>
<rscale>  1 0.12845334E+03</rscale>
<asrwt>0</asrwt>
<pdfrwt beam="1">  1        4 0.13299197E-01 0.12845334E+03</pdfrwt>
<pdfrwt beam="2">  1       -4 0.11365592E-01 0.12845334E+03</pdfrwt>
<totfact> 0.45735276E+03</totfact>
</mgrwt>
</event>
<event>
 6    4  0.2398389E-003  0.1423488E+03  0.7818608E-02  0.1210203E+00
         -4   -1    0    0    0  501 -0.00000000000E+00  0.00000000000E+00  0.17505927017E+02  0.17551933817E+02  0.12700000000E+01 0. -1.
          4   -1    0    0  502    0  0.00000000000E+00 -0.00000000000E+00 -0.78136544430E+03  0.78136647641E+03  0.12700000000E+01 0. -1.
         25    2    1    2    0    0 -0.12382852660E+02 -0.66970176835E+02 -0.32502015135E+03  0.35482570738E+03  0.12499937683E+03 0.  0.
    9000005    1    3    3    0    0 -0.41630601462E+01 -0.90124082224E+01  0.10354319274E+02  0.14379377573E+02  0.10000000000E+01 0.  0.
    9000005    1    3    3    0    0 -0.82197925135E+01 -0.57957768613E+02 -0.33537447062E+03  0.34044632980E+03  0.10000000000E+01 0.  0.
         21    1    1    2  502  501  0.12382852660E+02  0.66970176835E+02 -0.43883936594E+03  0.44409270285E+03  0.00000000000E+00 0. -1.
<mgrwt>
<rscale>  1 0.14234881E+03</rscale>
<asrwt>0</asrwt>
<pdfrwt beam="2">  1        4 0.12021366E+00 0.14234881E+03</pdfrwt>
<pdfrwt beam="1">  1       -4 0.26968385E-02 0.14234881E+03</pdfrwt>
<totfact> 0.59116947E+02</totfact>
</mgrwt>
</event>
<event>
 6    4  0.2398389E-003  0.1409756E+03  0.7818608E-02  0.1212022E+00
          4   -1    0    0  502    0  0.00000000000E+00  0.00000000000E+00  0.46260289195E+02  0.46277718790E+02  0.12700000000E+01 0.  1.
         -4   -1    0    0    0  501 -0.00000000000E+00 -0.00000000000E+00 -0.35538195141E+03  0.35538422065E+03  0.12700000000E+01 0.  1.
         25    2    1    2    0    0  0.53055357618E+02  0.37883350283E+02 -0.30539511874E+03  0.33636334584E+03  0.12499641065E+03 0.  0.
    9000005    1    3    3    0    0 -0.33158049380E+01 -0.35989651774E+02 -0.34512322801E+02  0.49983497500E+02  0.10000000000E+01 0.  0.
    9000005    1    3    3    0    0  0.56371162556E+02  0.73873002057E+02 -0.27088279593E+03  0.28637984834E+03  0.10000000000E+01 0.  0.
         21    1    1    2  502  501 -0.53055357618E+02 -0.37883350283E+02 -0.37265434818E+01  0.65298593606E+02  0.00000000000E+00 0.  1.
<mgrwt>
<rscale>  1 0.14097561E+03</rscale>
<asrwt>0</asrwt>
<pdfrwt beam="1">  1        4 0.71184831E-02 0.14097561E+03</pdfrwt>
<pdfrwt beam="2">  1       -4 0.54675660E-01 0.14097561E+03</pdfrwt>
<totfact> 0.72113058E+02</totfact>
</mgrwt>
</event>
<event>
 6    4  0.2398389E-003  0.1483819E+03  0.7818608E-02  0.1202476E+00
          4   -1    0    0  502    0  0.00000000000E+00  0.00000000000E+00  0.29919863258E+03  0.29920132793E+03  0.12700000000E+01 0.  1.
         -4   -1    0    0    0  501 -0.00000000000E+00 -0.00000000000E+00 -0.44870161790E+02  0.44888131160E+02  0.12700000000E+01 0.  1.
         25    2    1    2    0    0  0.68378358846E+02  0.41418918025E+02  0.13595162166E+03  0.20124617036E+03  0.12500420361E+03 0.  0.
    9000005    1    3    3    0    0  0.68459001866E+02  0.73578905219E+02  0.13595350959E+03  0.16907053853E+03  0.10000000000E+01 0.  0.
    9000005    1    3    3    0    0 -0.80643020815E-01 -0.32159987194E+02 -0.18879269903E-02  0.32175631823E+02  0.10000000000E+01 0.  0.
         21    1    1    2  502  501 -0.68378358846E+02 -0.41418918025E+02  0.11837684912E+03  0.14284328874E+03  0.00000000000E+00 0.  1.
<mgrwt>
<rscale>  1 0.14838186E+03</rscale>
<asrwt>0</asrwt>
<pdfrwt beam="1">  1        4 0.46032148E-01 0.14838186E+03</pdfrwt>
<pdfrwt beam="2">  1       -4 0.69046914E-02 0.14838186E+03</pdfrwt>
<totfact> 0.10884219E+03</totfact>
</mgrwt>
</event>
<event>
 6    4  0.2398389E-003  0.1310184E+03  0.7818608E-02  0.1225952E+00
          4   -1    0    0  502    0  0.00000000000E+00  0.00000000000E+00  0.53617236439E+02  0.53632275202E+02  0.12700000000E+01 0. -1.
         -4   -1    0    0    0  501 -0.00000000000E+00 -0.00000000000E+00 -0.13704487252E+03  0.13705075696E+03  0.12700000000E+01 0. -1.
         25    2    1    2    0    0 -0.39187453988E+02 -0.23491469120E+01 -0.73345816240E+02  0.15015133923E+03  0.12499856347E+03 0.  0.
    9000005    1    3    3    0    0 -0.56142047324E+02  0.31090270618E+02  0.38790349701E+01  0.64300710082E+02  0.10000000000E+01 0.  0.
    9000005    1    3    3    0    0  0.16954593336E+02 -0.33439417530E+02 -0.77224851211E+02  0.85850629144E+02  0.10000000000E+01 0.  0.
         21    1    1    2  502  501  0.39187453988E+02  0.23491469120E+01 -0.10081819842E+02  0.40531692940E+02  0.00000000000E+00 0.  1.
<mgrwt>
<rscale>  1 0.13101838E+03</rscale>
<asrwt>0</asrwt>
<pdfrwt beam="1">  1        4 0.82504151E-02 0.13101838E+03</pdfrwt>
<pdfrwt beam="2">  1       -4 0.21085436E-01 0.13101838E+03</pdfrwt>
<totfact> 0.34899879E+03</totfact>
</mgrwt>
</event>
<event>
 6    4  0.2398389E-003  0.1276520E+03  0.7818608E-02  0.1230982E+00
          4   -1    0    0  502    0  0.00000000000E+00  0.00000000000E+00  0.91619298259E+02  0.91628100021E+02  0.12700000000E+01 0.  1.
         -4   -1    0    0    0  501 -0.00000000000E+00 -0.00000000000E+00 -0.10869590670E+03  0.10870332577E+03  0.12700000000E+01 0.  1.
         25    2    1    2    0    0  0.25861083928E+02 -0.67370314440E+00 -0.66953150438E+02  0.14414495963E+03  0.12500318194E+03 0.  0.
    9000005    1    3    3    0    0  0.47655673781E+02 -0.22398254004E+02  0.16502277559E+02  0.55191214796E+02  0.10000000000E+01 0.  0.
    9000005    1    3    3    0    0 -0.21794589853E+02  0.21724550860E+02 -0.83455427998E+02  0.88953744830E+02  0.10000000000E+01 0.  0.
         21    1    1    2  502  501 -0.25861083928E+02  0.67370314440E+00  0.49876542000E+02  0.56186466162E+02  0.00000000000E+00 0.  1.
<mgrwt>
<rscale>  1 0.12765205E+03</rscale>
<asrwt>0</asrwt>
<pdfrwt beam="1">  1        4 0.14096524E-01 0.12765205E+03</pdfrwt>
<pdfrwt beam="2">  1       -4 0.16723695E-01 0.12765205E+03</pdfrwt>
<totfact> 0.21164089E+03</totfact>
</mgrwt>
</event>
<event>
 6    4  0.2398389E-003  0.1283659E+03  0.7818608E-02  0.1229901E+00
          4   -1    0    0  502    0  0.00000000000E+00  0.00000000000E+00  0.89786009294E+03  0.89786099113E+03  0.12700000000E+01 0. -1.
         -4   -1    0    0    0  501 -0.00000000000E+00 -0.00000000000E+00 -0.83537699426E+01  0.84497557511E+01  0.12700000000E+01 0. -1.
         25    2    1    2    0    0  0.27872327523E+02  0.86250554914E+01  0.51829526317E+03  0.53395485642E+03  0.12500620243E+03 0.  0.
    9000005    1    3    3    0    0  0.32094299397E+02 -0.49877313397E+02  0.15517766907E+03  0.16612916488E+03  0.10000000000E+01 0.  0.
    9000005    1    3    3    0    0 -0.42219718740E+01  0.58502368889E+02  0.36311759410E+03  0.36782569154E+03  0.10000000000E+01 0.  0.
         21    1    1    2  502  501 -0.27872327523E+02 -0.86250554914E+01  0.37121105982E+03  0.37235589046E+03  0.00000000000E+00 0.  1.
<mgrwt>
<rscale>  1 0.12836592E+03</rscale>
<asrwt>0</asrwt>
<pdfrwt beam="1">  1        4 0.13813967E+00 0.12836592E+03</pdfrwt>
<pdfrwt beam="2">  1       -4 0.12926490E-02 0.12836592E+03</pdfrwt>
<totfact> 0.12764844E+03</totfact>
</mgrwt>
</event>
<event>
 6    4  0.2398389E-003  0.1289366E+03  0.7818608E-02  0.1229042E+00
          4   -1    0    0  502    0  0.00000000000E+00  0.00000000000E+00  0.51133903688E+02  0.51149672593E+02  0.12700000000E+01 0.  1.
         -4   -1    0    0    0  501 -0.00000000000E+00 -0.00000000000E+00 -0.12698371433E+03  0.12699006499E+03  0.12700000000E+01 0.  1.
         25    2    1    2    0    0  0.19212589773E+02 -0.25113409886E+02 -0.66997421011E+02  0.14530421164E+03  0.12499941014E+03 0.  0.
    9000005    1    3    3    0    0  0.12578112030E+02 -0.76204965463E+01 -0.10335625802E+03  0.10440209261E+03  0.10000000000E+01 0.  0.
    9000005    1    3    3    0    0  0.66344777431E+01 -0.17492913340E+02  0.36358837009E+02  0.40902119024E+02  0.10000000000E+01 0.  0.
         21    1    1    2  502  501 -0.19212589773E+02  0.25113409886E+02 -0.88523896346E+01  0.32835525946E+02  0.00000000000E+00 0.  1.
<mgrwt>
<rscale>  1 0.12893665E+03</rscale>
<asrwt>0</asrwt>
<pdfrwt beam="1">  1        4 0.78684559E-02 0.12893665E+03</pdfrwt>
<pdfrwt beam="2">  1       -4 0.19537658E-01 0.12893665E+03</pdfrwt>
<totfact> 0.43133163E+03</totfact>
</mgrwt>
</event>
<event>
 6    4  0.2398389E-003  0.1362382E+03  0.7818608E-02  0.1218482E+00
          4   -1    0    0  502    0  0.00000000000E+00  0.00000000000E+00  0.19969917017E+02  0.20010259510E+02  0.12700000000E+01 0. -1.
         -4   -1    0    0    0  501 -0.00000000000E+00 -0.00000000000E+00 -0.45347347783E+03  0.45347525621E+03  0.12700000000E+01 0. -1.
         25    2    1    2    0    0  0.54382937082E+01  0.53915483532E+02 -0.31103960744E+03  0.33956809983E+03  0.12499761047E+03 0.  0.
    9000005    1    3    3    0    0  0.50909513562E+02  0.67645989016E+02 -0.15709265527E+03  0.17845688763E+03  0.10000000000E+01 0.  0.
    9000005    1    3    3    0    0 -0.45471219854E+02 -0.13730505485E+02 -0.15394695216E+03  0.16111121220E+03  0.10000000000E+01 0.  0.
         21    1    1    2  502  501 -0.54382937082E+01 -0.53915483532E+02 -0.12246395337E+03  0.13391741589E+03  0.00000000000E+00 0. -1.
<mgrwt>
<rscale>  1 0.13623824E+03</rscale>
<asrwt>0</asrwt>
<pdfrwt beam="1">  1        4 0.30755353E-02 0.13623824E+03</pdfrwt>
<pdfrwt beam="2">  1       -4 0.69768383E-01 0.13623824E+03</pdfrwt>
<totfact> 0.16440018E+03</totfact>
</mgrwt>
</event>
<event>
 6    4  0.2398389E-003  0.1273523E+03  0.7818608E-02  0.1231438E+00
         -4   -1    0    0    0  501 -0.00000000000E+00  0.00000000000E+00  0.16223031157E+03  0.16223528251E+03  0.12700000000E+01 0. -1.
          4   -1    0    0  502    0  0.00000000000E+00 -0.00000000000E+00 -0.38934905440E+02  0.38955612710E+02  0.12700000000E+01 0. -1.
         25    2    1    2    0    0  0.24245741266E+02 -0.25393251907E+01  0.12264157882E+03  0.17680377501E+03  0.12499725542E+03 0.  0.
    9000005    1    3    3    0    0 -0.18563839352E+02  0.53161752112E+02  0.44969455127E+02  0.72069687897E+02  0.10000000000E+01 0.  0.
    9000005    1    3    3    0    0  0.42809580618E+02 -0.55701077303E+02  0.77672123693E+02  0.10473408712E+03  0.10000000000E+01 0.  0.
         21    1    1    2  502  501 -0.24245741266E+02  0.25393251907E+01  0.65382731085E+00  0.24387120209E+02  0.00000000000E+00 0. -1.
<mgrwt>
<rscale>  1 0.12735234E+03</rscale>
<asrwt>0</asrwt>
<pdfrwt beam="2">  1        4 0.59919607E-02 0.12735234E+03</pdfrwt>
<pdfrwt beam="1">  1       -4 0.24960485E-01 0.12735234E+03</pdfrwt>
<totfact> 0.43044130E+03</totfact>
</mgrwt>
</event>
<event>
 6    4  0.2398389E-003  0.1266624E+03  0.7818608E-02  0.1232494E+00
          4   -1    0    0  502    0  0.00000000000E+00  0.00000000000E+00  0.18282548698E+03  0.18282989796E+03  0.12700000000E+01 0.  1.
         -4   -1    0    0    0  501 -0.00000000000E+00 -0.00000000000E+00 -0.32396356217E+02  0.32421239892E+02  0.12700000000E+01 0.  1.
         25    2    1    2    0    0 -0.12220004313E+02  0.16406742514E+02  0.10182367373E+03  0.16251594886E+03  0.12499945358E+03 0.  0.
    9000005    1    3    3    0    0 -0.24895707908E+02 -0.46357255934E+02  0.15178732821E+02  0.54773948005E+02  0.10000000000E+01 0.  0.
    9000005    1    3    3    0    0  0.12675703595E+02  0.62763998448E+02  0.86644940909E+02  0.10774200085E+03  0.10000000000E+01 0.  0.
         21    1    1    2  502  501  0.12220004313E+02 -0.16406742514E+02  0.48605457029E+02  0.52735188995E+02  0.00000000000E+00 0. -1.
<mgrwt>
<rscale>  1 0.12666244E+03</rscale>
<asrwt>0</asrwt>
<pdfrwt beam="1">  1        4 0.28129253E-01 0.12666244E+03</pdfrwt>
<pdfrwt beam="2">  1       -4 0.49863080E-02 0.12666244E+03</pdfrwt>
<totfact> 0.46312380E+03</totfact>
</mgrwt>
</event>
<event>
 6    4  0.2398389E-003  0.1314198E+03  0.7818608E-02  0.1225364E+00
         -4   -1    0    0    0  501 -0.00000000000E+00  0.00000000000E+00  0.37958366998E+02  0.37979606701E+02  0.12700000000E+01 0.  1.
          4   -1    0    0  502    0  0.00000000000E+00 -0.00000000000E+00 -0.19495955409E+03  0.19496369054E+03  0.12700000000E+01 0.  1.
         25    2    1    2    0    0 -0.25378168563E+02  0.31658248123E+02 -0.12312828209E+03  0.18008811957E+03  0.12499944338E+03 0.  0.
    9000005    1    3    3    0    0  0.15523861141E+02  0.59832061683E+02 -0.11385121924E+03  0.12955294667E+03  0.10000000000E+01 0.  0.
    9000005    1    3    3    0    0 -0.40902029704E+02 -0.28173813560E+02 -0.92770628516E+01  0.50535172895E+02  0.10000000000E+01 0.  0.
         21    1    1    2  502  501  0.25378168563E+02 -0.31658248123E+02 -0.33872904999E+02  0.52855177673E+02  0.00000000000E+00 0.  1.
<mgrwt>
<rscale>  1 0.13141977E+03</rscale>
<asrwt>0</asrwt>
<pdfrwt beam="2">  1        4 0.29995729E-01 0.13141977E+03</pdfrwt>
<pdfrwt beam="1">  1       -4 0.58417009E-02 0.13141977E+03</pdfrwt>
<totfact> 0.32082717E+03</totfact>
</mgrwt>
</event>
<event>
 6    4  0.2398389E-003  0.1333446E+03  0.7818608E-02  0.1222576E+00
         -4   -1    0    0    0  501 -0.00000000000E+00  0.00000000000E+00  0.20099270477E+03  0.20099671706E+03  0.12700000000E+01 0.  1.
          4   -1    0    0  502    0  0.00000000000E+00 -0.00000000000E+00 -0.40780610349E+02  0.40800380886E+02  0.12700000000E+01 0.  1.
         25    2    1    2    0    0  0.35050323656E+02  0.30454856874E+02  0.10546410132E+03  0.17001014758E+03  0.12499900046E+03 0.  0.
    9000005    1    3    3    0    0  0.71287489163E+02  0.10846791365E+02  0.19543644755E+02  0.74716216743E+02  0.10000000000E+01 0.  0.
    9000005    1    3    3    0    0 -0.36237165507E+02  0.19608065509E+02  0.85920456569E+02  0.95293930835E+02  0.10000000000E+01 0.  0.
         21    1    1    2  502  501 -0.35050323656E+02 -0.30454856874E+02  0.54747993097E+02  0.71786950372E+02  0.00000000000E+00 0.  1.
<mgrwt>
<rscale>  1 0.13334457E+03</rscale>
<asrwt>0</asrwt>
<pdfrwt beam="2">  1        4 0.62757696E-02 0.13334457E+03</pdfrwt>
<pdfrwt beam="1">  1       -4 0.30923784E-01 0.13334457E+03</pdfrwt>
<totfact> 0.27047155E+03</totfact>
</mgrwt>
</event>
<event>
 6    4  0.2398389E-003  0.1360132E+03  0.7818608E-02  0.1218796E+00
         -4   -1    0    0    0  501 -0.00000000000E+00  0.00000000000E+00  0.19742223143E+03  0.19742631629E+03  0.12700000000E+01 0. -1.
          4   -1    0    0  502    0  0.00000000000E+00 -0.00000000000E+00 -0.96571616535E+02  0.96579966971E+02  0.12700000000E+01 0. -1.
         25    2    1    2    0    0  0.49329095125E+02  0.20991065666E+02  0.16276133775E+03  0.21211048320E+03  0.12500247819E+03 0.  0.
    9000005    1    3    3    0    0  0.83900691749E+02  0.42465545212E+02  0.99733861588E+02  0.13707841462E+03  0.10000000000E+01 0.  0.
    9000005    1    3    3    0    0 -0.34571596624E+02 -0.21474479546E+02  0.63027476159E+02  0.75032068583E+02  0.10000000000E+01 0.  0.
         21    1    1    2  502  501 -0.49329095125E+02 -0.20991065666E+02 -0.61910722851E+02  0.81895800061E+02  0.00000000000E+00 0. -1.
<mgrwt>
<rscale>  1 0.13601325E+03</rscale>
<asrwt>0</asrwt>
<pdfrwt beam="2">  1        4 0.14858128E-01 0.13601325E+03</pdfrwt>
<pdfrwt beam="1">  1       -4 0.30373607E-01 0.13601325E+03</pdfrwt>
<totfact> 0.65926615E+02</totfact>
</mgrwt>
</event>
<event>
 6    4  0.2398389E-003  0.1316800E+03  0.7818608E-02  0.1224984E+00
          4   -1    0    0  502    0  0.00000000000E+00  0.00000000000E+00  0.82917368250E+02  0.82927093628E+02  0.12700000000E+01 0. -1.
         -4   -1    0    0    0  501 -0.00000000000E+00 -0.00000000000E+00 -0.26530038840E+03  0.26530342814E+03  0.12700000000E+01 0. -1.
         25    2    1    2    0    0 -0.26933108359E+02 -0.31461164684E+02 -0.24207877312E+03  0.27557530770E+03  0.12499768240E+03 0.  0.
    9000005    1    3    3    0    0  0.12144382879E+02 -0.34998477221E+02 -0.75952300062E+01  0.37829445703E+02  0.10000000000E+01 0.  0.
    9000005    1    3    3    0    0 -0.39077491238E+02  0.35373125373E+01 -0.23448354312E+03  0.23774586199E+03  0.10000000000E+01 0.  0.
         21    1    1    2  502  501  0.26933108359E+02  0.31461164684E+02  0.59695752975E+02  0.72655214076E+02  0.00000000000E+00 0. -1.
<mgrwt>
<rscale>  1 0.13167998E+03</rscale>
<asrwt>0</asrwt>
<pdfrwt beam="1">  1        4 0.12757500E-01 0.13167998E+03</pdfrwt>
<pdfrwt beam="2">  1       -4 0.40816426E-01 0.13167998E+03</pdfrwt>
<totfact> 0.48198019E+02</totfact>
</mgrwt>
</event>
<event>
 6    4  0.2398389E-003  0.1270621E+03  0.7818608E-02  0.1231881E+00
         -4   -1    0    0    0  501 -0.00000000000E+00  0.00000000000E+00  0.23327826370E+02  0.23362371094E+02  0.12700000000E+01 0.  1.
          4   -1    0    0  502    0  0.00000000000E+00 -0.00000000000E+00 -0.47402831943E+03  0.47403002070E+03  0.12700000000E+01 0.  1.
         25    2    1    2    0    0 -0.22584445320E+02 -0.32062631683E+01 -0.15327283757E+03  0.19909128964E+03  0.12499776630E+03 0.  0.
    9000005    1    3    3    0    0  0.11433275312E+02 -0.20832846951E+02  0.13921988388E+02  0.27559917582E+02  0.10000000000E+01 0.  0.
    9000005    1    3    3    0    0 -0.34017720632E+02  0.17626583783E+02 -0.16719482595E+03  0.17153137205E+03  0.10000000000E+01 0.  0.
         21    1    1    2  502  501  0.22584445320E+02  0.32062631683E+01 -0.29742765549E+03  0.29830110215E+03  0.00000000000E+00 0.  1.
<mgrwt>
<rscale>  1 0.12706211E+03</rscale>
<asrwt>0</asrwt>
<pdfrwt beam="2">  1        4 0.72930215E-01 0.12706211E+03</pdfrwt>
<pdfrwt beam="1">  1       -4 0.35916849E-02 0.12706211E+03</pdfrwt>
<totfact> 0.11524942E+03</totfact>
</mgrwt>
</event>
<event>
 6    4  0.2398389E-003  0.1268149E+03  0.7818608E-02  0.1232260E+00
         -4   -1    0    0    0  501 -0.00000000000E+00  0.00000000000E+00  0.18605292760E+02  0.18648587579E+02  0.12700000000E+01 0.  1.
          4   -1    0    0  502    0  0.00000000000E+00 -0.00000000000E+00 -0.29966119962E+03  0.29966389082E+03  0.12700000000E+01 0.  1.
         25    2    1    2    0    0 -0.20523102982E+02 -0.61809075780E+01 -0.22466003979E+03  0.25798093443E+03  0.12499051034E+03 0.  0.
    9000005    1    3    3    0    0  0.19165614918E+02 -0.57349884094E+02 -0.12882941813E+03  0.14231777464E+03  0.10000000000E+01 0.  0.
    9000005    1    3    3    0    0 -0.39688717901E+02  0.51168976516E+02 -0.95830621656E+02  0.11566315979E+03  0.10000000000E+01 0.  0.
         21    1    1    2  502  501  0.20523102982E+02  0.61809075780E+01 -0.56395867075E+02  0.60331543969E+02  0.00000000000E+00 0.  1.
<mgrwt>
<rscale>  1 0.12681494E+03</rscale>
<asrwt>0</asrwt>
<pdfrwt beam="2">  1        4 0.46105257E-01 0.12681494E+03</pdfrwt>
<pdfrwt beam="1">  1       -4 0.28658903E-02 0.12681494E+03</pdfrwt>
<totfact> 0.42732959E+03</totfact>
</mgrwt>
</event>
<event>
 6    4  0.2398389E-003  0.1267909E+03  0.7818608E-02  0.1232297E+00
          4   -1    0    0  502    0  0.00000000000E+00  0.00000000000E+00  0.11002598532E+03  0.11003331470E+03  0.12700000000E+01 0. -1.
         -4   -1    0    0    0  501 -0.00000000000E+00 -0.00000000000E+00 -0.50152798444E+02  0.50168875727E+02  0.12700000000E+01 0. -1.
         25    2    1    2    0    0  0.11015880854E+02  0.18154194171E+02  0.56043342448E+02  0.13862460703E+03  0.12500000418E+03 0.  0.
    9000005    1    3    3    0    0 -0.39306060522E+02  0.43153565547E+02 -0.12185827697E+01  0.58392478601E+02  0.10000000000E+01 0.  0.
    9000005    1    3    3    0    0  0.50321941376E+02 -0.24999371375E+02  0.57261925218E+02  0.80232128432E+02  0.10000000000E+01 0.  0.
         21    1    1    2  502  501 -0.11015880854E+02 -0.18154194171E+02  0.38298444235E+01  0.21577583398E+02  0.00000000000E+00 0. -1.
<mgrwt>
<rscale>  1 0.12679087E+03</rscale>
<asrwt>0</asrwt>
<pdfrwt beam="1">  1        4 0.16928875E-01 0.12679087E+03</pdfrwt>
<pdfrwt beam="2">  1       -4 0.77176158E-02 0.12679087E+03</pdfrwt>
<totfact> 0.57218488E+03</totfact>
</mgrwt>
</event>
<event>
 6    4  0.2398389E-003  0.1290872E+03  0.7818608E-02  0.1228817E+00
         -4   -1    0    0    0  501 -0.00000000000E+00  0.00000000000E+00  0.24554032940E+03  0.24554361377E+03  0.12700000000E+01 0.  1.
          4   -1    0    0  502    0  0.00000000000E+00 -0.00000000000E+00 -0.29954800112E+03  0.29955069333E+03  0.12700000000E+01 0.  1.
         25    2    1    2    0    0  0.22851498153E+02  0.22720881212E+02  0.22759474533E+03  0.26165410054E+03  0.12500028328E+03 0.  0.
    9000005    1    3    3    0    0 -0.37314151225E+02  0.44790901677E+00  0.16124297509E+02  0.40663736600E+02  0.10000000000E+01 0.  0.
    9000005    1    3    3    0    0  0.60165649377E+02  0.22272972195E+02  0.21147044782E+03  0.22099036394E+03  0.10000000000E+01 0.  0.
         21    1    1    2  502  501 -0.22851498153E+02 -0.22720881212E+02 -0.28160241704E+03  0.28344020656E+03  0.00000000000E+00 0.  1.
<mgrwt>
<rscale>  1 0.12908718E+03</rscale>
<asrwt>0</asrwt>
<pdfrwt beam="2">  1        4 0.46084768E-01 0.12908718E+03</pdfrwt>
<pdfrwt beam="1">  1       -4 0.37775895E-01 0.12908718E+03</pdfrwt>
<totfact> 0.52172889E+01</totfact>
</mgrwt>
</event>
<event>
 6    4  0.2398389E-003  0.1306413E+03  0.7818608E-02  0.1226507E+00
         -4   -1    0    0    0  501 -0.00000000000E+00  0.00000000000E+00  0.10655955756E+04  0.10655963324E+04  0.12700000000E+01 0. -1.
          4   -1    0    0  502    0  0.00000000000E+00 -0.00000000000E+00 -0.67844251902E+01  0.69022695660E+01  0.12700000000E+01 0. -1.
         25    2    1    2    0    0 -0.35322560276E+02  0.13955547498E+02  0.88466628571E+03  0.89426034998E+03  0.12499878365E+03 0.  0.
    9000005    1    3    3    0    0 -0.31984802640E+02  0.67035381135E+02  0.41545351986E+03  0.42204193760E+03  0.10000000000E+01 0.  0.
    9000005    1    3    3    0    0 -0.33377576366E+01 -0.53079833637E+02  0.46921276584E+03  0.47221841238E+03  0.10000000000E+01 0.  0.
         21    1    1    2  502  501  0.35322560276E+02 -0.13955547498E+02  0.17414486473E+03  0.17823825202E+03  0.00000000000E+00 0. -1.
<mgrwt>
<rscale>  1 0.13064125E+03</rscale>
<asrwt>0</asrwt>
<pdfrwt beam="2">  1        4 0.10528812E-02 0.13064125E+03</pdfrwt>
<pdfrwt beam="1">  1       -4 0.16394685E+00 0.13064125E+03</pdfrwt>
<totfact> 0.11286951E+03</totfact>
</mgrwt>
</event>
<event>
 6    4  0.2398389E-003  0.1270316E+03  0.7818608E-02  0.1231928E+00
         -4   -1    0    0    0  501 -0.00000000000E+00  0.00000000000E+00  0.21105289153E+03  0.21105671258E+03  0.12700000000E+01 0. -1.
          4   -1    0    0  502    0  0.00000000000E+00 -0.00000000000E+00 -0.26538032532E+02  0.26568403615E+02  0.12700000000E+01 0. -1.
         25    2    1    2    0    0 -0.22571975837E+02 -0.13710074483E+01  0.15364082057E+03  0.19935528469E+03  0.12500261610E+03 0.  0.
    9000005    1    3    3    0    0 -0.24737030695E+02  0.58203051483E+02  0.53652301345E+02  0.82940251562E+02  0.10000000000E+01 0.  0.
    9000005    1    3    3    0    0  0.21650548578E+01 -0.59574058931E+02  0.99988519228E+02  0.11641503312E+03  0.10000000000E+01 0.  0.
         21    1    1    2  502  501  0.22571975837E+02  0.13710074483E+01  0.30874038425E+02  0.38269831503E+02  0.00000000000E+00 0.  1.
<mgrwt>
<rscale>  1 0.12703160E+03</rscale>
<asrwt>0</asrwt>
<pdfrwt beam="2">  1        4 0.40854044E-02 0.12703160E+03</pdfrwt>
<pdfrwt beam="1">  1       -4 0.32472305E-01 0.12703160E+03</pdfrwt>
<totfact> 0.48570629E+03</totfact>
</mgrwt>
</event>
<event>
 6    4  0.2398389E-003  0.1268581E+03  0.7818608E-02  0.1232194E+00
         -4   -1    0    0    0  501 -0.00000000000E+00  0.00000000000E+00  0.23345786896E+03  0.23346132330E+03  0.12700000000E+01 0. -1.
          4   -1    0    0  502    0  0.00000000000E+00 -0.00000000000E+00 -0.44389491029E+02  0.44407654901E+02  0.12700000000E+01 0. -1.
         25    2    1    2    0    0  0.15208031877E+02 -0.15221906603E+02  0.21160002250E+03  0.24671347016E+03  0.12501990308E+03 0.  0.
    9000005    1    3    3    0    0  0.24744015349E+02 -0.68321102468E+02  0.11404503796E+03  0.13523058094E+03  0.10000000000E+01 0.  0.
    9000005    1    3    3    0    0 -0.95359834721E+01  0.53099195865E+02  0.97554984535E+02  0.11148288922E+03  0.10000000000E+01 0.  0.
         21    1    1    2  502  501 -0.15208031877E+02  0.15221906603E+02 -0.22531644568E+02  0.31155508039E+02  0.00000000000E+00 0. -1.
<mgrwt>
<rscale>  1 0.12685806E+03</rscale>
<asrwt>0</asrwt>
<pdfrwt beam="2">  1        4 0.68308153E-02 0.12685806E+03</pdfrwt>
<pdfrwt beam="1">  1       -4 0.35918258E-01 0.12685806E+03</pdfrwt>
<totfact> 0.17476049E+03</totfact>
</mgrwt>
</event>
<event>
 6    4  0.2398389E-003  0.1328317E+03  0.7818608E-02  0.1223313E+00
          4   -1    0    0  502    0  0.00000000000E+00  0.00000000000E+00  0.41803653172E+02  0.41822940099E+02  0.12700000000E+01 0.  1.
         -4   -1    0    0    0  501 -0.00000000000E+00 -0.00000000000E+00 -0.27764134944E+03  0.27764425407E+03  0.12700000000E+01 0.  1.
         25    2    1    2    0    0 -0.30435897800E+02  0.33126371374E+02 -0.23998200322E+03  0.27429114260E+03  0.12498227349E+03 0.  0.
    9000005    1    3    3    0    0 -0.37343601701E+02 -0.35083526006E+02 -0.16458524075E+03  0.17237952274E+03  0.10000000000E+01 0.  0.
    9000005    1    3    3    0    0  0.69077039016E+01  0.68209897380E+02 -0.75396762465E+02  0.10191161987E+03  0.10000000000E+01 0.  0.
         21    1    1    2  502  501  0.30435897800E+02 -0.33126371374E+02  0.41443069480E+01  0.45176051569E+02  0.00000000000E+00 0.  1.
<mgrwt>
<rscale>  1 0.13283173E+03</rscale>
<asrwt>0</asrwt>
<pdfrwt beam="1">  1        4 0.64330385E-02 0.13283173E+03</pdfrwt>
<pdfrwt beam="2">  1       -4 0.42715760E-01 0.13283173E+03</pdfrwt>
<totfact> 0.13868059E+03</totfact>
</mgrwt>
</event>
<event>
 6    4  0.2398389E-003  0.1285498E+03  0.7818608E-02  0.1229624E+00
          4   -1    0    0  502    0  0.00000000000E+00  0.00000000000E+00  0.65032300743E+01  0.66260773765E+01  0.12700000000E+01 0. -1.
         -4   -1    0    0    0  501 -0.00000000000E+00 -0.00000000000E+00 -0.98328944627E+03  0.98329026642E+03  0.12700000000E+01 0. -1.
         25    2    1    2    0    0 -0.14212910727E+02 -0.26534546670E+02 -0.84599806701E+03  0.85570893355E+03  0.12497583998E+03 0.  0.
    9000005    1    3    3    0    0 -0.59532345029E+02  0.96845428503E+01 -0.26293976292E+03  0.26977066075E+03  0.10000000000E+01 0.  0.
    9000005    1    3    3    0    0  0.45319434301E+02 -0.36219089520E+02 -0.58305830409E+03  0.58593827281E+03  0.10000000000E+01 0.  0.
         21    1    1    2  502  501  0.14212910727E+02  0.26534546670E+02 -0.13078814918E+03  0.13420741025E+03  0.00000000000E+00 0. -1.
<mgrwt>
<rscale>  1 0.12854979E+03</rscale>
<asrwt>0</asrwt>
<pdfrwt beam="1">  1        4 0.10100106E-02 0.12854979E+03</pdfrwt>
<pdfrwt beam="2">  1       -4 0.15128470E+00 0.12854979E+03</pdfrwt>
<totfact> 0.14741911E+03</totfact>
</mgrwt>
</event>
<event>
 6    4  0.2398389E-003  0.1446393E+03  0.7818608E-02  0.1207219E+00
          4   -1    0    0  502    0  0.00000000000E+00  0.00000000000E+00  0.24716035340E+03  0.24716361624E+03  0.12700000000E+01 0. -1.
         -4   -1    0    0    0  501 -0.00000000000E+00 -0.00000000000E+00 -0.69861247291E+02  0.69872789933E+02  0.12700000000E+01 0. -1.
         25    2    1    2    0    0  0.89885765449E+01 -0.72214689429E+02  0.23025438041E+02  0.14646055637E+03  0.12499907158E+03 0.  0.
    9000005    1    3    3    0    0 -0.27690784288E+02  0.26828717639E+02  0.10859620797E+01  0.38584179897E+02  0.10000000000E+01 0.  0.
    9000005    1    3    3    0    0  0.36679360833E+02 -0.99043407069E+02  0.21939475961E+02  0.10787637647E+03  0.10000000000E+01 0.  0.
         21    1    1    2  502  501 -0.89885765449E+01  0.72214689429E+02  0.15427366806E+03  0.17057584980E+03  0.00000000000E+00 0. -1.
<mgrwt>
<rscale>  1 0.14463929E+03</rscale>
<asrwt>0</asrwt>
<pdfrwt beam="1">  1        4 0.38025808E-01 0.14463929E+03</pdfrwt>
<pdfrwt beam="2">  1       -4 0.10749023E-01 0.14463929E+03</pdfrwt>
<totfact> 0.75584068E+02</totfact>
</mgrwt>
</event>
<event>
 6    4  0.2398389E-003  0.1273357E+03  0.7818608E-02  0.1231464E+00
          4   -1    0    0  502    0  0.00000000000E+00  0.00000000000E+00  0.34982712860E+02  0.35005758084E+02  0.12700000000E+01 0. -1.
         -4   -1    0    0    0  501 -0.00000000000E+00 -0.00000000000E+00 -0.17902063591E+03  0.17902514064E+03  0.12700000000E+01 0. -1.
         25    2    1    2    0    0 -0.24277263746E+02  0.24835072169E+00 -0.14029560272E+03  0.18946563515E+03  0.12499969418E+03 0.  0.
    9000005    1    3    3    0    0 -0.26977644753E+02  0.59676409041E+02 -0.91447730380E+02  0.11248446339E+03  0.10000000000E+01 0.  0.
    9000005    1    3    3    0    0  0.27003810061E+01 -0.59428058319E+02 -0.48847872340E+02  0.76981171758E+02  0.10000000000E+01 0.  0.
         21    1    1    2  502  501  0.24277263746E+02 -0.24835072169E+00 -0.37423203275E+01  0.24565263575E+02  0.00000000000E+00 0. -1.
<mgrwt>
<rscale>  1 0.12733566E+03</rscale>
<asrwt>0</asrwt>
<pdfrwt beam="1">  1        4 0.53840752E-02 0.12733566E+03</pdfrwt>
<pdfrwt beam="2">  1       -4 0.27543755E-01 0.12733566E+03</pdfrwt>
<totfact> 0.42630806E+03</totfact>
</mgrwt>
</event>
<event>
 6    4  0.2398389E-003  0.1313315E+03  0.7818608E-02  0.1225493E+00
         -4   -1    0    0    0  501 -0.00000000000E+00  0.00000000000E+00  0.21451401036E+03  0.21451776976E+03  0.12700000000E+01 0.  1.
          4   -1    0    0  502    0  0.00000000000E+00 -0.00000000000E+00 -0.59841059199E+02  0.59854534214E+02  0.12700000000E+01 0.  1.
         25    2    1    2    0    0  0.11594106732E+02  0.38575460090E+02  0.18291366215E+03  0.22517853212E+03  0.12500189636E+03 0.  0.
    9000005    1    3    3    0    0 -0.37018620600E+01  0.72236994274E+02  0.17203411216E+03  0.18662428264E+03  0.10000000000E+01 0.  0.
    9000005    1    3    3    0    0  0.15295968792E+02 -0.33661534184E+02  0.10879549990E+02  0.38554249479E+02  0.10000000000E+01 0.  0.
         21    1    1    2  502  501 -0.11594106732E+02 -0.38575460090E+02 -0.28240710985E+02  0.49193771852E+02  0.00000000000E+00 0.  1.
<mgrwt>
<rscale>  1 0.13133150E+03</rscale>
<asrwt>0</asrwt>
<pdfrwt beam="2">  1        4 0.92076424E-02 0.13133150E+03</pdfrwt>
<pdfrwt beam="1">  1       -4 0.33003482E-01 0.13133150E+03</pdfrwt>
<totfact> 0.12648656E+03</totfact>
</mgrwt>
</event>
<event>
 6    4  0.2398389E-003  0.1327977E+03  0.7818608E-02  0.1223363E+00
         -4   -1    0    0    0  501 -0.00000000000E+00  0.00000000000E+00  0.37919926163E+03  0.37920138834E+03  0.12700000000E+01 0.  1.
          4   -1    0    0  502    0  0.00000000000E+00 -0.00000000000E+00 -0.22758510282E+02  0.22793917835E+02  0.12700000000E+01 0.  1.
         25    2    1    2    0    0 -0.44134106792E+02  0.78844059483E+01  0.31097502986E+03  0.33814301515E+03  0.12500098502E+03 0.  0.
    9000005    1    3    3    0    0 -0.83151491726E+00 -0.35790484735E+02  0.20582376868E+02  0.41307196130E+02  0.10000000000E+01 0.  0.
    9000005    1    3    3    0    0 -0.43302591875E+02  0.43674890683E+02  0.29039265299E+03  0.29683581902E+03  0.10000000000E+01 0.  0.
         21    1    1    2  502  501  0.44134106792E+02 -0.78844059483E+01  0.45465721490E+02  0.63852291033E+02  0.00000000000E+00 0.  1.
<mgrwt>
<rscale>  1 0.13279770E+03</rscale>
<asrwt>0</asrwt>
<pdfrwt beam="2">  1        4 0.35041969E-02 0.13279770E+03</pdfrwt>
<pdfrwt beam="1">  1       -4 0.58341229E-01 0.13279770E+03</pdfrwt>
<totfact> 0.19463063E+03</totfact>
</mgrwt>
</event>
<event>
 6    4  0.2398389E-003  0.1278072E+03  0.7818608E-02  0.1230746E+00
         -4   -1    0    0    0  501 -0.00000000000E+00  0.00000000000E+00  0.49083859890E+02  0.49100287186E+02  0.12700000000E+01 0.  1.
          4   -1    0    0  502    0  0.00000000000E+00 -0.00000000000E+00 -0.13854335519E+03  0.13854917599E+03  0.12700000000E+01 0.  1.
         25    2    1    2    0    0 -0.25355659669E+02 -0.82451936342E+01 -0.44413736301E+02  0.13530432874E+03  0.12499515474E+03 0.  0.
    9000005    1    3    3    0    0 -0.59246944379E+02 -0.44979855558E+02 -0.11066765107E+02  0.75212107498E+02  0.10000000000E+01 0.  0.
    9000005    1    3    3    0    0  0.33891284710E+02  0.36734661924E+02 -0.33346971193E+02  0.60092221241E+02  0.10000000000E+01 0.  0.
         21    1    1    2  502  501  0.25355659669E+02  0.82451936342E+01 -0.45045759000E+02  0.52345134437E+02  0.00000000000E+00 0. -1.
<mgrwt>
<rscale>  1 0.12780720E+03</rscale>
<asrwt>0</asrwt>
<pdfrwt beam="2">  1        4 0.21316074E-01 0.12780720E+03</pdfrwt>
<pdfrwt beam="1">  1       -4 0.75530745E-02 0.12780720E+03</pdfrwt>
<totfact> 0.39359095E+03</totfact>
</mgrwt>
</event>
<event>
 6    4  0.2398389E-003  0.1498273E+03  0.7818608E-02  0.1200685E+00
          4   -1    0    0  502    0  0.00000000000E+00  0.00000000000E+00  0.26167955561E+03  0.26168263741E+03  0.12700000000E+01 0. -1.
         -4   -1    0    0    0  501 -0.00000000000E+00 -0.00000000000E+00 -0.52824420913E+02  0.52839685320E+02  0.12700000000E+01 0. -1.
         25    2    1    2    0    0  0.44770100419E+02 -0.69362087920E+02  0.15706676109E+03  0.21706722141E+03  0.12503099632E+03 0.  0.
    9000005    1    3    3    0    0  0.35571136619E+02 -0.28649853798E+01  0.14439652030E+03  0.14874430737E+03  0.10000000000E+01 0.  0.
    9000005    1    3    3    0    0  0.91989637999E+01 -0.66497102540E+02  0.12670240791E+02  0.68322914040E+02  0.10000000000E+01 0.  0.
         21    1    1    2  502  501 -0.44770100419E+02  0.69362087920E+02  0.51788373602E+02  0.97455101316E+02  0.00000000000E+00 0. -1.
<mgrwt>
<rscale>  1 0.14982727E+03</rscale>
<asrwt>0</asrwt>
<pdfrwt beam="1">  1        4 0.40259804E-01 0.14982727E+03</pdfrwt>
<pdfrwt beam="2">  1       -4 0.81282452E-02 0.14982727E+03</pdfrwt>
<totfact> 0.10879243E+03</totfact>
</mgrwt>
</event>
<event>
 6    4  0.2398389E-003  0.1311827E+03  0.7818608E-02  0.1225711E+00
         -4   -1    0    0    0  501 -0.00000000000E+00  0.00000000000E+00  0.82447498894E+03  0.82447596708E+03  0.12700000000E+01 0. -1.
          4   -1    0    0  502    0  0.00000000000E+00 -0.00000000000E+00 -0.99185679942E+01  0.99995445424E+01  0.12700000000E+01 0. -1.
         25    2    1    2    0    0 -0.21509732603E+02 -0.33538272473E+02  0.72023146410E+03  0.73208077640E+03  0.12498566708E+03 0.  0.
    9000005    1    3    3    0    0 -0.67483336649E+01 -0.34651307875E+02  0.47523733836E+02  0.59209445382E+02  0.10000000000E+01 0.  0.
    9000005    1    3    3    0    0 -0.14761398938E+02  0.11130354026E+01  0.67270773026E+03  0.67287133101E+03  0.10000000000E+01 0.  0.
         21    1    1    2  502  501  0.21509732603E+02  0.33538272473E+02  0.94324956845E+02  0.10239473522E+03  0.00000000000E+00 0. -1.
<mgrwt>
<rscale>  1 0.13118270E+03</rscale>
<asrwt>0</asrwt>
<pdfrwt beam="2">  1        4 0.15322374E-02 0.13118270E+03</pdfrwt>
<pdfrwt beam="1">  1       -4 0.12684864E+00 0.13118270E+03</pdfrwt>
<totfact> 0.12209400E+03</totfact>
</mgrwt>
</event>
<event>
 6    4  0.2398389E-003  0.1832893E+03  0.7818608E-02  0.1164657E+00
         -4   -1    0    0    0  501 -0.00000000000E+00  0.00000000000E+00  0.21516091317E+03  0.21516466126E+03  0.12700000000E+01 0.  1.
          4   -1    0    0  502    0  0.00000000000E+00 -0.00000000000E+00 -0.13039613512E+03  0.13040231959E+03  0.12700000000E+01 0.  1.
         25    2    1    2    0    0 -0.86306382594E+02  0.10257208208E+03  0.10305348097E+03  0.21027359463E+03  0.12500056384E+03 0.  0.
    9000005    1    3    3    0    0 -0.10966976927E+03  0.11131153868E+03  0.98990497799E+02  0.18498063571E+03  0.10000000000E+01 0.  0.
    9000005    1    3    3    0    0  0.23363386677E+02 -0.87394565965E+01  0.40629831730E+01  0.25292958919E+02  0.10000000000E+01 0.  0.
         21    1    1    2  502  501  0.86306382594E+02 -0.10257208208E+03 -0.18288702925E+02  0.13529338622E+03  0.00000000000E+00 0.  1.
<mgrwt>
<rscale>  1 0.18328929E+03</rscale>
<asrwt>0</asrwt>
<pdfrwt beam="2">  1        4 0.20061708E-01 0.18328929E+03</pdfrwt>
<pdfrwt beam="1">  1       -4 0.33102443E-01 0.18328929E+03</pdfrwt>
<totfact> 0.34643741E+02</totfact>
</mgrwt>
</event>
<event>
 6    4  0.2398389E-003  0.1351462E+03  0.7818608E-02  0.1220013E+00
         -4   -1    0    0    0  501 -0.00000000000E+00  0.00000000000E+00  0.54101349675E+02  0.54116253905E+02  0.12700000000E+01 0.  1.
          4   -1    0    0  502    0  0.00000000000E+00 -0.00000000000E+00 -0.21142358364E+03  0.21142739799E+03  0.12700000000E+01 0.  1.
         25    2    1    2    0    0 -0.25947910722E+02 -0.44339445103E+02 -0.45695637496E+02  0.14266249995E+03  0.12500086857E+03 0.  0.
    9000005    1    3    3    0    0 -0.44200754134E+02  0.11968611895E+02  0.23596568789E+02  0.51524289373E+02  0.10000000000E+01 0.  0.
    9000005    1    3    3    0    0  0.18252843412E+02 -0.56308056998E+02 -0.69292206285E+02  0.91138210578E+02  0.10000000000E+01 0.  0.
         21    1    1    2  502  501  0.25947910722E+02  0.44339445103E+02 -0.11162659647E+03  0.12288115194E+03  0.00000000000E+00 0.  1.
<mgrwt>
<rscale>  1 0.13514621E+03</rscale>
<asrwt>0</asrwt>
<pdfrwt beam="2">  1        4 0.32528145E-01 0.13514621E+03</pdfrwt>
<pdfrwt beam="1">  1       -4 0.83247246E-02 0.13514621E+03</pdfrwt>
<totfact> 0.15479637E+03</totfact>
</mgrwt>
</event>
<event>
 6    4  0.2398389E-003  0.1270444E+03  0.7818608E-02  0.1231908E+00
          4   -1    0    0  502    0  0.00000000000E+00  0.00000000000E+00  0.80560142050E+03  0.80560242155E+03  0.12700000000E+01 0. -1.
         -4   -1    0    0    0  501 -0.00000000000E+00 -0.00000000000E+00 -0.73576476636E+01  0.74664502370E+01  0.12700000000E+01 0. -1.
         25    2    1    2    0    0 -0.14810781221E+02 -0.17193197594E+02  0.58588515706E+03  0.59950120809E+03  0.12500126381E+03 0.  0.
    9000005    1    3    3    0    0  0.20833499208E+02 -0.57273477324E+02  0.17896859017E+03  0.18906359291E+03  0.10000000000E+01 0.  0.
    9000005    1    3    3    0    0 -0.35644280429E+02  0.40080279729E+02  0.40691656689E+03  0.41043761518E+03  0.10000000000E+01 0.  0.
         21    1    1    2  502  501  0.14810781221E+02  0.17193197594E+02  0.21235861577E+03  0.21356766370E+03  0.00000000000E+00 0. -1.
<mgrwt>
<rscale>  1 0.12704441E+03</rscale>
<asrwt>0</asrwt>
<pdfrwt beam="1">  1        4 0.12394711E+00 0.12704441E+03</pdfrwt>
<pdfrwt beam="2">  1       -4 0.11403924E-02 0.12704441E+03</pdfrwt>
<totfact> 0.20072146E+03</totfact>
</mgrwt>
</event>
<event>
 6    4  0.2398389E-003  0.1378736E+03  0.7818608E-02  0.1216219E+00
         -4   -1    0    0    0  501 -0.00000000000E+00  0.00000000000E+00  0.37671806139E+02  0.37693207316E+02  0.12700000000E+01 0. -1.
          4   -1    0    0  502    0  0.00000000000E+00 -0.00000000000E+00 -0.26362509754E+03  0.26362815660E+03  0.12700000000E+01 0. -1.
         25    2    1    2    0    0  0.52249605530E+02  0.25573127908E+02 -0.13236586502E+03  0.19112784085E+03  0.12500049271E+03 0.  0.
    9000005    1    3    3    0    0 -0.27315509058E+02 -0.18836272531E+00 -0.96195944373E+02  0.10000416106E+03  0.10000000000E+01 0.  0.
    9000005    1    3    3    0    0  0.79565114588E+02  0.25761490633E+02 -0.36169920646E+02  0.91123679790E+02  0.10000000000E+01 0.  0.
         21    1    1    2  502  501 -0.52249605530E+02 -0.25573127908E+02 -0.93587426385E+02  0.11019352307E+03  0.00000000000E+00 0. -1.
<mgrwt>
<rscale>  1 0.13787360E+03</rscale>
<asrwt>0</asrwt>
<pdfrwt beam="2">  1        4 0.40559588E-01 0.13787360E+03</pdfrwt>
<pdfrwt beam="1">  1       -4 0.57975442E-02 0.13787360E+03</pdfrwt>
<totfact> 0.18345299E+03</totfact>
</mgrwt>
</event>
<event>
 6    4  0.2398389E-003  0.1268198E+03  0.7818608E-02  0.1232252E+00
          4   -1    0    0  502    0  0.00000000000E+00  0.00000000000E+00  0.11718922640E+02  0.11787537819E+02  0.12700000000E+01 0.  1.
         -4   -1    0    0    0  501 -0.00000000000E+00 -0.00000000000E+00 -0.52695525351E+03  0.52695678390E+03  0.12700000000E+01 0.  1.
         25    2    1    2    0    0  0.14937998537E+02  0.15337347945E+02 -0.48738838864E+03  0.50361760926E+03  0.12499950771E+03 0.  0.
    9000005    1    3    3    0    0 -0.21921443305E+02  0.62192812108E+02 -0.29088227435E+03  0.29826497127E+03  0.10000000000E+01 0.  0.
    9000005    1    3    3    0    0  0.36859441841E+02 -0.46855464163E+02 -0.19650611429E+03  0.20535263799E+03  0.10000000000E+01 0.  0.
         21    1    1    2  502  501 -0.14937998537E+02 -0.15337347945E+02 -0.27847942227E+02  0.35126712464E+02  0.00000000000E+00 0. -1.
<mgrwt>
<rscale>  1 0.12681977E+03</rscale>
<asrwt>0</asrwt>
<pdfrwt beam="1">  1        4 0.18083074E-02 0.12681977E+03</pdfrwt>
<pdfrwt beam="2">  1       -4 0.81075416E-01 0.12681977E+03</pdfrwt>
<totfact> 0.26531457E+03</totfact>
</mgrwt>
</event>
<event>
 6    4  0.2398389E-003  0.1296775E+03  0.7818608E-02  0.1227935E+00
          4   -1    0    0  502    0  0.00000000000E+00  0.00000000000E+00  0.88004570785E+01  0.88916221687E+01  0.12700000000E+01 0. -1.
         -4   -1    0    0    0  501 -0.00000000000E+00 -0.00000000000E+00 -0.76687810270E+03  0.76687915430E+03  0.12700000000E+01 0. -1.
         25    2    1    2    0    0  0.30188663343E+02  0.16744351420E+02 -0.57166960460E+03  0.58619312363E+03  0.12499805066E+03 0.  0.
    9000005    1    3    3    0    0 -0.24346028216E+02  0.24879171116E+02 -0.46286087203E+02  0.57923260560E+02  0.10000000000E+01 0.  0.
    9000005    1    3    3    0    0  0.54534691559E+02 -0.81348196959E+01 -0.52538351740E+03  0.52826986307E+03  0.10000000000E+01 0.  0.
         21    1    1    2  502  501 -0.30188663343E+02 -0.16744351420E+02 -0.18640804102E+03  0.18957765284E+03  0.00000000000E+00 0. -1.
<mgrwt>
<rscale>  1 0.12967745E+03</rscale>
<asrwt>0</asrwt>
<pdfrwt beam="1">  1        4 0.13610107E-02 0.12967745E+03</pdfrwt>
<pdfrwt beam="2">  1       -4 0.11798829E+00 0.12967745E+03</pdfrwt>
<totfact> 0.17372504E+03</totfact>
</mgrwt>
</event>
<event>
 6    4  0.2398389E-003  0.1279723E+03  0.7818608E-02  0.1230496E+00
         -4   -1    0    0    0  501 -0.00000000000E+00  0.00000000000E+00  0.25333870671E+03  0.25334188997E+03  0.12700000000E+01 0.  1.
          4   -1    0    0  502    0  0.00000000000E+00 -0.00000000000E+00 -0.23809516276E+02  0.23843363129E+02  0.12700000000E+01 0.  1.
         25    2    1    2    0    0  0.25522582341E+02 -0.10033224874E+02  0.18918151480E+03  0.22839998135E+03  0.12499935252E+03 0.  0.
    9000005    1    3    3    0    0  0.16417478836E+02  0.14409751752E+02 -0.12398075964E+02  0.25137359537E+02  0.10000000000E+01 0.  0.
    9000005    1    3    3    0    0  0.91051035049E+01 -0.24442976626E+02  0.20157959076E+03  0.20326262182E+03  0.10000000000E+01 0.  0.
         21    1    1    2  502  501 -0.25522582341E+02  0.10033224874E+02  0.40347675633E+02  0.48785271749E+02  0.00000000000E+00 0.  1.
<mgrwt>
<rscale>  1 0.12797229E+03</rscale>
<asrwt>0</asrwt>
<pdfrwt beam="2">  1        4 0.36658510E-02 0.12797229E+03</pdfrwt>
<pdfrwt beam="1">  1       -4 0.38978034E-01 0.12797229E+03</pdfrwt>
<totfact> 0.40594175E+03</totfact>
</mgrwt>
</event>
<event>
 6    4  0.2398389E-003  0.1288100E+03  0.7818608E-02  0.1229232E+00
          4   -1    0    0  502    0  0.00000000000E+00  0.00000000000E+00  0.81640869339E+03  0.81640968119E+03  0.12700000000E+01 0.  1.
         -4   -1    0    0    0  501 -0.00000000000E+00 -0.00000000000E+00 -0.78487826081E+01  0.79508671495E+01  0.12700000000E+01 0.  1.
         25    2    1    2    0    0 -0.69985720179E+01 -0.30273587862E+02  0.61765656646E+03  0.63094504482E+03  0.12500618124E+03 0.  0.
    9000005    1    3    3    0    0  0.78741290522E+01 -0.61273363559E+02  0.56290062631E+03  0.56628132769E+03  0.10000000000E+01 0.  0.
    9000005    1    3    3    0    0 -0.14872701070E+02  0.30999775697E+02  0.54755940158E+02  0.64663717129E+02  0.10000000000E+01 0.  0.
         21    1    1    2  502  501  0.69985720179E+01  0.30273587862E+02  0.19090334431E+03  0.19341550352E+03  0.00000000000E+00 0.  1.
<mgrwt>
<rscale>  1 0.12881000E+03</rscale>
<asrwt>0</asrwt>
<pdfrwt beam="1">  1        4 0.12560927E+00 0.12881000E+03</pdfrwt>
<pdfrwt beam="2">  1       -4 0.12154336E-02 0.12881000E+03</pdfrwt>
<totfact> 0.17704963E+03</totfact>
</mgrwt>
</event>
<event>
 6    4  0.2398389E-003  0.1306335E+03  0.7818608E-02  0.1226519E+00
          4   -1    0    0  502    0  0.00000000000E+00  0.00000000000E+00  0.10278544335E+04  0.10278552181E+04  0.12700000000E+01 0. -1.
         -4   -1    0    0    0  501 -0.00000000000E+00 -0.00000000000E+00 -0.83718923637E+01  0.84676727470E+01  0.12700000000E+01 0. -1.
         25    2    1    2    0    0  0.14008830855E+02  0.35276628407E+02  0.54968043102E+03  0.56498998246E+03  0.12499766470E+03 0.  0.
    9000005    1    3    3    0    0 -0.55266562288E+02  0.22489122675E+02  0.22751626688E+03  0.23521225572E+03  0.10000000000E+01 0.  0.
    9000005    1    3    3    0    0  0.69275393144E+02  0.12787505732E+02  0.32216416414E+03  0.32977772674E+03  0.10000000000E+01 0.  0.
         21    1    1    2  502  501 -0.14008830855E+02 -0.35276628407E+02  0.46980211008E+03  0.47133290835E+03  0.00000000000E+00 0. -1.
<mgrwt>
<rscale>  1 0.13063347E+03</rscale>
<asrwt>0</asrwt>
<pdfrwt beam="1">  1        4 0.15813885E+00 0.13063347E+03</pdfrwt>
<pdfrwt beam="2">  1       -4 0.12954118E-02 0.13063347E+03</pdfrwt>
<totfact> 0.90646907E+02</totfact>
</mgrwt>
</event>
<event>
 6    4  0.2398389E-003  0.1307179E+03  0.7818608E-02  0.1226394E+00
         -4   -1    0    0    0  501 -0.00000000000E+00  0.00000000000E+00  0.15982021187E+03  0.15982525777E+03  0.12700000000E+01 0. -1.
          4   -1    0    0  502    0  0.00000000000E+00 -0.00000000000E+00 -0.86157234826E+02  0.86166594530E+02  0.12700000000E+01 0. -1.
         25    2    1    2    0    0  0.13941086314E+02  0.35596667933E+02  0.12574801356E+03  0.18138281513E+03  0.12500274419E+03 0.  0.
    9000005    1    3    3    0    0 -0.53513625524E+02  0.26339793341E+02  0.39722097592E+02  0.71668248667E+02  0.10000000000E+01 0.  0.
    9000005    1    3    3    0    0  0.67454711838E+02  0.92568745912E+01  0.86025915967E+02  0.10971456646E+03  0.10000000000E+01 0.  0.
         21    1    1    2  502  501 -0.13941086314E+02 -0.35596667933E+02 -0.52085036515E+02  0.64609037172E+02  0.00000000000E+00 0. -1.
<mgrwt>
<rscale>  1 0.13071787E+03</rscale>
<asrwt>0</asrwt>
<pdfrwt beam="2">  1        4 0.13256067E-01 0.13071787E+03</pdfrwt>
<pdfrwt beam="1">  1       -4 0.24588833E-01 0.13071787E+03</pdfrwt>
<totfact> 0.11822281E+03</totfact>
</mgrwt>
</event>
<event>
 6    4  0.2398389E-003  0.1365451E+03  0.7818608E-02  0.1218055E+00
         -4   -1    0    0    0  501 -0.00000000000E+00  0.00000000000E+00  0.23243483118E+03  0.23243830072E+03  0.12700000000E+01 0. -1.
          4   -1    0    0  502    0  0.00000000000E+00 -0.00000000000E+00 -0.48291566288E+02  0.48308263004E+02  0.12700000000E+01 0. -1.
         25    2    1    2    0    0  0.26897914880E+02  0.47909268253E+02  0.17960501365E+03  0.22561588684E+03  0.12500308659E+03 0.  0.
    9000005    1    3    3    0    0 -0.31146962865E+01  0.19174282461E+02  0.18289197959E+03  0.18392343690E+03  0.10000000000E+01 0.  0.
    9000005    1    3    3    0    0  0.30012611167E+02  0.28734985792E+02 -0.32869659385E+01  0.41692449947E+02  0.10000000000E+01 0.  0.
         21    1    1    2  502  501 -0.26897914880E+02 -0.47909268253E+02  0.45382512340E+01  0.55130676884E+02  0.00000000000E+00 0. -1.
<mgrwt>
<rscale>  1 0.13654511E+03</rscale>
<asrwt>0</asrwt>
<pdfrwt beam="2">  1        4 0.74310231E-02 0.13654511E+03</pdfrwt>
<pdfrwt beam="1">  1       -4 0.35760756E-01 0.13654511E+03</pdfrwt>
<totfact> 0.15602798E+03</totfact>
</mgrwt>
</event>
<event>
 6    4  0.2398389E-003  0.1289819E+03  0.7818608E-02  0.1228974E+00
         -4   -1    0    0    0  501 -0.00000000000E+00  0.00000000000E+00  0.14086296232E+03  0.14086868727E+03  0.12700000000E+01 0.  1.
          4   -1    0    0  502    0  0.00000000000E+00 -0.00000000000E+00 -0.66038526282E+02  0.66050736964E+02  0.12700000000E+01 0.  1.
         25    2    1    2    0    0 -0.20614342471E+02  0.24214969724E+02  0.10250932359E+03  0.16475582770E+03  0.12500002186E+03 0.  0.
    9000005    1    3    3    0    0  0.47395509338E+02 -0.51675262955E+01  0.67915850954E+02  0.82985543586E+02  0.10000000000E+01 0.  0.
    9000005    1    3    3    0    0 -0.68009851810E+02  0.29382496019E+02  0.34593472635E+02  0.81770284116E+02  0.10000000000E+01 0.  0.
         21    1    1    2  502  501  0.20614342471E+02 -0.24214969724E+02 -0.27684887549E+02  0.42163596536E+02  0.00000000000E+00 0.  1.
<mgrwt>
<rscale>  1 0.12898186E+03</rscale>
<asrwt>0</asrwt>
<pdfrwt beam="2">  1        4 0.10161153E-01 0.12898186E+03</pdfrwt>
<pdfrwt beam="1">  1       -4 0.21672605E-01 0.12898186E+03</pdfrwt>
<totfact> 0.23352704E+03</totfact>
</mgrwt>
</event>
<event>
 6    4  0.2398389E-003  0.1344007E+03  0.7818608E-02  0.1221068E+00
          4   -1    0    0  502    0  0.00000000000E+00  0.00000000000E+00  0.16105445580E+03  0.16105946303E+03  0.12700000000E+01 0.  1.
         -4   -1    0    0    0  501 -0.00000000000E+00 -0.00000000000E+00 -0.53123045943E+02  0.53138224568E+02  0.12700000000E+01 0.  1.
         25    2    1    2    0    0  0.12888719239E+02 -0.47696033649E+02  0.67732634917E+02  0.15050332195E+03  0.12499003710E+03 0.  0.
    9000005    1    3    3    0    0  0.17494105294E+02 -0.14006466612E+02 -0.35397784623E+02  0.41907373852E+02  0.10000000000E+01 0.  0.
    9000005    1    3    3    0    0 -0.46053860546E+01 -0.33689567038E+02  0.10313041954E+03  0.10859594809E+03  0.10000000000E+01 0.  0.
         21    1    1    2  502  501 -0.12888719239E+02  0.47696033649E+02  0.40198774938E+02  0.63694365654E+02  0.00000000000E+00 0.  1.
<mgrwt>
<rscale>  1 0.13440067E+03</rscale>
<asrwt>0</asrwt>
<pdfrwt beam="1">  1        4 0.24779161E-01 0.13440067E+03</pdfrwt>
<pdfrwt beam="2">  1       -4 0.81743291E-02 0.13440067E+03</pdfrwt>
<totfact> 0.26552268E+03</totfact>
</mgrwt>
</event>
<event>
 6    4  0.2398389E-003  0.1389697E+03  0.7818608E-02  0.1214722E+00
         -4   -1    0    0    0  501 -0.00000000000E+00  0.00000000000E+00  0.52474441553E+02  0.52489807738E+02  0.12700000000E+01 0. -1.
          4   -1    0    0  502    0  0.00000000000E+00 -0.00000000000E+00 -0.19795829098E+03  0.19796236477E+03  0.12700000000E+01 0. -1.
         25    2    1    2    0    0  0.53754411840E+02  0.28255379165E+02 -0.76829252707E+02  0.15879325644E+03  0.12499864390E+03 0.  0.
    9000005    1    3    3    0    0  0.35498177300E+01  0.15853102276E+02 -0.10057211770E+03  0.10188067980E+03  0.10000000000E+01 0.  0.
    9000005    1    3    3    0    0  0.50204594110E+02  0.12402276889E+02  0.23742864996E+02  0.56912576642E+02  0.10000000000E+01 0.  0.
         21    1    1    2  502  501 -0.53754411840E+02 -0.28255379165E+02 -0.68654596715E+02  0.91658916065E+02  0.00000000000E+00 0. -1.
<mgrwt>
<rscale>  1 0.13896965E+03</rscale>
<asrwt>0</asrwt>
<pdfrwt beam="2">  1        4 0.30456617E-01 0.13896965E+03</pdfrwt>
<pdfrwt beam="1">  1       -4 0.80744865E-02 0.13896965E+03</pdfrwt>
<totfact> 0.18567450E+03</totfact>
</mgrwt>
</event>
<event>
 6    4  0.2398389E-003  0.1282383E+03  0.7818608E-02  0.1230093E+00
          4   -1    0    0  502    0  0.00000000000E+00  0.00000000000E+00  0.14233713703E+03  0.14234280269E+03  0.12700000000E+01 0.  1.
         -4   -1    0    0    0  501 -0.00000000000E+00 -0.00000000000E+00 -0.43826480623E+02  0.43844877737E+02  0.12700000000E+01 0.  1.
         25    2    1    2    0    0  0.83263000728E+01 -0.27385398739E+02  0.88718031646E+02  0.15593569146E+03  0.12500305354E+03 0.  0.
    9000005    1    3    3    0    0  0.61707925015E+02  0.85277265153E+01  0.31421786984E+02  0.69777638441E+02  0.10000000000E+01 0.  0.
    9000005    1    3    3    0    0 -0.53381624942E+02 -0.35913125254E+02  0.57296244662E+02  0.86158053015E+02  0.10000000000E+01 0.  0.
         21    1    1    2  502  501 -0.83263000728E+01  0.27385398739E+02  0.97926247596E+01  0.30251988970E+02  0.00000000000E+00 0.  1.
<mgrwt>
<rscale>  1 0.12823826E+03</rscale>
<asrwt>0</asrwt>
<pdfrwt beam="1">  1        4 0.21899871E-01 0.12823826E+03</pdfrwt>
<pdfrwt beam="2">  1       -4 0.67443867E-02 0.12823826E+03</pdfrwt>
<totfact> 0.45173241E+03</totfact>
</mgrwt>
</event>
<event>
 6    4  0.2398389E-003  0.1363812E+03  0.7818608E-02  0.1218283E+00
         -4   -1    0    0    0  501 -0.00000000000E+00  0.00000000000E+00  0.31466005050E+03  0.31466261342E+03  0.12700000000E+01 0.  1.
          4   -1    0    0  502    0  0.00000000000E+00 -0.00000000000E+00 -0.38191719080E+02  0.38212829080E+02  0.12700000000E+01 0.  1.
         25    2    1    2    0    0 -0.30768619843E+02 -0.45023020946E+02  0.26368270313E+03  0.29686425903E+03  0.12500415985E+03 0.  0.
    9000005    1    3    3    0    0 -0.49114019046E+02 -0.72770537778E+02  0.24125173484E+03  0.25673164511E+03  0.10000000000E+01 0.  0.
    9000005    1    3    3    0    0  0.18345399203E+02  0.27747516831E+02  0.22430968287E+02  0.40132613926E+02  0.10000000000E+01 0.  0.
         21    1    1    2  502  501  0.30768619843E+02  0.45023020946E+02  0.12785628294E+02  0.56011183464E+02  0.00000000000E+00 0. -1.
<mgrwt>
<rscale>  1 0.13638116E+03</rscale>
<asrwt>0</asrwt>
<pdfrwt beam="2">  1        4 0.58774700E-02 0.13638116E+03</pdfrwt>
<pdfrwt beam="1">  1       -4 0.48411061E-01 0.13638116E+03</pdfrwt>
<totfact> 0.12566707E+03</totfact>
</mgrwt>
</event>
<event>
 6    4  0.2398389E-003  0.1438621E+03  0.7818608E-02  0.1208225E+00
         -4   -1    0    0    0  501 -0.00000000000E+00  0.00000000000E+00  0.61432463317E+02  0.61445589339E+02  0.12700000000E+01 0. -1.
          4   -1    0    0  502    0  0.00000000000E+00 -0.00000000000E+00 -0.19739557220E+03  0.19739965761E+03  0.12700000000E+01 0. -1.
         25    2    1    2    0    0 -0.32141188647E+00 -0.71203076278E+02 -0.11625703847E+03  0.18496486668E+03  0.12500528603E+03 0.  0.
    9000005    1    3    3    0    0  0.25586441684E+02 -0.96979892165E+02 -0.10817563099E+03  0.14752197335E+03  0.10000000000E+01 0.  0.
    9000005    1    3    3    0    0 -0.25907853571E+02  0.25776815886E+02 -0.80814074772E+01  0.37442893327E+02  0.10000000000E+01 0.  0.
         21    1    1    2  502  501  0.32141188647E+00  0.71203076278E+02 -0.19706070416E+02  0.73880380267E+02  0.00000000000E+00 0. -1.
<mgrwt>
<rscale>  1 0.14386210E+03</rscale>
<asrwt>0</asrwt>
<pdfrwt beam="2">  1        4 0.30369873E-01 0.14386210E+03</pdfrwt>
<pdfrwt beam="1">  1       -4 0.94524723E-02 0.14386210E+03</pdfrwt>
<totfact> 0.14458572E+03</totfact>
</mgrwt>
</event>
<event>
 6    4  0.2398389E-003  0.1312057E+03  0.7818608E-02  0.1225678E+00
          4   -1    0    0  502    0  0.00000000000E+00  0.00000000000E+00  0.69578305233E+02  0.69589894806E+02  0.12700000000E+01 0.  1.
         -4   -1    0    0    0  501 -0.00000000000E+00 -0.00000000000E+00 -0.11389721110E+03  0.11390429138E+03  0.12700000000E+01 0.  1.
         25    2    1    2    0    0  0.28127445284E+02 -0.28273773654E+02 -0.54906427462E+02  0.14223094506E+03  0.12499746598E+03 0.  0.
    9000005    1    3    3    0    0  0.66545781721E+02  0.19875557618E+02 -0.32392487227E+02  0.76639755246E+02  0.10000000000E+01 0.  0.
    9000005    1    3    3    0    0 -0.38418336436E+02 -0.48149331271E+02 -0.22513940235E+02  0.65591189815E+02  0.10000000000E+01 0.  0.
         21    1    1    2  502  501 -0.28127445284E+02  0.28273773654E+02  0.10587521599E+02  0.41263241129E+02  0.00000000000E+00 0.  1.
<mgrwt>
<rscale>  1 0.13120566E+03</rscale>
<asrwt>0</asrwt>
<pdfrwt beam="1">  1        4 0.10705791E-01 0.13120566E+03</pdfrwt>
<pdfrwt beam="2">  1       -4 0.17524084E-01 0.13120566E+03</pdfrwt>
<totfact> 0.31419383E+03</totfact>
</mgrwt>
</event>
<event>
 6    4  0.2398389E-003  0.1267970E+03  0.7818608E-02  0.1232287E+00
          4   -1    0    0  502    0  0.00000000000E+00  0.00000000000E+00  0.18385411515E+02  0.18429222896E+02  0.12700000000E+01 0. -1.
         -4   -1    0    0    0  501 -0.00000000000E+00 -0.00000000000E+00 -0.31627794964E+03  0.31628049945E+03  0.12700000000E+01 0. -1.
         25    2    1    2    0    0 -0.10856880915E+02 -0.18314480783E+02 -0.27809169390E+03  0.30563455250E+03  0.12499678953E+03 0.  0.
    9000005    1    3    3    0    0  0.23639699249E+02 -0.15589132739E+02 -0.26811367870E+03  0.26960675278E+03  0.10000000000E+01 0.  0.
    9000005    1    3    3    0    0 -0.34496580165E+02 -0.27253480432E+01 -0.99780152049E+01  0.36027799717E+02  0.10000000000E+01 0.  0.
         21    1    1    2  502  501  0.10856880915E+02  0.18314480783E+02 -0.19800844229E+02  0.29075169849E+02  0.00000000000E+00 0. -1.
<mgrwt>
<rscale>  1 0.12679704E+03</rscale>
<asrwt>0</asrwt>
<pdfrwt beam="1">  1        4 0.28320913E-02 0.12679704E+03</pdfrwt>
<pdfrwt beam="2">  1       -4 0.48661708E-01 0.12679704E+03</pdfrwt>
<totfact> 0.39041398E+03</totfact>
</mgrwt>
</event>
<event>
 6    4  0.2398389E-003  0.1312963E+03  0.7818608E-02  0.1225545E+00
          4   -1    0    0  502    0  0.00000000000E+00  0.00000000000E+00  0.23946845370E+03  0.23947182135E+03  0.12700000000E+01 0.  1.
         -4   -1    0    0    0  501 -0.00000000000E+00 -0.00000000000E+00 -0.50674963686E+02  0.50690875358E+02  0.12700000000E+01 0.  1.
         25    2    1    2    0    0  0.29670513407E+02 -0.27075333069E+02  0.41814506278E+02  0.13779395094E+03  0.12500122780E+03 0.  0.
    9000005    1    3    3    0    0  0.34600945380E+02  0.80502138621E+01 -0.37034658112E+02  0.51328328103E+02  0.10000000000E+01 0.  0.
    9000005    1    3    3    0    0 -0.49304319732E+01 -0.35125546931E+02  0.78849164390E+02  0.86465622832E+02  0.10000000000E+01 0.  0.
         21    1    1    2  502  501 -0.29670513407E+02  0.27075333069E+02  0.14697898374E+03  0.15236874577E+03  0.00000000000E+00 0.  1.
<mgrwt>
<rscale>  1 0.13129631E+03</rscale>
<asrwt>0</asrwt>
<pdfrwt beam="1">  1        4 0.36842784E-01 0.13129631E+03</pdfrwt>
<pdfrwt beam="2">  1       -4 0.77976312E-02 0.13129631E+03</pdfrwt>
<totfact> 0.13486308E+03</totfact>
</mgrwt>
</event>
<event>
 6    4  0.2398389E-003  0.1517402E+03  0.7818608E-02  0.1198351E+00
          4   -1    0    0  502    0  0.00000000000E+00  0.00000000000E+00  0.36383335141E+02  0.36405493761E+02  0.12700000000E+01 0. -1.
         -4   -1    0    0    0  501 -0.00000000000E+00 -0.00000000000E+00 -0.39088417899E+03  0.39088624213E+03  0.12700000000E+01 0. -1.
         25    2    1    2    0    0  0.68809789246E+01 -0.85746109172E+02 -0.20921064782E+03  0.25844569901E+03  0.12500136425E+03 0.  0.
    9000005    1    3    3    0    0 -0.19774161155E+01 -0.22855566130E+02 -0.19098910790E+03  0.19236456642E+03  0.10000000000E+01 0.  0.
    9000005    1    3    3    0    0  0.88583950401E+01 -0.62890543042E+02 -0.18221539923E+02  0.66081132587E+02  0.10000000000E+01 0.  0.
         21    1    1    2  502  501 -0.68809789246E+01  0.85746109172E+02 -0.14529019603E+03  0.16884603688E+03  0.00000000000E+00 0. -1.
<mgrwt>
<rscale>  1 0.15174019E+03</rscale>
<asrwt>0</asrwt>
<pdfrwt beam="1">  1        4 0.55992997E-02 0.15174019E+03</pdfrwt>
<pdfrwt beam="2">  1       -4 0.60137888E-01 0.15174019E+03</pdfrwt>
<totfact> 0.88782054E+02</totfact>
</mgrwt>
</event>
<event>
 6    4  0.2398389E-003  0.1273041E+03  0.7818608E-02  0.1231512E+00
         -4   -1    0    0    0  501 -0.00000000000E+00  0.00000000000E+00  0.12499323234E+02  0.12563677062E+02  0.12700000000E+01 0.  1.
          4   -1    0    0  502    0  0.00000000000E+00 -0.00000000000E+00 -0.46216401581E+03  0.46216576075E+03  0.12700000000E+01 0.  1.
         25    2    1    2    0    0 -0.23364495062E+02 -0.59259607320E+01 -0.35850613750E+03  0.38043787508E+03  0.12500123810E+03 0.  0.
    9000005    1    3    3    0    0  0.22209571614E+02  0.46279862803E+02 -0.21536773243E+03  0.22140314123E+03  0.10000000000E+01 0.  0.
    9000005    1    3    3    0    0 -0.45574066676E+02 -0.52205823535E+02 -0.14313840507E+03  0.15903473385E+03  0.10000000000E+01 0.  0.
         21    1    1    2  502  501  0.23364495062E+02  0.59259607320E+01 -0.91158555069E+02  0.94291562732E+02  0.00000000000E+00 0.  1.
<mgrwt>
<rscale>  1 0.12730407E+03</rscale>
<asrwt>0</asrwt>
<pdfrwt beam="2">  1        4 0.71107228E-01 0.12730407E+03</pdfrwt>
<pdfrwt beam="1">  1       -4 0.19280577E-02 0.12730407E+03</pdfrwt>
<totfact> 0.32063630E+03</totfact>
</mgrwt>
</event>
<event>
 6    4  0.2398389E-003  0.1286033E+03  0.7818608E-02  0.1229543E+00
         -4   -1    0    0    0  501 -0.00000000000E+00  0.00000000000E+00  0.38384751232E+01  0.40431165295E+01  0.12700000000E+01 0.  1.
          4   -1    0    0  502    0  0.00000000000E+00 -0.00000000000E+00 -0.16296305869E+04  0.16296310818E+04  0.12700000000E+01 0.  1.
         25    2    1    2    0    0  0.28797868131E+02  0.91921813005E+01 -0.12206526825E+04  0.12274085579E+04  0.12499993329E+03 0.  0.
    9000005    1    3    3    0    0  0.20664884614E+02 -0.34225366398E+02 -0.10610342439E+04  0.10617876812E+04  0.10000000000E+01 0.  0.
    9000005    1    3    3    0    0  0.81329835171E+01  0.43417547698E+02 -0.15961843858E+03  0.16562087671E+03  0.10000000000E+01 0.  0.
         21    1    1    2  502  501 -0.28797868131E+02 -0.91921813005E+01 -0.40513942926E+03  0.40626564037E+03  0.00000000000E+00 0.  1.
<mgrwt>
<rscale>  1 0.12860325E+03</rscale>
<asrwt>0</asrwt>
<pdfrwt beam="2">  1        4 0.25072764E+00 0.12860325E+03</pdfrwt>
<pdfrwt beam="1">  1       -4 0.60631565E-03 0.12860325E+03</pdfrwt>
<totfact> 0.74696509E+02</totfact>
</mgrwt>
</event>
<event>
 6    4  0.2398389E-003  0.1269655E+03  0.7818608E-02  0.1232029E+00
          4   -1    0    0  502    0  0.00000000000E+00  0.00000000000E+00  0.63741235348E+01  0.64994115762E+01  0.12700000000E+01 0. -1.
         -4   -1    0    0    0  501 -0.00000000000E+00 -0.00000000000E+00 -0.90172082475E+03  0.90172171910E+03  0.12700000000E+01 0. -1.
         25    2    1    2    0    0 -0.83812603249E+01 -0.20651882026E+02 -0.81540633619E+03  0.82523192826E+03  0.12499398614E+03 0.  0.
    9000005    1    3    3    0    0 -0.88150562321E+01  0.47292607241E+02 -0.18430073148E+03  0.19047849102E+03  0.10000000000E+01 0.  0.
    9000005    1    3    3    0    0  0.43379590719E+00 -0.67944489267E+02 -0.63110560471E+03  0.63475343724E+03  0.10000000000E+01 0.  0.
         21    1    1    2  502  501  0.83812603249E+01  0.20651882026E+02 -0.79940365029E+02  0.82989202411E+02  0.00000000000E+00 0. -1.
<mgrwt>
<rscale>  1 0.12696552E+03</rscale>
<asrwt>0</asrwt>
<pdfrwt beam="1">  1        4 0.99034144E-03 0.12696552E+03</pdfrwt>
<pdfrwt beam="2">  1       -4 0.13873589E+00 0.12696552E+03</pdfrwt>
<totfact> 0.18833707E+03</totfact>
</mgrwt>
</event>
<event>
 6    4  0.2398389E-003  0.1314923E+03  0.7818608E-02  0.1225258E+00
          4   -1    0    0  502    0  0.00000000000E+00  0.00000000000E+00  0.91815483878E+01  0.92689660048E+01  0.12700000000E+01 0.  1.
         -4   -1    0    0    0  501 -0.00000000000E+00 -0.00000000000E+00 -0.86567210744E+03  0.86567303903E+03  0.12700000000E+01 0.  1.
         25    2    1    2    0    0 -0.24193560370E+02 -0.32837398401E+02 -0.53729818754E+03  0.55315419741E+03  0.12500640260E+03 0.  0.
    9000005    1    3    3    0    0  0.17304831887E+02 -0.33831893954E+02 -0.48447917153E+03  0.48596823137E+03  0.10000000000E+01 0.  0.
    9000005    1    3    3    0    0 -0.41498392258E+02  0.99449555359E+00 -0.52819016002E+02  0.67185966041E+02  0.10000000000E+01 0.  0.
         21    1    1    2  502  501  0.24193560370E+02  0.32837398401E+02 -0.31919237152E+03  0.32178780762E+03  0.00000000000E+00 0.  1.
<mgrwt>
<rscale>  1 0.13149230E+03</rscale>
<asrwt>0</asrwt>
<pdfrwt beam="1">  1        4 0.14193427E-02 0.13149230E+03</pdfrwt>
<pdfrwt beam="2">  1       -4 0.13318706E+00 0.13149230E+03</pdfrwt>
<totfact> 0.12183229E+03</totfact>
</mgrwt>
</event>
<event>
 6    4  0.2398389E-003  0.1410000E+03  0.7818608E-02  0.1211990E+00
          4   -1    0    0  502    0  0.00000000000E+00  0.00000000000E+00  0.12332200460E+03  0.12332854381E+03  0.12700000000E+01 0.  1.
         -4   -1    0    0    0  501 -0.00000000000E+00 -0.00000000000E+00 -0.88941053423E+02  0.88950120203E+02  0.12700000000E+01 0.  1.
         25    2    1    2    0    0 -0.16895492352E+02  0.63028491154E+02  0.60208875288E+01  0.14112853001E+03  0.12499184988E+03 0.  0.
    9000005    1    3    3    0    0 -0.33182108367E+01  0.48759173164E+02 -0.57002363585E+02  0.75091523790E+02  0.10000000000E+01 0.  0.
    9000005    1    3    3    0    0 -0.13577281515E+02  0.14269317990E+02  0.63023251114E+02  0.66037006218E+02  0.10000000000E+01 0.  0.
         21    1    1    2  502  501  0.16895492352E+02 -0.63028491154E+02  0.28360063649E+02  0.71150134007E+02  0.00000000000E+00 0. -1.
<mgrwt>
<rscale>  1 0.14100004E+03</rscale>
<asrwt>0</asrwt>
<pdfrwt beam="1">  1        4 0.18973816E-01 0.14100004E+03</pdfrwt>
<pdfrwt beam="2">  1       -4 0.13684439E-01 0.14100004E+03</pdfrwt>
<totfact> 0.18207360E+03</totfact>
</mgrwt>
</event>
<event>
 6    4  0.2398389E-003  0.1275191E+03  0.7818608E-02  0.1231184E+00
          4   -1    0    0  502    0  0.00000000000E+00  0.00000000000E+00  0.22795552225E+02  0.22830902331E+02  0.12700000000E+01 0. -1.
         -4   -1    0    0    0  501 -0.00000000000E+00 -0.00000000000E+00 -0.26306839522E+03  0.26307146076E+03  0.12700000000E+01 0. -1.
         25    2    1    2    0    0  0.24425075817E+02 -0.62907341798E+01 -0.21637955373E+03  0.25115978205E+03  0.12499986872E+03 0.  0.
    9000005    1    3    3    0    0 -0.27632730033E+01 -0.19589956233E+02  0.10395854563E+02  0.22371317686E+02  0.10000000000E+01 0.  0.
    9000005    1    3    3    0    0  0.27188348821E+02  0.13299222054E+02 -0.22677540829E+03  0.22878846436E+03  0.10000000000E+01 0.  0.
         21    1    1    2  502  501 -0.24425075817E+02  0.62907341798E+01 -0.23893289265E+02  0.34742581037E+02  0.00000000000E+00 0. -1.
<mgrwt>
<rscale>  1 0.12751912E+03</rscale>
<asrwt>0</asrwt>
<pdfrwt beam="1">  1        4 0.35099633E-02 0.12751912E+03</pdfrwt>
<pdfrwt beam="2">  1       -4 0.40475014E-01 0.12751912E+03</pdfrwt>
<totfact> 0.40338960E+03</totfact>
</mgrwt>
</event>
<event>
 6    4  0.2398389E-003  0.1287249E+03  0.7818608E-02  0.1229360E+00
         -4   -1    0    0    0  501 -0.00000000000E+00  0.00000000000E+00  0.68252993068E+01  0.69424499010E+01  0.12700000000E+01 0. -1.
          4   -1    0    0  502    0  0.00000000000E+00 -0.00000000000E+00 -0.96857167720E+03  0.96857250982E+03  0.12700000000E+01 0. -1.
         25    2    1    2    0    0 -0.66305424552E+01  0.30041214753E+02 -0.67850944923E+03  0.69061217553E+03  0.12499466239E+03 0.  0.
    9000005    1    3    3    0    0  0.33012608309E+02 -0.20762384349E+02 -0.83969732165E+02  0.92589550334E+02  0.10000000000E+01 0.  0.
    9000005    1    3    3    0    0 -0.39643150764E+02  0.50803599101E+02 -0.59453971706E+03  0.59802262520E+03  0.10000000000E+01 0.  0.
         21    1    1    2  502  501  0.66305424552E+01 -0.30041214753E+02 -0.28323692867E+03  0.28490278419E+03  0.00000000000E+00 0. -1.
<mgrwt>
<rscale>  1 0.12872492E+03</rscale>
<asrwt>0</asrwt>
<pdfrwt beam="2">  1        4 0.14901999E+00 0.12872492E+03</pdfrwt>
<pdfrwt beam="1">  1       -4 0.10591224E-02 0.12872492E+03</pdfrwt>
<totfact> 0.14265452E+03</totfact>
</mgrwt>
</event>
<event>
 6    4  0.2398389E-003  0.1286827E+03  0.7818608E-02  0.1229423E+00
          4   -1    0    0  502    0  0.00000000000E+00  0.00000000000E+00  0.45068571873E+02  0.45086462166E+02  0.12700000000E+01 0.  1.
         -4   -1    0    0    0  501 -0.00000000000E+00 -0.00000000000E+00 -0.18196717444E+03  0.18197160623E+03  0.12700000000E+01 0.  1.
         25    2    1    2    0    0 -0.29162005440E+02 -0.90999136504E+01 -0.14654269162E+03  0.19502309620E+03  0.12500406632E+03 0.  0.
    9000005    1    3    3    0    0 -0.11151688199E+02 -0.55829548103E+02 -0.22458587120E+02  0.61210184826E+02  0.10000000000E+01 0.  0.
    9000005    1    3    3    0    0 -0.18010317242E+02  0.46729634452E+02 -0.12408410450E+03  0.13381291138E+03  0.10000000000E+01 0.  0.
         21    1    1    2  502  501  0.29162005440E+02  0.90999136504E+01  0.96440890473E+01  0.32034972191E+02  0.00000000000E+00 0.  1.
<mgrwt>
<rscale>  1 0.12868274E+03</rscale>
<asrwt>0</asrwt>
<pdfrwt beam="1">  1        4 0.69353436E-02 0.12868274E+03</pdfrwt>
<pdfrwt beam="2">  1       -4 0.27996667E-01 0.12868274E+03</pdfrwt>
<totfact> 0.27472442E+03</totfact>
</mgrwt>
</event>
<event>
 6    4  0.2398389E-003  0.1272009E+03  0.7818608E-02  0.1231669E+00
         -4   -1    0    0    0  501 -0.00000000000E+00  0.00000000000E+00  0.59207283587E+02  0.59220902812E+02  0.12700000000E+01 0.  1.
          4   -1    0    0  502    0  0.00000000000E+00 -0.00000000000E+00 -0.11381873317E+03  0.11382581834E+03  0.12700000000E+01 0.  1.
         25    2    1    2    0    0 -0.23373724949E+02 -0.29721104969E+01 -0.16536958589E+02  0.12827137835E+03  0.12499964418E+03 0.  0.
    9000005    1    3    3    0    0 -0.21584506321E+02  0.59546365038E+02 -0.17476824862E+02  0.65712250834E+02  0.10000000000E+01 0.  0.
    9000005    1    3    3    0    0 -0.17892186286E+01 -0.62518475535E+02  0.93986627312E+00  0.62559127513E+02  0.10000000000E+01 0.  0.
         21    1    1    2  502  501  0.23373724949E+02  0.29721104969E+01 -0.38074490992E+02  0.44775342803E+02  0.00000000000E+00 0.  1.
<mgrwt>
<rscale>  1 0.12720093E+03</rscale>
<asrwt>0</asrwt>
<pdfrwt beam="2">  1        4 0.17512167E-01 0.12720093E+03</pdfrwt>
<pdfrwt beam="1">  1       -4 0.91104055E-02 0.12720093E+03</pdfrwt>
<totfact> 0.40952051E+03</totfact>
</mgrwt>
</event>
<event>
 6    4  0.2398389E-003  0.1339720E+03  0.7818608E-02  0.1221678E+00
          4   -1    0    0  502    0  0.00000000000E+00  0.00000000000E+00  0.13829654626E+03  0.13830237745E+03  0.12700000000E+01 0.  1.
         -4   -1    0    0    0  501 -0.00000000000E+00 -0.00000000000E+00 -0.65822720657E+02  0.65834971365E+02  0.12700000000E+01 0.  1.
         25    2    1    2    0    0 -0.36338404503E+02 -0.31681374180E+02  0.24631179980E+02  0.13621748536E+03  0.12499727668E+03 0.  0.
    9000005    1    3    3    0    0  0.29876050029E+02  0.25425635755E+02  0.28794077664E+02  0.48673814597E+02  0.10000000000E+01 0.  0.
    9000005    1    3    3    0    0 -0.66214454533E+02 -0.57107009935E+02 -0.41628976843E+01  0.87543670759E+02  0.10000000000E+01 0.  0.
         21    1    1    2  502  501  0.36338404503E+02  0.31681374180E+02  0.47842645627E+02  0.67919863460E+02  0.00000000000E+00 0.  1.
<mgrwt>
<rscale>  1 0.13397204E+03</rscale>
<asrwt>0</asrwt>
<pdfrwt beam="1">  1        4 0.21277782E-01 0.13397204E+03</pdfrwt>
<pdfrwt beam="2">  1       -4 0.10127963E-01 0.13397204E+03</pdfrwt>
<totfact> 0.24492682E+03</totfact>
</mgrwt>
</event>
<event>
 6    4  0.2398389E-003  0.1290947E+03  0.7818608E-02  0.1228805E+00
          4   -1    0    0  502    0  0.00000000000E+00  0.00000000000E+00  0.22724208132E+03  0.22724563015E+03  0.12700000000E+01 0. -1.
         -4   -1    0    0    0  501 -0.00000000000E+00 -0.00000000000E+00 -0.28885225603E+02  0.28913131241E+02  0.12700000000E+01 0. -1.
         25    2    1    2    0    0  0.27196694953E+02  0.17555713002E+02  0.14915128538E+03  0.19726010752E+03  0.12497031973E+03 0.  0.
    9000005    1    3    3    0    0  0.69775038415E+02  0.32363182768E+02  0.60730174024E+02  0.98005538730E+02  0.10000000000E+01 0.  0.
    9000005    1    3    3    0    0 -0.42578343463E+02 -0.14807469766E+02  0.88421111354E+02  0.99254568791E+02  0.10000000000E+01 0.  0.
         21    1    1    2  502  501 -0.27196694953E+02 -0.17555713002E+02  0.49205570339E+02  0.58898653870E+02  0.00000000000E+00 0.  1.
<mgrwt>
<rscale>  1 0.12909471E+03</rscale>
<asrwt>0</asrwt>
<pdfrwt beam="1">  1        4 0.34962738E-01 0.12909471E+03</pdfrwt>
<pdfrwt beam="2">  1       -4 0.44463006E-02 0.12909471E+03</pdfrwt>
<totfact> 0.36987845E+03</totfact>
</mgrwt>
</event>
<event>
 6    4  0.2398389E-003  0.1283698E+03  0.7818608E-02  0.1229895E+00
          4   -1    0    0  502    0  0.00000000000E+00  0.00000000000E+00  0.12005575557E+04  0.12005582275E+04  0.12700000000E+01 0. -1.
         -4   -1    0    0    0  501 -0.00000000000E+00 -0.00000000000E+00 -0.55752433162E+01  0.57180624371E+01  0.12700000000E+01 0. -1.
         25    2    1    2    0    0 -0.13746503899E+02 -0.25796369015E+02  0.80202278672E+03  0.81223110485E+03  0.12499759296E+03 0.  0.
    9000005    1    3    3    0    0 -0.69476084046E+02 -0.20127035215E+02  0.44876274705E+03  0.45455585678E+03  0.10000000000E+01 0.  0.
    9000005    1    3    3    0    0  0.55729580147E+02 -0.56693338002E+01  0.35326003968E+03  0.35767524807E+03  0.10000000000E+01 0.  0.
         21    1    1    2  502  501  0.13746503899E+02  0.25796369015E+02  0.39295952571E+03  0.39404518506E+03  0.00000000000E+00 0. -1.
<mgrwt>
<rscale>  1 0.12836985E+03</rscale>
<asrwt>0</asrwt>
<pdfrwt beam="1">  1        4 0.18471231E+00 0.12836985E+03</pdfrwt>
<pdfrwt beam="2">  1       -4 0.86876698E-03 0.12836985E+03</pdfrwt>
<totfact> 0.10902226E+03</totfact>
</mgrwt>
</event>
<event>
 6    4  0.2398389E-003  0.1325240E+03  0.7818608E-02  0.1223758E+00
         -4   -1    0    0    0  501 -0.00000000000E+00  0.00000000000E+00  0.34793085006E+02  0.34816255746E+02  0.12700000000E+01 0.  1.
          4   -1    0    0  502    0  0.00000000000E+00 -0.00000000000E+00 -0.40079128511E+03  0.40079329725E+03  0.12700000000E+01 0.  1.
         25    2    1    2    0    0  0.39404947868E+02 -0.19599622357E+02 -0.10006447714E+03  0.16605874123E+03  0.12500284333E+03 0.  0.
    9000005    1    3    3    0    0  0.17589324697E+02 -0.69868670062E+02 -0.80068626864E+02  0.10771722428E+03  0.10000000000E+01 0.  0.
    9000005    1    3    3    0    0  0.21815623171E+02  0.50269047705E+02 -0.19995850275E+02  0.58341516947E+02  0.10000000000E+01 0.  0.
         21    1    1    2  502  501 -0.39404947868E+02  0.19599622357E+02 -0.26593372296E+03  0.26955081176E+03  0.00000000000E+00 0.  1.
<mgrwt>
<rscale>  1 0.13252398E+03</rscale>
<asrwt>0</asrwt>
<pdfrwt beam="2">  1        4 0.61662131E-01 0.13252398E+03</pdfrwt>
<pdfrwt beam="1">  1       -4 0.53547198E-02 0.13252398E+03</pdfrwt>
<totfact> 0.88090022E+02</totfact>
</mgrwt>
</event>
<event>
 6    4  0.2398389E-003  0.1504853E+03  0.7818608E-02  0.1199878E+00
         -4   -1    0    0    0  501 -0.00000000000E+00  0.00000000000E+00  0.36410663182E+03  0.36410884668E+03  0.12700000000E+01 0. -1.
          4   -1    0    0  502    0  0.00000000000E+00 -0.00000000000E+00 -0.40290511341E+02  0.40310522251E+02  0.12700000000E+01 0. -1.
         25    2    1    2    0    0 -0.85124843258E+00 -0.83785543260E+02  0.25455503979E+03  0.29570948355E+03  0.12500035397E+03 0.  0.
    9000005    1    3    3    0    0 -0.46747406181E+02 -0.19493881923E+02  0.18033163110E+03  0.18731211545E+03  0.10000000000E+01 0.  0.
    9000005    1    3    3    0    0  0.45896157748E+02 -0.64291661337E+02  0.74223408685E+02  0.10839736810E+03  0.10000000000E+01 0.  0.
         21    1    1    2  502  501  0.85124843258E+00  0.83785543260E+02  0.69261080687E+02  0.10870988539E+03  0.00000000000E+00 0. -1.
<mgrwt>
<rscale>  1 0.15048532E+03</rscale>
<asrwt>0</asrwt>
<pdfrwt beam="2">  1        4 0.62002501E-02 0.15048532E+03</pdfrwt>
<pdfrwt beam="1">  1       -4 0.56018112E-01 0.15048532E+03</pdfrwt>
<totfact> 0.87110310E+02</totfact>
</mgrwt>
</event>
<event>
 6    4  0.2398389E-003  0.1269215E+03  0.7818608E-02  0.1232097E+00
         -4   -1    0    0    0  501 -0.00000000000E+00  0.00000000000E+00  0.62033549438E+02  0.62046548300E+02  0.12700000000E+01 0. -1.
          4   -1    0    0  502    0  0.00000000000E+00 -0.00000000000E+00 -0.12721428307E+03  0.12722062221E+03  0.12700000000E+01 0. -1.
         25    2    1    2    0    0  0.12546692796E+02 -0.18102095908E+02 -0.70651751895E+01  0.12711796691E+03  0.12499582166E+03 0.  0.
    9000005    1    3    3    0    0  0.64462950387E+02 -0.17204455995E+02 -0.26319540503E+02  0.71729934413E+02  0.10000000000E+01 0.  0.
    9000005    1    3    3    0    0 -0.51916257591E+02 -0.89763991259E+00  0.19254365313E+02  0.55388032492E+02  0.10000000000E+01 0.  0.
         21    1    1    2  502  501 -0.12546692796E+02  0.18102095908E+02 -0.58115558440E+02  0.62149203608E+02  0.00000000000E+00 0. -1.
<mgrwt>
<rscale>  1 0.12692147E+03</rscale>
<asrwt>0</asrwt>
<pdfrwt beam="2">  1        4 0.19572916E-01 0.12692147E+03</pdfrwt>
<pdfrwt beam="1">  1       -4 0.95451106E-02 0.12692147E+03</pdfrwt>
<totfact> 0.31052817E+03</totfact>
</mgrwt>
</event>
<event>
 6    4  0.2398389E-003  0.1444644E+03  0.7818608E-02  0.1207445E+00
          4   -1    0    0  502    0  0.00000000000E+00  0.00000000000E+00  0.17803056612E+02  0.17848297530E+02  0.12700000000E+01 0. -1.
         -4   -1    0    0    0  501 -0.00000000000E+00 -0.00000000000E+00 -0.15143093187E+04  0.15143098512E+04  0.12700000000E+01 0. -1.
         25    2    1    2    0    0  0.29591716558E+02  0.66095347216E+02 -0.14180473793E+04  0.14253870811E+04  0.12500278509E+03 0.  0.
    9000005    1    3    3    0    0 -0.14156342162E+01  0.72468646216E+02 -0.13271844550E+04  0.13291626260E+04  0.10000000000E+01 0.  0.
    9000005    1    3    3    0    0  0.31007350774E+02 -0.63732989998E+01 -0.90862924315E+02  0.96224455089E+02  0.10000000000E+01 0.  0.
         21    1    1    2  502  501 -0.29591716558E+02 -0.66095347216E+02 -0.78458882729E+02  0.10677106767E+03  0.00000000000E+00 0. -1.
<mgrwt>
<rscale>  1 0.14446439E+03</rscale>
<asrwt>0</asrwt>
<pdfrwt beam="1">  1        4 0.27424540E-02 0.14446439E+03</pdfrwt>
<pdfrwt beam="2">  1       -4 0.23297408E+00 0.14446439E+03</pdfrwt>
<totfact> 0.97322374E+01</totfact>
</mgrwt>
</event>
<event>
 6    4  0.2398389E-003  0.1271833E+03  0.7818608E-02  0.1231696E+00
          4   -1    0    0  502    0  0.00000000000E+00  0.00000000000E+00  0.11174636040E+03  0.11175357695E+03  0.12700000000E+01 0. -1.
         -4   -1    0    0    0  501 -0.00000000000E+00 -0.00000000000E+00 -0.50861084435E+02  0.50876937898E+02  0.12700000000E+01 0. -1.
         25    2    1    2    0    0  0.23187739303E+02  0.36316707450E+01  0.48728374176E+02  0.13619851630E+03  0.12499888442E+03 0.  0.
    9000005    1    3    3    0    0  0.18535766771E+02  0.60249730055E+02  0.27442598649E+01  0.63104164551E+02  0.10000000000E+01 0.  0.
    9000005    1    3    3    0    0  0.46519725312E+01 -0.56618059310E+02  0.45984114311E+02  0.73094351748E+02  0.10000000000E+01 0.  0.
         21    1    1    2  502  501 -0.23187739303E+02 -0.36316707450E+01  0.12156901785E+02  0.26431998551E+02  0.00000000000E+00 0. -1.
<mgrwt>
<rscale>  1 0.12718326E+03</rscale>
<asrwt>0</asrwt>
<pdfrwt beam="1">  1        4 0.17193522E-01 0.12718326E+03</pdfrwt>
<pdfrwt beam="2">  1       -4 0.78265568E-02 0.12718326E+03</pdfrwt>
<totfact> 0.54441704E+03</totfact>
</mgrwt>
</event>
<event>
 6    4  0.2398389E-003  0.1273056E+03  0.7818608E-02  0.1231509E+00
         -4   -1    0    0    0  501 -0.00000000000E+00  0.00000000000E+00  0.93258512102E+02  0.93267159169E+02  0.12700000000E+01 0. -1.
          4   -1    0    0  502    0  0.00000000000E+00 -0.00000000000E+00 -0.17956978416E+03  0.17957427511E+03  0.12700000000E+01 0. -1.
         25    2    1    2    0    0 -0.10807221830E+01  0.24098622772E+02  0.48244422347E+02  0.13614049619E+03  0.12499919534E+03 0.  0.
    9000005    1    3    3    0    0  0.52080679615E+02  0.27404050158E+02 -0.71433506675E+01  0.59290864498E+02  0.10000000000E+01 0.  0.
    9000005    1    3    3    0    0 -0.53161401798E+02 -0.33054273865E+01  0.55387773014E+02  0.76849631689E+02  0.10000000000E+01 0.  0.
         21    1    1    2  502  501  0.10807221830E+01 -0.24098622772E+02 -0.13455569440E+03  0.13670093809E+03  0.00000000000E+00 0. -1.
<mgrwt>
<rscale>  1 0.12730558E+03</rscale>
<asrwt>0</asrwt>
<pdfrwt beam="2">  1        4 0.27627131E-01 0.12730558E+03</pdfrwt>
<pdfrwt beam="1">  1       -4 0.14348474E-01 0.12730558E+03</pdfrwt>
<totfact> 0.82584236E+02</totfact>
</mgrwt>
</event>
<event>
 6    4  0.2398389E-003  0.1273439E+03  0.7818608E-02  0.1231451E+00
         -4   -1    0    0    0  501 -0.00000000000E+00  0.00000000000E+00  0.36374747484E+03  0.36374969189E+03  0.12700000000E+01 0. -1.
          4   -1    0    0  502    0  0.00000000000E+00 -0.00000000000E+00 -0.16944622047E+02  0.16992148667E+02  0.12700000000E+01 0. -1.
         25    2    1    2    0    0 -0.24436762575E+02  0.26968940420E+01  0.31981041988E+03  0.34423129363E+03  0.12494819025E+03 0.  0.
    9000005    1    3    3    0    0  0.21574026480E+02  0.51718439180E+02  0.18923595143E+03  0.19736129530E+03  0.10000000000E+01 0.  0.
    9000005    1    3    3    0    0 -0.46010789056E+02 -0.49021545138E+02  0.13057446845E+03  0.14686999832E+03  0.10000000000E+01 0.  0.
         21    1    1    2  502  501  0.24436762575E+02 -0.26968940420E+01  0.26992432911E+02  0.36510546930E+02  0.00000000000E+00 0. -1.
<mgrwt>
<rscale>  1 0.12734394E+03</rscale>
<asrwt>0</asrwt>
<pdfrwt beam="2">  1        4 0.26106916E-02 0.12734394E+03</pdfrwt>
<pdfrwt beam="1">  1       -4 0.55964972E-01 0.12734394E+03</pdfrwt>
<totfact> 0.33314923E+03</totfact>
</mgrwt>
</event>
<event>
 6    4  0.2398389E-003  0.1271291E+03  0.7818608E-02  0.1231779E+00
         -4   -1    0    0    0  501 -0.00000000000E+00  0.00000000000E+00  0.56994251594E+01  0.58392077500E+01  0.12700000000E+01 0.  1.
          4   -1    0    0  502    0  0.00000000000E+00 -0.00000000000E+00 -0.11135609270E+04  0.11135616512E+04  0.12700000000E+01 0.  1.
         25    2    1    2    0    0  0.59005675994E+01  0.22147564904E+02 -0.74117976436E+03  0.75200348834E+03  0.12504587983E+03 0.  0.
    9000005    1    3    3    0    0  0.24185273302E+02 -0.38401391586E+02 -0.13280164011E+03  0.14034553764E+03  0.10000000000E+01 0.  0.
    9000005    1    3    3    0    0 -0.18284705703E+02  0.60548956490E+02 -0.60837812425E+03  0.61165795070E+03  0.10000000000E+01 0.  0.
         21    1    1    2  502  501 -0.59005675994E+01 -0.22147564904E+02 -0.36668173745E+03  0.36739737058E+03  0.00000000000E+00 0.  1.
<mgrwt>
<rscale>  1 0.12712908E+03</rscale>
<asrwt>0</asrwt>
<pdfrwt beam="2">  1        4 0.17132770E+00 0.12712908E+03</pdfrwt>
<pdfrwt beam="1">  1       -4 0.88764374E-03 0.12712908E+03</pdfrwt>
<totfact> 0.12912997E+03</totfact>
</mgrwt>
</event>
<event>
 6    4  0.2398389E-003  0.1269948E+03  0.7818608E-02  0.1231984E+00
          4   -1    0    0  502    0  0.00000000000E+00  0.00000000000E+00  0.10843556723E+03  0.10844300411E+03  0.12700000000E+01 0. -1.
         -4   -1    0    0    0  501 -0.00000000000E+00 -0.00000000000E+00 -0.57340722267E+02  0.57354784719E+02  0.12700000000E+01 0. -1.
         25    2    1    2    0    0 -0.23682935949E+01  0.22295440662E+02  0.21711522883E+02  0.12883733557E+03  0.12499989329E+03 0.  0.
    9000005    1    3    3    0    0  0.38359147926E+02 -0.36442096310E+02  0.22111937602E+02  0.57353189952E+02  0.10000000000E+01 0.  0.
    9000005    1    3    3    0    0 -0.40727441521E+02  0.58737536972E+02 -0.40041471886E+00  0.71484145616E+02  0.10000000000E+01 0.  0.
         21    1    1    2  502  501  0.23682935949E+01 -0.22295440662E+02  0.29383322079E+02  0.36960453261E+02  0.00000000000E+00 0.  1.
<mgrwt>
<rscale>  1 0.12699476E+03</rscale>
<asrwt>0</asrwt>
<pdfrwt beam="1">  1        4 0.16684049E-01 0.12699476E+03</pdfrwt>
<pdfrwt beam="2">  1       -4 0.88233035E-02 0.12699476E+03</pdfrwt>
<totfact> 0.47039320E+03</totfact>
</mgrwt>
</event>
<event>
 6    4  0.2398389E-003  0.1308003E+03  0.7818608E-02  0.1226273E+00
         -4   -1    0    0    0  501 -0.00000000000E+00  0.00000000000E+00  0.50449379605E+03  0.50449539458E+03  0.12700000000E+01 0.  1.
          4   -1    0    0  502    0  0.00000000000E+00 -0.00000000000E+00 -0.18367560020E+02  0.18411413880E+02  0.12700000000E+01 0.  1.
         25    2    1    2    0    0 -0.36886089123E+02  0.11096945675E+02  0.45486666037E+03  0.47329948194E+03  0.12499998046E+03 0.  0.
    9000005    1    3    3    0    0 -0.80937949094E+02  0.51027062811E+01  0.35216614860E+03  0.36138481628E+03  0.10000000000E+01 0.  0.
    9000005    1    3    3    0    0  0.44051859971E+02  0.59942393935E+01  0.10270051177E+03  0.11191466566E+03  0.10000000000E+01 0.  0.
         21    1    1    2  502  501  0.36886089123E+02 -0.11096945675E+02  0.31259575661E+02  0.49607326522E+02  0.00000000000E+00 0. -1.
<mgrwt>
<rscale>  1 0.13080031E+03</rscale>
<asrwt>0</asrwt>
<pdfrwt beam="2">  1        4 0.28292747E-02 0.13080031E+03</pdfrwt>
<pdfrwt beam="1">  1       -4 0.77617929E-01 0.13080031E+03</pdfrwt>
<totfact> 0.14722261E+03</totfact>
</mgrwt>
</event>
<event>
 6    4  0.2398389E-003  0.1704399E+03  0.7818608E-02  0.1177390E+00
          4   -1    0    0  502    0  0.00000000000E+00  0.00000000000E+00  0.43928499389E+03  0.43928682971E+03  0.12700000000E+01 0. -1.
         -4   -1    0    0    0  501 -0.00000000000E+00 -0.00000000000E+00 -0.35723966884E+03  0.35724192628E+03  0.12700000000E+01 0. -1.
         25    2    1    2    0    0  0.82688871421E+01  0.11558105736E+03 -0.32842426949E+03  0.37001657168E+03  0.12498962843E+03 0.  0.
    9000005    1    3    3    0    0  0.61759371531E+02  0.93282280843E+02 -0.23069594744E+03  0.25639310454E+03  0.10000000000E+01 0.  0.
    9000005    1    3    3    0    0 -0.53490484389E+02  0.22298776516E+02 -0.97728322046E+02  0.11362346714E+03  0.10000000000E+01 0.  0.
         21    1    1    2  502  501 -0.82688871421E+01 -0.11558105736E+03  0.41046959454E+03  0.42651218430E+03  0.00000000000E+00 0. -1.
<mgrwt>
<rscale>  1 0.17043991E+03</rscale>
<asrwt>0</asrwt>
<pdfrwt beam="1">  1        4 0.67582622E-01 0.17043991E+03</pdfrwt>
<pdfrwt beam="2">  1       -4 0.54960264E-01 0.17043991E+03</pdfrwt>
<totfact> 0.11461271E+01</totfact>
</mgrwt>
</event>
<event>
 6    4  0.2398389E-003  0.1270052E+03  0.7818608E-02  0.1231968E+00
         -4   -1    0    0    0  501 -0.00000000000E+00  0.00000000000E+00  0.31480871199E+03  0.31481127369E+03  0.12700000000E+01 0. -1.
          4   -1    0    0  502    0  0.00000000000E+00 -0.00000000000E+00 -0.58923985241E+02  0.58937669929E+02  0.12700000000E+01 0. -1.
         25    2    1    2    0    0  0.66050348807E+01 -0.21497843858E+02  0.29914651534E+03  0.32499070198E+03  0.12499813981E+03 0.  0.
    9000005    1    3    3    0    0  0.40982887751E+02 -0.53915190586E+02  0.23947944046E+03  0.24887315498E+03  0.10000000000E+01 0.  0.
    9000005    1    3    3    0    0 -0.34377852870E+02  0.32417346727E+02  0.59667074878E+02  0.76117547000E+02  0.10000000000E+01 0.  0.
         21    1    1    2  502  501 -0.66050348807E+01  0.21497843858E+02 -0.43261788591E+02  0.48758241646E+02  0.00000000000E+00 0. -1.
<mgrwt>
<rscale>  1 0.12700519E+03</rscale>
<asrwt>0</asrwt>
<pdfrwt beam="2">  1        4 0.90664782E-02 0.12700519E+03</pdfrwt>
<pdfrwt beam="1">  1       -4 0.48433359E-01 0.12700519E+03</pdfrwt>
<totfact> 0.60610858E+02</totfact>
</mgrwt>
</event>
<event>
 6    4  0.2398389E-003  0.1267374E+03  0.7818608E-02  0.1232379E+00
         -4   -1    0    0    0  501 -0.00000000000E+00  0.00000000000E+00  0.15142671418E+03  0.15143203977E+03  0.12700000000E+01 0.  1.
          4   -1    0    0  502    0  0.00000000000E+00 -0.00000000000E+00 -0.41109737342E+02  0.41129349671E+02  0.12700000000E+01 0.  1.
         25    2    1    2    0    0 -0.77963969415E+01  0.19400811557E+02  0.11499903308E+03  0.17113484177E+03  0.12500072466E+03 0.  0.
    9000005    1    3    3    0    0  0.10375724343E+02  0.68128731287E+02  0.39457719493E+02  0.79417197822E+02  0.10000000000E+01 0.  0.
    9000005    1    3    3    0    0 -0.18172121284E+02 -0.48727919730E+02  0.75541313585E+02  0.91717643948E+02  0.10000000000E+01 0.  0.
         21    1    1    2  502  501  0.77963969415E+01 -0.19400811557E+02 -0.46820562381E+01  0.21426547667E+02  0.00000000000E+00 0.  1.
<mgrwt>
<rscale>  1 0.12673735E+03</rscale>
<asrwt>0</asrwt>
<pdfrwt beam="2">  1        4 0.63264932E-02 0.12673735E+03</pdfrwt>
<pdfrwt beam="1">  1       -4 0.23298336E-01 0.12673735E+03</pdfrwt>
<totfact> 0.44665210E+03</totfact>
</mgrwt>
</event>
<event>
 6    4  0.2398389E-003  0.1268396E+03  0.7818608E-02  0.1232222E+00
         -4   -1    0    0    0  501 -0.00000000000E+00  0.00000000000E+00  0.85073441939E+03  0.85073536734E+03  0.12700000000E+01 0.  1.
          4   -1    0    0  502    0  0.00000000000E+00 -0.00000000000E+00 -0.64678426141E+01  0.65913494886E+01  0.12700000000E+01 0.  1.
         25    2    1    2    0    0  0.20534390940E+02  0.64537425846E+01  0.68936679216E+03  0.70093856101E+03  0.12499992070E+03 0.  0.
    9000005    1    3    3    0    0  0.26692853725E+02  0.30737567933E+02  0.66408496673E+03  0.66533236022E+03  0.10000000000E+01 0.  0.
    9000005    1    3    3    0    0 -0.61584627848E+01 -0.24283825348E+02  0.25281825426E+02  0.35606200784E+02  0.10000000000E+01 0.  0.
         21    1    1    2  502  501 -0.20534390940E+02 -0.64537425846E+01  0.15489978462E+03  0.15638815582E+03  0.00000000000E+00 0.  1.
<mgrwt>
<rscale>  1 0.12683963E+03</rscale>
<asrwt>0</asrwt>
<pdfrwt beam="2">  1        4 0.10046259E-02 0.12683963E+03</pdfrwt>
<pdfrwt beam="1">  1       -4 0.13089183E+00 0.12683963E+03</pdfrwt>
<totfact> 0.21270087E+03</totfact>
</mgrwt>
</event>
<event>
 6    4  0.2398389E-003  0.1289418E+03  0.7818608E-02  0.1229034E+00
          4   -1    0    0  502    0  0.00000000000E+00  0.00000000000E+00  0.29991755768E+02  0.30018632781E+02  0.12700000000E+01 0. -1.
         -4   -1    0    0    0  501 -0.00000000000E+00 -0.00000000000E+00 -0.22339031763E+03  0.22339392765E+03  0.12700000000E+01 0. -1.
         25    2    1    2    0    0 -0.24170711993E+02  0.20412124652E+02 -0.17301434589E+03  0.21577754466E+03  0.12500042698E+03 0.  0.
    9000005    1    3    3    0    0 -0.24397407089E+02  0.27804202073E+02  0.52344967116E+01  0.37372544486E+02  0.10000000000E+01 0.  0.
    9000005    1    3    3    0    0  0.22669509554E+00 -0.73920774205E+01 -0.17824884260E+03  0.17840500018E+03  0.10000000000E+01 0.  0.
         21    1    1    2  502  501  0.24170711993E+02 -0.20412124652E+02 -0.20384215972E+02  0.37635015768E+02  0.00000000000E+00 0. -1.
<mgrwt>
<rscale>  1 0.12894179E+03</rscale>
<asrwt>0</asrwt>
<pdfrwt beam="1">  1        4 0.46164616E-02 0.12894179E+03</pdfrwt>
<pdfrwt beam="2">  1       -4 0.34370085E-01 0.12894179E+03</pdfrwt>
<totfact> 0.35989509E+03</totfact>
</mgrwt>
</event>
<event>
 6    4  0.2398389E-003  0.1325122E+03  0.7818608E-02  0.1223775E+00
          4   -1    0    0  502    0  0.00000000000E+00  0.00000000000E+00  0.84558904786E+01  0.85507300148E+01  0.12700000000E+01 0.  1.
         -4   -1    0    0    0  501 -0.00000000000E+00 -0.00000000000E+00 -0.11472603364E+04  0.11472610394E+04  0.12700000000E+01 0.  1.
         25    2    1    2    0    0 -0.33182752973E+02 -0.28866314251E+02 -0.10294610576E+04  0.10379545008E+04  0.12500046927E+03 0.  0.
    9000005    1    3    3    0    0  0.36609543918E+02  0.23569783077E+02 -0.42418664006E+03  0.42641657917E+03  0.10000000000E+01 0.  0.
    9000005    1    3    3    0    0 -0.69792296891E+02 -0.52436097328E+02 -0.60527441754E+03  0.61153792159E+03  0.10000000000E+01 0.  0.
         21    1    1    2  502  501  0.33182752973E+02  0.28866314251E+02 -0.10934338836E+03  0.11785726864E+03  0.00000000000E+00 0.  1.
<mgrwt>
<rscale>  1 0.13251217E+03</rscale>
<asrwt>0</asrwt>
<pdfrwt beam="1">  1        4 0.13082566E-02 0.13251217E+03</pdfrwt>
<pdfrwt beam="2">  1       -4 0.17650882E+00 0.13251217E+03</pdfrwt>
<totfact> 0.66985483E+02</totfact>
</mgrwt>
</event>
<event>
 6    4  0.2398389E-003  0.1274412E+03  0.7818608E-02  0.1231303E+00
         -4   -1    0    0    0  501 -0.00000000000E+00  0.00000000000E+00  0.14820307445E+02  0.14874623114E+02  0.12700000000E+01 0. -1.
          4   -1    0    0  502    0  0.00000000000E+00 -0.00000000000E+00 -0.41370852550E+03  0.41371047481E+03  0.12700000000E+01 0. -1.
         25    2    1    2    0    0  0.17435665248E+02  0.17681344024E+02 -0.28777923905E+03  0.31473503177E+03  0.12499846977E+03 0.  0.
    9000005    1    3    3    0    0 -0.23960882853E+02 -0.45058986285E+02 -0.95539198922E+02  0.10831977974E+03  0.10000000000E+01 0.  0.
    9000005    1    3    3    0    0  0.41396548101E+02  0.62740330308E+02 -0.19224004013E+03  0.20641525203E+03  0.10000000000E+01 0.  0.
         21    1    1    2  502  501 -0.17435665248E+02 -0.17681344024E+02 -0.11110897900E+03  0.11385006616E+03  0.00000000000E+00 0.  1.
<mgrwt>
<rscale>  1 0.12744116E+03</rscale>
<asrwt>0</asrwt>
<pdfrwt beam="2">  1        4 0.63651785E-01 0.12744116E+03</pdfrwt>
<pdfrwt beam="1">  1       -4 0.22843757E-02 0.12744116E+03</pdfrwt>
<totfact> 0.31298560E+03</totfact>
</mgrwt>
</event>
<event>
 6    4  0.2398389E-003  0.1276189E+03  0.7818608E-02  0.1231032E+00
          4   -1    0    0  502    0  0.00000000000E+00  0.00000000000E+00  0.10002269599E+03  0.10003075833E+03  0.12700000000E+01 0.  1.
         -4   -1    0    0    0  501 -0.00000000000E+00 -0.00000000000E+00 -0.72893837916E+02  0.72904900426E+02  0.12700000000E+01 0.  1.
         25    2    1    2    0    0  0.17184781125E+02 -0.19140674853E+02 -0.97290258600E+01  0.12798918232E+03  0.12499957884E+03 0.  0.
    9000005    1    3    3    0    0  0.49492032374E+02  0.34212047815E+02  0.13063027392E+02  0.61575710867E+02  0.10000000000E+01 0.  0.
    9000005    1    3    3    0    0 -0.32307251249E+02 -0.53352722668E+02 -0.22792053252E+02  0.66413471455E+02  0.10000000000E+01 0.  0.
         21    1    1    2  502  501 -0.17184781125E+02  0.19140674853E+02  0.36857883933E+02  0.44946476437E+02  0.00000000000E+00 0.  1.
<mgrwt>
<rscale>  1 0.12761887E+03</rscale>
<asrwt>0</asrwt>
<pdfrwt beam="1">  1        4 0.15389578E-01 0.12761887E+03</pdfrwt>
<pdfrwt beam="2">  1       -4 0.11215908E-01 0.12761887E+03</pdfrwt>
<totfact> 0.36246090E+03</totfact>
</mgrwt>
</event>
<event>
 6    4  0.2398389E-003  0.1297609E+03  0.7818608E-02  0.1227811E+00
          4   -1    0    0  502    0  0.00000000000E+00  0.00000000000E+00  0.28395999306E+03  0.28396283306E+03  0.12700000000E+01 0.  1.
         -4   -1    0    0    0  501 -0.00000000000E+00 -0.00000000000E+00 -0.38375904855E+02  0.38396913593E+02  0.12700000000E+01 0.  1.
         25    2    1    2    0    0 -0.33308778682E+02 -0.10180609446E+02  0.78443576723E+02  0.15162875906E+03  0.12499906519E+03 0.  0.
    9000005    1    3    3    0    0 -0.53008991849E+02 -0.45964156759E+02  0.85026750927E+02  0.11024157699E+03  0.10000000000E+01 0.  0.
    9000005    1    3    3    0    0  0.19700213168E+02  0.35783547314E+02 -0.65831742044E+01  0.41387182071E+02  0.10000000000E+01 0.  0.
         21    1    1    2  502  501  0.33308778682E+02  0.10180609446E+02  0.16714051148E+03  0.17073098759E+03  0.00000000000E+00 0.  1.
<mgrwt>
<rscale>  1 0.12976088E+03</rscale>
<asrwt>0</asrwt>
<pdfrwt beam="1">  1        4 0.43687984E-01 0.12976088E+03</pdfrwt>
<pdfrwt beam="2">  1       -4 0.59058203E-02 0.12976088E+03</pdfrwt>
<totfact> 0.15160433E+03</totfact>
</mgrwt>
</event>
<event>
 6    4  0.2398389E-003  0.1268785E+03  0.7818608E-02  0.1232162E+00
          4   -1    0    0  502    0  0.00000000000E+00  0.00000000000E+00  0.10115513302E+02  0.10194925667E+02  0.12700000000E+01 0. -1.
         -4   -1    0    0    0  501 -0.00000000000E+00 -0.00000000000E+00 -0.60368147747E+03  0.60368281336E+03  0.12700000000E+01 0. -1.
         25    2    1    2    0    0  0.20966347236E+02 -0.57397353796E+01 -0.55759907557E+03  0.57185215927E+03  0.12500252277E+03 0.  0.
    9000005    1    3    3    0    0  0.19194824211E+02  0.31641025589E+02 -0.46751448738E+02  0.59634668909E+02  0.10000000000E+01 0.  0.
    9000005    1    3    3    0    0  0.17715230253E+01 -0.37380760968E+02 -0.51084762684E+03  0.51221749036E+03  0.10000000000E+01 0.  0.
         21    1    1    2  502  501 -0.20966347236E+02  0.57397353796E+01 -0.35966888594E+02  0.42025579756E+02  0.00000000000E+00 0. -1.
<mgrwt>
<rscale>  1 0.12687854E+03</rscale>
<asrwt>0</asrwt>
<pdfrwt beam="1">  1        4 0.15624447E-02 0.12687854E+03</pdfrwt>
<pdfrwt beam="2">  1       -4 0.92880257E-01 0.12687854E+03</pdfrwt>
<totfact> 0.24465116E+03</totfact>
</mgrwt>
</event>
<event>
 6    4  0.2398389E-003  0.1436707E+03  0.7818608E-02  0.1208473E+00
          4   -1    0    0  502    0  0.00000000000E+00  0.00000000000E+00  0.43123576152E+03  0.43123763160E+03  0.12700000000E+01 0.  1.
         -4   -1    0    0    0  501 -0.00000000000E+00 -0.00000000000E+00 -0.26676472206E+02  0.26706685855E+02  0.12700000000E+01 0.  1.
         25    2    1    2    0    0  0.11314173985E+02  0.69919430708E+02  0.26500860802E+03  0.30144789586E+03  0.12499813707E+03 0.  0.
    9000005    1    3    3    0    0  0.19650702169E+02 -0.34024820834E+02  0.77192321847E+02  0.86622705341E+02  0.10000000000E+01 0.  0.
    9000005    1    3    3    0    0 -0.83365281837E+01  0.10394425154E+03  0.18781628617E+03  0.21482519052E+03  0.10000000000E+01 0.  0.
         21    1    1    2  502  501 -0.11314173985E+02 -0.69919430708E+02  0.13955068129E+03  0.15649642160E+03  0.00000000000E+00 0.  1.
<mgrwt>
<rscale>  1 0.14367071E+03</rscale>
<asrwt>0</asrwt>
<pdfrwt beam="1">  1        4 0.66346427E-01 0.14367071E+03</pdfrwt>
<pdfrwt beam="2">  1       -4 0.41065409E-02 0.14367071E+03</pdfrwt>
<totfact> 0.11730307E+03</totfact>
</mgrwt>
</event>
<event>
 6    4  0.2398389E-003  0.1320932E+03  0.7818608E-02  0.1224382E+00
         -4   -1    0    0    0  501 -0.00000000000E+00  0.00000000000E+00  0.46886868054E+03  0.46887040053E+03  0.12700000000E+01 0. -1.
          4   -1    0    0  502    0  0.00000000000E+00 -0.00000000000E+00 -0.16266139580E+02  0.16315642704E+02  0.12700000000E+01 0. -1.
         25    2    1    2    0    0 -0.11889058954E+02 -0.41022494704E+02  0.34171969256E+03  0.36636179965E+03  0.12499770063E+03 0.  0.
    9000005    1    3    3    0    0  0.32032164957E+02  0.25720590304E+02  0.19512020348E+03  0.19940035648E+03  0.10000000000E+01 0.  0.
    9000005    1    3    3    0    0 -0.43921223911E+02 -0.66743085009E+02  0.14659948908E+03  0.16696144317E+03  0.10000000000E+01 0.  0.
         21    1    1    2  502  501  0.11889058954E+02  0.41022494704E+02  0.11088284840E+03  0.11882424359E+03  0.00000000000E+00 0.  1.
<mgrwt>
<rscale>  1 0.13209322E+03</rscale>
<asrwt>0</asrwt>
<pdfrwt beam="2">  1        4 0.25064234E-02 0.13209322E+03</pdfrwt>
<pdfrwt beam="1">  1       -4 0.72137579E-01 0.13209322E+03</pdfrwt>
<totfact> 0.20906737E+03</totfact>
</mgrwt>
</event>
<event>
 6    4  0.2398389E-003  0.1268386E+03  0.7818608E-02  0.1232223E+00
         -4   -1    0    0    0  501 -0.00000000000E+00  0.00000000000E+00  0.25913389816E+02  0.25944492128E+02  0.12700000000E+01 0.  1.
          4   -1    0    0  502    0  0.00000000000E+00 -0.00000000000E+00 -0.21370905970E+03  0.21371283326E+03  0.12700000000E+01 0.  1.
         25    2    1    2    0    0  0.13893871058E+02  0.16325813965E+02 -0.15241396452E+03  0.19828780848E+03  0.12501386545E+03 0.  0.
    9000005    1    3    3    0    0 -0.53063472761E+02  0.98454266036E+01 -0.97497764147E+02  0.11144271434E+03  0.10000000000E+01 0.  0.
    9000005    1    3    3    0    0  0.66957343819E+02  0.64803873619E+01 -0.54916200375E+02  0.86845094135E+02  0.10000000000E+01 0.  0.
         21    1    1    2  502  501 -0.13893871058E+02 -0.16325813965E+02 -0.35381705362E+02  0.41369516905E+02  0.00000000000E+00 0. -1.
<mgrwt>
<rscale>  1 0.12683863E+03</rscale>
<asrwt>0</asrwt>
<pdfrwt beam="2">  1        4 0.32880998E-01 0.12683863E+03</pdfrwt>
<pdfrwt beam="1">  1       -4 0.39893583E-02 0.12683863E+03</pdfrwt>
<totfact> 0.49230224E+03</totfact>
</mgrwt>
</event>
<event>
 6    4  0.2398389E-003  0.1372566E+03  0.7818608E-02  0.1217069E+00
         -4   -1    0    0    0  501 -0.00000000000E+00  0.00000000000E+00  0.84099793602E+03  0.84099889494E+03  0.12700000000E+01 0.  1.
          4   -1    0    0  502    0  0.00000000000E+00 -0.00000000000E+00 -0.12168075919E+02  0.12234172287E+02  0.12700000000E+01 0.  1.
         25    2    1    2    0    0  0.38640232428E+01  0.56561194390E+02  0.68534016862E+03  0.69894959129E+03  0.12500114020E+03 0.  0.
    9000005    1    3    3    0    0  0.20097948142E+02 -0.36774180647E+02  0.18136785215E+03  0.18614931017E+03  0.10000000000E+01 0.  0.
    9000005    1    3    3    0    0 -0.16233924899E+02  0.93335375037E+02  0.50397231647E+03  0.51280028112E+03  0.10000000000E+01 0.  0.
         21    1    1    2  502  501 -0.38640232428E+01 -0.56561194390E+02  0.14348969148E+03  0.15428347594E+03  0.00000000000E+00 0.  1.
<mgrwt>
<rscale>  1 0.13725664E+03</rscale>
<asrwt>0</asrwt>
<pdfrwt beam="2">  1        4 0.18771700E-02 0.13725664E+03</pdfrwt>
<pdfrwt beam="1">  1       -4 0.12938944E+00 0.13725664E+03</pdfrwt>
<totfact> 0.86040376E+02</totfact>
</mgrwt>
</event>
<event>
 6    4  0.2398389E-003  0.1277026E+03  0.7818608E-02  0.1230905E+00
          4   -1    0    0  502    0  0.00000000000E+00  0.00000000000E+00  0.20723340031E+03  0.20723729178E+03  0.12700000000E+01 0.  1.
         -4   -1    0    0    0  501 -0.00000000000E+00 -0.00000000000E+00 -0.28537069175E+02  0.28565314931E+02  0.12700000000E+01 0.  1.
         25    2    1    2    0    0 -0.26070173466E+02 -0.18698898451E+01  0.14720333220E+03  0.19487633868E+03  0.12499926374E+03 0.  0.
    9000005    1    3    3    0    0  0.32630039407E+02 -0.42306189307E+02  0.84270734242E+02  0.99785218219E+02  0.10000000000E+01 0.  0.
    9000005    1    3    3    0    0 -0.58700212874E+02  0.40436299462E+02  0.62932597958E+02  0.95091120465E+02  0.10000000000E+01 0.  0.
         21    1    1    2  502  501  0.26070173466E+02  0.18698898451E+01  0.31492998933E+02  0.40926268024E+02  0.00000000000E+00 0.  1.
<mgrwt>
<rscale>  1 0.12770265E+03</rscale>
<asrwt>0</asrwt>
<pdfrwt beam="1">  1        4 0.31884533E-01 0.12770265E+03</pdfrwt>
<pdfrwt beam="2">  1       -4 0.43927905E-02 0.12770265E+03</pdfrwt>
<totfact> 0.44867992E+03</totfact>
</mgrwt>
</event>
<event>
 6    4  0.2398389E-003  0.1268223E+03  0.7818608E-02  0.1232249E+00
         -4   -1    0    0    0  501 -0.00000000000E+00  0.00000000000E+00  0.23696423627E+03  0.23696763950E+03  0.12700000000E+01 0.  1.
          4   -1    0    0  502    0  0.00000000000E+00 -0.00000000000E+00 -0.25834363014E+02  0.25865560353E+02  0.12700000000E+01 0.  1.
         25    2    1    2    0    0 -0.54263189264E+00 -0.21460605225E+02  0.20400876974E+03  0.24021546033E+03  0.12499214865E+03 0.  0.
    9000005    1    3    3    0    0  0.22889717185E+01 -0.74047214769E+02  0.11556115120E+03  0.13727202582E+03  0.10000000000E+01 0.  0.
    9000005    1    3    3    0    0 -0.28316036111E+01  0.52586609544E+02  0.88447618541E+02  0.10294343451E+03  0.10000000000E+01 0.  0.
         21    1    1    2  502  501  0.54263189264E+00  0.21460605225E+02  0.71211035147E+01  0.22617739526E+02  0.00000000000E+00 0. -1.
<mgrwt>
<rscale>  1 0.12682227E+03</rscale>
<asrwt>0</asrwt>
<pdfrwt beam="2">  1        4 0.39771789E-02 0.12682227E+03</pdfrwt>
<pdfrwt beam="1">  1       -4 0.36458698E-01 0.12682227E+03</pdfrwt>
<totfact> 0.40551121E+03</totfact>
</mgrwt>
</event>
<event>
 6    4  0.2398389E-003  0.1266456E+03  0.7818608E-02  0.1232520E+00
         -4   -1    0    0    0  501 -0.00000000000E+00  0.00000000000E+00  0.15552523691E+03  0.15553042215E+03  0.12700000000E+01 0.  1.
          4   -1    0    0  502    0  0.00000000000E+00 -0.00000000000E+00 -0.34745962179E+02  0.34769164323E+02  0.12700000000E+01 0.  1.
         25    2    1    2    0    0  0.16636650893E+02  0.11709622076E+02  0.10603373132E+03  0.16517341581E+03  0.12500084683E+03 0.  0.
    9000005    1    3    3    0    0  0.65460064657E+01 -0.18301166915E+02  0.12615382391E+03  0.12764626982E+03  0.10000000000E+01 0.  0.
    9000005    1    3    3    0    0  0.10090644427E+02  0.30010788991E+02 -0.20120092584E+02  0.37527145993E+02  0.10000000000E+01 0.  0.
         21    1    1    2  502  501 -0.16636650893E+02 -0.11709622076E+02  0.14745543403E+02  0.25126170666E+02  0.00000000000E+00 0.  1.
<mgrwt>
<rscale>  1 0.12664559E+03</rscale>
<asrwt>0</asrwt>
<pdfrwt beam="2">  1        4 0.53477163E-02 0.12664559E+03</pdfrwt>
<pdfrwt beam="1">  1       -4 0.23929143E-01 0.12664559E+03</pdfrwt>
<totfact> 0.55831738E+03</totfact>
</mgrwt>
</event>
<event>
 6    4  0.2398389E-003  0.1537688E+03  0.7818608E-02  0.1195917E+00
          4   -1    0    0  502    0  0.00000000000E+00  0.00000000000E+00  0.50541216804E+02  0.50557170570E+02  0.12700000000E+01 0.  1.
         -4   -1    0    0    0  501 -0.00000000000E+00 -0.00000000000E+00 -0.30049869322E+03  0.30050137691E+03  0.12700000000E+01 0.  1.
         25    2    1    2    0    0  0.21749546189E+01  0.89527175680E+02 -0.12998363356E+03  0.20134692942E+03  0.12499998152E+03 0.  0.
    9000005    1    3    3    0    0  0.38274333238E+02  0.85746342401E+02 -0.35960554254E+02  0.10055606039E+03  0.10000000000E+01 0.  0.
    9000005    1    3    3    0    0 -0.36099378619E+02  0.37808332797E+01 -0.94023079305E+02  0.10079086903E+03  0.10000000000E+01 0.  0.
         21    1    1    2  502  501 -0.21749546189E+01 -0.89527175680E+02 -0.11997384285E+03  0.14971161806E+03  0.00000000000E+00 0.  1.
<mgrwt>
<rscale>  1 0.15376879E+03</rscale>
<asrwt>0</asrwt>
<pdfrwt beam="1">  1        4 0.77770056E-02 0.15376879E+03</pdfrwt>
<pdfrwt beam="2">  1       -4 0.46232001E-01 0.15376879E+03</pdfrwt>
<totfact> 0.89303913E+02</totfact>
</mgrwt>
</event>
<event>
 6    4  0.2398389E-003  0.1281350E+03  0.7818608E-02  0.1230250E+00
         -4   -1    0    0    0  501 -0.00000000000E+00  0.00000000000E+00  0.28271622502E+02  0.28300133196E+02  0.12700000000E+01 0.  1.
          4   -1    0    0  502    0  0.00000000000E+00 -0.00000000000E+00 -0.43401760371E+03  0.43401946182E+03  0.12700000000E+01 0.  1.
         25    2    1    2    0    0 -0.84318209683E+01  0.26880325304E+02 -0.12117466969E+03  0.17635722190E+03  0.12499968659E+03 0.  0.
    9000005    1    3    3    0    0 -0.14941666551E+02  0.75204534567E+02 -0.91027190901E+02  0.11902069107E+03  0.10000000000E+01 0.  0.
    9000005    1    3    3    0    0  0.65098455827E+01 -0.48324209263E+02 -0.30147478785E+02  0.57336530829E+02  0.10000000000E+01 0.  0.
         21    1    1    2  502  501  0.84318209683E+01 -0.26880325304E+02 -0.28457131153E+03  0.28596237312E+03  0.00000000000E+00 0.  1.
<mgrwt>
<rscale>  1 0.12813496E+03</rscale>
<asrwt>0</asrwt>
<pdfrwt beam="2">  1        4 0.66774270E-01 0.12813496E+03</pdfrwt>
<pdfrwt beam="1">  1       -4 0.43518168E-02 0.12813496E+03</pdfrwt>
<totfact> 0.10297783E+03</totfact>
</mgrwt>
</event>
<event>
 6    4  0.2398389E-003  0.1298565E+03  0.7818608E-02  0.1227669E+00
         -4   -1    0    0    0  501 -0.00000000000E+00  0.00000000000E+00  0.16952431985E+03  0.16952907691E+03  0.12700000000E+01 0. -1.
          4   -1    0    0  502    0  0.00000000000E+00 -0.00000000000E+00 -0.48152112033E+02  0.48168857089E+02  0.12700000000E+01 0. -1.
         25    2    1    2    0    0 -0.34332921012E+02  0.75975412468E+01  0.12752104665E+03  0.18200087086E+03  0.12500491013E+03 0.  0.
    9000005    1    3    3    0    0 -0.13954810019E+02 -0.15892929939E+02  0.14484826413E+03  0.14638764144E+03  0.10000000000E+01 0.  0.
    9000005    1    3    3    0    0 -0.20378110993E+02  0.23490471185E+02 -0.17327217481E+02  0.35613229421E+02  0.10000000000E+01 0.  0.
         21    1    1    2  502  501  0.34332921012E+02 -0.75975412468E+01 -0.61488388324E+01  0.35697063145E+02  0.00000000000E+00 0. -1.
<mgrwt>
<rscale>  1 0.12985646E+03</rscale>
<asrwt>0</asrwt>
<pdfrwt beam="2">  1        4 0.74096713E-02 0.12985646E+03</pdfrwt>
<pdfrwt beam="1">  1       -4 0.26082319E-01 0.12985646E+03</pdfrwt>
<totfact> 0.28179675E+03</totfact>
</mgrwt>
</event>
<event>
 6    4  0.2398389E-003  0.1269716E+03  0.7818608E-02  0.1232020E+00
         -4   -1    0    0    0  501 -0.00000000000E+00  0.00000000000E+00  0.39254682247E+01  0.41257969876E+01  0.12700000000E+01 0.  1.
          4   -1    0    0  502    0  0.00000000000E+00 -0.00000000000E+00 -0.17207361599E+04  0.17207366285E+04  0.12700000000E+01 0.  1.
         25    2    1    2    0    0  0.21316383894E+02 -0.65360120702E+01 -0.10455418306E+04  0.10532233919E+04  0.12499874414E+03 0.  0.
    9000005    1    3    3    0    0  0.11164249205E+02 -0.50884970239E+00 -0.10401415045E+04  0.10402020230E+04  0.10000000000E+01 0.  0.
    9000005    1    3    3    0    0  0.10152134689E+02 -0.60271623678E+01 -0.54003261242E+01  0.13021368868E+02  0.10000000000E+01 0.  0.
         21    1    1    2  502  501 -0.21316383894E+02  0.65360120702E+01 -0.67126886105E+03  0.67163903363E+03  0.00000000000E+00 0.  1.
<mgrwt>
<rscale>  1 0.12697163E+03</rscale>
<asrwt>0</asrwt>
<pdfrwt beam="2">  1        4 0.26474350E+00 0.12697163E+03</pdfrwt>
<pdfrwt beam="1">  1       -4 0.61936552E-03 0.12697163E+03</pdfrwt>
<totfact> 0.60009329E+02</totfact>
</mgrwt>
</event>
<event>
 6    4  0.2398389E-003  0.1296958E+03  0.7818608E-02  0.1227908E+00
         -4   -1    0    0    0  501 -0.00000000000E+00  0.00000000000E+00  0.58238086832E+03  0.58238225307E+03  0.12700000000E+01 0.  1.
          4   -1    0    0  502    0  0.00000000000E+00 -0.00000000000E+00 -0.11958740435E+02  0.12025987394E+02  0.12700000000E+01 0.  1.
         25    2    1    2    0    0  0.25210902496E+01 -0.34474140416E+02  0.48996965635E+03  0.50684442128E+03  0.12500472385E+03 0.  0.
    9000005    1    3    3    0    0 -0.57618518998E+02  0.13234727790E+00  0.17222089445E+03  0.18160657404E+03  0.10000000000E+01 0.  0.
    9000005    1    3    3    0    0  0.60139609248E+02 -0.34606487694E+02  0.31774876190E+03  0.32523784724E+03  0.10000000000E+01 0.  0.
         21    1    1    2  502  501 -0.25210902496E+01  0.34474140416E+02  0.80452471536E+02  0.87563819182E+02  0.00000000000E+00 0. -1.
<mgrwt>
<rscale>  1 0.12969581E+03</rscale>
<asrwt>0</asrwt>
<pdfrwt beam="2">  1        4 0.18450857E-02 0.12969581E+03</pdfrwt>
<pdfrwt beam="1">  1       -4 0.89602329E-01 0.12969581E+03</pdfrwt>
<totfact> 0.20683693E+03</totfact>
</mgrwt>
</event>
<event>
 6    4  0.2398389E-003  0.1313028E+03  0.7818608E-02  0.1225535E+00
          4   -1    0    0  502    0  0.00000000000E+00  0.00000000000E+00  0.20020277552E+04  0.20020281580E+04  0.12700000000E+01 0. -1.
         -4   -1    0    0    0  501 -0.00000000000E+00 -0.00000000000E+00 -0.38221168747E+01  0.40275895278E+01  0.12700000000E+01 0. -1.
         25    2    1    2    0    0 -0.28131893069E+02  0.28698228234E+02  0.12773465103E+04  0.12840773032E+04  0.12500168551E+03 0.  0.
    9000005    1    3    3    0    0  0.10120560091E+02  0.75321779760E+01  0.10411285283E+02  0.16387626517E+02  0.10000000000E+01 0.  0.
    9000005    1    3    3    0    0 -0.38252453160E+02  0.21166050258E+02  0.12669352250E+04  0.12676896766E+04  0.10000000000E+01 0.  0.
         21    1    1    2  502  501  0.28131893069E+02 -0.28698228234E+02  0.72085912804E+03  0.72197844440E+03  0.00000000000E+00 0. -1.
<mgrwt>
<rscale>  1 0.13130275E+03</rscale>
<asrwt>0</asrwt>
<pdfrwt beam="1">  1        4 0.30802048E+00 0.13130275E+03</pdfrwt>
<pdfrwt beam="2">  1       -4 0.60385383E-03 0.13130275E+03</pdfrwt>
<totfact> 0.35324862E+02</totfact>
</mgrwt>
</event>
<event>
 6    4  0.2398389E-003  0.1295957E+03  0.7818608E-02  0.1228057E+00
         -4   -1    0    0    0  501 -0.00000000000E+00  0.00000000000E+00  0.29382167617E+02  0.29409601730E+02  0.12700000000E+01 0.  1.
          4   -1    0    0  502    0  0.00000000000E+00 -0.00000000000E+00 -0.25911381657E+03  0.25911692889E+03  0.12700000000E+01 0.  1.
         25    2    1    2    0    0 -0.18300272438E+01 -0.34153921624E+02 -0.21553085951E+03  0.25149273818E+03  0.12500082636E+03 0.  0.
    9000005    1    3    3    0    0  0.48093788446E+02 -0.56547036646E+02 -0.13616225222E+03  0.15508623011E+03  0.10000000000E+01 0.  0.
    9000005    1    3    3    0    0 -0.49923815690E+02  0.22393115022E+02 -0.79368607298E+02  0.96406508068E+02  0.10000000000E+01 0.  0.
         21    1    1    2  502  501  0.18300272438E+01  0.34153921624E+02 -0.14200789437E+02  0.37033792443E+02  0.00000000000E+00 0. -1.
<mgrwt>
<rscale>  1 0.12959570E+03</rscale>
<asrwt>0</asrwt>
<pdfrwt beam="2">  1        4 0.39866012E-01 0.12959570E+03</pdfrwt>
<pdfrwt beam="1">  1       -4 0.45226834E-02 0.12959570E+03</pdfrwt>
<totfact> 0.27908819E+03</totfact>
</mgrwt>
</event>
<event>
 6    4  0.2398389E-003  0.1267287E+03  0.7818608E-02  0.1232392E+00
         -4   -1    0    0    0  501 -0.00000000000E+00  0.00000000000E+00  0.71103254213E+02  0.71114595265E+02  0.12700000000E+01 0.  1.
          4   -1    0    0  502    0  0.00000000000E+00 -0.00000000000E+00 -0.96569358225E+02  0.96577708856E+02  0.12700000000E+01 0.  1.
         25    2    1    2    0    0 -0.16008225790E+02  0.13374122988E+02  0.93846806600E+01  0.12707571083E+03  0.12500013437E+03 0.  0.
    9000005    1    3    3    0    0 -0.25016121073E+02 -0.53420031855E+02  0.89306821504E+01  0.59667941146E+02  0.10000000000E+01 0.  0.
    9000005    1    3    3    0    0  0.90078952835E+01  0.66794154843E+02  0.45399850958E+00  0.67407769680E+02  0.10000000000E+01 0.  0.
         21    1    1    2  502  501  0.16008225790E+02 -0.13374122988E+02 -0.34850784672E+02  0.40616593295E+02  0.00000000000E+00 0.  1.
<mgrwt>
<rscale>  1 0.12672870E+03</rscale>
<asrwt>0</asrwt>
<pdfrwt beam="2">  1        4 0.14858339E-01 0.12672870E+03</pdfrwt>
<pdfrwt beam="1">  1       -4 0.10940477E-01 0.12672870E+03</pdfrwt>
<totfact> 0.40128575E+03</totfact>
</mgrwt>
</event>
<event>
 6    4  0.2398389E-003  0.1296205E+03  0.7818608E-02  0.1228020E+00
         -4   -1    0    0    0  501 -0.00000000000E+00  0.00000000000E+00  0.69153155906E+03  0.69153272523E+03  0.12700000000E+01 0. -1.
          4   -1    0    0  502    0  0.00000000000E+00 -0.00000000000E+00 -0.12347069578E+02  0.12412212824E+02  0.12700000000E+01 0. -1.
         25    2    1    2    0    0 -0.34189768527E+02  0.27404483767E+01  0.63455131024E+03  0.64765487661E+03  0.12500009415E+03 0.  0.
    9000005    1    3    3    0    0  0.25336831980E+02  0.48207024410E+02  0.24785352298E+03  0.25376808529E+03  0.10000000000E+01 0.  0.
    9000005    1    3    3    0    0 -0.59526600507E+02 -0.45466576033E+02  0.38669778727E+03  0.39388679133E+03  0.10000000000E+01 0.  0.
         21    1    1    2  502  501  0.34189768527E+02 -0.27404483767E+01  0.44633179235E+02  0.56290061448E+02  0.00000000000E+00 0. -1.
<mgrwt>
<rscale>  1 0.12962050E+03</rscale>
<asrwt>0</asrwt>
<pdfrwt beam="2">  1        4 0.19046496E-02 0.12962050E+03</pdfrwt>
<pdfrwt beam="1">  1       -4 0.10639459E+00 0.12962050E+03</pdfrwt>
<totfact> 0.13272550E+03</totfact>
</mgrwt>
</event>
<event>
 6    4  0.2398389E-003  0.1337099E+03  0.7818608E-02  0.1222052E+00
          4   -1    0    0  502    0  0.00000000000E+00  0.00000000000E+00  0.17143218668E+03  0.17143689081E+03  0.12700000000E+01 0. -1.
         -4   -1    0    0    0  501 -0.00000000000E+00 -0.00000000000E+00 -0.66005140937E+02  0.66017357794E+02  0.12700000000E+01 0. -1.
         25    2    1    2    0    0  0.42779325234E+02  0.20553140878E+02  0.13997800174E+02  0.13444061255E+03  0.12500335046E+03 0.  0.
    9000005    1    3    3    0    0 -0.36796883003E+02 -0.21805324373E+02 -0.22135915935E+01  0.42841367363E+02  0.10000000000E+01 0.  0.
    9000005    1    3    3    0    0  0.79576208237E+02  0.42358465252E+02  0.16211391767E+02  0.91599245187E+02  0.10000000000E+01 0.  0.
         21    1    1    2  502  501 -0.42779325234E+02 -0.20553140878E+02  0.91429245572E+02  0.10301363606E+03  0.00000000000E+00 0. -1.
<mgrwt>
<rscale>  1 0.13370991E+03</rscale>
<asrwt>0</asrwt>
<pdfrwt beam="1">  1        4 0.26375484E-01 0.13370991E+03</pdfrwt>
<pdfrwt beam="2">  1       -4 0.10155939E-01 0.13370991E+03</pdfrwt>
<totfact> 0.16435055E+03</totfact>
</mgrwt>
</event>
<event>
 6    4  0.2398389E-003  0.1275386E+03  0.7818608E-02  0.1231154E+00
          4   -1    0    0  502    0  0.00000000000E+00  0.00000000000E+00  0.24858794260E+03  0.24859118671E+03  0.12700000000E+01 0.  1.
         -4   -1    0    0    0  501 -0.00000000000E+00 -0.00000000000E+00 -0.23710586387E+02  0.23744574261E+02  0.12700000000E+01 0.  1.
         25    2    1    2    0    0  0.23510758134E+02 -0.94427108973E+01  0.19684134851E+03  0.23454769055E+03  0.12499672846E+03 0.  0.
    9000005    1    3    3    0    0  0.12638388090E+02  0.11026720906E+02 -0.14343791325E+02  0.22092120247E+02  0.10000000000E+01 0.  0.
    9000005    1    3    3    0    0  0.10872370044E+02 -0.20469431803E+02  0.21118513983E+03  0.21245557031E+03  0.10000000000E+01 0.  0.
         21    1    1    2  502  501 -0.23510758134E+02  0.94427108973E+01  0.28036007709E+02  0.37788070411E+02  0.00000000000E+00 0.  1.
<mgrwt>
<rscale>  1 0.12753863E+03</rscale>
<asrwt>0</asrwt>
<pdfrwt beam="1">  1        4 0.38247161E-01 0.12753863E+03</pdfrwt>
<pdfrwt beam="2">  1       -4 0.36506467E-02 0.12753863E+03</pdfrwt>
<totfact> 0.42366128E+03</totfact>
</mgrwt>
</event>
<event>
 6    4  0.2398389E-003  0.1271374E+03  0.7818608E-02  0.1231766E+00
          4   -1    0    0  502    0  0.00000000000E+00  0.00000000000E+00  0.60707975239E+02  0.60721257873E+02  0.12700000000E+01 0.  1.
         -4   -1    0    0    0  501 -0.00000000000E+00 -0.00000000000E+00 -0.12951590133E+03  0.12952212783E+03  0.12700000000E+01 0.  1.
         25    2    1    2    0    0 -0.74549806004E+01 -0.21967523375E+02 -0.92391463457E+02  0.15716269566E+03  0.12500312623E+03 0.  0.
    9000005    1    3    3    0    0  0.36181866752E+02  0.37536225592E+02 -0.49000477945E+02  0.71555171387E+02  0.10000000000E+01 0.  0.
    9000005    1    3    3    0    0 -0.43636847353E+02 -0.59503748967E+02 -0.43390985512E+02  0.85607524270E+02  0.10000000000E+01 0.  0.
         21    1    1    2  502  501  0.74549806004E+01  0.21967523375E+02  0.23583537367E+02  0.33080690043E+02  0.00000000000E+00 0.  1.
<mgrwt>
<rscale>  1 0.12713745E+03</rscale>
<asrwt>0</asrwt>
<pdfrwt beam="1">  1        4 0.93411892E-02 0.12713745E+03</pdfrwt>
<pdfrwt beam="2">  1       -4 0.19927024E-01 0.12713745E+03</pdfrwt>
<totfact> 0.31190351E+03</totfact>
</mgrwt>
</event>
<event>
 6    4  0.2398389E-003  0.1372805E+03  0.7818608E-02  0.1217036E+00
          4   -1    0    0  502    0  0.00000000000E+00  0.00000000000E+00  0.59841762437E+03  0.59841897200E+03  0.12700000000E+01 0. -1.
         -4   -1    0    0    0  501 -0.00000000000E+00 -0.00000000000E+00 -0.34515311495E+02  0.34538668584E+02  0.12700000000E+01 0. -1.
         25    2    1    2    0    0 -0.31336709329E+02  0.47312740177E+02  0.11107657027E+03  0.17658976497E+03  0.12500182356E+03 0.  0.
    9000005    1    3    3    0    0  0.47666145556E+02  0.17869840793E+02  0.56965230780E+02  0.76403076901E+02  0.10000000000E+01 0.  0.
    9000005    1    3    3    0    0 -0.79002854885E+02  0.29442899384E+02  0.54111339490E+02  0.10018668807E+03  0.10000000000E+01 0.  0.
         21    1    1    2  502  501  0.31336709329E+02 -0.47312740177E+02  0.45282574260E+03  0.45636787562E+03  0.00000000000E+00 0. -1.
<mgrwt>
<rscale>  1 0.13728052E+03</rscale>
<asrwt>0</asrwt>
<pdfrwt beam="1">  1        4 0.92066145E-01 0.13728052E+03</pdfrwt>
<pdfrwt beam="2">  1       -4 0.53119486E-02 0.13728052E+03</pdfrwt>
<totfact> 0.37390294E+02</totfact>
</mgrwt>
</event>
<event>
 6    4  0.2398389E-003  0.1331409E+03  0.7818608E-02  0.1222868E+00
         -4   -1    0    0    0  501 -0.00000000000E+00  0.00000000000E+00  0.44185520354E+02  0.44203768040E+02  0.12700000000E+01 0. -1.
          4   -1    0    0  502    0  0.00000000000E+00 -0.00000000000E+00 -0.18120605098E+03  0.18121050138E+03  0.12700000000E+01 0. -1.
         25    2    1    2    0    0  0.14814084492E+02  0.43384790017E+02 -0.10254507131E+03  0.16805353024E+03  0.12499920109E+03 0.  0.
    9000005    1    3    3    0    0  0.36277792694E+02 -0.27751479675E+02 -0.76890441079E+02  0.89439156952E+02  0.10000000000E+01 0.  0.
    9000005    1    3    3    0    0 -0.21463708203E+02  0.71136269692E+02 -0.25654630229E+02  0.78614373289E+02  0.10000000000E+01 0.  0.
         21    1    1    2  502  501 -0.14814084492E+02 -0.43384790017E+02 -0.34475459314E+02  0.57360739178E+02  0.00000000000E+00 0. -1.
<mgrwt>
<rscale>  1 0.13314089E+03</rscale>
<asrwt>0</asrwt>
<pdfrwt beam="2">  1        4 0.27879600E-01 0.13314089E+03</pdfrwt>
<pdfrwt beam="1">  1       -4 0.67995184E-02 0.13314089E+03</pdfrwt>
<totfact> 0.28833086E+03</totfact>
</mgrwt>
</event>
<event>
 6    4  0.2398389E-003  0.1271599E+03  0.7818608E-02  0.1231732E+00
          4   -1    0    0  502    0  0.00000000000E+00  0.00000000000E+00  0.22924457483E+03  0.22924809266E+03  0.12700000000E+01 0. -1.
         -4   -1    0    0    0  501 -0.00000000000E+00 -0.00000000000E+00 -0.24705620974E+02  0.24738241807E+02  0.12700000000E+01 0. -1.
         25    2    1    2    0    0 -0.19324525461E+02 -0.13108864411E+02  0.17006364057E+03  0.21234708812E+03  0.12499745748E+03 0.  0.
    9000005    1    3    3    0    0 -0.32156786075E+01 -0.47895546694E+01 -0.20295879240E+02  0.21123520941E+02  0.10000000000E+01 0.  0.
    9000005    1    3    3    0    0 -0.16108846853E+02 -0.83193097416E+01  0.19035951981E+03  0.19122356718E+03  0.10000000000E+01 0.  0.
         21    1    1    2  502  501  0.19324525461E+02  0.13108864411E+02  0.34475313282E+02  0.41639246346E+02  0.00000000000E+00 0. -1.
<mgrwt>
<rscale>  1 0.12715992E+03</rscale>
<asrwt>0</asrwt>
<pdfrwt beam="1">  1        4 0.35271176E-01 0.12715992E+03</pdfrwt>
<pdfrwt beam="2">  1       -4 0.38036447E-02 0.12715992E+03</pdfrwt>
<totfact> 0.46428847E+03</totfact>
</mgrwt>
</event>
<event>
 6    4  0.2398389E-003  0.1310000E+03  0.7818608E-02  0.1225979E+00
         -4   -1    0    0    0  501 -0.00000000000E+00  0.00000000000E+00  0.19116406875E+03  0.19116828733E+03  0.12700000000E+01 0.  1.
          4   -1    0    0  502    0  0.00000000000E+00 -0.00000000000E+00 -0.39730119314E+02  0.39750412334E+02  0.12700000000E+01 0.  1.
         25    2    1    2    0    0 -0.26748887500E+02 -0.28650418150E+02  0.13589401901E+03  0.18875427295E+03  0.12499856683E+03 0.  0.
    9000005    1    3    3    0    0 -0.75386607799E+02 -0.17008207626E+02  0.59934772122E+02  0.97803868386E+02  0.10000000000E+01 0.  0.
    9000005    1    3    3    0    0  0.48637720299E+02 -0.11642210524E+02  0.75959246892E+02  0.90950404563E+02  0.10000000000E+01 0.  0.
         21    1    1    2  502  501  0.26748887500E+02  0.28650418150E+02  0.15539930420E+02  0.42164426714E+02  0.00000000000E+00 0.  1.
<mgrwt>
<rscale>  1 0.13099997E+03</rscale>
<asrwt>0</asrwt>
<pdfrwt beam="2">  1        4 0.61142116E-02 0.13099997E+03</pdfrwt>
<pdfrwt beam="1">  1       -4 0.29411742E-01 0.13099997E+03</pdfrwt>
<totfact> 0.30895367E+03</totfact>
</mgrwt>
</event>
<event>
 6    4  0.2398389E-003  0.1270830E+03  0.7818608E-02  0.1231849E+00
         -4   -1    0    0    0  501 -0.00000000000E+00  0.00000000000E+00  0.51289432971E+01  0.52838394510E+01  0.12700000000E+01 0. -1.
          4   -1    0    0  502    0  0.00000000000E+00 -0.00000000000E+00 -0.14096072507E+04  0.14096078228E+04  0.12700000000E+01 0. -1.
         25    2    1    2    0    0 -0.22922186947E+02 -0.27684311318E+01 -0.80504188953E+03  0.81501074913E+03  0.12496794163E+03 0.  0.
    9000005    1    3    3    0    0  0.14421132655E+02  0.51728908229E+02 -0.23013513588E+03  0.23631976172E+03  0.10000000000E+01 0.  0.
    9000005    1    3    3    0    0 -0.37343319602E+02 -0.54497339360E+02 -0.57490675365E+03  0.57869098741E+03  0.10000000000E+01 0.  0.
         21    1    1    2  502  501  0.22922186947E+02  0.27684311318E+01 -0.59943641788E+03  0.59988091314E+03  0.00000000000E+00 0. -1.
<mgrwt>
<rscale>  1 0.12708295E+03</rscale>
<asrwt>0</asrwt>
<pdfrwt beam="2">  1        4 0.21687431E+00 0.12708295E+03</pdfrwt>
<pdfrwt beam="1">  1       -4 0.80102842E-03 0.12708295E+03</pdfrwt>
<totfact> 0.77658995E+02</totfact>
</mgrwt>
</event>
<event>
 6    4  0.2398389E-003  0.1314919E+03  0.7818608E-02  0.1225259E+00
         -4   -1    0    0    0  501 -0.00000000000E+00  0.00000000000E+00  0.28674597198E+03  0.28674878438E+03  0.12700000000E+01 0.  1.
          4   -1    0    0  502    0  0.00000000000E+00 -0.00000000000E+00 -0.26187669830E+02  0.26218446772E+02  0.12700000000E+01 0.  1.
         25    2    1    2    0    0 -0.36975748846E+02 -0.17254616652E+02  0.18316330571E+03  0.22547486993E+03  0.12500077046E+03 0.  0.
    9000005    1    3    3    0    0 -0.40447876828E+02 -0.52673857815E+02  0.17737686778E+03  0.18940464425E+03  0.10000000000E+01 0.  0.
    9000005    1    3    3    0    0  0.34721279821E+01  0.35419241163E+02  0.57864379252E+01  0.36070225688E+02  0.10000000000E+01 0.  0.
         21    1    1    2  502  501  0.36975748846E+02  0.17254616652E+02  0.77394996437E+02  0.87492361221E+02  0.00000000000E+00 0.  1.
<mgrwt>
<rscale>  1 0.13149190E+03</rscale>
<asrwt>0</asrwt>
<pdfrwt beam="2">  1        4 0.40314559E-02 0.13149190E+03</pdfrwt>
<pdfrwt beam="1">  1       -4 0.44117351E-01 0.13149190E+03</pdfrwt>
<totfact> 0.27518383E+03</totfact>
</mgrwt>
</event>
<event>
 6    4  0.2398389E-003  0.1308185E+03  0.7818608E-02  0.1226246E+00
         -4   -1    0    0    0  501 -0.00000000000E+00  0.00000000000E+00  0.89567387949E+02  0.89576391331E+02  0.12700000000E+01 0.  1.
          4   -1    0    0  502    0  0.00000000000E+00 -0.00000000000E+00 -0.29372031057E+03  0.29372305620E+03  0.12700000000E+01 0.  1.
         25    2    1    2    0    0  0.19209182400E+02  0.33462920430E+02  0.39467525676E+02  0.13664243352E+03  0.12499883728E+03 0.  0.
    9000005    1    3    3    0    0  0.20987447738E+02 -0.37112526778E+01 -0.41978976670E+02  0.47090135286E+02  0.10000000000E+01 0.  0.
    9000005    1    3    3    0    0 -0.17782653385E+01  0.37174173108E+02  0.81446502346E+02  0.89552298230E+02  0.10000000000E+01 0.  0.
         21    1    1    2  502  501 -0.19209182400E+02 -0.33462920430E+02 -0.24362044830E+03  0.24665701401E+03  0.00000000000E+00 0.  1.
<mgrwt>
<rscale>  1 0.13081846E+03</rscale>
<asrwt>0</asrwt>
<pdfrwt beam="2">  1        4 0.45188643E-01 0.13081846E+03</pdfrwt>
<pdfrwt beam="1">  1       -4 0.13780502E-01 0.13081846E+03</pdfrwt>
<totfact> 0.34422497E+02</totfact>
</mgrwt>
</event>
<event>
 6    4  0.2398389E-003  0.1540326E+03  0.7818608E-02  0.1195604E+00
         -4   -1    0    0    0  501 -0.00000000000E+00  0.00000000000E+00  0.59220371168E+03  0.59220507346E+03  0.12700000000E+01 0. -1.
          4   -1    0    0  502    0  0.00000000000E+00 -0.00000000000E+00 -0.25610281837E+02  0.25641751808E+02  0.12700000000E+01 0. -1.
         25    2    1    2    0    0 -0.19289781346E+02  0.87914039029E+02  0.39730780565E+03  0.42612151009E+03  0.12500030001E+03 0.  0.
    9000005    1    3    3    0    0 -0.68069594617E+02  0.23752550389E+02  0.21563475485E+03  0.22736974482E+03  0.10000000000E+01 0.  0.
    9000005    1    3    3    0    0  0.48779813271E+02  0.64161488640E+02  0.18167305080E+03  0.19875176526E+03  0.10000000000E+01 0.  0.
         21    1    1    2  502  501  0.19289781346E+02 -0.87914039029E+02  0.16928562419E+03  0.19172531518E+03  0.00000000000E+00 0. -1.
<mgrwt>
<rscale>  1 0.15403262E+03</rscale>
<asrwt>0</asrwt>
<pdfrwt beam="2">  1        4 0.39425689E-02 0.15403262E+03</pdfrwt>
<pdfrwt beam="1">  1       -4 0.91110789E-01 0.15403262E+03</pdfrwt>
<totfact> 0.63076310E+02</totfact>
</mgrwt>
</event>
<event>
 6    4  0.2398389E-003  0.1274892E+03  0.7818608E-02  0.1231230E+00
         -4   -1    0    0    0  501 -0.00000000000E+00  0.00000000000E+00  0.26670908474E+03  0.26671210843E+03  0.12700000000E+01 0.  1.
          4   -1    0    0  502    0  0.00000000000E+00 -0.00000000000E+00 -0.30990923649E+02  0.31016934869E+02  0.12700000000E+01 0.  1.
         25    2    1    2    0    0 -0.24450723737E+02  0.53486632489E+01  0.24054270711E+03  0.27223939179E+03  0.12500818537E+03 0.  0.
    9000005    1    3    3    0    0 -0.65135966858E+02 -0.30679320199E+02  0.11887367797E+03  0.13898153179E+03  0.10000000000E+01 0.  0.
    9000005    1    3    3    0    0  0.40685243120E+02  0.36027983448E+02  0.12166902914E+03  0.13325786000E+03  0.10000000000E+01 0.  0.
         21    1    1    2  502  501  0.24450723737E+02 -0.53486632489E+01 -0.48245460140E+01  0.25489651510E+02  0.00000000000E+00 0.  1.
<mgrwt>
<rscale>  1 0.12748919E+03</rscale>
<asrwt>0</asrwt>
<pdfrwt beam="2">  1        4 0.47700678E-02 0.12748919E+03</pdfrwt>
<pdfrwt beam="1">  1       -4 0.41034401E-01 0.12748919E+03</pdfrwt>
<totfact> 0.24119004E+03</totfact>
</mgrwt>
</event>
<event>
 6    4  0.2398389E-003  0.1459460E+03  0.7818608E-02  0.1205545E+00
          4   -1    0    0  502    0  0.00000000000E+00  0.00000000000E+00  0.16742649011E+03  0.16743130678E+03  0.12700000000E+01 0. -1.
         -4   -1    0    0    0  501 -0.00000000000E+00 -0.00000000000E+00 -0.15349242004E+03  0.15349767396E+03  0.12700000000E+01 0. -1.
         25    2    1    2    0    0  0.26222361243E+02  0.70625768437E+02 -0.10524479883E+03  0.17993531355E+03  0.12499855193E+03 0.  0.
    9000005    1    3    3    0    0 -0.48256143809E+02  0.11382518670E+02 -0.25460445885E+02  0.55744519473E+02  0.10000000000E+01 0.  0.
    9000005    1    3    3    0    0  0.74478505052E+02  0.59243249767E+02 -0.79784352945E+02  0.12419079407E+03  0.10000000000E+01 0.  0.
         21    1    1    2  502  501 -0.26222361243E+02 -0.70625768437E+02  0.11917886890E+03  0.14099366719E+03  0.00000000000E+00 0. -1.
<mgrwt>
<rscale>  1 0.14594605E+03</rscale>
<asrwt>0</asrwt>
<pdfrwt beam="1">  1        4 0.25758696E-01 0.14594605E+03</pdfrwt>
<pdfrwt beam="2">  1       -4 0.23614993E-01 0.14594605E+03</pdfrwt>
<totfact> 0.39733824E+02</totfact>
</mgrwt>
</event>
<event>
 6    4  0.2398389E-003  0.1267325E+03  0.7818608E-02  0.1232386E+00
          4   -1    0    0  502    0  0.00000000000E+00  0.00000000000E+00  0.45521884384E+03  0.45522061540E+03  0.12700000000E+01 0.  1.
         -4   -1    0    0    0  501 -0.00000000000E+00 -0.00000000000E+00 -0.37181855134E+02  0.37203538155E+02  0.12700000000E+01 0.  1.
         25    2    1    2    0    0  0.43708806024E+01 -0.20408763143E+02  0.71997635966E+02  0.14575593197E+03  0.12500203963E+03 0.  0.
    9000005    1    3    3    0    0 -0.28384888616E+02  0.68225769891E+01 -0.25867469430E+02  0.39017629775E+02  0.10000000000E+01 0.  0.
    9000005    1    3    3    0    0  0.32755769219E+02 -0.27231340132E+02  0.97865105395E+02  0.10673830220E+03  0.10000000000E+01 0.  0.
         21    1    1    2  502  501 -0.43708806024E+01  0.20408763143E+02  0.34603935274E+03  0.34666822158E+03  0.00000000000E+00 0.  1.
<mgrwt>
<rscale>  1 0.12673252E+03</rscale>
<asrwt>0</asrwt>
<pdfrwt beam="1">  1        4 0.70035470E-01 0.12673252E+03</pdfrwt>
<pdfrwt beam="2">  1       -4 0.57220898E-02 0.12673252E+03</pdfrwt>
<totfact> 0.59761735E+02</totfact>
</mgrwt>
</event>
<event>
 6    4  0.2398389E-003  0.1270637E+03  0.7818608E-02  0.1231879E+00
         -4   -1    0    0    0  501 -0.00000000000E+00  0.00000000000E+00  0.25513296336E+03  0.25513612424E+03  0.12700000000E+01 0.  1.
          4   -1    0    0  502    0  0.00000000000E+00 -0.00000000000E+00 -0.23334238588E+02  0.23368773833E+02  0.12700000000E+01 0.  1.
         25    2    1    2    0    0  0.14504928422E+01 -0.22754832839E+02  0.21654656668E+03  0.25107289717E+03  0.12500119122E+03 0.  0.
    9000005    1    3    3    0    0  0.45042215001E+02  0.29919178889E+02  0.63268206754E+02  0.83233553231E+02  0.10000000000E+01 0.  0.
    9000005    1    3    3    0    0 -0.43591722159E+02 -0.52674011728E+02  0.15327835993E+03  0.16783934394E+03  0.10000000000E+01 0.  0.
         21    1    1    2  502  501 -0.14504928422E+01  0.22754832839E+02  0.15252158086E+02  0.27432000899E+02  0.00000000000E+00 0.  1.
<mgrwt>
<rscale>  1 0.12706370E+03</rscale>
<asrwt>0</asrwt>
<pdfrwt beam="2">  1        4 0.35927826E-02 0.12706370E+03</pdfrwt>
<pdfrwt beam="1">  1       -4 0.39254125E-01 0.12706370E+03</pdfrwt>
<totfact> 0.41256786E+03</totfact>
</mgrwt>
</event>
<event>
 6    4  0.2398389E-003  0.1285582E+03  0.7818608E-02  0.1229611E+00
         -4   -1    0    0    0  501 -0.00000000000E+00  0.00000000000E+00  0.82610454663E+01  0.83580962065E+01  0.12700000000E+01 0.  1.
          4   -1    0    0  502    0  0.00000000000E+00 -0.00000000000E+00 -0.76501850637E+03  0.76501956053E+03  0.12700000000E+01 0.  1.
         25    2    1    2    0    0 -0.14336293793E+02  0.26386158322E+02 -0.57889311088E+03  0.59299615636E+03  0.12500179580E+03 0.  0.
    9000005    1    3    3    0    0 -0.12518333125E+02 -0.20329973587E+02 -0.17401277318E+02  0.29560462488E+02  0.10000000000E+01 0.  0.
    9000005    1    3    3    0    0 -0.18179606681E+01  0.46716131909E+02 -0.56149183357E+03  0.56343569387E+03  0.10000000000E+01 0.  0.
         21    1    1    2  502  501  0.14336293793E+02 -0.26386158322E+02 -0.17786435002E+03  0.18038150038E+03  0.00000000000E+00 0.  1.
<mgrwt>
<rscale>  1 0.12855819E+03</rscale>
<asrwt>0</asrwt>
<pdfrwt beam="2">  1        4 0.11770265E+00 0.12855819E+03</pdfrwt>
<pdfrwt beam="1">  1       -4 0.12784772E-02 0.12855819E+03</pdfrwt>
<totfact> 0.19174591E+03</totfact>
</mgrwt>
</event>
<event>
 6    4  0.2398389E-003  0.1293232E+03  0.7818608E-02  0.1228463E+00
          4   -1    0    0  502    0  0.00000000000E+00  0.00000000000E+00  0.12070593428E+02  0.12137220675E+02  0.12700000000E+01 0.  1.
         -4   -1    0    0    0  501 -0.00000000000E+00 -0.00000000000E+00 -0.58375306381E+03  0.58375444530E+03  0.12700000000E+01 0.  1.
         25    2    1    2    0    0  0.27695059056E+02 -0.18237977363E+02 -0.50662509338E+03  0.52287041963E+03  0.12499940150E+03 0.  0.
    9000005    1    3    3    0    0 -0.27324009327E+02 -0.38856708659E+02 -0.86803268385E+02  0.98955811835E+02  0.10000000000E+01 0.  0.
    9000005    1    3    3    0    0  0.55019068383E+02  0.20618731296E+02 -0.41982182499E+03  0.42391460780E+03  0.10000000000E+01 0.  0.
         21    1    1    2  502  501 -0.27695059056E+02  0.18237977363E+02 -0.65057377002E+02  0.73021246338E+02  0.00000000000E+00 0.  1.
<mgrwt>
<rscale>  1 0.12932320E+03</rscale>
<asrwt>0</asrwt>
<pdfrwt beam="1">  1        4 0.18622463E-02 0.12932320E+03</pdfrwt>
<pdfrwt beam="2">  1       -4 0.89813374E-01 0.12932320E+03</pdfrwt>
<totfact> 0.20270552E+03</totfact>
</mgrwt>
</event>
<event>
 6    4  0.2398389E-003  0.1268155E+03  0.7818608E-02  0.1232259E+00
         -4   -1    0    0    0  501 -0.00000000000E+00  0.00000000000E+00  0.30287027271E+02  0.30313642488E+02  0.12700000000E+01 0.  1.
          4   -1    0    0  502    0  0.00000000000E+00 -0.00000000000E+00 -0.30076417732E+03  0.30076685865E+03  0.12700000000E+01 0.  1.
         25    2    1    2    0    0  0.15297339658E+02  0.14936200203E+02 -0.10617852117E+03  0.16539665120E+03  0.12500030077E+03 0.  0.
    9000005    1    3    3    0    0 -0.49046892321E+02  0.20830294484E+02 -0.18371710958E+02  0.56373917534E+02  0.10000000000E+01 0.  0.
    9000005    1    3    3    0    0  0.64344231979E+02 -0.58940942809E+01 -0.87806810216E+02  0.10902273367E+03  0.10000000000E+01 0.  0.
         21    1    1    2  502  501 -0.15297339658E+02 -0.14936200203E+02 -0.16429862888E+03  0.16568384993E+03  0.00000000000E+00 0.  1.
<mgrwt>
<rscale>  1 0.12681551E+03</rscale>
<asrwt>0</asrwt>
<pdfrwt beam="2">  1        4 0.46273664E-01 0.12681551E+03</pdfrwt>
<pdfrwt beam="1">  1       -4 0.46617964E-02 0.12681551E+03</pdfrwt>
<totfact> 0.19673761E+03</totfact>
</mgrwt>
</event>
<event>
 6    4  0.2398389E-003  0.1268478E+03  0.7818608E-02  0.1232209E+00
         -4   -1    0    0    0  501 -0.00000000000E+00  0.00000000000E+00  0.56830518785E+02  0.56844707453E+02  0.12700000000E+01 0.  1.
          4   -1    0    0  502    0  0.00000000000E+00 -0.00000000000E+00 -0.10766594300E+03  0.10767343304E+03  0.12700000000E+01 0.  1.
         25    2    1    2    0    0 -0.19965640119E+02 -0.81403353180E+01 -0.22364609892E+02  0.12880429006E+03  0.12500191005E+03 0.  0.
    9000005    1    3    3    0    0 -0.58790756117E+02  0.35180546047E+02 -0.15172111040E+02  0.70179888703E+02  0.10000000000E+01 0.  0.
    9000005    1    3    3    0    0  0.38825115998E+02 -0.43320881365E+02 -0.71924988519E+01  0.58624401355E+02  0.10000000000E+01 0.  0.
         21    1    1    2  502  501  0.19965640119E+02  0.81403353180E+01 -0.28470814323E+02  0.35713850432E+02  0.00000000000E+00 0.  1.
<mgrwt>
<rscale>  1 0.12684782E+03</rscale>
<asrwt>0</asrwt>
<pdfrwt beam="2">  1        4 0.16565659E-01 0.12684782E+03</pdfrwt>
<pdfrwt beam="1">  1       -4 0.87448243E-02 0.12684782E+03</pdfrwt>
<totfact> 0.48333021E+03</totfact>
</mgrwt>
</event>
<event>
 6    4  0.2398389E-003  0.1287594E+03  0.7818608E-02  0.1229308E+00
          4   -1    0    0  502    0  0.00000000000E+00  0.00000000000E+00  0.35581811211E+02  0.35604468667E+02  0.12700000000E+01 0. -1.
         -4   -1    0    0    0  501 -0.00000000000E+00 -0.00000000000E+00 -0.18755393819E+03  0.18755823797E+03  0.12700000000E+01 0. -1.
         25    2    1    2    0    0 -0.23073281434E+02  0.20548786669E+02 -0.13950905955E+03  0.18984668948E+03  0.12499743541E+03 0.  0.
    9000005    1    3    3    0    0 -0.21516137943E+02 -0.34434962127E+02 -0.79845944790E+00  0.40624479642E+02  0.10000000000E+01 0.  0.
    9000005    1    3    3    0    0 -0.15571434914E+01  0.54983748796E+02 -0.13871060010E+03  0.14922220984E+03  0.10000000000E+01 0.  0.
         21    1    1    2  502  501  0.23073281434E+02 -0.20548786669E+02 -0.12463067429E+02  0.33316017161E+02  0.00000000000E+00 0.  1.
<mgrwt>
<rscale>  1 0.12875942E+03</rscale>
<asrwt>0</asrwt>
<pdfrwt beam="1">  1        4 0.54761985E-02 0.12875942E+03</pdfrwt>
<pdfrwt beam="2">  1       -4 0.28856525E-01 0.12875942E+03</pdfrwt>
<totfact> 0.38121556E+03</totfact>
</mgrwt>
</event>
<event>
 6    4  0.2398389E-003  0.1294344E+03  0.7818608E-02  0.1228297E+00
          4   -1    0    0  502    0  0.00000000000E+00  0.00000000000E+00  0.23709651221E+03  0.23709991354E+03  0.12700000000E+01 0. -1.
         -4   -1    0    0    0  501 -0.00000000000E+00 -0.00000000000E+00 -0.29970860269E+02  0.29997756004E+02  0.12700000000E+01 0. -1.
         25    2    1    2    0    0 -0.17510796138E+02  0.28674935540E+02  0.13235313803E+03  0.18512322996E+03  0.12499750883E+03 0.  0.
    9000005    1    3    3    0    0 -0.50481661074E+01 -0.22746781521E+02 -0.15554920367E+02  0.28033116099E+02  0.10000000000E+01 0.  0.
    9000005    1    3    3    0    0 -0.12462630030E+02  0.51421717061E+02  0.14790805840E+03  0.15709011386E+03  0.10000000000E+01 0.  0.
         21    1    1    2  502  501  0.17510796138E+02 -0.28674935540E+02  0.74772513911E+02  0.81974439590E+02  0.00000000000E+00 0. -1.
<mgrwt>
<rscale>  1 0.12943437E+03</rscale>
<asrwt>0</asrwt>
<pdfrwt beam="1">  1        4 0.36478718E-01 0.12943437E+03</pdfrwt>
<pdfrwt beam="2">  1       -4 0.46132319E-02 0.12943437E+03</pdfrwt>
<totfact> 0.32146005E+03</totfact>
</mgrwt>
</event>
<event>
 6    4  0.2398389E-003  0.1277965E+03  0.7818608E-02  0.1230762E+00
          4   -1    0    0  502    0  0.00000000000E+00  0.00000000000E+00  0.11086860910E+04  0.11086868184E+04  0.12700000000E+01 0. -1.
         -4   -1    0    0    0  501 -0.00000000000E+00 -0.00000000000E+00 -0.58293875193E+01  0.59661259499E+01  0.12700000000E+01 0. -1.
         25    2    1    2    0    0  0.25917409262E+02  0.58907907920E+01  0.75118037232E+03  0.76197369146E+03  0.12500216474E+03 0.  0.
    9000005    1    3    3    0    0  0.60457861908E+02  0.54574301973E+01  0.18432837349E+03  0.19406928115E+03  0.10000000000E+01 0.  0.
    9000005    1    3    3    0    0 -0.34540452646E+02  0.43336059470E+00  0.56685199883E+03  0.56790441031E+03  0.10000000000E+01 0.  0.
         21    1    1    2  502  501 -0.25917409262E+02 -0.58907907920E+01  0.35167633112E+03  0.35267925284E+03  0.00000000000E+00 0. -1.
<mgrwt>
<rscale>  1 0.12779654E+03</rscale>
<asrwt>0</asrwt>
<pdfrwt beam="1">  1        4 0.17057744E+00 0.12779654E+03</pdfrwt>
<pdfrwt beam="2">  1       -4 0.90740434E-03 0.12779654E+03</pdfrwt>
<totfact> 0.12654102E+03</totfact>
</mgrwt>
</event>
<event>
 6    4  0.2398389E-003  0.1268526E+03  0.7818608E-02  0.1232202E+00
          4   -1    0    0  502    0  0.00000000000E+00  0.00000000000E+00  0.11776370408E+02  0.11844652801E+02  0.12700000000E+01 0.  1.
         -4   -1    0    0    0  501 -0.00000000000E+00 -0.00000000000E+00 -0.85642612137E+03  0.85642706301E+03  0.12700000000E+01 0.  1.
         25    2    1    2    0    0 -0.10269028630E+02 -0.19002637557E+02 -0.83505782243E+03  0.84463787829E+03  0.12500010184E+03 0.  0.
    9000005    1    3    3    0    0 -0.59051040271E+02  0.22096144164E+02 -0.41529458448E+03  0.42005458794E+03  0.10000000000E+01 0.  0.
    9000005    1    3    3    0    0  0.48782011641E+02 -0.41098781721E+02 -0.41976323794E+03  0.42458329035E+03  0.10000000000E+01 0.  0.
         21    1    1    2  502  501  0.10269028630E+02  0.19002637557E+02 -0.95919285296E+01  0.23633837523E+02  0.00000000000E+00 0.  1.
<mgrwt>
<rscale>  1 0.12685259E+03</rscale>
<asrwt>0</asrwt>
<pdfrwt beam="1">  1        4 0.18170749E-02 0.12685259E+03</pdfrwt>
<pdfrwt beam="2">  1       -4 0.13176314E+00 0.12685259E+03</pdfrwt>
<totfact> 0.85135686E+02</totfact>
</mgrwt>
</event>
<event>
 6    4  0.2398389E-003  0.1269921E+03  0.7818608E-02  0.1231988E+00
          4   -1    0    0  502    0  0.00000000000E+00  0.00000000000E+00  0.14037333264E+04  0.14037339009E+04  0.12700000000E+01 0. -1.
         -4   -1    0    0    0  501 -0.00000000000E+00 -0.00000000000E+00 -0.47030785904E+01  0.48715344839E+01  0.12700000000E+01 0. -1.
         25    2    1    2    0    0 -0.82588768897E+01 -0.20825178803E+02  0.88257697586E+03  0.89166648423E+03  0.12500041462E+03 0.  0.
    9000005    1    3    3    0    0  0.31494767917E+02 -0.59888318633E+02  0.58617812323E+03  0.59007145607E+03  0.10000000000E+01 0.  0.
    9000005    1    3    3    0    0 -0.39753644806E+02  0.39063139830E+02  0.29639885263E+03  0.30159502816E+03  0.10000000000E+01 0.  0.
         21    1    1    2  502  501  0.82588768897E+01  0.20825178803E+02  0.51645327195E+03  0.51693895116E+03  0.00000000000E+00 0.  1.
<mgrwt>
<rscale>  1 0.12699213E+03</rscale>
<asrwt>0</asrwt>
<pdfrwt beam="1">  1        4 0.21597227E+00 0.12699213E+03</pdfrwt>
<pdfrwt beam="2">  1       -4 0.73655189E-03 0.12699213E+03</pdfrwt>
<totfact> 0.89111459E+02</totfact>
</mgrwt>
</event>
<event>
 6    4  0.2398389E-003  0.1402356E+03  0.7818608E-02  0.1213012E+00
          4   -1    0    0  502    0  0.00000000000E+00  0.00000000000E+00  0.82093297141E+02  0.82103120133E+02  0.12700000000E+01 0. -1.
         -4   -1    0    0    0  501 -0.00000000000E+00 -0.00000000000E+00 -0.12778305662E+03  0.12778936756E+03  0.12700000000E+01 0. -1.
         25    2    1    2    0    0  0.39951684291E+02  0.49445687609E+02 -0.41212718926E+02  0.14616606465E+03  0.12500006862E+03 0.  0.
    9000005    1    3    3    0    0  0.27107738676E+01  0.78349276974E+02 -0.56453293322E+02  0.96612275743E+02  0.10000000000E+01 0.  0.
    9000005    1    3    3    0    0  0.37240910424E+02 -0.28903589365E+02  0.15240574396E+02  0.49553788910E+02  0.10000000000E+01 0.  0.
         21    1    1    2  502  501 -0.39951684291E+02 -0.49445687609E+02 -0.44770405576E+01  0.63726423036E+02  0.00000000000E+00 0.  1.
<mgrwt>
<rscale>  1 0.14023562E+03</rscale>
<asrwt>0</asrwt>
<pdfrwt beam="1">  1        4 0.12630979E-01 0.14023562E+03</pdfrwt>
<pdfrwt beam="2">  1       -4 0.19660173E-01 0.14023562E+03</pdfrwt>
<totfact> 0.19592885E+03</totfact>
</mgrwt>
</event>
<event>
 6    4  0.2398389E-003  0.1278006E+03  0.7818608E-02  0.1230756E+00
          4   -1    0    0  502    0  0.00000000000E+00  0.00000000000E+00  0.75045983002E+02  0.75056728311E+02  0.12700000000E+01 0.  1.
         -4   -1    0    0    0  501 -0.00000000000E+00 -0.00000000000E+00 -0.15248812520E+03  0.15249341372E+03  0.12700000000E+01 0.  1.
         25    2    1    2    0    0  0.17961915786E+02 -0.19621491327E+02  0.17462247299E+02  0.12898809819E+03  0.12500146420E+03 0.  0.
    9000005    1    3    3    0    0  0.68165382249E+01  0.33533290557E+02 -0.38143901007E+02  0.51253331140E+02  0.10000000000E+01 0.  0.
    9000005    1    3    3    0    0  0.11145377561E+02 -0.53154781884E+02  0.55606148306E+02  0.77734767045E+02  0.10000000000E+01 0.  0.
         21    1    1    2  502  501 -0.17961915786E+02  0.19621491327E+02 -0.94904389496E+02  0.98562043842E+02  0.00000000000E+00 0.  1.
<mgrwt>
<rscale>  1 0.12780062E+03</rscale>
<asrwt>0</asrwt>
<pdfrwt beam="1">  1        4 0.11546769E-01 0.12780062E+03</pdfrwt>
<pdfrwt beam="2">  1       -4 0.23460945E-01 0.12780062E+03</pdfrwt>
<totfact> 0.16242391E+03</totfact>
</mgrwt>
</event>
<event>
 6    4  0.2398389E-003  0.1338375E+03  0.7818608E-02  0.1221870E+00
         -4   -1    0    0    0  501 -0.00000000000E+00  0.00000000000E+00  0.28360161727E+03  0.28360446086E+03  0.12700000000E+01 0.  1.
          4   -1    0    0  502    0  0.00000000000E+00 -0.00000000000E+00 -0.29837712879E+02  0.29864728524E+02  0.12700000000E+01 0.  1.
         25    2    1    2    0    0  0.14120006069E+02  0.45687993099E+02  0.20759710889E+03  0.24700009663E+03  0.12500288328E+03 0.  0.
    9000005    1    3    3    0    0  0.66399260392E+02  0.37231080714E+02  0.89049971555E+02  0.11715763989E+03  0.10000000000E+01 0.  0.
    9000005    1    3    3    0    0 -0.52279254323E+02  0.84569123855E+01  0.11854713734E+03  0.12984245673E+03  0.10000000000E+01 0.  0.
         21    1    1    2  502  501 -0.14120006069E+02 -0.45687993099E+02  0.46166795497E+02  0.66469092752E+02  0.00000000000E+00 0.  1.
<mgrwt>
<rscale>  1 0.13383754E+03</rscale>
<asrwt>0</asrwt>
<pdfrwt beam="2">  1        4 0.45927140E-02 0.13383754E+03</pdfrwt>
<pdfrwt beam="1">  1       -4 0.43633317E-01 0.13383754E+03</pdfrwt>
<totfact> 0.22947427E+03</totfact>
</mgrwt>
</event>
<event>
 6    4  0.2398389E-003  0.1303011E+03  0.7818608E-02  0.1227010E+00
         -4   -1    0    0    0  501 -0.00000000000E+00  0.00000000000E+00  0.22527568609E+03  0.22527926590E+03  0.12700000000E+01 0.  1.
          4   -1    0    0  502    0  0.00000000000E+00 -0.00000000000E+00 -0.31064899974E+02  0.31090849304E+02  0.12700000000E+01 0.  1.
         25    2    1    2    0    0 -0.87808845358E+01  0.35728219219E+02  0.15723309120E+03  0.20420729795E+03  0.12499906395E+03 0.  0.
    9000005    1    3    3    0    0 -0.16785690117E+02  0.13128995199E+02  0.17376382172E+03  0.17506854557E+03  0.10000000000E+01 0.  0.
    9000005    1    3    3    0    0  0.80048055815E+01  0.22599224020E+02 -0.16530730528E+02  0.29138752384E+02  0.10000000000E+01 0.  0.
         21    1    1    2  502  501  0.87808845358E+01 -0.35728219219E+02  0.36977694923E+02  0.52162817252E+02  0.00000000000E+00 0.  1.
<mgrwt>
<rscale>  1 0.13030110E+03</rscale>
<asrwt>0</asrwt>
<pdfrwt beam="2">  1        4 0.47814868E-02 0.13030110E+03</pdfrwt>
<pdfrwt beam="1">  1       -4 0.34660070E-01 0.13030110E+03</pdfrwt>
<totfact> 0.33562125E+03</totfact>
</mgrwt>
</event>
<event>
 6    4  0.2398389E-003  0.1269063E+03  0.7818608E-02  0.1232120E+00
          4   -1    0    0  502    0  0.00000000000E+00  0.00000000000E+00  0.53168024854E+03  0.53168176533E+03  0.12700000000E+01 0.  1.
         -4   -1    0    0    0  501 -0.00000000000E+00 -0.00000000000E+00 -0.20177929244E+02  0.20217856676E+02  0.12700000000E+01 0.  1.
         25    2    1    2    0    0 -0.21822644210E+02  0.10822249650E+01  0.18314842512E+03  0.22281957273E+03  0.12501126892E+03 0.  0.
    9000005    1    3    3    0    0 -0.48564453900E+02  0.41098380380E+02  0.15379242115E+03  0.16643524824E+03  0.10000000000E+01 0.  0.
    9000005    1    3    3    0    0  0.26741809689E+02 -0.40016155415E+02  0.29356003968E+02  0.56384324494E+02  0.10000000000E+01 0.  0.
         21    1    1    2  502  501  0.21822644210E+02 -0.10822249650E+01  0.32835389417E+03  0.32908004927E+03  0.00000000000E+00 0.  1.
<mgrwt>
<rscale>  1 0.12690633E+03</rscale>
<asrwt>0</asrwt>
<pdfrwt beam="1">  1        4 0.81800141E-01 0.12690633E+03</pdfrwt>
<pdfrwt beam="2">  1       -4 0.31074851E-02 0.12690633E+03</pdfrwt>
<totfact> 0.11247584E+03</totfact>
</mgrwt>
</event>
<event>
 6    4  0.2398389E-003  0.1324849E+03  0.7818608E-02  0.1223814E+00
          4   -1    0    0  502    0  0.00000000000E+00  0.00000000000E+00  0.64781421971E+02  0.64793869561E+02  0.12700000000E+01 0.  1.
         -4   -1    0    0    0  501 -0.00000000000E+00 -0.00000000000E+00 -0.12111296439E+03  0.12111962286E+03  0.12700000000E+01 0.  1.
         25    2    1    2    0    0 -0.18341262309E+02 -0.39935903414E+02 -0.49546378048E+02  0.14144646262E+03  0.12498391866E+03 0.  0.
    9000005    1    3    3    0    0 -0.62455535055E+02 -0.45268308502E+02 -0.31654067439E+01  0.77207081369E+02  0.10000000000E+01 0.  0.
    9000005    1    3    3    0    0  0.44114272746E+02  0.53324050882E+01 -0.46380971304E+02  0.64239381247E+02  0.10000000000E+01 0.  0.
         21    1    1    2  502  501  0.18341262309E+02  0.39935903414E+02 -0.67851643690E+01  0.44467029810E+02  0.00000000000E+00 0.  1.
<mgrwt>
<rscale>  1 0.13248494E+03</rscale>
<asrwt>0</asrwt>
<pdfrwt beam="1">  1        4 0.99678423E-02 0.13248494E+03</pdfrwt>
<pdfrwt beam="2">  1       -4 0.18634234E-01 0.13248494E+03</pdfrwt>
<totfact> 0.31853316E+03</totfact>
</mgrwt>
</event>
<event>
 6    4  0.2398389E-003  0.1308724E+03  0.7818608E-02  0.1226167E+00
          4   -1    0    0  502    0  0.00000000000E+00  0.00000000000E+00  0.12696095271E+04  0.12696101623E+04  0.12700000000E+01 0.  1.
         -4   -1    0    0    0  501 -0.00000000000E+00 -0.00000000000E+00 -0.58405193175E+01  0.59770030867E+01  0.12700000000E+01 0.  1.
         25    2    1    2    0    0 -0.31718370015E+02 -0.22277302418E+02  0.85128727522E+03  0.86128834460E+03  0.12500101760E+03 0.  0.
    9000005    1    3    3    0    0 -0.78462699438E+02 -0.18013993432E+02  0.43750763803E+03  0.44485372034E+03  0.10000000000E+01 0.  0.
    9000005    1    3    3    0    0  0.46744329423E+02 -0.42633089860E+01  0.41377963719E+03  0.41643462427E+03  0.10000000000E+01 0.  0.
         21    1    1    2  502  501  0.31718370015E+02  0.22277302418E+02  0.41248173261E+03  0.41429882082E+03  0.00000000000E+00 0. -1.
<mgrwt>
<rscale>  1 0.13087241E+03</rscale>
<asrwt>0</asrwt>
<pdfrwt beam="1">  1        4 0.19533523E+00 0.13087241E+03</pdfrwt>
<pdfrwt beam="2">  1       -4 0.90908841E-03 0.13087241E+03</pdfrwt>
<totfact> 0.87507957E+02</totfact>
</mgrwt>
</event>
<event>
 6    4  0.2398389E-003  0.1304790E+03  0.7818608E-02  0.1226747E+00
         -4   -1    0    0    0  501 -0.00000000000E+00  0.00000000000E+00  0.91024771489E+01  0.91906468895E+01  0.12700000000E+01 0. -1.
          4   -1    0    0  502    0  0.00000000000E+00 -0.00000000000E+00 -0.82696149018E+03  0.82696246537E+03  0.12700000000E+01 0. -1.
         25    2    1    2    0    0  0.35399414570E+02  0.12078978202E+02 -0.52763170354E+03  0.54352551370E+03  0.12500299676E+03 0.  0.
    9000005    1    3    3    0    0 -0.36697031375E+02  0.37895980323E+02 -0.25117456163E+03  0.25665626400E+03  0.10000000000E+01 0.  0.
    9000005    1    3    3    0    0  0.72096445945E+02 -0.25817002121E+02 -0.27645714190E+03  0.28686924970E+03  0.10000000000E+01 0.  0.
         21    1    1    2  502  501 -0.35399414570E+02 -0.12078978202E+02 -0.29022730949E+03  0.29262759856E+03  0.00000000000E+00 0. -1.
<mgrwt>
<rscale>  1 0.13047900E+03</rscale>
<asrwt>0</asrwt>
<pdfrwt beam="2">  1        4 0.12723164E+00 0.13047900E+03</pdfrwt>
<pdfrwt beam="1">  1       -4 0.14072391E-02 0.13047900E+03</pdfrwt>
<totfact> 0.13780825E+03</totfact>
</mgrwt>
</event>
<event>
 6    4  0.2398389E-003  0.1266978E+03  0.7818608E-02  0.1232440E+00
         -4   -1    0    0    0  501 -0.00000000000E+00  0.00000000000E+00  0.40270086935E+02  0.40290107989E+02  0.12700000000E+01 0.  1.
          4   -1    0    0  502    0  0.00000000000E+00 -0.00000000000E+00 -0.16831130527E+03  0.16831609662E+03  0.12700000000E+01 0.  1.
         25    2    1    2    0    0 -0.10358314478E+02  0.17894555521E+02 -0.65279244078E+02  0.14252613796E+03  0.12499924199E+03 0.  0.
    9000005    1    3    3    0    0  0.37286231845E+02  0.32310291090E+02 -0.76926479030E+02  0.91394207538E+02  0.10000000000E+01 0.  0.
    9000005    1    3    3    0    0 -0.47644546323E+02 -0.14415735569E+02  0.11647234953E+02  0.51131930419E+02  0.10000000000E+01 0.  0.
         21    1    1    2  502  501  0.10358314478E+02 -0.17894555521E+02 -0.62761974260E+02  0.66080066655E+02  0.00000000000E+00 0.  1.
<mgrwt>
<rscale>  1 0.12669775E+03</rscale>
<asrwt>0</asrwt>
<pdfrwt beam="2">  1        4 0.25895955E-01 0.12669775E+03</pdfrwt>
<pdfrwt beam="1">  1       -4 0.61973067E-02 0.12669775E+03</pdfrwt>
<totfact> 0.38024947E+03</totfact>
</mgrwt>
</event>
<event>
 6    4  0.2398389E-003  0.1274044E+03  0.7818608E-02  0.1231359E+00
         -4   -1    0    0    0  501 -0.00000000000E+00  0.00000000000E+00  0.17762432912E+02  0.17807777036E+02  0.12700000000E+01 0. -1.
          4   -1    0    0  502    0  0.00000000000E+00 -0.00000000000E+00 -0.32948603794E+03  0.32948848553E+03  0.12700000000E+01 0. -1.
         25    2    1    2    0    0  0.39237675799E+01  0.24316821688E+02 -0.24451619073E+03  0.27571735293E+03  0.12500074962E+03 0.  0.
    9000005    1    3    3    0    0  0.16650001086E+02  0.70271137787E+02 -0.98723991062E+02  0.12232204116E+03  0.10000000000E+01 0.  0.
    9000005    1    3    3    0    0 -0.12726233506E+02 -0.45954316100E+02 -0.14579219967E+03  0.15339531177E+03  0.10000000000E+01 0.  0.
         21    1    1    2  502  501 -0.39237675799E+01 -0.24316821688E+02 -0.67207414297E+02  0.71578909642E+02  0.00000000000E+00 0. -1.
<mgrwt>
<rscale>  1 0.12740444E+03</rscale>
<asrwt>0</asrwt>
<pdfrwt beam="2">  1        4 0.50693831E-01 0.12740444E+03</pdfrwt>
<pdfrwt beam="1">  1       -4 0.27363585E-02 0.12740444E+03</pdfrwt>
<totfact> 0.37950307E+03</totfact>
</mgrwt>
</event>
<event>
 6    4  0.2398389E-003  0.1268646E+03  0.7818608E-02  0.1232184E+00
          4   -1    0    0  502    0  0.00000000000E+00  0.00000000000E+00  0.11761012744E+02  0.11829383786E+02  0.12700000000E+01 0.  1.
         -4   -1    0    0    0  501 -0.00000000000E+00 -0.00000000000E+00 -0.48770288539E+03  0.48770453896E+03  0.12700000000E+01 0.  1.
         25    2    1    2    0    0 -0.10298605196E+02 -0.19066496812E+02 -0.43612346857E+03  0.45420073542E+03  0.12500014259E+03 0.  0.
    9000005    1    3    3    0    0 -0.15369584729E+02 -0.71929283282E+02 -0.26541070282E+03  0.27541584395E+03  0.10000000000E+01 0.  0.
    9000005    1    3    3    0    0  0.50709795330E+01  0.52862786470E+02 -0.17071276575E+03  0.17878489147E+03  0.10000000000E+01 0.  0.
         21    1    1    2  502  501  0.10298605196E+02  0.19066496812E+02 -0.39818404078E+02  0.45333187324E+02  0.00000000000E+00 0.  1.
<mgrwt>
<rscale>  1 0.12686461E+03</rscale>
<asrwt>0</asrwt>
<pdfrwt beam="1">  1        4 0.18147735E-02 0.12686461E+03</pdfrwt>
<pdfrwt beam="2">  1       -4 0.75036584E-01 0.12686461E+03</pdfrwt>
<totfact> 0.31281397E+03</totfact>
</mgrwt>
</event>
<event>
 6    4  0.2398389E-003  0.1388083E+03  0.7818608E-02  0.1214942E+00
          4   -1    0    0  502    0  0.00000000000E+00  0.00000000000E+00  0.10023480700E+03  0.10024285229E+03  0.12700000000E+01 0. -1.
         -4   -1    0    0    0  501 -0.00000000000E+00 -0.00000000000E+00 -0.12099113505E+03  0.12099780023E+03  0.12700000000E+01 0. -1.
         25    2    1    2    0    0  0.46312659699E+02 -0.38590499501E+02 -0.57936152162E+02  0.15041390318E+03  0.12503461698E+03 0.  0.
    9000005    1    3    3    0    0  0.64098581659E+02 -0.41403040464E+02 -0.87300537471E+02  0.11595354144E+03  0.10000000000E+01 0.  0.
    9000005    1    3    3    0    0 -0.17785921960E+02  0.28125409626E+01  0.29364385309E+02  0.34460361740E+02  0.10000000000E+01 0.  0.
         21    1    1    2  502  501 -0.46312659699E+02  0.38590499501E+02  0.37179824117E+02  0.70826749336E+02  0.00000000000E+00 0. -1.
<mgrwt>
<rscale>  1 0.13880830E+03</rscale>
<asrwt>0</asrwt>
<pdfrwt beam="1">  1        4 0.15421871E-01 0.13880830E+03</pdfrwt>
<pdfrwt beam="2">  1       -4 0.18615152E-01 0.13880830E+03</pdfrwt>
<totfact> 0.15246747E+03</totfact>
</mgrwt>
</event>
<event>
 6    4  0.2398389E-003  0.1284503E+03  0.7818608E-02  0.1229773E+00
         -4   -1    0    0    0  501 -0.00000000000E+00  0.00000000000E+00  0.29990873363E+03  0.29991142260E+03  0.12700000000E+01 0. -1.
          4   -1    0    0  502    0  0.00000000000E+00 -0.00000000000E+00 -0.23037168822E+02  0.23072148737E+02  0.12700000000E+01 0. -1.
         25    2    1    2    0    0 -0.28385966914E+02 -0.82799049799E+01  0.25713382080E+03  0.28743222140E+03  0.12500064062E+03 0.  0.
    9000005    1    3    3    0    0 -0.62470592067E+02 -0.12681773767E+01  0.57938345573E+02  0.85217574683E+02  0.10000000000E+01 0.  0.
    9000005    1    3    3    0    0  0.34084625153E+02 -0.70117276033E+01  0.19919547522E+03  0.20221464671E+03  0.10000000000E+01 0.  0.
         21    1    1    2  502  501  0.28385966914E+02  0.82799049799E+01  0.19737744012E+02  0.35551349944E+02  0.00000000000E+00 0.  1.
<mgrwt>
<rscale>  1 0.12845030E+03</rscale>
<asrwt>0</asrwt>
<pdfrwt beam="2">  1        4 0.35470776E-02 0.12845030E+03</pdfrwt>
<pdfrwt beam="1">  1       -4 0.46142700E-01 0.12845030E+03</pdfrwt>
<totfact> 0.30627841E+03</totfact>
</mgrwt>
</event>
<event>
 6    4  0.2398389E-003  0.1342475E+03  0.7818608E-02  0.1221286E+00
         -4   -1    0    0    0  501 -0.00000000000E+00  0.00000000000E+00  0.14234739992E+03  0.14235306517E+03  0.12700000000E+01 0.  1.
          4   -1    0    0  502    0  0.00000000000E+00 -0.00000000000E+00 -0.71193746203E+02  0.71205072842E+02  0.12700000000E+01 0.  1.
         25    2    1    2    0    0 -0.25215125896E+02  0.41973406267E+02  0.89414429653E+02  0.16129892499E+03  0.12499933426E+03 0.  0.
    9000005    1    3    3    0    0 -0.15523588181E+02  0.65887508787E+02  0.10939524279E+03  0.12864860959E+03  0.10000000000E+01 0.  0.
    9000005    1    3    3    0    0 -0.96915377148E+01 -0.23914102520E+02 -0.19980813134E+02  0.32650315406E+02  0.10000000000E+01 0.  0.
         21    1    1    2  502  501  0.25215125896E+02 -0.41973406267E+02 -0.18260775938E+02  0.52259213020E+02  0.00000000000E+00 0.  1.
<mgrwt>
<rscale>  1 0.13424754E+03</rscale>
<asrwt>0</asrwt>
<pdfrwt beam="2">  1        4 0.10954191E-01 0.13424754E+03</pdfrwt>
<pdfrwt beam="1">  1       -4 0.21900907E-01 0.13424754E+03</pdfrwt>
<totfact> 0.20364979E+03</totfact>
</mgrwt>
</event>
<event>
 6    4  0.2398389E-003  0.1269140E+03  0.7818608E-02  0.1232108E+00
          4   -1    0    0  502    0  0.00000000000E+00  0.00000000000E+00  0.72911945161E+01  0.74009740894E+01  0.12700000000E+01 0. -1.
         -4   -1    0    0    0  501 -0.00000000000E+00 -0.00000000000E+00 -0.78385046189E+03  0.78385149072E+03  0.12700000000E+01 0. -1.
         25    2    1    2    0    0 -0.13683489382E+02 -0.17164171411E+02 -0.70735424686E+03  0.71864956180E+03  0.12500126182E+03 0.  0.
    9000005    1    3    3    0    0 -0.64442915641E+01 -0.95072208155E+01 -0.31719809912E+00  0.11533289038E+02  0.10000000000E+01 0.  0.
    9000005    1    3    3    0    0 -0.72391978177E+01 -0.76569505954E+01 -0.70703704876E+03  0.70711627276E+03  0.10000000000E+01 0.  0.
         21    1    1    2  502  501  0.13683489382E+02  0.17164171411E+02 -0.69205020515E+02  0.72602903016E+02  0.00000000000E+00 0. -1.
<mgrwt>
<rscale>  1 0.12691399E+03</rscale>
<asrwt>0</asrwt>
<pdfrwt beam="1">  1        4 0.11302466E-02 0.12691399E+03</pdfrwt>
<pdfrwt beam="2">  1       -4 0.12060084E+00 0.12691399E+03</pdfrwt>
<totfact> 0.21729324E+03</totfact>
</mgrwt>
</event>
<event>
 6    4  0.2398389E-003  0.1271263E+03  0.7818608E-02  0.1231783E+00
         -4   -1    0    0    0  501 -0.00000000000E+00  0.00000000000E+00  0.76373995120E+02  0.76384553613E+02  0.12700000000E+01 0. -1.
          4   -1    0    0  502    0  0.00000000000E+00 -0.00000000000E+00 -0.86274252902E+02  0.86283599912E+02  0.12700000000E+01 0. -1.
         25    2    1    2    0    0  0.21277348352E+02 -0.93587749951E+01  0.15696953054E+02  0.12809172478E+03  0.12498313246E+03 0.  0.
    9000005    1    3    3    0    0 -0.15677542722E+02  0.25156352904E+02 -0.41967739266E+02  0.51389868421E+02  0.10000000000E+01 0.  0.
    9000005    1    3    3    0    0  0.36954891075E+02 -0.34515127899E+02  0.57664692320E+02  0.76701856357E+02  0.10000000000E+01 0.  0.
         21    1    1    2  502  501 -0.21277348352E+02  0.93587749951E+01 -0.25597210836E+02  0.34576428747E+02  0.00000000000E+00 0. -1.
<mgrwt>
<rscale>  1 0.12712630E+03</rscale>
<asrwt>0</asrwt>
<pdfrwt beam="2">  1        4 0.13274493E-01 0.12712630E+03</pdfrwt>
<pdfrwt beam="1">  1       -4 0.11751377E-01 0.12712630E+03</pdfrwt>
<totfact> 0.43234754E+03</totfact>
</mgrwt>
</event>
<event>
 6    4  0.2398389E-003  0.1287521E+03  0.7818608E-02  0.1229319E+00
         -4   -1    0    0    0  501 -0.00000000000E+00  0.00000000000E+00  0.49313971762E+02  0.49330322429E+02  0.12700000000E+01 0. -1.
          4   -1    0    0  502    0  0.00000000000E+00 -0.00000000000E+00 -0.14796464000E+03  0.14797009018E+03  0.12700000000E+01 0. -1.
         25    2    1    2    0    0 -0.29957288965E+02  0.73314525271E+01 -0.46845006022E+02  0.13700931878E+03  0.12500363789E+03 0.  0.
    9000005    1    3    3    0    0 -0.54833107441E+02  0.25832591077E+02 -0.74086251164E+02  0.95727556351E+02  0.10000000000E+01 0.  0.
    9000005    1    3    3    0    0  0.24875818476E+02 -0.18501138550E+02  0.27241245142E+02  0.41281762430E+02  0.10000000000E+01 0.  0.
         21    1    1    2  502  501  0.29957288965E+02 -0.73314525271E+01 -0.51805662212E+02  0.60291093833E+02  0.00000000000E+00 0. -1.
<mgrwt>
<rscale>  1 0.12875208E+03</rscale>
<asrwt>0</asrwt>
<pdfrwt beam="2">  1        4 0.22765468E-01 0.12875208E+03</pdfrwt>
<pdfrwt beam="1">  1       -4 0.75884420E-02 0.12875208E+03</pdfrwt>
<totfact> 0.34720695E+03</totfact>
</mgrwt>
</event>
<event>
 6    4  0.2398389E-003  0.1453131E+03  0.7818608E-02  0.1206353E+00
         -4   -1    0    0    0  501 -0.00000000000E+00  0.00000000000E+00  0.96978086229E+02  0.96986401669E+02  0.12700000000E+01 0.  1.
          4   -1    0    0  502    0  0.00000000000E+00 -0.00000000000E+00 -0.12985080237E+03  0.12985701281E+03  0.12700000000E+01 0.  1.
         25    2    1    2    0    0 -0.47239405376E+02 -0.57092279732E+02  0.11185135967E+01  0.14531738475E+03  0.12499920564E+03 0.  0.
    9000005    1    3    3    0    0 -0.48558418394E+02 -0.19677609186E+02 -0.56204562458E+02  0.76844525774E+02  0.10000000000E+01 0.  0.
    9000005    1    3    3    0    0  0.13190130183E+01 -0.37414670546E+02  0.57323076055E+02  0.68472858972E+02  0.10000000000E+01 0.  0.
         21    1    1    2  502  501  0.47239405376E+02  0.57092279732E+02 -0.33991229739E+02  0.81526029735E+02  0.00000000000E+00 0.  1.
<mgrwt>
<rscale>  1 0.14531308E+03</rscale>
<asrwt>0</asrwt>
<pdfrwt beam="2">  1        4 0.19978164E-01 0.14531308E+03</pdfrwt>
<pdfrwt beam="1">  1       -4 0.14920823E-01 0.14531308E+03</pdfrwt>
<totfact> 0.14370010E+03</totfact>
</mgrwt>
</event>
<event>
 6    4  0.2398389E-003  0.1299972E+03  0.7818608E-02  0.1227460E+00
         -4   -1    0    0    0  501 -0.00000000000E+00  0.00000000000E+00  0.16051504185E+03  0.16052006591E+03  0.12700000000E+01 0. -1.
          4   -1    0    0  502    0  0.00000000000E+00 -0.00000000000E+00 -0.43355253190E+02  0.43373850177E+02  0.12700000000E+01 0. -1.
         25    2    1    2    0    0  0.35472662834E+02  0.38737279441E+01  0.81420163255E+02  0.15339009048E+03  0.12500384513E+03 0.  0.
    9000005    1    3    3    0    0  0.66778638441E+02  0.42111481687E+02  0.61576080967E+02  0.10012680555E+03  0.10000000000E+01 0.  0.
    9000005    1    3    3    0    0 -0.31305975607E+02 -0.38237753743E+02  0.19844082288E+02  0.53263284933E+02  0.10000000000E+01 0.  0.
         21    1    1    2  502  501 -0.35472662834E+02 -0.38737279441E+01  0.35739625401E+02  0.50503825603E+02  0.00000000000E+00 0.  1.
<mgrwt>
<rscale>  1 0.12999722E+03</rscale>
<asrwt>0</asrwt>
<pdfrwt beam="2">  1        4 0.66718559E-02 0.12999722E+03</pdfrwt>
<pdfrwt beam="1">  1       -4 0.24696439E-01 0.12999722E+03</pdfrwt>
<totfact> 0.37033705E+03</totfact>
</mgrwt>
</event>
<event>
 6    4  0.2398389E-003  0.1405496E+03  0.7818608E-02  0.1212591E+00
         -4   -1    0    0    0  501 -0.00000000000E+00  0.00000000000E+00  0.61431551107E+02  0.61444677324E+02  0.12700000000E+01 0. -1.
          4   -1    0    0  502    0  0.00000000000E+00 -0.00000000000E+00 -0.23432366535E+03  0.23432710693E+03  0.12700000000E+01 0. -1.
         25    2    1    2    0    0 -0.44511667792E+02 -0.46349194855E+02 -0.36825818067E+02  0.14529396733E+03  0.12499863852E+03 0.  0.
    9000005    1    3    3    0    0 -0.48317737832E+02 -0.11599913530E+02 -0.77240552276E+02  0.91849140982E+02  0.10000000000E+01 0.  0.
    9000005    1    3    3    0    0  0.38060700404E+01 -0.34749281324E+02  0.40414734209E+02  0.53444826344E+02  0.10000000000E+01 0.  0.
         21    1    1    2  502  501  0.44511667792E+02  0.46349194855E+02 -0.13606629617E+03  0.15047781693E+03  0.00000000000E+00 0. -1.
<mgrwt>
<rscale>  1 0.14054962E+03</rscale>
<asrwt>0</asrwt>
<pdfrwt beam="2">  1        4 0.36051069E-01 0.14054962E+03</pdfrwt>
<pdfrwt beam="1">  1       -4 0.94522824E-02 0.14054962E+03</pdfrwt>
<totfact> 0.10357555E+03</totfact>
</mgrwt>
</event>
<event>
 6    4  0.2398389E-003  0.1268524E+03  0.7818608E-02  0.1232202E+00
          4   -1    0    0  502    0  0.00000000000E+00  0.00000000000E+00  0.16078483492E+03  0.16078985055E+03  0.12700000000E+01 0.  1.
         -4   -1    0    0    0  501 -0.00000000000E+00 -0.00000000000E+00 -0.34440422170E+02  0.34463830014E+02  0.12700000000E+01 0.  1.
         25    2    1    2    0    0 -0.21543346070E+01 -0.21292202347E+02  0.10149137473E+03  0.16245623345E+03  0.12503411376E+03 0.  0.
    9000005    1    3    3    0    0 -0.17773828529E+02  0.27949679825E+02  0.10554814705E+03  0.11062777648E+03  0.10000000000E+01 0.  0.
    9000005    1    3    3    0    0  0.15619493922E+02 -0.49241882172E+02 -0.40567723224E+01  0.51828456970E+02  0.10000000000E+01 0.  0.
         21    1    1    2  502  501  0.21543346070E+01  0.21292202347E+02  0.24853038021E+02  0.32797447115E+02  0.00000000000E+00 0.  1.
<mgrwt>
<rscale>  1 0.12685239E+03</rscale>
<asrwt>0</asrwt>
<pdfrwt beam="1">  1        4 0.24738315E-01 0.12685239E+03</pdfrwt>
<pdfrwt beam="2">  1       -4 0.53007130E-02 0.12685239E+03</pdfrwt>
<totfact> 0.53296778E+03</totfact>
</mgrwt>
</event>
<event>
 6    4  0.2398389E-003  0.1382156E+03  0.7818608E-02  0.1215750E+00
         -4   -1    0    0    0  501 -0.00000000000E+00  0.00000000000E+00  0.21910118619E+03  0.21910486688E+03  0.12700000000E+01 0.  1.
          4   -1    0    0  502    0  0.00000000000E+00 -0.00000000000E+00 -0.67886862229E+02  0.67898740514E+02  0.12700000000E+01 0.  1.
         25    2    1    2    0    0  0.48569269225E+02 -0.33461036478E+02  0.17535235566E+03  0.22327559589E+03  0.12499971283E+03 0.  0.
    9000005    1    3    3    0    0  0.17960607867E+02  0.45785210318E+02  0.39693967227E+02  0.63209808994E+02  0.10000000000E+01 0.  0.
    9000005    1    3    3    0    0  0.30608661358E+02 -0.79246246796E+02  0.13565838844E+03  0.16006578690E+03  0.10000000000E+01 0.  0.
         21    1    1    2  502  501 -0.48569269225E+02  0.33461036478E+02 -0.24138031704E+02  0.63728011501E+02  0.00000000000E+00 0.  1.
<mgrwt>
<rscale>  1 0.13821557E+03</rscale>
<asrwt>0</asrwt>
<pdfrwt beam="2">  1        4 0.10445329E-01 0.13821557E+03</pdfrwt>
<pdfrwt beam="1">  1       -4 0.33709072E-01 0.13821557E+03</pdfrwt>
<totfact> 0.99302045E+02</totfact>
</mgrwt>
</event>
<event>
 6    4  0.2398389E-003  0.1423998E+03  0.7818608E-02  0.1210136E+00
         -4   -1    0    0    0  501 -0.00000000000E+00  0.00000000000E+00  0.20377941058E+03  0.20378336800E+03  0.12700000000E+01 0. -1.
          4   -1    0    0  502    0  0.00000000000E+00 -0.00000000000E+00 -0.68256972323E+02  0.68268786210E+02  0.12700000000E+01 0. -1.
         25    2    1    2    0    0 -0.55119421308E+02 -0.40181144934E+02  0.14494791826E+03  0.20319349690E+03  0.12500009265E+03 0.  0.
    9000005    1    3    3    0    0  0.18917782963E+02 -0.60851346529E+02  0.81871101759E+02  0.10375281293E+03  0.10000000000E+01 0.  0.
    9000005    1    3    3    0    0 -0.74037204271E+02  0.20670201595E+02  0.63076816499E+02  0.99440683977E+02  0.10000000000E+01 0.  0.
         21    1    1    2  502  501  0.55119421308E+02  0.40181144934E+02 -0.94254800028E+01  0.68858657313E+02  0.00000000000E+00 0. -1.
<mgrwt>
<rscale>  1 0.14239978E+03</rscale>
<asrwt>0</asrwt>
<pdfrwt beam="2">  1        4 0.10502286E-01 0.14239978E+03</pdfrwt>
<pdfrwt beam="1">  1       -4 0.31351891E-01 0.14239978E+03</pdfrwt>
<totfact> 0.11371463E+03</totfact>
</mgrwt>
</event>
<event>
 6    4  0.2398389E-003  0.1267344E+03  0.7818608E-02  0.1232383E+00
         -4   -1    0    0    0  501 -0.00000000000E+00  0.00000000000E+00  0.56558523867E+03  0.56558666453E+03  0.12700000000E+01 0.  1.
          4   -1    0    0  502    0  0.00000000000E+00 -0.00000000000E+00 -0.97577045130E+01  0.98400049473E+01  0.12700000000E+01 0.  1.
         25    2    1    2    0    0  0.51883776269E+01  0.20233727416E+02  0.50023340963E+03  0.51603786860E+03  0.12500117895E+03 0.  0.
    9000005    1    3    3    0    0  0.14901902559E+02 -0.29099682670E+02  0.42049429261E+03  0.42176451765E+03  0.10000000000E+01 0.  0.
    9000005    1    3    3    0    0 -0.97135249325E+01  0.49333410087E+02  0.79739117014E+02  0.94273350951E+02  0.10000000000E+01 0.  0.
         21    1    1    2  502  501 -0.51883776269E+01 -0.20233727416E+02  0.55594124526E+02  0.59388800875E+02  0.00000000000E+00 0.  1.
<mgrwt>
<rscale>  1 0.12673444E+03</rscale>
<asrwt>0</asrwt>
<pdfrwt beam="2">  1        4 0.15076253E-02 0.12673444E+03</pdfrwt>
<pdfrwt beam="1">  1       -4 0.87019585E-01 0.12673444E+03</pdfrwt>
<totfact> 0.29917136E+03</totfact>
</mgrwt>
</event>
<event>
 6    4  0.2398389E-003  0.1285180E+03  0.7818608E-02  0.1229671E+00
         -4   -1    0    0    0  501 -0.00000000000E+00  0.00000000000E+00  0.26465936301E+02  0.26496390024E+02  0.12700000000E+01 0.  1.
          4   -1    0    0  502    0  0.00000000000E+00 -0.00000000000E+00 -0.26408213847E+03  0.26408519224E+03  0.12700000000E+01 0.  1.
         25    2    1    2    0    0 -0.22189060521E+02  0.20018423246E+02 -0.14747852508E+03  0.19561899748E+03  0.12499514047E+03 0.  0.
    9000005    1    3    3    0    0  0.50523690740E+02  0.20285735857E+02 -0.49399552048E+02  0.73521902504E+02  0.10000000000E+01 0.  0.
    9000005    1    3    3    0    0 -0.72712751261E+02 -0.26731261141E+00 -0.98078973030E+02  0.12209709498E+03  0.10000000000E+01 0.  0.
         21    1    1    2  502  501  0.22189060521E+02 -0.20018423246E+02 -0.90137677095E+02  0.94962584780E+02  0.00000000000E+00 0.  1.
<mgrwt>
<rscale>  1 0.12851800E+03</rscale>
<asrwt>0</asrwt>
<pdfrwt beam="2">  1        4 0.40630597E-01 0.12851800E+03</pdfrwt>
<pdfrwt beam="1">  1       -4 0.40742602E-02 0.12851800E+03</pdfrwt>
<totfact> 0.31685125E+03</totfact>
</mgrwt>
</event>
<event>
 6    4  0.2398389E-003  0.1269297E+03  0.7818608E-02  0.1232084E+00
          4   -1    0    0  502    0  0.00000000000E+00  0.00000000000E+00  0.31277167429E+01  0.33757239259E+01  0.12700000000E+01 0. -1.
         -4   -1    0    0    0  501 -0.00000000000E+00 -0.00000000000E+00 -0.17189772035E+04  0.17189776726E+04  0.12700000000E+01 0. -1.
         25    2    1    2    0    0 -0.14428262468E+02  0.16678670122E+02 -0.15102404757E+04  0.15155650550E+04  0.12499915441E+03 0.  0.
    9000005    1    3    3    0    0  0.47885310559E+02  0.36104269713E+02 -0.60154365779E+03  0.60452650355E+03  0.10000000000E+01 0.  0.
    9000005    1    3    3    0    0 -0.62313573027E+02 -0.19425599591E+02 -0.90869681790E+03  0.91103855142E+03  0.10000000000E+01 0.  0.
         21    1    1    2  502  501  0.14428262468E+02 -0.16678670122E+02 -0.20560901103E+03  0.20678834157E+03  0.00000000000E+00 0.  1.
<mgrwt>
<rscale>  1 0.12692967E+03</rscale>
<asrwt>0</asrwt>
<pdfrwt beam="1">  1        4 0.50030213E-03 0.12692967E+03</pdfrwt>
<pdfrwt beam="2">  1       -4 0.26447642E+00 0.12692967E+03</pdfrwt>
<totfact> 0.82601317E+02</totfact>
</mgrwt>
</event>
<event>
 6    4  0.2398389E-003  0.1266084E+03  0.7818608E-02  0.1232577E+00
         -4   -1    0    0    0  501 -0.00000000000E+00  0.00000000000E+00  0.24248453449E+04  0.24248456775E+04  0.12700000000E+01 0. -1.
          4   -1    0    0  502    0  0.00000000000E+00 -0.00000000000E+00 -0.22670789072E+01  0.25985662915E+01  0.12700000000E+01 0. -1.
         25    2    1    2    0    0  0.53710119638E+01 -0.19360604115E+02  0.22728961327E+04  0.22764196703E+04  0.12500401823E+03 0.  0.
    9000005    1    3    3    0    0 -0.26210536768E+02 -0.18213617669E+02  0.21222966139E+04  0.21225368420E+04  0.10000000000E+01 0.  0.
    9000005    1    3    3    0    0  0.31581548732E+02 -0.11469864453E+01  0.15059951877E+03  0.15388282832E+03  0.10000000000E+01 0.  0.
         21    1    1    2  502  501 -0.53710119638E+01  0.19360604115E+02  0.14968213326E+03  0.15102457342E+03  0.00000000000E+00 0. -1.
<mgrwt>
<rscale>  1 0.12660839E+03</rscale>
<asrwt>0</asrwt>
<pdfrwt beam="2">  1        4 0.37430399E-03 0.12660839E+03</pdfrwt>
<pdfrwt beam="1">  1       -4 0.37308064E+00 0.12660839E+03</pdfrwt>
<totfact> 0.28919050E+02</totfact>
</mgrwt>
</event>
<event>
 6    4  0.2398389E-003  0.1286888E+03  0.7818608E-02  0.1229414E+00
          4   -1    0    0  502    0  0.00000000000E+00  0.00000000000E+00  0.13798080721E+02  0.13856403992E+02  0.12700000000E+01 0. -1.
         -4   -1    0    0    0  501 -0.00000000000E+00 -0.00000000000E+00 -0.46438054947E+03  0.46438228608E+03  0.12700000000E+01 0. -1.
         25    2    1    2    0    0 -0.91034569171E+01  0.29207084325E+02 -0.38333536642E+03  0.40435973858E+03  0.12499947332E+03 0.  0.
    9000005    1    3    3    0    0 -0.26598367781E+02  0.30803418700E+02 -0.38457157607E+03  0.38672033938E+03  0.10000000000E+01 0.  0.
    9000005    1    3    3    0    0  0.17494910864E+02 -0.15963343757E+01  0.12362096502E+01  0.17639399193E+02  0.10000000000E+01 0.  0.
         21    1    1    2  502  501  0.91034569171E+01 -0.29207084325E+02 -0.67247102328E+02  0.73878951496E+02  0.00000000000E+00 0.  1.
<mgrwt>
<rscale>  1 0.12868875E+03</rscale>
<asrwt>0</asrwt>
<pdfrwt beam="1">  1        4 0.21274020E-02 0.12868875E+03</pdfrwt>
<pdfrwt beam="2">  1       -4 0.71447769E-01 0.12868875E+03</pdfrwt>
<totfact> 0.27345039E+03</totfact>
</mgrwt>
</event>
<event>
 6    4  0.2398389E-003  0.1272691E+03  0.7818608E-02  0.1231565E+00
          4   -1    0    0  502    0  0.00000000000E+00  0.00000000000E+00  0.17052336582E+02  0.17099563822E+02  0.12700000000E+01 0.  1.
         -4   -1    0    0    0  501 -0.00000000000E+00 -0.00000000000E+00 -0.33481879231E+03  0.33482120092E+03  0.12700000000E+01 0.  1.
         25    2    1    2    0    0 -0.21842061663E+02 -0.97864877285E+01 -0.26470178714E+03  0.29370813679E+03  0.12499833001E+03 0.  0.
    9000005    1    3    3    0    0  0.26252824841E+02 -0.28208129942E+02 -0.22603552264E+03  0.22929885936E+03  0.10000000000E+01 0.  0.
    9000005    1    3    3    0    0 -0.48094886503E+02  0.18421642213E+02 -0.38666264494E+02  0.64409277434E+02  0.10000000000E+01 0.  0.
         21    1    1    2  502  501  0.21842061663E+02  0.97864877285E+01 -0.53064668592E+02  0.58212627947E+02  0.00000000000E+00 0.  1.
<mgrwt>
<rscale>  1 0.12726914E+03</rscale>
<asrwt>0</asrwt>
<pdfrwt beam="1">  1        4 0.26272548E-02 0.12726914E+03</pdfrwt>
<pdfrwt beam="2">  1       -4 0.51514397E-01 0.12726914E+03</pdfrwt>
<totfact> 0.39117525E+03</totfact>
</mgrwt>
</event>
<event>
 6    4  0.2398389E-003  0.1278016E+03  0.7818608E-02  0.1230755E+00
         -4   -1    0    0    0  501 -0.00000000000E+00  0.00000000000E+00  0.21453877430E+02  0.21491434498E+02  0.12700000000E+01 0. -1.
          4   -1    0    0  502    0  0.00000000000E+00 -0.00000000000E+00 -0.30213551033E+03  0.30213817949E+03  0.12700000000E+01 0. -1.
         25    2    1    2    0    0  0.20396264890E+02  0.17086332380E+02 -0.18891592621E+03  0.22808436135E+03  0.12500119336E+03 0.  0.
    9000005    1    3    3    0    0 -0.40487105656E+02 -0.26380363252E+02 -0.10543282891E+03  0.11598366566E+03  0.10000000000E+01 0.  0.
    9000005    1    3    3    0    0  0.60883370546E+02  0.43466695633E+02 -0.83483097300E+02  0.11210069568E+03  0.10000000000E+01 0.  0.
         21    1    1    2  502  501 -0.20396264890E+02 -0.17086332380E+02 -0.91765706697E+02  0.95545252636E+02  0.00000000000E+00 0. -1.
<mgrwt>
<rscale>  1 0.12780160E+03</rscale>
<asrwt>0</asrwt>
<pdfrwt beam="2">  1        4 0.46485478E-01 0.12780160E+03</pdfrwt>
<pdfrwt beam="1">  1       -4 0.33036911E-02 0.12780160E+03</pdfrwt>
<totfact> 0.33707141E+03</totfact>
</mgrwt>
</event>
<event>
 6    4  0.2398389E-003  0.1301587E+03  0.7818608E-02  0.1227220E+00
         -4   -1    0    0    0  501 -0.00000000000E+00  0.00000000000E+00  0.51746823496E+03  0.51746979341E+03  0.12700000000E+01 0.  1.
          4   -1    0    0  502    0  0.00000000000E+00 -0.00000000000E+00 -0.18028640780E+02  0.18073317027E+02  0.12700000000E+01 0.  1.
         25    2    1    2    0    0 -0.28504136355E+02  0.22449983856E+02  0.47317729054E+03  0.49075252932E+03  0.12499923674E+03 0.  0.
    9000005    1    3    3    0    0 -0.35851412504E+02 -0.46779698644E+02  0.25548306058E+03  0.26219507667E+03  0.10000000000E+01 0.  0.
    9000005    1    3    3    0    0  0.73472761494E+01  0.69229682500E+02  0.21769422996E+03  0.22855745265E+03  0.10000000000E+01 0.  0.
         21    1    1    2  502  501  0.28504136355E+02 -0.22449983856E+02  0.26262303640E+02  0.44790581119E+02  0.00000000000E+00 0.  1.
<mgrwt>
<rscale>  1 0.13015874E+03</rscale>
<asrwt>0</asrwt>
<pdfrwt beam="2">  1        4 0.27771936E-02 0.13015874E+03</pdfrwt>
<pdfrwt beam="1">  1       -4 0.79614053E-01 0.13015874E+03</pdfrwt>
<totfact> 0.14315457E+03</totfact>
</mgrwt>
</event>
<event>
 6    4  0.2398389E-003  0.1277490E+03  0.7818608E-02  0.1230834E+00
         -4   -1    0    0    0  501 -0.00000000000E+00  0.00000000000E+00  0.24977701803E+02  0.25009967760E+02  0.12700000000E+01 0. -1.
          4   -1    0    0  502    0  0.00000000000E+00 -0.00000000000E+00 -0.31023259387E+03  0.31023519336E+03  0.12700000000E+01 0. -1.
         25    2    1    2    0    0 -0.22114030931E+02  0.14373237151E+02 -0.14813309915E+03  0.19560989909E+03  0.12499678895E+03 0.  0.
    9000005    1    3    3    0    0 -0.35860129737E+02  0.64642389868E+02 -0.70894076139E+02  0.10242830421E+03  0.10000000000E+01 0.  0.
    9000005    1    3    3    0    0  0.13746098806E+02 -0.50269152718E+02 -0.77239023012E+02  0.93181594873E+02  0.10000000000E+01 0.  0.
         21    1    1    2  502  501  0.22114030931E+02 -0.14373237151E+02 -0.13712179291E+03  0.13963526203E+03  0.00000000000E+00 0. -1.
<mgrwt>
<rscale>  1 0.12774904E+03</rscale>
<asrwt>0</asrwt>
<pdfrwt beam="2">  1        4 0.47730771E-01 0.12774904E+03</pdfrwt>
<pdfrwt beam="1">  1       -4 0.38454055E-02 0.12774904E+03</pdfrwt>
<totfact> 0.25149965E+03</totfact>
</mgrwt>
</event>
<event>
 6    4  0.2398389E-003  0.1268117E+03  0.7818608E-02  0.1232265E+00
         -4   -1    0    0    0  501 -0.00000000000E+00  0.00000000000E+00  0.12721346110E+03  0.12721980029E+03  0.12700000000E+01 0.  1.
          4   -1    0    0  502    0  0.00000000000E+00 -0.00000000000E+00 -0.13768045183E+03  0.13768630911E+03  0.12700000000E+01 0.  1.
         25    2    1    2    0    0  0.14129253304E+02  0.15973316194E+02  0.94274621246E+02  0.15801556769E+03  0.12500573103E+03 0.  0.
    9000005    1    3    3    0    0 -0.23976516889E+02 -0.23730063129E+02 -0.14013297440E+02  0.36542602033E+02  0.10000000000E+01 0.  0.
    9000005    1    3    3    0    0  0.38105770194E+02  0.39703379323E+02  0.10828791869E+03  0.12147296565E+03  0.10000000000E+01 0.  0.
         21    1    1    2  502  501 -0.14129253304E+02 -0.15973316194E+02 -0.10474161198E+03  0.10689054172E+03  0.00000000000E+00 0.  1.
<mgrwt>
<rscale>  1 0.12681173E+03</rscale>
<asrwt>0</asrwt>
<pdfrwt beam="2">  1        4 0.21182546E-01 0.12681173E+03</pdfrwt>
<pdfrwt beam="1">  1       -4 0.19572240E-01 0.12681173E+03</pdfrwt>
<totfact> 0.77743857E+02</totfact>
</mgrwt>
</event>
<event>
 6    4  0.2398389E-003  0.1280010E+03  0.7818608E-02  0.1230452E+00
          4   -1    0    0  502    0  0.00000000000E+00  0.00000000000E+00  0.33975642568E+02  0.33999370405E+02  0.12700000000E+01 0.  1.
         -4   -1    0    0    0  501 -0.00000000000E+00 -0.00000000000E+00 -0.21119230102E+03  0.21119611954E+03  0.12700000000E+01 0.  1.
         25    2    1    2    0    0  0.24624572268E+02  0.12383169324E+02 -0.17597602695E+03  0.21760470148E+03  0.12499812639E+03 0.  0.
    9000005    1    3    3    0    0  0.14419682445E+01  0.20505564722E+02  0.14737527874E+02  0.25313083274E+02  0.10000000000E+01 0.  0.
    9000005    1    3    3    0    0  0.23182604023E+02 -0.81223953976E+01 -0.19071355483E+03  0.19229161820E+03  0.10000000000E+01 0.  0.
         21    1    1    2  502  501 -0.24624572268E+02 -0.12383169324E+02 -0.12406314975E+01  0.27590788470E+02  0.00000000000E+00 0.  1.
<mgrwt>
<rscale>  1 0.12800095E+03</rscale>
<asrwt>0</asrwt>
<pdfrwt beam="1">  1        4 0.52291410E-02 0.12800095E+03</pdfrwt>
<pdfrwt beam="2">  1       -4 0.32493241E-01 0.12800095E+03</pdfrwt>
<totfact> 0.32755656E+03</totfact>
</mgrwt>
</event>
<event>
 6    4  0.2398389E-003  0.1266325E+03  0.7818608E-02  0.1232540E+00
         -4   -1    0    0    0  501 -0.00000000000E+00  0.00000000000E+00  0.24589292788E+02  0.24622067740E+02  0.12700000000E+01 0.  1.
          4   -1    0    0  502    0  0.00000000000E+00 -0.00000000000E+00 -0.21931180868E+03  0.21931548584E+03  0.12700000000E+01 0.  1.
         25    2    1    2    0    0  0.33368495534E+01  0.20021729281E+02 -0.16760854400E+03  0.21006763063E+03  0.12499512474E+03 0.  0.
    9000005    1    3    3    0    0 -0.31201747588E+02  0.41480738167E+01 -0.16910597143E+03  0.17201332839E+03  0.10000000000E+01 0.  0.
    9000005    1    3    3    0    0  0.34538597142E+02  0.15873655464E+02  0.14974274345E+01  0.38054302243E+02  0.10000000000E+01 0.  0.
         21    1    1    2  502  501 -0.33368495534E+01 -0.20021729281E+02 -0.27113971901E+02  0.33869922949E+02  0.00000000000E+00 0.  1.
<mgrwt>
<rscale>  1 0.12663248E+03</rscale>
<asrwt>0</asrwt>
<pdfrwt beam="2">  1        4 0.33743081E-01 0.12663248E+03</pdfrwt>
<pdfrwt beam="1">  1       -4 0.37857723E-02 0.12663248E+03</pdfrwt>
<totfact> 0.50882166E+03</totfact>
</mgrwt>
</event>
<event>
 6    4  0.2398389E-003  0.1290674E+03  0.7818608E-02  0.1228846E+00
          4   -1    0    0  502    0  0.00000000000E+00  0.00000000000E+00  0.11427005214E+02  0.11497362661E+02  0.12700000000E+01 0. -1.
         -4   -1    0    0    0  501 -0.00000000000E+00 -0.00000000000E+00 -0.59857893196E+03  0.59858027924E+03  0.12700000000E+01 0. -1.
         25    2    1    2    0    0  0.19006073335E+02  0.25906654179E+02 -0.40361002544E+03  0.42374456623E+03  0.12500407678E+03 0.  0.
    9000005    1    3    3    0    0 -0.17104521339E+02 -0.40854033145E+02 -0.23056924355E+03  0.23478669627E+03  0.10000000000E+01 0.  0.
    9000005    1    3    3    0    0  0.36110594674E+02  0.66760687323E+02 -0.17304078190E+03  0.18895786996E+03  0.10000000000E+01 0.  0.
         21    1    1    2  502  501 -0.19006073335E+02 -0.25906654179E+02 -0.18354190131E+03  0.18633307567E+03  0.00000000000E+00 0. -1.
<mgrwt>
<rscale>  1 0.12906744E+03</rscale>
<asrwt>0</asrwt>
<pdfrwt beam="1">  1        4 0.17635170E-02 0.12906744E+03</pdfrwt>
<pdfrwt beam="2">  1       -4 0.92094558E-01 0.12906744E+03</pdfrwt>
<totfact> 0.20811373E+03</totfact>
</mgrwt>
</event>
<event>
 6    4  0.2398389E-003  0.1881945E+03  0.7818608E-02  0.1160100E+00
         -4   -1    0    0    0  501 -0.00000000000E+00  0.00000000000E+00  0.28670451679E+03  0.28670732960E+03  0.12700000000E+01 0. -1.
          4   -1    0    0  502    0  0.00000000000E+00 -0.00000000000E+00 -0.94545691057E+02  0.94554220410E+02  0.12700000000E+01 0. -1.
         25    2    1    2    0    0 -0.12324873584E+03 -0.67897819104E+02  0.10077426382E+03  0.21347745397E+03  0.12496722123E+03 0.  0.
    9000005    1    3    3    0    0 -0.10271276810E+03 -0.35236836865E+02  0.12678713892E+03  0.16693569420E+03  0.10000000000E+01 0.  0.
    9000005    1    3    3    0    0 -0.20535967740E+02 -0.32660982239E+02 -0.26012875100E+02  0.46541759773E+02  0.10000000000E+01 0.  0.
         21    1    1    2  502  501  0.12324873584E+03  0.67897819104E+02  0.91384561913E+02  0.16778409603E+03  0.00000000000E+00 0. -1.
<mgrwt>
<rscale>  1 0.18819450E+03</rscale>
<asrwt>0</asrwt>
<pdfrwt beam="2">  1        4 0.14546364E-01 0.18819450E+03</pdfrwt>
<pdfrwt beam="1">  1       -4 0.44109259E-01 0.18819450E+03</pdfrwt>
<totfact> 0.35062198E+02</totfact>
</mgrwt>
</event>
<event>
 6    4  0.2398389E-003  0.1411616E+03  0.7818608E-02  0.1211774E+00
         -4   -1    0    0    0  501 -0.00000000000E+00  0.00000000000E+00  0.76034800028E+02  0.76045405616E+02  0.12700000000E+01 0.  1.
          4   -1    0    0  502    0  0.00000000000E+00 -0.00000000000E+00 -0.14343697067E+03  0.14344259289E+03  0.12700000000E+01 0.  1.
         25    2    1    2    0    0  0.38071300239E+02  0.53405132072E+02 -0.31179758313E+02  0.14456406916E+03  0.12500024292E+03 0.  0.
    9000005    1    3    3    0    0 -0.19180165533E+02 -0.26282355974E+02  0.15320546871E+02  0.35977216983E+02  0.10000000000E+01 0.  0.
    9000005    1    3    3    0    0  0.57251465772E+02  0.79687488046E+02 -0.46500305184E+02  0.10858685218E+03  0.10000000000E+01 0.  0.
         21    1    1    2  502  501 -0.38071300239E+02 -0.53405132072E+02 -0.36222412331E+02  0.74923929346E+02  0.00000000000E+00 0.  1.
<mgrwt>
<rscale>  1 0.14116158E+03</rscale>
<asrwt>0</asrwt>
<pdfrwt beam="2">  1        4 0.22068474E-01 0.14116158E+03</pdfrwt>
<pdfrwt beam="1">  1       -4 0.11698910E-01 0.14116158E+03</pdfrwt>
<totfact> 0.18155351E+03</totfact>
</mgrwt>
</event>
<event>
 6    4  0.2398389E-003  0.1358750E+03  0.7818608E-02  0.1218990E+00
         -4   -1    0    0    0  501 -0.00000000000E+00  0.00000000000E+00  0.66484285646E+01  0.67686411028E+01  0.12700000000E+01 0.  1.
          4   -1    0    0  502    0  0.00000000000E+00 -0.00000000000E+00 -0.13357718357E+04  0.13357724394E+04  0.12700000000E+01 0.  1.
         25    2    1    2    0    0 -0.30276720570E+02  0.43776989783E+02 -0.98421992250E+03  0.99355466482E+03  0.12501564498E+03 0.  0.
    9000005    1    3    3    0    0  0.47980974847E+02  0.28410419840E+02 -0.37056183536E+03  0.37473510608E+03  0.10000000000E+01 0.  0.
    9000005    1    3    3    0    0 -0.78257695417E+02  0.15366569943E+02 -0.61365808714E+03  0.61881955874E+03  0.10000000000E+01 0.  0.
         21    1    1    2  502  501  0.30276720570E+02 -0.43776989783E+02 -0.34490348462E+03  0.34898641570E+03  0.00000000000E+00 0. -1.
<mgrwt>
<rscale>  1 0.13587500E+03</rscale>
<asrwt>0</asrwt>
<pdfrwt beam="2">  1        4 0.20551244E+00 0.13587500E+03</pdfrwt>
<pdfrwt beam="1">  1       -4 0.10321298E-02 0.13587500E+03</pdfrwt>
<totfact> 0.62955492E+02</totfact>
</mgrwt>
</event>
<event>
 6    4  0.2398389E-003  0.1322043E+03  0.7818608E-02  0.1224221E+00
          4   -1    0    0  502    0  0.00000000000E+00  0.00000000000E+00  0.16955338132E+02  0.17002834798E+02  0.12700000000E+01 0.  1.
         -4   -1    0    0    0  501 -0.00000000000E+00 -0.00000000000E+00 -0.63398648504E+03  0.63398775707E+03  0.12700000000E+01 0.  1.
         25    2    1    2    0    0 -0.30983107615E+02 -0.29884287820E+02 -0.57785684616E+03  0.59278707431E+03  0.12499982884E+03 0.  0.
    9000005    1    3    3    0    0  0.17949392139E+02 -0.55820430941E+02 -0.14514514475E+03  0.15654460780E+03  0.10000000000E+01 0.  0.
    9000005    1    3    3    0    0 -0.48932499753E+02  0.25936143121E+02 -0.43271170141E+03  0.43624246651E+03  0.10000000000E+01 0.  0.
         21    1    1    2  502  501  0.30983107615E+02  0.29884287820E+02 -0.39174300752E+02  0.58203517551E+02  0.00000000000E+00 0. -1.
<mgrwt>
<rscale>  1 0.13220431E+03</rscale>
<asrwt>0</asrwt>
<pdfrwt beam="1">  1        4 0.26122655E-02 0.13220431E+03</pdfrwt>
<pdfrwt beam="2">  1       -4 0.97540116E-01 0.13220431E+03</pdfrwt>
<totfact> 0.10007182E+03</totfact>
</mgrwt>
</event>
<event>
 6    4  0.2398389E-003  0.1297779E+03  0.7818608E-02  0.1227786E+00
          4   -1    0    0  502    0  0.00000000000E+00  0.00000000000E+00  0.10889714606E+03  0.10890455142E+03  0.12700000000E+01 0. -1.
         -4   -1    0    0    0  501 -0.00000000000E+00 -0.00000000000E+00 -0.70153855638E+02  0.70165350145E+02  0.12700000000E+01 0. -1.
         25    2    1    2    0    0  0.34878659996E+02  0.72678793242E+00  0.40078015716E+01  0.12983979564E+03  0.12500104365E+03 0.  0.
    9000005    1    3    3    0    0 -0.39335074575E+02 -0.14154746670E+02 -0.25062846526E+02  0.48751935563E+02  0.10000000000E+01 0.  0.
    9000005    1    3    3    0    0  0.74213734570E+02  0.14881534603E+02  0.29070648098E+02  0.81087860077E+02  0.10000000000E+01 0.  0.
         21    1    1    2  502  501 -0.34878659996E+02 -0.72678793242E+00  0.34735488850E+02  0.49230105926E+02  0.00000000000E+00 0.  1.
<mgrwt>
<rscale>  1 0.12977793E+03</rscale>
<asrwt>0</asrwt>
<pdfrwt beam="1">  1        4 0.16754861E-01 0.12977793E+03</pdfrwt>
<pdfrwt beam="2">  1       -4 0.10794355E-01 0.12977793E+03</pdfrwt>
<totfact> 0.33454045E+03</totfact>
</mgrwt>
</event>
<event>
 6    4  0.2398389E-003  0.1288785E+03  0.7818608E-02  0.1229129E+00
          4   -1    0    0  502    0  0.00000000000E+00  0.00000000000E+00  0.12166216710E+03  0.12166879552E+03  0.12700000000E+01 0.  1.
         -4   -1    0    0    0  501 -0.00000000000E+00 -0.00000000000E+00 -0.58018768163E+02  0.58032666311E+02  0.12700000000E+01 0.  1.
         25    2    1    2    0    0  0.26367770838E+02  0.16997913639E+02  0.27386413076E+02  0.13175610303E+03  0.12500186661E+03 0.  0.
    9000005    1    3    3    0    0 -0.33953152883E+02  0.17579870694E+02  0.53705783595E+02  0.65933145199E+02  0.10000000000E+01 0.  0.
    9000005    1    3    3    0    0  0.60320923721E+02 -0.58195705437E+00 -0.26319370520E+02  0.65822957827E+02  0.10000000000E+01 0.  0.
         21    1    1    2  502  501 -0.26367770838E+02 -0.16997913639E+02  0.36256985857E+02  0.47945358800E+02  0.00000000000E+00 0. -1.
<mgrwt>
<rscale>  1 0.12887845E+03</rscale>
<asrwt>0</asrwt>
<pdfrwt beam="1">  1        4 0.18718835E-01 0.12887845E+03</pdfrwt>
<pdfrwt beam="2">  1       -4 0.89275434E-02 0.12887845E+03</pdfrwt>
<totfact> 0.37753300E+03</totfact>
</mgrwt>
</event>
<event>
 6    4  0.2398389E-003  0.1349633E+03  0.7818608E-02  0.1220272E+00
         -4   -1    0    0    0  501 -0.00000000000E+00  0.00000000000E+00  0.10206691902E+03  0.10207481990E+03  0.12700000000E+01 0. -1.
          4   -1    0    0  502    0  0.00000000000E+00 -0.00000000000E+00 -0.12186444498E+03  0.12187106240E+03  0.12700000000E+01 0. -1.
         25    2    1    2    0    0  0.21353310093E+02 -0.46085925408E+02  0.44405502279E+02  0.14208071749E+03  0.12504081445E+03 0.  0.
    9000005    1    3    3    0    0 -0.14140909656E+02  0.24298418333E+02  0.55739532423E+02  0.62436158868E+02  0.10000000000E+01 0.  0.
    9000005    1    3    3    0    0  0.35494219748E+02 -0.70384343741E+02 -0.11334030145E+02  0.79644558626E+02  0.10000000000E+01 0.  0.
         21    1    1    2  502  501 -0.21353310093E+02  0.46085925408E+02 -0.64203028243E+02  0.81865164803E+02  0.00000000000E+00 0. -1.
<mgrwt>
<rscale>  1 0.13496326E+03</rscale>
<asrwt>0</asrwt>
<pdfrwt beam="2">  1        4 0.18749493E-01 0.13496326E+03</pdfrwt>
<pdfrwt beam="1">  1       -4 0.15703720E-01 0.13496326E+03</pdfrwt>
<totfact> 0.14494747E+03</totfact>
</mgrwt>
</event>
<event>
 6    4  0.2398389E-003  0.1336817E+03  0.7818608E-02  0.1222093E+00
          4   -1    0    0  502    0  0.00000000000E+00  0.00000000000E+00  0.17108708331E+03  0.17109179693E+03  0.12700000000E+01 0.  1.
         -4   -1    0    0    0  501 -0.00000000000E+00 -0.00000000000E+00 -0.56579594364E+02  0.56593845941E+02  0.12700000000E+01 0.  1.
         25    2    1    2    0    0  0.43422102313E+02  0.18996506759E+02  0.40282147157E+02  0.13961892042E+03  0.12499778127E+03 0.  0.
    9000005    1    3    3    0    0  0.47520436246E+02  0.62060714492E+02 -0.32518141508E+01  0.78238727236E+02  0.10000000000E+01 0.  0.
    9000005    1    3    3    0    0 -0.40983339331E+01 -0.43064207733E+02  0.43533961308E+02  0.61380193189E+02  0.10000000000E+01 0.  0.
         21    1    1    2  502  501 -0.43422102313E+02 -0.18996506759E+02  0.74225341793E+02  0.88066722447E+02  0.00000000000E+00 0.  1.
<mgrwt>
<rscale>  1 0.13368168E+03</rscale>
<asrwt>0</asrwt>
<pdfrwt beam="1">  1        4 0.26322548E-01 0.13368168E+03</pdfrwt>
<pdfrwt beam="2">  1       -4 0.87060120E-02 0.13368168E+03</pdfrwt>
<totfact> 0.21356137E+03</totfact>
</mgrwt>
</event>
<event>
 6    4  0.2398389E-003  0.1266396E+03  0.7818608E-02  0.1232529E+00
         -4   -1    0    0    0  501 -0.00000000000E+00  0.00000000000E+00  0.12075003621E+03  0.12075671470E+03  0.12700000000E+01 0.  1.
          4   -1    0    0  502    0  0.00000000000E+00 -0.00000000000E+00 -0.44754785957E+02  0.44772801632E+02  0.12700000000E+01 0.  1.
         25    2    1    2    0    0  0.20832156698E-01  0.20351415241E+02  0.67118244312E+02  0.14332632352E+03  0.12499358287E+03 0.  0.
    9000005    1    3    3    0    0  0.60091179730E+01 -0.42608251937E+02 -0.93937188132E+01  0.44054677221E+02  0.10000000000E+01 0.  0.
    9000005    1    3    3    0    0 -0.59882858163E+01  0.62959667178E+02  0.76511963125E+02  0.99271646302E+02  0.10000000000E+01 0.  0.
         21    1    1    2  502  501 -0.20832156698E-01 -0.20351415241E+02  0.88770059381E+01  0.22203192804E+02  0.00000000000E+00 0.  1.
<mgrwt>
<rscale>  1 0.12663955E+03</rscale>
<asrwt>0</asrwt>
<pdfrwt beam="2">  1        4 0.68872513E-02 0.12663955E+03</pdfrwt>
<pdfrwt beam="1">  1       -4 0.18578828E-01 0.12663955E+03</pdfrwt>
<totfact> 0.58486427E+03</totfact>
</mgrwt>
</event>
<event>
 6    4  0.2398389E-003  0.1267873E+03  0.7818608E-02  0.1232302E+00
          4   -1    0    0  502    0  0.00000000000E+00  0.00000000000E+00  0.45317673666E+02  0.45335465659E+02  0.12700000000E+01 0.  1.
         -4   -1    0    0    0  501 -0.00000000000E+00 -0.00000000000E+00 -0.12692949774E+03  0.12693585110E+03  0.12700000000E+01 0.  1.
         25    2    1    2    0    0 -0.21229681581E+02  0.10244963978E+01 -0.82035481567E+02  0.15101270772E+03  0.12499307454E+03 0.  0.
    9000005    1    3    3    0    0  0.15403511760E+02  0.27418126666E+02 -0.98143539558E+02  0.10306394229E+03  0.10000000000E+01 0.  0.
    9000005    1    3    3    0    0 -0.36633193341E+02 -0.26393630268E+02  0.16108057990E+02  0.47948765421E+02  0.10000000000E+01 0.  0.
         21    1    1    2  502  501  0.21229681581E+02 -0.10244963978E+01  0.42365749789E+00  0.21258609046E+02  0.00000000000E+00 0.  1.
<mgrwt>
<rscale>  1 0.12678729E+03</rscale>
<asrwt>0</asrwt>
<pdfrwt beam="1">  1        4 0.69738072E-02 0.12678729E+03</pdfrwt>
<pdfrwt beam="2">  1       -4 0.19529472E-01 0.12678729E+03</pdfrwt>
<totfact> 0.52429416E+03</totfact>
</mgrwt>
</event>
<event>
 6    4  0.2398389E-003  0.1268129E+03  0.7818608E-02  0.1232263E+00
         -4   -1    0    0    0  501 -0.00000000000E+00  0.00000000000E+00  0.18417548279E+03  0.18417986144E+03  0.12700000000E+01 0.  1.
          4   -1    0    0  502    0  0.00000000000E+00 -0.00000000000E+00 -0.31835795987E+02  0.31861117465E+02  0.12700000000E+01 0.  1.
         25    2    1    2    0    0  0.15414123040E+02  0.14815247979E+02  0.14673317031E+03  0.19393849513E+03  0.12499771943E+03 0.  0.
    9000005    1    3    3    0    0  0.34762596947E+02 -0.29492980078E+02  0.13729228333E+03  0.14466666887E+03  0.10000000000E+01 0.  0.
    9000005    1    3    3    0    0 -0.19348473906E+02  0.44308228057E+02  0.94408869796E+01  0.49271826260E+02  0.10000000000E+01 0.  0.
         21    1    1    2  502  501 -0.15414123040E+02 -0.14815247979E+02  0.56065164893E+01  0.22102483772E+02  0.00000000000E+00 0.  1.
<mgrwt>
<rscale>  1 0.12681292E+03</rscale>
<asrwt>0</asrwt>
<pdfrwt beam="2">  1        4 0.49000994E-02 0.12681292E+03</pdfrwt>
<pdfrwt beam="1">  1       -4 0.28336974E-01 0.12681292E+03</pdfrwt>
<totfact> 0.46988950E+03</totfact>
</mgrwt>
</event>
<event>
 6    4  0.2398389E-003  0.1268330E+03  0.7818608E-02  0.1232232E+00
          4   -1    0    0  502    0  0.00000000000E+00  0.00000000000E+00  0.34621042396E+02  0.34644328202E+02  0.12700000000E+01 0.  1.
         -4   -1    0    0    0  501 -0.00000000000E+00 -0.00000000000E+00 -0.18285377885E+03  0.18285818916E+03  0.12700000000E+01 0.  1.
         25    2    1    2    0    0 -0.14457355441E+02 -0.15889643312E+02 -0.14941393852E+03  0.19598761254E+03  0.12500049342E+03 0.  0.
    9000005    1    3    3    0    0 -0.34338446691E+02  0.98569951547E+01 -0.15827374440E+03  0.16225864366E+03  0.10000000000E+01 0.  0.
    9000005    1    3    3    0    0  0.19881091250E+02 -0.25746638467E+02  0.88598058821E+01  0.33728968883E+02  0.10000000000E+01 0.  0.
         21    1    1    2  502  501  0.14457355441E+02  0.15889643312E+02  0.11812020633E+01  0.21514904816E+02  0.00000000000E+00 0. -1.
<mgrwt>
<rscale>  1 0.12683304E+03</rscale>
<asrwt>0</asrwt>
<pdfrwt beam="1">  1        4 0.53284448E-02 0.12683304E+03</pdfrwt>
<pdfrwt beam="2">  1       -4 0.28133480E-01 0.12683304E+03</pdfrwt>
<totfact> 0.41626640E+03</totfact>
</mgrwt>
</event>
<event>
 6    4  0.2398389E-003  0.1330306E+03  0.7818608E-02  0.1223027E+00
          4   -1    0    0  502    0  0.00000000000E+00  0.00000000000E+00  0.13374311993E+02  0.13434475102E+02  0.12700000000E+01 0. -1.
         -4   -1    0    0    0  501 -0.00000000000E+00 -0.00000000000E+00 -0.65306854619E+03  0.65306978105E+03  0.12700000000E+01 0. -1.
         25    2    1    2    0    0 -0.13240686611E+02  0.43518363998E+02 -0.55092648120E+03  0.56676019488E+03  0.12501186755E+03 0.  0.
    9000005    1    3    3    0    0  0.24195841101E+02 -0.36806459024E+02 -0.16417322137E+03  0.16998235428E+03  0.10000000000E+01 0.  0.
    9000005    1    3    3    0    0 -0.37436527712E+02  0.80324823022E+02 -0.38675325983E+03  0.39677784060E+03  0.10000000000E+01 0.  0.
         21    1    1    2  502  501  0.13240686611E+02 -0.43518363998E+02 -0.88767753000E+02  0.99744061275E+02  0.00000000000E+00 0. -1.
<mgrwt>
<rscale>  1 0.13303056E+03</rscale>
<asrwt>0</asrwt>
<pdfrwt beam="1">  1        4 0.20623099E-02 0.13303056E+03</pdfrwt>
<pdfrwt beam="2">  1       -4 0.10047678E+00 0.13303056E+03</pdfrwt>
<totfact> 0.13495937E+03</totfact>
</mgrwt>
</event>
<event>
 6    4  0.2398389E-003  0.1396395E+03  0.7818608E-02  0.1213815E+00
         -4   -1    0    0    0  501 -0.00000000000E+00  0.00000000000E+00  0.93204104386E+03  0.93204190911E+03  0.12700000000E+01 0.  1.
          4   -1    0    0  502    0  0.00000000000E+00 -0.00000000000E+00 -0.11913935534E+02  0.11981433967E+02  0.12700000000E+01 0.  1.
         25    2    1    2    0    0 -0.61823896883E+02  0.72371190929E+01  0.49337026527E+03  0.51275083849E+03  0.12499853440E+03 0.  0.
    9000005    1    3    3    0    0 -0.23902695514E+02  0.51244626557E+02  0.39077706208E+03  0.39484815164E+03  0.10000000000E+01 0.  0.
    9000005    1    3    3    0    0 -0.37921201369E+02 -0.44007507465E+02  0.10259320320E+03  0.11790268686E+03  0.10000000000E+01 0.  0.
         21    1    1    2  502  501  0.61823896883E+02 -0.72371190929E+01  0.42675684305E+03  0.43127250459E+03  0.00000000000E+00 0.  1.
<mgrwt>
<rscale>  1 0.13963955E+03</rscale>
<asrwt>0</asrwt>
<pdfrwt beam="2">  1        4 0.18381712E-02 0.13963955E+03</pdfrwt>
<pdfrwt beam="1">  1       -4 0.14339624E+00 0.13963955E+03</pdfrwt>
<totfact> 0.69095985E+02</totfact>
</mgrwt>
</event>
<event>
 6    4  0.2398389E-003  0.1293928E+03  0.7818608E-02  0.1228360E+00
          4   -1    0    0  502    0  0.00000000000E+00  0.00000000000E+00  0.10860373065E+03  0.10861115602E+03  0.12700000000E+01 0.  1.
         -4   -1    0    0    0  501 -0.00000000000E+00 -0.00000000000E+00 -0.61139357933E+02  0.61152546868E+02  0.12700000000E+01 0.  1.
         25    2    1    2    0    0 -0.12162857505E+02  0.31110192702E+02  0.34316891052E+02  0.13386613379E+03  0.12500685410E+03 0.  0.
    9000005    1    3    3    0    0 -0.51762008240E+02  0.11662475463E+02 -0.26027683770E+02  0.59108029517E+02  0.10000000000E+01 0.  0.
    9000005    1    3    3    0    0  0.39599150735E+02  0.19447717239E+02  0.60344574821E+02  0.74758104277E+02  0.10000000000E+01 0.  0.
         21    1    1    2  502  501  0.12162857505E+02 -0.31110192702E+02  0.13147481669E+02  0.35897569094E+02  0.00000000000E+00 0.  1.
<mgrwt>
<rscale>  1 0.12939278E+03</rscale>
<asrwt>0</asrwt>
<pdfrwt beam="1">  1        4 0.16709852E-01 0.12939278E+03</pdfrwt>
<pdfrwt beam="2">  1       -4 0.94076409E-02 0.12939278E+03</pdfrwt>
<totfact> 0.42342402E+03</totfact>
</mgrwt>
</event>
<event>
 6    4  0.2398389E-003  0.1292429E+03  0.7818608E-02  0.1228583E+00
          4   -1    0    0  502    0  0.00000000000E+00  0.00000000000E+00  0.46688474178E+02  0.46705743984E+02  0.12700000000E+01 0. -1.
         -4   -1    0    0    0  501 -0.00000000000E+00 -0.00000000000E+00 -0.17266407708E+03  0.17266874765E+03  0.12700000000E+01 0. -1.
         25    2    1    2    0    0 -0.31168723741E+02  0.10379286105E+02 -0.13335169134E+03  0.18570513464E+03  0.12499801810E+03 0.  0.
    9000005    1    3    3    0    0 -0.51388418635E+02 -0.25815148795E+02 -0.13225354016E+03  0.14421924408E+03  0.10000000000E+01 0.  0.
    9000005    1    3    3    0    0  0.20219694893E+02  0.36194434900E+02 -0.10981511737E+01  0.41485890557E+02  0.10000000000E+01 0.  0.
         21    1    1    2  502  501  0.31168723741E+02 -0.10379286105E+02  0.73760884363E+01  0.33669356993E+02  0.00000000000E+00 0. -1.
<mgrwt>
<rscale>  1 0.12924289E+03</rscale>
<asrwt>0</asrwt>
<pdfrwt beam="1">  1        4 0.71845300E-02 0.12924289E+03</pdfrwt>
<pdfrwt beam="2">  1       -4 0.26565391E-01 0.12924289E+03</pdfrwt>
<totfact> 0.28621192E+03</totfact>
</mgrwt>
</event>
<event>
 6    4  0.2398389E-003  0.1267089E+03  0.7818608E-02  0.1232422E+00
          4   -1    0    0  502    0  0.00000000000E+00  0.00000000000E+00  0.76824844629E+02  0.76835341167E+02  0.12700000000E+01 0. -1.
         -4   -1    0    0    0  501 -0.00000000000E+00 -0.00000000000E+00 -0.82995064665E+02  0.83004780939E+02  0.12700000000E+01 0. -1.
         25    2    1    2    0    0 -0.14505504887E+02  0.14829625598E+02 -0.27957616906E+02  0.12975660287E+03  0.12499928071E+03 0.  0.
    9000005    1    3    3    0    0  0.67456375403E+01  0.27332091540E+01  0.48718630515E+02  0.49269453188E+02  0.10000000000E+01 0.  0.
    9000005    1    3    3    0    0 -0.21251142427E+02  0.12096416444E+02 -0.76676247421E+02  0.80487149681E+02  0.10000000000E+01 0.  0.
         21    1    1    2  502  501  0.14505504887E+02 -0.14829625598E+02  0.21787396869E+02  0.30083519238E+02  0.00000000000E+00 0. -1.
<mgrwt>
<rscale>  1 0.12670891E+03</rscale>
<asrwt>0</asrwt>
<pdfrwt beam="1">  1        4 0.11820762E-01 0.12670891E+03</pdfrwt>
<pdfrwt beam="2">  1       -4 0.12770026E-01 0.12670891E+03</pdfrwt>
<totfact> 0.45715921E+03</totfact>
</mgrwt>
</event>
<event>
 6    4  0.2398389E-003  0.1267638E+03  0.7818608E-02  0.1232338E+00
          4   -1    0    0  502    0  0.00000000000E+00  0.00000000000E+00  0.15933512701E+03  0.15934018828E+03  0.12700000000E+01 0. -1.
         -4   -1    0    0    0  501 -0.00000000000E+00 -0.00000000000E+00 -0.35701895275E+02  0.35724476571E+02  0.12700000000E+01 0. -1.
         25    2    1    2    0    0 -0.13127805762E+02  0.16464061761E+02  0.90301725240E+02  0.15563886189E+03  0.12500259651E+03 0.  0.
    9000005    1    3    3    0    0  0.66868460317E+01  0.67794672347E+02  0.68003221085E+02  0.96261464702E+02  0.10000000000E+01 0.  0.
    9000005    1    3    3    0    0 -0.19814651794E+02 -0.51330610586E+02  0.22298504155E+02  0.59377397185E+02  0.10000000000E+01 0.  0.
         21    1    1    2  502  501  0.13127805762E+02 -0.16464061761E+02  0.33331506500E+02  0.39425802964E+02  0.00000000000E+00 0. -1.
<mgrwt>
<rscale>  1 0.12676377E+03</rscale>
<asrwt>0</asrwt>
<pdfrwt beam="1">  1        4 0.24515223E-01 0.12676377E+03</pdfrwt>
<pdfrwt beam="2">  1       -4 0.54947256E-02 0.12676377E+03</pdfrwt>
<totfact> 0.51131729E+03</totfact>
</mgrwt>
</event>
<event>
 6    4  0.2398389E-003  0.1681949E+03  0.7818608E-02  0.1179743E+00
         -4   -1    0    0    0  501 -0.00000000000E+00  0.00000000000E+00  0.19639725956E+03  0.19640136573E+03  0.12700000000E+01 0.  1.
          4   -1    0    0  502    0  0.00000000000E+00 -0.00000000000E+00 -0.11276264505E+03  0.11276979657E+03  0.12700000000E+01 0.  1.
         25    2    1    2    0    0  0.42316714088E+02  0.10428064273E+03  0.99648866257E+02  0.19549788929E+03  0.12499748570E+03 0.  0.
    9000005    1    3    3    0    0 -0.36193312881E+02  0.14806489352E+02  0.56829549591E+02  0.68991200388E+02  0.10000000000E+01 0.  0.
    9000005    1    3    3    0    0  0.78510026970E+02  0.89474153376E+02  0.42819316667E+02  0.12650668890E+03  0.10000000000E+01 0.  0.
         21    1    1    2  502  501 -0.42316714088E+02 -0.10428064273E+03 -0.16014251748E+02  0.11367327302E+03  0.00000000000E+00 0.  1.
<mgrwt>
<rscale>  1 0.16819491E+03</rscale>
<asrwt>0</asrwt>
<pdfrwt beam="2">  1        4 0.17348966E-01 0.16819491E+03</pdfrwt>
<pdfrwt beam="1">  1       -4 0.30215828E-01 0.16819491E+03</pdfrwt>
<totfact> 0.52753540E+02</totfact>
</mgrwt>
</event>
<event>
 6    4  0.2398389E-003  0.1276234E+03  0.7818608E-02  0.1231025E+00
         -4   -1    0    0    0  501 -0.00000000000E+00  0.00000000000E+00  0.53354146494E+01  0.54844826083E+01  0.12700000000E+01 0. -1.
          4   -1    0    0  502    0  0.00000000000E+00 -0.00000000000E+00 -0.12568033070E+04  0.12568039487E+04  0.12700000000E+01 0. -1.
         25    2    1    2    0    0 -0.24168567618E+02  0.87531212759E+01 -0.80244926008E+03  0.81253464428E+03  0.12500798517E+03 0.  0.
    9000005    1    3    3    0    0 -0.71093189496E+02  0.12796715703E+02 -0.33405505647E+03  0.34177738116E+03  0.10000000000E+01 0.  0.
    9000005    1    3    3    0    0  0.46924621878E+02 -0.40435944275E+01 -0.46839420362E+03  0.47075726311E+03  0.10000000000E+01 0.  0.
         21    1    1    2  502  501  0.24168567618E+02 -0.87531212759E+01 -0.44901863227E+03  0.44975378700E+03  0.00000000000E+00 0. -1.
<mgrwt>
<rscale>  1 0.12762340E+03</rscale>
<asrwt>0</asrwt>
<pdfrwt beam="2">  1        4 0.19336564E+00 0.12762340E+03</pdfrwt>
<pdfrwt beam="1">  1       -4 0.83235015E-03 0.12762340E+03</pdfrwt>
<totfact> 0.10225508E+03</totfact>
</mgrwt>
</event>
<event>
 6    4  0.2398389E-003  0.1367664E+03  0.7818608E-02  0.1217747E+00
         -4   -1    0    0    0  501 -0.00000000000E+00  0.00000000000E+00  0.45138610259E+03  0.45138788919E+03  0.12700000000E+01 0. -1.
          4   -1    0    0  502    0  0.00000000000E+00 -0.00000000000E+00 -0.23182579945E+02  0.23217340780E+02  0.12700000000E+01 0. -1.
         25    2    1    2    0    0 -0.44205600354E+02 -0.33569482979E+02  0.36861439550E+03  0.39316869417E+03  0.12499601680E+03 0.  0.
    9000005    1    3    3    0    0 -0.62666172093E+02 -0.18810662858E+02  0.78961936597E+02  0.10255182881E+03  0.10000000000E+01 0.  0.
    9000005    1    3    3    0    0  0.18460571739E+02 -0.14758820121E+02  0.28965245890E+03  0.29061686535E+03  0.10000000000E+01 0.  0.
         21    1    1    2  502  501  0.44205600354E+02  0.33569482979E+02  0.59589127143E+02  0.81436535804E+02  0.00000000000E+00 0. -1.
<mgrwt>
<rscale>  1 0.13676640E+03</rscale>
<asrwt>0</asrwt>
<pdfrwt beam="2">  1        4 0.35693628E-02 0.13676640E+03</pdfrwt>
<pdfrwt beam="1">  1       -4 0.69446814E-01 0.13676640E+03</pdfrwt>
<totfact> 0.13146161E+03</totfact>
</mgrwt>
</event>
<event>
 6    4  0.2398389E-003  0.1417539E+03  0.7818608E-02  0.1210988E+00
          4   -1    0    0  502    0  0.00000000000E+00  0.00000000000E+00  0.10894863249E+03  0.10895603435E+03  0.12700000000E+01 0.  1.
         -4   -1    0    0    0  501 -0.00000000000E+00 -0.00000000000E+00 -0.13250025912E+03  0.13250634538E+03  0.12700000000E+01 0.  1.
         25    2    1    2    0    0  0.46736188134E+02  0.47809522270E+02 -0.71908173831E+02  0.15894948765E+03  0.12499652979E+03 0.  0.
    9000005    1    3    3    0    0 -0.41539484418E+02  0.87594473225E+01 -0.36925358526E+02  0.56273784175E+02  0.10000000000E+01 0.  0.
    9000005    1    3    3    0    0  0.88275672552E+02  0.39050074948E+02 -0.34982815305E+02  0.10267570348E+03  0.10000000000E+01 0.  0.
         21    1    1    2  502  501 -0.46736188134E+02 -0.47809522270E+02  0.48356547202E+02  0.82512892073E+02  0.00000000000E+00 0.  1.
<mgrwt>
<rscale>  1 0.14175385E+03</rscale>
<asrwt>0</asrwt>
<pdfrwt beam="1">  1        4 0.16762366E-01 0.14175385E+03</pdfrwt>
<pdfrwt beam="2">  1       -4 0.20385693E-01 0.14175385E+03</pdfrwt>
<totfact> 0.11235273E+03</totfact>
</mgrwt>
</event>
<event>
 6    4  0.2398389E-003  0.1311386E+03  0.7818608E-02  0.1225776E+00
          4   -1    0    0  502    0  0.00000000000E+00  0.00000000000E+00  0.53699301878E+03  0.53699452056E+03  0.12700000000E+01 0. -1.
         -4   -1    0    0    0  501 -0.00000000000E+00 -0.00000000000E+00 -0.13926925912E+02  0.13984711844E+02  0.12700000000E+01 0. -1.
         25    2    1    2    0    0 -0.15607273138E+02  0.36457399001E+02  0.35942253239E+03  0.38259887785E+03  0.12499846249E+03 0.  0.
    9000005    1    3    3    0    0 -0.59998862674E+02  0.48614832369E+02  0.15647852676E+03  0.17449869565E+03  0.10000000000E+01 0.  0.
    9000005    1    3    3    0    0  0.44391589536E+02 -0.12157433367E+02  0.20294400563E+03  0.20810018220E+03  0.10000000000E+01 0.  0.
         21    1    1    2  502  501  0.15607273138E+02 -0.36457399001E+02  0.16364356047E+03  0.16838035456E+03  0.00000000000E+00 0. -1.
<mgrwt>
<rscale>  1 0.13113865E+03</rscale>
<asrwt>0</asrwt>
<pdfrwt beam="1">  1        4 0.82618861E-01 0.13113865E+03</pdfrwt>
<pdfrwt beam="2">  1       -4 0.21471649E-02 0.13113865E+03</pdfrwt>
<totfact> 0.19691199E+03</totfact>
</mgrwt>
</event>
<event>
 6    4  0.2398389E-003  0.1296180E+03  0.7818608E-02  0.1228024E+00
          4   -1    0    0  502    0  0.00000000000E+00  0.00000000000E+00  0.69926846464E+01  0.71070766539E+01  0.12700000000E+01 0. -1.
         -4   -1    0    0    0  501 -0.00000000000E+00 -0.00000000000E+00 -0.96228756856E+03  0.96228840662E+03  0.12700000000E+01 0. -1.
         25    2    1    2    0    0  0.33009486666E+02 -0.94216814011E+01 -0.79138046896E+03  0.80192509866E+03  0.12498969127E+03 0.  0.
    9000005    1    3    3    0    0  0.24676763857E+02 -0.61689700150E+02 -0.58896669431E+03  0.59270340710E+03  0.10000000000E+01 0.  0.
    9000005    1    3    3    0    0  0.83327228091E+01  0.52268018749E+02 -0.20241377465E+03  0.20922169156E+03  0.10000000000E+01 0.  0.
         21    1    1    2  502  501 -0.33009486666E+02  0.94216814011E+01 -0.16391441496E+03  0.16747038461E+03  0.00000000000E+00 0. -1.
<mgrwt>
<rscale>  1 0.12961797E+03</rscale>
<asrwt>0</asrwt>
<pdfrwt beam="1">  1        4 0.10846622E-02 0.12961797E+03</pdfrwt>
<pdfrwt beam="2">  1       -4 0.14805300E+00 0.12961797E+03</pdfrwt>
<totfact> 0.14012002E+03</totfact>
</mgrwt>
</event>
<event>
 6    4  0.2398389E-003  0.1701773E+03  0.7818608E-02  0.1177663E+00
         -4   -1    0    0    0  501 -0.00000000000E+00  0.00000000000E+00  0.15740164022E+03  0.15740676365E+03  0.12700000000E+01 0. -1.
          4   -1    0    0  502    0  0.00000000000E+00 -0.00000000000E+00 -0.18855352043E+03  0.18855779742E+03  0.12700000000E+01 0. -1.
         25    2    1    2    0    0 -0.11536535882E+03  0.49230950612E+01  0.77880829471E+02  0.18715166908E+03  0.12500768280E+03 0.  0.
    9000005    1    3    3    0    0 -0.84980928278E+02 -0.46845956933E+02  0.11616265902E+02  0.97735558962E+02  0.10000000000E+01 0.  0.
    9000005    1    3    3    0    0 -0.30384430540E+02  0.51769051995E+02  0.66264563569E+02  0.89416110118E+02  0.10000000000E+01 0.  0.
         21    1    1    2  502  501  0.11536535882E+03 -0.49230950612E+01 -0.10903270969E+03  0.15881289199E+03  0.00000000000E+00 0. -1.
<mgrwt>
<rscale>  1 0.17017733E+03</rscale>
<asrwt>0</asrwt>
<pdfrwt beam="2">  1        4 0.29008957E-01 0.17017733E+03</pdfrwt>
<pdfrwt beam="1">  1       -4 0.24216360E-01 0.17017733E+03</pdfrwt>
<totfact> 0.31200033E+02</totfact>
</mgrwt>
</event>
<event>
 6    4  0.2398389E-003  0.1289682E+03  0.7818608E-02  0.1228995E+00
         -4   -1    0    0    0  501 -0.00000000000E+00  0.00000000000E+00  0.17727487292E+03  0.17727942201E+03  0.12700000000E+01 0.  1.
          4   -1    0    0  502    0  0.00000000000E+00 -0.00000000000E+00 -0.10746982645E+03  0.10747733016E+03  0.12700000000E+01 0.  1.
         25    2    1    2    0    0  0.13640963238E+02  0.28678633619E+02  0.15040418003E+03  0.19812673291E+03  0.12499698005E+03 0.  0.
    9000005    1    3    3    0    0 -0.18405622786E+02  0.72422260738E+02  0.87620474673E+02  0.11516118436E+03  0.10000000000E+01 0.  0.
    9000005    1    3    3    0    0  0.32046586023E+02 -0.43743627119E+02  0.62783705355E+02  0.82965548557E+02  0.10000000000E+01 0.  0.
         21    1    1    2  502  501 -0.13640963238E+02 -0.28678633619E+02 -0.80599133565E+02  0.86630019253E+02  0.00000000000E+00 0.  1.
<mgrwt>
<rscale>  1 0.12896815E+03</rscale>
<asrwt>0</asrwt>
<pdfrwt beam="2">  1        4 0.16534747E-01 0.12896815E+03</pdfrwt>
<pdfrwt beam="1">  1       -4 0.27273984E-01 0.12896815E+03</pdfrwt>
<totfact> 0.66194660E+02</totfact>
</mgrwt>
</event>
<event>
 6    4  0.2398389E-003  0.1281617E+03  0.7818608E-02  0.1230209E+00
          4   -1    0    0  502    0  0.00000000000E+00  0.00000000000E+00  0.57276817285E+02  0.57290895423E+02  0.12700000000E+01 0. -1.
         -4   -1    0    0    0  501 -0.00000000000E+00 -0.00000000000E+00 -0.11052018113E+03  0.11052747775E+03  0.12700000000E+01 0. -1.
         25    2    1    2    0    0 -0.14141731347E+02  0.24540117864E+02 -0.31138521093E+02  0.13189025016E+03  0.12499289836E+03 0.  0.
    9000005    1    3    3    0    0  0.38113121230E+02  0.15498428653E+02  0.30015650191E+02  0.50938694104E+02  0.10000000000E+01 0.  0.
    9000005    1    3    3    0    0 -0.52254852577E+02  0.90416892108E+01 -0.61154171284E+02  0.80951556051E+02  0.10000000000E+01 0.  0.
         21    1    1    2  502  501  0.14141731347E+02 -0.24540117864E+02 -0.22104842753E+02  0.35928123015E+02  0.00000000000E+00 0. -1.
<mgrwt>
<rscale>  1 0.12816174E+03</rscale>
<asrwt>0</asrwt>
<pdfrwt beam="1">  1        4 0.88134623E-02 0.12816174E+03</pdfrwt>
<pdfrwt beam="2">  1       -4 0.17004749E-01 0.12816174E+03</pdfrwt>
<totfact> 0.45675156E+03</totfact>
</mgrwt>
</event>
<event>
 6    4  0.2398389E-003  0.1504228E+03  0.7818608E-02  0.1199954E+00
          4   -1    0    0  502    0  0.00000000000E+00  0.00000000000E+00  0.54667910640E+03  0.54668058158E+03  0.12700000000E+01 0.  1.
         -4   -1    0    0    0  501 -0.00000000000E+00 -0.00000000000E+00 -0.25460552896E+02  0.25492207707E+02  0.12700000000E+01 0.  1.
         25    2    1    2    0    0  0.24509995392E+02 -0.80007595007E+02  0.29863022930E+03  0.33437557062E+03  0.12500021297E+03 0.  0.
    9000005    1    3    3    0    0  0.60436134072E+01  0.34189965297E+02  0.68064155108E+02  0.76414711938E+02  0.10000000000E+01 0.  0.
    9000005    1    3    3    0    0  0.18466381985E+02 -0.11419756030E+03  0.23056607419E+03  0.25796085868E+03  0.10000000000E+01 0.  0.
         21    1    1    2  502  501 -0.24509995392E+02  0.80007595007E+02  0.22258832420E+03  0.23779721866E+03  0.00000000000E+00 0.  1.
<mgrwt>
<rscale>  1 0.15042277E+03</rscale>
<asrwt>0</asrwt>
<pdfrwt beam="1">  1        4 0.84107024E-01 0.15042277E+03</pdfrwt>
<pdfrwt beam="2">  1       -4 0.39195567E-02 0.15042277E+03</pdfrwt>
<totfact> 0.75892969E+02</totfact>
</mgrwt>
</event>
<event>
 6    4  0.2398389E-003  0.1419837E+03  0.7818608E-02  0.1210684E+00
         -4   -1    0    0    0  501 -0.00000000000E+00  0.00000000000E+00  0.89914232401E+02  0.89923201057E+02  0.12700000000E+01 0. -1.
          4   -1    0    0  502    0  0.00000000000E+00 -0.00000000000E+00 -0.13184013546E+03  0.13184625220E+03  0.12700000000E+01 0. -1.
         25    2    1    2    0    0  0.66762479895E+02  0.87825793471E+01  0.86403115727E+00  0.14198636675E+03  0.12500007749E+03 0.  0.
    9000005    1    3    3    0    0  0.46470746949E+02  0.58304560811E+02 -0.29798311505E+02  0.80298764012E+02  0.10000000000E+01 0.  0.
    9000005    1    3    3    0    0  0.20291732946E+02 -0.49521981464E+02  0.30662342662E+02  0.61687602738E+02  0.10000000000E+01 0.  0.
         21    1    1    2  502  501 -0.66762479895E+02 -0.87825793471E+01 -0.42789934218E+02  0.79783086505E+02  0.00000000000E+00 0. -1.
<mgrwt>
<rscale>  1 0.14198374E+03</rscale>
<asrwt>0</asrwt>
<pdfrwt beam="2">  1        4 0.20284258E-01 0.14198374E+03</pdfrwt>
<pdfrwt beam="1">  1       -4 0.13834119E-01 0.14198374E+03</pdfrwt>
<totfact> 0.15870533E+03</totfact>
</mgrwt>
</event>
<event>
 6    4  0.2398389E-003  0.1372264E+03  0.7818608E-02  0.1217111E+00
         -4   -1    0    0    0  501 -0.00000000000E+00  0.00000000000E+00  0.66744580135E+02  0.66756661670E+02  0.12700000000E+01 0.  1.
          4   -1    0    0  502    0  0.00000000000E+00 -0.00000000000E+00 -0.17245565221E+03  0.17246032842E+03  0.12700000000E+01 0.  1.
         25    2    1    2    0    0 -0.17250970484E+02  0.53921773544E+02 -0.23234714104E+02  0.13917948078E+03  0.12500368909E+03 0.  0.
    9000005    1    3    3    0    0 -0.60285179227E+02  0.21119491028E+02 -0.47757786283E+02  0.79763035840E+02  0.10000000000E+01 0.  0.
    9000005    1    3    3    0    0  0.43034208743E+02  0.32802282516E+02  0.24523072179E+02  0.59416444941E+02  0.10000000000E+01 0.  0.
         21    1    1    2  502  501  0.17250970484E+02 -0.53921773544E+02 -0.82476357973E+02  0.10003750931E+03  0.00000000000E+00 0.  1.
<mgrwt>
<rscale>  1 0.13722637E+03</rscale>
<asrwt>0</asrwt>
<pdfrwt beam="2">  1        4 0.26532928E-01 0.13722637E+03</pdfrwt>
<pdfrwt beam="1">  1       -4 0.10269686E-01 0.13722637E+03</pdfrwt>
<totfact> 0.16041159E+03</totfact>
</mgrwt>
</event>
<event>
 6    4  0.2398389E-003  0.1277571E+03  0.7818608E-02  0.1230822E+00
         -4   -1    0    0    0  501 -0.00000000000E+00  0.00000000000E+00  0.59307101246E+02  0.59320697554E+02  0.12700000000E+01 0.  1.
          4   -1    0    0  502    0  0.00000000000E+00 -0.00000000000E+00 -0.11537230572E+03  0.11537929548E+03  0.12700000000E+01 0.  1.
         25    2    1    2    0    0  0.87260002649E+01 -0.24916139471E+02 -0.18952186909E+02  0.12915514526E+03  0.12499963628E+03 0.  0.
    9000005    1    3    3    0    0 -0.38121473456E+02 -0.37259102924E+02  0.29246025790E+02  0.60809682730E+02  0.10000000000E+01 0.  0.
    9000005    1    3    3    0    0  0.46847473721E+02  0.12342963453E+02 -0.48198212699E+02  0.68345462528E+02  0.10000000000E+01 0.  0.
         21    1    1    2  502  501 -0.87260002649E+01  0.24916139471E+02 -0.37113017562E+02  0.45544847780E+02  0.00000000000E+00 0. -1.
<mgrwt>
<rscale>  1 0.12775706E+03</rscale>
<asrwt>0</asrwt>
<pdfrwt beam="2">  1        4 0.17751169E-01 0.12775706E+03</pdfrwt>
<pdfrwt beam="1">  1       -4 0.91257530E-02 0.12775706E+03</pdfrwt>
<totfact> 0.39910923E+03</totfact>
</mgrwt>
</event>
<event>
 6    4  0.2398389E-003  0.1267157E+03  0.7818608E-02  0.1232412E+00
          4   -1    0    0  502    0  0.00000000000E+00  0.00000000000E+00  0.70279763902E+02  0.70291237819E+02  0.12700000000E+01 0.  1.
         -4   -1    0    0    0  501 -0.00000000000E+00 -0.00000000000E+00 -0.79203006275E+02  0.79213187683E+02  0.12700000000E+01 0.  1.
         25    2    1    2    0    0 -0.17042617201E+02 -0.11884116410E+02 -0.15620129719E+02  0.12767482807E+03  0.12500076098E+03 0.  0.
    9000005    1    3    3    0    0 -0.25770910762E+02  0.28980043256E+02 -0.56940780809E+02  0.68900183365E+02  0.10000000000E+01 0.  0.
    9000005    1    3    3    0    0  0.87282935612E+01 -0.40864159666E+02  0.41320651090E+02  0.58774644705E+02  0.10000000000E+01 0.  0.
         21    1    1    2  502  501  0.17042617201E+02  0.11884116410E+02  0.66968873462E+01  0.21829597432E+02  0.00000000000E+00 0.  1.
<mgrwt>
<rscale>  1 0.12671572E+03</rscale>
<asrwt>0</asrwt>
<pdfrwt beam="1">  1        4 0.10813937E-01 0.12671572E+03</pdfrwt>
<pdfrwt beam="2">  1       -4 0.12186744E-01 0.12671572E+03</pdfrwt>
<totfact> 0.57619262E+03</totfact>
</mgrwt>
</event>
<event>
 6    4  0.2398389E-003  0.1311558E+03  0.7818608E-02  0.1225751E+00
          4   -1    0    0  502    0  0.00000000000E+00  0.00000000000E+00  0.35546884408E+03  0.35547111277E+03  0.12700000000E+01 0. -1.
         -4   -1    0    0    0  501 -0.00000000000E+00 -0.00000000000E+00 -0.26184349509E+02  0.26215130349E+02  0.12700000000E+01 0. -1.
         25    2    1    2    0    0  0.39700297402E+02  0.10803300522E+01  0.15552117344E+03  0.20344210577E+03  0.12499829713E+03 0.  0.
    9000005    1    3    3    0    0  0.68689275843E+02  0.21463466446E+02  0.15154617389E+03  0.16776811326E+03  0.10000000000E+01 0.  0.
    9000005    1    3    3    0    0 -0.28988978440E+02 -0.20383136394E+02  0.39749995544E+01  0.35673992511E+02  0.10000000000E+01 0.  0.
         21    1    1    2  502  501 -0.39700297402E+02 -0.10803300522E+01  0.17376332113E+03  0.17824413735E+03  0.00000000000E+00 0. -1.
<mgrwt>
<rscale>  1 0.13115584E+03</rscale>
<asrwt>0</asrwt>
<pdfrwt beam="1">  1        4 0.54690051E-01 0.13115584E+03</pdfrwt>
<pdfrwt beam="2">  1       -4 0.40309042E-02 0.13115584E+03</pdfrwt>
<totfact> 0.17784837E+03</totfact>
</mgrwt>
</event>
<event>
 6    4  0.2398389E-003  0.1312747E+03  0.7818608E-02  0.1225577E+00
          4   -1    0    0  502    0  0.00000000000E+00  0.00000000000E+00  0.40600735536E+02  0.40620593620E+02  0.12700000000E+01 0.  1.
         -4   -1    0    0    0  501 -0.00000000000E+00 -0.00000000000E+00 -0.21761893239E+03  0.21762263815E+03  0.12700000000E+01 0.  1.
         25    2    1    2    0    0 -0.13945144589E+02  0.37600487938E+02 -0.17408416171E+03  0.21803288095E+03  0.12499911226E+03 0.  0.
    9000005    1    3    3    0    0 -0.63624184643E+02  0.92642158303E+01 -0.50189847758E+02  0.81571339234E+02  0.10000000000E+01 0.  0.
    9000005    1    3    3    0    0  0.49679040053E+02  0.28336272108E+02 -0.12389431395E+03  0.13646154172E+03  0.10000000000E+01 0.  0.
         21    1    1    2  502  501  0.13945144589E+02 -0.37600487938E+02 -0.29340351434E+01  0.40210350819E+02  0.00000000000E+00 0.  1.
<mgrwt>
<rscale>  1 0.13127468E+03</rscale>
<asrwt>0</asrwt>
<pdfrwt beam="1">  1        4 0.62480797E-02 0.13127468E+03</pdfrwt>
<pdfrwt beam="2">  1       -4 0.33481648E-01 0.13127468E+03</pdfrwt>
<totfact> 0.23327128E+03</totfact>
</mgrwt>
</event>
<event>
 6    4  0.2398389E-003  0.1449169E+03  0.7818608E-02  0.1206862E+00
         -4   -1    0    0    0  501 -0.00000000000E+00  0.00000000000E+00  0.16405892475E+03  0.16406384029E+03  0.12700000000E+01 0. -1.
          4   -1    0    0  502    0  0.00000000000E+00 -0.00000000000E+00 -0.73259550136E+02  0.73270557431E+02  0.12700000000E+01 0. -1.
         25    2    1    2    0    0  0.70907785686E+02  0.18664431421E+02  0.71055988651E+02  0.16139971289E+03  0.12499855489E+03 0.  0.
    9000005    1    3    3    0    0  0.10168056271E+03  0.30934545271E+02  0.71768388623E+02  0.12824813655E+03  0.10000000000E+01 0.  0.
    9000005    1    3    3    0    0 -0.30772777023E+02 -0.12270113850E+02 -0.71239997129E+00  0.33151576333E+02  0.10000000000E+01 0.  0.
         21    1    1    2  502  501 -0.70907785686E+02 -0.18664431421E+02  0.19743385961E+02  0.75934684831E+02  0.00000000000E+00 0. -1.
<mgrwt>
<rscale>  1 0.14491692E+03</rscale>
<asrwt>0</asrwt>
<pdfrwt beam="2">  1        4 0.11271925E-01 0.14491692E+03</pdfrwt>
<pdfrwt beam="1">  1       -4 0.25241059E-01 0.14491692E+03</pdfrwt>
<totfact> 0.15202798E+03</totfact>
</mgrwt>
</event>
<event>
 6    4  0.2398389E-003  0.1290735E+03  0.7818608E-02  0.1228837E+00
          4   -1    0    0  502    0  0.00000000000E+00  0.00000000000E+00  0.21382187003E+03  0.21382564159E+03  0.12700000000E+01 0. -1.
         -4   -1    0    0    0  501 -0.00000000000E+00 -0.00000000000E+00 -0.32124064183E+02  0.32149158614E+02  0.12700000000E+01 0. -1.
         25    2    1    2    0    0 -0.28309822092E+02  0.15240716716E+02  0.11921352777E+03  0.17570382128E+03  0.12500496844E+03 0.  0.
    9000005    1    3    3    0    0 -0.56792075885E+02  0.32400045760E+02  0.12580982545E+03  0.14178933326E+03  0.10000000000E+01 0.  0.
    9000005    1    3    3    0    0  0.28482253793E+02 -0.17159329043E+02 -0.65962976756E+01  0.33914488016E+02  0.10000000000E+01 0.  0.
         21    1    1    2  502  501  0.28309822092E+02 -0.15240716716E+02  0.62484278073E+02  0.70270978926E+02  0.00000000000E+00 0. -1.
<mgrwt>
<rscale>  1 0.12907350E+03</rscale>
<asrwt>0</asrwt>
<pdfrwt beam="1">  1        4 0.32897892E-01 0.12907350E+03</pdfrwt>
<pdfrwt beam="2">  1       -4 0.49443844E-02 0.12907350E+03</pdfrwt>
<totfact> 0.35074650E+03</totfact>
</mgrwt>
</event>
<event>
 6    4  0.2398389E-003  0.1342965E+03  0.7818608E-02  0.1221216E+00
          4   -1    0    0  502    0  0.00000000000E+00  0.00000000000E+00  0.32204394118E+03  0.32204644534E+03  0.12700000000E+01 0. -1.
         -4   -1    0    0    0  501 -0.00000000000E+00 -0.00000000000E+00 -0.26806322255E+02  0.26836389713E+02  0.12700000000E+01 0. -1.
         25    2    1    2    0    0 -0.68467450896E+01  0.48610418880E+02  0.18903122586E+03  0.23188006299E+03  0.12500283404E+03 0.  0.
    9000005    1    3    3    0    0 -0.13335640423E+02 -0.23307662529E+01 -0.15728656861E+02  0.20776487274E+02  0.10000000000E+01 0.  0.
    9000005    1    3    3    0    0  0.64888953332E+01  0.50941185133E+02  0.20475988272E+03  0.21110357571E+03  0.10000000000E+01 0.  0.
         21    1    1    2  502  501  0.68467450896E+01 -0.48610418880E+02  0.10620639307E+03  0.11700277206E+03  0.00000000000E+00 0. -1.
<mgrwt>
<rscale>  1 0.13429653E+03</rscale>
<asrwt>0</asrwt>
<pdfrwt beam="1">  1        4 0.49547730E-01 0.13429653E+03</pdfrwt>
<pdfrwt beam="2">  1       -4 0.41265548E-02 0.13429653E+03</pdfrwt>
<totfact> 0.21089622E+03</totfact>
</mgrwt>
</event>
<event>
 6    4  0.2398389E-003  0.1266219E+03  0.7818608E-02  0.1232556E+00
          4   -1    0    0  502    0  0.00000000000E+00  0.00000000000E+00  0.54345168402E+02  0.54360005782E+02  0.12700000000E+01 0.  1.
         -4   -1    0    0    0  501 -0.00000000000E+00 -0.00000000000E+00 -0.13024071102E+03  0.13024690286E+03  0.12700000000E+01 0.  1.
         25    2    1    2    0    0  0.12733752959E+02  0.15682083925E+02 -0.93826356807E+02  0.15759597904E+03  0.12500012463E+03 0.  0.
    9000005    1    3    3    0    0  0.73242617031E+01 -0.55036053644E+02 -0.45142889584E+02  0.71564603613E+02  0.10000000000E+01 0.  0.
    9000005    1    3    3    0    0  0.54094912555E+01  0.70718137569E+02 -0.48683467223E+02  0.86031375426E+02  0.10000000000E+01 0.  0.
         21    1    1    2  502  501 -0.12733752959E+02 -0.15682083925E+02  0.17930814193E+02  0.27010929607E+02  0.00000000000E+00 0.  1.
<mgrwt>
<rscale>  1 0.12662191E+03</rscale>
<asrwt>0</asrwt>
<pdfrwt beam="1">  1        4 0.83624128E-02 0.12662191E+03</pdfrwt>
<pdfrwt beam="2">  1       -4 0.20038650E-01 0.12662191E+03</pdfrwt>
<totfact> 0.37097051E+03</totfact>
</mgrwt>
</event>
<event>
 6    4  0.2398389E-003  0.1300988E+03  0.7818608E-02  0.1227309E+00
         -4   -1    0    0    0  501 -0.00000000000E+00  0.00000000000E+00  0.95895432487E+02  0.95903841799E+02  0.12700000000E+01 0. -1.
          4   -1    0    0  502    0  0.00000000000E+00 -0.00000000000E+00 -0.19629049477E+03  0.19629460318E+03  0.12700000000E+01 0. -1.
         25    2    1    2    0    0 -0.27775660064E+02  0.23016547081E+02  0.48614201211E+02  0.13888501002E+03  0.12499782685E+03 0.  0.
    9000005    1    3    3    0    0 -0.14344029032E+01  0.71903318847E+02  0.13515471091E+02  0.73183418421E+02  0.10000000000E+01 0.  0.
    9000005    1    3    3    0    0 -0.26341257161E+02 -0.48886771767E+02  0.35098730121E+02  0.65701591599E+02  0.10000000000E+01 0.  0.
         21    1    1    2  502  501  0.27775660064E+02 -0.23016547081E+02 -0.14900926349E+03  0.15331343496E+03  0.00000000000E+00 0. -1.
<mgrwt>
<rscale>  1 0.13009883E+03</rscale>
<asrwt>0</asrwt>
<pdfrwt beam="2">  1        4 0.30199500E-01 0.13009883E+03</pdfrwt>
<pdfrwt beam="1">  1       -4 0.14754106E-01 0.13009883E+03</pdfrwt>
<totfact> 0.66865885E+02</totfact>
</mgrwt>
</event>
<event>
 6    4  0.2398389E-003  0.1271599E+03  0.7818608E-02  0.1231732E+00
         -4   -1    0    0    0  501 -0.00000000000E+00  0.00000000000E+00  0.14164307209E+03  0.14164876551E+03  0.12700000000E+01 0.  1.
          4   -1    0    0  502    0  0.00000000000E+00 -0.00000000000E+00 -0.40639309918E+02  0.40659149163E+02  0.12700000000E+01 0.  1.
         25    2    1    2    0    0 -0.22219151090E+02  0.70891418986E+01  0.76116487676E+02  0.14820039293E+03  0.12500276061E+03 0.  0.
    9000005    1    3    3    0    0  0.19821251142E+02 -0.51403118743E+02  0.34247214585E+02  0.64877070836E+02  0.10000000000E+01 0.  0.
    9000005    1    3    3    0    0 -0.42040402233E+02  0.58492260642E+02  0.41869273092E+02  0.83323322090E+02  0.10000000000E+01 0.  0.
         21    1    1    2  502  501  0.22219151090E+02 -0.70891418986E+01  0.24887274493E+02  0.34107521747E+02  0.00000000000E+00 0. -1.
<mgrwt>
<rscale>  1 0.12715989E+03</rscale>
<asrwt>0</asrwt>
<pdfrwt beam="2">  1        4 0.62541655E-02 0.12715989E+03</pdfrwt>
<pdfrwt beam="1">  1       -4 0.21793206E-01 0.12715989E+03</pdfrwt>
<totfact> 0.51437030E+03</totfact>
</mgrwt>
</event>
<event>
 6    4  0.2398389E-003  0.1277884E+03  0.7818608E-02  0.1230775E+00
         -4   -1    0    0    0  501 -0.00000000000E+00  0.00000000000E+00  0.23098198057E+02  0.23133085689E+02  0.12700000000E+01 0. -1.
          4   -1    0    0  502    0  0.00000000000E+00 -0.00000000000E+00 -0.41243507497E+03  0.41243703030E+03  0.12700000000E+01 0. -1.
         25    2    1    2    0    0  0.10984922210E+02  0.24172783665E+02 -0.16031437184E+03  0.20501361572E+03  0.12499957131E+03 0.  0.
    9000005    1    3    3    0    0  0.40507358836E+01 -0.51555306672E+02 -0.63457991992E+02  0.81867422427E+02  0.10000000000E+01 0.  0.
    9000005    1    3    3    0    0  0.69341863263E+01  0.75728090337E+02 -0.96856379843E+02  0.12314619329E+03  0.10000000000E+01 0.  0.
         21    1    1    2  502  501 -0.10984922210E+02 -0.24172783665E+02 -0.22902250508E+03  0.23055650027E+03  0.00000000000E+00 0. -1.
<mgrwt>
<rscale>  1 0.12778844E+03</rscale>
<asrwt>0</asrwt>
<pdfrwt beam="2">  1        4 0.63454379E-01 0.12778844E+03</pdfrwt>
<pdfrwt beam="1">  1       -4 0.35564033E-02 0.12778844E+03</pdfrwt>
<totfact> 0.15795579E+03</totfact>
</mgrwt>
</event>
<event>
 6    4  0.2398389E-003  0.1270295E+03  0.7818608E-02  0.1231931E+00
          4   -1    0    0  502    0  0.00000000000E+00  0.00000000000E+00  0.15070809361E+02  0.15124225428E+02  0.12700000000E+01 0.  1.
         -4   -1    0    0    0  501 -0.00000000000E+00 -0.00000000000E+00 -0.37191558581E+03  0.37191775417E+03  0.12700000000E+01 0.  1.
         25    2    1    2    0    0  0.22036431594E+02  0.51677826425E+01 -0.30993832456E+03  0.33496006792E+03  0.12499668707E+03 0.  0.
    9000005    1    3    3    0    0  0.52942617506E+02 -0.12855854914E+02 -0.28771669309E+03  0.29283116165E+03  0.10000000000E+01 0.  0.
    9000005    1    3    3    0    0 -0.30906185912E+02  0.18023637556E+02 -0.22221631470E+02  0.42128906271E+02  0.10000000000E+01 0.  0.
         21    1    1    2  502  501 -0.22036431594E+02 -0.51677826425E+01 -0.46906451888E+02  0.52081911674E+02  0.00000000000E+00 0.  1.
<mgrwt>
<rscale>  1 0.12702945E+03</rscale>
<asrwt>0</asrwt>
<pdfrwt beam="1">  1        4 0.23228621E-02 0.12702945E+03</pdfrwt>
<pdfrwt beam="2">  1       -4 0.57222051E-01 0.12702945E+03</pdfrwt>
<totfact> 0.38109780E+03</totfact>
</mgrwt>
</event>
<event>
 6    4  0.2398389E-003  0.1266159E+03  0.7818608E-02  0.1232565E+00
          4   -1    0    0  502    0  0.00000000000E+00  0.00000000000E+00  0.17647998395E+03  0.17648455353E+03  0.12700000000E+01 0.  1.
         -4   -1    0    0    0  501 -0.00000000000E+00 -0.00000000000E+00 -0.61484359368E+02  0.61497474313E+02  0.12700000000E+01 0.  1.
         25    2    1    2    0    0  0.19665346047E+02 -0.46498001987E+01  0.56042847866E+01  0.12673989689E+03  0.12499298772E+03 0.  0.
    9000005    1    3    3    0    0  0.22537762483E+02  0.40827453648E+02 -0.40598439848E+02  0.61839025115E+02  0.10000000000E+01 0.  0.
    9000005    1    3    3    0    0 -0.28724164354E+01 -0.45477253846E+02  0.46202724634E+02  0.64900871775E+02  0.10000000000E+01 0.  0.
         21    1    1    2  502  501 -0.19665346047E+02  0.46498001987E+01  0.10939133979E+03  0.11124213095E+03  0.00000000000E+00 0.  1.
<mgrwt>
<rscale>  1 0.12661593E+03</rscale>
<asrwt>0</asrwt>
<pdfrwt beam="1">  1        4 0.27152127E-01 0.12661593E+03</pdfrwt>
<pdfrwt beam="2">  1       -4 0.94604926E-02 0.12661593E+03</pdfrwt>
<totfact> 0.17327625E+03</totfact>
</mgrwt>
</event>
<event>
 6    4  0.2398389E-003  0.1288743E+03  0.7818608E-02  0.1229136E+00
          4   -1    0    0  502    0  0.00000000000E+00  0.00000000000E+00  0.14760611837E+03  0.14761158180E+03  0.12700000000E+01 0.  1.
         -4   -1    0    0    0  501 -0.00000000000E+00 -0.00000000000E+00 -0.45439764443E+02  0.45457508650E+02  0.12700000000E+01 0.  1.
         25    2    1    2    0    0 -0.17673744841E+01  0.31316760108E+02  0.64692103340E+02  0.14420005594E+03  0.12499889929E+03 0.  0.
    9000005    1    3    3    0    0 -0.39908170446E+02  0.34394840750E+02  0.85649194532E+02  0.10056068647E+03  0.10000000000E+01 0.  0.
    9000005    1    3    3    0    0  0.38140795962E+02 -0.30780806423E+01 -0.20957091192E+02  0.43639369477E+02  0.10000000000E+01 0.  0.
         21    1    1    2  502  501  0.17673744841E+01 -0.31316760108E+02  0.37474250592E+02  0.48869034507E+02  0.00000000000E+00 0.  1.
<mgrwt>
<rscale>  1 0.12887431E+03</rscale>
<asrwt>0</asrwt>
<pdfrwt beam="1">  1        4 0.22710419E-01 0.12887431E+03</pdfrwt>
<pdfrwt beam="2">  1       -4 0.69925182E-02 0.12887431E+03</pdfrwt>
<totfact> 0.39902967E+03</totfact>
</mgrwt>
</event>
<event>
 6    4  0.2398389E-003  0.2167989E+03  0.7818608E-02  0.1136292E+00
         -4   -1    0    0    0  501 -0.00000000000E+00  0.00000000000E+00  0.61283309263E+03  0.61283440856E+03  0.12700000000E+01 0. -1.
          4   -1    0    0  502    0  0.00000000000E+00 -0.00000000000E+00 -0.63756263320E+02  0.63768911019E+02  0.12700000000E+01 0. -1.
         25    2    1    2    0    0 -0.17543174748E+03 -0.24501330205E+02  0.27344945491E+03  0.34896470354E+03  0.12500058687E+03 0.  0.
    9000005    1    3    3    0    0 -0.16639377129E+03 -0.27650383373E+02  0.15177360149E+03  0.22690891770E+03  0.10000000000E+01 0.  0.
    9000005    1    3    3    0    0 -0.90379761910E+01  0.31490531680E+01  0.12167585342E+03  0.12205578583E+03  0.10000000000E+01 0.  0.
         21    1    1    2  502  501  0.17543174748E+03  0.24501330205E+02  0.27562737440E+03  0.32763861605E+03  0.00000000000E+00 0. -1.
<mgrwt>
<rscale>  1 0.21679889E+03</rscale>
<asrwt>0</asrwt>
<pdfrwt beam="2">  1        4 0.98097302E-02 0.21679889E+03</pdfrwt>
<pdfrwt beam="1">  1       -4 0.94283087E-01 0.21679889E+03</pdfrwt>
<totfact> 0.13810351E+02</totfact>
</mgrwt>
</event>
<event>
 6    4  0.2398389E-003  0.1431734E+03  0.7818608E-02  0.1209122E+00
         -4   -1    0    0    0  501 -0.00000000000E+00  0.00000000000E+00  0.10434325236E+03  0.10435098089E+03  0.12700000000E+01 0.  1.
          4   -1    0    0  502    0  0.00000000000E+00 -0.00000000000E+00 -0.20632183205E+03  0.20632574071E+03  0.12700000000E+01 0.  1.
         25    2    1    2    0    0 -0.53026471756E+02 -0.45425081990E+02  0.43226421909E+02  0.14955646443E+03  0.12499347071E+03 0.  0.
    9000005    1    3    3    0    0  0.21059765501E+02  0.29080410358E+02  0.22711839319E+02  0.42497195611E+02  0.10000000000E+01 0.  0.
    9000005    1    3    3    0    0 -0.74086237257E+02 -0.74505492348E+02  0.20514582590E+02  0.10705926882E+03  0.10000000000E+01 0.  0.
         21    1    1    2  502  501  0.53026471756E+02  0.45425081990E+02 -0.14520500160E+03  0.16112025717E+03  0.00000000000E+00 0.  1.
<mgrwt>
<rscale>  1 0.14317337E+03</rscale>
<asrwt>0</asrwt>
<pdfrwt beam="2">  1        4 0.31742715E-01 0.14317337E+03</pdfrwt>
<pdfrwt beam="1">  1       -4 0.16053703E-01 0.14317337E+03</pdfrwt>
<totfact> 0.53470824E+02</totfact>
</mgrwt>
</event>
<event>
 6    4  0.2398389E-003  0.1278770E+03  0.7818608E-02  0.1230640E+00
          4   -1    0    0  502    0  0.00000000000E+00  0.00000000000E+00  0.28282939011E+03  0.28283224146E+03  0.12700000000E+01 0. -1.
         -4   -1    0    0    0  501 -0.00000000000E+00 -0.00000000000E+00 -0.45353431539E+02  0.45371209509E+02  0.12700000000E+01 0. -1.
         25    2    1    2    0    0  0.22103459009E+02 -0.15459323663E+02  0.47643085728E+02  0.13646385360E+03  0.12499986453E+03 0.  0.
    9000005    1    3    3    0    0  0.49712182214E+02 -0.58340936422E+02  0.32434592410E+02  0.83234420211E+02  0.10000000000E+01 0.  0.
    9000005    1    3    3    0    0 -0.27608723205E+02  0.42881612759E+02  0.15208493319E+02  0.53229433389E+02  0.10000000000E+01 0.  0.
         21    1    1    2  502  501 -0.22103459009E+02  0.15459323663E+02  0.18983287285E+03  0.19173959737E+03  0.00000000000E+00 0. -1.
<mgrwt>
<rscale>  1 0.12787697E+03</rscale>
<asrwt>0</asrwt>
<pdfrwt beam="1">  1        4 0.43513801E-01 0.12787697E+03</pdfrwt>
<pdfrwt beam="2">  1       -4 0.69790378E-02 0.12787697E+03</pdfrwt>
<totfact> 0.11601323E+03</totfact>
</mgrwt>
</event>
<event>
 6    4  0.2398389E-003  0.1404203E+03  0.7818608E-02  0.1212765E+00
          4   -1    0    0  502    0  0.00000000000E+00  0.00000000000E+00  0.29368749772E+03  0.29369024365E+03  0.12700000000E+01 0. -1.
         -4   -1    0    0    0  501 -0.00000000000E+00 -0.00000000000E+00 -0.10170131733E+03  0.10170924661E+03  0.12700000000E+01 0. -1.
         25    2    1    2    0    0  0.63966451997E+02 -0.15278049952E+00 -0.46940432994E+02  0.14805831515E+03  0.12500452037E+03 0.  0.
    9000005    1    3    3    0    0  0.35546143567E+02  0.62335012230E+02 -0.24275771869E+02  0.75759455991E+02  0.10000000000E+01 0.  0.
    9000005    1    3    3    0    0  0.28420308430E+02 -0.62487792730E+02 -0.22664661125E+02  0.72298859157E+02  0.10000000000E+01 0.  0.
         21    1    1    2  502  501 -0.63966451997E+02  0.15278049952E+00  0.23892661339E+03  0.24734117512E+03  0.00000000000E+00 0. -1.
<mgrwt>
<rscale>  1 0.14042030E+03</rscale>
<asrwt>0</asrwt>
<pdfrwt beam="1">  1        4 0.45183513E-01 0.14042030E+03</pdfrwt>
<pdfrwt beam="2">  1       -4 0.15647178E-01 0.14042030E+03</pdfrwt>
<totfact> 0.27953086E+02</totfact>
</mgrwt>
</event>
<event>
 6    4  0.2398389E-003  0.1267814E+03  0.7818608E-02  0.1232311E+00
          4   -1    0    0  502    0  0.00000000000E+00  0.00000000000E+00  0.12791207789E+03  0.12791838245E+03  0.12700000000E+01 0.  1.
         -4   -1    0    0    0  501 -0.00000000000E+00 -0.00000000000E+00 -0.46019306992E+02  0.46036827823E+02  0.12700000000E+01 0.  1.
         25    2    1    2    0    0 -0.14882549529E+02 -0.15069735193E+02  0.84871376121E+02  0.15256691235E+03  0.12499970024E+03 0.  0.
    9000005    1    3    3    0    0  0.18969676271E+02 -0.22299853785E+02  0.10735381083E+03  0.11127880659E+03  0.10000000000E+01 0.  0.
    9000005    1    3    3    0    0 -0.33852225799E+02  0.72301185926E+01 -0.22482434709E+02  0.41288105755E+02  0.10000000000E+01 0.  0.
         21    1    1    2  502  501  0.14882549529E+02  0.15069735193E+02 -0.29786052258E+01  0.21388297930E+02  0.00000000000E+00 0.  1.
<mgrwt>
<rscale>  1 0.12678136E+03</rscale>
<asrwt>0</asrwt>
<pdfrwt beam="1">  1        4 0.19680614E-01 0.12678136E+03</pdfrwt>
<pdfrwt beam="2">  1       -4 0.70817261E-02 0.12678136E+03</pdfrwt>
<totfact> 0.50423531E+03</totfact>
</mgrwt>
</event>
<event>
 6    4  0.2398389E-003  0.1307698E+03  0.7818608E-02  0.1226318E+00
          4   -1    0    0  502    0  0.00000000000E+00  0.00000000000E+00  0.33365605589E+02  0.33389766940E+02  0.12700000000E+01 0.  1.
         -4   -1    0    0    0  501 -0.00000000000E+00 -0.00000000000E+00 -0.22267121030E+03  0.22267483198E+03  0.12700000000E+01 0.  1.
         25    2    1    2    0    0  0.34318336281E+02  0.17193133947E+02 -0.16537810711E+03  0.21083322483E+03  0.12500951293E+03 0.  0.
    9000005    1    3    3    0    0  0.72848656113E+02  0.28876345115E+02 -0.14695189911E+03  0.16654317955E+03  0.10000000000E+01 0.  0.
    9000005    1    3    3    0    0 -0.38530319833E+02 -0.11683211168E+02 -0.18426208002E+02  0.44290045281E+02  0.10000000000E+01 0.  0.
         21    1    1    2  502  501 -0.34318336281E+02 -0.17193133947E+02 -0.23927497602E+02  0.45231374083E+02  0.00000000000E+00 0.  1.
<mgrwt>
<rscale>  1 0.13076976E+03</rscale>
<asrwt>0</asrwt>
<pdfrwt beam="1">  1        4 0.51353074E-02 0.13076976E+03</pdfrwt>
<pdfrwt beam="2">  1       -4 0.34259246E-01 0.13076976E+03</pdfrwt>
<totfact> 0.30631509E+03</totfact>
</mgrwt>
</event>
<event>
 6    4  0.2398389E-003  0.1288127E+03  0.7818608E-02  0.1229228E+00
         -4   -1    0    0    0  501 -0.00000000000E+00  0.00000000000E+00  0.20187082906E+03  0.20187482390E+03  0.12700000000E+01 0.  1.
          4   -1    0    0  502    0  0.00000000000E+00 -0.00000000000E+00 -0.34367309570E+02  0.34390767178E+02  0.12700000000E+01 0.  1.
         25    2    1    2    0    0  0.15123164561E+02 -0.27193970452E+02  0.15774069583E+03  0.20365370887E+03  0.12499793550E+03 0.  0.
    9000005    1    3    3    0    0 -0.38669781455E+02 -0.37399168654E+02  0.23577437147E+02  0.58744747478E+02  0.10000000000E+01 0.  0.
    9000005    1    3    3    0    0  0.53792946016E+02  0.10205198202E+02  0.13416325868E+03  0.14490896139E+03  0.10000000000E+01 0.  0.
         21    1    1    2  502  501 -0.15123164561E+02  0.27193970452E+02  0.97628236567E+01  0.32611882207E+02  0.00000000000E+00 0.  1.
<mgrwt>
<rscale>  1 0.12881268E+03</rscale>
<asrwt>0</asrwt>
<pdfrwt beam="2">  1        4 0.52893902E-02 0.12881268E+03</pdfrwt>
<pdfrwt beam="1">  1       -4 0.31059162E-01 0.12881268E+03</pdfrwt>
<totfact> 0.35093944E+03</totfact>
</mgrwt>
</event>
<event>
 6    4  0.2398389E-003  0.1457772E+03  0.7818608E-02  0.1205760E+00
         -4   -1    0    0    0  501 -0.00000000000E+00  0.00000000000E+00  0.10378222455E+04  0.10378230225E+04  0.12700000000E+01 0. -1.
          4   -1    0    0  502    0  0.00000000000E+00 -0.00000000000E+00 -0.12421008530E+02  0.12485766012E+02  0.12700000000E+01 0. -1.
         25    2    1    2    0    0  0.68223889381E+02  0.31163398171E+02  0.78699295917E+03  0.80038047206E+03  0.12500130324E+03 0.  0.
    9000005    1    3    3    0    0  0.91468353761E+02  0.23993516728E+02  0.75097706522E+03  0.75690798719E+03  0.10000000000E+01 0.  0.
    9000005    1    3    3    0    0 -0.23244464380E+02  0.71698814429E+01  0.36015893950E+02  0.43472484875E+02  0.10000000000E+01 0.  0.
         21    1    1    2  502  501 -0.68223889381E+02 -0.31163398171E+02  0.23840827777E+03  0.24992831647E+03  0.00000000000E+00 0. -1.
<mgrwt>
<rscale>  1 0.14577717E+03</rscale>
<asrwt>0</asrwt>
<pdfrwt beam="2">  1        4 0.19159650E-02 0.14577717E+03</pdfrwt>
<pdfrwt beam="1">  1       -4 0.15967004E+00 0.14577717E+03</pdfrwt>
<totfact> 0.49625495E+02</totfact>
</mgrwt>
</event>
<event>
 6    4  0.2398389E-003  0.1304237E+03  0.7818608E-02  0.1226828E+00
         -4   -1    0    0    0  501 -0.00000000000E+00  0.00000000000E+00  0.92087470064E+02  0.92096227082E+02  0.12700000000E+01 0.  1.
          4   -1    0    0  502    0  0.00000000000E+00 -0.00000000000E+00 -0.78699705409E+02  0.78709951922E+02  0.12700000000E+01 0.  1.
         25    2    1    2    0    0 -0.86602563250E+01  0.36208864598E+02 -0.22058394327E+01  0.13044230402E+03  0.12499698811E+03 0.  0.
    9000005    1    3    3    0    0  0.41257113023E+02  0.59605654857E+02  0.12047200189E+02  0.73492302306E+02  0.10000000000E+01 0.  0.
    9000005    1    3    3    0    0 -0.49917369348E+02 -0.23396790259E+02 -0.14253039622E+02  0.56950001716E+02  0.10000000000E+01 0.  0.
         21    1    1    2  502  501  0.86602563250E+01 -0.36208864598E+02  0.15593604087E+02  0.40363874981E+02  0.00000000000E+00 0.  1.
<mgrwt>
<rscale>  1 0.13042365E+03</rscale>
<asrwt>0</asrwt>
<pdfrwt beam="2">  1        4 0.12109109E-01 0.13042365E+03</pdfrwt>
<pdfrwt beam="1">  1       -4 0.14168765E-01 0.13042365E+03</pdfrwt>
<totfact> 0.36929503E+03</totfact>
</mgrwt>
</event>
<event>
 6    4  0.2398389E-003  0.1326577E+03  0.7818608E-02  0.1223565E+00
          4   -1    0    0  502    0  0.00000000000E+00  0.00000000000E+00  0.11622931090E+02  0.11692109610E+02  0.12700000000E+01 0. -1.
         -4   -1    0    0    0  501 -0.00000000000E+00 -0.00000000000E+00 -0.80760118490E+03  0.80760218348E+03  0.12700000000E+01 0. -1.
         25    2    1    2    0    0  0.12049706689E+02 -0.42751431642E+02 -0.71240490006E+03  0.72465082635E+03  0.12500079263E+03 0.  0.
    9000005    1    3    3    0    0  0.19905102496E+02 -0.72773116720E+02 -0.65548552155E+03  0.65981391967E+03  0.10000000000E+01 0.  0.
    9000005    1    3    3    0    0 -0.78553958071E+01  0.30021685077E+02 -0.56919378510E+02  0.64836906683E+02  0.10000000000E+01 0.  0.
         21    1    1    2  502  501 -0.12049706689E+02  0.42751431642E+02 -0.83573353749E+02  0.94643466735E+02  0.00000000000E+00 0. -1.
<mgrwt>
<rscale>  1 0.13265775E+03</rscale>
<asrwt>0</asrwt>
<pdfrwt beam="1">  1        4 0.17935421E-02 0.13265775E+03</pdfrwt>
<pdfrwt beam="2">  1       -4 0.12425169E+00 0.13265775E+03</pdfrwt>
<totfact> 0.10115333E+03</totfact>
</mgrwt>
</event>
<event>
 6    4  0.2398389E-003  0.1302053E+03  0.7818608E-02  0.1227151E+00
          4   -1    0    0  502    0  0.00000000000E+00  0.00000000000E+00  0.10455716213E+03  0.10456487485E+03  0.12700000000E+01 0. -1.
         -4   -1    0    0    0  501 -0.00000000000E+00 -0.00000000000E+00 -0.67180507704E+02  0.67192510857E+02  0.12700000000E+01 0. -1.
         25    2    1    2    0    0 -0.24338748264E+02  0.27144071238E+02  0.36757502722E+02  0.13529427257E+03  0.12499700362E+03 0.  0.
    9000005    1    3    3    0    0 -0.50707478186E+02 -0.77271148867E+00  0.68657151202E+02  0.85361875789E+02  0.10000000000E+01 0.  0.
    9000005    1    3    3    0    0  0.26368729922E+02  0.27916782727E+02 -0.31899648480E+02  0.49932396784E+02  0.10000000000E+01 0.  0.
         21    1    1    2  502  501  0.24338748264E+02 -0.27144071238E+02  0.61915170084E+00  0.36463113132E+02  0.00000000000E+00 0. -1.
<mgrwt>
<rscale>  1 0.13020532E+03</rscale>
<asrwt>0</asrwt>
<pdfrwt beam="1">  1        4 0.16087234E-01 0.13020532E+03</pdfrwt>
<pdfrwt beam="2">  1       -4 0.10336979E-01 0.13020532E+03</pdfrwt>
<totfact> 0.38696296E+03</totfact>
</mgrwt>
</event>
<event>
 6    4  0.2398389E-003  0.1387859E+03  0.7818608E-02  0.1214972E+00
          4   -1    0    0  502    0  0.00000000000E+00  0.00000000000E+00  0.15234491775E+03  0.15235021124E+03  0.12700000000E+01 0.  1.
         -4   -1    0    0    0  501 -0.00000000000E+00 -0.00000000000E+00 -0.68075161367E+02  0.68087006801E+02  0.12700000000E+01 0.  1.
         25    2    1    2    0    0 -0.54212390906E+02 -0.26465459119E+02  0.36550268212E+02  0.14351808254E+03  0.12498845569E+03 0.  0.
    9000005    1    3    3    0    0 -0.35456756036E+02 -0.61391805472E+02 -0.20711230289E+02  0.73865353095E+02  0.10000000000E+01 0.  0.
    9000005    1    3    3    0    0 -0.18755634870E+02  0.34926346353E+02  0.57261498501E+02  0.69652729448E+02  0.10000000000E+01 0.  0.
         21    1    1    2  502  501  0.54212390906E+02  0.26465459119E+02  0.47719488172E+02  0.76919135497E+02  0.00000000000E+00 0.  1.
<mgrwt>
<rscale>  1 0.13878587E+03</rscale>
<asrwt>0</asrwt>
<pdfrwt beam="1">  1        4 0.23438998E-01 0.13878587E+03</pdfrwt>
<pdfrwt beam="2">  1       -4 0.10474420E-01 0.13878587E+03</pdfrwt>
<totfact> 0.19553529E+03</totfact>
</mgrwt>
</event>
<event>
 6    4  0.2398389E-003  0.1395735E+03  0.7818608E-02  0.1213904E+00
          4   -1    0    0  502    0  0.00000000000E+00  0.00000000000E+00  0.98275740928E+02  0.98283946578E+02  0.12700000000E+01 0. -1.
         -4   -1    0    0    0  501 -0.00000000000E+00 -0.00000000000E+00 -0.11034464402E+03  0.11035195224E+03  0.12700000000E+01 0. -1.
         25    2    1    2    0    0 -0.28240829725E+02 -0.55306350486E+02 -0.32415374419E+02  0.14328824573E+03  0.12499771198E+03 0.  0.
    9000005    1    3    3    0    0 -0.43816577995E+02 -0.90785410867E+02 -0.23069907206E+02  0.10341713568E+03  0.10000000000E+01 0.  0.
    9000005    1    3    3    0    0  0.15575748269E+02  0.35479060381E+02 -0.93454672132E+01  0.39871110056E+02  0.10000000000E+01 0.  0.
         21    1    1    2  502  501  0.28240829725E+02  0.55306350486E+02  0.20346471332E+02  0.65347653082E+02  0.00000000000E+00 0. -1.
<mgrwt>
<rscale>  1 0.13957351E+03</rscale>
<asrwt>0</asrwt>
<pdfrwt beam="1">  1        4 0.15120538E-01 0.13957351E+03</pdfrwt>
<pdfrwt beam="2">  1       -4 0.16977292E-01 0.13957351E+03</pdfrwt>
<totfact> 0.18610629E+03</totfact>
</mgrwt>
</event>
<event>
 6    4  0.2398389E-003  0.1302383E+03  0.7818608E-02  0.1227103E+00
          4   -1    0    0  502    0  0.00000000000E+00  0.00000000000E+00  0.81827183783E+03  0.81827282338E+03  0.12700000000E+01 0.  1.
         -4   -1    0    0    0  501 -0.00000000000E+00 -0.00000000000E+00 -0.85122689182E+01  0.86064872124E+01  0.12700000000E+01 0.  1.
         25    2    1    2    0    0 -0.36450831366E+02  0.27795940564E+01  0.60185240581E+03  0.61578270304E+03  0.12500251893E+03 0.  0.
    9000005    1    3    3    0    0 -0.56493539509E+02 -0.98854050125E+01  0.11655037035E+03  0.12990084706E+03  0.10000000000E+01 0.  0.
    9000005    1    3    3    0    0  0.20042708143E+02  0.12664999069E+02  0.48530203546E+03  0.48588185599E+03  0.10000000000E+01 0.  0.
         21    1    1    2  502  501  0.36450831366E+02 -0.27795940564E+01  0.20790716310E+03  0.21109660755E+03  0.00000000000E+00 0.  1.
<mgrwt>
<rscale>  1 0.13023832E+03</rscale>
<asrwt>0</asrwt>
<pdfrwt beam="1">  1        4 0.12589533E+00 0.13023832E+03</pdfrwt>
<pdfrwt beam="2">  1       -4 0.13169029E-02 0.13023832E+03</pdfrwt>
<totfact> 0.15631776E+03</totfact>
</mgrwt>
</event>
<event>
 6    4  0.2398389E-003  0.1279850E+03  0.7818608E-02  0.1230477E+00
         -4   -1    0    0    0  501 -0.00000000000E+00  0.00000000000E+00  0.11160344870E+02  0.11232372751E+02  0.12700000000E+01 0. -1.
          4   -1    0    0  502    0  0.00000000000E+00 -0.00000000000E+00 -0.54770767545E+03  0.54770914786E+03  0.12700000000E+01 0. -1.
         25    2    1    2    0    0  0.24420454453E+02  0.12538011703E+02 -0.41275935448E+03  0.43214631817E+03  0.12500638091E+03 0.  0.
    9000005    1    3    3    0    0  0.34876465917E+01  0.68272536672E+02 -0.22782312506E+03  0.23786062989E+03  0.10000000000E+01 0.  0.
    9000005    1    3    3    0    0  0.20932807861E+02 -0.55734524969E+02 -0.18493622942E+03  0.19428568828E+03  0.10000000000E+01 0.  0.
         21    1    1    2  502  501 -0.24420454453E+02 -0.12538011703E+02 -0.12378797610E+03  0.12679520244E+03  0.00000000000E+00 0. -1.
<mgrwt>
<rscale>  1 0.12798498E+03</rscale>
<asrwt>0</asrwt>
<pdfrwt beam="2">  1        4 0.84268352E-01 0.12798498E+03</pdfrwt>
<pdfrwt beam="1">  1       -4 0.17226304E-02 0.12798498E+03</pdfrwt>
<totfact> 0.26286352E+03</totfact>
</mgrwt>
</event>
<event>
 6    4  0.2398389E-003  0.1456078E+03  0.7818608E-02  0.1205976E+00
          4   -1    0    0  502    0  0.00000000000E+00  0.00000000000E+00  0.27193870086E+03  0.27194166641E+03  0.12700000000E+01 0.  1.
         -4   -1    0    0    0  501 -0.00000000000E+00 -0.00000000000E+00 -0.44627576442E+02  0.44645643450E+02  0.12700000000E+01 0.  1.
         25    2    1    2    0    0  0.12100834982E+02 -0.73684397740E+02  0.14625089662E+03  0.20637578047E+03  0.12500326926E+03 0.  0.
    9000005    1    3    3    0    0  0.26612155545E+02 -0.10105362016E+02  0.13767737458E+03  0.14059297506E+03  0.10000000000E+01 0.  0.
    9000005    1    3    3    0    0 -0.14511320563E+02 -0.63579035724E+02  0.85735220389E+01  0.65782805415E+02  0.10000000000E+01 0.  0.
         21    1    1    2  502  501 -0.12100834982E+02  0.73684397740E+02  0.81060227802E+02  0.11021152938E+03  0.00000000000E+00 0.  1.
<mgrwt>
<rscale>  1 0.14560782E+03</rscale>
<asrwt>0</asrwt>
<pdfrwt beam="1">  1        4 0.41838341E-01 0.14560782E+03</pdfrwt>
<pdfrwt beam="2">  1       -4 0.68673990E-02 0.14560782E+03</pdfrwt>
<totfact> 0.13240167E+03</totfact>
</mgrwt>
</event>
<event>
 6    4  0.2398389E-003  0.1270742E+03  0.7818608E-02  0.1231863E+00
         -4   -1    0    0    0  501 -0.00000000000E+00  0.00000000000E+00  0.19506145534E+02  0.19547445194E+02  0.12700000000E+01 0. -1.
          4   -1    0    0  502    0  0.00000000000E+00 -0.00000000000E+00 -0.28916324527E+03  0.28916603417E+03  0.12700000000E+01 0. -1.
         25    2    1    2    0    0 -0.10929944265E+02 -0.20055717776E+02 -0.23601777492E+03  0.26805269147E+03  0.12500463925E+03 0.  0.
    9000005    1    3    3    0    0 -0.26114738882E+02 -0.33321814477E+02 -0.24302187177E+03  0.24668391327E+03  0.10000000000E+01 0.  0.
    9000005    1    3    3    0    0  0.15184794616E+02  0.13266096700E+02  0.70040968549E+01  0.21368778205E+02  0.10000000000E+01 0.  0.
         21    1    1    2  502  501  0.10929944265E+02  0.20055717776E+02 -0.33639324822E+02  0.40660787887E+02  0.00000000000E+00 0. -1.
<mgrwt>
<rscale>  1 0.12707421E+03</rscale>
<asrwt>0</asrwt>
<pdfrwt beam="2">  1        4 0.44490042E-01 0.12707421E+03</pdfrwt>
<pdfrwt beam="1">  1       -4 0.30043371E-02 0.12707421E+03</pdfrwt>
<totfact> 0.42655801E+03</totfact>
</mgrwt>
</event>
<event>
 6    4  0.2398389E-003  0.1281012E+03  0.7818608E-02  0.1230301E+00
         -4   -1    0    0    0  501 -0.00000000000E+00  0.00000000000E+00  0.10439466395E+02  0.10516432789E+02  0.12700000000E+01 0.  1.
          4   -1    0    0  502    0  0.00000000000E+00 -0.00000000000E+00 -0.16908074160E+04  0.16908078930E+04  0.12700000000E+01 0.  1.
         25    2    1    2    0    0 -0.27687655189E+02  0.41466987870E+01 -0.38694200886E+03  0.40759542620E+03  0.12500444741E+03 0.  0.
    9000005    1    3    3    0    0  0.28571498137E+02  0.22671476978E+02 -0.34519065415E+02  0.50228400843E+02  0.10000000000E+01 0.  0.
    9000005    1    3    3    0    0 -0.56259153326E+02 -0.18524778191E+02 -0.35242294345E+03  0.35736702535E+03  0.10000000000E+01 0.  0.
         21    1    1    2  502  501  0.27687655189E+02 -0.41466987870E+01 -0.12934259408E+04  0.12937288996E+04  0.00000000000E+00 0.  1.
<mgrwt>
<rscale>  1 0.12810118E+03</rscale>
<asrwt>0</asrwt>
<pdfrwt beam="2">  1        4 0.26012996E+00 0.12810118E+03</pdfrwt>
<pdfrwt beam="1">  1       -4 0.16120303E-02 0.12810118E+03</pdfrwt>
<totfact> 0.15145459E+02</totfact>
</mgrwt>
</event>
<event>
 6    4  0.2398389E-003  0.1333226E+03  0.7818608E-02  0.1222607E+00
          4   -1    0    0  502    0  0.00000000000E+00  0.00000000000E+00  0.12162971973E+03  0.12163634992E+03  0.12700000000E+01 0.  1.
         -4   -1    0    0    0  501 -0.00000000000E+00 -0.00000000000E+00 -0.13452865791E+03  0.13453465241E+03  0.12700000000E+01 0.  1.
         25    2    1    2    0    0  0.42818189077E+02  0.17774162456E+02 -0.93740679160E+02  0.16297923632E+03  0.12500239348E+03 0.  0.
    9000005    1    3    3    0    0 -0.19609268390E+02  0.53893973223E+02 -0.61106033762E+02  0.83809493011E+02  0.10000000000E+01 0.  0.
    9000005    1    3    3    0    0  0.62427457467E+02 -0.36119810767E+02 -0.32634645398E+02  0.79169743311E+02  0.10000000000E+01 0.  0.
         21    1    1    2  502  501 -0.42818189077E+02 -0.17774162456E+02  0.80841740979E+02  0.93191766006E+02  0.00000000000E+00 0.  1.
<mgrwt>
<rscale>  1 0.13332260E+03</rscale>
<asrwt>0</asrwt>
<pdfrwt beam="1">  1        4 0.18713236E-01 0.13332260E+03</pdfrwt>
<pdfrwt beam="2">  1       -4 0.20697688E-01 0.13332260E+03</pdfrwt>
<totfact> 0.88779566E+02</totfact>
</mgrwt>
</event>
<event>
 6    4  0.2398389E-003  0.1302968E+03  0.7818608E-02  0.1227016E+00
         -4   -1    0    0    0  501 -0.00000000000E+00  0.00000000000E+00  0.48848403975E+02  0.48864910425E+02  0.12700000000E+01 0.  1.
          4   -1    0    0  502    0  0.00000000000E+00 -0.00000000000E+00 -0.19826296102E+03  0.19826702856E+03  0.12700000000E+01 0.  1.
         25    2    1    2    0    0 -0.30233111723E+02 -0.20919841331E+02 -0.47326735764E+02  0.13862569925E+03  0.12500233506E+03 0.  0.
    9000005    1    3    3    0    0 -0.44084818338E+02 -0.58060285772E+02 -0.62638547028E+02  0.96120006063E+02  0.10000000000E+01 0.  0.
    9000005    1    3    3    0    0  0.13851706615E+02  0.37140444441E+02  0.15311811264E+02  0.42505693191E+02  0.10000000000E+01 0.  0.
         21    1    1    2  502  501  0.30233111723E+02  0.20919841331E+02 -0.10208782128E+03  0.10850623973E+03  0.00000000000E+00 0.  1.
<mgrwt>
<rscale>  1 0.13029683E+03</rscale>
<asrwt>0</asrwt>
<pdfrwt beam="2">  1        4 0.30503576E-01 0.13029683E+03</pdfrwt>
<pdfrwt beam="1">  1       -4 0.75167218E-02 0.13029683E+03</pdfrwt>
<totfact> 0.20542040E+03</totfact>
</mgrwt>
</event>
<event>
 6    4  0.2398389E-003  0.1304813E+03  0.7818608E-02  0.1226743E+00
          4   -1    0    0  502    0  0.00000000000E+00  0.00000000000E+00  0.68038205098E+02  0.68050056965E+02  0.12700000000E+01 0.  1.
         -4   -1    0    0    0  501 -0.00000000000E+00 -0.00000000000E+00 -0.11775753033E+03  0.11776437852E+03  0.12700000000E+01 0.  1.
         25    2    1    2    0    0 -0.37424692654E+02 -0.23574583716E+00 -0.64528653737E+02  0.14556546771E+03  0.12499878015E+03 0.  0.
    9000005    1    3    3    0    0 -0.18777352775E+02 -0.50751047190E+02  0.85413304503E+01  0.54792445592E+02  0.10000000000E+01 0.  0.
    9000005    1    3    3    0    0 -0.18647339879E+02  0.50515301353E+02 -0.73069984188E+02  0.90773022118E+02  0.10000000000E+01 0.  0.
         21    1    1    2  502  501  0.37424692654E+02  0.23574583716E+00  0.14809328508E+02  0.40248967778E+02  0.00000000000E+00 0.  1.
<mgrwt>
<rscale>  1 0.13048126E+03</rscale>
<asrwt>0</asrwt>
<pdfrwt beam="1">  1        4 0.10468855E-01 0.13048126E+03</pdfrwt>
<pdfrwt beam="2">  1       -4 0.18117982E-01 0.13048126E+03</pdfrwt>
<totfact> 0.30716040E+03</totfact>
</mgrwt>
</event>
<event>
 6    4  0.2398389E-003  0.1267842E+03  0.7818608E-02  0.1232307E+00
         -4   -1    0    0    0  501 -0.00000000000E+00  0.00000000000E+00  0.71013537133E+01  0.72140227724E+01  0.12700000000E+01 0. -1.
          4   -1    0    0  502    0  0.00000000000E+00 -0.00000000000E+00 -0.99514490126E+03  0.99514571164E+03  0.12700000000E+01 0. -1.
         25    2    1    2    0    0  0.17182120750E+02 -0.12470340261E+02 -0.57684930713E+03  0.59061777880E+03  0.12499401123E+03 0.  0.
    9000005    1    3    3    0    0 -0.37155471199E+01 -0.47990207478E+02 -0.50868052587E+03  0.51095375789E+03  0.10000000000E+01 0.  0.
    9000005    1    3    3    0    0  0.20897667870E+02  0.35519867217E+02 -0.68168781261E+02  0.79664020913E+02  0.10000000000E+01 0.  0.
         21    1    1    2  502  501 -0.17182120750E+02  0.12470340261E+02 -0.41119424042E+03  0.41174195561E+03  0.00000000000E+00 0.  1.
<mgrwt>
<rscale>  1 0.12678422E+03</rscale>
<asrwt>0</asrwt>
<pdfrwt beam="2">  1        4 0.15310783E+00 0.12678422E+03</pdfrwt>
<pdfrwt beam="1">  1       -4 0.11012459E-02 0.12678422E+03</pdfrwt>
<totfact> 0.12515071E+03</totfact>
</mgrwt>
</event>
<event>
 6    4  0.2398389E-003  0.1287636E+03  0.7818608E-02  0.1229302E+00
         -4   -1    0    0    0  501 -0.00000000000E+00  0.00000000000E+00  0.42548862209E+03  0.42549051744E+03  0.12700000000E+01 0. -1.
          4   -1    0    0  502    0  0.00000000000E+00 -0.00000000000E+00 -0.16521912923E+02  0.16570651968E+02  0.12700000000E+01 0. -1.
         25    2    1    2    0    0  0.10600959596E+02 -0.29028908311E+02  0.26263364182E+03  0.29250039761E+03  0.12499997968E+03 0.  0.
    9000005    1    3    3    0    0 -0.26549299372E+02 -0.75699776537E+01  0.24426176107E+03  0.24581899393E+03  0.10000000000E+01 0.  0.
    9000005    1    3    3    0    0  0.37150258968E+02 -0.21458930657E+02  0.18371880753E+02  0.46681403672E+02  0.10000000000E+01 0.  0.
         21    1    1    2  502  501 -0.10600959596E+02  0.29028908311E+02  0.14633306735E+03  0.14956077180E+03  0.00000000000E+00 0. -1.
<mgrwt>
<rscale>  1 0.12876355E+03</rscale>
<asrwt>0</asrwt>
<pdfrwt beam="2">  1        4 0.25457278E-02 0.12876355E+03</pdfrwt>
<pdfrwt beam="1">  1       -4 0.65463680E-01 0.12876355E+03</pdfrwt>
<totfact> 0.24991121E+03</totfact>
</mgrwt>
</event>
<event>
 6    4  0.2398389E-003  0.1432528E+03  0.7818608E-02  0.1209018E+00
         -4   -1    0    0    0  501 -0.00000000000E+00  0.00000000000E+00  0.47667288671E+02  0.47684203980E+02  0.12700000000E+01 0.  1.
          4   -1    0    0  502    0  0.00000000000E+00 -0.00000000000E+00 -0.28205270408E+03  0.28205556328E+03  0.12700000000E+01 0.  1.
         25    2    1    2    0    0  0.54226247204E+02  0.44228021205E+02 -0.89694388153E+02  0.16901610033E+03  0.12499902063E+03 0.  0.
    9000005    1    3    3    0    0  0.55044101865E+02 -0.22908770659E+02 -0.34716985349E+01  0.59730374299E+02  0.10000000000E+01 0.  0.
    9000005    1    3    3    0    0 -0.81785466093E+00  0.67136791864E+02 -0.86222689618E+02  0.10928572603E+03  0.10000000000E+01 0.  0.
         21    1    1    2  502  501 -0.54226247204E+02 -0.44228021205E+02 -0.14469102726E+03  0.16072366694E+03  0.00000000000E+00 0.  1.
<mgrwt>
<rscale>  1 0.14325278E+03</rscale>
<asrwt>0</asrwt>
<pdfrwt beam="2">  1        4 0.43394244E-01 0.14325278E+03</pdfrwt>
<pdfrwt beam="1">  1       -4 0.73349503E-02 0.14325278E+03</pdfrwt>
<totfact> 0.11010698E+03</totfact>
</mgrwt>
</event>
<event>
 6    4  0.2398389E-003  0.1272050E+03  0.7818608E-02  0.1231663E+00
          4   -1    0    0  502    0  0.00000000000E+00  0.00000000000E+00  0.30835397453E+02  0.30861539756E+02  0.12700000000E+01 0.  1.
         -4   -1    0    0    0  501 -0.00000000000E+00 -0.00000000000E+00 -0.18423417070E+03  0.18423854796E+03  0.12700000000E+01 0.  1.
         25    2    1    2    0    0  0.22717315345E+02  0.62518097840E+01 -0.12811924795E+03  0.18054265811E+03  0.12500379257E+03 0.  0.
    9000005    1    3    3    0    0  0.23154113467E+02 -0.10729989468E+02 -0.15037412514E+03  0.15252745050E+03  0.10000000000E+01 0.  0.
    9000005    1    3    3    0    0 -0.43679812243E+00  0.16981799252E+02  0.22254877188E+02  0.28015207604E+02  0.10000000000E+01 0.  0.
         21    1    1    2  502  501 -0.22717315345E+02 -0.62518097840E+01 -0.25279525294E+02  0.34557429608E+02  0.00000000000E+00 0.  1.
<mgrwt>
<rscale>  1 0.12720499E+03</rscale>
<asrwt>0</asrwt>
<pdfrwt beam="1">  1        4 0.47462551E-02 0.12720499E+03</pdfrwt>
<pdfrwt beam="2">  1       -4 0.28346066E-01 0.12720499E+03</pdfrwt>
<totfact> 0.49461681E+03</totfact>
</mgrwt>
</event>
<event>
 6    4  0.2398389E-003  0.1277139E+03  0.7818608E-02  0.1230888E+00
         -4   -1    0    0    0  501 -0.00000000000E+00  0.00000000000E+00  0.11928198088E+02  0.11995616267E+02  0.12700000000E+01 0.  1.
          4   -1    0    0  502    0  0.00000000000E+00 -0.00000000000E+00 -0.17312482864E+04  0.17312487522E+04  0.12700000000E+01 0.  1.
         25    2    1    2    0    0  0.26081218488E+02  0.23629909304E+01 -0.33260622400E+03  0.35628324605E+03  0.12500014994E+03 0.  0.
    9000005    1    3    3    0    0  0.66357567023E+02  0.65901731144E+01 -0.10015022385E+03  0.12032383147E+03  0.10000000000E+01 0.  0.
    9000005    1    3    3    0    0 -0.40276348534E+02 -0.42271821841E+01 -0.23245600015E+03  0.23595941458E+03  0.10000000000E+01 0.  0.
         21    1    1    2  502  501 -0.26081218488E+02 -0.23629909304E+01 -0.13867138643E+04  0.13869611225E+04  0.00000000000E+00 0.  1.
<mgrwt>
<rscale>  1 0.12771394E+03</rscale>
<asrwt>0</asrwt>
<pdfrwt beam="2">  1        4 0.26635091E+00 0.12771394E+03</pdfrwt>
<pdfrwt beam="1">  1       -4 0.18403306E-02 0.12771394E+03</pdfrwt>
<totfact> 0.11388453E+02</totfact>
</mgrwt>
</event>
<event>
 6    4  0.2398389E-003  0.1280618E+03  0.7818608E-02  0.1230360E+00
          4   -1    0    0  502    0  0.00000000000E+00  0.00000000000E+00  0.41397865838E+03  0.41398060642E+03  0.12700000000E+01 0. -1.
         -4   -1    0    0    0  501 -0.00000000000E+00 -0.00000000000E+00 -0.18635687435E+02  0.18678911804E+02  0.12700000000E+01 0. -1.
         25    2    1    2    0    0 -0.16764196415E+02 -0.22222072467E+02  0.21553245138E+03  0.25070710211E+03  0.12499981865E+03 0.  0.
    9000005    1    3    3    0    0 -0.10357250232E+02 -0.30547161355E+02  0.23030373513E+03  0.23255367577E+03  0.10000000000E+01 0.  0.
    9000005    1    3    3    0    0 -0.64069461834E+01  0.83250888879E+01 -0.14771283746E+02  0.18153426340E+02  0.10000000000E+01 0.  0.
         21    1    1    2  502  501  0.16764196415E+02  0.22222072467E+02  0.17981051956E+03  0.18195241612E+03  0.00000000000E+00 0. -1.
<mgrwt>
<rscale>  1 0.12806176E+03</rscale>
<asrwt>0</asrwt>
<pdfrwt beam="1">  1        4 0.63692496E-01 0.12806176E+03</pdfrwt>
<pdfrwt beam="2">  1       -4 0.28705038E-02 0.12806176E+03</pdfrwt>
<totfact> 0.21944231E+03</totfact>
</mgrwt>
</event>
<event>
 6    4  0.2398389E-003  0.1282676E+03  0.7818608E-02  0.1230049E+00
         -4   -1    0    0    0  501 -0.00000000000E+00  0.00000000000E+00  0.17063976556E+04  0.17063981283E+04  0.12700000000E+01 0.  1.
          4   -1    0    0  502    0  0.00000000000E+00 -0.00000000000E+00 -0.35155196793E+01  0.37378842432E+01  0.12700000000E+01 0.  1.
         25    2    1    2    0    0 -0.25087503412E+02  0.14059986757E+02  0.14309857201E+04  0.14367229057E+04  0.12500204124E+03 0.  0.
    9000005    1    3    3    0    0  0.17462560908E+02 -0.25496284414E+02  0.11156592958E+04  0.11160876604E+04  0.10000000000E+01 0.  0.
    9000005    1    3    3    0    0 -0.42550064320E+02  0.39556271171E+02  0.31532642437E+03  0.32063524521E+03  0.10000000000E+01 0.  0.
         21    1    1    2  502  501  0.25087503412E+02 -0.14059986757E+02  0.27189641582E+03  0.27341310684E+03  0.00000000000E+00 0.  1.
<mgrwt>
<rscale>  1 0.12826760E+03</rscale>
<asrwt>0</asrwt>
<pdfrwt beam="2">  1        4 0.55799110E-03 0.12826760E+03</pdfrwt>
<pdfrwt beam="1">  1       -4 0.26253958E+00 0.12826760E+03</pdfrwt>
<totfact> 0.72237621E+02</totfact>
</mgrwt>
</event>
<event>
 6    4  0.2398389E-003  0.1270345E+03  0.7818608E-02  0.1231924E+00
         -4   -1    0    0    0  501 -0.00000000000E+00  0.00000000000E+00  0.52643707801E+01  0.54153946958E+01  0.12700000000E+01 0. -1.
          4   -1    0    0  502    0  0.00000000000E+00 -0.00000000000E+00 -0.10565732048E+04  0.10565739681E+04  0.12700000000E+01 0. -1.
         25    2    1    2    0    0  0.45687315196E+01 -0.22182641672E+02 -0.92231033360E+03  0.93101777803E+03  0.12499923452E+03 0.  0.
    9000005    1    3    3    0    0 -0.18954783576E+02 -0.70138792986E+02 -0.58659173589E+03  0.59107495186E+03  0.10000000000E+01 0.  0.
    9000005    1    3    3    0    0  0.23523515096E+02  0.47956151314E+02 -0.33571859772E+03  0.33994282617E+03  0.10000000000E+01 0.  0.
         21    1    1    2  502  501 -0.45687315196E+01  0.22182641672E+02 -0.12899850042E+03  0.13097158475E+03  0.00000000000E+00 0. -1.
<mgrwt>
<rscale>  1 0.12703445E+03</rscale>
<asrwt>0</asrwt>
<pdfrwt beam="2">  1        4 0.16256123E+00 0.12703445E+03</pdfrwt>
<pdfrwt beam="1">  1       -4 0.82157998E-03 0.12703445E+03</pdfrwt>
<totfact> 0.16647938E+03</totfact>
</mgrwt>
</event>
<event>
 6    4  0.2398389E-003  0.1354151E+03  0.7818608E-02  0.1219635E+00
          4   -1    0    0  502    0  0.00000000000E+00  0.00000000000E+00  0.10084167574E+02  0.10163824854E+02  0.12700000000E+01 0. -1.
         -4   -1    0    0    0  501 -0.00000000000E+00 -0.00000000000E+00 -0.12741144722E+04  0.12741151051E+04  0.12700000000E+01 0. -1.
         25    2    1    2    0    0  0.46284234118E+02  0.23879593704E+02 -0.11606290927E+04  0.11685020932E+04  0.12499914216E+03 0.  0.
    9000005    1    3    3    0    0  0.84076485088E+02  0.39214503251E+02 -0.88869117516E+03  0.89352092164E+03  0.10000000000E+01 0.  0.
    9000005    1    3    3    0    0 -0.37792250969E+02 -0.15334909547E+02 -0.27193791757E+03  0.27498117154E+03  0.10000000000E+01 0.  0.
         21    1    1    2  502  501 -0.46284234118E+02 -0.23879593704E+02 -0.10340121186E+03  0.11577683679E+03  0.00000000000E+00 0. -1.
<mgrwt>
<rscale>  1 0.13541511E+03</rscale>
<asrwt>0</asrwt>
<pdfrwt beam="1">  1        4 0.15575876E-02 0.13541511E+03</pdfrwt>
<pdfrwt beam="2">  1       -4 0.19602366E+00 0.13541511E+03</pdfrwt>
<totfact> 0.38597960E+02</totfact>
</mgrwt>
</event>
<event>
 6    4  0.2398389E-003  0.1400281E+03  0.7818608E-02  0.1213291E+00
          4   -1    0    0  502    0  0.00000000000E+00  0.00000000000E+00  0.51645816824E+03  0.51645972974E+03  0.12700000000E+01 0. -1.
         -4   -1    0    0    0  501 -0.00000000000E+00 -0.00000000000E+00 -0.26169333499E+02  0.26200131980E+02  0.12700000000E+01 0. -1.
         25    2    1    2    0    0  0.62943727726E+02  0.45474886710E+01  0.19123812263E+03  0.23702295144E+03  0.12500106978E+03 0.  0.
    9000005    1    3    3    0    0  0.40385092438E+02 -0.59537216508E+02  0.10350397395E+03  0.12605438693E+03  0.10000000000E+01 0.  0.
    9000005    1    3    3    0    0  0.22558635288E+02  0.64084705179E+02  0.87734148680E+02  0.11096856451E+03  0.10000000000E+01 0.  0.
         21    1    1    2  502  501 -0.62943727726E+02 -0.45474886710E+01  0.29905071211E+03  0.30563691028E+03  0.00000000000E+00 0. -1.
<mgrwt>
<rscale>  1 0.14002807E+03</rscale>
<asrwt>0</asrwt>
<pdfrwt beam="1">  1        4 0.79457593E-01 0.14002807E+03</pdfrwt>
<pdfrwt beam="2">  1       -4 0.40285405E-02 0.14002807E+03</pdfrwt>
<totfact> 0.81284418E+02</totfact>
</mgrwt>
</event>
<event>
 6    4  0.2398389E-003  0.1269666E+03  0.7818608E-02  0.1232027E+00
         -4   -1    0    0    0  501 -0.00000000000E+00  0.00000000000E+00  0.82395191211E+01  0.83368204579E+01  0.12700000000E+01 0.  1.
          4   -1    0    0  502    0  0.00000000000E+00 -0.00000000000E+00 -0.68246857377E+03  0.68246975544E+03  0.12700000000E+01 0.  1.
         25    2    1    2    0    0 -0.21933788481E+02  0.37276042009E+01 -0.53845383060E+03  0.55322061158E+03  0.12500212510E+03 0.  0.
    9000005    1    3    3    0    0 -0.73070145774E+02 -0.10272586165E+02 -0.30024546768E+03  0.30918135955E+03  0.10000000000E+01 0.  0.
    9000005    1    3    3    0    0  0.51136357292E+02  0.14000190366E+02 -0.23820836292E+03  0.24403925203E+03  0.10000000000E+01 0.  0.
         21    1    1    2  502  501  0.21933788481E+02 -0.37276042009E+01 -0.13577522405E+03  0.13758596431E+03  0.00000000000E+00 0. -1.
<mgrwt>
<rscale>  1 0.12696660E+03</rscale>
<asrwt>0</asrwt>
<pdfrwt beam="2">  1        4 0.10500270E+00 0.12696660E+03</pdfrwt>
<pdfrwt beam="1">  1       -4 0.12751945E-02 0.12696660E+03</pdfrwt>
<totfact> 0.25120120E+03</totfact>
</mgrwt>
</event>
<event>
 6    4  0.2398389E-003  0.1302620E+03  0.7818608E-02  0.1227067E+00
         -4   -1    0    0    0  501 -0.00000000000E+00  0.00000000000E+00  0.14371663826E+03  0.14372224954E+03  0.12700000000E+01 0.  1.
          4   -1    0    0  502    0  0.00000000000E+00 -0.00000000000E+00 -0.60211235268E+02  0.60224627458E+02  0.12700000000E+01 0.  1.
         25    2    1    2    0    0 -0.30349511129E+02  0.20548844176E+02  0.99540934718E+02  0.16394080120E+03  0.12499936317E+03 0.  0.
    9000005    1    3    3    0    0 -0.58993184431E+02  0.11609505026E+02  0.16971019573E+00  0.60133228899E+02  0.10000000000E+01 0.  0.
    9000005    1    3    3    0    0  0.28643673302E+02  0.89393391503E+01  0.99371224522E+02  0.10380757230E+03  0.10000000000E+01 0.  0.
         21    1    1    2  502  501  0.30349511129E+02 -0.20548844176E+02 -0.16035531727E+02  0.40006075795E+02  0.00000000000E+00 0.  1.
<mgrwt>
<rscale>  1 0.13026200E+03</rscale>
<asrwt>0</asrwt>
<pdfrwt beam="2">  1        4 0.92647288E-02 0.13026200E+03</pdfrwt>
<pdfrwt beam="1">  1       -4 0.22111714E-01 0.13026200E+03</pdfrwt>
<totfact> 0.26356974E+03</totfact>
</mgrwt>
</event>
<event>
 6    4  0.2398389E-003  0.1270379E+03  0.7818608E-02  0.1231918E+00
          4   -1    0    0  502    0  0.00000000000E+00  0.00000000000E+00  0.19908197801E+04  0.19908201852E+04  0.12700000000E+01 0. -1.
         -4   -1    0    0    0  501 -0.00000000000E+00 -0.00000000000E+00 -0.34892893687E+01  0.37132250535E+01  0.12700000000E+01 0. -1.
         25    2    1    2    0    0 -0.21755099146E+02 -0.63679657693E+01  0.11678071792E+04  0.11746966622E+04  0.12499922005E+03 0.  0.
    9000005    1    3    3    0    0 -0.35545397777E+02 -0.54886273733E+02  0.40720701888E+03  0.41242518664E+03  0.10000000000E+01 0.  0.
    9000005    1    3    3    0    0  0.13790298631E+02  0.48518307964E+02  0.76060016037E+03  0.76227147559E+03  0.10000000000E+01 0.  0.
         21    1    1    2  502  501  0.21755099146E+02  0.63679657693E+01  0.81952331150E+03  0.81983674803E+03  0.00000000000E+00 0. -1.
<mgrwt>
<rscale>  1 0.12703795E+03</rscale>
<asrwt>0</asrwt>
<pdfrwt beam="1">  1        4 0.30629714E+00 0.12703795E+03</pdfrwt>
<pdfrwt beam="2">  1       -4 0.55407089E-03 0.12703795E+03</pdfrwt>
<totfact> 0.40872532E+02</totfact>
</mgrwt>
</event>
<event>
 6    4  0.2398389E-003  0.1266475E+03  0.7818608E-02  0.1232517E+00
         -4   -1    0    0    0  501 -0.00000000000E+00  0.00000000000E+00  0.90717218901E+02  0.90726108178E+02  0.12700000000E+01 0.  1.
          4   -1    0    0  502    0  0.00000000000E+00 -0.00000000000E+00 -0.70109769237E+02  0.70121270970E+02  0.12700000000E+01 0.  1.
         25    2    1    2    0    0  0.10600029719E+02  0.17524782872E+02  0.39825382163E+02  0.13276166081E+03  0.12498047397E+03 0.  0.
    9000005    1    3    3    0    0 -0.47373440938E+02  0.41908012391E+02  0.14138079292E+02  0.64818282104E+02  0.10000000000E+01 0.  0.
    9000005    1    3    3    0    0  0.57973470657E+02 -0.24383229519E+02  0.25687302871E+02  0.67943378710E+02  0.10000000000E+01 0.  0.
         21    1    1    2  502  501 -0.10600029719E+02 -0.17524782872E+02 -0.19217932500E+02  0.28085718333E+02  0.00000000000E+00 0. -1.
<mgrwt>
<rscale>  1 0.12664753E+03</rscale>
<asrwt>0</asrwt>
<pdfrwt beam="2">  1        4 0.10787687E-01 0.12664753E+03</pdfrwt>
<pdfrwt beam="1">  1       -4 0.13958064E-01 0.12664753E+03</pdfrwt>
<totfact> 0.45800922E+03</totfact>
</mgrwt>
</event>
<event>
 6    4  0.2398389E-003  0.1273270E+03  0.7818608E-02  0.1231477E+00
          4   -1    0    0  502    0  0.00000000000E+00  0.00000000000E+00  0.50583958050E+03  0.50584117477E+03  0.12700000000E+01 0.  1.
         -4   -1    0    0    0  501 -0.00000000000E+00 -0.00000000000E+00 -0.14624719598E+02  0.14679758966E+02  0.12700000000E+01 0.  1.
         25    2    1    2    0    0  0.50848111754E+01 -0.23695015801E+02  0.27609706468E+03  0.30404235436E+03  0.12499942018E+03 0.  0.
    9000005    1    3    3    0    0 -0.27561311578E+02 -0.66815465237E+02  0.13928249050E+03  0.15692209675E+03  0.10000000000E+01 0.  0.
    9000005    1    3    3    0    0  0.32646122753E+02  0.43120449436E+02  0.13681457418E+03  0.14712025761E+03  0.10000000000E+01 0.  0.
         21    1    1    2  502  501 -0.50848111754E+01  0.23695015801E+02  0.21511779622E+03  0.21647857938E+03  0.00000000000E+00 0.  1.
<mgrwt>
<rscale>  1 0.12732700E+03</rscale>
<asrwt>0</asrwt>
<pdfrwt beam="1">  1        4 0.77825826E-01 0.12732700E+03</pdfrwt>
<pdfrwt beam="2">  1       -4 0.22543134E-02 0.12732700E+03</pdfrwt>
<totfact> 0.20701103E+03</totfact>
</mgrwt>
</event>
<event>
 6    4  0.2398389E-003  0.1279556E+03  0.7818608E-02  0.1230521E+00
          4   -1    0    0  502    0  0.00000000000E+00  0.00000000000E+00  0.10164532475E+03  0.10165325840E+03  0.12700000000E+01 0.  1.
         -4   -1    0    0    0  501 -0.00000000000E+00 -0.00000000000E+00 -0.73278776652E+02  0.73289781058E+02  0.12700000000E+01 0.  1.
         25    2    1    2    0    0 -0.15785916256E+02 -0.22261332733E+02 -0.94540806261E+01  0.12830440693E+03  0.12501151591E+03 0.  0.
    9000005    1    3    3    0    0 -0.43860731952E+02 -0.23404549138E+02  0.44972145135E+02  0.67044989117E+02  0.10000000000E+01 0.  0.
    9000005    1    3    3    0    0  0.28074815697E+02  0.11432164053E+01 -0.54426225761E+02  0.61259417812E+02  0.10000000000E+01 0.  0.
         21    1    1    2  502  501  0.15785916256E+02  0.22261332733E+02  0.37820628723E+02  0.46638632528E+02  0.00000000000E+00 0.  1.
<mgrwt>
<rscale>  1 0.12795562E+03</rscale>
<asrwt>0</asrwt>
<pdfrwt beam="1">  1        4 0.15639199E-01 0.12795562E+03</pdfrwt>
<pdfrwt beam="2">  1       -4 0.11275115E-01 0.12795562E+03</pdfrwt>
<totfact> 0.34948768E+03</totfact>
</mgrwt>
</event>
<event>
 6    4  0.2398389E-003  0.1268022E+03  0.7818608E-02  0.1232279E+00
          4   -1    0    0  502    0  0.00000000000E+00  0.00000000000E+00  0.87328322145E+01  0.88246959430E+01  0.12700000000E+01 0.  1.
         -4   -1    0    0    0  501 -0.00000000000E+00 -0.00000000000E+00 -0.81514640872E+03  0.81514739805E+03  0.12700000000E+01 0.  1.
         25    2    1    2    0    0 -0.19813763755E+02  0.79716810236E+01 -0.77883953485E+03  0.78909429725E+03  0.12499062355E+03 0.  0.
    9000005    1    3    3    0    0 -0.54202202253E+02  0.25099612102E+02 -0.19391420114E+03  0.20290782799E+03  0.10000000000E+01 0.  0.
    9000005    1    3    3    0    0  0.34388438499E+02 -0.17127931079E+02 -0.58492533371E+03  0.58618646926E+03  0.10000000000E+01 0.  0.
         21    1    1    2  502  501  0.19813763755E+02 -0.79716810236E+01 -0.27574041657E+02  0.34877796745E+02  0.00000000000E+00 0.  1.
<mgrwt>
<rscale>  1 0.12680216E+03</rscale>
<asrwt>0</asrwt>
<pdfrwt beam="1">  1        4 0.13506558E-02 0.12680216E+03</pdfrwt>
<pdfrwt beam="2">  1       -4 0.12541422E+00 0.12680216E+03</pdfrwt>
<totfact> 0.15094121E+03</totfact>
</mgrwt>
</event>
<event>
 6    4  0.2398389E-003  0.1571964E+03  0.7818608E-02  0.1191899E+00
          4   -1    0    0  502    0  0.00000000000E+00  0.00000000000E+00  0.15861527568E+03  0.15862035991E+03  0.12700000000E+01 0.  1.
         -4   -1    0    0    0  501 -0.00000000000E+00 -0.00000000000E+00 -0.11340173304E+03  0.11340884426E+03  0.12700000000E+01 0.  1.
         25    2    1    2    0    0 -0.44840247400E+02  0.84110766316E+02 -0.17141589456E+02  0.15812823274E+03  0.12500174040E+03 0.  0.
    9000005    1    3    3    0    0  0.39828508698E+02  0.39332659283E+02 -0.26397172763E+02  0.61896517844E+02  0.10000000000E+01 0.  0.
    9000005    1    3    3    0    0 -0.84668756098E+02  0.44778107033E+02  0.92555833068E+01  0.96231714891E+02  0.10000000000E+01 0.  0.
         21    1    1    2  502  501  0.44840247400E+02 -0.84110766316E+02  0.62355132094E+02  0.11390097144E+03  0.00000000000E+00 0.  1.
<mgrwt>
<rscale>  1 0.15719639E+03</rscale>
<asrwt>0</asrwt>
<pdfrwt beam="1">  1        4 0.24403288E-01 0.15719639E+03</pdfrwt>
<pdfrwt beam="2">  1       -4 0.17447359E-01 0.15719639E+03</pdfrwt>
<totfact> 0.76952510E+02</totfact>
</mgrwt>
</event>
<event>
 6    4  0.2398389E-003  0.1290830E+03  0.7818608E-02  0.1228823E+00
         -4   -1    0    0    0  501 -0.00000000000E+00  0.00000000000E+00  0.39036290496E+02  0.39056944013E+02  0.12700000000E+01 0.  1.
          4   -1    0    0  502    0  0.00000000000E+00 -0.00000000000E+00 -0.26089870091E+03  0.26090179194E+03  0.12700000000E+01 0.  1.
         25    2    1    2    0    0 -0.14752411833E+02  0.28641773762E+02 -0.74340064952E+02  0.14895930791E+03  0.12499778116E+03 0.  0.
    9000005    1    3    3    0    0  0.44971257343E+02  0.47904794273E+02 -0.30797176111E+02  0.72572373241E+02  0.10000000000E+01 0.  0.
    9000005    1    3    3    0    0 -0.59723669176E+02 -0.19263020512E+02 -0.43542888841E+02  0.76386934666E+02  0.10000000000E+01 0.  0.
         21    1    1    2  502  501  0.14752411833E+02 -0.28641773762E+02 -0.14752234546E+03  0.15099942804E+03  0.00000000000E+00 0.  1.
<mgrwt>
<rscale>  1 0.12908304E+03</rscale>
<asrwt>0</asrwt>
<pdfrwt beam="2">  1        4 0.40140087E-01 0.12908304E+03</pdfrwt>
<pdfrwt beam="1">  1       -4 0.60074098E-02 0.12908304E+03</pdfrwt>
<totfact> 0.17417486E+03</totfact>
</mgrwt>
</event>
<event>
 6    4  0.2398389E-003  0.1281771E+03  0.7818608E-02  0.1230186E+00
         -4   -1    0    0    0  501 -0.00000000000E+00  0.00000000000E+00  0.77522246187E+03  0.77522350215E+03  0.12700000000E+01 0.  1.
          4   -1    0    0  502    0  0.00000000000E+00 -0.00000000000E+00 -0.78702137052E+01  0.79720238187E+01  0.12700000000E+01 0.  1.
         25    2    1    2    0    0 -0.27826049535E+02  0.53403038139E+01  0.61161563364E+03  0.62490244027E+03  0.12500627449E+03 0.  0.
    9000005    1    3    3    0    0 -0.28577814066E+02  0.12949604956E+02  0.30606835900E+02  0.43842469469E+02  0.10000000000E+01 0.  0.
    9000005    1    3    3    0    0  0.75176453093E+00 -0.76093011422E+01  0.58100879774E+03  0.58105997080E+03  0.10000000000E+01 0.  0.
         21    1    1    2  502  501  0.27826049535E+02 -0.53403038139E+01  0.15573661452E+03  0.15829308570E+03  0.00000000000E+00 0.  1.
<mgrwt>
<rscale>  1 0.12817713E+03</rscale>
<asrwt>0</asrwt>
<pdfrwt beam="2">  1        4 0.12187137E-02 0.12817713E+03</pdfrwt>
<pdfrwt beam="1">  1       -4 0.11927290E+00 0.12817713E+03</pdfrwt>
<totfact> 0.19959226E+03</totfact>
</mgrwt>
</event>
<event>
 6    4  0.2398389E-003  0.1276467E+03  0.7818608E-02  0.1230990E+00
         -4   -1    0    0    0  501 -0.00000000000E+00  0.00000000000E+00  0.56048753603E+03  0.56048897486E+03  0.12700000000E+01 0.  1.
          4   -1    0    0  502    0  0.00000000000E+00 -0.00000000000E+00 -0.10829059268E+02  0.10903275867E+02  0.12700000000E+01 0.  1.
         25    2    1    2    0    0  0.34108922316E+01 -0.25657375591E+02  0.49015116811E+03  0.50649960946E+03  0.12499500660E+03 0.  0.
    9000005    1    3    3    0    0  0.22797344838E+02  0.35400830903E+02  0.34845977627E+03  0.35099594504E+03  0.10000000000E+01 0.  0.
    9000005    1    3    3    0    0 -0.19386452606E+02 -0.61058206494E+02  0.14169139184E+03  0.15550366442E+03  0.10000000000E+01 0.  0.
         21    1    1    2  502  501 -0.34108922316E+01  0.25657375591E+02  0.59507308650E+02  0.64892641269E+02  0.00000000000E+00 0. -1.
<mgrwt>
<rscale>  1 0.12764673E+03</rscale>
<asrwt>0</asrwt>
<pdfrwt beam="2">  1        4 0.16718288E-02 0.12764673E+03</pdfrwt>
<pdfrwt beam="1">  1       -4 0.86234668E-01 0.12764673E+03</pdfrwt>
<totfact> 0.26119929E+03</totfact>
</mgrwt>
</event>
<event>
 6    4  0.2398389E-003  0.1404994E+03  0.7818608E-02  0.1212659E+00
          4   -1    0    0  502    0  0.00000000000E+00  0.00000000000E+00  0.87354874432E+02  0.87364105827E+02  0.12700000000E+01 0.  1.
         -4   -1    0    0    0  501 -0.00000000000E+00 -0.00000000000E+00 -0.22797538588E+03  0.22797892329E+03  0.12700000000E+01 0.  1.
         25    2    1    2    0    0 -0.30559449163E+02  0.56409351664E+02 -0.18863582831E+03  0.23520960574E+03  0.12499675205E+03 0.  0.
    9000005    1    3    3    0    0  0.22785305433E+02  0.58033212985E+02 -0.16582545017E+03  0.17716123695E+03  0.10000000000E+01 0.  0.
    9000005    1    3    3    0    0 -0.53344754596E+02 -0.16238613209E+01 -0.22810378140E+02  0.58048368792E+02  0.10000000000E+01 0.  0.
         21    1    1    2  502  501  0.30559449163E+02 -0.56409351664E+02  0.48015316867E+02  0.80133423378E+02  0.00000000000E+00 0. -1.
<mgrwt>
<rscale>  1 0.14049941E+03</rscale>
<asrwt>0</asrwt>
<pdfrwt beam="1">  1        4 0.13440194E-01 0.14049941E+03</pdfrwt>
<pdfrwt beam="2">  1       -4 0.35074118E-01 0.14049941E+03</pdfrwt>
<totfact> 0.59975188E+02</totfact>
</mgrwt>
</event>
<event>
 6    4  0.2398389E-003  0.1329399E+03  0.7818608E-02  0.1223158E+00
          4   -1    0    0  502    0  0.00000000000E+00  0.00000000000E+00  0.83266040236E+02  0.83275724894E+02  0.12700000000E+01 0.  1.
         -4   -1    0    0    0  501 -0.00000000000E+00 -0.00000000000E+00 -0.96082338768E+02  0.96090731724E+02  0.12700000000E+01 0.  1.
         25    2    1    2    0    0  0.44867527598E+02  0.59437657135E+01 -0.25855436070E+01  0.13296503714E+03  0.12499837071E+03 0.  0.
    9000005    1    3    3    0    0 -0.42228000499E+02  0.86742785084E+00 -0.15009763533E+02  0.44835805542E+02  0.10000000000E+01 0.  0.
    9000005    1    3    3    0    0  0.87095528097E+02  0.50763378627E+01  0.12424219926E+02  0.88129231594E+02  0.10000000000E+01 0.  0.
         21    1    1    2  502  501 -0.44867527598E+02 -0.59437657135E+01 -0.10230754925E+02  0.46401419482E+02  0.00000000000E+00 0.  1.
<mgrwt>
<rscale>  1 0.13293990E+03</rscale>
<asrwt>0</asrwt>
<pdfrwt beam="1">  1        4 0.12811551E-01 0.13293990E+03</pdfrwt>
<pdfrwt beam="2">  1       -4 0.14783289E-01 0.13293990E+03</pdfrwt>
<totfact> 0.31283466E+03</totfact>
</mgrwt>
</event>
<event>
 6    4  0.2398389E-003  0.1271310E+03  0.7818608E-02  0.1231776E+00
         -4   -1    0    0    0  501 -0.00000000000E+00  0.00000000000E+00  0.25373070224E+02  0.25404834040E+02  0.12700000000E+01 0. -1.
          4   -1    0    0  502    0  0.00000000000E+00 -0.00000000000E+00 -0.22847482373E+03  0.22847835341E+03  0.12700000000E+01 0. -1.
         25    2    1    2    0    0  0.22423309234E+02  0.59316580707E+01 -0.18495148692E+03  0.22443116644E+03  0.12499722634E+03 0.  0.
    9000005    1    3    3    0    0  0.51707491111E+02 -0.27166188299E+02 -0.35001257810E+02  0.68101060726E+02  0.10000000000E+01 0.  0.
    9000005    1    3    3    0    0 -0.29284181878E+02  0.33097846370E+02 -0.14995022911E+03  0.15633010572E+03  0.10000000000E+01 0.  0.
         21    1    1    2  502  501 -0.22423309234E+02 -0.59316580707E+01 -0.18150266578E+02  0.29452021006E+02  0.00000000000E+00 0. -1.
<mgrwt>
<rscale>  1 0.12713102E+03</rscale>
<asrwt>0</asrwt>
<pdfrwt beam="2">  1        4 0.35152686E-01 0.12713102E+03</pdfrwt>
<pdfrwt beam="1">  1       -4 0.39062643E-02 0.12713102E+03</pdfrwt>
<totfact> 0.44800137E+03</totfact>
</mgrwt>
</event>
<event>
 6    4  0.2398389E-003  0.1422691E+03  0.7818608E-02  0.1210308E+00
         -4   -1    0    0    0  501 -0.00000000000E+00  0.00000000000E+00  0.30737121029E+03  0.30737383398E+03  0.12700000000E+01 0.  1.
          4   -1    0    0  502    0  0.00000000000E+00 -0.00000000000E+00 -0.37410577973E+02  0.37432128503E+02  0.12700000000E+01 0.  1.
         25    2    1    2    0    0  0.64650123935E+02 -0.20865257865E+02  0.21304520942E+03  0.25618111904E+03  0.12500202793E+03 0.  0.
    9000005    1    3    3    0    0 -0.72212362046E+01 -0.58752597061E+02  0.11036504345E+03  0.12524159345E+03  0.10000000000E+01 0.  0.
    9000005    1    3    3    0    0  0.71871360140E+02  0.37887339196E+02  0.10268016596E+03  0.13093952559E+03  0.10000000000E+01 0.  0.
         21    1    1    2  502  501 -0.64650123935E+02  0.20865257865E+02  0.56915422898E+02  0.88624843437E+02  0.00000000000E+00 0.  1.
<mgrwt>
<rscale>  1 0.14226913E+03</rscale>
<asrwt>0</asrwt>
<pdfrwt beam="2">  1        4 0.57573327E-02 0.14226913E+03</pdfrwt>
<pdfrwt beam="1">  1       -4 0.47289741E-01 0.14226913E+03</pdfrwt>
<totfact> 0.13748112E+03</totfact>
</mgrwt>
</event>
<event>
 6    4  0.2398389E-003  0.1274286E+03  0.7818608E-02  0.1231322E+00
          4   -1    0    0  502    0  0.00000000000E+00  0.00000000000E+00  0.21735414481E+03  0.21735785508E+03  0.12700000000E+01 0. -1.
         -4   -1    0    0    0  501 -0.00000000000E+00 -0.00000000000E+00 -0.27721854794E+02  0.27750930312E+02  0.12700000000E+01 0. -1.
         25    2    1    2    0    0  0.94986789904E+01  0.22877933885E+02  0.17452186684E+03  0.21609241674E+03  0.12499770320E+03 0.  0.
    9000005    1    3    3    0    0  0.18220067201E+02 -0.31941384441E+02  0.42890741514E+01  0.37035375601E+02  0.10000000000E+01 0.  0.
    9000005    1    3    3    0    0 -0.87213882111E+01  0.54819318326E+02  0.17023279269E+03  0.17905704114E+03  0.10000000000E+01 0.  0.
         21    1    1    2  502  501 -0.94986789904E+01 -0.22877933885E+02  0.15110423173E+02  0.29016368654E+02  0.00000000000E+00 0.  1.
<mgrwt>
<rscale>  1 0.12742861E+03</rscale>
<asrwt>0</asrwt>
<pdfrwt beam="1">  1        4 0.33441620E-01 0.12742861E+03</pdfrwt>
<pdfrwt beam="2">  1       -4 0.42674229E-02 0.12742861E+03</pdfrwt>
<totfact> 0.42875072E+03</totfact>
</mgrwt>
</event>
<event>
 6    4  0.2398389E-003  0.1341426E+03  0.7818608E-02  0.1221435E+00
         -4   -1    0    0    0  501 -0.00000000000E+00  0.00000000000E+00  0.50376184597E+01  0.51952381798E+01  0.12700000000E+01 0.  1.
          4   -1    0    0  502    0  0.00000000000E+00 -0.00000000000E+00 -0.16577912400E+04  0.16577917264E+04  0.12700000000E+01 0.  1.
         25    2    1    2    0    0  0.42466647000E+02  0.23830053603E+02 -0.11173380287E+04  0.11253614959E+04  0.12499175394E+03 0.  0.
    9000005    1    3    3    0    0 -0.36629461509E+02 -0.11383542357E+02 -0.18065281601E+03  0.18468281571E+03  0.10000000000E+01 0.  0.
    9000005    1    3    3    0    0  0.79096108509E+02  0.35213595960E+02 -0.93668521270E+03  0.94067868022E+03  0.10000000000E+01 0.  0.
         21    1    1    2  502  501 -0.42466647000E+02 -0.23830053603E+02 -0.53541559280E+03  0.53762546868E+03  0.00000000000E+00 0.  1.
<mgrwt>
<rscale>  1 0.13414256E+03</rscale>
<asrwt>0</asrwt>
<pdfrwt beam="2">  1        4 0.25505654E+00 0.13414256E+03</pdfrwt>
<pdfrwt beam="1">  1       -4 0.78718156E-03 0.13414256E+03</pdfrwt>
<totfact> 0.48144199E+02</totfact>
</mgrwt>
</event>
<event>
 6    4  0.2398389E-003  0.1274218E+03  0.7818608E-02  0.1231332E+00
         -4   -1    0    0    0  501 -0.00000000000E+00  0.00000000000E+00  0.15857525952E+03  0.15858034504E+03  0.12700000000E+01 0.  1.
          4   -1    0    0  502    0  0.00000000000E+00 -0.00000000000E+00 -0.38114734409E+02  0.38135887023E+02  0.12700000000E+01 0.  1.
         25    2    1    2    0    0 -0.83761372093E+01  0.23229199568E+02  0.11451253239E+03  0.17131674379E+03  0.12500620481E+03 0.  0.
    9000005    1    3    3    0    0 -0.36518338100E+02 -0.38552153486E+02  0.24294815778E+02  0.58404585691E+02  0.10000000000E+01 0.  0.
    9000005    1    3    3    0    0  0.28142200891E+02  0.61781353054E+02  0.90217716610E+02  0.11291215810E+03  0.10000000000E+01 0.  0.
         21    1    1    2  502  501  0.83761372093E+01 -0.23229199568E+02  0.59479927276E+01  0.25399488275E+02  0.00000000000E+00 0.  1.
<mgrwt>
<rscale>  1 0.12742177E+03</rscale>
<asrwt>0</asrwt>
<pdfrwt beam="2">  1        4 0.58658236E-02 0.12742177E+03</pdfrwt>
<pdfrwt beam="1">  1       -4 0.24398212E-01 0.12742177E+03</pdfrwt>
<totfact> 0.46469879E+03</totfact>
</mgrwt>
</event>
<event>
 6    4  0.2398389E-003  0.1283420E+03  0.7818608E-02  0.1229937E+00
          4   -1    0    0  502    0  0.00000000000E+00  0.00000000000E+00  0.25328631983E+03  0.25328950375E+03  0.12700000000E+01 0. -1.
         -4   -1    0    0    0  501 -0.00000000000E+00 -0.00000000000E+00 -0.25910490556E+02  0.25941596343E+02  0.12700000000E+01 0. -1.
         25    2    1    2    0    0 -0.15104020134E+02  0.24876008196E+02  0.15509190073E+03  0.20130861597E+03  0.12499885592E+03 0.  0.
    9000005    1    3    3    0    0  0.10956452867E+02 -0.24650599423E+02 -0.85840871981E+01  0.28326356355E+02  0.10000000000E+01 0.  0.
    9000005    1    3    3    0    0 -0.26060473001E+02  0.49526607619E+02  0.16367598793E+03  0.17298225961E+03  0.10000000000E+01 0.  0.
         21    1    1    2  502  501  0.15104020134E+02 -0.24876008196E+02  0.72283928538E+02  0.77922484129E+02  0.00000000000E+00 0. -1.
<mgrwt>
<rscale>  1 0.12834197E+03</rscale>
<asrwt>0</asrwt>
<pdfrwt beam="1">  1        4 0.38969764E-01 0.12834197E+03</pdfrwt>
<pdfrwt beam="2">  1       -4 0.39888669E-02 0.12834197E+03</pdfrwt>
<totfact> 0.35555505E+03</totfact>
</mgrwt>
</event>
<event>
 6    4  0.2398389E-003  0.1268850E+03  0.7818608E-02  0.1232152E+00
          4   -1    0    0  502    0  0.00000000000E+00  0.00000000000E+00  0.14586378750E+02  0.14641562247E+02  0.12700000000E+01 0. -1.
         -4   -1    0    0    0  501 -0.00000000000E+00 -0.00000000000E+00 -0.42542333565E+03  0.42542523128E+03  0.12700000000E+01 0. -1.
         25    2    1    2    0    0  0.45000722322E+00 -0.21788215431E+02 -0.38918397950E+03  0.40934578657E+03  0.12499949700E+03 0.  0.
    9000005    1    3    3    0    0 -0.47635308886E+02  0.27074813580E+02 -0.12647090496E+03  0.13783344291E+03  0.10000000000E+01 0.  0.
    9000005    1    3    3    0    0  0.48085316109E+02 -0.48863029011E+02 -0.26271307454E+03  0.27151234367E+03  0.10000000000E+01 0.  0.
         21    1    1    2  502  501 -0.45000722322E+00  0.21788215431E+02 -0.21652977400E+02  0.30721006957E+02  0.00000000000E+00 0. -1.
<mgrwt>
<rscale>  1 0.12688500E+03</rscale>
<asrwt>0</asrwt>
<pdfrwt beam="1">  1        4 0.22484493E-02 0.12688500E+03</pdfrwt>
<pdfrwt beam="2">  1       -4 0.65454125E-01 0.12688500E+03</pdfrwt>
<totfact> 0.30196470E+03</totfact>
</mgrwt>
</event>
<event>
 6    4  0.2398389E-003  0.1332415E+03  0.7818608E-02  0.1222724E+00
         -4   -1    0    0    0  501 -0.00000000000E+00  0.00000000000E+00  0.35862961840E+03  0.35863186710E+03  0.12700000000E+01 0.  1.
          4   -1    0    0  502    0  0.00000000000E+00 -0.00000000000E+00 -0.22477180863E+02  0.22513030883E+02  0.12700000000E+01 0.  1.
         25    2    1    2    0    0 -0.40139824131E+01 -0.45955557035E+02  0.24023701663E+03  0.27471279171E+03  0.12500107396E+03 0.  0.
    9000005    1    3    3    0    0  0.11037973258E+02 -0.15144932444E+01  0.22513288610E+03  0.22541061854E+03  0.10000000000E+01 0.  0.
    9000005    1    3    3    0    0 -0.15051955671E+02 -0.44441063791E+02  0.15104130528E+02  0.49302173171E+02  0.10000000000E+01 0.  0.
         21    1    1    2  502  501  0.40139824131E+01  0.45955557035E+02  0.95915420909E+02  0.10643210627E+03  0.00000000000E+00 0.  1.
<mgrwt>
<rscale>  1 0.13324149E+03</rscale>
<asrwt>0</asrwt>
<pdfrwt beam="2">  1        4 0.34609587E-02 0.13324149E+03</pdfrwt>
<pdfrwt beam="1">  1       -4 0.55176714E-01 0.13324149E+03</pdfrwt>
<totfact> 0.22304350E+03</totfact>
</mgrwt>
</event>
<event>
 6    4  0.2398389E-003  0.1290479E+03  0.7818608E-02  0.1228875E+00
          4   -1    0    0  502    0  0.00000000000E+00  0.00000000000E+00  0.18466961907E+03  0.18467398601E+03  0.12700000000E+01 0. -1.
         -4   -1    0    0    0  501 -0.00000000000E+00 -0.00000000000E+00 -0.40755039608E+02  0.40774822543E+02  0.12700000000E+01 0. -1.
         25    2    1    2    0    0 -0.25167712393E+02  0.19876399414E+02  0.74560876203E+02  0.14903924661E+03  0.12499955107E+03 0.  0.
    9000005    1    3    3    0    0  0.48174779504E+02  0.17117156145E+02  0.11833932437E+02  0.52486649461E+02  0.10000000000E+01 0.  0.
    9000005    1    3    3    0    0 -0.73342491897E+02  0.27592432697E+01  0.62726943766E+02  0.96552597144E+02  0.10000000000E+01 0.  0.
         21    1    1    2  502  501  0.25167712393E+02 -0.19876399414E+02  0.69353703263E+02  0.76409561948E+02  0.00000000000E+00 0. -1.
<mgrwt>
<rscale>  1 0.12904795E+03</rscale>
<asrwt>0</asrwt>
<pdfrwt beam="1">  1        4 0.28412568E-01 0.12904795E+03</pdfrwt>
<pdfrwt beam="2">  1       -4 0.62718638E-02 0.12904795E+03</pdfrwt>
<totfact> 0.31516228E+03</totfact>
</mgrwt>
</event>
<event>
 6    4  0.2398389E-003  0.1306633E+03  0.7818608E-02  0.1226475E+00
         -4   -1    0    0    0  501 -0.00000000000E+00  0.00000000000E+00  0.12708944420E+03  0.12709578957E+03  0.12700000000E+01 0. -1.
          4   -1    0    0  502    0  0.00000000000E+00 -0.00000000000E+00 -0.58648575379E+02  0.58662324314E+02  0.12700000000E+01 0. -1.
         25    2    1    2    0    0  0.65076231156E+01  0.37492345915E+02  0.68870940998E+02  0.14770275785E+03  0.12499949201E+03 0.  0.
    9000005    1    3    3    0    0 -0.42626176708E+02  0.61286778081E+02  0.29002033803E+02  0.80094806779E+02  0.10000000000E+01 0.  0.
    9000005    1    3    3    0    0  0.49133799824E+02 -0.23794432166E+02  0.39868907195E+02  0.67607951072E+02  0.10000000000E+01 0.  0.
         21    1    1    2  502  501 -0.65076231156E+01 -0.37492345915E+02 -0.43007217852E+00  0.38055356035E+02  0.00000000000E+00 0. -1.
<mgrwt>
<rscale>  1 0.13066330E+03</rscale>
<asrwt>0</asrwt>
<pdfrwt beam="2">  1        4 0.90244035E-02 0.13066330E+03</pdfrwt>
<pdfrwt beam="1">  1       -4 0.19553768E-01 0.13066330E+03</pdfrwt>
<totfact> 0.34410815E+03</totfact>
</mgrwt>
</event>
<event>
 6    4  0.2398389E-003  0.1269494E+03  0.7818608E-02  0.1232054E+00
          4   -1    0    0  502    0  0.00000000000E+00  0.00000000000E+00  0.63943840111E+02  0.63956450716E+02  0.12700000000E+01 0. -1.
         -4   -1    0    0    0  501 -0.00000000000E+00 -0.00000000000E+00 -0.10053418358E+03  0.10054220491E+03  0.12700000000E+01 0. -1.
         25    2    1    2    0    0 -0.42355008875E+01  0.21710832567E+02 -0.52369769390E+02  0.13732716319E+03  0.12500742892E+03 0.  0.
    9000005    1    3    3    0    0 -0.87008924695E+01  0.73967326897E+02 -0.31530005829E+02  0.80882706715E+02  0.10000000000E+01 0.  0.
    9000005    1    3    3    0    0  0.44653915820E+01 -0.52256494330E+02 -0.20839763561E+02  0.56444456476E+02  0.10000000000E+01 0.  0.
         21    1    1    2  502  501  0.42355008875E+01 -0.21710832567E+02  0.15779425923E+02  0.27171492432E+02  0.00000000000E+00 0.  1.
<mgrwt>
<rscale>  1 0.12694943E+03</rscale>
<asrwt>0</asrwt>
<pdfrwt beam="1">  1        4 0.98391009E-02 0.12694943E+03</pdfrwt>
<pdfrwt beam="2">  1       -4 0.15468385E-01 0.12694943E+03</pdfrwt>
<totfact> 0.44761440E+03</totfact>
</mgrwt>
</event>
<event>
 6    4  0.2398389E-003  0.1270196E+03  0.7818608E-02  0.1231946E+00
          4   -1    0    0  502    0  0.00000000000E+00  0.00000000000E+00  0.33105856319E+03  0.33106099916E+03  0.12700000000E+01 0.  1.
         -4   -1    0    0    0  501 -0.00000000000E+00 -0.00000000000E+00 -0.39759152489E+02  0.39779430698E+02  0.12700000000E+01 0.  1.
         25    2    1    2    0    0 -0.19654824182E+02 -0.11058659318E+02  0.63647010417E+02  0.14207368967E+03  0.12500154120E+03 0.  0.
    9000005    1    3    3    0    0 -0.10356985159E+02 -0.11151868444E+02  0.10172603283E+03  0.10286309867E+03  0.10000000000E+01 0.  0.
    9000005    1    3    3    0    0 -0.92978390229E+01  0.93209125867E-01 -0.38079022417E+02  0.39210591001E+02  0.10000000000E+01 0.  0.
         21    1    1    2  502  501  0.19654824182E+02  0.11058659318E+02  0.22765240028E+03  0.22876674019E+03  0.00000000000E+00 0.  1.
<mgrwt>
<rscale>  1 0.12701965E+03</rscale>
<asrwt>0</asrwt>
<pdfrwt beam="1">  1        4 0.50933833E-01 0.12701965E+03</pdfrwt>
<pdfrwt beam="2">  1       -4 0.61185400E-02 0.12701965E+03</pdfrwt>
<totfact> 0.10455611E+03</totfact>
</mgrwt>
</event>
<event>
 6    4  0.2398389E-003  0.1378611E+03  0.7818608E-02  0.1216236E+00
         -4   -1    0    0    0  501 -0.00000000000E+00  0.00000000000E+00  0.53723888882E+03  0.53724038992E+03  0.12700000000E+01 0. -1.
          4   -1    0    0  502    0  0.00000000000E+00 -0.00000000000E+00 -0.20399135526E+02  0.20438630830E+02  0.12700000000E+01 0. -1.
         25    2    1    2    0    0 -0.57937189616E+02  0.48062988130E+01  0.25942034548E+03  0.29377644409E+03  0.12500345997E+03 0.  0.
    9000005    1    3    3    0    0 -0.27786331734E+02 -0.57139032646E+02  0.16560411080E+03  0.17737719920E+03  0.10000000000E+01 0.  0.
    9000005    1    3    3    0    0 -0.30150857882E+02  0.61945331460E+02  0.93816234686E+02  0.11639924489E+03  0.10000000000E+01 0.  0.
         21    1    1    2  502  501  0.57937189616E+02 -0.48062988130E+01  0.25741940782E+03  0.26390257666E+03  0.00000000000E+00 0. -1.
<mgrwt>
<rscale>  1 0.13786110E+03</rscale>
<asrwt>0</asrwt>
<pdfrwt beam="2">  1        4 0.31414823E-02 0.13786110E+03</pdfrwt>
<pdfrwt beam="1">  1       -4 0.82655285E-01 0.13786110E+03</pdfrwt>
<totfact> 0.10997242E+03</totfact>
</mgrwt>
</event>
<event>
 6    4  0.2398389E-003  0.1282301E+03  0.7818608E-02  0.1230106E+00
         -4   -1    0    0    0  501 -0.00000000000E+00  0.00000000000E+00  0.15187159799E+04  0.15187165109E+04  0.12700000000E+01 0.  1.
          4   -1    0    0  502    0  0.00000000000E+00 -0.00000000000E+00 -0.70450795348E+01  0.71586343426E+01  0.12700000000E+01 0.  1.
         25    2    1    2    0    0 -0.13649347950E+02 -0.25138396697E+02  0.14684968003E+04  0.14740847349E+04  0.12499883794E+03 0.  0.
    9000005    1    3    3    0    0  0.93735425763E+01 -0.73279332145E+02  0.76127123361E+03  0.76484809926E+03  0.10000000000E+01 0.  0.
    9000005    1    3    3    0    0 -0.23022890526E+02  0.48140935448E+02  0.70722556666E+03  0.70923663561E+03  0.10000000000E+01 0.  0.
         21    1    1    2  502  501  0.13649347950E+02  0.25138396697E+02  0.43174100075E+02  0.51790410360E+02  0.00000000000E+00 0.  1.
<mgrwt>
<rscale>  1 0.12823008E+03</rscale>
<asrwt>0</asrwt>
<pdfrwt beam="2">  1        4 0.10926332E-02 0.12823008E+03</pdfrwt>
<pdfrwt beam="1">  1       -4 0.23365761E+00 0.12823008E+03</pdfrwt>
<totfact> 0.38855233E+02</totfact>
</mgrwt>
</event>
<event>
 6    4  0.2398389E-003  0.1268049E+03  0.7818608E-02  0.1232275E+00
          4   -1    0    0  502    0  0.00000000000E+00  0.00000000000E+00  0.23077750547E+04  0.23077754041E+04  0.12700000000E+01 0. -1.
         -4   -1    0    0    0  501 -0.00000000000E+00 -0.00000000000E+00 -0.34238510010E+01  0.36518017029E+01  0.12700000000E+01 0. -1.
         25    2    1    2    0    0  0.14443748849E+02  0.15676316871E+02  0.11657248377E+04  0.11726013323E+04  0.12500047450E+03 0.  0.
    9000005    1    3    3    0    0  0.68129999386E+02  0.17656154692E+02  0.77677533642E+03  0.77995792187E+03  0.10000000000E+01 0.  0.
    9000005    1    3    3    0    0 -0.53686250538E+02 -0.19798378209E+01  0.38894950124E+03  0.39264341045E+03  0.10000000000E+01 0.  0.
         21    1    1    2  502  501 -0.14443748849E+02 -0.15676316871E+02  0.11386263660E+04  0.11388258735E+04  0.00000000000E+00 0.  1.
<mgrwt>
<rscale>  1 0.12680492E+03</rscale>
<asrwt>0</asrwt>
<pdfrwt beam="1">  1        4 0.35506045E+00 0.12680492E+03</pdfrwt>
<pdfrwt beam="2">  1       -4 0.54430698E-03 0.12680492E+03</pdfrwt>
<totfact> 0.21544637E+02</totfact>
</mgrwt>
</event>
<event>
 6    4  0.2398389E-003  0.1278926E+03  0.7818608E-02  0.1230617E+00
         -4   -1    0    0    0  501 -0.00000000000E+00  0.00000000000E+00  0.16171036323E+03  0.16171535015E+03  0.12700000000E+01 0.  1.
          4   -1    0    0  502    0  0.00000000000E+00 -0.00000000000E+00 -0.43389479296E+02  0.43408061620E+02  0.12700000000E+01 0.  1.
         25    2    1    2    0    0  0.26705076664E+02 -0.43058062610E+01  0.12326491407E+03  0.17762532963E+03  0.12499927039E+03 0.  0.
    9000005    1    3    3    0    0  0.72777995422E+02 -0.62494682452E+01  0.10522647105E+03  0.12809880047E+03  0.10000000000E+01 0.  0.
    9000005    1    3    3    0    0 -0.46072918758E+02  0.19436619842E+01  0.18038443022E+02  0.49526529168E+02  0.10000000000E+01 0.  0.
         21    1    1    2  502  501 -0.26705076664E+02  0.43058062610E+01 -0.49440301435E+01  0.27498082137E+02  0.00000000000E+00 0.  1.
<mgrwt>
<rscale>  1 0.12789261E+03</rscale>
<asrwt>0</asrwt>
<pdfrwt beam="2">  1        4 0.66771174E-02 0.12789261E+03</pdfrwt>
<pdfrwt beam="1">  1       -4 0.24880331E-01 0.12789261E+03</pdfrwt>
<totfact> 0.36338241E+03</totfact>
</mgrwt>
</event>
<event>
 6    4  0.2398389E-003  0.1269247E+03  0.7818608E-02  0.1232092E+00
          4   -1    0    0  502    0  0.00000000000E+00  0.00000000000E+00  0.53258139257E+02  0.53273279391E+02  0.12700000000E+01 0.  1.
         -4   -1    0    0    0  501 -0.00000000000E+00 -0.00000000000E+00 -0.11679454370E+03  0.11680144836E+03  0.12700000000E+01 0.  1.
         25    2    1    2    0    0 -0.20965631583E+02  0.66332880233E+01 -0.72678369717E+02  0.14626015770E+03  0.12500532024E+03 0.  0.
    9000005    1    3    3    0    0 -0.13141614326E+01  0.31462913806E+02 -0.99737946636E+02  0.10459588885E+03  0.10000000000E+01 0.  0.
    9000005    1    3    3    0    0 -0.19651470151E+02 -0.24829625782E+02  0.27059576919E+02  0.41664268848E+02  0.10000000000E+01 0.  0.
         21    1    1    2  502  501  0.20965631583E+02 -0.66332880233E+01  0.91419652715E+01  0.23814570051E+02  0.00000000000E+00 0.  1.
<mgrwt>
<rscale>  1 0.12692473E+03</rscale>
<asrwt>0</asrwt>
<pdfrwt beam="1">  1        4 0.81952556E-02 0.12692473E+03</pdfrwt>
<pdfrwt beam="2">  1       -4 0.17970087E-01 0.12692473E+03</pdfrwt>
<totfact> 0.46628335E+03</totfact>
</mgrwt>
</event>
<event>
 6    4  0.2398389E-003  0.1313076E+03  0.7818608E-02  0.1225528E+00
         -4   -1    0    0    0  501 -0.00000000000E+00  0.00000000000E+00  0.71458513088E+02  0.71469797766E+02  0.12700000000E+01 0. -1.
          4   -1    0    0  502    0  0.00000000000E+00 -0.00000000000E+00 -0.21819822112E+03  0.21820191704E+03  0.12700000000E+01 0. -1.
         25    2    1    2    0    0 -0.30444396285E+02 -0.26265821332E+02  0.62796835459E+01  0.13145765464E+03  0.12499970361E+03 0.  0.
    9000005    1    3    3    0    0  0.17585507382E+02  0.70764072334E+01 -0.48033662442E+02  0.51648410786E+02  0.10000000000E+01 0.  0.
    9000005    1    3    3    0    0 -0.48029903667E+02 -0.33342228566E+02  0.54313345987E+02  0.79809243853E+02  0.10000000000E+01 0.  0.
         21    1    1    2  502  501  0.30444396285E+02  0.26265821332E+02 -0.15301939157E+03  0.15821406016E+03  0.00000000000E+00 0. -1.
<mgrwt>
<rscale>  1 0.13130758E+03</rscale>
<asrwt>0</asrwt>
<pdfrwt beam="2">  1        4 0.33570109E-01 0.13130758E+03</pdfrwt>
<pdfrwt beam="1">  1       -4 0.10994770E-01 0.13130758E+03</pdfrwt>
<totfact> 0.90799534E+02</totfact>
</mgrwt>
</event>
<event>
 6    4  0.2398389E-003  0.1341182E+03  0.7818608E-02  0.1221470E+00
          4   -1    0    0  502    0  0.00000000000E+00  0.00000000000E+00  0.50964667635E+03  0.50964825872E+03  0.12700000000E+01 0.  1.
         -4   -1    0    0    0  501 -0.00000000000E+00 -0.00000000000E+00 -0.20034132412E+02  0.20074345855E+02  0.12700000000E+01 0.  1.
         25    2    1    2    0    0  0.23397878277E+02  0.42612440157E+02  0.23559737657E+03  0.27109742015E+03  0.12499762639E+03 0.  0.
    9000005    1    3    3    0    0 -0.17489875228E+02  0.73993099721E+02  0.17933150591E+03  0.19478619959E+03  0.10000000000E+01 0.  0.
    9000005    1    3    3    0    0  0.40887753506E+02 -0.31380659564E+02  0.56265870663E+02  0.76311220557E+02  0.10000000000E+01 0.  0.
         21    1    1    2  502  501 -0.23397878277E+02 -0.42612440157E+02  0.25401516737E+03  0.25862518442E+03  0.00000000000E+00 0.  1.
<mgrwt>
<rscale>  1 0.13411818E+03</rscale>
<asrwt>0</asrwt>
<pdfrwt beam="1">  1        4 0.78410388E-01 0.13411818E+03</pdfrwt>
<pdfrwt beam="2">  1       -4 0.30853896E-02 0.13411818E+03</pdfrwt>
<totfact> 0.12640249E+03</totfact>
</mgrwt>
</event>
<event>
 6    4  0.2398389E-003  0.1267221E+03  0.7818608E-02  0.1232402E+00
          4   -1    0    0  502    0  0.00000000000E+00  0.00000000000E+00  0.20722845551E+03  0.20723234707E+03  0.12700000000E+01 0. -1.
         -4   -1    0    0    0  501 -0.00000000000E+00 -0.00000000000E+00 -0.26819478012E+02  0.26849530738E+02  0.12700000000E+01 0. -1.
         25    2    1    2    0    0 -0.18124323342E+02  0.10222537636E+02  0.14143517974E+03  0.18990101901E+03  0.12500198231E+03 0.  0.
    9000005    1    3    3    0    0 -0.34876288041E+02 -0.19795422768E+02  0.14932302921E+03  0.15461753226E+03  0.10000000000E+01 0.  0.
    9000005    1    3    3    0    0  0.16751964700E+02  0.30017960404E+02 -0.78878494699E+01  0.35283486752E+02  0.10000000000E+01 0.  0.
         21    1    1    2  502  501  0.18124323342E+02 -0.10222537636E+02  0.38973797760E+02  0.44180858798E+02  0.00000000000E+00 0.  1.
<mgrwt>
<rscale>  1 0.12672209E+03</rscale>
<asrwt>0</asrwt>
<pdfrwt beam="1">  1        4 0.31883913E-01 0.12672209E+03</pdfrwt>
<pdfrwt beam="2">  1       -4 0.41286845E-02 0.12672209E+03</pdfrwt>
<totfact> 0.49427347E+03</totfact>
</mgrwt>
</event>
<event>
 6    4  0.2398389E-003  0.1273672E+03  0.7818608E-02  0.1231415E+00
          4   -1    0    0  502    0  0.00000000000E+00  0.00000000000E+00  0.26605011542E+03  0.26605314660E+03  0.12700000000E+01 0.  1.
         -4   -1    0    0    0  501 -0.00000000000E+00 -0.00000000000E+00 -0.22097839854E+02  0.22134304285E+02  0.12700000000E+01 0.  1.
         25    2    1    2    0    0  0.14626990735E+02  0.19595947367E+02  0.21835651118E+03  0.25278839488E+03  0.12499782639E+03 0.  0.
    9000005    1    3    3    0    0 -0.45060598300E+02 -0.28684085974E+01  0.30754273180E+02  0.54639826189E+02  0.10000000000E+01 0.  0.
    9000005    1    3    3    0    0  0.59687589035E+02  0.22464355964E+02  0.18760223800E+03  0.19814856870E+03  0.10000000000E+01 0.  0.
         21    1    1    2  502  501 -0.14626990735E+02 -0.19595947367E+02  0.25595764388E+02  0.35399056001E+02  0.00000000000E+00 0.  1.
<mgrwt>
<rscale>  1 0.12736721E+03</rscale>
<asrwt>0</asrwt>
<pdfrwt beam="1">  1        4 0.40933826E-01 0.12736721E+03</pdfrwt>
<pdfrwt beam="2">  1       -4 0.34027057E-02 0.12736721E+03</pdfrwt>
<totfact> 0.41416758E+03</totfact>
</mgrwt>
</event>
<event>
 6    4  0.2398389E-003  0.1336018E+03  0.7818608E-02  0.1222207E+00
          4   -1    0    0  502    0  0.00000000000E+00  0.00000000000E+00  0.55922760404E+02  0.55937179328E+02  0.12700000000E+01 0. -1.
         -4   -1    0    0    0  501 -0.00000000000E+00 -0.00000000000E+00 -0.16040053378E+03  0.16040556143E+03  0.12700000000E+01 0. -1.
         25    2    1    2    0    0 -0.44803903405E+02  0.14712064176E+02 -0.10379066976E+03  0.16918018459E+03  0.12500238852E+03 0.  0.
    9000005    1    3    3    0    0  0.33104658017E+02 -0.27878901897E+02 -0.46360627789E+02  0.63430744615E+02  0.10000000000E+01 0.  0.
    9000005    1    3    3    0    0 -0.77908561422E+02  0.42590966072E+02 -0.57430041975E+02  0.10574943998E+03  0.10000000000E+01 0.  0.
         21    1    1    2  502  501  0.44803903405E+02 -0.14712064176E+02 -0.68710361129E+00  0.47162556165E+02  0.00000000000E+00 0. -1.
<mgrwt>
<rscale>  1 0.13360177E+03</rscale>
<asrwt>0</asrwt>
<pdfrwt beam="1">  1        4 0.86049976E-02 0.13360177E+03</pdfrwt>
<pdfrwt beam="2">  1       -4 0.24678501E-01 0.13360177E+03</pdfrwt>
<totfact> 0.24531288E+03</totfact>
</mgrwt>
</event>
<event>
 6    4  0.2398389E-003  0.1360163E+03  0.7818608E-02  0.1218792E+00
         -4   -1    0    0    0  501 -0.00000000000E+00  0.00000000000E+00  0.35403476154E+03  0.35403703942E+03  0.12700000000E+01 0.  1.
          4   -1    0    0  502    0  0.00000000000E+00 -0.00000000000E+00 -0.25969480254E+02  0.26000515469E+02  0.12700000000E+01 0.  1.
         25    2    1    2    0    0 -0.35279732906E+02  0.40378987691E+02  0.25959867666E+03  0.29307320501E+03  0.12500123347E+03 0.  0.
    9000005    1    3    3    0    0  0.34693172886E+02  0.46998446858E+02  0.71904954119E+02  0.92648759727E+02  0.10000000000E+01 0.  0.
    9000005    1    3    3    0    0 -0.69972905792E+02 -0.66194591672E+01  0.18769372254E+03  0.20042444528E+03  0.10000000000E+01 0.  0.
         21    1    1    2  502  501  0.35279732906E+02 -0.40378987691E+02  0.68466604632E+02  0.86964349884E+02  0.00000000000E+00 0.  1.
<mgrwt>
<rscale>  1 0.13601629E+03</rscale>
<asrwt>0</asrwt>
<pdfrwt beam="2">  1        4 0.39978675E-02 0.13601629E+03</pdfrwt>
<pdfrwt beam="1">  1       -4 0.54469445E-01 0.13601629E+03</pdfrwt>
<totfact> 0.18317007E+03</totfact>
</mgrwt>
</event>
<event>
 6    4  0.2398389E-003  0.1274456E+03  0.7818608E-02  0.1231296E+00
          4   -1    0    0  502    0  0.00000000000E+00  0.00000000000E+00  0.74264244944E+02  0.74275103346E+02  0.12700000000E+01 0. -1.
         -4   -1    0    0    0  501 -0.00000000000E+00 -0.00000000000E+00 -0.11462346741E+03  0.11463050284E+03  0.12700000000E+01 0. -1.
         25    2    1    2    0    0  0.18148364915E+02 -0.16953320326E+02 -0.73784890194E+02  0.14726363838E+03  0.12500236378E+03 0.  0.
    9000005    1    3    3    0    0  0.41720166227E+02 -0.45462842522E+02 -0.88118171694E+02  0.10757906164E+03  0.10000000000E+01 0.  0.
    9000005    1    3    3    0    0 -0.23571801311E+02  0.28509522196E+02  0.14333281500E+02  0.39684576746E+02  0.10000000000E+01 0.  0.
         21    1    1    2  502  501 -0.18148364915E+02  0.16953320326E+02  0.33425667729E+02  0.41641967801E+02  0.00000000000E+00 0. -1.
<mgrwt>
<rscale>  1 0.12744555E+03</rscale>
<asrwt>0</asrwt>
<pdfrwt beam="1">  1        4 0.11426645E-01 0.12744555E+03</pdfrwt>
<pdfrwt beam="2">  1       -4 0.17635756E-01 0.12744555E+03</pdfrwt>
<totfact> 0.27621554E+03</totfact>
</mgrwt>
</event>
<event>
 6    4  0.2398389E-003  0.1572759E+03  0.7818608E-02  0.1191807E+00
          4   -1    0    0  502    0  0.00000000000E+00  0.00000000000E+00  0.59004273062E+03  0.59004409738E+03  0.12700000000E+01 0. -1.
         -4   -1    0    0    0  501 -0.00000000000E+00 -0.00000000000E+00 -0.41279025088E+02  0.41298557024E+02  0.12700000000E+01 0. -1.
         25    2    1    2    0    0 -0.87285364064E+02  0.38627506743E+02  0.13673974567E+03  0.20840700616E+03  0.12499961246E+03 0.  0.
    9000005    1    3    3    0    0 -0.10184713265E+03  0.11820011764E+02  0.45464282011E+02  0.11216306008E+03  0.10000000000E+01 0.  0.
    9000005    1    3    3    0    0  0.14561768588E+02  0.26807494979E+02  0.91275463659E+02  0.96243946083E+02  0.10000000000E+01 0.  0.
         21    1    1    2  502  501  0.87285364064E+02 -0.38627506743E+02  0.41202395986E+03  0.42293564824E+03  0.00000000000E+00 0. -1.
<mgrwt>
<rscale>  1 0.15727594E+03</rscale>
<asrwt>0</asrwt>
<pdfrwt beam="1">  1        4 0.90777414E-01 0.15727594E+03</pdfrwt>
<pdfrwt beam="2">  1       -4 0.63522267E-02 0.15727594E+03</pdfrwt>
<totfact> 0.29584287E+02</totfact>
</mgrwt>
</event>
<event>
 6    4  0.2398389E-003  0.1364424E+03  0.7818608E-02  0.1218198E+00
          4   -1    0    0  502    0  0.00000000000E+00  0.00000000000E+00  0.67713808063E+02  0.67725716699E+02  0.12700000000E+01 0. -1.
         -4   -1    0    0    0  501 -0.00000000000E+00 -0.00000000000E+00 -0.16545788485E+03  0.16546275882E+03  0.12700000000E+01 0. -1.
         25    2    1    2    0    0  0.22288342574E+02  0.49945569341E+02 -0.11216277710E+03  0.17662674791E+03  0.12500075760E+03 0.  0.
    9000005    1    3    3    0    0  0.88934473966E+01  0.52060697433E+02 -0.13781581437E+03  0.14759271091E+03  0.10000000000E+01 0.  0.
    9000005    1    3    3    0    0  0.13394895177E+02 -0.21151280918E+01  0.25653037270E+02  0.29034037005E+02  0.10000000000E+01 0.  0.
         21    1    1    2  502  501 -0.22288342574E+02 -0.49945569341E+02  0.14418700314E+02  0.56561727610E+02  0.00000000000E+00 0. -1.
<mgrwt>
<rscale>  1 0.13644237E+03</rscale>
<asrwt>0</asrwt>
<pdfrwt beam="1">  1        4 0.10418800E-01 0.13644237E+03</pdfrwt>
<pdfrwt beam="2">  1       -4 0.25456350E-01 0.13644237E+03</pdfrwt>
<totfact> 0.16884733E+03</totfact>
</mgrwt>
</event>
<event>
 6    4  0.2398389E-003  0.1271606E+03  0.7818608E-02  0.1231731E+00
          4   -1    0    0  502    0  0.00000000000E+00  0.00000000000E+00  0.40623082150E+02  0.40642929316E+02  0.12700000000E+01 0.  1.
         -4   -1    0    0    0  501 -0.00000000000E+00 -0.00000000000E+00 -0.13959008725E+03  0.13959586440E+03  0.12700000000E+01 0.  1.
         25    2    1    2    0    0 -0.10696383189E+02  0.20707124148E+02 -0.86660425416E+02  0.15388258938E+03  0.12500649733E+03 0.  0.
    9000005    1    3    3    0    0  0.92703962860E+01 -0.41405297258E+02  0.35017478050E+01  0.42586396020E+02  0.10000000000E+01 0.  0.
    9000005    1    3    3    0    0 -0.19966779475E+02  0.62112421406E+02 -0.90162173221E+02  0.11129619336E+03  0.10000000000E+01 0.  0.
         21    1    1    2  502  501  0.10696383189E+02 -0.20707124148E+02 -0.12306579682E+02  0.26356204341E+02  0.00000000000E+00 0.  1.
<mgrwt>
<rscale>  1 0.12716061E+03</rscale>
<asrwt>0</asrwt>
<pdfrwt beam="1">  1        4 0.62516761E-02 0.12716061E+03</pdfrwt>
<pdfrwt beam="2">  1       -4 0.21477369E-01 0.12716061E+03</pdfrwt>
<totfact> 0.52850484E+03</totfact>
</mgrwt>
</event>
<event>
 6    4  0.2398389E-003  0.1283961E+03  0.7818608E-02  0.1229855E+00
         -4   -1    0    0    0  501 -0.00000000000E+00  0.00000000000E+00  0.18524066707E+03  0.18524502054E+03  0.12700000000E+01 0. -1.
          4   -1    0    0  502    0  0.00000000000E+00 -0.00000000000E+00 -0.85990623615E+02  0.86000001451E+02  0.12700000000E+01 0. -1.
         25    2    1    2    0    0  0.19206876871E+02 -0.22168800108E+02  0.15918792547E+03  0.20451489748E+03  0.12500075143E+03 0.  0.
    9000005    1    3    3    0    0  0.15460978171E+02  0.49459980943E+02  0.40265098791E+02  0.65632383330E+02  0.10000000000E+01 0.  0.
    9000005    1    3    3    0    0  0.37458986999E+01 -0.71628781050E+02  0.11892282668E+03  0.13888251415E+03  0.10000000000E+01 0.  0.
         21    1    1    2  502  501 -0.19206876871E+02  0.22168800108E+02 -0.59937882015E+02  0.66730124515E+02  0.00000000000E+00 0. -1.
<mgrwt>
<rscale>  1 0.12839606E+03</rscale>
<asrwt>0</asrwt>
<pdfrwt beam="2">  1        4 0.13230383E-01 0.12839606E+03</pdfrwt>
<pdfrwt beam="1">  1       -4 0.28499620E-01 0.12839606E+03</pdfrwt>
<totfact> 0.89821034E+02</totfact>
</mgrwt>
</event>
<event>
 6    4  0.2398389E-003  0.1326987E+03  0.7818608E-02  0.1223505E+00
          4   -1    0    0  502    0  0.00000000000E+00  0.00000000000E+00  0.29705455885E+03  0.29705727366E+03  0.12700000000E+01 0. -1.
         -4   -1    0    0    0  501 -0.00000000000E+00 -0.00000000000E+00 -0.28820788258E+02  0.28848756226E+02  0.12700000000E+01 0. -1.
         25    2    1    2    0    0  0.15102114529E+02  0.41937129200E+02  0.15400753803E+03  0.20329106802E+03  0.12498855906E+03 0.  0.
    9000005    1    3    3    0    0  0.18393734112E+02  0.78777717459E+02  0.55624271502E+02  0.98180027515E+02  0.10000000000E+01 0.  0.
    9000005    1    3    3    0    0 -0.32916195828E+01 -0.36840588259E+02  0.98383266532E+02  0.10511104051E+03  0.10000000000E+01 0.  0.
         21    1    1    2  502  501 -0.15102114529E+02 -0.41937129200E+02  0.11422623256E+03  0.12261496187E+03  0.00000000000E+00 0. -1.
<mgrwt>
<rscale>  1 0.13269867E+03</rscale>
<asrwt>0</asrwt>
<pdfrwt beam="1">  1        4 0.45703061E-01 0.13269867E+03</pdfrwt>
<pdfrwt beam="2">  1       -4 0.44363277E-02 0.13269867E+03</pdfrwt>
<totfact> 0.22064308E+03</totfact>
</mgrwt>
</event>
<event>
 6    4  0.2398389E-003  0.1301401E+03  0.7818608E-02  0.1227248E+00
          4   -1    0    0  502    0  0.00000000000E+00  0.00000000000E+00  0.56505141633E+03  0.56505284354E+03  0.12700000000E+01 0. -1.
         -4   -1    0    0    0  501 -0.00000000000E+00 -0.00000000000E+00 -0.13590797670E+02  0.13650006641E+02  0.12700000000E+01 0. -1.
         25    2    1    2    0    0  0.32801725737E+02  0.15309515727E+02  0.33788060974E+03  0.36207700987E+03  0.12500448053E+03 0.  0.
    9000005    1    3    3    0    0 -0.41641844765E+02 -0.16647341661E+02  0.16768647474E+03  0.17358263459E+03  0.10000000000E+01 0.  0.
    9000005    1    3    3    0    0  0.74443570502E+02  0.31956857388E+02  0.17019413500E+03  0.18849437528E+03  0.10000000000E+01 0.  0.
         21    1    1    2  502  501 -0.32801725737E+02 -0.15309515727E+02  0.21358000891E+03  0.21662584031E+03  0.00000000000E+00 0. -1.
<mgrwt>
<rscale>  1 0.13014013E+03</rscale>
<asrwt>0</asrwt>
<pdfrwt beam="1">  1        4 0.86935662E-01 0.13014013E+03</pdfrwt>
<pdfrwt beam="2">  1       -4 0.20955560E-02 0.13014013E+03</pdfrwt>
<totfact> 0.18215845E+03</totfact>
</mgrwt>
</event>
<event>
 6    4  0.2398389E-003  0.1276527E+03  0.7818608E-02  0.1230981E+00
          4   -1    0    0  502    0  0.00000000000E+00  0.00000000000E+00  0.52935545226E+03  0.52935697571E+03  0.12700000000E+01 0. -1.
         -4   -1    0    0    0  501 -0.00000000000E+00 -0.00000000000E+00 -0.13557619342E+02  0.13616972579E+02  0.12700000000E+01 0. -1.
         25    2    1    2    0    0 -0.22534131477E+02 -0.12742384705E+02  0.30562328368E+03  0.33121111729E+03  0.12500022895E+03 0.  0.
    9000005    1    3    3    0    0  0.31453714065E+02  0.18186970749E+01  0.14380604868E+02  0.34647447004E+02  0.10000000000E+01 0.  0.
    9000005    1    3    3    0    0 -0.53987845543E+02 -0.14561081780E+02  0.29124267882E+03  0.29656367029E+03  0.10000000000E+01 0.  0.
         21    1    1    2  502  501  0.22534131477E+02  0.12742384705E+02  0.21017454923E+03  0.21176283100E+03  0.00000000000E+00 0. -1.
<mgrwt>
<rscale>  1 0.12765270E+03</rscale>
<asrwt>0</asrwt>
<pdfrwt beam="1">  1        4 0.81443987E-01 0.12765270E+03</pdfrwt>
<pdfrwt beam="2">  1       -4 0.20904703E-02 0.12765270E+03</pdfrwt>
<totfact> 0.21052124E+03</totfact>
</mgrwt>
</event>
<event>
 6    4  0.2398389E-003  0.1268391E+03  0.7818608E-02  0.1232223E+00
          4   -1    0    0  502    0  0.00000000000E+00  0.00000000000E+00  0.20298157881E+03  0.20298555179E+03  0.12700000000E+01 0. -1.
         -4   -1    0    0    0  501 -0.00000000000E+00 -0.00000000000E+00 -0.28002700504E+02  0.28031484719E+02  0.12700000000E+01 0. -1.
         25    2    1    2    0    0  0.20142129826E+02 -0.76187858529E+01  0.16245132476E+03  0.20610336778E+03  0.12499765599E+03 0.  0.
    9000005    1    3    3    0    0  0.58839856563E+02 -0.36905081238E+02  0.13096139487E+03  0.14824304600E+03  0.10000000000E+01 0.  0.
    9000005    1    3    3    0    0 -0.38697726737E+02  0.29286295385E+02  0.31489929890E+02  0.57860321780E+02  0.10000000000E+01 0.  0.
         21    1    1    2  502  501 -0.20142129826E+02  0.76187858529E+01  0.12527553551E+02  0.24913668734E+02  0.00000000000E+00 0. -1.
<mgrwt>
<rscale>  1 0.12683913E+03</rscale>
<asrwt>0</asrwt>
<pdfrwt beam="1">  1        4 0.31230454E-01 0.12683913E+03</pdfrwt>
<pdfrwt beam="2">  1       -4 0.43106277E-02 0.12683913E+03</pdfrwt>
<totfact> 0.48014019E+03</totfact>
</mgrwt>
</event>
<event>
 6    4  0.2398389E-003  0.1280566E+03  0.7818608E-02  0.1230368E+00
          4   -1    0    0  502    0  0.00000000000E+00  0.00000000000E+00  0.20077999766E+03  0.20078401421E+03  0.12700000000E+01 0.  1.
         -4   -1    0    0    0  501 -0.00000000000E+00 -0.00000000000E+00 -0.32068886292E+02  0.32094023867E+02  0.12700000000E+01 0.  1.
         25    2    1    2    0    0 -0.21370124426E+02  0.17799157867E+02  0.11375543663E+03  0.17128568120E+03  0.12499997193E+03 0.  0.
    9000005    1    3    3    0    0 -0.10143781872E+02 -0.28533022525E+02  0.11947817917E+03  0.12326015164E+03  0.10000000000E+01 0.  0.
    9000005    1    3    3    0    0 -0.11226342554E+02  0.46332180392E+02 -0.57227425440E+01  0.48025529557E+02  0.10000000000E+01 0.  0.
         21    1    1    2  502  501  0.21370124426E+02 -0.17799157867E+02  0.54955674745E+02  0.61592356875E+02  0.00000000000E+00 0.  1.
<mgrwt>
<rscale>  1 0.12805657E+03</rscale>
<asrwt>0</asrwt>
<pdfrwt beam="1">  1        4 0.30891473E-01 0.12805657E+03</pdfrwt>
<pdfrwt beam="2">  1       -4 0.49359174E-02 0.12805657E+03</pdfrwt>
<totfact> 0.39569111E+03</totfact>
</mgrwt>
</event>
<event>
 6    4  0.2398389E-003  0.1287927E+03  0.7818608E-02  0.1229258E+00
          4   -1    0    0  502    0  0.00000000000E+00  0.00000000000E+00  0.73156848187E+02  0.73167870932E+02  0.12700000000E+01 0. -1.
         -4   -1    0    0    0  501 -0.00000000000E+00 -0.00000000000E+00 -0.29176055456E+03  0.29176331862E+03  0.12700000000E+01 0. -1.
         25    2    1    2    0    0  0.36471676811E+01  0.30798155477E+02 -0.27325924257E+03  0.30208967581E+03  0.12500292144E+03 0.  0.
    9000005    1    3    3    0    0  0.41085909801E+02  0.48894101055E+02 -0.24136800486E+03  0.24967618803E+03  0.10000000000E+01 0.  0.
    9000005    1    3    3    0    0 -0.37438742120E+02 -0.18095945578E+02 -0.31891237712E+02  0.52413487775E+02  0.10000000000E+01 0.  0.
         21    1    1    2  502  501 -0.36471676811E+01 -0.30798155477E+02  0.54655536200E+02  0.62841513749E+02  0.00000000000E+00 0. -1.
<mgrwt>
<rscale>  1 0.12879270E+03</rscale>
<asrwt>0</asrwt>
<pdfrwt beam="1">  1        4 0.11255960E-01 0.12879270E+03</pdfrwt>
<pdfrwt beam="2">  1       -4 0.44887299E-01 0.12879270E+03</pdfrwt>
<totfact> 0.49204017E+02</totfact>
</mgrwt>
</event>
<event>
 6    4  0.2398389E-003  0.1274404E+03  0.7818608E-02  0.1231304E+00
          4   -1    0    0  502    0  0.00000000000E+00  0.00000000000E+00  0.37515458591E+02  0.37536948908E+02  0.12700000000E+01 0.  1.
         -4   -1    0    0    0  501 -0.00000000000E+00 -0.00000000000E+00 -0.18441786374E+03  0.18442223664E+03  0.12700000000E+01 0.  1.
         25    2    1    2    0    0  0.87327809944E+00  0.24812550253E+02 -0.15012529425E+03  0.19692296621E+03  0.12499850153E+03 0.  0.
    9000005    1    3    3    0    0  0.49767246873E+01 -0.50426289198E+02 -0.46399366351E+02  0.68713023720E+02  0.10000000000E+01 0.  0.
    9000005    1    3    3    0    0 -0.41034465879E+01  0.75238839451E+02 -0.10372592789E+03  0.12820994249E+03  0.10000000000E+01 0.  0.
         21    1    1    2  502  501 -0.87327809944E+00 -0.24812550253E+02  0.32228890926E+01  0.25036219339E+02  0.00000000000E+00 0.  1.
<mgrwt>
<rscale>  1 0.12744038E+03</rscale>
<asrwt>0</asrwt>
<pdfrwt beam="1">  1        4 0.57735986E-02 0.12744038E+03</pdfrwt>
<pdfrwt beam="2">  1       -4 0.28373968E-01 0.12744038E+03</pdfrwt>
<totfact> 0.36031309E+03</totfact>
</mgrwt>
</event>
<event>
 6    4  0.2398389E-003  0.1322674E+03  0.7818608E-02  0.1224130E+00
          4   -1    0    0  502    0  0.00000000000E+00  0.00000000000E+00  0.17463273163E+02  0.17509392039E+02  0.12700000000E+01 0. -1.
         -4   -1    0    0    0  501 -0.00000000000E+00 -0.00000000000E+00 -0.49147467754E+03  0.49147631842E+03  0.12700000000E+01 0. -1.
         25    2    1    2    0    0  0.42258354771E+02  0.91596942171E+01 -0.41672758273E+03  0.43721451310E+03  0.12499993487E+03 0.  0.
    9000005    1    3    3    0    0  0.66048261397E+02  0.28038916768E+02 -0.39060601862E+03  0.39714306675E+03  0.10000000000E+01 0.  0.
    9000005    1    3    3    0    0 -0.23789906625E+02 -0.18879222551E+02 -0.26121564104E+02  0.40071446350E+02  0.10000000000E+01 0.  0.
         21    1    1    2  502  501 -0.42258354771E+02 -0.91596942171E+01 -0.57283821654E+02  0.71771197353E+02  0.00000000000E+00 0.  1.
<mgrwt>
<rscale>  1 0.13226735E+03</rscale>
<asrwt>0</asrwt>
<pdfrwt beam="1">  1        4 0.26903316E-02 0.13226735E+03</pdfrwt>
<pdfrwt beam="2">  1       -4 0.75615152E-01 0.13226735E+03</pdfrwt>
<totfact> 0.16906587E+03</totfact>
</mgrwt>
</event>
<event>
 6    4  0.2398389E-003  0.1289182E+03  0.7818608E-02  0.1229070E+00
          4   -1    0    0  502    0  0.00000000000E+00  0.00000000000E+00  0.52395932199E+01  0.53913112607E+01  0.12700000000E+01 0. -1.
         -4   -1    0    0    0  501 -0.00000000000E+00 -0.00000000000E+00 -0.14283507584E+04  0.14283513230E+04  0.12700000000E+01 0. -1.
         25    2    1    2    0    0  0.38285247925E+01  0.31377283546E+02 -0.13090391749E+04  0.13153719855E+04  0.12498282787E+03 0.  0.
    9000005    1    3    3    0    0  0.42037655295E+02 -0.79237869947E+01 -0.18052177936E+03  0.18552375504E+03  0.10000000000E+01 0.  0.
    9000005    1    3    3    0    0 -0.38209130502E+02  0.39301070541E+02 -0.11285173955E+04  0.11298482304E+04  0.10000000000E+01 0.  0.
         21    1    1    2  502  501 -0.38285247925E+01 -0.31377283546E+02 -0.11407199030E+03  0.11837064880E+03  0.00000000000E+00 0.  1.
<mgrwt>
<rscale>  1 0.12891819E+03</rscale>
<asrwt>0</asrwt>
<pdfrwt beam="1">  1        4 0.81780645E-03 0.12891819E+03</pdfrwt>
<pdfrwt beam="2">  1       -4 0.21975768E+00 0.12891819E+03</pdfrwt>
<totfact> 0.72557201E+02</totfact>
</mgrwt>
</event>
<event>
 6    4  0.2398389E-003  0.1380163E+03  0.7818608E-02  0.1216023E+00
         -4   -1    0    0    0  501 -0.00000000000E+00  0.00000000000E+00  0.10266000549E+02  0.10344257695E+02  0.12700000000E+01 0.  1.
          4   -1    0    0  502    0  0.00000000000E+00 -0.00000000000E+00 -0.11074081713E+04  0.11074088995E+04  0.12700000000E+01 0.  1.
         25    2    1    2    0    0 -0.58313401396E+02  0.47677191097E+01 -0.53277842317E+03  0.55036473338E+03  0.12500123051E+03 0.  0.
    9000005    1    3    3    0    0  0.17199599706E+02  0.45855223126E+02 -0.25207860281E+03  0.25679398301E+03  0.10000000000E+01 0.  0.
    9000005    1    3    3    0    0 -0.75513001102E+02 -0.41087504016E+02 -0.28069982036E+03  0.29357075037E+03  0.10000000000E+01 0.  0.
         21    1    1    2  502  501  0.58313401396E+02 -0.47677191097E+01 -0.56436374753E+03  0.56738842380E+03  0.00000000000E+00 0.  1.
<mgrwt>
<rscale>  1 0.13801627E+03</rscale>
<asrwt>0</asrwt>
<pdfrwt beam="2">  1        4 0.17037647E+00 0.13801627E+03</pdfrwt>
<pdfrwt beam="1">  1       -4 0.15854614E-02 0.13801627E+03</pdfrwt>
<totfact> 0.55373462E+02</totfact>
</mgrwt>
</event>
<event>
 6    4  0.2398389E-003  0.1315408E+03  0.7818608E-02  0.1225187E+00
         -4   -1    0    0    0  501 -0.00000000000E+00  0.00000000000E+00  0.84813909428E+03  0.84814004512E+03  0.12700000000E+01 0. -1.
          4   -1    0    0  502    0  0.00000000000E+00 -0.00000000000E+00 -0.26773520594E+02  0.26803624848E+02  0.12700000000E+01 0. -1.
         25    2    1    2    0    0  0.39965122622E+02 -0.90147404977E+01  0.82348008700E+03  0.83391992393E+03  0.12499803710E+03 0.  0.
    9000005    1    3    3    0    0  0.52026187155E+02  0.20411991448E+02  0.15652060612E+03  0.16620190638E+03  0.10000000000E+01 0.  0.
    9000005    1    3    3    0    0 -0.12061064533E+02 -0.29426731946E+02  0.66695948088E+03  0.66771801755E+03  0.10000000000E+01 0.  0.
         21    1    1    2  502  501 -0.39965122622E+02  0.90147404977E+01 -0.21145133133E+01  0.41023746038E+02  0.00000000000E+00 0. -1.
<mgrwt>
<rscale>  1 0.13154081E+03</rscale>
<asrwt>0</asrwt>
<pdfrwt beam="2">  1        4 0.41213916E-02 0.13154081E+03</pdfrwt>
<pdfrwt beam="1">  1       -4 0.13048534E+00 0.13154081E+03</pdfrwt>
<totfact> 0.24485129E+02</totfact>
</mgrwt>
</event>
<event>
 6    4  0.2398389E-003  0.1277683E+03  0.7818608E-02  0.1230805E+00
         -4   -1    0    0    0  501 -0.00000000000E+00  0.00000000000E+00  0.70803063344E+03  0.70803177245E+03  0.12700000000E+01 0.  1.
          4   -1    0    0  502    0  0.00000000000E+00 -0.00000000000E+00 -0.12455134103E+02  0.12519715073E+02  0.12700000000E+01 0.  1.
         25    2    1    2    0    0 -0.23745749964E+02  0.11679790343E+02  0.67512144481E+03  0.68710531449E+03  0.12499787923E+03 0.  0.
    9000005    1    3    3    0    0 -0.57998676902E+02  0.32164328224E+02  0.58225770048E+03  0.58602339570E+03  0.10000000000E+01 0.  0.
    9000005    1    3    3    0    0  0.34252926938E+02 -0.20484537881E+02  0.92863744327E+02  0.10108191879E+03  0.10000000000E+01 0.  0.
         21    1    1    2  502  501  0.23745749964E+02 -0.11679790343E+02  0.20454054533E+02  0.33446173034E+02  0.00000000000E+00 0.  1.
<mgrwt>
<rscale>  1 0.12776834E+03</rscale>
<asrwt>0</asrwt>
<pdfrwt beam="2">  1        4 0.19212298E-02 0.12776834E+03</pdfrwt>
<pdfrwt beam="1">  1       -4 0.10893285E+00 0.12776834E+03</pdfrwt>
<totfact> 0.12353388E+03</totfact>
</mgrwt>
</event>
<event>
 6    4  0.2398389E-003  0.1363150E+03  0.7818608E-02  0.1218375E+00
         -4   -1    0    0    0  501 -0.00000000000E+00  0.00000000000E+00  0.29608971064E+02  0.29636195226E+02  0.12700000000E+01 0. -1.
          4   -1    0    0  502    0  0.00000000000E+00 -0.00000000000E+00 -0.30752948574E+03  0.30753210808E+03  0.12700000000E+01 0. -1.
         25    2    1    2    0    0  0.20416300093E+02  0.50396160607E+02 -0.19140133341E+03  0.23498138124E+03  0.12500072314E+03 0.  0.
    9000005    1    3    3    0    0  0.46809675201E+01 -0.10436826663E+02 -0.16727122939E+03  0.16766485318E+03  0.10000000000E+01 0.  0.
    9000005    1    3    3    0    0  0.15735332573E+02  0.60832987270E+02 -0.24130104019E+02  0.67316528069E+02  0.10000000000E+01 0.  0.
         21    1    1    2  502  501 -0.20416300093E+02 -0.50396160607E+02 -0.86519181260E+02  0.10218692206E+03  0.00000000000E+00 0. -1.
<mgrwt>
<rscale>  1 0.13631500E+03</rscale>
<asrwt>0</asrwt>
<pdfrwt beam="2">  1        4 0.47314522E-01 0.13631500E+03</pdfrwt>
<pdfrwt beam="1">  1       -4 0.45575224E-02 0.13631500E+03</pdfrwt>
<totfact> 0.19827828E+03</totfact>
</mgrwt>
</event>
<event>
 6    4  0.2398389E-003  0.1267032E+03  0.7818608E-02  0.1232431E+00
          4   -1    0    0  502    0  0.00000000000E+00  0.00000000000E+00  0.23390107705E+03  0.23390452485E+03  0.12700000000E+01 0. -1.
         -4   -1    0    0    0  501 -0.00000000000E+00 -0.00000000000E+00 -0.31042948268E+02  0.31068915931E+02  0.12700000000E+01 0. -1.
         25    2    1    2    0    0  0.19183826491E+02 -0.77750187377E+01  0.10385016036E+03  0.16382479805E+03  0.12500095413E+03 0.  0.
    9000005    1    3    3    0    0  0.35378512356E+02 -0.41763811833E+01 -0.18635688389E+02  0.40216541100E+02  0.10000000000E+01 0.  0.
    9000005    1    3    3    0    0 -0.16194685865E+02 -0.35986375544E+01  0.12248584875E+03  0.12360825695E+03  0.10000000000E+01 0.  0.
         21    1    1    2  502  501 -0.19183826491E+02  0.77750187377E+01  0.99007968421E+02  0.10114864273E+03  0.00000000000E+00 0. -1.
<mgrwt>
<rscale>  1 0.12670323E+03</rscale>
<asrwt>0</asrwt>
<pdfrwt beam="1">  1        4 0.35987044E-01 0.12670323E+03</pdfrwt>
<pdfrwt beam="2">  1       -4 0.47781009E-02 0.12670323E+03</pdfrwt>
<totfact> 0.31038274E+03</totfact>
</mgrwt>
</event>
<event>
 6    4  0.2398389E-003  0.1294404E+03  0.7818608E-02  0.1228288E+00
         -4   -1    0    0    0  501 -0.00000000000E+00  0.00000000000E+00  0.22879600167E+02  0.22914820615E+02  0.12700000000E+01 0. -1.
          4   -1    0    0  502    0  0.00000000000E+00 -0.00000000000E+00 -0.37261170261E+03  0.37261386692E+03  0.12700000000E+01 0. -1.
         25    2    1    2    0    0 -0.24387760908E+02 -0.23149099497E+02 -0.17544162259E+03  0.21802427898E+03  0.12499671835E+03 0.  0.
    9000005    1    3    3    0    0  0.81484819235E+01  0.18616707664E+02  0.11744240226E+02  0.23492695469E+02  0.10000000000E+01 0.  0.
    9000005    1    3    3    0    0 -0.32536242831E+02 -0.41765807161E+02 -0.18718586281E+03  0.19453158351E+03  0.10000000000E+01 0.  0.
         21    1    1    2  502  501  0.24387760908E+02  0.23149099497E+02 -0.17429047985E+03  0.17750440856E+03  0.00000000000E+00 0. -1.
<mgrwt>
<rscale>  1 0.12944042E+03</rscale>
<asrwt>0</asrwt>
<pdfrwt beam="2">  1        4 0.57327748E-01 0.12944042E+03</pdfrwt>
<pdfrwt beam="1">  1       -4 0.35228145E-02 0.12944042E+03</pdfrwt>
<totfact> 0.19901706E+03</totfact>
</mgrwt>
</event>
<event>
 6    4  0.2398389E-003  0.1411706E+03  0.7818608E-02  0.1211762E+00
          4   -1    0    0  502    0  0.00000000000E+00  0.00000000000E+00  0.23350457904E+03  0.23350803269E+03  0.12700000000E+01 0. -1.
         -4   -1    0    0    0  501 -0.00000000000E+00 -0.00000000000E+00 -0.10352594149E+03  0.10353373103E+03  0.12700000000E+01 0. -1.
         25    2    1    2    0    0 -0.47402143571E+02  0.45331132605E+02 -0.46609881254E+02  0.14866612896E+03  0.12500904795E+03 0.  0.
    9000005    1    3    3    0    0 -0.71758515722E+02  0.36604870156E+02 -0.75121983614E+02  0.11015222885E+03  0.10000000000E+01 0.  0.
    9000005    1    3    3    0    0  0.24356372152E+02  0.87262624489E+01  0.28512102360E+02  0.38513900110E+02  0.10000000000E+01 0.  0.
         21    1    1    2  502  501  0.47402143571E+02 -0.45331132605E+02  0.17658851880E+03  0.18837563476E+03  0.00000000000E+00 0. -1.
<mgrwt>
<rscale>  1 0.14117059E+03</rscale>
<asrwt>0</asrwt>
<pdfrwt beam="1">  1        4 0.35924646E-01 0.14117059E+03</pdfrwt>
<pdfrwt beam="2">  1       -4 0.15927933E-01 0.14117059E+03</pdfrwt>
<totfact> 0.42623168E+02</totfact>
</mgrwt>
</event>
<event>
 6    4  0.2398389E-003  0.1268850E+03  0.7818608E-02  0.1232152E+00
         -4   -1    0    0    0  501 -0.00000000000E+00  0.00000000000E+00  0.25993006319E+03  0.25993316574E+03  0.12700000000E+01 0.  1.
          4   -1    0    0  502    0  0.00000000000E+00 -0.00000000000E+00 -0.21444561057E+02  0.21482134413E+02  0.12700000000E+01 0.  1.
         25    2    1    2    0    0 -0.16082133080E+02  0.14665122337E+02  0.21270989085E+03  0.24767981505E+03  0.12500436913E+03 0.  0.
    9000005    1    3    3    0    0 -0.55391027218E+01 -0.21690217742E+02 -0.79631595142E+01  0.23781486793E+02  0.10000000000E+01 0.  0.
    9000005    1    3    3    0    0 -0.10543030359E+02  0.36355340079E+02  0.22067305036E+03  0.22389832826E+03  0.10000000000E+01 0.  0.
         21    1    1    2  502  501  0.16082133080E+02 -0.14665122337E+02  0.25775611284E+02  0.33735485096E+02  0.00000000000E+00 0.  1.
<mgrwt>
<rscale>  1 0.12688496E+03</rscale>
<asrwt>0</asrwt>
<pdfrwt beam="2">  1        4 0.33022921E-02 0.12688496E+03</pdfrwt>
<pdfrwt beam="1">  1       -4 0.39992370E-01 0.12688496E+03</pdfrwt>
<totfact> 0.45405954E+03</totfact>
</mgrwt>
</event>
<event>
 6    4  0.2398389E-003  0.1280411E+03  0.7818608E-02  0.1230392E+00
         -4   -1    0    0    0  501 -0.00000000000E+00  0.00000000000E+00  0.18567928283E+02  0.18611310022E+02  0.12700000000E+01 0. -1.
          4   -1    0    0  502    0  0.00000000000E+00 -0.00000000000E+00 -0.38111525789E+03  0.38111737391E+03  0.12700000000E+01 0. -1.
         25    2    1    2    0    0 -0.57855763410E+01  0.27089567449E+02 -0.22028006865E+03  0.25478976198E+03  0.12500878611E+03 0.  0.
    9000005    1    3    3    0    0 -0.49644825462E+02  0.51776254669E+02 -0.89805102382E+02  0.11494061796E+03  0.10000000000E+01 0.  0.
    9000005    1    3    3    0    0  0.43859249121E+02 -0.24686687220E+02 -0.13047496627E+03  0.13984914402E+03  0.10000000000E+01 0.  0.
         21    1    1    2  502  501  0.57855763410E+01 -0.27089567449E+02 -0.14226726095E+03  0.14493892195E+03  0.00000000000E+00 0. -1.
<mgrwt>
<rscale>  1 0.12804106E+03</rscale>
<asrwt>0</asrwt>
<pdfrwt beam="2">  1        4 0.58636611E-01 0.12804106E+03</pdfrwt>
<pdfrwt beam="1">  1       -4 0.28601045E-02 0.12804106E+03</pdfrwt>
<totfact> 0.26262529E+03</totfact>
</mgrwt>
</event>
<event>
 6    4  0.2398389E-003  0.1299577E+03  0.7818608E-02  0.1227519E+00
          4   -1    0    0  502    0  0.00000000000E+00  0.00000000000E+00  0.46872122194E+02  0.46889324360E+02  0.12700000000E+01 0. -1.
         -4   -1    0    0    0  501 -0.00000000000E+00 -0.00000000000E+00 -0.14868841566E+03  0.14869383932E+03  0.12700000000E+01 0. -1.
         25    2    1    2    0    0  0.17372419266E+02 -0.31018572844E+02 -0.90155134441E+02  0.15816745251E+03  0.12500016782E+03 0.  0.
    9000005    1    3    3    0    0  0.32459155648E+02 -0.75882709790E+02 -0.54698790432E+02  0.99018887618E+02  0.10000000000E+01 0.  0.
    9000005    1    3    3    0    0 -0.15086736382E+02  0.44864136946E+02 -0.35456344009E+02  0.59148564894E+02  0.10000000000E+01 0.  0.
         21    1    1    2  502  501 -0.17372419266E+02  0.31018572844E+02 -0.11661159026E+02  0.37415711168E+02  0.00000000000E+00 0. -1.
<mgrwt>
<rscale>  1 0.12995767E+03</rscale>
<asrwt>0</asrwt>
<pdfrwt beam="1">  1        4 0.72128362E-02 0.12995767E+03</pdfrwt>
<pdfrwt beam="2">  1       -4 0.22876881E-01 0.12995767E+03</pdfrwt>
<totfact> 0.37497295E+03</totfact>
</mgrwt>
</event>
<event>
 6    4  0.2398389E-003  0.1368954E+03  0.7818608E-02  0.1217569E+00
          4   -1    0    0  502    0  0.00000000000E+00  0.00000000000E+00  0.66868843342E+02  0.66880902430E+02  0.12700000000E+01 0.  1.
         -4   -1    0    0    0  501 -0.00000000000E+00 -0.00000000000E+00 -0.20280597715E+03  0.20280995357E+03  0.12700000000E+01 0.  1.
         25    2    1    2    0    0  0.30522740787E+02 -0.46781466792E+02 -0.15851218609E+03  0.20944323094E+03  0.12498084056E+03 0.  0.
    9000005    1    3    3    0    0  0.70622595064E+02  0.43806572018E+01 -0.69215186118E+02  0.98987287469E+02  0.10000000000E+01 0.  0.
    9000005    1    3    3    0    0 -0.40099854276E+02 -0.51162123994E+02 -0.89296999969E+02  0.11045594347E+03  0.10000000000E+01 0.  0.
         21    1    1    2  502  501 -0.30522740787E+02  0.46781466792E+02  0.22575052278E+02  0.60247625063E+02  0.00000000000E+00 0.  1.
<mgrwt>
<rscale>  1 0.13689541E+03</rscale>
<asrwt>0</asrwt>
<pdfrwt beam="1">  1        4 0.10288748E-01 0.13689541E+03</pdfrwt>
<pdfrwt beam="2">  1       -4 0.31202153E-01 0.13689541E+03</pdfrwt>
<totfact> 0.11784161E+03</totfact>
</mgrwt>
</event>
<event>
 6    4  0.2398389E-003  0.1273828E+03  0.7818608E-02  0.1231392E+00
          4   -1    0    0  502    0  0.00000000000E+00  0.00000000000E+00  0.42353418156E+03  0.42353608565E+03  0.12700000000E+01 0. -1.
         -4   -1    0    0    0  501 -0.00000000000E+00 -0.00000000000E+00 -0.14081572706E+02  0.14138726600E+02  0.12700000000E+01 0. -1.
         25    2    1    2    0    0  0.64905027286E+01 -0.23645109001E+02  0.30802106479E+03  0.33332168132E+03  0.12500059630E+03 0.  0.
    9000005    1    3    3    0    0  0.21791324269E+02 -0.72734838935E+02  0.18085764347E+03  0.19615225161E+03  0.10000000000E+01 0.  0.
    9000005    1    3    3    0    0 -0.15300821541E+02  0.49089729934E+02  0.12716342132E+03  0.13716942971E+03  0.10000000000E+01 0.  0.
         21    1    1    2  502  501 -0.64905027286E+01  0.23645109001E+02  0.10143154406E+03  0.10435313093E+03  0.00000000000E+00 0.  1.
<mgrwt>
<rscale>  1 0.12738276E+03</rscale>
<asrwt>0</asrwt>
<pdfrwt beam="1">  1        4 0.65163637E-01 0.12738276E+03</pdfrwt>
<pdfrwt beam="2">  1       -4 0.21709391E-02 0.12738276E+03</pdfrwt>
<totfact> 0.32211185E+03</totfact>
</mgrwt>
</event>
<event>
 6    4  0.2398389E-003  0.1289874E+03  0.7818608E-02  0.1228966E+00
         -4   -1    0    0    0  501 -0.00000000000E+00  0.00000000000E+00  0.10922405630E+04  0.10922413013E+04  0.12700000000E+01 0. -1.
          4   -1    0    0  502    0  0.00000000000E+00 -0.00000000000E+00 -0.71756953309E+01  0.72872150704E+01  0.12700000000E+01 0. -1.
         25    2    1    2    0    0  0.31579755775E+02 -0.38521942493E+01  0.10070385370E+04  0.10152656619E+04  0.12500251531E+03 0.  0.
    9000005    1    3    3    0    0  0.40425048602E+02 -0.44845504229E+02  0.25476421316E+03  0.26182266539E+03  0.10000000000E+01 0.  0.
    9000005    1    3    3    0    0 -0.88452928274E+01  0.40993309979E+02  0.75227432381E+03  0.75344299647E+03  0.10000000000E+01 0.  0.
         21    1    1    2  502  501 -0.31579755775E+02  0.38521942493E+01  0.78026330696E+02  0.84262854552E+02  0.00000000000E+00 0. -1.
<mgrwt>
<rscale>  1 0.12898740E+03</rscale>
<asrwt>0</asrwt>
<pdfrwt beam="2">  1        4 0.11125885E-02 0.12898740E+03</pdfrwt>
<pdfrwt beam="1">  1       -4 0.16804563E+00 0.12898740E+03</pdfrwt>
<totfact> 0.97071138E+02</totfact>
</mgrwt>
</event>
<event>
 6    4  0.2398389E-003  0.1270369E+03  0.7818608E-02  0.1231920E+00
          4   -1    0    0  502    0  0.00000000000E+00  0.00000000000E+00  0.12529006029E+03  0.12529649679E+03  0.12700000000E+01 0. -1.
         -4   -1    0    0    0  501 -0.00000000000E+00 -0.00000000000E+00 -0.44722610866E+02  0.44740639498E+02  0.12700000000E+01 0. -1.
         25    2    1    2    0    0 -0.13997100607E+02  0.17785337955E+02  0.66513730838E+02  0.14339611383E+03  0.12500452792E+03 0.  0.
    9000005    1    3    3    0    0 -0.63559671858E+02  0.23989993680E+02  0.11200259886E+02  0.68860710895E+02  0.10000000000E+01 0.  0.
    9000005    1    3    3    0    0  0.49562571251E+02 -0.62046557248E+01  0.55313470952E+02  0.74535402933E+02  0.10000000000E+01 0.  0.
         21    1    1    2  502  501  0.13997100607E+02 -0.17785337955E+02  0.14053718586E+02  0.26641022459E+02  0.00000000000E+00 0. -1.
<mgrwt>
<rscale>  1 0.12703688E+03</rscale>
<asrwt>0</asrwt>
<pdfrwt beam="1">  1        4 0.19277276E-01 0.12703688E+03</pdfrwt>
<pdfrwt beam="2">  1       -4 0.68822836E-02 0.12703688E+03</pdfrwt>
<totfact> 0.54865290E+03</totfact>
</mgrwt>
</event>
<event>
 6    4  0.2398389E-003  0.1271443E+03  0.7818608E-02  0.1231756E+00
         -4   -1    0    0    0  501 -0.00000000000E+00  0.00000000000E+00  0.61324838134E+02  0.61337987187E+02  0.12700000000E+01 0.  1.
          4   -1    0    0  502    0  0.00000000000E+00 -0.00000000000E+00 -0.95784269631E+02  0.95792688702E+02  0.12700000000E+01 0.  1.
         25    2    1    2    0    0  0.62763105855E+01  0.22386298809E+02 -0.39890848416E+02  0.13325519184E+03  0.12500051166E+03 0.  0.
    9000005    1    3    3    0    0  0.31406682852E+02 -0.43560377687E+02 -0.31270770668E+02  0.62151004257E+02  0.10000000000E+01 0.  0.
    9000005    1    3    3    0    0 -0.25130372266E+02  0.65946676496E+02 -0.86200777489E+01  0.71104187581E+02  0.10000000000E+01 0.  0.
         21    1    1    2  502  501 -0.62763105855E+01 -0.22386298809E+02  0.54314169195E+01  0.23875484052E+02  0.00000000000E+00 0.  1.
<mgrwt>
<rscale>  1 0.12714427E+03</rscale>
<asrwt>0</asrwt>
<pdfrwt beam="2">  1        4 0.14737701E-01 0.12714427E+03</pdfrwt>
<pdfrwt beam="1">  1       -4 0.94362496E-02 0.12714427E+03</pdfrwt>
<totfact> 0.52263394E+03</totfact>
</mgrwt>
</event>
<event>
 6    4  0.2398389E-003  0.1268108E+03  0.7818608E-02  0.1232266E+00
         -4   -1    0    0    0  501 -0.00000000000E+00  0.00000000000E+00  0.19760159000E+02  0.19800928860E+02  0.12700000000E+01 0. -1.
          4   -1    0    0  502    0  0.00000000000E+00 -0.00000000000E+00 -0.27747355229E+03  0.27747645868E+03  0.12700000000E+01 0. -1.
         25    2    1    2    0    0 -0.21336318740E+02 -0.85690063079E+00 -0.22212632713E+03  0.25577543512E+03  0.12499998094E+03 0.  0.
    9000005    1    3    3    0    0 -0.21641702397E+02 -0.61984884174E+02 -0.11677678701E+03  0.13397129220E+03  0.10000000000E+01 0.  0.
    9000005    1    3    3    0    0  0.30538365629E+00  0.61127983543E+02 -0.10534954011E+03  0.12180414292E+03  0.10000000000E+01 0.  0.
         21    1    1    2  502  501  0.21336318740E+02  0.85690063079E+00 -0.35587066163E+02  0.41501952414E+02  0.00000000000E+00 0. -1.
<mgrwt>
<rscale>  1 0.12681076E+03</rscale>
<asrwt>0</asrwt>
<pdfrwt beam="2">  1        4 0.42691596E-01 0.12681076E+03</pdfrwt>
<pdfrwt beam="1">  1       -4 0.30433844E-02 0.12681076E+03</pdfrwt>
<totfact> 0.45357578E+03</totfact>
</mgrwt>
</event>
<event>
 6    4  0.2398389E-003  0.1320359E+03  0.7818608E-02  0.1224466E+00
         -4   -1    0    0    0  501 -0.00000000000E+00  0.00000000000E+00  0.23866739418E+04  0.23866742797E+04  0.12700000000E+01 0.  1.
          4   -1    0    0  502    0  0.00000000000E+00 -0.00000000000E+00 -0.40945809405E+01  0.42870144714E+01  0.12700000000E+01 0.  1.
         25    2    1    2    0    0  0.41721002389E+02  0.83899991832E+01  0.21782121275E+04  0.21822102458E+04  0.12498980094E+03 0.  0.
    9000005    1    3    3    0    0  0.66345647191E+01 -0.42914647900E+02  0.31719445838E+03  0.32015466400E+03  0.10000000000E+01 0.  0.
    9000005    1    3    3    0    0  0.35086437670E+02  0.51304647083E+02  0.18610176691E+04  0.18620555818E+04  0.10000000000E+01 0.  0.
         21    1    1    2  502  501 -0.41721002389E+02 -0.83899991832E+01  0.20436723344E+03  0.20875104845E+03  0.00000000000E+00 0.  1.
<mgrwt>
<rscale>  1 0.13203592E+03</rscale>
<asrwt>0</asrwt>
<pdfrwt beam="2">  1        4 0.64476372E-03 0.13203592E+03</pdfrwt>
<pdfrwt beam="1">  1       -4 0.36719565E+00 0.13203592E+03</pdfrwt>
<totfact> 0.14166998E+02</totfact>
</mgrwt>
</event>
<event>
 6    4  0.2398389E-003  0.1277645E+03  0.7818608E-02  0.1230811E+00
         -4   -1    0    0    0  501 -0.00000000000E+00  0.00000000000E+00  0.19226611548E+02  0.19268510364E+02  0.12700000000E+01 0. -1.
          4   -1    0    0  502    0  0.00000000000E+00 -0.00000000000E+00 -0.31905263559E+03  0.31905516322E+03  0.12700000000E+01 0. -1.
         25    2    1    2    0    0  0.22497507863E+02  0.13918618204E+02 -0.26830501602E+03  0.29717224907E+03  0.12499559274E+03 0.  0.
    9000005    1    3    3    0    0 -0.28132442754E+02 -0.43013939800E+02 -0.10080292686E+03  0.11315415775E+03  0.10000000000E+01 0.  0.
    9000005    1    3    3    0    0  0.50629950617E+02  0.56932558004E+02 -0.16750208917E+03  0.18401809133E+03  0.10000000000E+01 0.  0.
         21    1    1    2  502  501 -0.22497507863E+02 -0.13918618204E+02 -0.31521008024E+02  0.41151424515E+02  0.00000000000E+00 0. -1.
<mgrwt>
<rscale>  1 0.12776449E+03</rscale>
<asrwt>0</asrwt>
<pdfrwt beam="2">  1        4 0.49088434E-01 0.12776449E+03</pdfrwt>
<pdfrwt beam="1">  1       -4 0.29613579E-02 0.12776449E+03</pdfrwt>
<totfact> 0.35840760E+03</totfact>
</mgrwt>
</event>
<event>
 6    4  0.2398389E-003  0.1272231E+03  0.7818608E-02  0.1231635E+00
          4   -1    0    0  502    0  0.00000000000E+00  0.00000000000E+00  0.11273089348E+03  0.11273804702E+03  0.12700000000E+01 0.  1.
         -4   -1    0    0    0  501 -0.00000000000E+00 -0.00000000000E+00 -0.54373305792E+02  0.54388135496E+02  0.12700000000E+01 0.  1.
         25    2    1    2    0    0  0.22529679878E+02  0.73308866380E+01  0.31019309729E+02  0.13095008797E+03  0.12499759834E+03 0.  0.
    9000005    1    3    3    0    0  0.20947144182E+02 -0.13972294283E+02 -0.45220506092E+02  0.51767770168E+02  0.10000000000E+01 0.  0.
    9000005    1    3    3    0    0  0.15825356962E+01  0.21303180921E+02  0.76239815821E+02  0.79182317805E+02  0.10000000000E+01 0.  0.
         21    1    1    2  502  501 -0.22529679878E+02 -0.73308866380E+01  0.27338277963E+02  0.36176094542E+02  0.00000000000E+00 0.  1.
<mgrwt>
<rscale>  1 0.12722314E+03</rscale>
<asrwt>0</asrwt>
<pdfrwt beam="1">  1        4 0.17344905E-01 0.12722314E+03</pdfrwt>
<pdfrwt beam="2">  1       -4 0.83668151E-02 0.12722314E+03</pdfrwt>
<totfact> 0.47999539E+03</totfact>
</mgrwt>
</event>
<event>
 6    4  0.2398389E-003  0.1302825E+03  0.7818608E-02  0.1227037E+00
          4   -1    0    0  502    0  0.00000000000E+00  0.00000000000E+00  0.14055543550E+04  0.14055549288E+04  0.12700000000E+01 0. -1.
         -4   -1    0    0    0  501 -0.00000000000E+00 -0.00000000000E+00 -0.26342411327E+03  0.26342717467E+03  0.12700000000E+01 0. -1.
         25    2    1    2    0    0  0.25214081916E+02 -0.26689438178E+02 -0.24706008380E+03  0.27930666053E+03  0.12500179827E+03 0.  0.
    9000005    1    3    3    0    0 -0.74530313522E+01 -0.66680169867E+02 -0.79847374722E+02  0.10429954928E+03  0.10000000000E+01 0.  0.
    9000005    1    3    3    0    0  0.32667113268E+02  0.39990731689E+02 -0.16721270908E+03  0.17500711125E+03  0.10000000000E+01 0.  0.
         21    1    1    2  502  501 -0.25214081916E+02  0.26689438178E+02  0.13891903256E+04  0.13896754429E+04  0.00000000000E+00 0. -1.
<mgrwt>
<rscale>  1 0.13028248E+03</rscale>
<asrwt>0</asrwt>
<pdfrwt beam="1">  1        4 0.21623941E+00 0.13028248E+03</pdfrwt>
<pdfrwt beam="2">  1       -4 0.40527067E-01 0.13028248E+03</pdfrwt>
<totfact> 0.11902832E+00</totfact>
</mgrwt>
</event>
<event>
 6    4  0.2398389E-003  0.1274923E+03  0.7818608E-02  0.1231225E+00
         -4   -1    0    0    0  501 -0.00000000000E+00  0.00000000000E+00  0.24562291054E+03  0.24562619381E+03  0.12700000000E+01 0.  1.
          4   -1    0    0  502    0  0.00000000000E+00 -0.00000000000E+00 -0.23766478123E+02  0.23800386181E+02  0.12700000000E+01 0.  1.
         25    2    1    2    0    0  0.22824335166E+02 -0.10414464443E+02  0.19128635454E+03  0.22987988598E+03  0.12499952479E+03 0.  0.
    9000005    1    3    3    0    0 -0.23403644446E+02 -0.35869901387E+02  0.14260191952E+02  0.45152336300E+02  0.10000000000E+01 0.  0.
    9000005    1    3    3    0    0  0.46227979612E+02  0.25455436944E+02  0.17702616259E+03  0.18472754968E+03  0.10000000000E+01 0.  0.
         21    1    1    2  502  501 -0.22824335166E+02  0.10414464443E+02  0.30570077878E+02  0.39546694007E+02  0.00000000000E+00 0. -1.
<mgrwt>
<rscale>  1 0.12749232E+03</rscale>
<asrwt>0</asrwt>
<pdfrwt beam="2">  1        4 0.36592423E-02 0.12749232E+03</pdfrwt>
<pdfrwt beam="1">  1       -4 0.37791000E-01 0.12749232E+03</pdfrwt>
<totfact> 0.43204585E+03</totfact>
</mgrwt>
</event>
<event>
 6    4  0.2398389E-003  0.1275984E+03  0.7818608E-02  0.1231063E+00
          4   -1    0    0  502    0  0.00000000000E+00  0.00000000000E+00  0.32794859798E+02  0.32819441329E+02  0.12700000000E+01 0. -1.
         -4   -1    0    0    0  501 -0.00000000000E+00 -0.00000000000E+00 -0.17942134666E+03  0.17942584133E+03  0.12700000000E+01 0. -1.
         25    2    1    2    0    0  0.10986764052E+02  0.23162384991E+02 -0.11769492172E+03  0.17358987522E+03  0.12499658042E+03 0.  0.
    9000005    1    3    3    0    0  0.34561804061E+02  0.51980781272E+02 -0.14798985564E+02  0.64160189334E+02  0.10000000000E+01 0.  0.
    9000005    1    3    3    0    0 -0.23575040009E+02 -0.28818396281E+02 -0.10289593616E+03  0.10942968589E+03  0.10000000000E+01 0.  0.
         21    1    1    2  502  501 -0.10986764052E+02 -0.23162384991E+02 -0.28931565143E+02  0.38655407441E+02  0.00000000000E+00 0.  1.
<mgrwt>
<rscale>  1 0.12759839E+03</rscale>
<asrwt>0</asrwt>
<pdfrwt beam="1">  1        4 0.50475998E-02 0.12759839E+03</pdfrwt>
<pdfrwt beam="2">  1       -4 0.27605520E-01 0.12759839E+03</pdfrwt>
<totfact> 0.47123392E+03</totfact>
</mgrwt>
</event>
<event>
 6    4  0.2398389E-003  0.1286179E+03  0.7818608E-02  0.1229521E+00
         -4   -1    0    0    0  501 -0.00000000000E+00  0.00000000000E+00  0.30631339894E+02  0.30657656200E+02  0.12700000000E+01 0.  1.
          4   -1    0    0  502    0  0.00000000000E+00 -0.00000000000E+00 -0.21813172666E+03  0.21813542371E+03  0.12700000000E+01 0.  1.
         25    2    1    2    0    0  0.99998938818E+01  0.28584173164E+02 -0.17200811365E+03  0.21477744586E+03  0.12500202901E+03 0.  0.
    9000005    1    3    3    0    0  0.50540814698E+02 -0.98951892540E+01 -0.24516970350E+02  0.57047090687E+02  0.10000000000E+01 0.  0.
    9000005    1    3    3    0    0 -0.40540920816E+02  0.38479362418E+02 -0.14749114330E+03  0.15773035518E+03  0.10000000000E+01 0.  0.
         21    1    1    2  502  501 -0.99998938818E+01 -0.28584173164E+02 -0.15492273120E+02  0.34015634046E+02  0.00000000000E+00 0.  1.
<mgrwt>
<rscale>  1 0.12861788E+03</rscale>
<asrwt>0</asrwt>
<pdfrwt beam="2">  1        4 0.33561035E-01 0.12861788E+03</pdfrwt>
<pdfrwt beam="1">  1       -4 0.47148227E-02 0.12861788E+03</pdfrwt>
<totfact> 0.36401680E+03</totfact>
</mgrwt>
</event>
<event>
 6    4  0.2398389E-003  0.1296941E+03  0.7818608E-02  0.1227910E+00
          4   -1    0    0  502    0  0.00000000000E+00  0.00000000000E+00  0.54519375166E+03  0.54519523086E+03  0.12700000000E+01 0.  1.
         -4   -1    0    0    0  501 -0.00000000000E+00 -0.00000000000E+00 -0.43981360958E+02  0.43999693314E+02  0.12700000000E+01 0.  1.
         25    2    1    2    0    0  0.86265403087E+01 -0.33491463548E+02  0.53738574656E+02  0.14038660052E+03  0.12499787147E+03 0.  0.
    9000005    1    3    3    0    0  0.60783087261E+02  0.79941100099E+01  0.14366634169E+02  0.62975309997E+02  0.10000000000E+01 0.  0.
    9000005    1    3    3    0    0 -0.52156546952E+02 -0.41485573558E+02  0.39371940488E+02  0.77411290528E+02  0.10000000000E+01 0.  0.
         21    1    1    2  502  501 -0.86265403087E+01  0.33491463548E+02  0.44747381605E+03  0.44880832365E+03  0.00000000000E+00 0.  1.
<mgrwt>
<rscale>  1 0.12969411E+03</rscale>
<asrwt>0</asrwt>
<pdfrwt beam="1">  1        4 0.83877484E-01 0.12969411E+03</pdfrwt>
<pdfrwt beam="2">  1       -4 0.67678873E-02 0.12969411E+03</pdfrwt>
<totfact> 0.30775423E+02</totfact>
</mgrwt>
</event>
<event>
 6    4  0.2398389E-003  0.1266618E+03  0.7818608E-02  0.1232495E+00
         -4   -1    0    0    0  501 -0.00000000000E+00  0.00000000000E+00  0.12439435150E+02  0.12504097202E+02  0.12700000000E+01 0.  1.
          4   -1    0    0  502    0  0.00000000000E+00 -0.00000000000E+00 -0.87620243564E+03  0.87620335603E+03  0.12700000000E+01 0.  1.
         25    2    1    2    0    0 -0.25922620036E+01  0.20287739824E+02 -0.31427820072E+03  0.33884214483E+03  0.12499959782E+03 0.  0.
    9000005    1    3    3    0    0  0.22301312610E+02 -0.25823277375E+02 -0.19237680958E+02  0.39182630937E+02  0.10000000000E+01 0.  0.
    9000005    1    3    3    0    0 -0.24893574614E+02  0.46111017199E+02 -0.29504051976E+03  0.29965951389E+03  0.10000000000E+01 0.  0.
         21    1    1    2  502  501  0.25922620036E+01 -0.20287739824E+02 -0.54948479977E+03  0.54986530841E+03  0.00000000000E+00 0.  1.
<mgrwt>
<rscale>  1 0.12666180E+03</rscale>
<asrwt>0</asrwt>
<pdfrwt beam="2">  1        4 0.13480537E+00 0.12666180E+03</pdfrwt>
<pdfrwt beam="1">  1       -4 0.19188047E-02 0.12666180E+03</pdfrwt>
<totfact> 0.74020007E+02</totfact>
</mgrwt>
</event>
<event>
 6    4  0.2398389E-003  0.1279317E+03  0.7818608E-02  0.1230557E+00
          4   -1    0    0  502    0  0.00000000000E+00  0.00000000000E+00  0.25797868018E+02  0.25829109437E+02  0.12700000000E+01 0.  1.
         -4   -1    0    0    0  501 -0.00000000000E+00 -0.00000000000E+00 -0.25881230961E+03  0.25881542556E+03  0.12700000000E+01 0.  1.
         25    2    1    2    0    0  0.27151417219E+02 -0.22944393919E+01 -0.21989621601E+03  0.25440297830E+03  0.12499626250E+03 0.  0.
    9000005    1    3    3    0    0 -0.81248465810E+01  0.45576418150E+02 -0.17175481692E+03  0.17788743676E+03  0.10000000000E+01 0.  0.
    9000005    1    3    3    0    0  0.35276263800E+02 -0.47870857542E+02 -0.48141399099E+02  0.76515541537E+02  0.10000000000E+01 0.  0.
         21    1    1    2  502  501 -0.27151417219E+02  0.22944393919E+01 -0.13118225577E+02  0.30241556696E+02  0.00000000000E+00 0.  1.
<mgrwt>
<rscale>  1 0.12793174E+03</rscale>
<asrwt>0</asrwt>
<pdfrwt beam="1">  1        4 0.39715458E-02 0.12793174E+03</pdfrwt>
<pdfrwt beam="2">  1       -4 0.39819920E-01 0.12793174E+03</pdfrwt>
<totfact> 0.34291480E+03</totfact>
</mgrwt>
</event>
<event>
 6    4  0.2398389E-003  0.1345483E+03  0.7818608E-02  0.1220859E+00
         -4   -1    0    0    0  501 -0.00000000000E+00  0.00000000000E+00  0.63505156315E+02  0.63517854014E+02  0.12700000000E+01 0. -1.
          4   -1    0    0  502    0  0.00000000000E+00 -0.00000000000E+00 -0.16802509385E+03  0.16802989336E+03  0.12700000000E+01 0. -1.
         25    2    1    2    0    0  0.31768963253E+02 -0.38330468161E+02 -0.23692397714E+02  0.13661838938E+03  0.12499905117E+03 0.  0.
    9000005    1    3    3    0    0 -0.19970708636E+02 -0.66525669909E+02  0.76233015880E+01  0.69882821118E+02  0.10000000000E+01 0.  0.
    9000005    1    3    3    0    0  0.51739671889E+02  0.28195201748E+02 -0.31315699302E+02  0.66735568265E+02  0.10000000000E+01 0.  0.
         21    1    1    2  502  501 -0.31768963253E+02  0.38330468161E+02 -0.80827539818E+02  0.94929357991E+02  0.00000000000E+00 0. -1.
<mgrwt>
<rscale>  1 0.13454834E+03</rscale>
<asrwt>0</asrwt>
<pdfrwt beam="2">  1        4 0.25851360E-01 0.13454834E+03</pdfrwt>
<pdfrwt beam="1">  1       -4 0.97713700E-02 0.13454834E+03</pdfrwt>
<totfact> 0.18229240E+03</totfact>
</mgrwt>
</event>
<event>
 6    4  0.2398389E-003  0.2047081E+03  0.7818608E-02  0.1145827E+00
         -4   -1    0    0    0  501 -0.00000000000E+00  0.00000000000E+00  0.14880952862E+03  0.14881494787E+03  0.12700000000E+01 0. -1.
          4   -1    0    0  502    0  0.00000000000E+00 -0.00000000000E+00 -0.26753719002E+03  0.26754020435E+03  0.12700000000E+01 0. -1.
         25    2    1    2    0    0 -0.57203733263E+02 -0.15166337287E+03  0.16346542053E+02  0.20535968732E+03  0.12502538130E+03 0.  0.
    9000005    1    3    3    0    0  0.26748607757E+02 -0.98401499787E+02 -0.10097104613E+02  0.10247582495E+03  0.10000000000E+01 0.  0.
    9000005    1    3    3    0    0 -0.83952341020E+02 -0.53261873083E+02  0.26443646666E+02  0.10288386237E+03  0.10000000000E+01 0.  0.
         21    1    1    2  502  501  0.57203733263E+02  0.15166337287E+03 -0.13507420345E+03  0.21099546490E+03  0.00000000000E+00 0. -1.
<mgrwt>
<rscale>  1 0.20470806E+03</rscale>
<asrwt>0</asrwt>
<pdfrwt beam="2">  1        4 0.41160216E-01 0.20470806E+03</pdfrwt>
<pdfrwt beam="1">  1       -4 0.22894422E-01 0.20470806E+03</pdfrwt>
<totfact> 0.18069608E+02</totfact>
</mgrwt>
</event>
<event>
 6    4  0.2398389E-003  0.1266001E+03  0.7818608E-02  0.1232590E+00
         -4   -1    0    0    0  501 -0.00000000000E+00  0.00000000000E+00  0.81904575415E+03  0.81904673877E+03  0.12700000000E+01 0. -1.
          4   -1    0    0  502    0  0.00000000000E+00 -0.00000000000E+00 -0.72917494623E+01  0.74015208046E+01  0.12700000000E+01 0. -1.
         25    2    1    2    0    0 -0.19995504597E+02  0.16025269208E+01  0.76735186797E+03  0.77772518453E+03  0.12500074033E+03 0.  0.
    9000005    1    3    3    0    0 -0.44859696897E+02  0.44511196367E+02  0.24490905371E+03  0.25293296266E+03  0.10000000000E+01 0.  0.
    9000005    1    3    3    0    0  0.24864192300E+02 -0.42908669446E+02  0.52244281425E+03  0.52479222187E+03  0.10000000000E+01 0.  0.
         21    1    1    2  502  501  0.19995504597E+02 -0.16025269208E+01  0.44402136722E+02  0.48723075048E+02  0.00000000000E+00 0.  1.
<mgrwt>
<rscale>  1 0.12660005E+03</rscale>
<asrwt>0</asrwt>
<pdfrwt beam="2">  1        4 0.11303282E-02 0.12660005E+03</pdfrwt>
<pdfrwt beam="1">  1       -4 0.12601546E+00 0.12660005E+03</pdfrwt>
<totfact> 0.19526933E+03</totfact>
</mgrwt>
</event>
<event>
 6    4  0.2398389E-003  0.1286728E+03  0.7818608E-02  0.1229438E+00
          4   -1    0    0  502    0  0.00000000000E+00  0.00000000000E+00  0.80642099697E+01  0.81636010704E+01  0.12700000000E+01 0.  1.
         -4   -1    0    0    0  501 -0.00000000000E+00 -0.00000000000E+00 -0.89070858590E+03  0.89070949130E+03  0.12700000000E+01 0.  1.
         25    2    1    2    0    0 -0.28231990494E+02  0.11606267752E+02 -0.80875454852E+03  0.81892650187E+03  0.12499977989E+03 0.  0.
    9000005    1    3    3    0    0 -0.10481562035E+02  0.33436546973E+02 -0.58892141592E+02  0.68535758239E+02  0.10000000000E+01 0.  0.
    9000005    1    3    3    0    0 -0.17750428458E+02 -0.21830279221E+02 -0.74986240693E+03  0.75039074363E+03  0.10000000000E+01 0.  0.
         21    1    1    2  502  501  0.28231990494E+02 -0.11606267752E+02 -0.73889827406E+02  0.79946590499E+02  0.00000000000E+00 0.  1.
<mgrwt>
<rscale>  1 0.12867282E+03</rscale>
<asrwt>0</asrwt>
<pdfrwt beam="1">  1        4 0.12483635E-02 0.12867282E+03</pdfrwt>
<pdfrwt beam="2">  1       -4 0.13703973E+00 0.12867282E+03</pdfrwt>
<totfact> 0.13734349E+03</totfact>
</mgrwt>
</event>
<event>
 6    4  0.2398389E-003  0.1267056E+03  0.7818608E-02  0.1232428E+00
          4   -1    0    0  502    0  0.00000000000E+00  0.00000000000E+00  0.43320215457E+03  0.43320401617E+03  0.12700000000E+01 0.  1.
         -4   -1    0    0    0  501 -0.00000000000E+00 -0.00000000000E+00 -0.13385082333E+02  0.13445197249E+02  0.12700000000E+01 0.  1.
         25    2    1    2    0    0 -0.12794265169E+02 -0.16284393329E+02  0.30996399027E+03  0.33486113576E+03  0.12500172117E+03 0.  0.
    9000005    1    3    3    0    0  0.32554101921E+02 -0.18635207432E+02  0.22334944152E+02  0.43667954362E+02  0.10000000000E+01 0.  0.
    9000005    1    3    3    0    0 -0.45348367090E+02  0.23508141038E+01  0.28762904612E+03  0.29119318140E+03  0.10000000000E+01 0.  0.
         21    1    1    2  502  501  0.12794265169E+02  0.16284393329E+02  0.10985308197E+03  0.11178807765E+03  0.00000000000E+00 0.  1.
<mgrwt>
<rscale>  1 0.12670558E+03</rscale>
<asrwt>0</asrwt>
<pdfrwt beam="1">  1        4 0.66651248E-01 0.12670558E+03</pdfrwt>
<pdfrwt beam="2">  1       -4 0.20640110E-02 0.12670558E+03</pdfrwt>
<totfact> 0.33141441E+03</totfact>
</mgrwt>
</event>
<event>
 6    4  0.2398389E-003  0.1421478E+03  0.7818608E-02  0.1210468E+00
          4   -1    0    0  502    0  0.00000000000E+00  0.00000000000E+00  0.36994650764E+02  0.37016443443E+02  0.12700000000E+01 0. -1.
         -4   -1    0    0    0  501 -0.00000000000E+00 -0.00000000000E+00 -0.32600460523E+03  0.32600707895E+03  0.12700000000E+01 0. -1.
         25    2    1    2    0    0  0.31938239811E+02 -0.59680238818E+02 -0.24183417981E+03  0.28051694216E+03  0.12499680896E+03 0.  0.
    9000005    1    3    3    0    0  0.16701223713E+02 -0.11236545436E+02 -0.22659122242E+03  0.22748576418E+03  0.10000000000E+01 0.  0.
    9000005    1    3    3    0    0  0.15237016098E+02 -0.48443693382E+02 -0.15242957384E+02  0.53031177980E+02  0.10000000000E+01 0.  0.
         21    1    1    2  502  501 -0.31938239811E+02  0.59680238818E+02 -0.47175774654E+02  0.82506580233E+02  0.00000000000E+00 0. -1.
<mgrwt>
<rscale>  1 0.14214776E+03</rscale>
<asrwt>0</asrwt>
<pdfrwt beam="1">  1        4 0.56933516E-02 0.14214776E+03</pdfrwt>
<pdfrwt beam="2">  1       -4 0.50156419E-01 0.14214776E+03</pdfrwt>
<totfact> 0.12420519E+03</totfact>
</mgrwt>
</event>
<event>
 6    4  0.2398389E-003  0.1378513E+03  0.7818608E-02  0.1216250E+00
          4   -1    0    0  502    0  0.00000000000E+00  0.00000000000E+00  0.12685056590E+03  0.12685692322E+03  0.12700000000E+01 0.  1.
         -4   -1    0    0    0  501 -0.00000000000E+00 -0.00000000000E+00 -0.77104178455E+02  0.77114636971E+02  0.12700000000E+01 0.  1.
         25    2    1    2    0    0  0.33651403508E+02 -0.47303776716E+02  0.21878187276E+02  0.13957667817E+03  0.12503171502E+03 0.  0.
    9000005    1    3    3    0    0 -0.36652089381E+01 -0.64378300664E+02 -0.31878427472E+02  0.71939095706E+02  0.10000000000E+01 0.  0.
    9000005    1    3    3    0    0  0.37316612446E+02  0.17074523948E+02  0.53756614748E+02  0.67637582465E+02  0.10000000000E+01 0.  0.
         21    1    1    2  502  501 -0.33651403508E+02  0.47303776716E+02  0.27868200168E+02  0.64394882020E+02  0.00000000000E+00 0.  1.
<mgrwt>
<rscale>  1 0.13785135E+03</rscale>
<asrwt>0</asrwt>
<pdfrwt beam="1">  1        4 0.19516765E-01 0.13785135E+03</pdfrwt>
<pdfrwt beam="2">  1       -4 0.11863475E-01 0.13785135E+03</pdfrwt>
<totfact> 0.22021092E+03</totfact>
</mgrwt>
</event>
<event>
 6    4  0.2398389E-003  0.1273157E+03  0.7818608E-02  0.1231494E+00
         -4   -1    0    0    0  501 -0.00000000000E+00  0.00000000000E+00  0.50743335502E+02  0.50759225741E+02  0.12700000000E+01 0.  1.
          4   -1    0    0  502    0  0.00000000000E+00 -0.00000000000E+00 -0.11319289141E+03  0.11320001575E+03  0.12700000000E+01 0.  1.
         25    2    1    2    0    0  0.40757494329E+01 -0.23762814666E+02 -0.55341223529E+02  0.13882338099E+03  0.12501198740E+03 0.  0.
    9000005    1    3    3    0    0 -0.54038441717E+02 -0.51258556313E+01  0.30203574203E+01  0.54374167930E+02  0.10000000000E+01 0.  0.
    9000005    1    3    3    0    0  0.58114191149E+02 -0.18636959034E+02 -0.58361580950E+02  0.84449213057E+02  0.10000000000E+01 0.  0.
         21    1    1    2  502  501 -0.40757494329E+01  0.23762814666E+02 -0.71083323835E+01  0.25135860509E+02  0.00000000000E+00 0.  1.
<mgrwt>
<rscale>  1 0.12731567E+03</rscale>
<asrwt>0</asrwt>
<pdfrwt beam="2">  1        4 0.17416061E-01 0.12731567E+03</pdfrwt>
<pdfrwt beam="1">  1       -4 0.78084374E-02 0.12731567E+03</pdfrwt>
<totfact> 0.53435724E+03</totfact>
</mgrwt>
</event>
<event>
 6    4  0.2398389E-003  0.1270571E+03  0.7818608E-02  0.1231889E+00
         -4   -1    0    0    0  501 -0.00000000000E+00  0.00000000000E+00  0.68851355827E+03  0.68851472956E+03  0.12700000000E+01 0. -1.
          4   -1    0    0  502    0  0.00000000000E+00 -0.00000000000E+00 -0.11563419956E+02  0.11632952380E+02  0.12700000000E+01 0. -1.
         25    2    1    2    0    0 -0.38228918243E+01  0.22452428280E+02  0.65903331306E+03  0.67116943726E+03  0.12499911901E+03 0.  0.
    9000005    1    3    3    0    0 -0.35401649975E+02 -0.41947748697E+02  0.25881050275E+03  0.26456902082E+03  0.10000000000E+01 0.  0.
    9000005    1    3    3    0    0  0.31578758151E+02  0.64400176977E+02  0.40022281030E+03  0.40660041644E+03  0.10000000000E+01 0.  0.
         21    1    1    2  502  501  0.38228918243E+01 -0.22452428280E+02  0.17916825257E+02  0.28978244682E+02  0.00000000000E+00 0. -1.
<mgrwt>
<rscale>  1 0.12705710E+03</rscale>
<asrwt>0</asrwt>
<pdfrwt beam="2">  1        4 0.17844263E-02 0.12705710E+03</pdfrwt>
<pdfrwt beam="1">  1       -4 0.10593061E+00 0.12705710E+03</pdfrwt>
<totfact> 0.14754038E+03</totfact>
</mgrwt>
</event>
<event>
 6    4  0.2398389E-003  0.1268031E+03  0.7818608E-02  0.1232278E+00
         -4   -1    0    0    0  501 -0.00000000000E+00  0.00000000000E+00  0.90924239739E+02  0.90933108779E+02  0.12700000000E+01 0.  1.
          4   -1    0    0  502    0  0.00000000000E+00 -0.00000000000E+00 -0.61407749327E+02  0.61420880630E+02  0.12700000000E+01 0.  1.
         25    2    1    2    0    0  0.50297037016E+01  0.20645786162E+02  0.32484839711E+02  0.13089804610E+03  0.12500994863E+03 0.  0.
    9000005    1    3    3    0    0 -0.21700852493E+02  0.18747418126E+01  0.74525948778E+02  0.77650233077E+02  0.10000000000E+01 0.  0.
    9000005    1    3    3    0    0  0.26730556195E+02  0.18771044350E+02 -0.42041109066E+02  0.53247813025E+02  0.10000000000E+01 0.  0.
         21    1    1    2  502  501 -0.50297037016E+01 -0.20645786162E+02 -0.29683492987E+01  0.21455943306E+02  0.00000000000E+00 0. -1.
<mgrwt>
<rscale>  1 0.12680313E+03</rscale>
<asrwt>0</asrwt>
<pdfrwt beam="2">  1        4 0.94490384E-02 0.12680313E+03</pdfrwt>
<pdfrwt beam="1">  1       -4 0.13990037E-01 0.12680313E+03</pdfrwt>
<totfact> 0.57039592E+03</totfact>
</mgrwt>
</event>
<event>
 6    4  0.2398389E-003  0.1423874E+03  0.7818608E-02  0.1210152E+00
         -4   -1    0    0    0  501 -0.00000000000E+00  0.00000000000E+00  0.91597808537E+01  0.92474042459E+01  0.12700000000E+01 0.  1.
          4   -1    0    0  502    0  0.00000000000E+00 -0.00000000000E+00 -0.13780183607E+04  0.13780189459E+04  0.12700000000E+01 0.  1.
         25    2    1    2    0    0  0.56540079869E+02 -0.38113093724E+02 -0.66273849130E+03  0.67786169274E+03  0.12499911232E+03 0.  0.
    9000005    1    3    3    0    0 -0.27119523694E+02 -0.49266847122E+02 -0.31834053780E+03  0.32327138567E+03  0.10000000000E+01 0.  0.
    9000005    1    3    3    0    0  0.83659603563E+02  0.11153753397E+02 -0.34439795351E+03  0.35459030706E+03  0.10000000000E+01 0.  0.
         21    1    1    2  502  501 -0.56540079869E+02  0.38113093724E+02 -0.70612008854E+03  0.70940465743E+03  0.00000000000E+00 0.  1.
<mgrwt>
<rscale>  1 0.14238738E+03</rscale>
<asrwt>0</asrwt>
<pdfrwt beam="2">  1        4 0.21200945E+00 0.14238738E+03</pdfrwt>
<pdfrwt beam="1">  1       -4 0.14159834E-02 0.14238738E+03</pdfrwt>
<totfact> 0.35877964E+02</totfact>
</mgrwt>
</event>
<event>
 6    4  0.2398389E-003  0.1378035E+03  0.7818608E-02  0.1216315E+00
         -4   -1    0    0    0  501 -0.00000000000E+00  0.00000000000E+00  0.20368434140E+03  0.20368830068E+03  0.12700000000E+01 0. -1.
          4   -1    0    0  502    0  0.00000000000E+00 -0.00000000000E+00 -0.49707745978E+02  0.49723967161E+02  0.12700000000E+01 0. -1.
         25    2    1    2    0    0  0.10808563282E+01  0.57997863993E+02  0.13358699782E+03  0.19192522718E+03  0.12499954545E+03 0.  0.
    9000005    1    3    3    0    0  0.14700303740E+01 -0.99325735763E+01 -0.20873009304E+02  0.23184035985E+02  0.10000000000E+01 0.  0.
    9000005    1    3    3    0    0 -0.38917404572E+00  0.67930437569E+02  0.15446000713E+03  0.16874119120E+03  0.10000000000E+01 0.  0.
         21    1    1    2  502  501 -0.10808563282E+01 -0.57997863993E+02  0.20389597600E+02  0.61487040654E+02  0.00000000000E+00 0. -1.
<mgrwt>
<rscale>  1 0.13780351E+03</rscale>
<asrwt>0</asrwt>
<pdfrwt beam="2">  1        4 0.76488980E-02 0.13780351E+03</pdfrwt>
<pdfrwt beam="1">  1       -4 0.31337604E-01 0.13780351E+03</pdfrwt>
<totfact> 0.19203107E+03</totfact>
</mgrwt>
</event>
<event>
 6    4  0.2398389E-003  0.1514550E+03  0.7818608E-02  0.1198696E+00
          4   -1    0    0  502    0  0.00000000000E+00  0.00000000000E+00  0.38414638888E+03  0.38414848820E+03  0.12700000000E+01 0.  1.
         -4   -1    0    0    0  501 -0.00000000000E+00 -0.00000000000E+00 -0.36823379954E+02  0.36845273934E+02  0.12700000000E+01 0.  1.
         25    2    1    2    0    0  0.14243252137E+01 -0.85505458470E+02  0.23956667721E+03  0.28342690874E+03  0.12500163053E+03 0.  0.
    9000005    1    3    3    0    0 -0.43148387001E+02 -0.58275663157E+02  0.21261671200E+03  0.22464350077E+03  0.10000000000E+01 0.  0.
    9000005    1    3    3    0    0  0.44572712215E+02 -0.27229795313E+02  0.26949965213E+02  0.58783407965E+02  0.10000000000E+01 0.  0.
         21    1    1    2  502  501 -0.14243252137E+01  0.85505458470E+02  0.10775633171E+03  0.13756685340E+03  0.00000000000E+00 0.  1.
<mgrwt>
<rscale>  1 0.15145501E+03</rscale>
<asrwt>0</asrwt>
<pdfrwt beam="1">  1        4 0.59101287E-01 0.15145501E+03</pdfrwt>
<pdfrwt beam="2">  1       -4 0.56669813E-02 0.15145501E+03</pdfrwt>
<totfact> 0.90275849E+02</totfact>
</mgrwt>
</event>
<event>
 6    4  0.2398389E-003  0.1306376E+03  0.7818608E-02  0.1226513E+00
          4   -1    0    0  502    0  0.00000000000E+00  0.00000000000E+00  0.54107181526E+03  0.54107330573E+03  0.12700000000E+01 0. -1.
         -4   -1    0    0    0  501 -0.00000000000E+00 -0.00000000000E+00 -0.14654494920E+02  0.14709422877E+02  0.12700000000E+01 0. -1.
         25    2    1    2    0    0  0.33410978124E+02  0.18026325053E+02  0.46972829722E+03  0.48755599487E+03  0.12499973227E+03 0.  0.
    9000005    1    3    3    0    0 -0.18433867091E+02 -0.43896805206E+02  0.21986847840E+03  0.22496640806E+03  0.10000000000E+01 0.  0.
    9000005    1    3    3    0    0  0.51844845214E+02  0.61923130259E+02  0.24985981882E+03  0.26258958680E+03  0.10000000000E+01 0.  0.
         21    1    1    2  502  501 -0.33410978124E+02 -0.18026325053E+02  0.56689023125E+02  0.68226733741E+02  0.00000000000E+00 0. -1.
<mgrwt>
<rscale>  1 0.13063757E+03</rscale>
<asrwt>0</asrwt>
<pdfrwt beam="1">  1        4 0.83246156E-01 0.13063757E+03</pdfrwt>
<pdfrwt beam="2">  1       -4 0.22588776E-02 0.13063757E+03</pdfrwt>
<totfact> 0.17887644E+03</totfact>
</mgrwt>
</event>
<event>
 6    4  0.2398389E-003  0.1383762E+03  0.7818608E-02  0.1215531E+00
          4   -1    0    0  502    0  0.00000000000E+00  0.00000000000E+00  0.44417729112E+02  0.44435881441E+02  0.12700000000E+01 0.  1.
         -4   -1    0    0    0  501 -0.00000000000E+00 -0.00000000000E+00 -0.22087160582E+03  0.22087525700E+03  0.12700000000E+01 0.  1.
         25    2    1    2    0    0  0.45930237590E+02  0.37599543762E+02 -0.13099944304E+03  0.19054872840E+03  0.12499860560E+03 0.  0.
    9000005    1    3    3    0    0  0.33323201715E+01  0.36269664046E+02 -0.14193575836E+03  0.14653788722E+03  0.10000000000E+01 0.  0.
    9000005    1    3    3    0    0  0.42597917418E+02  0.13298797161E+01  0.10936315325E+02  0.44010841179E+02  0.10000000000E+01 0.  0.
         21    1    1    2  502  501 -0.45930237590E+02 -0.37599543762E+02 -0.45454433667E+02  0.74762410048E+02  0.00000000000E+00 0.  1.
<mgrwt>
<rscale>  1 0.13837617E+03</rscale>
<asrwt>0</asrwt>
<pdfrwt beam="1">  1        4 0.68351741E-02 0.13837617E+03</pdfrwt>
<pdfrwt beam="2">  1       -4 0.33981924E-01 0.13837617E+03</pdfrwt>
<totfact> 0.19810190E+03</totfact>
</mgrwt>
</event>
<event>
 6    4  0.2398389E-003  0.1307802E+03  0.7818608E-02  0.1226303E+00
          4   -1    0    0  502    0  0.00000000000E+00  0.00000000000E+00  0.24881269786E+03  0.24881593903E+03  0.12700000000E+01 0.  1.
         -4   -1    0    0    0  501 -0.00000000000E+00 -0.00000000000E+00 -0.37546143454E+03  0.37546358242E+03  0.12700000000E+01 0.  1.
         25    2    1    2    0    0  0.37730630320E+02  0.74017277384E+01 -0.36247151985E+03  0.38534277020E+03  0.12500024723E+03 0.  0.
    9000005    1    3    3    0    0  0.19193914196E+02  0.64446142648E+02 -0.14657044201E+03  0.16126253786E+03  0.10000000000E+01 0.  0.
    9000005    1    3    3    0    0  0.18536716124E+02 -0.57044414910E+02 -0.21590107784E+03  0.22408023235E+03  0.10000000000E+01 0.  0.
         21    1    1    2  502  501 -0.37730630320E+02 -0.74017277384E+01  0.23582278317E+03  0.23893675125E+03  0.00000000000E+00 0.  1.
<mgrwt>
<rscale>  1 0.13078015E+03</rscale>
<asrwt>0</asrwt>
<pdfrwt beam="1">  1        4 0.38279291E-01 0.13078015E+03</pdfrwt>
<pdfrwt beam="2">  1       -4 0.57763712E-01 0.13078015E+03</pdfrwt>
<totfact> 0.32090409E+01</totfact>
</mgrwt>
</event>
<event>
 6    4  0.2398389E-003  0.1477358E+03  0.7818608E-02  0.1203283E+00
          4   -1    0    0  502    0  0.00000000000E+00  0.00000000000E+00  0.71760214526E+02  0.71771451767E+02  0.12700000000E+01 0. -1.
         -4   -1    0    0    0  501 -0.00000000000E+00 -0.00000000000E+00 -0.47499455702E+03  0.47499625483E+03  0.12700000000E+01 0. -1.
         25    2    1    2    0    0 -0.26259179295E+02 -0.74240454799E+02 -0.43684286009E+03  0.46114807053E+03  0.12499867566E+03 0.  0.
    9000005    1    3    3    0    0  0.38991451657E+02 -0.52195349094E+02 -0.11650490349E+03  0.13348812796E+03  0.10000000000E+01 0.  0.
    9000005    1    3    3    0    0 -0.65250630952E+02 -0.22045105704E+02 -0.32033795660E+03  0.32765994257E+03  0.10000000000E+01 0.  0.
         21    1    1    2  502  501  0.26259179295E+02  0.74240454799E+02  0.33608517590E+02  0.85619636069E+02  0.00000000000E+00 0. -1.
<mgrwt>
<rscale>  1 0.14773577E+03</rscale>
<asrwt>0</asrwt>
<pdfrwt beam="1">  1        4 0.11041028E-01 0.14773577E+03</pdfrwt>
<pdfrwt beam="2">  1       -4 0.73077079E-01 0.14773577E+03</pdfrwt>
<totfact> 0.18864073E+02</totfact>
</mgrwt>
</event>
<event>
 6    4  0.2398389E-003  0.1273620E+03  0.7818608E-02  0.1231423E+00
         -4   -1    0    0    0  501 -0.00000000000E+00  0.00000000000E+00  0.40296916480E+01  0.42250816298E+01  0.12700000000E+01 0.  1.
          4   -1    0    0  502    0  0.00000000000E+00 -0.00000000000E+00 -0.20306569626E+04  0.20306573597E+04  0.12700000000E+01 0.  1.
         25    2    1    2    0    0 -0.24220909067E+02  0.30328621496E+01 -0.10148347934E+04  0.10227955536E+04  0.12500094380E+03 0.  0.
    9000005    1    3    3    0    0  0.11757470358E+02  0.53773646504E+02 -0.28190407785E+03  0.28722944187E+03  0.10000000000E+01 0.  0.
    9000005    1    3    3    0    0 -0.35978379425E+02 -0.50740784354E+02 -0.73293071554E+03  0.73556611176E+03  0.10000000000E+01 0.  0.
         21    1    1    2  502  501  0.24220909067E+02 -0.30328621496E+01 -0.10117924776E+04  0.10120868877E+04  0.00000000000E+00 0.  1.
<mgrwt>
<rscale>  1 0.12736203E+03</rscale>
<asrwt>0</asrwt>
<pdfrwt beam="2">  1        4 0.31242303E+00 0.12736203E+03</pdfrwt>
<pdfrwt beam="1">  1       -4 0.63501473E-03 0.12736203E+03</pdfrwt>
<totfact> 0.30775036E+02</totfact>
</mgrwt>
</event>
<event>
 6    4  0.2398389E-003  0.1283259E+03  0.7818608E-02  0.1229961E+00
          4   -1    0    0  502    0  0.00000000000E+00  0.00000000000E+00  0.35470642560E+03  0.35470869916E+03  0.12700000000E+01 0.  1.
         -4   -1    0    0    0  501 -0.00000000000E+00 -0.00000000000E+00 -0.23249041030E+02  0.23283702644E+02  0.12700000000E+01 0.  1.
         25    2    1    2    0    0 -0.60350082426E+01  0.28405253646E+02  0.16503388329E+03  0.20905436128E+03  0.12499705427E+03 0.  0.
    9000005    1    3    3    0    0  0.40313854491E+02  0.55129533228E+02  0.12419980362E+03  0.14174294874E+03  0.10000000000E+01 0.  0.
    9000005    1    3    3    0    0 -0.46348862734E+02 -0.26724279583E+02  0.40834079674E+02  0.67311412545E+02  0.10000000000E+01 0.  0.
         21    1    1    2  502  501  0.60350082426E+01 -0.28405253646E+02  0.16642350128E+03  0.16893804053E+03  0.00000000000E+00 0. -1.
<mgrwt>
<rscale>  1 0.12832593E+03</rscale>
<asrwt>0</asrwt>
<pdfrwt beam="1">  1        4 0.54573055E-01 0.12832593E+03</pdfrwt>
<pdfrwt beam="2">  1       -4 0.35796171E-02 0.12832593E+03</pdfrwt>
<totfact> 0.21448034E+03</totfact>
</mgrwt>
</event>
<event>
 6    4  0.2398389E-003  0.1270197E+03  0.7818608E-02  0.1231946E+00
          4   -1    0    0  502    0  0.00000000000E+00  0.00000000000E+00  0.53363425120E+02  0.53378535391E+02  0.12700000000E+01 0.  1.
         -4   -1    0    0    0  501 -0.00000000000E+00 -0.00000000000E+00 -0.10499943048E+03  0.10500711072E+03  0.12700000000E+01 0.  1.
         25    2    1    2    0    0 -0.18575540237E+02 -0.12765142824E+02 -0.41081249199E+02  0.13349784902E+03  0.12500402830E+03 0.  0.
    9000005    1    3    3    0    0 -0.22331942731E+02 -0.56694830926E+02 -0.59988881665E+02  0.85514241172E+02  0.10000000000E+01 0.  0.
    9000005    1    3    3    0    0  0.37564024940E+01  0.43929688103E+02  0.18907632466E+02  0.47983607846E+02  0.10000000000E+01 0.  0.
         21    1    1    2  502  501  0.18575540237E+02  0.12765142824E+02 -0.10554756163E+02  0.24887797092E+02  0.00000000000E+00 0.  1.
<mgrwt>
<rscale>  1 0.12701971E+03</rscale>
<asrwt>0</asrwt>
<pdfrwt beam="1">  1        4 0.82115108E-02 0.12701971E+03</pdfrwt>
<pdfrwt beam="2">  1       -4 0.16155512E-01 0.12701971E+03</pdfrwt>
<totfact> 0.56096181E+03</totfact>
</mgrwt>
</event>
<event>
 6    4  0.2398389E-003  0.1271907E+03  0.7818608E-02  0.1231685E+00
          4   -1    0    0  502    0  0.00000000000E+00  0.00000000000E+00  0.32705894281E+03  0.32706140857E+03  0.12700000000E+01 0.  1.
         -4   -1    0    0    0  501 -0.00000000000E+00 -0.00000000000E+00 -0.18754980592E+02  0.18797930658E+02  0.12700000000E+01 0.  1.
         25    2    1    2    0    0 -0.17934124647E+02  0.15182000237E+02  0.21650977212E+03  0.25110545121E+03  0.12500136097E+03 0.  0.
    9000005    1    3    3    0    0 -0.93541534066E+00 -0.48283584299E+01  0.22378552197E+03  0.22384179210E+03  0.10000000000E+01 0.  0.
    9000005    1    3    3    0    0 -0.16998709307E+02  0.20010358666E+02 -0.72757498509E+01  0.27263659108E+02  0.10000000000E+01 0.  0.
         21    1    1    2  502  501  0.17934124647E+02 -0.15182000237E+02  0.91794190101E+02  0.94753888017E+02  0.00000000000E+00 0.  1.
<mgrwt>
<rscale>  1 0.12719067E+03</rscale>
<asrwt>0</asrwt>
<pdfrwt beam="1">  1        4 0.50320253E-01 0.12719067E+03</pdfrwt>
<pdfrwt beam="2">  1       -4 0.28888752E-02 0.12719067E+03</pdfrwt>
<totfact> 0.35386795E+03</totfact>
</mgrwt>
</event>
<event>
 6    4  0.2398389E-003  0.1271295E+03  0.7818608E-02  0.1231778E+00
         -4   -1    0    0    0  501 -0.00000000000E+00  0.00000000000E+00  0.38847261738E+03  0.38847469332E+03  0.12700000000E+01 0.  1.
          4   -1    0    0  502    0  0.00000000000E+00 -0.00000000000E+00 -0.23567973756E+02  0.23602166997E+02  0.12700000000E+01 0.  1.
         25    2    1    2    0    0  0.77619965138E+01 -0.21836981462E+02  0.36739443853E+03  0.38876803307E+03  0.12499923089E+03 0.  0.
    9000005    1    3    3    0    0 -0.10385861564E+02  0.29423440935E+02  0.30245563663E+03  0.30406252174E+03  0.10000000000E+01 0.  0.
    9000005    1    3    3    0    0  0.18147858078E+02 -0.51260422397E+02  0.64938801895E+02  0.84705511324E+02  0.10000000000E+01 0.  0.
         21    1    1    2  502  501 -0.77619965138E+01  0.21836981462E+02 -0.24897949073E+01  0.23308827253E+02  0.00000000000E+00 0.  1.
<mgrwt>
<rscale>  1 0.12712950E+03</rscale>
<asrwt>0</asrwt>
<pdfrwt beam="2">  1        4 0.36286322E-02 0.12712950E+03</pdfrwt>
<pdfrwt beam="1">  1       -4 0.59767805E-01 0.12712950E+03</pdfrwt>
<totfact> 0.17338174E+03</totfact>
</mgrwt>
</event>
<event>
 6    4  0.2398389E-003  0.1568151E+03  0.7818608E-02  0.1192340E+00
         -4   -1    0    0    0  501 -0.00000000000E+00  0.00000000000E+00  0.58951277200E+03  0.58951413999E+03  0.12700000000E+01 0. -1.
          4   -1    0    0  502    0  0.00000000000E+00 -0.00000000000E+00 -0.29154456850E+02  0.29182105034E+02  0.12700000000E+01 0. -1.
         25    2    1    2    0    0 -0.81177693915E+02 -0.48755383685E+02  0.25862771864E+03  0.30245542177E+03  0.12499631946E+03 0.  0.
    9000005    1    3    3    0    0 -0.93581915696E+02  0.12369487282E+02  0.15257916390E+03  0.17942123737E+03  0.10000000000E+01 0.  0.
    9000005    1    3    3    0    0  0.12404221781E+02 -0.61124870967E+02  0.10604855474E+03  0.12303418440E+03  0.10000000000E+01 0.  0.
         21    1    1    2  502  501  0.81177693915E+02  0.48755383685E+02  0.30173059650E+03  0.31624082326E+03  0.00000000000E+00 0. -1.
<mgrwt>
<rscale>  1 0.15681513E+03</rscale>
<asrwt>0</asrwt>
<pdfrwt beam="2">  1        4 0.44875333E-02 0.15681513E+03</pdfrwt>
<pdfrwt beam="1">  1       -4 0.90696500E-01 0.15681513E+03</pdfrwt>
<totfact> 0.52003893E+02</totfact>
</mgrwt>
</event>
<event>
 6    4  0.2398389E-003  0.1274428E+03  0.7818608E-02  0.1231300E+00
          4   -1    0    0  502    0  0.00000000000E+00  0.00000000000E+00  0.46760958257E+03  0.46761130719E+03  0.12700000000E+01 0.  1.
         -4   -1    0    0    0  501 -0.00000000000E+00 -0.00000000000E+00 -0.12959608247E+02  0.13021687522E+02  0.12700000000E+01 0.  1.
         25    2    1    2    0    0 -0.15078027058E+02  0.19685841955E+02  0.33459542136E+03  0.35804435347E+03  0.12500713494E+03 0.  0.
    9000005    1    3    3    0    0  0.39108834182E+01  0.44020667613E+02  0.33745838558E+02  0.55613809492E+02  0.10000000000E+01 0.  0.
    9000005    1    3    3    0    0 -0.18988910476E+02 -0.24334825658E+02  0.30084958280E+03  0.30243054398E+03  0.10000000000E+01 0.  0.
         21    1    1    2  502  501  0.15078027058E+02 -0.19685841955E+02  0.12005455296E+03  0.12258864124E+03  0.00000000000E+00 0.  1.
<mgrwt>
<rscale>  1 0.12744278E+03</rscale>
<asrwt>0</asrwt>
<pdfrwt beam="1">  1        4 0.71944836E-01 0.12744278E+03</pdfrwt>
<pdfrwt beam="2">  1       -4 0.19986941E-02 0.12744278E+03</pdfrwt>
<totfact> 0.29587274E+03</totfact>
</mgrwt>
</event>
<event>
 6    4  0.2398389E-003  0.1382756E+03  0.7818608E-02  0.1215668E+00
         -4   -1    0    0    0  501 -0.00000000000E+00  0.00000000000E+00  0.12149311918E+03  0.12149975683E+03  0.12700000000E+01 0.  1.
          4   -1    0    0  502    0  0.00000000000E+00 -0.00000000000E+00 -0.96831637515E+02  0.96839965530E+02  0.12700000000E+01 0.  1.
         25    2    1    2    0    0 -0.19528505981E+02 -0.55801639154E+02  0.58589369120E+02  0.15017604416E+03  0.12499977835E+03 0.  0.
    9000005    1    3    3    0    0  0.96487946000E+01 -0.33122074519E+01 -0.36386224105E+02  0.37802476904E+02  0.10000000000E+01 0.  0.
    9000005    1    3    3    0    0 -0.29177300581E+02 -0.52489431702E+02  0.94975593225E+02  0.11237356726E+03  0.10000000000E+01 0.  0.
         21    1    1    2  502  501  0.19528505981E+02  0.55801639154E+02 -0.33927887452E+02  0.68163678195E+02  0.00000000000E+00 0.  1.
<mgrwt>
<rscale>  1 0.13827556E+03</rscale>
<asrwt>0</asrwt>
<pdfrwt beam="2">  1        4 0.14898326E-01 0.13827556E+03</pdfrwt>
<pdfrwt beam="1">  1       -4 0.18692400E-01 0.13827556E+03</pdfrwt>
<totfact> 0.16063330E+03</totfact>
</mgrwt>
</event>
<event>
 6    4  0.2398389E-003  0.1294220E+03  0.7818608E-02  0.1228316E+00
          4   -1    0    0  502    0  0.00000000000E+00  0.00000000000E+00  0.23714749090E+03  0.23715089150E+03  0.12700000000E+01 0. -1.
         -4   -1    0    0    0  501 -0.00000000000E+00 -0.00000000000E+00 -0.28443154699E+02  0.28471493624E+02  0.12700000000E+01 0. -1.
         25    2    1    2    0    0  0.33372187634E+02 -0.33824237818E+01  0.15097534672E+03  0.19885577727E+03  0.12499968455E+03 0.  0.
    9000005    1    3    3    0    0  0.23792816456E+02 -0.59858538805E+02  0.11315005404E+03  0.13020398424E+03  0.10000000000E+01 0.  0.
    9000005    1    3    3    0    0  0.95793711774E+01  0.56476115023E+02  0.37825292689E+02  0.68651793038E+02  0.10000000000E+01 0.  0.
         21    1    1    2  502  501 -0.33372187634E+02  0.33824237818E+01  0.57728989478E+02  0.66766607854E+02  0.00000000000E+00 0. -1.
<mgrwt>
<rscale>  1 0.12942204E+03</rscale>
<asrwt>0</asrwt>
<pdfrwt beam="1">  1        4 0.36486671E-01 0.12942204E+03</pdfrwt>
<pdfrwt beam="2">  1       -4 0.43783115E-02 0.12942204E+03</pdfrwt>
<totfact> 0.34928205E+03</totfact>
</mgrwt>
</event>
<event>
 6    4  0.2398389E-003  0.1747256E+03  0.7818608E-02  0.1173008E+00
         -4   -1    0    0    0  501 -0.00000000000E+00  0.00000000000E+00  0.46861319944E+02  0.46878526074E+02  0.12700000000E+01 0.  1.
          4   -1    0    0  502    0  0.00000000000E+00 -0.00000000000E+00 -0.59191421840E+03  0.59191558085E+03  0.12700000000E+01 0.  1.
         25    2    1    2    0    0 -0.12107106641E+03 -0.15672553953E+02 -0.16769126579E+03  0.24217636415E+03  0.12500079465E+03 0.  0.
    9000005    1    3    3    0    0  0.25972584826E+02 -0.78484596460E+01 -0.20999873394E+02  0.34324454314E+02  0.10000000000E+01 0.  0.
    9000005    1    3    3    0    0 -0.14704365123E+03 -0.78240943073E+01 -0.14669139240E+03  0.20785190984E+03  0.10000000000E+01 0.  0.
         21    1    1    2  502  501  0.12107106641E+03  0.15672553953E+02 -0.37736163267E+03  0.39661774277E+03  0.00000000000E+00 0.  1.
<mgrwt>
<rscale>  1 0.17472559E+03</rscale>
<asrwt>0</asrwt>
<pdfrwt beam="2">  1        4 0.91065149E-01 0.17472559E+03</pdfrwt>
<pdfrwt beam="1">  1       -4 0.72108626E-02 0.17472559E+03</pdfrwt>
<totfact> 0.24259642E+02</totfact>
</mgrwt>
</event>
<event>
 6    4  0.2398389E-003  0.1282993E+03  0.7818608E-02  0.1230001E+00
          4   -1    0    0  502    0  0.00000000000E+00  0.00000000000E+00  0.29290935171E+02  0.29318454652E+02  0.12700000000E+01 0.  1.
         -4   -1    0    0    0  501 -0.00000000000E+00 -0.00000000000E+00 -0.33842846501E+03  0.33843084793E+03  0.12700000000E+01 0.  1.
         25    2    1    2    0    0  0.24763548282E+02  0.14986136897E+02 -0.31325712568E+03  0.33851253305E+03  0.12499156221E+03 0.  0.
    9000005    1    3    3    0    0  0.59045190946E+02  0.47983274415E+02 -0.14629597651E+03  0.16490070328E+03  0.10000000000E+01 0.  0.
    9000005    1    3    3    0    0 -0.34281642664E+02 -0.32997137518E+02 -0.16696114917E+03  0.17361182978E+03  0.10000000000E+01 0.  0.
         21    1    1    2  502  501 -0.24763548282E+02 -0.14986136897E+02  0.41195958361E+01  0.29236769528E+02  0.00000000000E+00 0.  1.
<mgrwt>
<rscale>  1 0.12829929E+03</rscale>
<asrwt>0</asrwt>
<pdfrwt beam="1">  1        4 0.45085981E-02 0.12829929E+03</pdfrwt>
<pdfrwt beam="2">  1       -4 0.52068215E-01 0.12829929E+03</pdfrwt>
<totfact> 0.16379735E+03</totfact>
</mgrwt>
</event>
<event>
 6    4  0.2398389E-003  0.1267585E+03  0.7818608E-02  0.1232346E+00
          4   -1    0    0  502    0  0.00000000000E+00  0.00000000000E+00  0.70486484053E+03  0.70486598465E+03  0.12700000000E+01 0. -1.
         -4   -1    0    0    0  501 -0.00000000000E+00 -0.00000000000E+00 -0.79397495346E+01  0.80406792420E+01  0.12700000000E+01 0. -1.
         25    2    1    2    0    0 -0.86892323064E+00 -0.20999901511E+02  0.63451389566E+03  0.64705145761E+03  0.12500381642E+03 0.  0.
    9000005    1    3    3    0    0  0.34780177974E+02 -0.13765119622E+02  0.55740723397E+02  0.67135441780E+02  0.10000000000E+01 0.  0.
    9000005    1    3    3    0    0 -0.35649101205E+02 -0.72347818885E+01  0.57877317227E+03  0.57991601583E+03  0.10000000000E+01 0.  0.
         21    1    1    2  502  501  0.86892323064E+00  0.20999901511E+02  0.62411195332E+02  0.65855206277E+02  0.00000000000E+00 0.  1.
<mgrwt>
<rscale>  1 0.12675845E+03</rscale>
<asrwt>0</asrwt>
<pdfrwt beam="1">  1        4 0.10844860E+00 0.12675845E+03</pdfrwt>
<pdfrwt beam="2">  1       -4 0.12293518E-02 0.12675845E+03</pdfrwt>
<totfact> 0.24608835E+03</totfact>
</mgrwt>
</event>
<event>
 6    4  0.2398389E-003  0.1275751E+03  0.7818608E-02  0.1231099E+00
         -4   -1    0    0    0  501 -0.00000000000E+00  0.00000000000E+00  0.17556113516E+03  0.17556572866E+03  0.12700000000E+01 0. -1.
          4   -1    0    0  502    0  0.00000000000E+00 -0.00000000000E+00 -0.67455611038E+02  0.67467565248E+02  0.12700000000E+01 0. -1.
         25    2    1    2    0    0  0.25332421659E+02 -0.29560429455E+01  0.14817966274E+03  0.19553164801E+03  0.12499977259E+03 0.  0.
    9000005    1    3    3    0    0  0.43867509096E+02  0.10603040257E+01  0.16464577109E+03  0.17039575270E+03  0.10000000000E+01 0.  0.
    9000005    1    3    3    0    0 -0.18535087437E+02 -0.40163469712E+01 -0.16466108348E+02  0.25135895318E+02  0.10000000000E+01 0.  0.
         21    1    1    2  502  501 -0.25332421659E+02  0.29560429455E+01 -0.40074138615E+02  0.47501645895E+02  0.00000000000E+00 0. -1.
<mgrwt>
<rscale>  1 0.12757513E+03</rscale>
<asrwt>0</asrwt>
<pdfrwt beam="2">  1        4 0.10379059E-01 0.12757513E+03</pdfrwt>
<pdfrwt beam="1">  1       -4 0.27010678E-01 0.12757513E+03</pdfrwt>
<totfact> 0.14998336E+03</totfact>
</mgrwt>
</event>
<event>
 6    4  0.2398389E-003  0.1341919E+03  0.7818608E-02  0.1221365E+00
          4   -1    0    0  502    0  0.00000000000E+00  0.00000000000E+00  0.27510265923E+02  0.27539564832E+02  0.12700000000E+01 0. -1.
         -4   -1    0    0    0  501 -0.00000000000E+00 -0.00000000000E+00 -0.33035729254E+03  0.33035973367E+03  0.12700000000E+01 0. -1.
         25    2    1    2    0    0 -0.24471824366E+01 -0.48747451916E+02 -0.17139340345E+03  0.21767676888E+03  0.12500069678E+03 0.  0.
    9000005    1    3    3    0    0 -0.37645616761E+02 -0.83455871272E+01 -0.15771791371E+03  0.16236619596E+03  0.10000000000E+01 0.  0.
    9000005    1    3    3    0    0  0.35198434325E+02 -0.40401864789E+02 -0.13675489739E+02  0.55310572922E+02  0.10000000000E+01 0.  0.
         21    1    1    2  502  501  0.24471824366E+01  0.48747451916E+02 -0.13145362317E+03  0.14022252962E+03  0.00000000000E+00 0. -1.
<mgrwt>
<rscale>  1 0.13419194E+03</rscale>
<asrwt>0</asrwt>
<pdfrwt beam="1">  1        4 0.42347904E-02 0.13419194E+03</pdfrwt>
<pdfrwt beam="2">  1       -4 0.50826638E-01 0.13419194E+03</pdfrwt>
<totfact> 0.19210836E+03</totfact>
</mgrwt>
</event>
<event>
 6    4  0.2398389E-003  0.1280468E+03  0.7818608E-02  0.1230383E+00
         -4   -1    0    0    0  501 -0.00000000000E+00  0.00000000000E+00  0.69597350467E+03  0.69597466341E+03  0.12700000000E+01 0. -1.
          4   -1    0    0  502    0  0.00000000000E+00 -0.00000000000E+00 -0.18587367520E+02  0.18630703994E+02  0.12700000000E+01 0. -1.
         25    2    1    2    0    0 -0.12849865276E+02 -0.24616807173E+02  0.67465918737E+03  0.68670299316E+03  0.12499950191E+03 0.  0.
    9000005    1    3    3    0    0  0.26236308796E+02  0.30141624630E+02  0.93833552194E+02  0.10199312208E+03  0.10000000000E+01 0.  0.
    9000005    1    3    3    0    0 -0.39086174072E+02 -0.54758431803E+02  0.58082563518E+03  0.58470987108E+03  0.10000000000E+01 0.  0.
         21    1    1    2  502  501  0.12849865276E+02  0.24616807173E+02  0.27269497766E+01  0.27902374238E+02  0.00000000000E+00 0. -1.
<mgrwt>
<rscale>  1 0.12804679E+03</rscale>
<asrwt>0</asrwt>
<pdfrwt beam="2">  1        4 0.28630186E-02 0.12804679E+03</pdfrwt>
<pdfrwt beam="1">  1       -4 0.10707624E+00 0.12804679E+03</pdfrwt>
<totfact> 0.69384211E+02</totfact>
</mgrwt>
</event>
<event>
 6    4  0.2398389E-003  0.1430011E+03  0.7818608E-02  0.1209347E+00
          4   -1    0    0  502    0  0.00000000000E+00  0.00000000000E+00  0.58841913678E+03  0.58842050732E+03  0.12700000000E+01 0. -1.
         -4   -1    0    0    0  501 -0.00000000000E+00 -0.00000000000E+00 -0.29616386066E+02  0.29643603418E+02  0.12700000000E+01 0. -1.
         25    2    1    2    0    0  0.36131087711E+02 -0.59315249647E+02  0.16570409997E+03  0.21887705739E+03  0.12500225264E+03 0.  0.
    9000005    1    3    3    0    0 -0.22219063439E+02 -0.19252118751E+02 -0.86824995336E+01  0.30671104555E+02  0.10000000000E+01 0.  0.
    9000005    1    3    3    0    0  0.58350151150E+02 -0.40063130896E+02  0.17438659951E+03  0.18820595284E+03  0.10000000000E+01 0.  0.
         21    1    1    2  502  501 -0.36131087711E+02  0.59315249647E+02  0.39309865075E+03  0.39918705335E+03  0.00000000000E+00 0. -1.
<mgrwt>
<rscale>  1 0.14300111E+03</rscale>
<asrwt>0</asrwt>
<pdfrwt beam="1">  1        4 0.90528215E-01 0.14300111E+03</pdfrwt>
<pdfrwt beam="2">  1       -4 0.45585664E-02 0.14300111E+03</pdfrwt>
<totfact> 0.50052034E+02</totfact>
</mgrwt>
</event>
<event>
 6    4  0.2398389E-003  0.1447169E+03  0.7818608E-02  0.1207119E+00
          4   -1    0    0  502    0  0.00000000000E+00  0.00000000000E+00  0.11081092903E+03  0.11081820650E+03  0.12700000000E+01 0. -1.
         -4   -1    0    0    0  501 -0.00000000000E+00 -0.00000000000E+00 -0.17587955203E+03  0.17588413721E+03  0.12700000000E+01 0. -1.
         25    2    1    2    0    0 -0.12400772755E+00 -0.72926159976E+02 -0.12583709512E+03  0.19177580690E+03  0.12499898166E+03 0.  0.
    9000005    1    3    3    0    0 -0.65768657259E+01  0.35484407002E+02 -0.32228705183E+02  0.48395121043E+02  0.10000000000E+01 0.  0.
    9000005    1    3    3    0    0  0.64528579984E+01 -0.10841056698E+03 -0.93608389938E+02  0.14338068585E+03  0.10000000000E+01 0.  0.
         21    1    1    2  502  501  0.12400772755E+00  0.72926159976E+02  0.60768472120E+02  0.94926536809E+02  0.00000000000E+00 0. -1.
<mgrwt>
<rscale>  1 0.14471692E+03</rscale>
<asrwt>0</asrwt>
<pdfrwt beam="1">  1        4 0.17048748E-01 0.14471692E+03</pdfrwt>
<pdfrwt beam="2">  1       -4 0.27059305E-01 0.14471692E+03</pdfrwt>
<totfact> 0.65118836E+02</totfact>
</mgrwt>
</event>
<event>
 6    4  0.2398389E-003  0.1266779E+03  0.7818608E-02  0.1232470E+00
         -4   -1    0    0    0  501 -0.00000000000E+00  0.00000000000E+00  0.21408291249E+03  0.21408667946E+03  0.12700000000E+01 0.  1.
          4   -1    0    0  502    0  0.00000000000E+00 -0.00000000000E+00 -0.25403197728E+02  0.25434923920E+02  0.12700000000E+01 0.  1.
         25    2    1    2    0    0  0.28803426093E+01 -0.20342806357E+02  0.16756749235E+03  0.21006227414E+03  0.12500067351E+03 0.  0.
    9000005    1    3    3    0    0  0.34215490350E+02 -0.10385236803E+02  0.17305496723E+03  0.17671325532E+03  0.10000000000E+01 0.  0.
    9000005    1    3    3    0    0 -0.31335147741E+02 -0.99575695540E+01 -0.54874748810E+01  0.33349018815E+02  0.10000000000E+01 0.  0.
         21    1    1    2  502  501 -0.28803426093E+01  0.20342806357E+02  0.21112222417E+02  0.29459329243E+02  0.00000000000E+00 0.  1.
<mgrwt>
<rscale>  1 0.12667792E+03</rscale>
<asrwt>0</asrwt>
<pdfrwt beam="2">  1        4 0.39109143E-02 0.12667792E+03</pdfrwt>
<pdfrwt beam="1">  1       -4 0.32938564E-01 0.12667792E+03</pdfrwt>
<totfact> 0.50618661E+03</totfact>
</mgrwt>
</event>
<event>
 6    4  0.2398389E-003  0.1273351E+03  0.7818608E-02  0.1231464E+00
          4   -1    0    0  502    0  0.00000000000E+00  0.00000000000E+00  0.19826778025E+03  0.19827184768E+03  0.12700000000E+01 0. -1.
         -4   -1    0    0    0  501 -0.00000000000E+00 -0.00000000000E+00 -0.29771097464E+02  0.29798173505E+02  0.12700000000E+01 0. -1.
         25    2    1    2    0    0  0.90666731917E+01 -0.22550063330E+02  0.12614204687E+03  0.17923739785E+03  0.12499407538E+03 0.  0.
    9000005    1    3    3    0    0  0.59746151904E+02  0.10820828442E+02  0.90098968373E+02  0.10865319644E+03  0.10000000000E+01 0.  0.
    9000005    1    3    3    0    0 -0.50679478713E+02 -0.33370891773E+02  0.36043078493E+02  0.70584201402E+02  0.10000000000E+01 0.  0.
         21    1    1    2  502  501 -0.90666731917E+01  0.22550063330E+02  0.42354635915E+02  0.48832623342E+02  0.00000000000E+00 0.  1.
<mgrwt>
<rscale>  1 0.12733510E+03</rscale>
<asrwt>0</asrwt>
<pdfrwt beam="1">  1        4 0.30505132E-01 0.12733510E+03</pdfrwt>
<pdfrwt beam="2">  1       -4 0.45825644E-02 0.12733510E+03</pdfrwt>
<totfact> 0.45577134E+03</totfact>
</mgrwt>
</event>
<event>
 6    4  0.2398389E-003  0.1267797E+03  0.7818608E-02  0.1232314E+00
         -4   -1    0    0    0  501 -0.00000000000E+00  0.00000000000E+00  0.21225416269E+03  0.21225796211E+03  0.12700000000E+01 0.  1.
          4   -1    0    0  502    0  0.00000000000E+00 -0.00000000000E+00 -0.25770494996E+02  0.25801769558E+02  0.12700000000E+01 0.  1.
         25    2    1    2    0    0  0.10561497525E+02  0.18270051453E+02  0.15686650676E+03  0.20169331541E+03  0.12501100962E+03 0.  0.
    9000005    1    3    3    0    0 -0.54698811504E+02  0.24589599031E+02  0.88986189939E+02  0.10731332797E+03  0.10000000000E+01 0.  0.
    9000005    1    3    3    0    0  0.65260309029E+02 -0.63195475780E+01  0.67880316823E+02  0.94379987435E+02  0.10000000000E+01 0.  0.
         21    1    1    2  502  501 -0.10561497525E+02 -0.18270051453E+02  0.29617160930E+02  0.36366416261E+02  0.00000000000E+00 0. -1.
<mgrwt>
<rscale>  1 0.12677970E+03</rscale>
<asrwt>0</asrwt>
<pdfrwt beam="2">  1        4 0.39673895E-02 0.12677970E+03</pdfrwt>
<pdfrwt beam="1">  1       -4 0.32657185E-01 0.12677970E+03</pdfrwt>
<totfact> 0.50309259E+03</totfact>
</mgrwt>
</event>
<event>
 6    4  0.2398389E-003  0.1304669E+03  0.7818608E-02  0.1226765E+00
          4   -1    0    0  502    0  0.00000000000E+00  0.00000000000E+00  0.40439415958E+03  0.40439615380E+03  0.12700000000E+01 0.  1.
         -4   -1    0    0    0  501 -0.00000000000E+00 -0.00000000000E+00 -0.20705585976E+02  0.20744497840E+02  0.12700000000E+01 0.  1.
         25    2    1    2    0    0  0.30733998844E+02 -0.21243925621E+02  0.20806034464E+03  0.24558242188E+03  0.12500294343E+03 0.  0.
    9000005    1    3    3    0    0  0.66980909323E+02  0.22055243775E+02  0.86990154999E+02  0.11198733437E+03  0.10000000000E+01 0.  0.
    9000005    1    3    3    0    0 -0.36246910479E+02 -0.43299169396E+02  0.12107018964E+03  0.13359508752E+03  0.10000000000E+01 0.  0.
         21    1    1    2  502  501 -0.30733998844E+02  0.21243925621E+02  0.17562822897E+03  0.17955822975E+03  0.00000000000E+00 0.  1.
<mgrwt>
<rscale>  1 0.13046693E+03</rscale>
<asrwt>0</asrwt>
<pdfrwt beam="1">  1        4 0.62217634E-01 0.13046693E+03</pdfrwt>
<pdfrwt beam="2">  1       -4 0.31886213E-02 0.13046693E+03</pdfrwt>
<totfact> 0.19645377E+03</totfact>
</mgrwt>
</event>
<event>
 6    4  0.2398389E-003  0.1291660E+03  0.7818608E-02  0.1228698E+00
          4   -1    0    0  502    0  0.00000000000E+00  0.00000000000E+00  0.50166380168E+02  0.50182453101E+02  0.12700000000E+01 0. -1.
         -4   -1    0    0    0  501 -0.00000000000E+00 -0.00000000000E+00 -0.13027410472E+03  0.13028029498E+03  0.12700000000E+01 0. -1.
         25    2    1    2    0    0 -0.51443404825E+01 -0.32130335141E+02 -0.63572721706E+02  0.14396303583E+03  0.12500016826E+03 0.  0.
    9000005    1    3    3    0    0 -0.32560685594E+01  0.25898840538E+02  0.26232014627E+02  0.37019866492E+02  0.10000000000E+01 0.  0.
    9000005    1    3    3    0    0 -0.18882719231E+01 -0.58029175679E+02 -0.89804736333E+02  0.10694316934E+03  0.10000000000E+01 0.  0.
         21    1    1    2  502  501  0.51443404825E+01  0.32130335141E+02 -0.16535002847E+02  0.36499712251E+02  0.00000000000E+00 0. -1.
<mgrwt>
<rscale>  1 0.12916604E+03</rscale>
<asrwt>0</asrwt>
<pdfrwt beam="1">  1        4 0.77196173E-02 0.12916604E+03</pdfrwt>
<pdfrwt beam="2">  1       -4 0.20043882E-01 0.12916604E+03</pdfrwt>
<totfact> 0.42536452E+03</totfact>
</mgrwt>
</event>
<event>
 6    4  0.2398389E-003  0.1276719E+03  0.7818608E-02  0.1230952E+00
          4   -1    0    0  502    0  0.00000000000E+00  0.00000000000E+00  0.54757740603E+02  0.54772466221E+02  0.12700000000E+01 0.  1.
         -4   -1    0    0    0  501 -0.00000000000E+00 -0.00000000000E+00 -0.13153734097E+03  0.13154347178E+03  0.12700000000E+01 0.  1.
         25    2    1    2    0    0  0.15365966722E+02 -0.20940985339E+02 -0.90924959101E+02  0.15674012062E+03  0.12500191768E+03 0.  0.
    9000005    1    3    3    0    0  0.29419988692E+02 -0.59313865108E+02 -0.94846964910E+02  0.11567461727E+03  0.10000000000E+01 0.  0.
    9000005    1    3    3    0    0 -0.14054021971E+02  0.38372879769E+02  0.39220058091E+01  0.41065503344E+02  0.10000000000E+01 0.  0.
         21    1    1    2  502  501 -0.15365966722E+02  0.20940985339E+02  0.14145358737E+02  0.29575817386E+02  0.00000000000E+00 0.  1.
<mgrwt>
<rscale>  1 0.12767191E+03</rscale>
<asrwt>0</asrwt>
<pdfrwt beam="1">  1        4 0.84258722E-02 0.12767191E+03</pdfrwt>
<pdfrwt beam="2">  1       -4 0.20238118E-01 0.12767191E+03</pdfrwt>
<totfact> 0.36060873E+03</totfact>
</mgrwt>
</event>
<event>
 6    4  0.2398389E-003  0.1286899E+03  0.7818608E-02  0.1229413E+00
          4   -1    0    0  502    0  0.00000000000E+00  0.00000000000E+00  0.39295304832E+02  0.39315822283E+02  0.12700000000E+01 0.  1.
         -4   -1    0    0    0  501 -0.00000000000E+00 -0.00000000000E+00 -0.16599465237E+03  0.16599951058E+03  0.12700000000E+01 0.  1.
         25    2    1    2    0    0  0.29042181700E+02 -0.96430636216E+01 -0.87648363054E+02  0.15570266933E+03  0.12499859478E+03 0.  0.
    9000005    1    3    3    0    0  0.71490487701E+02  0.23012138285E+02 -0.52339614924E+02  0.91547166153E+02  0.10000000000E+01 0.  0.
    9000005    1    3    3    0    0 -0.42448306001E+02 -0.32655201907E+02 -0.35308748130E+02  0.64155503182E+02  0.10000000000E+01 0.  0.
         21    1    1    2  502  501 -0.29042181700E+02  0.96430636216E+01 -0.39050984480E+02  0.49612663532E+02  0.00000000000E+00 0.  1.
<mgrwt>
<rscale>  1 0.12868988E+03</rscale>
<asrwt>0</asrwt>
<pdfrwt beam="1">  1        4 0.60473836E-02 0.12868988E+03</pdfrwt>
<pdfrwt beam="2">  1       -4 0.25539590E-01 0.12868988E+03</pdfrwt>
<totfact> 0.40753132E+03</totfact>
</mgrwt>
</event>
<event>
 6    4  0.2398389E-003  0.1277399E+03  0.7818608E-02  0.1230848E+00
          4   -1    0    0  502    0  0.00000000000E+00  0.00000000000E+00  0.30100264041E+03  0.30100531961E+03  0.12700000000E+01 0. -1.
         -4   -1    0    0    0  501 -0.00000000000E+00 -0.00000000000E+00 -0.34370890323E+02  0.34394345489E+02  0.12700000000E+01 0. -1.
         25    2    1    2    0    0 -0.22554590121E+02  0.13571199300E+02  0.88662873887E+02  0.15549466828E+03  0.12499839867E+03 0.  0.
    9000005    1    3    3    0    0 -0.20788732049E+02 -0.42433990790E+02  0.87490517292E+02  0.99440462442E+02  0.10000000000E+01 0.  0.
    9000005    1    3    3    0    0 -0.17658580712E+01  0.56005190090E+02  0.11723565947E+01  0.56054205835E+02  0.10000000000E+01 0.  0.
         21    1    1    2  502  501  0.22554590121E+02 -0.13571199300E+02  0.17796887620E+03  0.17990499682E+03  0.00000000000E+00 0. -1.
<mgrwt>
<rscale>  1 0.12773992E+03</rscale>
<asrwt>0</asrwt>
<pdfrwt beam="1">  1        4 0.46310110E-01 0.12773992E+03</pdfrwt>
<pdfrwt beam="2">  1       -4 0.52898395E-02 0.12773992E+03</pdfrwt>
<totfact> 0.16063217E+03</totfact>
</mgrwt>
</event>
<event>
 6    4  0.2398389E-003  0.1268449E+03  0.7818608E-02  0.1232214E+00
          4   -1    0    0  502    0  0.00000000000E+00  0.00000000000E+00  0.63977748097E+02  0.63990352020E+02  0.12700000000E+01 0. -1.
         -4   -1    0    0    0  501 -0.00000000000E+00 -0.00000000000E+00 -0.10616405689E+03  0.10617165288E+03  0.12700000000E+01 0. -1.
         25    2    1    2    0    0  0.20358359141E+02 -0.71036773510E+01 -0.61723372985E+02  0.14106523710E+03  0.12499880530E+03 0.  0.
    9000005    1    3    3    0    0  0.67245901527E+02  0.10739459103E+02 -0.97111501679E+01  0.68794285312E+02  0.10000000000E+01 0.  0.
    9000005    1    3    3    0    0 -0.46887542386E+02 -0.17843136454E+02 -0.52012222817E+02  0.72270951785E+02  0.10000000000E+01 0.  0.
         21    1    1    2  502  501 -0.20358359141E+02  0.71036773510E+01  0.19537064197E+02  0.29096767798E+02  0.00000000000E+00 0. -1.
<mgrwt>
<rscale>  1 0.12684489E+03</rscale>
<asrwt>0</asrwt>
<pdfrwt beam="1">  1        4 0.98442843E-02 0.12684489E+03</pdfrwt>
<pdfrwt beam="2">  1       -4 0.16334486E-01 0.12684489E+03</pdfrwt>
<totfact> 0.40639097E+03</totfact>
</mgrwt>
</event>
<event>
 6    4  0.2398389E-003  0.1457033E+03  0.7818608E-02  0.1205854E+00
         -4   -1    0    0    0  501 -0.00000000000E+00  0.00000000000E+00  0.34288793660E+02  0.34312304945E+02  0.12700000000E+01 0. -1.
          4   -1    0    0  502    0  0.00000000000E+00 -0.00000000000E+00 -0.38481839328E+03  0.38482048894E+03  0.12700000000E+01 0. -1.
         25    2    1    2    0    0  0.74745273478E+02  0.42718199529E+01 -0.17123659974E+03  0.22483641162E+03  0.12499733817E+03 0.  0.
    9000005    1    3    3    0    0  0.23252914870E+02  0.41542263267E+02 -0.15067575613E+03  0.15802101497E+03  0.10000000000E+01 0.  0.
    9000005    1    3    3    0    0  0.51492358607E+02 -0.37270443314E+02 -0.20560843609E+02  0.66815396651E+02  0.10000000000E+01 0.  0.
         21    1    1    2  502  501 -0.74745273478E+02 -0.42718199529E+01 -0.17929299988E+03  0.19429638226E+03  0.00000000000E+00 0. -1.
<mgrwt>
<rscale>  1 0.14570326E+03</rscale>
<asrwt>0</asrwt>
<pdfrwt beam="2">  1        4 0.59204796E-01 0.14570326E+03</pdfrwt>
<pdfrwt beam="1">  1       -4 0.52771691E-02 0.14570326E+03</pdfrwt>
<totfact> 0.10015934E+03</totfact>
</mgrwt>
</event>
<event>
 6    4  0.2398389E-003  0.1274286E+03  0.7818608E-02  0.1231322E+00
         -4   -1    0    0    0  501 -0.00000000000E+00  0.00000000000E+00  0.90580416672E+02  0.90589319373E+02  0.12700000000E+01 0. -1.
          4   -1    0    0  502    0  0.00000000000E+00 -0.00000000000E+00 -0.19388995874E+03  0.19389411801E+03  0.12700000000E+01 0. -1.
         25    2    1    2    0    0 -0.24753277369E+02  0.85138859280E+00  0.44224707908E+02  0.13488462550E+03  0.12499835120E+03 0.  0.
    9000005    1    3    3    0    0  0.24581168195E+02  0.34225258188E+01  0.73409514496E+02  0.77497769848E+02  0.10000000000E+01 0.  0.
    9000005    1    3    3    0    0 -0.49334445564E+02 -0.25711372260E+01 -0.29184806589E+02  0.57386855649E+02  0.10000000000E+01 0.  0.
         21    1    1    2  502  501  0.24753277369E+02 -0.85138859280E+00 -0.14753424997E+03  0.14959881189E+03  0.00000000000E+00 0. -1.
<mgrwt>
<rscale>  1 0.12742856E+03</rscale>
<asrwt>0</asrwt>
<pdfrwt beam="2">  1        4 0.29830229E-01 0.12742856E+03</pdfrwt>
<pdfrwt beam="1">  1       -4 0.13936454E-01 0.12742856E+03</pdfrwt>
<totfact> 0.75231421E+02</totfact>
</mgrwt>
</event>
<event>
 6    4  0.2398389E-003  0.1271882E+03  0.7818608E-02  0.1231689E+00
         -4   -1    0    0    0  501 -0.00000000000E+00  0.00000000000E+00  0.83517771605E+02  0.83527427076E+02  0.12700000000E+01 0. -1.
          4   -1    0    0  502    0  0.00000000000E+00 -0.00000000000E+00 -0.91164871914E+02  0.91173717545E+02  0.12700000000E+01 0. -1.
         25    2    1    2    0    0  0.12242666661E+02  0.20021999561E+02  0.29683899679E+02  0.13060616856E+03  0.12500429598E+03 0.  0.
    9000005    1    3    3    0    0  0.51147637659E+02  0.36296111098E+02  0.53255316029E+02  0.82283760270E+02  0.10000000000E+01 0.  0.
    9000005    1    3    3    0    0 -0.38904970998E+02 -0.16274111537E+02 -0.23571416350E+02  0.48322408294E+02  0.10000000000E+01 0.  0.
         21    1    1    2  502  501 -0.12242666661E+02 -0.20021999561E+02 -0.37330999987E+02  0.44094976056E+02  0.00000000000E+00 0. -1.
<mgrwt>
<rscale>  1 0.12718820E+03</rscale>
<asrwt>0</asrwt>
<pdfrwt beam="2">  1        4 0.14026788E-01 0.12718820E+03</pdfrwt>
<pdfrwt beam="1">  1       -4 0.12850311E-01 0.12718820E+03</pdfrwt>
<totfact> 0.33733314E+03</totfact>
</mgrwt>
</event>
<event>
 6    4  0.2398389E-003  0.1271074E+03  0.7818608E-02  0.1231812E+00
          4   -1    0    0  502    0  0.00000000000E+00  0.00000000000E+00  0.22304840559E+02  0.22340967131E+02  0.12700000000E+01 0. -1.
         -4   -1    0    0    0  501 -0.00000000000E+00 -0.00000000000E+00 -0.28920582049E+03  0.28920860898E+03  0.12700000000E+01 0. -1.
         25    2    1    2    0    0  0.15298610665E+02 -0.17235680751E+02 -0.25649729148E+03  0.28626414725E+03  0.12500074113E+03 0.  0.
    9000005    1    3    3    0    0  0.21784830169E+02  0.52498656029E+02 -0.12327381651E+03  0.13575021748E+03  0.10000000000E+01 0.  0.
    9000005    1    3    3    0    0 -0.64862195039E+01 -0.69734336780E+02 -0.13322347497E+03  0.15051392976E+03  0.10000000000E+01 0.  0.
         21    1    1    2  502  501 -0.15298610665E+02  0.17235680751E+02 -0.10403688454E+02  0.25285428861E+02  0.00000000000E+00 0.  1.
<mgrwt>
<rscale>  1 0.12710744E+03</rscale>
<asrwt>0</asrwt>
<pdfrwt beam="1">  1        4 0.34345076E-02 0.12710744E+03</pdfrwt>
<pdfrwt beam="2">  1       -4 0.44496194E-01 0.12710744E+03</pdfrwt>
<totfact> 0.34568688E+03</totfact>
</mgrwt>
</event>
<event>
 6    4  0.2398389E-003  0.1314344E+03  0.7818608E-02  0.1225343E+00
         -4   -1    0    0    0  501 -0.00000000000E+00  0.00000000000E+00  0.37331396877E+03  0.37331612901E+03  0.12700000000E+01 0. -1.
          4   -1    0    0  502    0  0.00000000000E+00 -0.00000000000E+00 -0.30200272094E+02  0.30226963701E+02  0.12700000000E+01 0. -1.
         25    2    1    2    0    0 -0.18810724163E+02 -0.36038617287E+02  0.33789419979E+03  0.36255689470E+03  0.12498954502E+03 0.  0.
    9000005    1    3    3    0    0  0.51415408971E+02 -0.37782799692E+01  0.17159894810E+03  0.17917873386E+03  0.10000000000E+01 0.  0.
    9000005    1    3    3    0    0 -0.70226133133E+02 -0.32260337317E+02  0.16629525169E+03  0.18337816084E+03  0.10000000000E+01 0.  0.
         21    1    1    2  502  501  0.18810724163E+02  0.36038617287E+02  0.52194968861E+01  0.40986198009E+02  0.00000000000E+00 0. -1.
<mgrwt>
<rscale>  1 0.13143444E+03</rscale>
<asrwt>0</asrwt>
<pdfrwt beam="2">  1        4 0.46484155E-02 0.13143444E+03</pdfrwt>
<pdfrwt beam="1">  1       -4 0.57435133E-01 0.13143444E+03</pdfrwt>
<totfact> 0.12807825E+03</totfact>
</mgrwt>
</event>
<event>
 6    4  0.2398389E-003  0.1269629E+03  0.7818608E-02  0.1232033E+00
         -4   -1    0    0    0  501 -0.00000000000E+00  0.00000000000E+00  0.91371947454E+02  0.91380773041E+02  0.12700000000E+01 0. -1.
          4   -1    0    0  502    0  0.00000000000E+00 -0.00000000000E+00 -0.61110974553E+02  0.61124169612E+02  0.12700000000E+01 0. -1.
         25    2    1    2    0    0  0.14047113603E+02 -0.17248164961E+02  0.28950821196E+02  0.13022183038E+03  0.12499901785E+03 0.  0.
    9000005    1    3    3    0    0 -0.33311712147E+02 -0.56109947937E+02  0.95696655007E+01  0.65958888116E+02  0.10000000000E+01 0.  0.
    9000005    1    3    3    0    0  0.47358825749E+02  0.38861782976E+02  0.19381155695E+02  0.64262942265E+02  0.10000000000E+01 0.  0.
         21    1    1    2  502  501 -0.14047113603E+02  0.17248164961E+02  0.13101517056E+01  0.22283112273E+02  0.00000000000E+00 0.  1.
<mgrwt>
<rscale>  1 0.12696289E+03</rscale>
<asrwt>0</asrwt>
<pdfrwt beam="2">  1        4 0.94033823E-02 0.12696289E+03</pdfrwt>
<pdfrwt beam="1">  1       -4 0.14058917E-01 0.12696289E+03</pdfrwt>
<totfact> 0.57035284E+03</totfact>
</mgrwt>
</event>
<event>
 6    4  0.2398389E-003  0.1309990E+03  0.7818608E-02  0.1225981E+00
         -4   -1    0    0    0  501 -0.00000000000E+00  0.00000000000E+00  0.21847633759E+03  0.21848002880E+03  0.12700000000E+01 0. -1.
          4   -1    0    0  502    0  0.00000000000E+00 -0.00000000000E+00 -0.40159120691E+02  0.40179197039E+02  0.12700000000E+01 0. -1.
         25    2    1    2    0    0 -0.32206265053E+01 -0.39052315125E+02  0.17600671850E+03  0.21940627494E+03  0.12500117109E+03 0.  0.
    9000005    1    3    3    0    0  0.42424888394E+02 -0.52877584557E+02  0.15104978599E+03  0.16556855967E+03  0.10000000000E+01 0.  0.
    9000005    1    3    3    0    0 -0.45645514899E+02  0.13825269432E+02  0.24956932513E+02  0.53837715272E+02  0.10000000000E+01 0.  0.
         21    1    1    2  502  501  0.32206265053E+01  0.39052315125E+02  0.23104983974E+01  0.39252950903E+02  0.00000000000E+00 0. -1.
<mgrwt>
<rscale>  1 0.13099904E+03</rscale>
<asrwt>0</asrwt>
<pdfrwt beam="2">  1        4 0.61801545E-02 0.13099904E+03</pdfrwt>
<pdfrwt beam="1">  1       -4 0.33613573E-01 0.13099904E+03</pdfrwt>
<totfact> 0.23555910E+03</totfact>
</mgrwt>
</event>
<event>
 6    4  0.2398389E-003  0.1278759E+03  0.7818608E-02  0.1230642E+00
          4   -1    0    0  502    0  0.00000000000E+00  0.00000000000E+00  0.40921417905E+03  0.40921614977E+03  0.12700000000E+01 0. -1.
         -4   -1    0    0    0  501 -0.00000000000E+00 -0.00000000000E+00 -0.14666626055E+02  0.14721508749E+02  0.12700000000E+01 0. -1.
         25    2    1    2    0    0  0.89903720657E+01  0.25425430433E+02  0.31620477560E+03  0.34108314704E+03  0.12499989513E+03 0.  0.
    9000005    1    3    3    0    0  0.45370871254E+02  0.12703282684E+01  0.37239853796E+02  0.58719131490E+02  0.10000000000E+01 0.  0.
    9000005    1    3    3    0    0 -0.36380499188E+02  0.24155102165E+02  0.27896492180E+03  0.28236401555E+03  0.10000000000E+01 0.  0.
         21    1    1    2  502  501 -0.89903720657E+01 -0.25425430433E+02  0.78342777395E+02  0.82854511480E+02  0.00000000000E+00 0. -1.
<mgrwt>
<rscale>  1 0.12787593E+03</rscale>
<asrwt>0</asrwt>
<pdfrwt beam="1">  1        4 0.62960400E-01 0.12787593E+03</pdfrwt>
<pdfrwt beam="2">  1       -4 0.22607774E-02 0.12787593E+03</pdfrwt>
<totfact> 0.32575762E+03</totfact>
</mgrwt>
</event>
<event>
 6    4  0.2398389E-003  0.1296944E+03  0.7818608E-02  0.1227910E+00
         -4   -1    0    0    0  501 -0.00000000000E+00  0.00000000000E+00  0.69077720621E+02  0.69089394166E+02  0.12700000000E+01 0.  1.
          4   -1    0    0  502    0  0.00000000000E+00 -0.00000000000E+00 -0.11012028977E+03  0.11012761288E+03  0.12700000000E+01 0.  1.
         25    2    1    2    0    0  0.29451625584E+02  0.18160936372E+02 -0.57938565101E+01  0.12982379292E+03  0.12499372214E+03 0.  0.
    9000005    1    3    3    0    0 -0.26672462782E+02 -0.39000278213E+02 -0.14002167937E+02  0.49289985580E+02  0.10000000000E+01 0.  0.
    9000005    1    3    3    0    0  0.56124088366E+02  0.57161214586E+02  0.82083114273E+01  0.80533807337E+02  0.10000000000E+01 0.  0.
         21    1    1    2  502  501 -0.29451625584E+02 -0.18160936372E+02 -0.35248712641E+02  0.49393214132E+02  0.00000000000E+00 0. -1.
<mgrwt>
<rscale>  1 0.12969444E+03</rscale>
<asrwt>0</asrwt>
<pdfrwt beam="2">  1        4 0.16943044E-01 0.12969444E+03</pdfrwt>
<pdfrwt beam="1">  1       -4 0.10628803E-01 0.12969444E+03</pdfrwt>
<totfact> 0.33665374E+03</totfact>
</mgrwt>
</event>
<event>
 6    4  0.2398389E-003  0.1279540E+03  0.7818608E-02  0.1230524E+00
         -4   -1    0    0    0  501 -0.00000000000E+00  0.00000000000E+00  0.52879269108E+02  0.52894517687E+02  0.12700000000E+01 0.  1.
          4   -1    0    0  502    0  0.00000000000E+00 -0.00000000000E+00 -0.12245281015E+03  0.12245939577E+03  0.12700000000E+01 0.  1.
         25    2    1    2    0    0  0.11558464235E+02 -0.24786049487E+02 -0.37777559964E+02  0.13341430501E+03  0.12499714556E+03 0.  0.
    9000005    1    3    3    0    0 -0.21102096014E+02 -0.36355297994E+02 -0.72842963971E+02  0.84107690187E+02  0.10000000000E+01 0.  0.
    9000005    1    3    3    0    0  0.32660560249E+02  0.11569248507E+02  0.35065404007E+02  0.49306614820E+02  0.10000000000E+01 0.  0.
         21    1    1    2  502  501 -0.11558464235E+02  0.24786049487E+02 -0.31795981076E+02  0.41939608454E+02  0.00000000000E+00 0.  1.
<mgrwt>
<rscale>  1 0.12795403E+03</rscale>
<asrwt>0</asrwt>
<pdfrwt beam="2">  1        4 0.18840573E-01 0.12795403E+03</pdfrwt>
<pdfrwt beam="1">  1       -4 0.81369518E-02 0.12795403E+03</pdfrwt>
<totfact> 0.43460625E+03</totfact>
</mgrwt>
</event>
<event>
 6    4  0.2398389E-003  0.1293763E+03  0.7818608E-02  0.1228384E+00
          4   -1    0    0  502    0  0.00000000000E+00  0.00000000000E+00  0.34688423933E+02  0.34711664537E+02  0.12700000000E+01 0.  1.
         -4   -1    0    0    0  501 -0.00000000000E+00 -0.00000000000E+00 -0.25220816878E+03  0.25221136632E+03  0.12700000000E+01 0.  1.
         25    2    1    2    0    0  0.51037027366E+01 -0.32972651445E+02 -0.21806202393E+03  0.25355332016E+03  0.12499998545E+03 0.  0.
    9000005    1    3    3    0    0  0.92409847917E+01 -0.79632907185E+02 -0.15983746016E+03  0.17881781057E+03  0.10000000000E+01 0.  0.
    9000005    1    3    3    0    0 -0.41372820551E+01  0.46660255740E+02 -0.58224563765E+02  0.74735509593E+02  0.10000000000E+01 0.  0.
         21    1    1    2  502  501 -0.51037027366E+01  0.32972651445E+02  0.54227907858E+00  0.33369710690E+02  0.00000000000E+00 0.  1.
<mgrwt>
<rscale>  1 0.12937635E+03</rscale>
<asrwt>0</asrwt>
<pdfrwt beam="1">  1        4 0.53387145E-02 0.12937635E+03</pdfrwt>
<pdfrwt beam="2">  1       -4 0.38803289E-01 0.12937635E+03</pdfrwt>
<totfact> 0.22541361E+03</totfact>
</mgrwt>
</event>
<event>
 6    4  0.2398389E-003  0.1272634E+03  0.7818608E-02  0.1231574E+00
          4   -1    0    0  502    0  0.00000000000E+00  0.00000000000E+00  0.18903924180E+02  0.18946536607E+02  0.12700000000E+01 0.  1.
         -4   -1    0    0    0  501 -0.00000000000E+00 -0.00000000000E+00 -0.30544448661E+03  0.30544712685E+03  0.12700000000E+01 0.  1.
         25    2    1    2    0    0 -0.23880803728E+02 -0.11679042057E+01 -0.25298394236E+03  0.28319046531E+03  0.12499723102E+03 0.  0.
    9000005    1    3    3    0    0 -0.15961066891E+02  0.61720108922E+02 -0.12090561163E+03  0.13668684803E+03  0.10000000000E+01 0.  0.
    9000005    1    3    3    0    0 -0.79197368364E+01 -0.62888013128E+02 -0.13207833073E+03  0.14650361728E+03  0.10000000000E+01 0.  0.
         21    1    1    2  502  501  0.23880803728E+02  0.11679042057E+01 -0.33556620063E+02  0.41203198140E+02  0.00000000000E+00 0.  1.
<mgrwt>
<rscale>  1 0.12726337E+03</rscale>
<asrwt>0</asrwt>
<pdfrwt beam="1">  1        4 0.29117772E-02 0.12726337E+03</pdfrwt>
<pdfrwt beam="2">  1       -4 0.46994937E-01 0.12726337E+03</pdfrwt>
<totfact> 0.40149271E+03</totfact>
</mgrwt>
</event>
<event>
 6    4  0.2398389E-003  0.1340478E+03  0.7818608E-02  0.1221570E+00
         -4   -1    0    0    0  501 -0.00000000000E+00  0.00000000000E+00  0.85618374960E+02  0.85627793565E+02  0.12700000000E+01 0. -1.
          4   -1    0    0  502    0  0.00000000000E+00 -0.00000000000E+00 -0.99819358718E+02  0.99827437486E+02  0.12700000000E+01 0. -1.
         25    2    1    2    0    0  0.36145036825E+02 -0.32217203152E+02 -0.23662605070E+02  0.13612031295E+03  0.12499763539E+03 0.  0.
    9000005    1    3    3    0    0  0.24766631652E+02  0.18087029759E+02 -0.63776617502E+02  0.70774173459E+02  0.10000000000E+01 0.  0.
    9000005    1    3    3    0    0  0.11378405173E+02 -0.50304232912E+02  0.40114012432E+02  0.65346139492E+02  0.10000000000E+01 0.  0.
         21    1    1    2  502  501 -0.36145036825E+02  0.32217203152E+02  0.94616213113E+01  0.49334918099E+02  0.00000000000E+00 0. -1.
<mgrwt>
<rscale>  1 0.13404783E+03</rscale>
<asrwt>0</asrwt>
<pdfrwt beam="2">  1        4 0.15358170E-01 0.13404783E+03</pdfrwt>
<pdfrwt beam="1">  1       -4 0.13173404E-01 0.13404783E+03</pdfrwt>
<totfact> 0.27949669E+03</totfact>
</mgrwt>
</event>
<event>
 6    4  0.2398389E-003  0.1314532E+03  0.7818608E-02  0.1225315E+00
         -4   -1    0    0    0  501 -0.00000000000E+00  0.00000000000E+00  0.48486172622E+02  0.48502802347E+02  0.12700000000E+01 0. -1.
          4   -1    0    0  502    0  0.00000000000E+00 -0.00000000000E+00 -0.63710334511E+03  0.63710461092E+03  0.12700000000E+01 0. -1.
         25    2    1    2    0    0 -0.81668405254E+01 -0.39852661378E+02 -0.42755033406E+02  0.13823148505E+03  0.12500007470E+03 0.  0.
    9000005    1    3    3    0    0 -0.13917281364E+02 -0.32956799235E+02 -0.86474761141E+02  0.93588063612E+02  0.10000000000E+01 0.  0.
    9000005    1    3    3    0    0  0.57504408386E+01 -0.68958621430E+01  0.43719727734E+02  0.44643421438E+02  0.10000000000E+01 0.  0.
         21    1    1    2  502  501  0.81668405254E+01  0.39852661378E+02 -0.54586213909E+03  0.54737592822E+03  0.00000000000E+00 0. -1.
<mgrwt>
<rscale>  1 0.13145323E+03</rscale>
<asrwt>0</asrwt>
<pdfrwt beam="2">  1        4 0.98017270E-01 0.13145323E+03</pdfrwt>
<pdfrwt beam="1">  1       -4 0.74607882E-02 0.13145323E+03</pdfrwt>
<totfact> 0.18483402E+02</totfact>
</mgrwt>
</event>
<event>
 6    4  0.2398389E-003  0.1309946E+03  0.7818608E-02  0.1225987E+00
          4   -1    0    0  502    0  0.00000000000E+00  0.00000000000E+00  0.22978218240E+02  0.23013287759E+02  0.12700000000E+01 0.  1.
         -4   -1    0    0    0  501 -0.00000000000E+00 -0.00000000000E+00 -0.67449292316E+03  0.67449411879E+03  0.12700000000E+01 0.  1.
         25    2    1    2    0    0 -0.25101990917E+02 -0.30070633571E+02 -0.64454456036E+03  0.65772127999E+03  0.12500095568E+03 0.  0.
    9000005    1    3    3    0    0  0.11923247787E+02 -0.61137385584E+02 -0.17620642584E+03  0.18689475183E+03  0.10000000000E+01 0.  0.
    9000005    1    3    3    0    0 -0.37025238704E+02  0.31066752013E+02 -0.46833813452E+03  0.47082652817E+03  0.10000000000E+01 0.  0.
         21    1    1    2  502  501  0.25101990917E+02  0.30070633571E+02 -0.69701445595E+01  0.39786126558E+02  0.00000000000E+00 0.  1.
<mgrwt>
<rscale>  1 0.13099463E+03</rscale>
<asrwt>0</asrwt>
<pdfrwt beam="1">  1        4 0.35379006E-02 0.13099463E+03</pdfrwt>
<pdfrwt beam="2">  1       -4 0.10377092E+00 0.13099463E+03</pdfrwt>
<totfact> 0.53809802E+02</totfact>
</mgrwt>
</event>
<event>
 6    4  0.2398389E-003  0.1520824E+03  0.7818608E-02  0.1197937E+00
         -4   -1    0    0    0  501 -0.00000000000E+00  0.00000000000E+00  0.11011485494E+03  0.11012217841E+03  0.12700000000E+01 0. -1.
          4   -1    0    0  502    0  0.00000000000E+00 -0.00000000000E+00 -0.16130873043E+03  0.16131372977E+03  0.12700000000E+01 0. -1.
         25    2    1    2    0    0  0.24661228581E+02 -0.83041566834E+02 -0.89779084346E+02  0.17660502524E+03  0.12499989175E+03 0.  0.
    9000005    1    3    3    0    0  0.63266081218E+02 -0.17716299411E+02 -0.74244774943E+02  0.99145100251E+02  0.10000000000E+01 0.  0.
    9000005    1    3    3    0    0 -0.38604852637E+02 -0.65325267424E+02 -0.15534309403E+02  0.77459924992E+02  0.10000000000E+01 0.  0.
         21    1    1    2  502  501 -0.24661228581E+02  0.83041566834E+02  0.38585208850E+02  0.94830882942E+02  0.00000000000E+00 0. -1.
<mgrwt>
<rscale>  1 0.15208238E+03</rscale>
<asrwt>0</asrwt>
<pdfrwt beam="2">  1        4 0.24817676E-01 0.15208238E+03</pdfrwt>
<pdfrwt beam="1">  1       -4 0.16941695E-01 0.15208238E+03</pdfrwt>
<totfact> 0.78081792E+02</totfact>
</mgrwt>
</event>
<event>
 6    4  0.2398389E-003  0.1266195E+03  0.7818608E-02  0.1232560E+00
          4   -1    0    0  502    0  0.00000000000E+00  0.00000000000E+00  0.21179230496E+02  0.21217273727E+02  0.12700000000E+01 0.  1.
         -4   -1    0    0    0  501 -0.00000000000E+00 -0.00000000000E+00 -0.41263293353E+03  0.41263488793E+03  0.12700000000E+01 0.  1.
         25    2    1    2    0    0  0.18615612079E+02 -0.77911716213E+01 -0.39368763892E+03  0.41354861916E+03  0.12500104002E+03 0.  0.
    9000005    1    3    3    0    0  0.57828352882E+02  0.42596526833E+01 -0.34515547364E+03  0.34999366283E+03  0.10000000000E+01 0.  0.
    9000005    1    3    3    0    0 -0.39212740804E+02 -0.12050824305E+02 -0.48532165276E+02  0.63554956330E+02  0.10000000000E+01 0.  0.
         21    1    1    2  502  501 -0.18615612079E+02  0.77911716213E+01  0.22339358802E+01  0.20303542494E+02  0.00000000000E+00 0.  1.
<mgrwt>
<rscale>  1 0.12661952E+03</rscale>
<asrwt>0</asrwt>
<pdfrwt beam="1">  1        4 0.32614202E-02 0.12661952E+03</pdfrwt>
<pdfrwt beam="2">  1       -4 0.63485060E-01 0.12661952E+03</pdfrwt>
<totfact> 0.18044851E+03</totfact>
</mgrwt>
</event>
<event>
 6    4  0.2398389E-003  0.1266573E+03  0.7818608E-02  0.1232502E+00
          4   -1    0    0  502    0  0.00000000000E+00  0.00000000000E+00  0.35583635327E+03  0.35583861961E+03  0.12700000000E+01 0. -1.
         -4   -1    0    0    0  501 -0.00000000000E+00 -0.00000000000E+00 -0.22111758851E+02  0.22148200366E+02  0.12700000000E+01 0. -1.
         25    2    1    2    0    0 -0.19328974984E+02 -0.67632953474E+01  0.16491658158E+03  0.20794124774E+03  0.12499092845E+03 0.  0.
    9000005    1    3    3    0    0 -0.27311597818E+02 -0.54243646081E+02  0.36668692639E+02  0.70949908636E+02  0.10000000000E+01 0.  0.
    9000005    1    3    3    0    0  0.79826228342E+01  0.47480350734E+02  0.12824788894E+03  0.13699133910E+03  0.10000000000E+01 0.  0.
         21    1    1    2  502  501  0.19328974984E+02  0.67632953474E+01  0.16880801284E+03  0.17004557224E+03  0.00000000000E+00 0.  1.
<mgrwt>
<rscale>  1 0.12665735E+03</rscale>
<asrwt>0</asrwt>
<pdfrwt beam="1">  1        4 0.54747032E-01 0.12665735E+03</pdfrwt>
<pdfrwt beam="2">  1       -4 0.34047866E-02 0.12665735E+03</pdfrwt>
<totfact> 0.22985986E+03</totfact>
</mgrwt>
</event>
<event>
 6    4  0.2398389E-003  0.1274771E+03  0.7818608E-02  0.1231248E+00
         -4   -1    0    0    0  501 -0.00000000000E+00  0.00000000000E+00  0.36356094159E+02  0.36378269372E+02  0.12700000000E+01 0. -1.
          4   -1    0    0  502    0  0.00000000000E+00 -0.00000000000E+00 -0.16874796273E+03  0.16875274168E+03  0.12700000000E+01 0. -1.
         25    2    1    2    0    0  0.16283926953E+02 -0.18988035016E+02 -0.90485220066E+02  0.15632651393E+03  0.12499876862E+03 0.  0.
    9000005    1    3    3    0    0 -0.49814055945E+02  0.15369649533E+02 -0.28564183548E+02  0.59452324414E+02  0.10000000000E+01 0.  0.
    9000005    1    3    3    0    0  0.66097982898E+02 -0.34357684548E+02 -0.61921036518E+02  0.96874189515E+02  0.10000000000E+01 0.  0.
         21    1    1    2  502  501 -0.16283926953E+02  0.18988035016E+02 -0.41906648503E+02  0.48804497124E+02  0.00000000000E+00 0.  1.
<mgrwt>
<rscale>  1 0.12747707E+03</rscale>
<asrwt>0</asrwt>
<pdfrwt beam="2">  1        4 0.25963298E-01 0.12747707E+03</pdfrwt>
<pdfrwt beam="1">  1       -4 0.55953187E-02 0.12747707E+03</pdfrwt>
<totfact> 0.44727806E+03</totfact>
</mgrwt>
</event>
<event>
 6    4  0.2398389E-003  0.1299481E+03  0.7818608E-02  0.1227533E+00
          4   -1    0    0  502    0  0.00000000000E+00  0.00000000000E+00  0.10906648884E+03  0.10907388270E+03  0.12700000000E+01 0.  1.
         -4   -1    0    0    0  501 -0.00000000000E+00 -0.00000000000E+00 -0.63466518044E+02  0.63479223472E+02  0.12700000000E+01 0.  1.
         25    2    1    2    0    0 -0.23458200838E+02  0.26651539116E+02  0.28021591927E+02  0.13293504051E+03  0.12500369457E+03 0.  0.
    9000005    1    3    3    0    0 -0.10368013451E+02 -0.21282528451E+02 -0.41314301085E+02  0.47626811717E+02  0.10000000000E+01 0.  0.
    9000005    1    3    3    0    0 -0.13090187388E+02  0.47934067567E+02  0.69335893011E+02  0.85308228789E+02  0.10000000000E+01 0.  0.
         21    1    1    2  502  501  0.23458200838E+02 -0.26651539116E+02  0.17578378872E+02  0.39618065672E+02  0.00000000000E+00 0. -1.
<mgrwt>
<rscale>  1 0.12994813E+03</rscale>
<asrwt>0</asrwt>
<pdfrwt beam="1">  1        4 0.16781006E-01 0.12994813E+03</pdfrwt>
<pdfrwt beam="2">  1       -4 0.97656259E-02 0.12994813E+03</pdfrwt>
<totfact> 0.39515664E+03</totfact>
</mgrwt>
</event>
<event>
 6    4  0.2398389E-003  0.1269995E+03  0.7818608E-02  0.1231977E+00
         -4   -1    0    0    0  501 -0.00000000000E+00  0.00000000000E+00  0.36165106283E+03  0.36165329274E+03  0.12700000000E+01 0.  1.
          4   -1    0    0  502    0  0.00000000000E+00 -0.00000000000E+00 -0.19741378182E+02  0.19782186748E+02  0.12700000000E+01 0.  1.
         25    2    1    2    0    0  0.14104247775E+02 -0.17448518528E+02  0.33451583372E+03  0.35781240526E+03  0.12500197498E+03 0.  0.
    9000005    1    3    3    0    0  0.55660932325E+02  0.39152525436E+01  0.71627335321E+02  0.90801672644E+02  0.10000000000E+01 0.  0.
    9000005    1    3    3    0    0 -0.41556684550E+02 -0.21363771072E+02  0.26288849839E+03  0.26701073262E+03  0.10000000000E+01 0.  0.
         21    1    1    2  502  501 -0.14104247775E+02  0.17448518528E+02  0.73938509349E+01  0.23623074223E+02  0.00000000000E+00 0. -1.
<mgrwt>
<rscale>  1 0.12699951E+03</rscale>
<asrwt>0</asrwt>
<pdfrwt beam="2">  1        4 0.30404461E-02 0.12699951E+03</pdfrwt>
<pdfrwt beam="1">  1       -4 0.55641930E-01 0.12699951E+03</pdfrwt>
<totfact> 0.26565790E+03</totfact>
</mgrwt>
</event>
<event>
 6    4  0.2398389E-003  0.1272419E+03  0.7818608E-02  0.1231607E+00
          4   -1    0    0  502    0  0.00000000000E+00  0.00000000000E+00  0.26303793438E+02  0.26334434667E+02  0.12700000000E+01 0.  1.
         -4   -1    0    0    0  501 -0.00000000000E+00 -0.00000000000E+00 -0.26062974566E+03  0.26063283988E+03  0.12700000000E+01 0.  1.
         25    2    1    2    0    0 -0.10821527588E+02  0.21186551361E+02 -0.22990813883E+03  0.26277032240E+03  0.12499805845E+03 0.  0.
    9000005    1    3    3    0    0  0.37628136550E+02 -0.32518865773E+02 -0.58915743797E+02  0.77106537716E+02  0.10000000000E+01 0.  0.
    9000005    1    3    3    0    0 -0.48449664137E+02  0.53705417135E+02 -0.17099239504E+03  0.18566378469E+03  0.10000000000E+01 0.  0.
         21    1    1    2  502  501  0.10821527588E+02 -0.21186551361E+02 -0.44178133920E+01  0.24196952144E+02  0.00000000000E+00 0. -1.
<mgrwt>
<rscale>  1 0.12724186E+03</rscale>
<asrwt>0</asrwt>
<pdfrwt beam="1">  1        4 0.40493327E-02 0.12724186E+03</pdfrwt>
<pdfrwt beam="2">  1       -4 0.40099477E-01 0.12724186E+03</pdfrwt>
<totfact> 0.32755252E+03</totfact>
</mgrwt>
</event>
<event>
 6    4  0.2398389E-003  0.1341343E+03  0.7818608E-02  0.1221447E+00
          4   -1    0    0  502    0  0.00000000000E+00  0.00000000000E+00  0.29435322481E+03  0.29435596453E+03  0.12700000000E+01 0.  1.
         -4   -1    0    0    0  501 -0.00000000000E+00 -0.00000000000E+00 -0.31828178103E+02  0.31853505637E+02  0.12700000000E+01 0.  1.
         25    2    1    2    0    0 -0.29891011394E+02  0.38378834640E+02  0.13766262100E+03  0.19220561626E+03  0.12500237673E+03 0.  0.
    9000005    1    3    3    0    0 -0.16730477623E+01  0.11829488104E+02  0.15080496526E+03  0.15128077679E+03  0.10000000000E+01 0.  0.
    9000005    1    3    3    0    0 -0.28217963632E+02  0.26549346536E+02 -0.13142344259E+02  0.40924839470E+02  0.10000000000E+01 0.  0.
         21    1    1    2  502  501  0.29891011394E+02 -0.38378834640E+02  0.12486242570E+03  0.13400385391E+03  0.00000000000E+00 0.  1.
<mgrwt>
<rscale>  1 0.13413427E+03</rscale>
<asrwt>0</asrwt>
<pdfrwt beam="1">  1        4 0.45287270E-01 0.13413427E+03</pdfrwt>
<pdfrwt beam="2">  1       -4 0.48988018E-02 0.13413427E+03</pdfrwt>
<totfact> 0.19219532E+03</totfact>
</mgrwt>
</event>
<event>
 6    4  0.2398389E-003  0.1328632E+03  0.7818608E-02  0.1223268E+00
          4   -1    0    0  502    0  0.00000000000E+00  0.00000000000E+00  0.18124635918E+03  0.18125080859E+03  0.12700000000E+01 0.  1.
         -4   -1    0    0    0  501 -0.00000000000E+00 -0.00000000000E+00 -0.45625351562E+02  0.45643023620E+02  0.12700000000E+01 0.  1.
         25    2    1    2    0    0  0.32335820785E+02  0.31340087183E+02  0.79097380961E+02  0.15462539691E+03  0.12499924530E+03 0.  0.
    9000005    1    3    3    0    0 -0.12074135511E+02  0.54524039171E+02 -0.56855204828E+01  0.56142503854E+02  0.10000000000E+01 0.  0.
    9000005    1    3    3    0    0  0.44409956296E+02 -0.23183951988E+02  0.84782901444E+02  0.98482893058E+02  0.10000000000E+01 0.  0.
         21    1    1    2  502  501 -0.32335820785E+02 -0.31340087183E+02  0.56523626655E+02  0.72268435300E+02  0.00000000000E+00 0.  1.
<mgrwt>
<rscale>  1 0.13286315E+03</rscale>
<asrwt>0</asrwt>
<pdfrwt beam="1">  1        4 0.27885756E-01 0.13286315E+03</pdfrwt>
<pdfrwt beam="2">  1       -4 0.70209867E-02 0.13286315E+03</pdfrwt>
<totfact> 0.27332763E+03</totfact>
</mgrwt>
</event>
<event>
 6    4  0.2398389E-003  0.1417611E+03  0.7818608E-02  0.1210979E+00
         -4   -1    0    0    0  501 -0.00000000000E+00  0.00000000000E+00  0.71759342585E+03  0.71759454967E+03  0.12700000000E+01 0.  1.
          4   -1    0    0  502    0  0.00000000000E+00 -0.00000000000E+00 -0.16441153703E+02  0.16490131445E+02  0.12700000000E+01 0.  1.
         25    2    1    2    0    0 -0.30396942058E+01 -0.66798616454E+02  0.56339325622E+03  0.58095453592E+03  0.12499966699E+03 0.  0.
    9000005    1    3    3    0    0 -0.63416490036E+02 -0.39111786317E+02  0.26657869914E+03  0.27679701204E+03  0.10000000000E+01 0.  0.
    9000005    1    3    3    0    0  0.60376795830E+02 -0.27686830137E+02  0.29681455708E+03  0.30415752388E+03  0.10000000000E+01 0.  0.
         21    1    1    2  502  501  0.30396942058E+01  0.66798616454E+02  0.13775901593E+03  0.15313014520E+03  0.00000000000E+00 0.  1.
<mgrwt>
<rscale>  1 0.14176111E+03</rscale>
<asrwt>0</asrwt>
<pdfrwt beam="2">  1        4 0.25332613E-02 0.14176111E+03</pdfrwt>
<pdfrwt beam="1">  1       -4 0.11040288E+00 0.14176111E+03</pdfrwt>
<totfact> 0.79745147E+02</totfact>
</mgrwt>
</event>
<event>
 6    4  0.2398389E-003  0.1278244E+03  0.7818608E-02  0.1230720E+00
          4   -1    0    0  502    0  0.00000000000E+00  0.00000000000E+00  0.43277533253E+02  0.43296163623E+02  0.12700000000E+01 0.  1.
         -4   -1    0    0    0  501 -0.00000000000E+00 -0.00000000000E+00 -0.15135889913E+03  0.15136422711E+03  0.12700000000E+01 0.  1.
         25    2    1    2    0    0  0.97699651092E-02 -0.26732718929E+02 -0.10888776744E+03  0.16791551009E+03  0.12499773708E+03 0.  0.
    9000005    1    3    3    0    0  0.11623691457E+02 -0.16270201267E+02  0.25610998108E+02  0.32507735640E+02  0.10000000000E+01 0.  0.
    9000005    1    3    3    0    0 -0.11613921492E+02 -0.10462517663E+02 -0.13449876555E+03  0.13540777445E+03  0.10000000000E+01 0.  0.
         21    1    1    2  502  501 -0.97699651092E-02  0.26732718929E+02  0.80640155737E+00  0.26744880637E+02  0.00000000000E+00 0.  1.
<mgrwt>
<rscale>  1 0.12782438E+03</rscale>
<asrwt>0</asrwt>
<pdfrwt beam="1">  1        4 0.66599250E-02 0.12782438E+03</pdfrwt>
<pdfrwt beam="2">  1       -4 0.23287827E-01 0.12782438E+03</pdfrwt>
<totfact> 0.41196738E+03</totfact>
</mgrwt>
</event>
<event>
 6    4  0.2398389E-003  0.1277904E+03  0.7818608E-02  0.1230772E+00
         -4   -1    0    0    0  501 -0.00000000000E+00  0.00000000000E+00  0.29894367778E+03  0.29894637543E+03  0.12700000000E+01 0. -1.
          4   -1    0    0  502    0  0.00000000000E+00 -0.00000000000E+00 -0.22782329473E+02  0.22817700064E+02  0.12700000000E+01 0. -1.
         25    2    1    2    0    0 -0.18764589880E+02 -0.18792453335E+02  0.26237785644E+03  0.29184333380E+03  0.12500050319E+03 0.  0.
    9000005    1    3    3    0    0 -0.29718207801E+02  0.30598093786E+02  0.22480619264E+03  0.22881922880E+03  0.10000000000E+01 0.  0.
    9000005    1    3    3    0    0  0.10953617920E+02 -0.49390547121E+02  0.37571663797E+02  0.63024104999E+02  0.10000000000E+01 0.  0.
         21    1    1    2  502  501  0.18764589880E+02  0.18792453335E+02  0.13783491868E+02  0.29920741699E+02  0.00000000000E+00 0. -1.
<mgrwt>
<rscale>  1 0.12779042E+03</rscale>
<asrwt>0</asrwt>
<pdfrwt beam="2">  1        4 0.35079022E-02 0.12779042E+03</pdfrwt>
<pdfrwt beam="1">  1       -4 0.45994261E-01 0.12779042E+03</pdfrwt>
<totfact> 0.31332121E+03</totfact>
</mgrwt>
</event>
<event>
 6    4  0.2398389E-003  0.1301524E+03  0.7818608E-02  0.1227230E+00
          4   -1    0    0  502    0  0.00000000000E+00  0.00000000000E+00  0.89093986321E+02  0.89103037538E+02  0.12700000000E+01 0.  1.
         -4   -1    0    0    0  501 -0.00000000000E+00 -0.00000000000E+00 -0.77983418341E+02  0.77993758957E+02  0.12700000000E+01 0.  1.
         25    2    1    2    0    0 -0.44387027456E+01 -0.35985486751E+02  0.12928902033E+02  0.13079302703E+03  0.12500000829E+03 0.  0.
    9000005    1    3    3    0    0  0.27935360533E+02 -0.64429766456E+02  0.39081363159E+02  0.80373702914E+02  0.10000000000E+01 0.  0.
    9000005    1    3    3    0    0 -0.32374063279E+02  0.28444279705E+02 -0.26152461127E+02  0.50419324114E+02  0.10000000000E+01 0.  0.
         21    1    1    2  502  501  0.44387027456E+01  0.35985486751E+02 -0.18183340527E+01  0.36303769467E+02  0.00000000000E+00 0.  1.
<mgrwt>
<rscale>  1 0.13015245E+03</rscale>
<asrwt>0</asrwt>
<pdfrwt beam="1">  1        4 0.13708259E-01 0.13015245E+03</pdfrwt>
<pdfrwt beam="2">  1       -4 0.11998941E-01 0.13015245E+03</pdfrwt>
<totfact> 0.39700656E+03</totfact>
</mgrwt>
</event>
<event>
 6    4  0.2398389E-003  0.1326980E+03  0.7818608E-02  0.1223506E+00
         -4   -1    0    0    0  501 -0.00000000000E+00  0.00000000000E+00  0.17565204039E+02  0.17611055986E+02  0.12700000000E+01 0.  1.
          4   -1    0    0  502    0  0.00000000000E+00 -0.00000000000E+00 -0.64762118568E+03  0.64762243093E+03  0.12700000000E+01 0.  1.
         25    2    1    2    0    0  0.41029436605E+02  0.17316710939E+02 -0.25422915807E+03  0.28677730126E+03  0.12500189022E+03 0.  0.
    9000005    1    3    3    0    0  0.46910060244E+01  0.53365785248E+02 -0.21689290420E+03  0.22341316985E+03  0.10000000000E+01 0.  0.
    9000005    1    3    3    0    0  0.36338430581E+02 -0.36049074309E+02 -0.37336253876E+02  0.63364131408E+02  0.10000000000E+01 0.  0.
         21    1    1    2  502  501 -0.41029436605E+02 -0.17316710939E+02 -0.37582682357E+03  0.37845618566E+03  0.00000000000E+00 0.  1.
<mgrwt>
<rscale>  1 0.13269799E+03</rscale>
<asrwt>0</asrwt>
<pdfrwt beam="2">  1        4 0.99637633E-01 0.13269799E+03</pdfrwt>
<pdfrwt beam="1">  1       -4 0.27059624E-02 0.13269799E+03</pdfrwt>
<totfact> 0.90273762E+02</totfact>
</mgrwt>
</event>
<event>
 6    4  0.2398389E-003  0.1324351E+03  0.7818608E-02  0.1223887E+00
          4   -1    0    0  502    0  0.00000000000E+00  0.00000000000E+00  0.96999149892E+02  0.97007463526E+02  0.12700000000E+01 0. -1.
         -4   -1    0    0    0  501 -0.00000000000E+00 -0.00000000000E+00 -0.80648794618E+02  0.80658793528E+02  0.12700000000E+01 0. -1.
         25    2    1    2    0    0 -0.42344661873E+02 -0.11128404866E+02  0.19061306463E+02  0.13379985715E+03  0.12498862583E+03 0.  0.
    9000005    1    3    3    0    0 -0.86910918915E+02 -0.28434775009E+01  0.96973746940E+01  0.87502184355E+02  0.10000000000E+01 0.  0.
    9000005    1    3    3    0    0  0.44566257043E+02 -0.82849273650E+01  0.93639317688E+01  0.46297672797E+02  0.10000000000E+01 0.  0.
         21    1    1    2  502  501  0.42344661873E+02  0.11128404866E+02 -0.27109511891E+01  0.43866399902E+02  0.00000000000E+00 0. -1.
<mgrwt>
<rscale>  1 0.13243515E+03</rscale>
<asrwt>0</asrwt>
<pdfrwt beam="1">  1        4 0.14924355E-01 0.13243515E+03</pdfrwt>
<pdfrwt beam="2">  1       -4 0.12408916E-01 0.13243515E+03</pdfrwt>
<totfact> 0.32474947E+03</totfact>
</mgrwt>
</event>
<event>
 6    4  0.2398389E-003  0.1297384E+03  0.7818608E-02  0.1227844E+00
          4   -1    0    0  502    0  0.00000000000E+00  0.00000000000E+00  0.40953395602E+03  0.40953592520E+03  0.12700000000E+01 0.  1.
         -4   -1    0    0    0  501 -0.00000000000E+00 -0.00000000000E+00 -0.16629381599E+02  0.16677806581E+02  0.12700000000E+01 0.  1.
         25    2    1    2    0    0  0.23988209761E+02 -0.25048610294E+02  0.29230518801E+03  0.31980365881E+03  0.12501675953E+03 0.  0.
    9000005    1    3    3    0    0  0.12964589018E+00 -0.63652898422E+02  0.77693715815E+02  0.10044412259E+03  0.10000000000E+01 0.  0.
    9000005    1    3    3    0    0  0.23858563871E+02  0.38604288128E+02  0.21461147220E+03  0.21935953622E+03  0.10000000000E+01 0.  0.
         21    1    1    2  502  501 -0.23988209761E+02  0.25048610294E+02  0.10059938640E+03  0.10641007297E+03  0.00000000000E+00 0.  1.
<mgrwt>
<rscale>  1 0.12973842E+03</rscale>
<asrwt>0</asrwt>
<pdfrwt beam="1">  1        4 0.63009095E-01 0.12973842E+03</pdfrwt>
<pdfrwt beam="2">  1       -4 0.25622431E-02 0.12973842E+03</pdfrwt>
<totfact> 0.26879873E+03</totfact>
</mgrwt>
</event>
<event>
 6    4  0.2398389E-003  0.1270760E+03  0.7818608E-02  0.1231860E+00
          4   -1    0    0  502    0  0.00000000000E+00  0.00000000000E+00  0.10828383158E+02  0.10902604360E+02  0.12700000000E+01 0.  1.
         -4   -1    0    0    0  501 -0.00000000000E+00 -0.00000000000E+00 -0.65882298539E+03  0.65882420947E+03  0.12700000000E+01 0.  1.
         25    2    1    2    0    0  0.21694511103E+02  0.72546720604E+01 -0.62306772438E+03  0.63589441341E+03  0.12500013503E+03 0.  0.
    9000005    1    3    3    0    0  0.47729109646E+01 -0.76163877774E+01  0.29178378073E+01  0.95028321737E+01  0.10000000000E+01 0.  0.
    9000005    1    3    3    0    0  0.16921600138E+02  0.14871059838E+02 -0.62598556219E+03  0.62639158123E+03  0.10000000000E+01 0.  0.
         21    1    1    2  502  501 -0.21694511103E+02 -0.72546720604E+01 -0.24926877852E+02  0.33832400419E+02  0.00000000000E+00 0.  1.
<mgrwt>
<rscale>  1 0.12707602E+03</rscale>
<asrwt>0</asrwt>
<pdfrwt beam="1">  1        4 0.16717091E-02 0.12707602E+03</pdfrwt>
<pdfrwt beam="2">  1       -4 0.10136315E+00 0.12707602E+03</pdfrwt>
<totfact> 0.18066869E+03</totfact>
</mgrwt>
</event>
<event>
 6    4  0.2398389E-003  0.1266217E+03  0.7818608E-02  0.1232556E+00
         -4   -1    0    0    0  501 -0.00000000000E+00  0.00000000000E+00  0.35823279533E+02  0.35845784362E+02  0.12700000000E+01 0.  1.
          4   -1    0    0  502    0  0.00000000000E+00 -0.00000000000E+00 -0.39373386582E+03  0.39373591403E+03  0.12700000000E+01 0.  1.
         25    2    1    2    0    0 -0.23440672385E+00  0.20192966642E+02 -0.77524198639E+02  0.14846902129E+03  0.12500095223E+03 0.  0.
    9000005    1    3    3    0    0  0.23977661873E+02 -0.48232828834E+02 -0.29369269349E+02  0.61358683398E+02  0.10000000000E+01 0.  0.
    9000005    1    3    3    0    0 -0.24212068597E+02  0.68425795476E+02 -0.48154929290E+02  0.87110337890E+02  0.10000000000E+01 0.  0.
         21    1    1    2  502  501  0.23440672385E+00 -0.20192966642E+02 -0.28038638765E+03  0.28111267710E+03  0.00000000000E+00 0.  1.
<mgrwt>
<rscale>  1 0.12662168E+03</rscale>
<asrwt>0</asrwt>
<pdfrwt beam="2">  1        4 0.60576327E-01 0.12662168E+03</pdfrwt>
<pdfrwt beam="1">  1       -4 0.55131627E-02 0.12662168E+03</pdfrwt>
<totfact> 0.86394664E+02</totfact>
</mgrwt>
</event>
<event>
 6    4  0.2398389E-003  0.1282392E+03  0.7818608E-02  0.1230092E+00
          4   -1    0    0  502    0  0.00000000000E+00  0.00000000000E+00  0.90434170141E+01  0.91321569900E+01  0.12700000000E+01 0.  1.
         -4   -1    0    0    0  501 -0.00000000000E+00 -0.00000000000E+00 -0.68382190392E+03  0.68382308324E+03  0.12700000000E+01 0.  1.
         25    2    1    2    0    0 -0.27680094541E+01 -0.28498411897E+02 -0.57649594611E+03  0.59058688974E+03  0.12500190839E+03 0.  0.
    9000005    1    3    3    0    0  0.54014327516E+02  0.14992512884E+02 -0.28297311272E+03  0.28847375191E+03  0.10000000000E+01 0.  0.
    9000005    1    3    3    0    0 -0.56782336970E+02 -0.43490924782E+02 -0.29352283339E+03  0.30211313784E+03  0.10000000000E+01 0.  0.
         21    1    1    2  502  501  0.27680094541E+01  0.28498411897E+02 -0.98282540792E+02  0.10236835049E+03  0.00000000000E+00 0.  1.
<mgrwt>
<rscale>  1 0.12823922E+03</rscale>
<asrwt>0</asrwt>
<pdfrwt beam="1">  1        4 0.13982123E-02 0.12823922E+03</pdfrwt>
<pdfrwt beam="2">  1       -4 0.10521025E+00 0.12823922E+03</pdfrwt>
<totfact> 0.21794698E+03</totfact>
</mgrwt>
</event>
<event>
 6    4  0.2398389E-003  0.1269952E+03  0.7818608E-02  0.1231984E+00
         -4   -1    0    0    0  501 -0.00000000000E+00  0.00000000000E+00  0.82755298455E+03  0.82755395904E+03  0.12700000000E+01 0. -1.
          4   -1    0    0  502    0  0.00000000000E+00 -0.00000000000E+00 -0.26123666876E+02  0.26154519133E+02  0.12700000000E+01 0. -1.
         25    2    1    2    0    0 -0.17535207310E+02  0.13987508563E+02  0.81673760559E+03  0.82655193991E+03  0.12499863636E+03 0.  0.
    9000005    1    3    3    0    0 -0.42743763620E+02 -0.24481988283E+02  0.14307498864E+03  0.15132035373E+03  0.10000000000E+01 0.  0.
    9000005    1    3    3    0    0  0.25208556310E+02  0.38469496846E+02  0.67366261695E+03  0.67523158618E+03  0.10000000000E+01 0.  0.
         21    1    1    2  502  501  0.17535207310E+02 -0.13987508563E+02 -0.15308287925E+02  0.27156538263E+02  0.00000000000E+00 0. -1.
<mgrwt>
<rscale>  1 0.12699525E+03</rscale>
<asrwt>0</asrwt>
<pdfrwt beam="2">  1        4 0.40214740E-02 0.12699525E+03</pdfrwt>
<pdfrwt beam="1">  1       -4 0.12731829E+00 0.12699525E+03</pdfrwt>
<totfact> 0.26857521E+02</totfact>
</mgrwt>
</event>
<event>
 6    4  0.2398389E-003  0.1270218E+03  0.7818608E-02  0.1231943E+00
         -4   -1    0    0    0  501 -0.00000000000E+00  0.00000000000E+00  0.39811859251E+03  0.39812061816E+03  0.12700000000E+01 0.  1.
          4   -1    0    0  502    0  0.00000000000E+00 -0.00000000000E+00 -0.15917947506E+02  0.15968530076E+02  0.12700000000E+01 0.  1.
         25    2    1    2    0    0 -0.21492440687E+02  0.69340325294E+01  0.36253520190E+03  0.38414360656E+03  0.12499812811E+03 0.  0.
    9000005    1    3    3    0    0  0.24862713925E+02 -0.30488376820E+02  0.39860976931E+02  0.56014222719E+02  0.10000000000E+01 0.  0.
    9000005    1    3    3    0    0 -0.46355154613E+02  0.37422409349E+02  0.32267422497E+03  0.32812938384E+03  0.10000000000E+01 0.  0.
         21    1    1    2  502  501  0.21492440687E+02 -0.69340325294E+01  0.19665443110E+02  0.29945541680E+02  0.00000000000E+00 0.  1.
<mgrwt>
<rscale>  1 0.12702180E+03</rscale>
<asrwt>0</asrwt>
<pdfrwt beam="2">  1        4 0.24529616E-02 0.12702180E+03</pdfrwt>
<pdfrwt beam="1">  1       -4 0.61253067E-01 0.12702180E+03</pdfrwt>
<totfact> 0.30374977E+03</totfact>
</mgrwt>
</event>
<event>
 6    4  0.2398389E-003  0.1286616E+03  0.7818608E-02  0.1229455E+00
         -4   -1    0    0    0  501 -0.00000000000E+00  0.00000000000E+00  0.55030352229E+03  0.55030498775E+03  0.12700000000E+01 0. -1.
          4   -1    0    0  502    0  0.00000000000E+00 -0.00000000000E+00 -0.11853010806E+02  0.11920854213E+02  0.12700000000E+01 0. -1.
         25    2    1    2    0    0  0.17467250546E+02  0.24961928644E+02  0.47017706472E+03  0.48746310889E+03  0.12500243046E+03 0.  0.
    9000005    1    3    3    0    0  0.24691962552E+02 -0.14230682906E+02  0.42971923408E+03  0.43066440007E+03  0.10000000000E+01 0.  0.
    9000005    1    3    3    0    0 -0.72247120066E+01  0.39192611550E+02  0.40457830640E+02  0.56798708822E+02  0.10000000000E+01 0.  0.
         21    1    1    2  502  501 -0.17467250546E+02 -0.24961928644E+02  0.68273446767E+02  0.74762733074E+02  0.00000000000E+00 0. -1.
<mgrwt>
<rscale>  1 0.12866161E+03</rscale>
<asrwt>0</asrwt>
<pdfrwt beam="2">  1        4 0.18288715E-02 0.12866161E+03</pdfrwt>
<pdfrwt beam="1">  1       -4 0.84667415E-01 0.12866161E+03</pdfrwt>
<totfact> 0.23761856E+03</totfact>
</mgrwt>
</event>
<event>
 6    4  0.2398389E-003  0.1266231E+03  0.7818608E-02  0.1232554E+00
         -4   -1    0    0    0  501 -0.00000000000E+00  0.00000000000E+00  0.62948821158E+02  0.62961631056E+02  0.12700000000E+01 0.  1.
          4   -1    0    0  502    0  0.00000000000E+00 -0.00000000000E+00 -0.96131842179E+02  0.96140230813E+02  0.12700000000E+01 0.  1.
         25    2    1    2    0    0 -0.17370987827E+02 -0.10309222865E+02 -0.80796590893E+01  0.12688059444E+03  0.12500149224E+03 0.  0.
    9000005    1    3    3    0    0  0.11223772219E+02  0.37376451044E+02 -0.45423983509E+02  0.59894160260E+02  0.10000000000E+01 0.  0.
    9000005    1    3    3    0    0 -0.28594760046E+02 -0.47685673909E+02  0.37344324419E+02  0.66986434183E+02  0.10000000000E+01 0.  0.
         21    1    1    2  502  501  0.17370987827E+02  0.10309222865E+02 -0.25103361932E+02  0.32221267425E+02  0.00000000000E+00 0.  1.
<mgrwt>
<rscale>  1 0.12662308E+03</rscale>
<asrwt>0</asrwt>
<pdfrwt beam="2">  1        4 0.14791145E-01 0.12662308E+03</pdfrwt>
<pdfrwt beam="1">  1       -4 0.96860647E-02 0.12662308E+03</pdfrwt>
<totfact> 0.49657304E+03</totfact>
</mgrwt>
</event>
<event>
 6    4  0.2398389E-003  0.1271607E+03  0.7818608E-02  0.1231731E+00
          4   -1    0    0  502    0  0.00000000000E+00  0.00000000000E+00  0.29565656077E+03  0.29565928842E+03  0.12700000000E+01 0. -1.
         -4   -1    0    0    0  501 -0.00000000000E+00 -0.00000000000E+00 -0.19159374138E+02  0.19201419670E+02  0.12700000000E+01 0. -1.
         25    2    1    2    0    0  0.14182379692E+02  0.18550497782E+02  0.23780410887E+03  0.26966762091E+03  0.12499828283E+03 0.  0.
    9000005    1    3    3    0    0 -0.30725770109E+02 -0.37265502528E+02  0.54334807193E+02  0.72705308611E+02  0.10000000000E+01 0.  0.
    9000005    1    3    3    0    0  0.44908149801E+02  0.55816000310E+02  0.18346930168E+03  0.19696231230E+03  0.10000000000E+01 0.  0.
         21    1    1    2  502  501 -0.14182379692E+02 -0.18550497782E+02  0.38693077762E+02  0.45193087174E+02  0.00000000000E+00 0.  1.
<mgrwt>
<rscale>  1 0.12716065E+03</rscale>
<asrwt>0</asrwt>
<pdfrwt beam="1">  1        4 0.45489062E-01 0.12716065E+03</pdfrwt>
<pdfrwt beam="2">  1       -4 0.29510406E-02 0.12716065E+03</pdfrwt>
<totfact> 0.41967775E+03</totfact>
</mgrwt>
</event>
<event>
 6    4  0.2398389E-003  0.1269139E+03  0.7818608E-02  0.1232108E+00
          4   -1    0    0  502    0  0.00000000000E+00  0.00000000000E+00  0.20467226315E+02  0.20506590478E+02  0.12700000000E+01 0.  1.
         -4   -1    0    0    0  501 -0.00000000000E+00 -0.00000000000E+00 -0.29387373566E+03  0.29387647986E+03  0.12700000000E+01 0.  1.
         25    2    1    2    0    0 -0.21079325947E+01  0.21878906454E+02 -0.25804705727E+03  0.28756809885E+03  0.12499599107E+03 0.  0.
    9000005    1    3    3    0    0 -0.52506623794E+02  0.45707136975E+02 -0.16511720724E+03  0.17919481030E+03  0.10000000000E+01 0.  0.
    9000005    1    3    3    0    0  0.50398691199E+02 -0.23828230521E+02 -0.92929850031E+02  0.10837328855E+03  0.10000000000E+01 0.  0.
         21    1    1    2  502  501  0.21079325947E+01 -0.21878906454E+02 -0.15359452079E+02  0.26814971483E+02  0.00000000000E+00 0.  1.
<mgrwt>
<rscale>  1 0.12691386E+03</rscale>
<asrwt>0</asrwt>
<pdfrwt beam="1">  1        4 0.31520434E-02 0.12691386E+03</pdfrwt>
<pdfrwt beam="2">  1       -4 0.45214580E-01 0.12691386E+03</pdfrwt>
<totfact> 0.38297374E+03</totfact>
</mgrwt>
</event>
<event>
 6    4  0.2398389E-003  0.1271973E+03  0.7818608E-02  0.1231675E+00
          4   -1    0    0  502    0  0.00000000000E+00  0.00000000000E+00  0.64530377910E+02  0.64542873915E+02  0.12700000000E+01 0. -1.
         -4   -1    0    0    0  501 -0.00000000000E+00 -0.00000000000E+00 -0.88144211501E+02  0.88153360237E+02  0.12700000000E+01 0. -1.
         25    2    1    2    0    0 -0.22869290304E+02 -0.55735198797E+01 -0.22155417199E+02  0.12911243587E+03  0.12500036009E+03 0.  0.
    9000005    1    3    3    0    0 -0.48701287936E+02 -0.53244577924E+02 -0.19799455661E+02  0.74831938164E+02  0.10000000000E+01 0.  0.
    9000005    1    3    3    0    0  0.25831997632E+02  0.47671058045E+02 -0.23559615383E+01  0.54280497709E+02  0.10000000000E+01 0.  0.
         21    1    1    2  502  501  0.22869290304E+02  0.55735198797E+01 -0.14584163923E+01  0.23583798278E+02  0.00000000000E+00 0. -1.
<mgrwt>
<rscale>  1 0.12719732E+03</rscale>
<asrwt>0</asrwt>
<pdfrwt beam="1">  1        4 0.99294154E-02 0.12719732E+03</pdfrwt>
<pdfrwt beam="2">  1       -4 0.13562313E-01 0.12719732E+03</pdfrwt>
<totfact> 0.55424123E+03</totfact>
</mgrwt>
</event>
<event>
 6    4  0.2398389E-003  0.1266525E+03  0.7818608E-02  0.1232509E+00
         -4   -1    0    0    0  501 -0.00000000000E+00  0.00000000000E+00  0.14648281457E+02  0.14703232626E+02  0.12700000000E+01 0.  1.
          4   -1    0    0  502    0  0.00000000000E+00 -0.00000000000E+00 -0.40405845491E+03  0.40406045078E+03  0.12700000000E+01 0.  1.
         25    2    1    2    0    0 -0.26581703344E+01 -0.20248840488E+02 -0.27791890465E+03  0.30541738029E+03  0.12499510875E+03 0.  0.
    9000005    1    3    3    0    0 -0.54251410693E+02  0.21954170921E+02 -0.10710366368E+03  0.12205488912E+03  0.10000000000E+01 0.  0.
    9000005    1    3    3    0    0  0.51593240358E+02 -0.42203011409E+02 -0.17081524097E+03  0.18336249118E+03  0.10000000000E+01 0.  0.
         21    1    1    2  502  501  0.26581703344E+01  0.20248840488E+02 -0.11149126880E+03  0.11334630311E+03  0.00000000000E+00 0.  1.
<mgrwt>
<rscale>  1 0.12665251E+03</rscale>
<asrwt>0</asrwt>
<pdfrwt beam="2">  1        4 0.62167211E-01 0.12665251E+03</pdfrwt>
<pdfrwt beam="1">  1       -4 0.22579626E-02 0.12665251E+03</pdfrwt>
<totfact> 0.33446240E+03</totfact>
</mgrwt>
</event>
<event>
 6    4  0.2398389E-003  0.1327272E+03  0.7818608E-02  0.1223464E+00
         -4   -1    0    0    0  501 -0.00000000000E+00  0.00000000000E+00  0.37487763616E+03  0.37487978739E+03  0.12700000000E+01 0. -1.
          4   -1    0    0  502    0  0.00000000000E+00 -0.00000000000E+00 -0.92083785267E+02  0.92092542636E+02  0.12700000000E+01 0. -1.
         25    2    1    2    0    0  0.44611222718E+02  0.88027708229E+00  0.35672664404E+03  0.38061844198E+03  0.12500225489E+03 0.  0.
    9000005    1    3    3    0    0 -0.14668624306E+02  0.24573839461E+02  0.27700450308E+03  0.27848076567E+03  0.10000000000E+01 0.  0.
    9000005    1    3    3    0    0  0.59279847024E+02 -0.23693562379E+02  0.79722140961E+02  0.10213767630E+03  0.10000000000E+01 0.  0.
         21    1    1    2  502  501 -0.44611222718E+02 -0.88027708229E+00 -0.73932793140E+02  0.86353888052E+02  0.00000000000E+00 0. -1.
<mgrwt>
<rscale>  1 0.13272716E+03</rscale>
<asrwt>0</asrwt>
<pdfrwt beam="2">  1        4 0.14167575E-01 0.13272716E+03</pdfrwt>
<pdfrwt beam="1">  1       -4 0.57674321E-01 0.13272716E+03</pdfrwt>
<totfact> 0.19984982E+02</totfact>
</mgrwt>
</event>
<event>
 6    4  0.2398389E-003  0.1279036E+03  0.7818608E-02  0.1230600E+00
         -4   -1    0    0    0  501 -0.00000000000E+00  0.00000000000E+00  0.33193302661E+03  0.33193545616E+03  0.12700000000E+01 0. -1.
          4   -1    0    0  502    0  0.00000000000E+00 -0.00000000000E+00 -0.91942040971E+02  0.91950811839E+02  0.12700000000E+01 0. -1.
         25    2    1    2    0    0 -0.23987684118E+02  0.12637073987E+02  0.31722073816E+03  0.34203555448E+03  0.12499687671E+03 0.  0.
    9000005    1    3    3    0    0 -0.65129433369E+02  0.25220323019E+02  0.10933521312E+03  0.12974242410E+03  0.10000000000E+01 0.  0.
    9000005    1    3    3    0    0  0.41141749250E+02 -0.12583249031E+02  0.20788552504E+03  0.21229313038E+03  0.10000000000E+01 0.  0.
         21    1    1    2  502  501  0.23987684118E+02 -0.12637073987E+02 -0.77229752518E+02  0.81850713511E+02  0.00000000000E+00 0. -1.
<mgrwt>
<rscale>  1 0.12790357E+03</rscale>
<asrwt>0</asrwt>
<pdfrwt beam="2">  1        4 0.14145791E-01 0.12790357E+03</pdfrwt>
<pdfrwt beam="1">  1       -4 0.51067482E-01 0.12790357E+03</pdfrwt>
<totfact> 0.25578888E+02</totfact>
</mgrwt>
</event>
<event>
 6    4  0.2398389E-003  0.1276911E+03  0.7818608E-02  0.1230923E+00
         -4   -1    0    0    0  501 -0.00000000000E+00  0.00000000000E+00  0.24040370466E+03  0.24040705921E+03  0.12700000000E+01 0. -1.
          4   -1    0    0  502    0  0.00000000000E+00 -0.00000000000E+00 -0.26954249317E+02  0.26984151946E+02  0.12700000000E+01 0. -1.
         25    2    1    2    0    0  0.25480665850E+02 -0.56059735455E+01  0.20182878415E+03  0.23883020153E+03  0.12499726309E+03 0.  0.
    9000005    1    3    3    0    0 -0.25459176521E+02 -0.34791028204E+02  0.19586715084E+02  0.47362693340E+02  0.10000000000E+01 0.  0.
    9000005    1    3    3    0    0  0.50939842370E+02  0.29185054659E+02  0.18224206906E+03  0.19146750819E+03  0.10000000000E+01 0.  0.
         21    1    1    2  502  501 -0.25480665850E+02  0.56059735455E+01  0.11620671201E+02  0.28561009623E+02  0.00000000000E+00 0. -1.
<mgrwt>
<rscale>  1 0.12769106E+03</rscale>
<asrwt>0</asrwt>
<pdfrwt beam="2">  1        4 0.41493659E-02 0.12769106E+03</pdfrwt>
<pdfrwt beam="1">  1       -4 0.36987743E-01 0.12769106E+03</pdfrwt>
<totfact> 0.36929741E+03</totfact>
</mgrwt>
</event>
<event>
 6    4  0.2398389E-003  0.1545857E+03  0.7818608E-02  0.1194949E+00
          4   -1    0    0  502    0  0.00000000000E+00  0.00000000000E+00  0.11563404123E+04  0.11563411097E+04  0.12700000000E+01 0.  1.
         -4   -1    0    0    0  501 -0.00000000000E+00 -0.00000000000E+00 -0.20875981858E+02  0.20914576700E+02  0.12700000000E+01 0.  1.
         25    2    1    2    0    0 -0.17899665247E+02 -0.89173568201E+02  0.30610731248E+03  0.34292628361E+03  0.12499770379E+03 0.  0.
    9000005    1    3    3    0    0 -0.54775633131E+02 -0.78059407894E+02  0.12210198141E+03  0.15493074262E+03  0.10000000000E+01 0.  0.
    9000005    1    3    3    0    0  0.36875967883E+02 -0.11114160307E+02  0.18400533107E+03  0.18799554098E+03  0.10000000000E+01 0.  0.
         21    1    1    2  502  501  0.17899665247E+02  0.89173568201E+02  0.82935711791E+03  0.83432940276E+03  0.00000000000E+00 0.  1.
<mgrwt>
<rscale>  1 0.15458573E+03</rscale>
<asrwt>0</asrwt>
<pdfrwt beam="1">  1        4 0.17790161E+00 0.15458573E+03</pdfrwt>
<pdfrwt beam="2">  1       -4 0.32147109E-02 0.15458573E+03</pdfrwt>
<totfact> 0.16783927E+02</totfact>
</mgrwt>
</event>
<event>
 6    4  0.2398389E-003  0.1269605E+03  0.7818608E-02  0.1232037E+00
         -4   -1    0    0    0  501 -0.00000000000E+00  0.00000000000E+00  0.14756345581E+03  0.14756892081E+03  0.12700000000E+01 0.  1.
          4   -1    0    0  502    0  0.00000000000E+00 -0.00000000000E+00 -0.41052144688E+02  0.41071784518E+02  0.12700000000E+01 0.  1.
         25    2    1    2    0    0  0.15669908017E+02  0.15801450264E+02  0.10750909128E+03  0.16636454289E+03  0.12499489820E+03 0.  0.
    9000005    1    3    3    0    0 -0.84195229113E+01  0.52406718589E+02  0.31585600390E+01  0.53182036637E+02  0.10000000000E+01 0.  0.
    9000005    1    3    3    0    0  0.24089430928E+02 -0.36605268325E+02  0.10435053124E+03  0.11318250626E+03  0.10000000000E+01 0.  0.
         21    1    1    2  502  501 -0.15669908017E+02 -0.15801450264E+02 -0.99778016293E+00  0.22276162438E+02  0.00000000000E+00 0. -1.
<mgrwt>
<rscale>  1 0.12696045E+03</rscale>
<asrwt>0</asrwt>
<pdfrwt beam="2">  1        4 0.63176458E-02 0.12696045E+03</pdfrwt>
<pdfrwt beam="1">  1       -4 0.22704001E-01 0.12696045E+03</pdfrwt>
<totfact> 0.46949831E+03</totfact>
</mgrwt>
</event>
<event>
 6    4  0.2398389E-003  0.1269540E+03  0.7818608E-02  0.1232047E+00
         -4   -1    0    0    0  501 -0.00000000000E+00  0.00000000000E+00  0.94764045913E+02  0.94772555615E+02  0.12700000000E+01 0. -1.
          4   -1    0    0  502    0  0.00000000000E+00 -0.00000000000E+00 -0.59839846507E+02  0.59853321796E+02  0.12700000000E+01 0. -1.
         25    2    1    2    0    0 -0.13055159633E+02 -0.17962706969E+02  0.37230855375E+02  0.13230062945E+03  0.12499689567E+03 0.  0.
    9000005    1    3    3    0    0  0.42375496875E+02  0.21383529759E+02 -0.11263913694E+02  0.48793583923E+02  0.10000000000E+01 0.  0.
    9000005    1    3    3    0    0 -0.55430656508E+02 -0.39346236728E+02  0.48494769070E+02  0.83507045528E+02  0.10000000000E+01 0.  0.
         21    1    1    2  502  501  0.13055159633E+02  0.17962706969E+02 -0.23066559696E+01  0.22325247960E+02  0.00000000000E+00 0.  1.
<mgrwt>
<rscale>  1 0.12695401E+03</rscale>
<asrwt>0</asrwt>
<pdfrwt beam="2">  1        4 0.92078214E-02 0.12695401E+03</pdfrwt>
<pdfrwt beam="1">  1       -4 0.14580775E-01 0.12695401E+03</pdfrwt>
<totfact> 0.55453693E+03</totfact>
</mgrwt>
</event>
<event>
 6    4  0.2398389E-003  0.1451712E+03  0.7818608E-02  0.1206535E+00
          4   -1    0    0  502    0  0.00000000000E+00  0.00000000000E+00  0.25085426958E+02  0.25117554532E+02  0.12700000000E+01 0.  1.
         -4   -1    0    0    0  501 -0.00000000000E+00 -0.00000000000E+00 -0.74659124536E+03  0.74659232554E+03  0.12700000000E+01 0.  1.
         25    2    1    2    0    0 -0.58938494403E+02 -0.44452490387E+02 -0.65953948802E+03  0.67532732913E+03  0.12499958075E+03 0.  0.
    9000005    1    3    3    0    0 -0.57685977676E+02 -0.18217050736E+02 -0.11318421696E+03  0.12834017269E+03  0.10000000000E+01 0.  0.
    9000005    1    3    3    0    0 -0.12525167267E+01 -0.26235439651E+02 -0.54635527106E+03  0.54698715644E+03  0.10000000000E+01 0.  0.
         21    1    1    2  502  501  0.58938494403E+02  0.44452490387E+02 -0.61966330379E+02  0.96382550935E+02  0.00000000000E+00 0.  1.
<mgrwt>
<rscale>  1 0.14517116E+03</rscale>
<asrwt>0</asrwt>
<pdfrwt beam="1">  1        4 0.38618515E-02 0.14517116E+03</pdfrwt>
<pdfrwt beam="2">  1       -4 0.11486273E+00 0.14517116E+03</pdfrwt>
<totfact> 0.37597196E+02</totfact>
</mgrwt>
</event>
<event>
 6    4  0.2398389E-003  0.1271849E+03  0.7818608E-02  0.1231694E+00
          4   -1    0    0  502    0  0.00000000000E+00  0.00000000000E+00  0.81675766522E+02  0.81685639723E+02  0.12700000000E+01 0. -1.
         -4   -1    0    0    0  501 -0.00000000000E+00 -0.00000000000E+00 -0.93615119006E+02  0.93623733137E+02  0.12700000000E+01 0. -1.
         25    2    1    2    0    0 -0.56826665621E+01 -0.22771324987E+02 -0.44872910063E+02  0.13486873543E+03  0.12500068719E+03 0.  0.
    9000005    1    3    3    0    0  0.27744012165E+01 -0.70276920589E+02 -0.20847441583E+01  0.70369659853E+02  0.10000000000E+01 0.  0.
    9000005    1    3    3    0    0 -0.84570677787E+01  0.47505595602E+02 -0.42788165905E+02  0.64499075578E+02  0.10000000000E+01 0.  0.
         21    1    1    2  502  501  0.56826665621E+01  0.22771324987E+02  0.32933557579E+02  0.40440637430E+02  0.00000000000E+00 0. -1.
<mgrwt>
<rscale>  1 0.12718490E+03</rscale>
<asrwt>0</asrwt>
<pdfrwt beam="1">  1        4 0.12566925E-01 0.12718490E+03</pdfrwt>
<pdfrwt beam="2">  1       -4 0.14403748E-01 0.12718490E+03</pdfrwt>
<totfact> 0.33473505E+03</totfact>
</mgrwt>
</event>
<event>
 6    4  0.2398389E-003  0.1275888E+03  0.7818608E-02  0.1231078E+00
         -4   -1    0    0    0  501 -0.00000000000E+00  0.00000000000E+00  0.27858063240E+03  0.27858352724E+03  0.12700000000E+01 0.  1.
          4   -1    0    0  502    0  0.00000000000E+00 -0.00000000000E+00 -0.21198278217E+02  0.21236287325E+02  0.12700000000E+01 0.  1.
         25    2    1    2    0    0 -0.19363982253E+02 -0.17056241994E+02  0.20576907544E+03  0.24211531091E+03  0.12495211950E+03 0.  0.
    9000005    1    3    3    0    0 -0.37642526833E+02 -0.58894109241E+00  0.21311751642E+03  0.21641945958E+03  0.10000000000E+01 0.  0.
    9000005    1    3    3    0    0  0.18278544580E+02 -0.16467300901E+02 -0.73484409771E+01  0.25695851333E+02  0.10000000000E+01 0.  0.
         21    1    1    2  502  501  0.19363982253E+02  0.17056241994E+02  0.51613278740E+02  0.57704503653E+02  0.00000000000E+00 0.  1.
<mgrwt>
<rscale>  1 0.12758884E+03</rscale>
<asrwt>0</asrwt>
<pdfrwt beam="2">  1        4 0.32644202E-02 0.12758884E+03</pdfrwt>
<pdfrwt beam="1">  1       -4 0.42861702E-01 0.12758884E+03</pdfrwt>
<totfact> 0.40377412E+03</totfact>
</mgrwt>
</event>
<event>
 6    4  0.2398389E-003  0.1323713E+03  0.7818608E-02  0.1223979E+00
         -4   -1    0    0    0  501 -0.00000000000E+00  0.00000000000E+00  0.35050597449E+02  0.35073598070E+02  0.12700000000E+01 0. -1.
          4   -1    0    0  502    0  0.00000000000E+00 -0.00000000000E+00 -0.22947069516E+03  0.22947420953E+03  0.12700000000E+01 0. -1.
         25    2    1    2    0    0  0.53865906990E+00  0.43555455014E+02 -0.12188782128E+03  0.17994107655E+03  0.12499912894E+03 0.  0.
    9000005    1    3    3    0    0  0.29122785659E+02 -0.15938609817E+02  0.80685972117E+01  0.34180084675E+02  0.10000000000E+01 0.  0.
    9000005    1    3    3    0    0 -0.28584126589E+02  0.59494064831E+02 -0.12995641850E+03  0.14576099187E+03  0.10000000000E+01 0.  0.
         21    1    1    2  502  501 -0.53865906990E+00 -0.43555455014E+02 -0.72532276428E+02  0.84606731049E+02  0.00000000000E+00 0. -1.
<mgrwt>
<rscale>  1 0.13237126E+03</rscale>
<asrwt>0</asrwt>
<pdfrwt beam="2">  1        4 0.35305223E-01 0.13237126E+03</pdfrwt>
<pdfrwt beam="1">  1       -4 0.53944394E-02 0.13237126E+03</pdfrwt>
<totfact> 0.26780147E+03</totfact>
</mgrwt>
</event>
<event>
 6    4  0.2398389E-003  0.1303581E+03  0.7818608E-02  0.1226925E+00
         -4   -1    0    0    0  501 -0.00000000000E+00  0.00000000000E+00  0.16405129450E+03  0.16405621027E+03  0.12700000000E+01 0.  1.
          4   -1    0    0  502    0  0.00000000000E+00 -0.00000000000E+00 -0.54525019196E+02  0.54539807648E+02  0.12700000000E+01 0.  1.
         25    2    1    2    0    0 -0.15791630522E+02 -0.33445724155E+02  0.12300502149E+03  0.17923018682E+03  0.12500092999E+03 0.  0.
    9000005    1    3    3    0    0  0.94916252995E+01 -0.58833314876E+02  0.96946905828E+01  0.60385734372E+02  0.10000000000E+01 0.  0.
    9000005    1    3    3    0    0 -0.25283255821E+02  0.25387590721E+02  0.11331033091E+03  0.11884445245E+03  0.10000000000E+01 0.  0.
         21    1    1    2  502  501  0.15791630522E+02  0.33445724155E+02 -0.13478746188E+02  0.39365831093E+02  0.00000000000E+00 0.  1.
<mgrwt>
<rscale>  1 0.13035806E+03</rscale>
<asrwt>0</asrwt>
<pdfrwt beam="2">  1        4 0.83899802E-02 0.13035806E+03</pdfrwt>
<pdfrwt beam="1">  1       -4 0.25240176E-01 0.13035806E+03</pdfrwt>
<totfact> 0.24405244E+03</totfact>
</mgrwt>
</event>
<event>
 6    4  0.2398389E-003  0.1267085E+03  0.7818608E-02  0.1232423E+00
          4   -1    0    0  502    0  0.00000000000E+00  0.00000000000E+00  0.66604023395E+03  0.66604144476E+03  0.12700000000E+01 0. -1.
         -4   -1    0    0    0  501 -0.00000000000E+00 -0.00000000000E+00 -0.10394993124E+02  0.10472286381E+02  0.12700000000E+01 0. -1.
         25    2    1    2    0    0  0.11723405248E+02 -0.17116703843E+02  0.39016438877E+03  0.41022347111E+03  0.12499850480E+03 0.  0.
    9000005    1    3    3    0    0  0.28826303604E+02 -0.90902396836E+01  0.39013393151E+03  0.39130432243E+03  0.10000000000E+01 0.  0.
    9000005    1    3    3    0    0 -0.17102898356E+02 -0.80264641591E+01  0.30457260854E-01  0.18919148679E+02  0.10000000000E+01 0.  0.
         21    1    1    2  502  501 -0.11723405248E+02  0.17116703843E+02  0.26548085205E+03  0.26629026003E+03  0.00000000000E+00 0. -1.
<mgrwt>
<rscale>  1 0.12670851E+03</rscale>
<asrwt>0</asrwt>
<pdfrwt beam="1">  1        4 0.10247379E+00 0.12670851E+03</pdfrwt>
<pdfrwt beam="2">  1       -4 0.16052682E-02 0.12670851E+03</pdfrwt>
<totfact> 0.18728450E+03</totfact>
</mgrwt>
</event>
<event>
 6    4  0.2398389E-003  0.1278184E+03  0.7818608E-02  0.1230729E+00
          4   -1    0    0  502    0  0.00000000000E+00  0.00000000000E+00  0.11558085226E+03  0.11558782941E+03  0.12700000000E+01 0.  1.
         -4   -1    0    0    0  501 -0.00000000000E+00 -0.00000000000E+00 -0.55396388162E+02  0.55410944058E+02  0.12700000000E+01 0.  1.
         25    2    1    2    0    0 -0.18639248834E+02  0.19069354287E+02  0.31114362898E+02  0.13155092621E+03  0.12500592281E+03 0.  0.
    9000005    1    3    3    0    0 -0.72001594792E+02  0.32596432670E+01  0.19744485842E+02  0.74737538412E+02  0.10000000000E+01 0.  0.
    9000005    1    3    3    0    0  0.53362345957E+02  0.15809711020E+02  0.11369877057E+02  0.56813387796E+02  0.10000000000E+01 0.  0.
         21    1    1    2  502  501  0.18639248834E+02 -0.19069354287E+02  0.29070101197E+02  0.39447847262E+02  0.00000000000E+00 0.  1.
<mgrwt>
<rscale>  1 0.12781840E+03</rscale>
<asrwt>0</asrwt>
<pdfrwt beam="1">  1        4 0.17783326E-01 0.12781840E+03</pdfrwt>
<pdfrwt beam="2">  1       -4 0.85241777E-02 0.12781840E+03</pdfrwt>
<totfact> 0.44576104E+03</totfact>
</mgrwt>
</event>
<event>
 6    4  0.2398389E-003  0.1272093E+03  0.7818608E-02  0.1231656E+00
         -4   -1    0    0    0  501 -0.00000000000E+00  0.00000000000E+00  0.45687319141E+02  0.45704967239E+02  0.12700000000E+01 0.  1.
          4   -1    0    0  502    0  0.00000000000E+00 -0.00000000000E+00 -0.12641525713E+03  0.12642163634E+03  0.12700000000E+01 0.  1.
         25    2    1    2    0    0 -0.93668226202E+01  0.21612069478E+02 -0.75739600716E+02  0.14804959334E+03  0.12500950388E+03 0.  0.
    9000005    1    3    3    0    0 -0.60805761519E+02  0.36839151469E+02 -0.57293155313E+02  0.91312481953E+02  0.10000000000E+01 0.  0.
    9000005    1    3    3    0    0  0.51438938898E+02 -0.15227081991E+02 -0.18446445403E+02  0.56737111391E+02  0.10000000000E+01 0.  0.
         21    1    1    2  502  501  0.93668226202E+01 -0.21612069478E+02 -0.49883372712E+01  0.24077010235E+02  0.00000000000E+00 0. -1.
<mgrwt>
<rscale>  1 0.12720926E+03</rscale>
<asrwt>0</asrwt>
<pdfrwt beam="2">  1        4 0.19450349E-01 0.12720926E+03</pdfrwt>
<pdfrwt beam="1">  1       -4 0.70306666E-02 0.12720926E+03</pdfrwt>
<totfact> 0.52157648E+03</totfact>
</mgrwt>
</event>
<event>
 6    4  0.2398389E-003  0.1270920E+03  0.7818608E-02  0.1231836E+00
          4   -1    0    0  502    0  0.00000000000E+00  0.00000000000E+00  0.92675242363E+01  0.93541384142E+01  0.12700000000E+01 0. -1.
         -4   -1    0    0    0  501 -0.00000000000E+00 -0.00000000000E+00 -0.60734209467E+03  0.60734342251E+03  0.12700000000E+01 0. -1.
         25    2    1    2    0    0 -0.16850799556E+02 -0.15601695089E+02 -0.52079081074E+03  0.53607410374E+03  0.12500005525E+03 0.  0.
    9000005    1    3    3    0    0 -0.53152221985E+02  0.30146481589E+02 -0.17451557651E+03  0.18490715372E+03  0.10000000000E+01 0.  0.
    9000005    1    3    3    0    0  0.36301422429E+02 -0.45748176678E+02 -0.34627523423E+03  0.35116695002E+03  0.10000000000E+01 0.  0.
         21    1    1    2  502  501  0.16850799556E+02  0.15601695089E+02 -0.77283759698E+02  0.80623457184E+02  0.00000000000E+00 0. -1.
<mgrwt>
<rscale>  1 0.12709200E+03</rscale>
<asrwt>0</asrwt>
<pdfrwt beam="1">  1        4 0.14325382E-02 0.12709200E+03</pdfrwt>
<pdfrwt beam="2">  1       -4 0.93443980E-01 0.12709200E+03</pdfrwt>
<totfact> 0.27551820E+03</totfact>
</mgrwt>
</event>
<event>
 6    4  0.2398389E-003  0.1266701E+03  0.7818608E-02  0.1232482E+00
         -4   -1    0    0    0  501 -0.00000000000E+00  0.00000000000E+00  0.25503498323E+03  0.25503814533E+03  0.12700000000E+01 0. -1.
          4   -1    0    0  502    0  0.00000000000E+00 -0.00000000000E+00 -0.37243855561E+02  0.37265502507E+02  0.12700000000E+01 0. -1.
         25    2    1    2    0    0  0.94204460017E+01 -0.18221281659E+02  0.23404992885E+03  0.26612907001E+03  0.12499821120E+03 0.  0.
    9000005    1    3    3    0    0 -0.29831829229E+02  0.41691809462E+02  0.13054432196E+03  0.14025321746E+03  0.10000000000E+01 0.  0.
    9000005    1    3    3    0    0  0.39252275231E+02 -0.59913091121E+02  0.10350560689E+03  0.12587585255E+03  0.10000000000E+01 0.  0.
         21    1    1    2  502  501 -0.94204460017E+01  0.18221281659E+02 -0.16258801182E+02  0.26174577819E+02  0.00000000000E+00 0.  1.
<mgrwt>
<rscale>  1 0.12667009E+03</rscale>
<asrwt>0</asrwt>
<pdfrwt beam="2">  1        4 0.57317323E-02 0.12667009E+03</pdfrwt>
<pdfrwt beam="1">  1       -4 0.39238060E-01 0.12667009E+03</pdfrwt>
<totfact> 0.19567536E+03</totfact>
</mgrwt>
</event>
<event>
 6    4  0.2398389E-003  0.1288321E+03  0.7818608E-02  0.1229199E+00
         -4   -1    0    0    0  501 -0.00000000000E+00  0.00000000000E+00  0.86625132899E+02  0.86634442053E+02  0.12700000000E+01 0.  1.
          4   -1    0    0  502    0  0.00000000000E+00 -0.00000000000E+00 -0.77638454815E+02  0.77648841370E+02  0.12700000000E+01 0.  1.
         25    2    1    2    0    0  0.24220253172E+01 -0.31099620191E+02  0.21610383110E+02  0.13063197570E+03  0.12499860733E+03 0.  0.
    9000005    1    3    3    0    0  0.27504816982E+00 -0.73390549366E+02  0.40972199386E+02  0.84059321377E+02  0.10000000000E+01 0.  0.
    9000005    1    3    3    0    0  0.21469771474E+01  0.42290929176E+02 -0.19361816276E+02  0.46572654325E+02  0.10000000000E+01 0.  0.
         21    1    1    2  502  501 -0.24220253172E+01  0.31099620191E+02 -0.12623705026E+02  0.33651307720E+02  0.00000000000E+00 0.  1.
<mgrwt>
<rscale>  1 0.12883208E+03</rscale>
<asrwt>0</asrwt>
<pdfrwt beam="2">  1        4 0.11945893E-01 0.12883208E+03</pdfrwt>
<pdfrwt beam="1">  1       -4 0.13328459E-01 0.12883208E+03</pdfrwt>
<totfact> 0.41885894E+03</totfact>
</mgrwt>
</event>
<event>
 6    4  0.2398389E-003  0.1269448E+03  0.7818608E-02  0.1232061E+00
          4   -1    0    0  502    0  0.00000000000E+00  0.00000000000E+00  0.14310779645E+03  0.14311343160E+03  0.12700000000E+01 0.  1.
         -4   -1    0    0    0  501 -0.00000000000E+00 -0.00000000000E+00 -0.39156238934E+02  0.39176829216E+02  0.12700000000E+01 0.  1.
         25    2    1    2    0    0  0.73988619264E+00  0.22155161139E+02  0.82205803289E+02  0.15123746024E+03  0.12499430663E+03 0.  0.
    9000005    1    3    3    0    0 -0.27508044423E+02  0.50826537961E+02 -0.20695739012E+01  0.57838677415E+02  0.10000000000E+01 0.  0.
    9000005    1    3    3    0    0  0.28247930616E+02 -0.28671376822E+02  0.84275377191E+02  0.93398782827E+02  0.10000000000E+01 0.  0.
         21    1    1    2  502  501 -0.73988619264E+00 -0.22155161139E+02  0.21745754227E+02  0.31052800575E+02  0.00000000000E+00 0.  1.
<mgrwt>
<rscale>  1 0.12694477E+03</rscale>
<asrwt>0</asrwt>
<pdfrwt beam="1">  1        4 0.22018602E-01 0.12694477E+03</pdfrwt>
<pdfrwt beam="2">  1       -4 0.60260540E-02 0.12694477E+03</pdfrwt>
<totfact> 0.53605006E+03</totfact>
</mgrwt>
</event>
<event>
 6    4  0.2398389E-003  0.1370540E+03  0.7818608E-02  0.1217349E+00
         -4   -1    0    0    0  501 -0.00000000000E+00  0.00000000000E+00  0.13732505769E+03  0.13733093013E+03  0.12700000000E+01 0. -1.
          4   -1    0    0  502    0  0.00000000000E+00 -0.00000000000E+00 -0.91840500127E+02  0.91849280692E+02  0.12700000000E+01 0. -1.
         25    2    1    2    0    0 -0.54455876761E+02  0.13918366357E+02  0.84271577438E+02  0.16088968185E+03  0.12499851009E+03 0.  0.
    9000005    1    3    3    0    0 -0.60022364074E+02  0.56399595098E+02  0.21929322479E+02  0.85237865415E+02  0.10000000000E+01 0.  0.
    9000005    1    3    3    0    0  0.55664873130E+01 -0.42481228741E+02  0.62342254959E+02  0.75651816434E+02  0.10000000000E+01 0.  0.
         21    1    1    2  502  501  0.54455876761E+02 -0.13918366357E+02 -0.38787019877E+02  0.68290528968E+02  0.00000000000E+00 0. -1.
<mgrwt>
<rscale>  1 0.13705397E+03</rscale>
<asrwt>0</asrwt>
<pdfrwt beam="2">  1        4 0.14130435E-01 0.13705397E+03</pdfrwt>
<pdfrwt beam="1">  1       -4 0.21128059E-01 0.13705397E+03</pdfrwt>
<totfact> 0.14104608E+03</totfact>
</mgrwt>
</event>
<event>
 6    4  0.2398389E-003  0.1266198E+03  0.7818608E-02  0.1232559E+00
          4   -1    0    0  502    0  0.00000000000E+00  0.00000000000E+00  0.11640572756E+02  0.11709647052E+02  0.12700000000E+01 0.  1.
         -4   -1    0    0    0  501 -0.00000000000E+00 -0.00000000000E+00 -0.46928349166E+03  0.46928521012E+03  0.12700000000E+01 0.  1.
         25    2    1    2    0    0  0.18778950031E+02  0.73948254578E+01 -0.37027645969E+03  0.39132752421E+03  0.12500096876E+03 0.  0.
    9000005    1    3    3    0    0  0.31080009212E+02  0.25624263963E+02 -0.29740173488E+02  0.50080413291E+02  0.10000000000E+01 0.  0.
    9000005    1    3    3    0    0 -0.12301059181E+02 -0.18229438506E+02 -0.34053628621E+03  0.34124711092E+03  0.10000000000E+01 0.  0.
         21    1    1    2  502  501 -0.18778950031E+02 -0.73948254578E+01 -0.87366459205E+02  0.89667332969E+02  0.00000000000E+00 0.  1.
<mgrwt>
<rscale>  1 0.12661980E+03</rscale>
<asrwt>0</asrwt>
<pdfrwt beam="1">  1        4 0.17963033E-02 0.12661980E+03</pdfrwt>
<pdfrwt beam="2">  1       -4 0.72202891E-01 0.12661980E+03</pdfrwt>
<totfact> 0.34533221E+03</totfact>
</mgrwt>
</event>
<event>
 6    4  0.2398389E-003  0.1388922E+03  0.7818608E-02  0.1214827E+00
          4   -1    0    0  502    0  0.00000000000E+00  0.00000000000E+00  0.30326967241E+04  0.30326969900E+04  0.12700000000E+01 0.  1.
         -4   -1    0    0    0  501 -0.00000000000E+00 -0.00000000000E+00 -0.40289256370E+01  0.42243510494E+01  0.12700000000E+01 0.  1.
         25    2    1    2    0    0  0.60401852877E+02 -0.41948084409E+01  0.13422428486E+04  0.13494098324E+04  0.12500020402E+03 0.  0.
    9000005    1    3    3    0    0  0.94376125233E+02  0.79028543207E+01  0.73205796663E+03  0.73815931521E+03  0.10000000000E+01 0.  0.
    9000005    1    3    3    0    0 -0.33974272356E+02 -0.12097662762E+02  0.61018488198E+03  0.61125051724E+03  0.10000000000E+01 0.  0.
         21    1    1    2  502  501 -0.60401852877E+02  0.41948084409E+01  0.16864249499E+04  0.16875115086E+04  0.00000000000E+00 0.  1.
<mgrwt>
<rscale>  1 0.13889216E+03</rscale>
<asrwt>0</asrwt>
<pdfrwt beam="1">  1        4 0.46658182E+00 0.13889216E+03</pdfrwt>
<pdfrwt beam="2">  1       -4 0.63489056E-03 0.13889216E+03</pdfrwt>
<totfact> 0.30916842E+01</totfact>
</mgrwt>
</event>
<event>
 6    4  0.2398389E-003  0.1338137E+03  0.7818608E-02  0.1221904E+00
         -4   -1    0    0    0  501 -0.00000000000E+00  0.00000000000E+00  0.34625924875E+03  0.34626157778E+03  0.12700000000E+01 0.  1.
          4   -1    0    0  502    0  0.00000000000E+00 -0.00000000000E+00 -0.24039395393E+02  0.24072919035E+02  0.12700000000E+01 0.  1.
         25    2    1    2    0    0 -0.27745559160E+02 -0.38874229834E+02  0.25346327914E+03  0.28661778225E+03  0.12500038974E+03 0.  0.
    9000005    1    3    3    0    0 -0.63147904497E+02 -0.61324395048E+02  0.13708984592E+03  0.16292011885E+03  0.10000000000E+01 0.  0.
    9000005    1    3    3    0    0  0.35402345337E+02  0.22450165215E+02  0.11637343322E+03  0.12369766341E+03  0.10000000000E+01 0.  0.
         21    1    1    2  502  501  0.27745559160E+02  0.38874229834E+02  0.68756574225E+02  0.83716714564E+02  0.00000000000E+00 0. -1.
<mgrwt>
<rscale>  1 0.13381375E+03</rscale>
<asrwt>0</asrwt>
<pdfrwt beam="2">  1        4 0.37011264E-02 0.13381375E+03</pdfrwt>
<pdfrwt beam="1">  1       -4 0.53273412E-01 0.13381375E+03</pdfrwt>
<totfact> 0.21590178E+03</totfact>
</mgrwt>
</event>
<event>
 6    4  0.2398389E-003  0.1273706E+03  0.7818608E-02  0.1231410E+00
         -4   -1    0    0    0  501 -0.00000000000E+00  0.00000000000E+00  0.12600075501E+04  0.12600081902E+04  0.12700000000E+01 0.  1.
          4   -1    0    0  502    0  0.00000000000E+00 -0.00000000000E+00 -0.49575436368E+01  0.51176302046E+01  0.12700000000E+01 0.  1.
         25    2    1    2    0    0 -0.24037991575E+02  0.45594852183E+01  0.11602155905E+04  0.11671861430E+04  0.12499864820E+03 0.  0.
    9000005    1    3    3    0    0  0.37203620180E+02 -0.22359764587E+02  0.20078324988E+03  0.20542390771E+03  0.10000000000E+01 0.  0.
    9000005    1    3    3    0    0 -0.61241611756E+02  0.26919249806E+02  0.95943234063E+03  0.96176223531E+03  0.10000000000E+01 0.  0.
         21    1    1    2  502  501  0.24037991575E+02 -0.45594852183E+01  0.94834415976E+02  0.97939677343E+02  0.00000000000E+00 0.  1.
<mgrwt>
<rscale>  1 0.12737062E+03</rscale>
<asrwt>0</asrwt>
<pdfrwt beam="2">  1        4 0.77506114E-03 0.12737062E+03</pdfrwt>
<pdfrwt beam="1">  1       -4 0.19386005E+00 0.12737062E+03</pdfrwt>
<totfact> 0.11289773E+03</totfact>
</mgrwt>
</event>
<event>
 6    4  0.2398389E-003  0.1295980E+03  0.7818608E-02  0.1228053E+00
          4   -1    0    0  502    0  0.00000000000E+00  0.00000000000E+00  0.39709140571E+02  0.39729444306E+02  0.12700000000E+01 0.  1.
         -4   -1    0    0    0  501 -0.00000000000E+00 -0.00000000000E+00 -0.75791176322E+03  0.75791282727E+03  0.12700000000E+01 0.  1.
         25    2    1    2    0    0 -0.34197626168E+02  0.57191319202E+00 -0.74374688929E+03  0.75495369841E+03  0.12500338676E+03 0.  0.
    9000005    1    3    3    0    0 -0.38994118476E+02  0.51489917729E+02 -0.57518742803E+03  0.57880336062E+03  0.10000000000E+01 0.  0.
    9000005    1    3    3    0    0  0.47964923081E+01 -0.50918004537E+02 -0.16855946126E+03  0.17615033779E+03  0.10000000000E+01 0.  0.
         21    1    1    2  502  501  0.34197626168E+02 -0.57191319202E+00  0.25544266636E+02  0.42688573157E+02  0.00000000000E+00 0.  1.
<mgrwt>
<rscale>  1 0.12959804E+03</rscale>
<asrwt>0</asrwt>
<pdfrwt beam="1">  1        4 0.61107428E-02 0.12959804E+03</pdfrwt>
<pdfrwt beam="2">  1       -4 0.11660344E+00 0.12959804E+03</pdfrwt>
<totfact> 0.17020434E+02</totfact>
</mgrwt>
</event>
<event>
 6    4  0.2398389E-003  0.1340370E+03  0.7818608E-02  0.1221586E+00
          4   -1    0    0  502    0  0.00000000000E+00  0.00000000000E+00  0.70610820123E+02  0.70622240254E+02  0.12700000000E+01 0. -1.
         -4   -1    0    0    0  501 -0.00000000000E+00 -0.00000000000E+00 -0.29865653925E+03  0.29865923950E+03  0.12700000000E+01 0. -1.
         25    2    1    2    0    0 -0.14817157383E+02 -0.46037095942E+02 -0.27244323956E+03  0.30363011133E+03  0.12500785322E+03 0.  0.
    9000005    1    3    3    0    0 -0.23540148867E+02 -0.16398419018E+02 -0.27117720256E+03  0.27269235770E+03  0.10000000000E+01 0.  0.
    9000005    1    3    3    0    0  0.87229914845E+01 -0.29638676924E+02 -0.12660369971E+01  0.30937753634E+02  0.10000000000E+01 0.  0.
         21    1    1    2  502  501  0.14817157383E+02  0.46037095942E+02  0.44397520431E+02  0.65651368425E+02  0.00000000000E+00 0. -1.
<mgrwt>
<rscale>  1 0.13403703E+03</rscale>
<asrwt>0</asrwt>
<pdfrwt beam="1">  1        4 0.10864289E-01 0.13403703E+03</pdfrwt>
<pdfrwt beam="2">  1       -4 0.45948245E-01 0.13403703E+03</pdfrwt>
<totfact> 0.50260249E+02</totfact>
</mgrwt>
</event>
<event>
 6    4  0.2398389E-003  0.1361514E+03  0.7818608E-02  0.1218603E+00
          4   -1    0    0  502    0  0.00000000000E+00  0.00000000000E+00  0.35786263744E+02  0.35808791836E+02  0.12700000000E+01 0.  1.
         -4   -1    0    0    0  501 -0.00000000000E+00 -0.00000000000E+00 -0.25670167767E+03  0.25670481923E+03  0.12700000000E+01 0.  1.
         25    2    1    2    0    0  0.53420349623E+02 -0.75553124095E+01 -0.17458977486E+03  0.22140185863E+03  0.12500550797E+03 0.  0.
    9000005    1    3    3    0    0 -0.24860218151E+02  0.17511713211E+02 -0.23064019922E+01  0.30512457067E+02  0.10000000000E+01 0.  0.
    9000005    1    3    3    0    0  0.78280567774E+02 -0.25067025621E+02 -0.17228337287E+03  0.19088940157E+03  0.10000000000E+01 0.  0.
         21    1    1    2  502  501 -0.53420349623E+02  0.75553124095E+01 -0.46325639064E+02  0.71111752433E+02  0.00000000000E+00 0.  1.
<mgrwt>
<rscale>  1 0.13615136E+03</rscale>
<asrwt>0</asrwt>
<pdfrwt beam="1">  1        4 0.55075538E-02 0.13615136E+03</pdfrwt>
<pdfrwt beam="2">  1       -4 0.39494539E-01 0.13615136E+03</pdfrwt>
<totfact> 0.20949038E+03</totfact>
</mgrwt>
</event>
<event>
 6    4  0.2398389E-003  0.1277098E+03  0.7818608E-02  0.1230894E+00
         -4   -1    0    0    0  501 -0.00000000000E+00  0.00000000000E+00  0.10795457091E+04  0.10795464561E+04  0.12700000000E+01 0.  1.
          4   -1    0    0  502    0  0.00000000000E+00 -0.00000000000E+00 -0.56877240889E+01  0.58277873427E+01  0.12700000000E+01 0.  1.
         25    2    1    2    0    0  0.25806575296E+02  0.43325966002E+01  0.96506728220E+03  0.97348068807E+03  0.12500016060E+03 0.  0.
    9000005    1    3    3    0    0  0.37536058940E+02 -0.52234529560E+02  0.36383097061E+03  0.36947446051E+03  0.10000000000E+01 0.  0.
    9000005    1    3    3    0    0 -0.11729483644E+02  0.56567126160E+02  0.60123631159E+03  0.60400622755E+03  0.10000000000E+01 0.  0.
         21    1    1    2  502  501 -0.25806575296E+02 -0.43325966002E+01  0.10879070280E+03  0.11189355539E+03  0.00000000000E+00 0.  1.
<mgrwt>
<rscale>  1 0.12770979E+03</rscale>
<asrwt>0</asrwt>
<pdfrwt beam="2">  1        4 0.88586593E-03 0.12770979E+03</pdfrwt>
<pdfrwt beam="1">  1       -4 0.16609481E+00 0.12770979E+03</pdfrwt>
<totfact> 0.14072854E+03</totfact>
</mgrwt>
</event>
<event>
 6    4  0.2398389E-003  0.1269200E+03  0.7818608E-02  0.1232099E+00
          4   -1    0    0  502    0  0.00000000000E+00  0.00000000000E+00  0.10005287304E+02  0.10085567611E+02  0.12700000000E+01 0. -1.
         -4   -1    0    0    0  501 -0.00000000000E+00 -0.00000000000E+00 -0.56076327836E+03  0.56076471649E+03  0.12700000000E+01 0. -1.
         25    2    1    2    0    0 -0.98132980843E+01 -0.19677256935E+02 -0.49218190691E+03  0.50828309706E+03  0.12500072804E+03 0.  0.
    9000005    1    3    3    0    0  0.14896308882E+02 -0.59064385522E+02 -0.13529500061E+03  0.14837870078E+03  0.10000000000E+01 0.  0.
    9000005    1    3    3    0    0 -0.24709606966E+02  0.39387128588E+02 -0.35688690629E+03  0.35990439628E+03  0.10000000000E+01 0.  0.
         21    1    1    2  502  501  0.98132980843E+01  0.19677256935E+02 -0.58576084150E+02  0.62567187040E+02  0.00000000000E+00 0. -1.
<mgrwt>
<rscale>  1 0.12691996E+03</rscale>
<asrwt>0</asrwt>
<pdfrwt beam="1">  1        4 0.15455614E-02 0.12691996E+03</pdfrwt>
<pdfrwt beam="2">  1       -4 0.86277535E-01 0.12691996E+03</pdfrwt>
<totfact> 0.29373616E+03</totfact>
</mgrwt>
</event>
<event>
 6    4  0.2398389E-003  0.1287595E+03  0.7818608E-02  0.1229308E+00
         -4   -1    0    0    0  501 -0.00000000000E+00  0.00000000000E+00  0.54200342856E+02  0.54215219871E+02  0.12700000000E+01 0.  1.
          4   -1    0    0  502    0  0.00000000000E+00 -0.00000000000E+00 -0.11967354235E+03  0.11968028091E+03  0.12700000000E+01 0.  1.
         25    2    1    2    0    0 -0.80951017874E+01  0.29817005659E+02 -0.43221024661E+02  0.13581999968E+03  0.12499772334E+03 0.  0.
    9000005    1    3    3    0    0 -0.56256306486E+02 -0.18768527208E+02 -0.28638548221E+02  0.65864983695E+02  0.10000000000E+01 0.  0.
    9000005    1    3    3    0    0  0.48161204698E+02  0.48585532867E+02 -0.14582476441E+02  0.69955015983E+02  0.10000000000E+01 0.  0.
         21    1    1    2  502  501  0.80951017874E+01 -0.29817005659E+02 -0.22252174834E+02  0.38075501103E+02  0.00000000000E+00 0.  1.
<mgrwt>
<rscale>  1 0.12875953E+03</rscale>
<asrwt>0</asrwt>
<pdfrwt beam="2">  1        4 0.18412977E-01 0.12875953E+03</pdfrwt>
<pdfrwt beam="1">  1       -4 0.83401771E-02 0.12875953E+03</pdfrwt>
<totfact> 0.43529505E+03</totfact>
</mgrwt>
</event>
<event>
 6    4  0.2398389E-003  0.1266485E+03  0.7818608E-02  0.1232515E+00
          4   -1    0    0  502    0  0.00000000000E+00  0.00000000000E+00  0.65629567960E+02  0.65641854717E+02  0.12700000000E+01 0.  1.
         -4   -1    0    0    0  501 -0.00000000000E+00 -0.00000000000E+00 -0.82302286966E+02  0.82312085017E+02  0.12700000000E+01 0.  1.
         25    2    1    2    0    0  0.56767658060E+01 -0.19549131363E+02 -0.14836727845E+02  0.12751463763E+03  0.12500184042E+03 0.  0.
    9000005    1    3    3    0    0 -0.42202183777E+02 -0.51746670457E+02  0.37551959216E+01  0.66886797766E+02  0.10000000000E+01 0.  0.
    9000005    1    3    3    0    0  0.47878949583E+02  0.32197539094E+02 -0.18591923766E+02  0.60627839861E+02  0.10000000000E+01 0.  0.
         21    1    1    2  502  501 -0.56767658060E+01  0.19549131363E+02 -0.18359911613E+01  0.20439302107E+02  0.00000000000E+00 0.  1.
<mgrwt>
<rscale>  1 0.12664855E+03</rscale>
<asrwt>0</asrwt>
<pdfrwt beam="1">  1        4 0.10098555E-01 0.12664855E+03</pdfrwt>
<pdfrwt beam="2">  1       -4 0.12663589E-01 0.12664855E+03</pdfrwt>
<totfact> 0.60553714E+03</totfact>
</mgrwt>
</event>
<event>
 6    4  0.2398389E-003  0.1604561E+03  0.7818608E-02  0.1188183E+00
          4   -1    0    0  502    0  0.00000000000E+00  0.00000000000E+00  0.39410345749E+03  0.39410550377E+03  0.12700000000E+01 0. -1.
         -4   -1    0    0    0  501 -0.00000000000E+00 -0.00000000000E+00 -0.46505738270E+02  0.46523075909E+02  0.12700000000E+01 0. -1.
         25    2    1    2    0    0 -0.91695235785E+02  0.41390348568E+02  0.15374105052E+03  0.22222165393E+03  0.12499990255E+03 0.  0.
    9000005    1    3    3    0    0 -0.44713262007E-01 -0.78670539990E+01 -0.18985071877E+02  0.20574875262E+02  0.10000000000E+01 0.  0.
    9000005    1    3    3    0    0 -0.91650522523E+02  0.49257402567E+02  0.17272612240E+03  0.20164677866E+03  0.10000000000E+01 0.  0.
         21    1    1    2  502  501  0.91695235785E+02 -0.41390348568E+02  0.19385666870E+03  0.21840692576E+03  0.00000000000E+00 0. -1.
<mgrwt>
<rscale>  1 0.16045608E+03</rscale>
<asrwt>0</asrwt>
<pdfrwt beam="1">  1        4 0.60632794E-01 0.16045608E+03</pdfrwt>
<pdfrwt beam="2">  1       -4 0.71562198E-02 0.16045608E+03</pdfrwt>
<totfact> 0.59055864E+02</totfact>
</mgrwt>
</event>
<event>
 6    4  0.2398389E-003  0.1300000E+03  0.7818608E-02  0.1227456E+00
          4   -1    0    0  502    0  0.00000000000E+00  0.00000000000E+00  0.14301746740E+03  0.14302310611E+03  0.12700000000E+01 0. -1.
         -4   -1    0    0    0  501 -0.00000000000E+00 -0.00000000000E+00 -0.67256354433E+02  0.67268344053E+02  0.12700000000E+01 0. -1.
         25    2    1    2    0    0  0.49358247590E+01  0.35369209906E+02  0.39146495040E+01  0.13005892753E+03  0.12499862709E+03 0.  0.
    9000005    1    3    3    0    0 -0.65533962034E+01  0.81809377952E+02  0.45563802081E+01  0.82203904551E+02  0.10000000000E+01 0.  0.
    9000005    1    3    3    0    0  0.11489220962E+02 -0.46440168047E+02 -0.64173070411E+00  0.47855022984E+02  0.10000000000E+01 0.  0.
         21    1    1    2  502  501 -0.49358247590E+01 -0.35369209906E+02  0.71846463467E+02  0.80232522633E+02  0.00000000000E+00 0. -1.
<mgrwt>
<rscale>  1 0.13000000E+03</rscale>
<asrwt>0</asrwt>
<pdfrwt beam="1">  1        4 0.22004043E-01 0.13000000E+03</pdfrwt>
<pdfrwt beam="2">  1       -4 0.10348488E-01 0.13000000E+03</pdfrwt>
<totfact> 0.22069562E+03</totfact>
</mgrwt>
</event>
<event>
 6    4  0.2398389E-003  0.1317511E+03  0.7818608E-02  0.1224880E+00
         -4   -1    0    0    0  501 -0.00000000000E+00  0.00000000000E+00  0.92300877718E+01  0.93170499771E+01  0.12700000000E+01 0.  1.
          4   -1    0    0  502    0  0.00000000000E+00 -0.00000000000E+00 -0.81551918478E+03  0.81552017366E+03  0.12700000000E+01 0.  1.
         25    2    1    2    0    0  0.33462930476E+02 -0.24788375811E+02 -0.58349853344E+03  0.59818800898E+03  0.12499649700E+03 0.  0.
    9000005    1    3    3    0    0  0.67625855089E+02 -0.59659578760E+01 -0.17310800432E+03  0.18594684748E+03  0.10000000000E+01 0.  0.
    9000005    1    3    3    0    0 -0.34162924613E+02 -0.18822417935E+02 -0.41039052913E+03  0.41224116150E+03  0.10000000000E+01 0.  0.
         21    1    1    2  502  501 -0.33462930476E+02  0.24788375811E+02 -0.22279056357E+03  0.22664921466E+03  0.00000000000E+00 0.  1.
<mgrwt>
<rscale>  1 0.13175111E+03</rscale>
<asrwt>0</asrwt>
<pdfrwt beam="2">  1        4 0.12547120E+00 0.13175111E+03</pdfrwt>
<pdfrwt beam="1">  1       -4 0.14267796E-02 0.13175111E+03</pdfrwt>
<totfact> 0.13989367E+03</totfact>
</mgrwt>
</event>
<event>
 6    4  0.2398389E-003  0.1350463E+03  0.7818608E-02  0.1220154E+00
          4   -1    0    0  502    0  0.00000000000E+00  0.00000000000E+00  0.67920605622E+01  0.69097747200E+01  0.12700000000E+01 0.  1.
         -4   -1    0    0    0  501 -0.00000000000E+00 -0.00000000000E+00 -0.16781655849E+04  0.16781660654E+04  0.12700000000E+01 0.  1.
         25    2    1    2    0    0  0.51025748245E+02 -0.29392021975E+01 -0.15045460775E+04  0.15105947154E+04  0.12500091556E+03 0.  0.
    9000005    1    3    3    0    0  0.70788259802E+02 -0.30638027294E+02 -0.54362335463E+03  0.54906922891E+03  0.10000000000E+01 0.  0.
    9000005    1    3    3    0    0 -0.19762511557E+02  0.27698825097E+02 -0.96092272292E+03  0.96152548650E+03  0.10000000000E+01 0.  0.
         21    1    1    2  502  501 -0.51025748245E+02  0.29392021975E+01 -0.16682744677E+03  0.17448112474E+03  0.00000000000E+00 0.  1.
<mgrwt>
<rscale>  1 0.13504627E+03</rscale>
<asrwt>0</asrwt>
<pdfrwt beam="1">  1        4 0.10540256E-02 0.13504627E+03</pdfrwt>
<pdfrwt beam="2">  1       -4 0.25818809E+00 0.13504627E+03</pdfrwt>
<totfact> 0.29828332E+02</totfact>
</mgrwt>
</event>
<event>
 6    4  0.2398389E-003  0.1268134E+03  0.7818608E-02  0.1232262E+00
          4   -1    0    0  502    0  0.00000000000E+00  0.00000000000E+00  0.16377913962E+02  0.16427080257E+02  0.12700000000E+01 0. -1.
         -4   -1    0    0    0  501 -0.00000000000E+00 -0.00000000000E+00 -0.34283466769E+03  0.34283701998E+03  0.12700000000E+01 0. -1.
         25    2    1    2    0    0  0.34486487140E+01  0.21101471766E+02 -0.29629676064E+03  0.32229397079E+03  0.12499787179E+03 0.  0.
    9000005    1    3    3    0    0  0.91048064548E+01 -0.49909554168E+02 -0.16857088971E+03  0.17604262539E+03  0.10000000000E+01 0.  0.
    9000005    1    3    3    0    0 -0.56561577407E+01  0.71011025933E+02 -0.12772587093E+03  0.14625134540E+03  0.10000000000E+01 0.  0.
         21    1    1    2  502  501 -0.34486487140E+01 -0.21101471766E+02 -0.30159993084E+02  0.36970129449E+02  0.00000000000E+00 0.  1.
<mgrwt>
<rscale>  1 0.12681338E+03</rscale>
<asrwt>0</asrwt>
<pdfrwt beam="1">  1        4 0.25236423E-02 0.12681338E+03</pdfrwt>
<pdfrwt beam="2">  1       -4 0.52747753E-01 0.12681338E+03</pdfrwt>
<totfact> 0.39636561E+03</totfact>
</mgrwt>
</event>
<event>
 6    4  0.2398389E-003  0.1293265E+03  0.7818608E-02  0.1228459E+00
          4   -1    0    0  502    0  0.00000000000E+00  0.00000000000E+00  0.22444490397E+03  0.22444849703E+03  0.12700000000E+01 0. -1.
         -4   -1    0    0    0  501 -0.00000000000E+00 -0.00000000000E+00 -0.29659601292E+02  0.29686779024E+02  0.12700000000E+01 0. -1.
         25    2    1    2    0    0  0.42810567494E+01  0.32888886803E+02  0.14477463144E+03  0.19412633039E+03  0.12500132767E+03 0.  0.
    9000005    1    3    3    0    0 -0.30997504205E+02 -0.15733875798E+02  0.12669885094E+03  0.13138492662E+03  0.10000000000E+01 0.  0.
    9000005    1    3    3    0    0  0.35278560955E+02  0.48622762601E+02  0.18075780505E+02  0.62741403769E+02  0.10000000000E+01 0.  0.
         21    1    1    2  502  501 -0.42810567494E+01 -0.32888886803E+02  0.50010671241E+02  0.60008945667E+02  0.00000000000E+00 0.  1.
<mgrwt>
<rscale>  1 0.12932648E+03</rscale>
<asrwt>0</asrwt>
<pdfrwt beam="1">  1        4 0.34532353E-01 0.12932648E+03</pdfrwt>
<pdfrwt beam="2">  1       -4 0.45653824E-02 0.12932648E+03</pdfrwt>
<totfact> 0.36331335E+03</totfact>
</mgrwt>
</event>
<event>
 6    4  0.2398389E-003  0.1339484E+03  0.7818608E-02  0.1221712E+00
          4   -1    0    0  502    0  0.00000000000E+00  0.00000000000E+00  0.13508160747E+02  0.13567730347E+02  0.12700000000E+01 0.  1.
         -4   -1    0    0    0  501 -0.00000000000E+00 -0.00000000000E+00 -0.81976456281E+03  0.81976554657E+03  0.12700000000E+01 0.  1.
         25    2    1    2    0    0 -0.40358485771E+02 -0.26245464803E+02 -0.73647277009E+03  0.74855481804E+03  0.12499817096E+03 0.  0.
    9000005    1    3    3    0    0 -0.73926145488E+02  0.17716314554E+02 -0.49657233627E+03  0.50235846558E+03  0.10000000000E+01 0.  0.
    9000005    1    3    3    0    0  0.33567659717E+02 -0.43961779357E+02 -0.23990043381E+03  0.24619635247E+03  0.10000000000E+01 0.  0.
         21    1    1    2  502  501  0.40358485771E+02  0.26245464803E+02 -0.69783631979E+02  0.84778458872E+02  0.00000000000E+00 0.  1.
<mgrwt>
<rscale>  1 0.13394840E+03</rscale>
<asrwt>0</asrwt>
<pdfrwt beam="1">  1        4 0.20828372E-02 0.13394840E+03</pdfrwt>
<pdfrwt beam="2">  1       -4 0.12612224E+00 0.13394840E+03</pdfrwt>
<totfact> 0.77657751E+02</totfact>
</mgrwt>
</event>
<event>
 6    4  0.2398389E-003  0.1361067E+03  0.7818608E-02  0.1218666E+00
         -4   -1    0    0    0  501 -0.00000000000E+00  0.00000000000E+00  0.47959873065E+03  0.47960041216E+03  0.12700000000E+01 0.  1.
          4   -1    0    0  502    0  0.00000000000E+00 -0.00000000000E+00 -0.30172386539E+02  0.30199102792E+02  0.12700000000E+01 0.  1.
         25    2    1    2    0    0 -0.25112513727E+02  0.47645240858E+02  0.43239809269E+03  0.45331351076E+03  0.12499728460E+03 0.  0.
    9000005    1    3    3    0    0  0.45371244672E+02  0.10783751104E+02  0.85342752295E+02  0.97258544613E+02  0.10000000000E+01 0.  0.
    9000005    1    3    3    0    0 -0.70483758398E+02  0.36861489754E+02  0.34705534039E+03  0.35605496615E+03  0.10000000000E+01 0.  0.
         21    1    1    2  502  501  0.25112513727E+02 -0.47645240858E+02  0.17028251421E+02  0.56486004183E+02  0.00000000000E+00 0.  1.
<mgrwt>
<rscale>  1 0.13610668E+03</rscale>
<asrwt>0</asrwt>
<pdfrwt beam="2">  1        4 0.46440900E-02 0.13610668E+03</pdfrwt>
<pdfrwt beam="1">  1       -4 0.73786605E-01 0.13610668E+03</pdfrwt>
<totfact> 0.75782783E+02</totfact>
</mgrwt>
</event>
<event>
 6    4  0.2398389E-003  0.1294214E+03  0.7818608E-02  0.1228317E+00
         -4   -1    0    0    0  501 -0.00000000000E+00  0.00000000000E+00  0.66993118591E+02  0.67005155313E+02  0.12700000000E+01 0.  1.
          4   -1    0    0  502    0  0.00000000000E+00 -0.00000000000E+00 -0.99609453505E+02  0.99617549296E+02  0.12700000000E+01 0.  1.
         25    2    1    2    0    0  0.31801850649E+02 -0.10539183414E+02 -0.20714038644E+02  0.13106856634E+03  0.12500986198E+03 0.  0.
    9000005    1    3    3    0    0  0.23610286620E+02 -0.65655091398E+02 -0.27344918059E+02  0.74945188000E+02  0.10000000000E+01 0.  0.
    9000005    1    3    3    0    0  0.81915640283E+01  0.55115907983E+02  0.66308794155E+01  0.56123378336E+02  0.10000000000E+01 0.  0.
         21    1    1    2  502  501 -0.31801850649E+02  0.10539183414E+02 -0.11902296271E+02  0.35554138272E+02  0.00000000000E+00 0.  1.
<mgrwt>
<rscale>  1 0.12942140E+03</rscale>
<asrwt>0</asrwt>
<pdfrwt beam="2">  1        4 0.15326080E-01 0.12942140E+03</pdfrwt>
<pdfrwt beam="1">  1       -4 0.10308182E-01 0.12942140E+03</pdfrwt>
<totfact> 0.42261920E+03</totfact>
</mgrwt>
</event>
<event>
 6    4  0.2398389E-003  0.1283324E+03  0.7818608E-02  0.1229951E+00
          4   -1    0    0  502    0  0.00000000000E+00  0.00000000000E+00  0.71344354125E+02  0.71355656857E+02  0.12700000000E+01 0. -1.
         -4   -1    0    0    0  501 -0.00000000000E+00 -0.00000000000E+00 -0.87079743722E+02  0.87089004281E+02  0.12700000000E+01 0. -1.
         25    2    1    2    0    0 -0.26801556083E+02  0.10615675691E+02 -0.17715301291E+02  0.12954940151E+03  0.12505278706E+03 0.  0.
    9000005    1    3    3    0    0  0.33811407168E+02 -0.15903028458E+02  0.30035861499E+02  0.47950709534E+02  0.10000000000E+01 0.  0.
    9000005    1    3    3    0    0 -0.60612963251E+02  0.26518704149E+02 -0.47751162790E+02  0.81598691972E+02  0.10000000000E+01 0.  0.
         21    1    1    2  502  501  0.26801556083E+02 -0.10615675691E+02  0.19799116939E+01  0.28895259632E+02  0.00000000000E+00 0. -1.
<mgrwt>
<rscale>  1 0.12833244E+03</rscale>
<asrwt>0</asrwt>
<pdfrwt beam="1">  1        4 0.10977636E-01 0.12833244E+03</pdfrwt>
<pdfrwt beam="2">  1       -4 0.13398465E-01 0.12833244E+03</pdfrwt>
<totfact> 0.47883950E+03</totfact>
</mgrwt>
</event>
<event>
 6    4  0.2398389E-003  0.1289750E+03  0.7818608E-02  0.1228985E+00
          4   -1    0    0  502    0  0.00000000000E+00  0.00000000000E+00  0.17019624242E+03  0.17020098071E+03  0.12700000000E+01 0. -1.
         -4   -1    0    0    0  501 -0.00000000000E+00 -0.00000000000E+00 -0.38053800661E+02  0.38074987127E+02  0.12700000000E+01 0. -1.
         25    2    1    2    0    0  0.51030801954E+00 -0.31759738099E+02  0.10128618468E+03  0.16399222388E+03  0.12500246760E+03 0.  0.
    9000005    1    3    3    0    0  0.20866273439E+02 -0.62287395335E+02  0.10825546273E+03  0.12663082641E+03  0.10000000000E+01 0.  0.
    9000005    1    3    3    0    0 -0.20355965420E+02  0.30527657237E+02 -0.69692780472E+01  0.37361397472E+02  0.10000000000E+01 0.  0.
         21    1    1    2  502  501 -0.51030801954E+00  0.31759738099E+02  0.30856257078E+02  0.44283743961E+02  0.00000000000E+00 0. -1.
<mgrwt>
<rscale>  1 0.12897503E+03</rscale>
<asrwt>0</asrwt>
<pdfrwt beam="1">  1        4 0.26186032E-01 0.12897503E+03</pdfrwt>
<pdfrwt beam="2">  1       -4 0.58564251E-02 0.12897503E+03</pdfrwt>
<totfact> 0.41011469E+03</totfact>
</mgrwt>
</event>
<event>
 6    4  0.2398389E-003  0.1280123E+03  0.7818608E-02  0.1230435E+00
         -4   -1    0    0    0  501 -0.00000000000E+00  0.00000000000E+00  0.64968230641E+02  0.64980642445E+02  0.12700000000E+01 0.  1.
          4   -1    0    0  502    0  0.00000000000E+00 -0.00000000000E+00 -0.93878593718E+02  0.93887183675E+02  0.12700000000E+01 0.  1.
         25    2    1    2    0    0 -0.88959001442E+01  0.26139152405E+02 -0.18420119559E+02  0.12933077249E+03  0.12499902232E+03 0.  0.
    9000005    1    3    3    0    0  0.61270619675E+01 -0.26374453042E+02  0.40662263208E+02  0.48862790657E+02  0.10000000000E+01 0.  0.
    9000005    1    3    3    0    0 -0.15022962112E+02  0.52513605447E+02 -0.59082382767E+02  0.80467981838E+02  0.10000000000E+01 0.  0.
         21    1    1    2  502  501  0.88959001442E+01 -0.26139152405E+02 -0.10490243518E+02  0.29537053626E+02  0.00000000000E+00 0. -1.
<mgrwt>
<rscale>  1 0.12801230E+03</rscale>
<asrwt>0</asrwt>
<pdfrwt beam="2">  1        4 0.14444476E-01 0.12801230E+03</pdfrwt>
<pdfrwt beam="1">  1       -4 0.99967279E-02 0.12801230E+03</pdfrwt>
<totfact> 0.49209881E+03</totfact>
</mgrwt>
</event>
<event>
 6    4  0.2398389E-003  0.1311753E+03  0.7818608E-02  0.1225722E+00
         -4   -1    0    0    0  501 -0.00000000000E+00  0.00000000000E+00  0.49678815564E+03  0.49678977896E+03  0.12700000000E+01 0.  1.
          4   -1    0    0  502    0  0.00000000000E+00 -0.00000000000E+00 -0.17167244422E+02  0.17214156414E+02  0.12700000000E+01 0.  1.
         25    2    1    2    0    0 -0.38370403282E+02 -0.10496767976E+02  0.43441266691E+03  0.45378553836E+03  0.12499791865E+03 0.  0.
    9000005    1    3    3    0    0 -0.59900592038E+02  0.29319996949E+02  0.13088946759E+03  0.14690403628E+03  0.10000000000E+01 0.  0.
    9000005    1    3    3    0    0  0.21530188756E+02 -0.39816764925E+02  0.30352319932E+03  0.30688150208E+03  0.10000000000E+01 0.  0.
         21    1    1    2  502  501  0.38370403282E+02  0.10496767976E+02  0.45208244306E+02  0.60218397016E+02  0.00000000000E+00 0. -1.
<mgrwt>
<rscale>  1 0.13117526E+03</rscale>
<asrwt>0</asrwt>
<pdfrwt beam="2">  1        4 0.26448486E-02 0.13117526E+03</pdfrwt>
<pdfrwt beam="1">  1       -4 0.76432664E-01 0.13117526E+03</pdfrwt>
<totfact> 0.16925791E+03</totfact>
</mgrwt>
</event>
<event>
 6    4  0.2398389E-003  0.1331158E+03  0.7818608E-02  0.1222904E+00
         -4   -1    0    0    0  501 -0.00000000000E+00  0.00000000000E+00  0.52903512158E+02  0.52918753752E+02  0.12700000000E+01 0.  1.
          4   -1    0    0  502    0  0.00000000000E+00 -0.00000000000E+00 -0.18921480648E+03  0.18921906852E+03  0.12700000000E+01 0.  1.
         25    2    1    2    0    0 -0.38821502621E+02  0.24243481981E+02 -0.45909875614E+02  0.14081027425E+03  0.12499984468E+03 0.  0.
    9000005    1    3    3    0    0 -0.37994314961E+02  0.62603069762E+02 -0.65019252189E+02  0.97934751076E+02  0.10000000000E+01 0.  0.
    9000005    1    3    3    0    0 -0.82718765997E+00 -0.38359587782E+02  0.19109376575E+02  0.42875523172E+02  0.10000000000E+01 0.  0.
         21    1    1    2  502  501  0.38821502621E+02 -0.24243481981E+02 -0.90401418712E+02  0.10132754803E+03  0.00000000000E+00 0.  1.
<mgrwt>
<rscale>  1 0.13311580E+03</rscale>
<asrwt>0</asrwt>
<pdfrwt beam="2">  1        4 0.29111470E-01 0.13311580E+03</pdfrwt>
<pdfrwt beam="1">  1       -4 0.81405022E-02 0.13311580E+03</pdfrwt>
<totfact> 0.19762004E+03</totfact>
</mgrwt>
</event>
<event>
 6    4  0.2398389E-003  0.1298158E+03  0.7818608E-02  0.1227729E+00
          4   -1    0    0  502    0  0.00000000000E+00  0.00000000000E+00  0.57004250859E+03  0.57004392331E+03  0.12700000000E+01 0.  1.
         -4   -1    0    0    0  501 -0.00000000000E+00 -0.00000000000E+00 -0.12072986155E+02  0.12139600269E+02  0.12700000000E+01 0.  1.
         25    2    1    2    0    0  0.60570489694E+01 -0.34494188792E+02  0.46693720159E+03  0.48464675953E+03  0.12500237754E+03 0.  0.
    9000005    1    3    3    0    0 -0.87244109829E+01  0.37070402858E+02  0.30005462241E+03  0.30246339703E+03  0.10000000000E+01 0.  0.
    9000005    1    3    3    0    0  0.14781459952E+02 -0.71564591650E+02  0.16688257918E+03  0.18218336250E+03  0.10000000000E+01 0.  0.
         21    1    1    2  502  501 -0.60570489694E+01  0.34494188792E+02  0.91032320850E+02  0.97536764053E+02  0.00000000000E+00 0.  1.
<mgrwt>
<rscale>  1 0.12981576E+03</rscale>
<asrwt>0</asrwt>
<pdfrwt beam="1">  1        4 0.87704056E-01 0.12981576E+03</pdfrwt>
<pdfrwt beam="2">  1       -4 0.18626160E-02 0.12981576E+03</pdfrwt>
<totfact> 0.21396836E+03</totfact>
</mgrwt>
</event>
<event>
 6    4  0.2398389E-003  0.1267345E+03  0.7818608E-02  0.1232383E+00
         -4   -1    0    0    0  501 -0.00000000000E+00  0.00000000000E+00  0.16704240132E+03  0.16704722907E+03  0.12700000000E+01 0. -1.
          4   -1    0    0  502    0  0.00000000000E+00 -0.00000000000E+00 -0.35706522318E+02  0.35729100689E+02  0.12700000000E+01 0. -1.
         25    2    1    2    0    0  0.20569231507E+02  0.35791418453E+01  0.13045502215E+03  0.18187945320E+03  0.12500287657E+03 0.  0.
    9000005    1    3    3    0    0 -0.35069331725E+02 -0.38936459486E+02  0.79708354495E+02  0.95395637642E+02  0.10000000000E+01 0.  0.
    9000005    1    3    3    0    0  0.55638563232E+02  0.42515601331E+02  0.50746667651E+02  0.86483815554E+02  0.10000000000E+01 0.  0.
         21    1    1    2  502  501 -0.20569231507E+02 -0.35791418453E+01  0.88085685523E+00  0.20896876559E+02  0.00000000000E+00 0. -1.
<mgrwt>
<rscale>  1 0.12673446E+03</rscale>
<asrwt>0</asrwt>
<pdfrwt beam="2">  1        4 0.54954194E-02 0.12673446E+03</pdfrwt>
<pdfrwt beam="1">  1       -4 0.25700939E-01 0.12673446E+03</pdfrwt>
<totfact> 0.46853598E+03</totfact>
</mgrwt>
</event>
<event>
 6    4  0.2398389E-003  0.1390469E+03  0.7818608E-02  0.1214617E+00
          4   -1    0    0  502    0  0.00000000000E+00  0.00000000000E+00  0.11412059266E+03  0.11412765909E+03  0.12700000000E+01 0. -1.
         -4   -1    0    0    0  501 -0.00000000000E+00 -0.00000000000E+00 -0.90509389622E+02  0.90518299309E+02  0.12700000000E+01 0. -1.
         25    2    1    2    0    0 -0.30642419114E+02  0.52680239767E+02  0.33191535458E+02  0.14295359031E+03  0.12497954011E+03 0.  0.
    9000005    1    3    3    0    0  0.58193839730E+01 -0.62650832531E+01  0.65791380060E+02  0.66352258350E+02  0.10000000000E+01 0.  0.
    9000005    1    3    3    0    0 -0.36461803087E+02  0.58945323020E+02 -0.32599844602E+02  0.76601331963E+02  0.10000000000E+01 0.  0.
         21    1    1    2  502  501  0.30642419114E+02 -0.52680239767E+02 -0.95803324166E+01  0.61692368088E+02  0.00000000000E+00 0. -1.
<mgrwt>
<rscale>  1 0.13904694E+03</rscale>
<asrwt>0</asrwt>
<pdfrwt beam="1">  1        4 0.17558243E-01 0.13904694E+03</pdfrwt>
<pdfrwt beam="2">  1       -4 0.13925750E-01 0.13904694E+03</pdfrwt>
<totfact> 0.20219624E+03</totfact>
</mgrwt>
</event>
<event>
 6    4  0.2398389E-003  0.1302531E+03  0.7818608E-02  0.1227081E+00
         -4   -1    0    0    0  501 -0.00000000000E+00  0.00000000000E+00  0.24222620330E+02  0.24255890741E+02  0.12700000000E+01 0. -1.
          4   -1    0    0  502    0  0.00000000000E+00 -0.00000000000E+00 -0.72094574494E+03  0.72094686354E+03  0.12700000000E+01 0. -1.
         25    2    1    2    0    0  0.21712472771E+02  0.29500390275E+02 -0.15594892804E+03  0.20318943694E+03  0.12499669846E+03 0.  0.
    9000005    1    3    3    0    0  0.56286749056E+02 -0.20054396541E+02 -0.11675358963E+03  0.13115935968E+03  0.10000000000E+01 0.  0.
    9000005    1    3    3    0    0 -0.34574276285E+02  0.49554786816E+02 -0.39195338415E+02  0.72030077263E+02  0.10000000000E+01 0.  0.
         21    1    1    2  502  501 -0.21712472771E+02 -0.29500390275E+02 -0.54077419657E+03  0.54201331734E+03  0.00000000000E+00 0. -1.
<mgrwt>
<rscale>  1 0.13025313E+03</rscale>
<asrwt>0</asrwt>
<pdfrwt beam="2">  1        4 0.11091736E+00 0.13025313E+03</pdfrwt>
<pdfrwt beam="1">  1       -4 0.37292028E-02 0.13025313E+03</pdfrwt>
<totfact> 0.42308608E+02</totfact>
</mgrwt>
</event>
<event>
 6    4  0.2398389E-003  0.1343909E+03  0.7818608E-02  0.1221082E+00
         -4   -1    0    0    0  501 -0.00000000000E+00  0.00000000000E+00  0.84973065123E+02  0.84982555248E+02  0.12700000000E+01 0.  1.
          4   -1    0    0  502    0  0.00000000000E+00 -0.00000000000E+00 -0.99344462887E+02  0.99352580270E+02  0.12700000000E+01 0.  1.
         25    2    1    2    0    0  0.39828476738E+02 -0.29146214520E+02 -0.11967244485E+02  0.13492269444E+03  0.12500043662E+03 0.  0.
    9000005    1    3    3    0    0 -0.76915459099E+01  0.12540161998E+02  0.46517519350E+02  0.48798515837E+02  0.10000000000E+01 0.  0.
    9000005    1    3    3    0    0  0.47520022647E+02 -0.41686376517E+02 -0.58484763835E+02  0.86124178605E+02  0.10000000000E+01 0.  0.
         21    1    1    2  502  501 -0.39828476738E+02  0.29146214520E+02 -0.24041532791E+01  0.49412441076E+02  0.00000000000E+00 0.  1.
<mgrwt>
<rscale>  1 0.13439092E+03</rscale>
<asrwt>0</asrwt>
<pdfrwt beam="2">  1        4 0.15285118E-01 0.13439092E+03</pdfrwt>
<pdfrwt beam="1">  1       -4 0.13074134E-01 0.13439092E+03</pdfrwt>
<totfact> 0.28570328E+03</totfact>
</mgrwt>
</event>
<event>
 6    4  0.2398389E-003  0.1275776E+03  0.7818608E-02  0.1231095E+00
         -4   -1    0    0    0  501 -0.00000000000E+00  0.00000000000E+00  0.24037197643E+03  0.24037533141E+03  0.12700000000E+01 0. -1.
          4   -1    0    0  502    0  0.00000000000E+00 -0.00000000000E+00 -0.38242541900E+02  0.38263623861E+02  0.12700000000E+01 0. -1.
         25    2    1    2    0    0  0.16214243002E+02  0.19715558484E+02  0.21503752334E+03  0.25003434587E+03  0.12499773096E+03 0.  0.
    9000005    1    3    3    0    0 -0.14031183813E+02 -0.29082109656E+02  0.17976839365E+03  0.18264807302E+03  0.10000000000E+01 0.  0.
    9000005    1    3    3    0    0  0.30245426816E+02  0.48797668140E+02  0.35269129691E+02  0.67386272847E+02  0.10000000000E+01 0.  0.
         21    1    1    2  502  501 -0.16214243002E+02 -0.19715558484E+02 -0.12908088816E+02  0.28604609407E+02  0.00000000000E+00 0. -1.
<mgrwt>
<rscale>  1 0.12757758E+03</rscale>
<asrwt>0</asrwt>
<pdfrwt beam="2">  1        4 0.58853476E-02 0.12757758E+03</pdfrwt>
<pdfrwt beam="1">  1       -4 0.36982185E-01 0.12757758E+03</pdfrwt>
<totfact> 0.21077611E+03</totfact>
</mgrwt>
</event>
<event>
 6    4  0.2398389E-003  0.1278164E+03  0.7818608E-02  0.1230732E+00
         -4   -1    0    0    0  501 -0.00000000000E+00  0.00000000000E+00  0.87420849491E+02  0.87430073920E+02  0.12700000000E+01 0. -1.
          4   -1    0    0  502    0  0.00000000000E+00 -0.00000000000E+00 -0.68246381181E+02  0.68258196902E+02  0.12700000000E+01 0. -1.
         25    2    1    2    0    0  0.26033794854E+02 -0.57788320657E+01  0.16789005081E+02  0.12891433183E+03  0.12500352349E+03 0.  0.
    9000005    1    3    3    0    0  0.43176712063E+02 -0.28359644382E+02  0.58766703613E+02  0.78249749825E+02  0.10000000000E+01 0.  0.
    9000005    1    3    3    0    0 -0.17142917209E+02  0.22580812317E+02 -0.41977698532E+02  0.50664582001E+02  0.10000000000E+01 0.  0.
         21    1    1    2  502  501 -0.26033794854E+02  0.57788320657E+01  0.23854632288E+01  0.26773938996E+02  0.00000000000E+00 0. -1.
<mgrwt>
<rscale>  1 0.12781641E+03</rscale>
<asrwt>0</asrwt>
<pdfrwt beam="2">  1        4 0.10501062E-01 0.12781641E+03</pdfrwt>
<pdfrwt beam="1">  1       -4 0.13450980E-01 0.12781641E+03</pdfrwt>
<totfact> 0.51220154E+03</totfact>
</mgrwt>
</event>
<event>
 6    4  0.2398389E-003  0.1274998E+03  0.7818608E-02  0.1231213E+00
         -4   -1    0    0    0  501 -0.00000000000E+00  0.00000000000E+00  0.10351473788E+04  0.10351481579E+04  0.12700000000E+01 0.  1.
          4   -1    0    0  502    0  0.00000000000E+00 -0.00000000000E+00 -0.13310950335E+02  0.13371398537E+02  0.12700000000E+01 0.  1.
         25    2    1    2    0    0  0.74418384854E+01  0.23992842860E+02  0.10143153746E+04  0.10222973574E+04  0.12500068192E+03 0.  0.
    9000005    1    3    3    0    0  0.61428392939E+02  0.34254656804E+02  0.47348950854E+03  0.47868585071E+03  0.10000000000E+01 0.  0.
    9000005    1    3    3    0    0 -0.53986554454E+02 -0.10261813944E+02  0.54082586602E+03  0.54361150672E+03  0.10000000000E+01 0.  0.
         21    1    1    2  502  501 -0.74418384854E+01 -0.23992842860E+02  0.75210539467E+01  0.26222199012E+02  0.00000000000E+00 0.  1.
<mgrwt>
<rscale>  1 0.12749984E+03</rscale>
<asrwt>0</asrwt>
<pdfrwt beam="2">  1        4 0.20525472E-02 0.12749984E+03</pdfrwt>
<pdfrwt beam="1">  1       -4 0.15925824E+00 0.12749984E+03</pdfrwt>
<totfact> 0.43849545E+02</totfact>
</mgrwt>
</event>
<event>
 6    4  0.2398389E-003  0.1296105E+03  0.7818608E-02  0.1228035E+00
         -4   -1    0    0    0  501 -0.00000000000E+00  0.00000000000E+00  0.24929617146E+03  0.24929940635E+03  0.12700000000E+01 0.  1.
          4   -1    0    0  502    0  0.00000000000E+00 -0.00000000000E+00 -0.37531829281E+02  0.37553310229E+02  0.12700000000E+01 0.  1.
         25    2    1    2    0    0  0.15099689052E+01 -0.34117686466E+02  0.21654361643E+03  0.25236883631E+03  0.12503037707E+03 0.  0.
    9000005    1    3    3    0    0  0.33502866223E+02 -0.42064547316E+02  0.21242974240E+03  0.21913298164E+03  0.10000000000E+01 0.  0.
    9000005    1    3    3    0    0 -0.31992897318E+02  0.79468608492E+01  0.41138740265E+01  0.33235854670E+02  0.10000000000E+01 0.  0.
         21    1    1    2  502  501 -0.15099689052E+01  0.34117686466E+02 -0.47792742468E+01  0.34483880267E+02  0.00000000000E+00 0.  1.
<mgrwt>
<rscale>  1 0.12961054E+03</rscale>
<asrwt>0</asrwt>
<pdfrwt beam="2">  1        4 0.57760287E-02 0.12961054E+03</pdfrwt>
<pdfrwt beam="1">  1       -4 0.38355159E-01 0.12961054E+03</pdfrwt>
<totfact> 0.20313081E+03</totfact>
</mgrwt>
</event>
<event>
 6    4  0.2398389E-003  0.1417276E+03  0.7818608E-02  0.1211023E+00
         -4   -1    0    0    0  501 -0.00000000000E+00  0.00000000000E+00  0.43249276486E+02  0.43267919023E+02  0.12700000000E+01 0. -1.
          4   -1    0    0  502    0  0.00000000000E+00 -0.00000000000E+00 -0.25414789949E+03  0.25415107263E+03  0.12700000000E+01 0. -1.
         25    2    1    2    0    0 -0.45243276929E+02 -0.49139649221E+02 -0.15769083453E+03  0.21202152103E+03  0.12500026742E+03 0.  0.
    9000005    1    3    3    0    0  0.24365009819E+02  0.14223542843E+01  0.76810446314E+01  0.25606156327E+02  0.10000000000E+01 0.  0.
    9000005    1    3    3    0    0 -0.69608286748E+02 -0.50562003505E+02 -0.16537187916E+03  0.18641536471E+03  0.10000000000E+01 0.  0.
         21    1    1    2  502  501  0.45243276929E+02  0.49139649221E+02 -0.53207788483E+02  0.85397470619E+02  0.00000000000E+00 0. -1.
<mgrwt>
<rscale>  1 0.14172765E+03</rscale>
<asrwt>0</asrwt>
<pdfrwt beam="2">  1        4 0.39101354E-01 0.14172765E+03</pdfrwt>
<pdfrwt beam="1">  1       -4 0.66554132E-02 0.14172765E+03</pdfrwt>
<totfact> 0.15838814E+03</totfact>
</mgrwt>
</event>
<event>
 6    4  0.2398389E-003  0.1302709E+03  0.7818608E-02  0.1227054E+00
         -4   -1    0    0    0  501 -0.00000000000E+00  0.00000000000E+00  0.72228754320E+01  0.73336777613E+01  0.12700000000E+01 0. -1.
          4   -1    0    0  502    0  0.00000000000E+00 -0.00000000000E+00 -0.18503043610E+04  0.18503047968E+04  0.12700000000E+01 0. -1.
         25    2    1    2    0    0  0.19401794520E+02 -0.31142160917E+02 -0.59837570677E+03  0.61239201724E+03  0.12499693000E+03 0.  0.
    9000005    1    3    3    0    0  0.11297887354E+02  0.48700280263E+02 -0.23308354198E+03  0.23838686436E+03  0.10000000000E+01 0.  0.
    9000005    1    3    3    0    0  0.81039071659E+01 -0.79842441180E+02 -0.36529216479E+03  0.37400515288E+03  0.10000000000E+01 0.  0.
         21    1    1    2  502  501 -0.19401794520E+02  0.31142160917E+02 -0.12447057788E+04  0.12452464573E+04  0.00000000000E+00 0. -1.
<mgrwt>
<rscale>  1 0.13027086E+03</rscale>
<asrwt>0</asrwt>
<pdfrwt beam="2">  1        4 0.28467039E+00 0.13027086E+03</pdfrwt>
<pdfrwt beam="1">  1       -4 0.11197699E-02 0.13027086E+03</pdfrwt>
<totfact> 0.19095540E+02</totfact>
</mgrwt>
</event>
<event>
 6    4  0.2398389E-003  0.1325137E+03  0.7818608E-02  0.1223773E+00
          4   -1    0    0  502    0  0.00000000000E+00  0.00000000000E+00  0.44842907899E+01  0.46606613145E+01  0.12700000000E+01 0.  1.
         -4   -1    0    0    0  501 -0.00000000000E+00 -0.00000000000E+00 -0.17998397426E+04  0.17998401907E+04  0.12700000000E+01 0.  1.
         25    2    1    2    0    0  0.42808245050E+02 -0.10106488862E+02 -0.15063542281E+04  0.15121715954E+04  0.12500074555E+03 0.  0.
    9000005    1    3    3    0    0  0.29596670238E+02  0.43025572930E+01 -0.75937607397E+02  0.81621045727E+02  0.10000000000E+01 0.  0.
    9000005    1    3    3    0    0  0.13211574812E+02 -0.14409046155E+02 -0.14304166207E+04  0.14305505497E+04  0.10000000000E+01 0.  0.
         21    1    1    2  502  501 -0.42808245050E+02  0.10106488862E+02 -0.28900122372E+03  0.29232925662E+03  0.00000000000E+00 0.  1.
<mgrwt>
<rscale>  1 0.13251367E+03</rscale>
<asrwt>0</asrwt>
<pdfrwt beam="1">  1        4 0.70349375E-03 0.13251367E+03</pdfrwt>
<pdfrwt beam="2">  1       -4 0.27691146E+00 0.13251367E+03</pdfrwt>
<totfact> 0.42581035E+02</totfact>
</mgrwt>
</event>
<event>
 6    4  0.2398389E-003  0.1268125E+03  0.7818608E-02  0.1232264E+00
          4   -1    0    0  502    0  0.00000000000E+00  0.00000000000E+00  0.14411070519E+03  0.14411630112E+03  0.12700000000E+01 0. -1.
         -4   -1    0    0    0  501 -0.00000000000E+00 -0.00000000000E+00 -0.50828209945E+02  0.50844073658E+02  0.12700000000E+01 0. -1.
         25    2    1    2    0    0 -0.16466384385E+02 -0.13550839065E+02  0.33027232678E+02  0.13104274247E+03  0.12500654063E+03 0.  0.
    9000005    1    3    3    0    0 -0.47566544781E+02  0.24348937584E+02 -0.21590279078E+02  0.57641886632E+02  0.10000000000E+01 0.  0.
    9000005    1    3    3    0    0  0.31100160395E+02 -0.37899776650E+02  0.54617511756E+02  0.73400855834E+02  0.10000000000E+01 0.  0.
         21    1    1    2  502  501  0.16466384385E+02  0.13550839065E+02  0.60255262563E+02  0.63917632314E+02  0.00000000000E+00 0. -1.
<mgrwt>
<rscale>  1 0.12681247E+03</rscale>
<asrwt>0</asrwt>
<pdfrwt beam="1">  1        4 0.22172529E-01 0.12681247E+03</pdfrwt>
<pdfrwt beam="2">  1       -4 0.78213753E-02 0.12681247E+03</pdfrwt>
<totfact> 0.34528374E+03</totfact>
</mgrwt>
</event>
<event>
 6    4  0.2398389E-003  0.1322565E+03  0.7818608E-02  0.1224145E+00
          4   -1    0    0  502    0  0.00000000000E+00  0.00000000000E+00  0.13986438655E+04  0.13986444421E+04  0.12700000000E+01 0. -1.
         -4   -1    0    0    0  501 -0.00000000000E+00 -0.00000000000E+00 -0.54855695292E+01  0.56306636429E+01  0.12700000000E+01 0. -1.
         25    2    1    2    0    0 -0.15542829401E+02 -0.40308149457E+02  0.11073948786E+04  0.11152646264E+04  0.12500177316E+03 0.  0.
    9000005    1    3    3    0    0 -0.14701574202E+01 -0.85148802528E+02  0.73208407834E+03  0.73702142281E+03  0.10000000000E+01 0.  0.
    9000005    1    3    3    0    0 -0.14072671981E+02  0.44840653071E+02  0.37531080030E+03  0.37824320362E+03  0.10000000000E+01 0.  0.
         21    1    1    2  502  501  0.15542829401E+02  0.40308149457E+02  0.28576341734E+03  0.28901047931E+03  0.00000000000E+00 0. -1.
<mgrwt>
<rscale>  1 0.13225645E+03</rscale>
<asrwt>0</asrwt>
<pdfrwt beam="1">  1        4 0.21518728E+00 0.13225645E+03</pdfrwt>
<pdfrwt beam="2">  1       -4 0.85513883E-03 0.13225645E+03</pdfrwt>
<totfact> 0.72615279E+02</totfact>
</mgrwt>
</event>
<event>
 6    4  0.2398389E-003  0.1314937E+03  0.7818608E-02  0.1225256E+00
          4   -1    0    0  502    0  0.00000000000E+00  0.00000000000E+00  0.66956373859E+01  0.68150172416E+01  0.12700000000E+01 0. -1.
         -4   -1    0    0    0  501 -0.00000000000E+00 -0.00000000000E+00 -0.11309536898E+04  0.11309544028E+04  0.12700000000E+01 0. -1.
         25    2    1    2    0    0  0.40208003992E+02  0.76560610668E+01 -0.76899771675E+03  0.78015901066E+03  0.12496117270E+03 0.  0.
    9000005    1    3    3    0    0  0.22058713059E+02  0.48392599379E+02 -0.66335816764E+03  0.66548740714E+03  0.10000000000E+01 0.  0.
    9000005    1    3    3    0    0  0.18149290932E+02 -0.40736538312E+02 -0.10563954912E+03  0.11467160352E+03  0.10000000000E+01 0.  0.
         21    1    1    2  502  501 -0.40208003992E+02 -0.76560610668E+01 -0.35526033563E+03  0.35761040942E+03  0.00000000000E+00 0. -1.
<mgrwt>
<rscale>  1 0.13149370E+03</rscale>
<asrwt>0</asrwt>
<pdfrwt beam="1">  1        4 0.10393369E-02 0.13149370E+03</pdfrwt>
<pdfrwt beam="2">  1       -4 0.17400196E+00 0.13149370E+03</pdfrwt>
<totfact> 0.98429966E+02</totfact>
</mgrwt>
</event>
<event>
 6    4  0.2398389E-003  0.1449801E+03  0.7818608E-02  0.1206781E+00
          4   -1    0    0  502    0  0.00000000000E+00  0.00000000000E+00  0.11809208423E+03  0.11809891303E+03  0.12700000000E+01 0. -1.
         -4   -1    0    0    0  501 -0.00000000000E+00 -0.00000000000E+00 -0.17339446318E+03  0.17339911407E+03  0.12700000000E+01 0. -1.
         25    2    1    2    0    0 -0.31074292905E+02  0.66554714810E+02 -0.12411380760E+03  0.19084935867E+03  0.12499639486E+03 0.  0.
    9000005    1    3    3    0    0 -0.56568437976E+02  0.88805776988E+02 -0.68098517227E+02  0.12539881279E+03  0.10000000000E+01 0.  0.
    9000005    1    3    3    0    0  0.25494145071E+02 -0.22251062178E+02 -0.56015290368E+02  0.65450545880E+02  0.10000000000E+01 0.  0.
         21    1    1    2  502  501  0.31074292905E+02 -0.66554714810E+02  0.68811428647E+02  0.10064866842E+03  0.00000000000E+00 0. -1.
<mgrwt>
<rscale>  1 0.14498014E+03</rscale>
<asrwt>0</asrwt>
<pdfrwt beam="1">  1        4 0.18168896E-01 0.14498014E+03</pdfrwt>
<pdfrwt beam="2">  1       -4 0.26676954E-01 0.14498014E+03</pdfrwt>
<totfact> 0.59743713E+02</totfact>
</mgrwt>
</event>
<event>
 6    4  0.2398389E-003  0.1271859E+03  0.7818608E-02  0.1231692E+00
          4   -1    0    0  502    0  0.00000000000E+00  0.00000000000E+00  0.57912603952E+02  0.57926527571E+02  0.12700000000E+01 0. -1.
         -4   -1    0    0    0  501 -0.00000000000E+00 -0.00000000000E+00 -0.10049324854E+03  0.10050127314E+03  0.12700000000E+01 0. -1.
         25    2    1    2    0    0 -0.14951239235E+02  0.17970150259E+02 -0.45032689418E+02  0.13492294209E+03  0.12501916386E+03 0.  0.
    9000005    1    3    3    0    0 -0.16560108006E+02  0.31126655569E+02 -0.85413970470E+02  0.92410238694E+02  0.10000000000E+01 0.  0.
    9000005    1    3    3    0    0  0.16088687710E+01 -0.13156505310E+02  0.40381281052E+02  0.42512703397E+02  0.10000000000E+01 0.  0.
         21    1    1    2  502  501  0.14951239235E+02 -0.17970150259E+02  0.24520448247E+01  0.23504858621E+02  0.00000000000E+00 0. -1.
<mgrwt>
<rscale>  1 0.12718592E+03</rscale>
<asrwt>0</asrwt>
<pdfrwt beam="1">  1        4 0.89113197E-02 0.12718592E+03</pdfrwt>
<pdfrwt beam="2">  1       -4 0.15462188E-01 0.12718592E+03</pdfrwt>
<totfact> 0.52895474E+03</totfact>
</mgrwt>
</event>
<event>
 6    4  0.2398389E-003  0.1273756E+03  0.7818608E-02  0.1231403E+00
         -4   -1    0    0    0  501 -0.00000000000E+00  0.00000000000E+00  0.78110557095E+01  0.79136269369E+01  0.12700000000E+01 0.  1.
          4   -1    0    0  502    0  0.00000000000E+00 -0.00000000000E+00 -0.86995452371E+03  0.86995545071E+03  0.12700000000E+01 0.  1.
         25    2    1    2    0    0  0.21626170822E+02  0.11504367117E+02 -0.54099878039E+03  0.55579152161E+03  0.12499797349E+03 0.  0.
    9000005    1    3    3    0    0  0.55104579262E+02  0.17957543048E+02 -0.11849420873E+03  0.13191234025E+03  0.10000000000E+01 0.  0.
    9000005    1    3    3    0    0 -0.33478408440E+02 -0.64531759310E+01 -0.42250457166E+03  0.42387918135E+03  0.10000000000E+01 0.  0.
         21    1    1    2  502  501 -0.21626170822E+02 -0.11504367117E+02 -0.32114468761E+03  0.32207755604E+03  0.00000000000E+00 0. -1.
<mgrwt>
<rscale>  1 0.12737557E+03</rscale>
<asrwt>0</asrwt>
<pdfrwt beam="2">  1        4 0.13384704E+00 0.12737557E+03</pdfrwt>
<pdfrwt beam="1">  1       -4 0.12096630E-02 0.12737557E+03</pdfrwt>
<totfact> 0.15232670E+03</totfact>
</mgrwt>
</event>
<event>
 6    4  0.2398389E-003  0.1272359E+03  0.7818608E-02  0.1231616E+00
          4   -1    0    0  502    0  0.00000000000E+00  0.00000000000E+00  0.43779095387E+01  0.45583979564E+01  0.12700000000E+01 0.  1.
         -4   -1    0    0    0  501 -0.00000000000E+00 -0.00000000000E+00 -0.12884913910E+04  0.12884920169E+04  0.12700000000E+01 0.  1.
         25    2    1    2    0    0 -0.23736845420E+02  0.65609319838E+00 -0.11255467311E+04  0.11327155072E+04  0.12500043229E+03 0.  0.
    9000005    1    3    3    0    0 -0.49333603377E+02  0.20911017884E+02 -0.21483648126E+03  0.22141993761E+03  0.10000000000E+01 0.  0.
    9000005    1    3    3    0    0  0.25596757957E+02 -0.20254924686E+02 -0.91071024979E+03  0.91129556954E+03  0.10000000000E+01 0.  0.
         21    1    1    2  502  501  0.23736845420E+02 -0.65609319838E+00 -0.15856675042E+03  0.16033490770E+03  0.00000000000E+00 0. -1.
<mgrwt>
<rscale>  1 0.12723591E+03</rscale>
<asrwt>0</asrwt>
<pdfrwt beam="1">  1        4 0.68745744E-03 0.12723591E+03</pdfrwt>
<pdfrwt beam="2">  1       -4 0.19824308E+00 0.12723591E+03</pdfrwt>
<totfact> 0.12671047E+03</totfact>
</mgrwt>
</event>
<event>
 6    4  0.2398389E-003  0.1270153E+03  0.7818608E-02  0.1231953E+00
         -4   -1    0    0    0  501 -0.00000000000E+00  0.00000000000E+00  0.34870558133E+03  0.34870789402E+03  0.12700000000E+01 0. -1.
          4   -1    0    0  502    0  0.00000000000E+00 -0.00000000000E+00 -0.20984867321E+02  0.21023262270E+02  0.12700000000E+01 0. -1.
         25    2    1    2    0    0 -0.19298052618E+02  0.11634046448E+02  0.32248535949E+03  0.34659731077E+03  0.12500049150E+03 0.  0.
    9000005    1    3    3    0    0  0.37821593385E+00 -0.56231824325E+02  0.13592646251E+03  0.14710256396E+03  0.10000000000E+01 0.  0.
    9000005    1    3    3    0    0 -0.19676268552E+02  0.67865870773E+02  0.18655889699E+03  0.19949474681E+03  0.10000000000E+01 0.  0.
         21    1    1    2  502  501  0.19298052618E+02 -0.11634046448E+02  0.52353545183E+01  0.23133845520E+02  0.00000000000E+00 0. -1.
<mgrwt>
<rscale>  1 0.12701531E+03</rscale>
<asrwt>0</asrwt>
<pdfrwt beam="2">  1        4 0.32315727E-02 0.12701531E+03</pdfrwt>
<pdfrwt beam="1">  1       -4 0.53650141E-01 0.12701531E+03</pdfrwt>
<totfact> 0.26031955E+03</totfact>
</mgrwt>
</event>
<event>
 6    4  0.2398389E-003  0.1266089E+03  0.7818608E-02  0.1232576E+00
         -4   -1    0    0    0  501 -0.00000000000E+00  0.00000000000E+00  0.81292337379E+01  0.82278393984E+01  0.12700000000E+01 0.  1.
          4   -1    0    0  502    0  0.00000000000E+00 -0.00000000000E+00 -0.65865578386E+03  0.65865700824E+03  0.12700000000E+01 0.  1.
         25    2    1    2    0    0  0.13857605703E+02  0.14575127776E+02 -0.56871994029E+03  0.58264240586E+03  0.12500134015E+03 0.  0.
    9000005    1    3    3    0    0 -0.31806468888E+02  0.24015880449E+02 -0.61557662558E+02  0.73340028610E+02  0.10000000000E+01 0.  0.
    9000005    1    3    3    0    0  0.45664074591E+02 -0.94407526734E+01 -0.50716227773E+03  0.50930237725E+03  0.10000000000E+01 0.  0.
         21    1    1    2  502  501 -0.13857605703E+02 -0.14575127776E+02 -0.81806609831E+02  0.84242441783E+02  0.00000000000E+00 0. -1.
<mgrwt>
<rscale>  1 0.12660886E+03</rscale>
<asrwt>0</asrwt>
<pdfrwt beam="2">  1        4 0.10133930E+00 0.12660886E+03</pdfrwt>
<pdfrwt beam="1">  1       -4 0.12583311E-02 0.12660886E+03</pdfrwt>
<totfact> 0.27822189E+03</totfact>
</mgrwt>
</event>
<event>
 6    4  0.2398389E-003  0.1497531E+03  0.7818608E-02  0.1200777E+00
         -4   -1    0    0    0  501 -0.00000000000E+00  0.00000000000E+00  0.97897149104E+02  0.97905386484E+02  0.12700000000E+01 0. -1.
          4   -1    0    0  502    0  0.00000000000E+00 -0.00000000000E+00 -0.13785070991E+03  0.13785655995E+03  0.12700000000E+01 0. -1.
         25    2    1    2    0    0  0.25524690705E+02 -0.78434023624E+02 -0.22192604957E+02  0.15138862453E+03  0.12499039173E+03 0.  0.
    9000005    1    3    3    0    0 -0.89385373534E+00 -0.29481766842E+02  0.51317582572E+02  0.59198545858E+02  0.10000000000E+01 0.  0.
    9000005    1    3    3    0    0  0.26418544440E+02 -0.48952256781E+02 -0.73510187529E+02  0.92190078669E+02  0.10000000000E+01 0.  0.
         21    1    1    2  502  501 -0.25524690705E+02  0.78434023624E+02 -0.17760955844E+02  0.84373321909E+02  0.00000000000E+00 0. -1.
<mgrwt>
<rscale>  1 0.14975314E+03</rscale>
<asrwt>0</asrwt>
<pdfrwt beam="2">  1        4 0.21208885E-01 0.14975314E+03</pdfrwt>
<pdfrwt beam="1">  1       -4 0.15062183E-01 0.14975314E+03</pdfrwt>
<totfact> 0.12767189E+03</totfact>
</mgrwt>
</event>
<event>
 6    4  0.2398389E-003  0.1400449E+03  0.7818608E-02  0.1213269E+00
         -4   -1    0    0    0  501 -0.00000000000E+00  0.00000000000E+00  0.65030965975E+03  0.65031089985E+03  0.12700000000E+01 0. -1.
          4   -1    0    0  502    0  0.00000000000E+00 -0.00000000000E+00 -0.18468379740E+02  0.18511994766E+02  0.12700000000E+01 0. -1.
         25    2    1    2    0    0  0.61345724861E+02 -0.14977804132E+02  0.53641410451E+03  0.55439397170E+03  0.12499980707E+03 0.  0.
    9000005    1    3    3    0    0  0.27666251179E+02  0.20925029748E+02  0.47221083758E+03  0.47348426949E+03  0.10000000000E+01 0.  0.
    9000005    1    3    3    0    0  0.33679473681E+02 -0.35902833880E+02  0.64203266928E+02  0.80909702214E+02  0.10000000000E+01 0.  0.
         21    1    1    2  502  501 -0.61345724861E+02  0.14977804132E+02  0.95427175499E+02  0.11442892291E+03  0.00000000000E+00 0. -1.
<mgrwt>
<rscale>  1 0.14004494E+03</rscale>
<asrwt>0</asrwt>
<pdfrwt beam="2">  1        4 0.28447392E-02 0.14004494E+03</pdfrwt>
<pdfrwt beam="1">  1       -4 0.10005110E+00 0.14004494E+03</pdfrwt>
<totfact> 0.83599378E+02</totfact>
</mgrwt>
</event>
<event>
 6    4  0.2398389E-003  0.1266381E+03  0.7818608E-02  0.1232531E+00
         -4   -1    0    0    0  501 -0.00000000000E+00  0.00000000000E+00  0.11056358980E+02  0.11129059884E+02  0.12700000000E+01 0.  1.
          4   -1    0    0  502    0  0.00000000000E+00 -0.00000000000E+00 -0.49823941848E+03  0.49824103708E+03  0.12700000000E+01 0.  1.
         25    2    1    2    0    0  0.10963206620E+02  0.16988743839E+02 -0.38787990750E+03  0.40802945697E+03  0.12501362244E+03 0.  0.
    9000005    1    3    3    0    0 -0.16387196795E+02  0.17270569099E+02 -0.52224449582E+01  0.24394399094E+02  0.10000000000E+01 0.  0.
    9000005    1    3    3    0    0  0.27350403415E+02 -0.28182526004E+00 -0.38265746255E+03  0.38363505788E+03  0.10000000000E+01 0.  0.
         21    1    1    2  502  501 -0.10963206620E+02 -0.16988743839E+02 -0.99303151997E+02  0.10134063999E+03  0.00000000000E+00 0.  1.
<mgrwt>
<rscale>  1 0.12663813E+03</rscale>
<asrwt>0</asrwt>
<pdfrwt beam="2">  1        4 0.76657918E-01 0.12663813E+03</pdfrwt>
<pdfrwt beam="1">  1       -4 0.17066956E-02 0.12663813E+03</pdfrwt>
<totfact> 0.32781704E+03</totfact>
</mgrwt>
</event>
<event>
 6    4  0.2398389E-003  0.1279390E+03  0.7818608E-02  0.1230546E+00
          4   -1    0    0  502    0  0.00000000000E+00  0.00000000000E+00  0.53936711129E+02  0.53951660841E+02  0.12700000000E+01 0. -1.
         -4   -1    0    0    0  501 -0.00000000000E+00 -0.00000000000E+00 -0.16293161404E+03  0.16293656359E+03  0.12700000000E+01 0. -1.
         25    2    1    2    0    0 -0.25295956769E+02  0.10191555668E+02 -0.13005184639E+03  0.18243320876E+03  0.12499855869E+03 0.  0.
    9000005    1    3    3    0    0 -0.89810375559E+01  0.39812018013E+01  0.24749890004E+02  0.26647064727E+02  0.10000000000E+01 0.  0.
    9000005    1    3    3    0    0 -0.16314919213E+02  0.62103538672E+01 -0.15480173639E+03  0.15578614404E+03  0.10000000000E+01 0.  0.
         21    1    1    2  502  501  0.25295956769E+02 -0.10191555668E+02  0.21056943478E+02  0.34455015664E+02  0.00000000000E+00 0. -1.
<mgrwt>
<rscale>  1 0.12793902E+03</rscale>
<asrwt>0</asrwt>
<pdfrwt beam="1">  1        4 0.82994863E-02 0.12793902E+03</pdfrwt>
<pdfrwt beam="2">  1       -4 0.25067933E-01 0.12793902E+03</pdfrwt>
<totfact> 0.25053175E+03</totfact>
</mgrwt>
</event>
<event>
 6    4  0.2398389E-003  0.1358131E+03  0.7818608E-02  0.1219076E+00
          4   -1    0    0  502    0  0.00000000000E+00  0.00000000000E+00  0.22533248564E+03  0.22533606454E+03  0.12700000000E+01 0.  1.
         -4   -1    0    0    0  501 -0.00000000000E+00 -0.00000000000E+00 -0.46028521243E+02  0.46046038568E+02  0.12700000000E+01 0.  1.
         25    2    1    2    0    0 -0.50724206253E+02 -0.15576267016E+02  0.76965449778E+02  0.15610531981E+03  0.12501849951E+03 0.  0.
    9000005    1    3    3    0    0  0.76997791566E+01 -0.14737062807E+02  0.93818015360E+02  0.95285295956E+02  0.10000000000E+01 0.  0.
    9000005    1    3    3    0    0 -0.58423985410E+02 -0.83920420898E+00 -0.16852565582E+02  0.60820023854E+02  0.10000000000E+01 0.  0.
         21    1    1    2  502  501  0.50724206253E+02  0.15576267016E+02  0.10233851462E+03  0.11527678330E+03  0.00000000000E+00 0.  1.
<mgrwt>
<rscale>  1 0.13581307E+03</rscale>
<asrwt>0</asrwt>
<pdfrwt beam="1">  1        4 0.34668159E-01 0.13581307E+03</pdfrwt>
<pdfrwt beam="2">  1       -4 0.70829337E-02 0.13581307E+03</pdfrwt>
<totfact> 0.17906761E+03</totfact>
</mgrwt>
</event>
<event>
 6    4  0.2398389E-003  0.1335944E+03  0.7818608E-02  0.1222218E+00
          4   -1    0    0  502    0  0.00000000000E+00  0.00000000000E+00  0.12563491287E+03  0.12564133170E+03  0.12700000000E+01 0.  1.
         -4   -1    0    0    0  501 -0.00000000000E+00 -0.00000000000E+00 -0.65159397156E+02  0.65171772553E+02  0.12700000000E+01 0.  1.
         25    2    1    2    0    0  0.16561866497E+02  0.44148507869E+02  0.40447513257E+02  0.13958316134E+03  0.12499628567E+03 0.  0.
    9000005    1    3    3    0    0  0.68458632787E+02  0.15686977092E+02  0.46280531245E+01  0.70392361298E+02  0.10000000000E+01 0.  0.
    9000005    1    3    3    0    0 -0.51896766290E+02  0.28461530777E+02  0.35819460132E+02  0.69190800037E+02  0.10000000000E+01 0.  0.
         21    1    1    2  502  501 -0.16561866497E+02 -0.44148507869E+02  0.20028002455E+02  0.51229942917E+02  0.00000000000E+00 0. -1.
<mgrwt>
<rscale>  1 0.13359438E+03</rscale>
<asrwt>0</asrwt>
<pdfrwt beam="1">  1        4 0.19329894E-01 0.13359438E+03</pdfrwt>
<pdfrwt beam="2">  1       -4 0.10025968E-01 0.13359438E+03</pdfrwt>
<totfact> 0.29598961E+03</totfact>
</mgrwt>
</event>
<event>
 6    4  0.2398389E-003  0.1269081E+03  0.7818608E-02  0.1232117E+00
         -4   -1    0    0    0  501 -0.00000000000E+00  0.00000000000E+00  0.69303465677E+01  0.70457507441E+01  0.12700000000E+01 0. -1.
          4   -1    0    0  502    0  0.00000000000E+00 -0.00000000000E+00 -0.99983674768E+03  0.99983755426E+03  0.12700000000E+01 0. -1.
         25    2    1    2    0    0  0.23000041333E+01  0.21831051766E+02 -0.59557771253E+03  0.60894867267E+03  0.12499515769E+03 0.  0.
    9000005    1    3    3    0    0  0.45529106064E+02  0.53418271215E+02 -0.26890083903E+03  0.27791198685E+03  0.10000000000E+01 0.  0.
    9000005    1    3    3    0    0 -0.43229101931E+02 -0.31587219450E+02 -0.32667687350E+03  0.33103668583E+03  0.10000000000E+01 0.  0.
         21    1    1    2  502  501 -0.23000041333E+01 -0.21831051766E+02 -0.39732868858E+03  0.39793463233E+03  0.00000000000E+00 0. -1.
<mgrwt>
<rscale>  1 0.12690813E+03</rscale>
<asrwt>0</asrwt>
<pdfrwt beam="2">  1        4 0.15382986E+00 0.12690813E+03</pdfrwt>
<pdfrwt beam="1">  1       -4 0.10751472E-02 0.12690813E+03</pdfrwt>
<totfact> 0.12823387E+03</totfact>
</mgrwt>
</event>
<event>
 6    4  0.2398389E-003  0.1275209E+03  0.7818608E-02  0.1231181E+00
          4   -1    0    0  502    0  0.00000000000E+00  0.00000000000E+00  0.14629538754E+02  0.14684560060E+02  0.12700000000E+01 0.  1.
         -4   -1    0    0    0  501 -0.00000000000E+00 -0.00000000000E+00 -0.14409082777E+04  0.14409088374E+04  0.12700000000E+01 0.  1.
         25    2    1    2    0    0 -0.20178257050E+02 -0.15161321637E+02 -0.14246023528E+04  0.14302983782E+04  0.12499823757E+03 0.  0.
    9000005    1    3    3    0    0  0.43459859963E+00 -0.59255765425E+02 -0.11417214306E+04  0.11432586145E+04  0.10000000000E+01 0.  0.
    9000005    1    3    3    0    0 -0.20612855650E+02  0.44094443788E+02 -0.28288092214E+03  0.28703976363E+03  0.10000000000E+01 0.  0.
         21    1    1    2  502  501  0.20178257050E+02  0.15161321637E+02 -0.16763862384E+01  0.25295019316E+02  0.00000000000E+00 0.  1.
<mgrwt>
<rscale>  1 0.12752093E+03</rscale>
<asrwt>0</asrwt>
<pdfrwt beam="1">  1        4 0.22549749E-02 0.12752093E+03</pdfrwt>
<pdfrwt beam="2">  1       -4 0.22168236E+00 0.12752093E+03</pdfrwt>
<totfact> 0.15114733E+02</totfact>
</mgrwt>
</event>
<event>
 6    4  0.2398389E-003  0.1323066E+03  0.7818608E-02  0.1224073E+00
         -4   -1    0    0    0  501 -0.00000000000E+00  0.00000000000E+00  0.27912795091E+02  0.27941671921E+02  0.12700000000E+01 0.  1.
          4   -1    0    0  502    0  0.00000000000E+00 -0.00000000000E+00 -0.29407039065E+03  0.29407313301E+03  0.12700000000E+01 0.  1.
         25    2    1    2    0    0  0.26649292606E+02 -0.34214704091E+02 -0.16182278668E+03  0.20902549961E+03  0.12499685766E+03 0.  0.
    9000005    1    3    3    0    0  0.52505997324E+02 -0.44298171636E+02 -0.16717598177E+03  0.18074295739E+03  0.10000000000E+01 0.  0.
    9000005    1    3    3    0    0 -0.25856704718E+02  0.10083467545E+02  0.53531950934E+01  0.28282542218E+02  0.10000000000E+01 0.  0.
         21    1    1    2  502  501 -0.26649292606E+02  0.34214704091E+02 -0.10433480888E+03  0.11298930532E+03  0.00000000000E+00 0.  1.
<mgrwt>
<rscale>  1 0.13230663E+03</rscale>
<asrwt>0</asrwt>
<pdfrwt beam="2">  1        4 0.45244029E-01 0.13230663E+03</pdfrwt>
<pdfrwt beam="1">  1       -4 0.42967086E-02 0.13230663E+03</pdfrwt>
<totfact> 0.23677579E+03</totfact>
</mgrwt>
</event>
<event>
 6    4  0.2398389E-003  0.1285878E+03  0.7818608E-02  0.1229566E+00
          4   -1    0    0  502    0  0.00000000000E+00  0.00000000000E+00  0.47406746427E+02  0.47423754668E+02  0.12700000000E+01 0.  1.
         -4   -1    0    0    0  501 -0.00000000000E+00 -0.00000000000E+00 -0.23223992874E+03  0.23224340120E+03  0.12700000000E+01 0.  1.
         25    2    1    2    0    0  0.78556936862E+01  0.29127452605E+02 -0.20598238458E+03  0.24282412158E+03  0.12499876338E+03 0.  0.
    9000005    1    3    3    0    0 -0.21223833122E+02  0.60959155635E+02 -0.51934026937E+02  0.82852959525E+02  0.10000000000E+01 0.  0.
    9000005    1    3    3    0    0  0.29079526808E+02 -0.31831703030E+02 -0.15404835765E+03  0.15997116206E+03  0.10000000000E+01 0.  0.
         21    1    1    2  502  501 -0.78556936862E+01 -0.29127452605E+02  0.21149202271E+02  0.36843034284E+02  0.00000000000E+00 0.  1.
<mgrwt>
<rscale>  1 0.12858776E+03</rscale>
<asrwt>0</asrwt>
<pdfrwt beam="1">  1        4 0.72949211E-02 0.12858776E+03</pdfrwt>
<pdfrwt beam="2">  1       -4 0.35730795E-01 0.12858776E+03</pdfrwt>
<totfact> 0.15898411E+03</totfact>
</mgrwt>
</event>
<event>
 6    4  0.2398389E-003  0.1270570E+03  0.7818608E-02  0.1231889E+00
         -4   -1    0    0    0  501 -0.00000000000E+00  0.00000000000E+00  0.34188620802E+02  0.34212200928E+02  0.12700000000E+01 0. -1.
          4   -1    0    0  502    0  0.00000000000E+00 -0.00000000000E+00 -0.16524594556E+03  0.16525082579E+03  0.12700000000E+01 0. -1.
         25    2    1    2    0    0 -0.22519336557E+02 -0.33369588265E+01 -0.10471884447E+03  0.16464964772E+03  0.12500085718E+03 0.  0.
    9000005    1    3    3    0    0 -0.82632557277E+01 -0.58995357769E+02 -0.85192012230E+02  0.10395870613E+03  0.10000000000E+01 0.  0.
    9000005    1    3    3    0    0 -0.14256080829E+02  0.55658398942E+02 -0.19526832239E+02  0.60690941587E+02  0.10000000000E+01 0.  0.
         21    1    1    2  502  501  0.22519336557E+02  0.33369588265E+01 -0.26338480289E+02  0.34813378996E+02  0.00000000000E+00 0. -1.
<mgrwt>
<rscale>  1 0.12705696E+03</rscale>
<asrwt>0</asrwt>
<pdfrwt beam="2">  1        4 0.25424642E-01 0.12705696E+03</pdfrwt>
<pdfrwt beam="1">  1       -4 0.52619772E-02 0.12705696E+03</pdfrwt>
<totfact> 0.51296763E+03</totfact>
</mgrwt>
</event>
<event>
 6    4  0.2398389E-003  0.1376235E+03  0.7818608E-02  0.1216563E+00
         -4   -1    0    0    0  501 -0.00000000000E+00  0.00000000000E+00  0.94866771081E+03  0.94866856090E+03  0.12700000000E+01 0. -1.
          4   -1    0    0  502    0  0.00000000000E+00 -0.00000000000E+00 -0.11067189269E+02  0.11139819492E+02  0.12700000000E+01 0. -1.
         25    2    1    2    0    0 -0.12429926010E+01  0.57565030617E+02  0.77936158288E+03  0.79141942740E+03  0.12499982166E+03 0.  0.
    9000005    1    3    3    0    0  0.52877953719E+02  0.19580036570E+01  0.20000618598E+03  0.20688979240E+03  0.10000000000E+01 0.  0.
    9000005    1    3    3    0    0 -0.54120946320E+02  0.55607026960E+02  0.57935539690E+03  0.58452963501E+03  0.10000000000E+01 0.  0.
         21    1    1    2  502  501  0.12429926010E+01 -0.57565030617E+02  0.15823893866E+03  0.16838895299E+03  0.00000000000E+00 0. -1.
<mgrwt>
<rscale>  1 0.13762352E+03</rscale>
<asrwt>0</asrwt>
<pdfrwt beam="2">  1        4 0.17082971E-02 0.13762352E+03</pdfrwt>
<pdfrwt beam="1">  1       -4 0.14595451E+00 0.13762352E+03</pdfrwt>
<totfact> 0.73737348E+02</totfact>
</mgrwt>
</event>
<event>
 6    4  0.2398389E-003  0.1270400E+03  0.7818608E-02  0.1231915E+00
          4   -1    0    0  502    0  0.00000000000E+00  0.00000000000E+00  0.10937859358E+04  0.10937866731E+04  0.12700000000E+01 0.  1.
         -4   -1    0    0    0  501 -0.00000000000E+00 -0.00000000000E+00 -0.51124975177E+01  0.52678772640E+01  0.12700000000E+01 0.  1.
         25    2    1    2    0    0  0.10510586269E+02  0.20107535833E+02  0.87384183611E+03  0.88302815681E+03  0.12499754302E+03 0.  0.
    9000005    1    3    3    0    0 -0.44496705256E+02  0.24764983115E+02  0.18218077356E+03  0.18916684547E+03  0.10000000000E+01 0.  0.
    9000005    1    3    3    0    0  0.55007291525E+02 -0.46574472814E+01  0.69166106255E+03  0.69386131135E+03  0.10000000000E+01 0.  0.
         21    1    1    2  502  501 -0.10510586269E+02 -0.20107535833E+02  0.21483160219E+03  0.21602639357E+03  0.00000000000E+00 0.  1.
<mgrwt>
<rscale>  1 0.12704004E+03</rscale>
<asrwt>0</asrwt>
<pdfrwt beam="1">  1        4 0.16828679E+00 0.12704004E+03</pdfrwt>
<pdfrwt beam="2">  1       -4 0.79854697E-03 0.12704004E+03</pdfrwt>
<totfact> 0.15860611E+03</totfact>
</mgrwt>
</event>
<event>
 6    4  0.2398389E-003  0.1275588E+03  0.7818608E-02  0.1231124E+00
          4   -1    0    0  502    0  0.00000000000E+00  0.00000000000E+00  0.92834528067E+03  0.92834614937E+03  0.12700000000E+01 0.  1.
         -4   -1    0    0    0  501 -0.00000000000E+00 -0.00000000000E+00 -0.79266408486E+01  0.80277353683E+01  0.12700000000E+01 0.  1.
         25    2    1    2    0    0 -0.81067988885E+01  0.24192720454E+02  0.53045936412E+03  0.54558078779E+03  0.12498100302E+03 0.  0.
    9000005    1    3    3    0    0 -0.41547239794E+02 -0.37728061994E+02  0.20116294705E+03  0.20884709972E+03  0.10000000000E+01 0.  0.
    9000005    1    3    3    0    0  0.33440440905E+02  0.61920782449E+02  0.32929641707E+03  0.33673368807E+03  0.10000000000E+01 0.  0.
         21    1    1    2  502  501  0.81067988885E+01 -0.24192720454E+02  0.38995927570E+03  0.39079309694E+03  0.00000000000E+00 0.  1.
<mgrwt>
<rscale>  1 0.12755885E+03</rscale>
<asrwt>0</asrwt>
<pdfrwt beam="1">  1        4 0.14283008E+00 0.12755885E+03</pdfrwt>
<pdfrwt beam="2">  1       -4 0.12273275E-02 0.12755885E+03</pdfrwt>
<totfact> 0.12684689E+03</totfact>
</mgrwt>
</event>
<event>
 6    4  0.2398389E-003  0.1320687E+03  0.7818608E-02  0.1224418E+00
         -4   -1    0    0    0  501 -0.00000000000E+00  0.00000000000E+00  0.46872811308E+02  0.46890013221E+02  0.12700000000E+01 0. -1.
          4   -1    0    0  502    0  0.00000000000E+00 -0.00000000000E+00 -0.16530826893E+03  0.16531314732E+03  0.12700000000E+01 0. -1.
         25    2    1    2    0    0 -0.40046148327E+02 -0.14605033079E+02 -0.77632821180E+02  0.15319590567E+03  0.12500051840E+03 0.  0.
    9000005    1    3    3    0    0  0.34813071671E+01 -0.62628368433E+02 -0.58075376467E+02  0.85487901974E+02  0.10000000000E+01 0.  0.
    9000005    1    3    3    0    0 -0.43527455494E+02  0.48023335354E+02 -0.19557444713E+02  0.67708003692E+02  0.10000000000E+01 0.  0.
         21    1    1    2  502  501  0.40046148327E+02  0.14605033079E+02 -0.40802636438E+02  0.59007254871E+02  0.00000000000E+00 0. -1.
<mgrwt>
<rscale>  1 0.13206866E+03</rscale>
<asrwt>0</asrwt>
<pdfrwt beam="2">  1        4 0.25433740E-01 0.13206866E+03</pdfrwt>
<pdfrwt beam="1">  1       -4 0.72129003E-02 0.13206866E+03</pdfrwt>
<totfact> 0.30986652E+03</totfact>
</mgrwt>
</event>
<event>
 6    4  0.2398389E-003  0.1290715E+03  0.7818608E-02  0.1228840E+00
          4   -1    0    0  502    0  0.00000000000E+00  0.00000000000E+00  0.51935580482E+02  0.51951106052E+02  0.12700000000E+01 0. -1.
         -4   -1    0    0    0  501 -0.00000000000E+00 -0.00000000000E+00 -0.12865922993E+03  0.12866549788E+03  0.12700000000E+01 0. -1.
         25    2    1    2    0    0 -0.20470796703E+02 -0.24801177434E+02 -0.72889371775E+02  0.14823059453E+03  0.12500118687E+03 0.  0.
    9000005    1    3    3    0    0  0.28003538760E+02  0.22240085787E+02  0.13785669833E+02  0.38338809210E+02  0.10000000000E+01 0.  0.
    9000005    1    3    3    0    0 -0.48474335463E+02 -0.47041263220E+02 -0.86675041608E+02  0.10989178532E+03  0.10000000000E+01 0.  0.
         21    1    1    2  502  501  0.20470796703E+02  0.24801177434E+02 -0.38342776711E+01  0.32386009402E+02  0.00000000000E+00 0. -1.
<mgrwt>
<rscale>  1 0.12907149E+03</rscale>
<asrwt>0</asrwt>
<pdfrwt beam="1">  1        4 0.79917658E-02 0.12907149E+03</pdfrwt>
<pdfrwt beam="2">  1       -4 0.19795404E-01 0.12907149E+03</pdfrwt>
<totfact> 0.41071951E+03</totfact>
</mgrwt>
</event>
<event>
 6    4  0.2398389E-003  0.1271800E+03  0.7818608E-02  0.1231701E+00
         -4   -1    0    0    0  501 -0.00000000000E+00  0.00000000000E+00  0.96717008413E+02  0.96725346297E+02  0.12700000000E+01 0. -1.
          4   -1    0    0  502    0  0.00000000000E+00 -0.00000000000E+00 -0.99173253630E+02  0.99181385025E+02  0.12700000000E+01 0. -1.
         25    2    1    2    0    0 -0.82645507938E+01  0.21970255675E+02  0.51387095624E+02  0.13716917700E+03  0.12499501826E+03 0.  0.
    9000005    1    3    3    0    0 -0.12465831865E+02 -0.49605987569E+02  0.42012940963E+01  0.51330320853E+02  0.10000000000E+01 0.  0.
    9000005    1    3    3    0    0  0.42012810710E+01  0.71576243244E+02  0.47185801528E+02  0.85838856152E+02  0.10000000000E+01 0.  0.
         21    1    1    2  502  501  0.82645507938E+01 -0.21970255675E+02 -0.53843340841E+02  0.58737554317E+02  0.00000000000E+00 0. -1.
<mgrwt>
<rscale>  1 0.12717999E+03</rscale>
<asrwt>0</asrwt>
<pdfrwt beam="2">  1        4 0.15258691E-01 0.12717999E+03</pdfrwt>
<pdfrwt beam="1">  1       -4 0.14880807E-01 0.12717999E+03</pdfrwt>
<totfact> 0.22605238E+03</totfact>
</mgrwt>
</event>
<event>
 6    4  0.2398389E-003  0.1302024E+03  0.7818608E-02  0.1227156E+00
          4   -1    0    0  502    0  0.00000000000E+00  0.00000000000E+00  0.15236285491E+02  0.15289123440E+02  0.12700000000E+01 0. -1.
         -4   -1    0    0    0  501 -0.00000000000E+00 -0.00000000000E+00 -0.47388461457E+03  0.47388631635E+03  0.12700000000E+01 0. -1.
         25    2    1    2    0    0 -0.88234409691E+00  0.36439940282E+02 -0.39403761314E+03  0.41499193493E+03  0.12499607079E+03 0.  0.
    9000005    1    3    3    0    0  0.17835652132E+02 -0.41817357454E+02 -0.19648900636E+03  0.20168225378E+03  0.10000000000E+01 0.  0.
    9000005    1    3    3    0    0 -0.18717996229E+02  0.78257297735E+02 -0.19754860678E+03  0.21330968115E+03  0.10000000000E+01 0.  0.
         21    1    1    2  502  501  0.88234409691E+00 -0.36439940282E+02 -0.64610715942E+02  0.74183504860E+02  0.00000000000E+00 0. -1.
<mgrwt>
<rscale>  1 0.13020240E+03</rscale>
<asrwt>0</asrwt>
<pdfrwt beam="1">  1        4 0.23482397E-02 0.13020240E+03</pdfrwt>
<pdfrwt beam="2">  1       -4 0.72909509E-01 0.13020240E+03</pdfrwt>
<totfact> 0.22527644E+03</totfact>
</mgrwt>
</event>
<event>
 6    4  0.2398389E-003  0.1390313E+03  0.7818608E-02  0.1214638E+00
         -4   -1    0    0    0  501 -0.00000000000E+00  0.00000000000E+00  0.56120025351E+03  0.56120169052E+03  0.12700000000E+01 0.  1.
          4   -1    0    0  502    0  0.00000000000E+00 -0.00000000000E+00 -0.21683869271E+02  0.21721028671E+02  0.12700000000E+01 0.  1.
         25    2    1    2    0    0 -0.60804300866E+02  0.27640557200E+01  0.47185984743E+03  0.49191607119E+03  0.12499960986E+03 0.  0.
    9000005    1    3    3    0    0 -0.41735633152E+02  0.63146571133E+02  0.25836799661E+03  0.26922922240E+03  0.10000000000E+01 0.  0.
    9000005    1    3    3    0    0 -0.19068667714E+02 -0.60382515413E+02  0.21349185082E+03  0.22268684879E+03  0.10000000000E+01 0.  0.
         21    1    1    2  502  501  0.60804300866E+02 -0.27640557200E+01  0.67656536805E+02  0.91006648001E+02  0.00000000000E+00 0.  1.
<mgrwt>
<rscale>  1 0.13903131E+03</rscale>
<asrwt>0</asrwt>
<pdfrwt beam="2">  1        4 0.33389485E-02 0.13903131E+03</pdfrwt>
<pdfrwt beam="1">  1       -4 0.86341477E-01 0.13903131E+03</pdfrwt>
<totfact> 0.90797787E+02</totfact>
</mgrwt>
</event>
<event>
 6    4  0.2398389E-003  0.1279136E+03  0.7818608E-02  0.1230585E+00
          4   -1    0    0  502    0  0.00000000000E+00  0.00000000000E+00  0.29025063115E+02  0.29052834437E+02  0.12700000000E+01 0. -1.
         -4   -1    0    0    0  501 -0.00000000000E+00 -0.00000000000E+00 -0.21869864425E+03  0.21870233171E+03  0.12700000000E+01 0. -1.
         25    2    1    2    0    0  0.17535450021E+01 -0.27092264570E+02 -0.17538557190E+03  0.21707597243E+03  0.12499925302E+03 0.  0.
    9000005    1    3    3    0    0 -0.35209145595E+01  0.46117773497E+02 -0.32821126228E+02  0.56722766139E+02  0.10000000000E+01 0.  0.
    9000005    1    3    3    0    0  0.52744595615E+01 -0.73210038066E+02 -0.14256444567E+03  0.16035320629E+03  0.10000000000E+01 0.  0.
         21    1    1    2  502  501 -0.17535450021E+01  0.27092264570E+02 -0.14288009239E+02  0.30679193725E+02  0.00000000000E+00 0.  1.
<mgrwt>
<rscale>  1 0.12791356E+03</rscale>
<asrwt>0</asrwt>
<pdfrwt beam="1">  1        4 0.44678144E-02 0.12791356E+03</pdfrwt>
<pdfrwt beam="2">  1       -4 0.33648364E-01 0.12791356E+03</pdfrwt>
<totfact> 0.39420486E+03</totfact>
</mgrwt>
</event>
<event>
 6    4  0.2398389E-003  0.1308219E+03  0.7818608E-02  0.1226241E+00
          4   -1    0    0  502    0  0.00000000000E+00  0.00000000000E+00  0.62007804516E+03  0.62007934572E+03  0.12700000000E+01 0.  1.
         -4   -1    0    0    0  501 -0.00000000000E+00 -0.00000000000E+00 -0.38302920941E+02  0.38323969687E+02  0.12700000000E+01 0.  1.
         25    2    1    2    0    0 -0.11726378324E+02 -0.36775408308E+02  0.76279721045E+02  0.15143631329E+03  0.12499769012E+03 0.  0.
    9000005    1    3    3    0    0  0.42337148021E+02 -0.56839923377E+02  0.55879964593E+02  0.90259522683E+02  0.10000000000E+01 0.  0.
    9000005    1    3    3    0    0 -0.54063526345E+02  0.20064515069E+02  0.20399756451E+02  0.61176790608E+02  0.10000000000E+01 0.  0.
         21    1    1    2  502  501  0.11726378324E+02  0.36775408308E+02  0.50549540317E+03  0.50696700211E+03  0.00000000000E+00 0.  1.
<mgrwt>
<rscale>  1 0.13082187E+03</rscale>
<asrwt>0</asrwt>
<pdfrwt beam="1">  1        4 0.95398328E-01 0.13082187E+03</pdfrwt>
<pdfrwt beam="2">  1       -4 0.58944771E-02 0.13082187E+03</pdfrwt>
<totfact> 0.28882211E+02</totfact>
</mgrwt>
</event>
