<event>
 5    1  0.1435323E-002  0.1250014E+03  0.7818608E-02  0.1235067E+00
         -4   -1    0    0    0  501 -0.00000000000E+00  0.00000000000E+00  0.81928071204E+02  0.81937914004E+02  0.12700000000E+01 0. -1.
          4   -1    0    0  501    0  0.00000000000E+00 -0.00000000000E+00 -0.47658915028E+02  0.47675833309E+02  0.12700000000E+01 0. -1.
         25    2    1    2    0    0  0.00000000000E+00  0.00000000000E+00  0.34269156176E+02  0.12961374731E+03  0.12500139370E+03 0.  0.
    9000005    1    3    3    0    0  0.45498972735E+02 -0.33635334719E+01 -0.27147992312E+02  0.53098807557E+02  0.10000000000E+01 0.  0.
    9000005    1    3    3    0    0 -0.45498972735E+02  0.33635334719E+01  0.61417148488E+02  0.76514939756E+02  0.10000000000E+01 0.  0.
<mgrwt>
<rscale>  0 0.12500139E+03</rscale>
<asrwt>0</asrwt>
<pdfrwt beam="2">  1        4 0.11918074E-01 0.12500139E+03</pdfrwt>
<pdfrwt beam="1">  1       -4 0.20485363E-01 0.12500139E+03</pdfrwt>
<totfact> 0.19584532E+03</totfact>
</mgrwt>
</event>
<event>
 5    1  0.1435323E-002  0.1249984E+03  0.7818608E-02  0.1235072E+00
          4   -1    0    0  501    0  0.00000000000E+00  0.00000000000E+00  0.16332733571E+03  0.16333227327E+03  0.12700000000E+01 0. -1.
         -4   -1    0    0    0  501 -0.00000000000E+00 -0.00000000000E+00 -0.23893927152E+02  0.23927654602E+02  0.12700000000E+01 0. -1.
         25    2    1    2    0    0  0.00000000000E+00  0.00000000000E+00  0.13943340856E+03  0.18725992787E+03  0.12499842064E+03 0.  0.
    9000005    1    3    3    0    0 -0.16519186488E+02  0.50031415766E+01 -0.20259491053E+02  0.26633849244E+02  0.10000000000E+01 0.  0.
    9000005    1    3    3    0    0  0.16519186488E+02 -0.50031415766E+01  0.15969289961E+03  0.16062607863E+03  0.10000000000E+01 0.  0.
<mgrwt>
<rscale>  0 0.12499842E+03</rscale>
<asrwt>0</asrwt>
<pdfrwt beam="1">  1        4 0.40836667E-01 0.12499842E+03</pdfrwt>
<pdfrwt beam="2">  1       -4 0.59783150E-02 0.12499842E+03</pdfrwt>
<totfact> 0.16845830E+03</totfact>
</mgrwt>
</event>
<event>
 5    1  0.1435323E-002  0.1250021E+03  0.7818608E-02  0.1235066E+00
         -4   -1    0    0    0  501 -0.00000000000E+00  0.00000000000E+00  0.27443421844E+03  0.27443715702E+03  0.12700000000E+01 0.  1.
          4   -1    0    0  501    0  0.00000000000E+00 -0.00000000000E+00 -0.14202966805E+02  0.14259634149E+02  0.12700000000E+01 0.  1.
         25    2    1    2    0    0  0.00000000000E+00  0.00000000000E+00  0.26023125164E+03  0.28869679117E+03  0.12500213159E+03 0.  0.
    9000005    1    3    3    0    0  0.61463547794E+02 -0.95978829497E+01  0.14387552427E+03  0.15675156634E+03  0.10000000000E+01 0.  0.
    9000005    1    3    3    0    0 -0.61463547794E+02  0.95978829497E+01  0.11635572737E+03  0.13194522483E+03  0.10000000000E+01 0.  0.
<mgrwt>
<rscale>  0 0.12500213E+03</rscale>
<asrwt>0</asrwt>
<pdfrwt beam="2">  1        4 0.35581923E-02 0.12500213E+03</pdfrwt>
<pdfrwt beam="1">  1       -4 0.68616007E-01 0.12500213E+03</pdfrwt>
<totfact> 0.13293219E+03</totfact>
</mgrwt>
</event>
<event>
 5    1  0.1435323E-002  0.1250002E+03  0.7818608E-02  0.1235069E+00
          4   -1    0    0  501    0  0.00000000000E+00  0.00000000000E+00  0.94626826317E+01  0.95475265167E+01  0.12700000000E+01 0.  1.
         -4   -1    0    0    0  501 -0.00000000000E+00 -0.00000000000E+00 -0.41087917787E+03  0.41088114061E+03  0.12700000000E+01 0.  1.
         25    2    1    2    0    0  0.00000000000E+00  0.00000000000E+00 -0.40141649524E+03  0.42042866712E+03  0.12500024596E+03 0.  0.
    9000005    1    3    3    0    0  0.21348519256E+02 -0.31151788196E+02 -0.33242481667E+02  0.50321523920E+02  0.10000000000E+01 0.  0.
    9000005    1    3    3    0    0 -0.21348519256E+02  0.31151788196E+02 -0.36817401357E+03  0.37010714320E+03  0.10000000000E+01 0.  0.
<mgrwt>
<rscale>  0 0.12500025E+03</rscale>
<asrwt>0</asrwt>
<pdfrwt beam="1">  1        4 0.23765229E-02 0.12500025E+03</pdfrwt>
<pdfrwt beam="2">  1       -4 0.10273059E+00 0.12500025E+03</pdfrwt>
<totfact> 0.10157636E+03</totfact>
</mgrwt>
</event>
<event>
 5    1  0.1435323E-002  0.1249984E+03  0.7818608E-02  0.1235072E+00
          4   -1    0    0  501    0  0.00000000000E+00  0.00000000000E+00  0.26721083139E+02  0.26751246403E+02  0.12700000000E+01 0. -1.
         -4   -1    0    0    0  501 -0.00000000000E+00 -0.00000000000E+00 -0.14606693335E+03  0.14607245434E+03  0.12700000000E+01 0. -1.
         25    2    1    2    0    0  0.00000000000E+00  0.00000000000E+00 -0.11934585021E+03  0.17282370075E+03  0.12499839830E+03 0.  0.
    9000005    1    3    3    0    0 -0.34395075751E+01  0.62384348932E+02 -0.61373414302E+02  0.87586147233E+02  0.10000000000E+01 0.  0.
    9000005    1    3    3    0    0  0.34395075751E+01 -0.62384348932E+02 -0.57972435909E+02  0.85237553515E+02  0.10000000000E+01 0.  0.
<mgrwt>
<rscale>  0 0.12499840E+03</rscale>
<asrwt>0</asrwt>
<pdfrwt beam="1">  1        4 0.66847317E-02 0.12499840E+03</pdfrwt>
<pdfrwt beam="2">  1       -4 0.36521192E-01 0.12499840E+03</pdfrwt>
<totfact> 0.17471083E+03</totfact>
</mgrwt>
</event>
<event>
 5    1  0.1435323E-002  0.1249940E+03  0.7818608E-02  0.1235079E+00
          4   -1    0    0  501    0  0.00000000000E+00  0.00000000000E+00  0.92746534403E+02  0.92755229199E+02  0.12700000000E+01 0. -1.
         -4   -1    0    0    0  501 -0.00000000000E+00 -0.00000000000E+00 -0.42093163227E+02  0.42112317562E+02  0.12700000000E+01 0. -1.
         25    2    1    2    0    0  0.00000000000E+00  0.00000000000E+00  0.50653371176E+02  0.13486754676E+03  0.12499396449E+03 0.  0.
    9000005    1    3    3    0    0 -0.45115171858E+02  0.22520519440E+02 -0.14498519665E+02  0.52476276545E+02  0.10000000000E+01 0.  0.
    9000005    1    3    3    0    0  0.45115171858E+02 -0.22520519440E+02  0.65151890841E+02  0.82391270216E+02  0.10000000000E+01 0.  0.
<mgrwt>
<rscale>  0 0.12499396E+03</rscale>
<asrwt>0</asrwt>
<pdfrwt beam="1">  1        4 0.23190115E-01 0.12499396E+03</pdfrwt>
<pdfrwt beam="2">  1       -4 0.10526772E-01 0.12499396E+03</pdfrwt>
<totfact> 0.19308796E+03</totfact>
</mgrwt>
</event>
<event>
 5    1  0.1435323E-002  0.1250015E+03  0.7818608E-02  0.1235067E+00
         -4   -1    0    0    0  501 -0.00000000000E+00  0.00000000000E+00  0.14913866716E+04  0.14913872123E+04  0.12700000000E+01 0.  1.
          4   -1    0    0  501    0  0.00000000000E+00 -0.00000000000E+00 -0.24647525089E+01  0.27727071483E+01  0.12700000000E+01 0.  1.
         25    2    1    2    0    0  0.00000000000E+00  0.00000000000E+00  0.14889219191E+04  0.14941599195E+04  0.12500153539E+03 0.  0.
    9000005    1    3    3    0    0 -0.53213868872E+02  0.30816928553E+02  0.61138493783E+03  0.61447045587E+03  0.10000000000E+01 0.  0.
    9000005    1    3    3    0    0  0.53213868872E+02 -0.30816928553E+02  0.87753698126E+03  0.87968946362E+03  0.10000000000E+01 0.  0.
<mgrwt>
<rscale>  0 0.12500154E+03</rscale>
<asrwt>0</asrwt>
<pdfrwt beam="2">  1        4 0.65474936E-03 0.12500154E+03</pdfrwt>
<pdfrwt beam="1">  1       -4 0.37288562E+00 0.12500154E+03</pdfrwt>
<totfact> 0.12685391E+02</totfact>
</mgrwt>
</event>
<event>
 5    1  0.1435323E-002  0.1250012E+03  0.7818608E-02  0.1235067E+00
         -4   -1    0    0    0  501 -0.00000000000E+00  0.00000000000E+00  0.39194701498E+03  0.39194907252E+03  0.12700000000E+01 0.  1.
          4   -1    0    0  501    0  0.00000000000E+00 -0.00000000000E+00 -0.99239081653E+01  0.10004841492E+02  0.12700000000E+01 0.  1.
         25    2    1    2    0    0  0.00000000000E+00  0.00000000000E+00  0.38202310681E+03  0.40195391401E+03  0.12500117940E+03 0.  0.
    9000005    1    3    3    0    0  0.44147832160E+02  0.42295483249E+02  0.23261411413E+03  0.24051666279E+03  0.10000000000E+01 0.  0.
    9000005    1    3    3    0    0 -0.44147832160E+02 -0.42295483249E+02  0.14940899269E+03  0.16143725123E+03  0.10000000000E+01 0.  0.
<mgrwt>
<rscale>  0 0.12500118E+03</rscale>
<asrwt>0</asrwt>
<pdfrwt beam="2">  1        4 0.24913510E-02 0.12500118E+03</pdfrwt>
<pdfrwt beam="1">  1       -4 0.97997125E-01 0.12500118E+03</pdfrwt>
<totfact> 0.10528780E+03</totfact>
</mgrwt>
</event>
<event>
 5    1  0.1435323E-002  0.1250183E+03  0.7818608E-02  0.1235041E+00
          4   -1    0    0  501    0  0.00000000000E+00  0.00000000000E+00  0.35458711491E+02  0.35481447555E+02  0.12700000000E+01 0.  1.
         -4   -1    0    0    0  501 -0.00000000000E+00 -0.00000000000E+00 -0.11013382215E+03  0.11014114437E+03  0.12700000000E+01 0.  1.
         25    2    1    2    0    0  0.00000000000E+00  0.00000000000E+00 -0.74675110663E+02  0.14562259192E+03  0.12501826717E+03 0.  0.
    9000005    1    3    3    0    0 -0.57357921612E+02 -0.17799003308E+01 -0.84913207190E+01  0.58018977451E+02  0.10000000000E+01 0.  0.
    9000005    1    3    3    0    0  0.57357921612E+02  0.17799003308E+01 -0.66183789944E+02  0.87603614470E+02  0.10000000000E+01 0.  0.
<mgrwt>
<rscale>  0 0.12501827E+03</rscale>
<asrwt>0</asrwt>
<pdfrwt beam="1">  1        4 0.88684354E-02 0.12501827E+03</pdfrwt>
<pdfrwt beam="2">  1       -4 0.27537212E-01 0.12501827E+03</pdfrwt>
<totfact> 0.18748158E+03</totfact>
</mgrwt>
</event>
<event>
 5    1  0.1435323E-002  0.1250026E+03  0.7818608E-02  0.1235065E+00
          4   -1    0    0  501    0  0.00000000000E+00  0.00000000000E+00  0.16839297624E+03  0.16839776527E+03  0.12700000000E+01 0. -1.
         -4   -1    0    0    0  501 -0.00000000000E+00 -0.00000000000E+00 -0.23175671363E+02  0.23210442545E+02  0.12700000000E+01 0. -1.
         25    2    1    2    0    0  0.00000000000E+00  0.00000000000E+00  0.14521730488E+03  0.19160820781E+03  0.12500255863E+03 0.  0.
    9000005    1    3    3    0    0  0.39321420896E+02  0.41207337818E+02  0.11202339559E+03  0.12567601200E+03  0.10000000000E+01 0.  0.
    9000005    1    3    3    0    0 -0.39321420896E+02 -0.41207337818E+02  0.33193909283E+02  0.65932195814E+02  0.10000000000E+01 0.  0.
<mgrwt>
<rscale>  0 0.12500256E+03</rscale>
<asrwt>0</asrwt>
<pdfrwt beam="1">  1        4 0.42103189E-01 0.12500256E+03</pdfrwt>
<pdfrwt beam="2">  1       -4 0.57988629E-02 0.12500256E+03</pdfrwt>
<totfact> 0.16662683E+03</totfact>
</mgrwt>
</event>
<event>
 5    1  0.1435323E-002  0.1249819E+03  0.7818608E-02  0.1235098E+00
         -4   -1    0    0    0  501 -0.00000000000E+00  0.00000000000E+00  0.14513571595E+04  0.14513577152E+04  0.12700000000E+01 0.  1.
          4   -1    0    0  501    0  0.00000000000E+00 -0.00000000000E+00 -0.25402205601E+01  0.28400036081E+01  0.12700000000E+01 0.  1.
         25    2    1    2    0    0  0.00000000000E+00  0.00000000000E+00  0.14488169390E+04  0.14541977188E+04  0.12498192945E+03 0.  0.
    9000005    1    3    3    0    0 -0.12177682957E+02  0.57831219521E+02  0.96039925965E+03  0.96221644335E+03  0.10000000000E+01 0.  0.
    9000005    1    3    3    0    0  0.12177682957E+02 -0.57831219521E+02  0.48841767934E+03  0.49198127546E+03  0.10000000000E+01 0.  0.
<mgrwt>
<rscale>  0 0.12498193E+03</rscale>
<asrwt>0</asrwt>
<pdfrwt beam="2">  1        4 0.67259826E-03 0.12498193E+03</pdfrwt>
<pdfrwt beam="1">  1       -4 0.36287641E+00 0.12498193E+03</pdfrwt>
<totfact> 0.14068660E+02</totfact>
</mgrwt>
</event>
<event>
 5    1  0.1435323E-002  0.1250036E+03  0.7818608E-02  0.1235064E+00
          4   -1    0    0  501    0  0.00000000000E+00  0.00000000000E+00  0.64776873348E+02  0.64789321811E+02  0.12700000000E+01 0. -1.
         -4   -1    0    0    0  501 -0.00000000000E+00 -0.00000000000E+00 -0.60281702992E+02  0.60295079530E+02  0.12700000000E+01 0. -1.
         25    2    1    2    0    0  0.00000000000E+00  0.00000000000E+00  0.44951703566E+01  0.12508440134E+03  0.12500360356E+03 0.  0.
    9000005    1    3    3    0    0 -0.54033458995E+02  0.22519044877E+02  0.24142156418E+02  0.63329028017E+02  0.10000000000E+01 0.  0.
    9000005    1    3    3    0    0  0.54033458995E+02 -0.22519044877E+02 -0.19646986062E+02  0.61755373324E+02  0.10000000000E+01 0.  0.
<mgrwt>
<rscale>  0 0.12500360E+03</rscale>
<asrwt>0</asrwt>
<pdfrwt beam="1">  1        4 0.16197446E-01 0.12500360E+03</pdfrwt>
<pdfrwt beam="2">  1       -4 0.15073654E-01 0.12500360E+03</pdfrwt>
<totfact> 0.19828807E+03</totfact>
</mgrwt>
</event>
<event>
 5    1  0.1435323E-002  0.1250001E+03  0.7818608E-02  0.1235069E+00
          4   -1    0    0  501    0  0.00000000000E+00  0.00000000000E+00  0.28552381955E+02  0.28580612577E+02  0.12700000000E+01 0.  1.
         -4   -1    0    0    0  501 -0.00000000000E+00 -0.00000000000E+00 -0.13671147328E+03  0.13671737207E+03  0.12700000000E+01 0.  1.
         25    2    1    2    0    0  0.00000000000E+00  0.00000000000E+00 -0.10815909133E+03  0.16529798465E+03  0.12500013877E+03 0.  0.
    9000005    1    3    3    0    0 -0.22750811304E+02 -0.56025316270E+02 -0.33220112886E+02  0.69000082452E+02  0.10000000000E+01 0.  0.
    9000005    1    3    3    0    0  0.22750811304E+02  0.56025316270E+02 -0.74938978439E+02  0.96297902198E+02  0.10000000000E+01 0.  0.
<mgrwt>
<rscale>  0 0.12500014E+03</rscale>
<asrwt>0</asrwt>
<pdfrwt beam="1">  1        4 0.71423620E-02 0.12500014E+03</pdfrwt>
<pdfrwt beam="2">  1       -4 0.34182133E-01 0.12500014E+03</pdfrwt>
<totfact> 0.17811180E+03</totfact>
</mgrwt>
</event>
<event>
 5    1  0.1435323E-002  0.1250200E+03  0.7818608E-02  0.1235038E+00
          4   -1    0    0  501    0  0.00000000000E+00  0.00000000000E+00  0.10713210321E+03  0.10713963056E+03  0.12700000000E+01 0. -1.
         -4   -1    0    0    0  501 -0.00000000000E+00 -0.00000000000E+00 -0.36453786375E+02  0.36475902197E+02  0.12700000000E+01 0. -1.
         25    2    1    2    0    0  0.00000000000E+00  0.00000000000E+00  0.70678316830E+02  0.14361553276E+03  0.12501998552E+03 0.  0.
    9000005    1    3    3    0    0  0.24233186839E+02  0.49496080384E+02  0.69210255131E+02  0.88476938990E+02  0.10000000000E+01 0.  0.
    9000005    1    3    3    0    0 -0.24233186839E+02 -0.49496080384E+02  0.14680616992E+01  0.55138593770E+02  0.10000000000E+01 0.  0.
<mgrwt>
<rscale>  0 0.12501999E+03</rscale>
<asrwt>0</asrwt>
<pdfrwt beam="1">  1        4 0.26786731E-01 0.12501999E+03</pdfrwt>
<pdfrwt beam="2">  1       -4 0.91171521E-02 0.12501999E+03</pdfrwt>
<totfact> 0.18848099E+03</totfact>
</mgrwt>
</event>
<event>
 5    1  0.1435323E-002  0.1249964E+03  0.7818608E-02  0.1235075E+00
          4   -1    0    0  501    0  0.00000000000E+00  0.00000000000E+00  0.90465219105E+02  0.90474133141E+02  0.12700000000E+01 0. -1.
         -4   -1    0    0    0  501 -0.00000000000E+00 -0.00000000000E+00 -0.43156699970E+02  0.43175382480E+02  0.12700000000E+01 0. -1.
         25    2    1    2    0    0  0.00000000000E+00  0.00000000000E+00  0.47308519135E+02  0.13364951562E+03  0.12499638812E+03 0.  0.
    9000005    1    3    3    0    0  0.46605681110E+01 -0.21389609382E+02  0.86236364380E+02  0.88977226447E+02  0.10000000000E+01 0.  0.
    9000005    1    3    3    0    0 -0.46605681110E+01  0.21389609382E+02 -0.38927845245E+02  0.44672289175E+02  0.10000000000E+01 0.  0.
<mgrwt>
<rscale>  0 0.12499639E+03</rscale>
<asrwt>0</asrwt>
<pdfrwt beam="1">  1        4 0.22619754E-01 0.12499639E+03</pdfrwt>
<pdfrwt beam="2">  1       -4 0.10792625E-01 0.12499639E+03</pdfrwt>
<totfact> 0.19371742E+03</totfact>
</mgrwt>
</event>
<event>
 5    1  0.1435323E-002  0.1250000E+03  0.7818608E-02  0.1235069E+00
          4   -1    0    0  501    0  0.00000000000E+00  0.00000000000E+00  0.10374839023E+03  0.10375616308E+03  0.12700000000E+01 0. -1.
         -4   -1    0    0    0  501 -0.00000000000E+00 -0.00000000000E+00 -0.37631292415E+02  0.37652716620E+02  0.12700000000E+01 0. -1.
         25    2    1    2    0    0  0.00000000000E+00  0.00000000000E+00  0.66117097818E+02  0.14140887969E+03  0.12500000253E+03 0.  0.
    9000005    1    3    3    0    0 -0.43234461787E+02  0.37990371347E+02  0.60601296428E+02  0.83582319481E+02  0.10000000000E+01 0.  0.
    9000005    1    3    3    0    0  0.43234461787E+02 -0.37990371347E+02  0.55158013902E+01  0.57826560213E+02  0.10000000000E+01 0.  0.
<mgrwt>
<rscale>  0 0.12500000E+03</rscale>
<asrwt>0</asrwt>
<pdfrwt beam="1">  1        4 0.25940747E-01 0.12500000E+03</pdfrwt>
<pdfrwt beam="2">  1       -4 0.94114728E-02 0.12500000E+03</pdfrwt>
<totfact> 0.18968496E+03</totfact>
</mgrwt>
</event>
<event>
 5    1  0.1435323E-002  0.1249965E+03  0.7818608E-02  0.1235075E+00
          4   -1    0    0  501    0  0.00000000000E+00  0.00000000000E+00  0.27736499636E+02  0.27765559819E+02  0.12700000000E+01 0. -1.
         -4   -1    0    0    0  501 -0.00000000000E+00 -0.00000000000E+00 -0.14072082428E+03  0.14072655501E+03  0.12700000000E+01 0. -1.
         25    2    1    2    0    0  0.00000000000E+00  0.00000000000E+00 -0.11298432464E+03  0.16849211483E+03  0.12499654053E+03 0.  0.
    9000005    1    3    3    0    0  0.10732255573E+02  0.45451575146E+02 -0.11246161685E+03  0.12177701860E+03  0.10000000000E+01 0.  0.
    9000005    1    3    3    0    0 -0.10732255573E+02 -0.45451575146E+02 -0.52270779017E+00  0.46715096236E+02  0.10000000000E+01 0.  0.
<mgrwt>
<rscale>  0 0.12499654E+03</rscale>
<asrwt>0</asrwt>
<pdfrwt beam="1">  1        4 0.69384742E-02 0.12499654E+03</pdfrwt>
<pdfrwt beam="2">  1       -4 0.35184553E-01 0.12499654E+03</pdfrwt>
<totfact> 0.17666694E+03</totfact>
</mgrwt>
</event>
<event>
 5    1  0.1435323E-002  0.1250032E+03  0.7818608E-02  0.1235064E+00
          4   -1    0    0  501    0  0.00000000000E+00  0.00000000000E+00  0.42421782504E+02  0.42440788527E+02  0.12700000000E+01 0.  1.
         -4   -1    0    0    0  501 -0.00000000000E+00 -0.00000000000E+00 -0.92041861756E+02  0.92050623113E+02  0.12700000000E+01 0.  1.
         25    2    1    2    0    0  0.00000000000E+00  0.00000000000E+00 -0.49620079253E+02  0.13449141164E+03  0.12500315012E+03 0.  0.
    9000005    1    3    3    0    0 -0.20596103984E+02 -0.55907404091E+02 -0.45099023848E+02  0.74731247036E+02  0.10000000000E+01 0.  0.
    9000005    1    3    3    0    0  0.20596103984E+02  0.55907404091E+02 -0.45210554044E+01  0.59760164604E+02  0.10000000000E+01 0.  0.
<mgrwt>
<rscale>  0 0.12500315E+03</rscale>
<asrwt>0</asrwt>
<pdfrwt beam="1">  1        4 0.10608917E-01 0.12500315E+03</pdfrwt>
<pdfrwt beam="2">  1       -4 0.23013936E-01 0.12500315E+03</pdfrwt>
<totfact> 0.19324389E+03</totfact>
</mgrwt>
</event>
<event>
 5    1  0.1435323E-002  0.1249947E+03  0.7818608E-02  0.1235078E+00
         -4   -1    0    0    0  501 -0.00000000000E+00  0.00000000000E+00  0.52348461115E+03  0.52348615169E+03  0.12700000000E+01 0.  1.
          4   -1    0    0  501    0  0.00000000000E+00 -0.00000000000E+00 -0.74057754856E+01  0.75138811904E+01  0.12700000000E+01 0.  1.
         25    2    1    2    0    0  0.00000000000E+00  0.00000000000E+00  0.51607883566E+03  0.53100003288E+03  0.12499468108E+03 0.  0.
    9000005    1    3    3    0    0  0.47314932602E+01  0.61494298474E+02  0.30072926221E+03  0.30699026845E+03  0.10000000000E+01 0.  0.
    9000005    1    3    3    0    0 -0.47314932602E+01 -0.61494298474E+02  0.21534957345E+03  0.22400976443E+03  0.10000000000E+01 0.  0.
<mgrwt>
<rscale>  0 0.12499468E+03</rscale>
<asrwt>0</asrwt>
<pdfrwt beam="2">  1        4 0.18651500E-02 0.12499468E+03</pdfrwt>
<pdfrwt beam="1">  1       -4 0.13088483E+00 0.12499468E+03</pdfrwt>
<totfact> 0.82888446E+02</totfact>
</mgrwt>
</event>
<event>
 5    1  0.1435323E-002  0.1249992E+03  0.7818608E-02  0.1235071E+00
          4   -1    0    0  501    0  0.00000000000E+00  0.00000000000E+00  0.22280427927E+02  0.22316594019E+02  0.12700000000E+01 0. -1.
         -4   -1    0    0    0  501 -0.00000000000E+00 -0.00000000000E+00 -0.17513908628E+03  0.17514369085E+03  0.12700000000E+01 0. -1.
         25    2    1    2    0    0  0.00000000000E+00  0.00000000000E+00 -0.15285865835E+03  0.19746028486E+03  0.12499917866E+03 0.  0.
    9000005    1    3    3    0    0 -0.12619099325E+02  0.44459106481E+02 -0.14287685933E+03  0.15016874092E+03  0.10000000000E+01 0.  0.
    9000005    1    3    3    0    0  0.12619099325E+02 -0.44459106481E+02 -0.99817990200E+01  0.47291543944E+02  0.10000000000E+01 0.  0.
<mgrwt>
<rscale>  0 0.12499918E+03</rscale>
<asrwt>0</asrwt>
<pdfrwt beam="1">  1        4 0.55752038E-02 0.12499918E+03</pdfrwt>
<pdfrwt beam="2">  1       -4 0.43789864E-01 0.12499918E+03</pdfrwt>
<totfact> 0.16424555E+03</totfact>
</mgrwt>
</event>
<event>
 5    1  0.1435323E-002  0.1250023E+03  0.7818608E-02  0.1235066E+00
         -4   -1    0    0    0  501 -0.00000000000E+00  0.00000000000E+00  0.17622421863E+02  0.17668125320E+02  0.12700000000E+01 0.  1.
          4   -1    0    0  501    0  0.00000000000E+00 -0.00000000000E+00 -0.22133724426E+03  0.22134088776E+03  0.12700000000E+01 0.  1.
         25    2    1    2    0    0  0.00000000000E+00  0.00000000000E+00 -0.20371482239E+03  0.23900901308E+03  0.12500231787E+03 0.  0.
    9000005    1    3    3    0    0 -0.30302010543E+02 -0.43320940562E+02 -0.16557383816E+03  0.17381200079E+03  0.10000000000E+01 0.  0.
    9000005    1    3    3    0    0  0.30302010543E+02  0.43320940562E+02 -0.38140984234E+02  0.65197012297E+02  0.10000000000E+01 0.  0.
<mgrwt>
<rscale>  0 0.12500232E+03</rscale>
<asrwt>0</asrwt>
<pdfrwt beam="2">  1        4 0.55340471E-01 0.12500232E+03</pdfrwt>
<pdfrwt beam="1">  1       -4 0.44117745E-02 0.12500232E+03</pdfrwt>
<totfact> 0.14869861E+03</totfact>
</mgrwt>
</event>
<event>
 5    1  0.1435323E-002  0.1249993E+03  0.7818608E-02  0.1235070E+00
         -4   -1    0    0    0  501 -0.00000000000E+00  0.00000000000E+00  0.25866490029E+02  0.25897648665E+02  0.12700000000E+01 0. -1.
          4   -1    0    0  501    0  0.00000000000E+00 -0.00000000000E+00 -0.15088949779E+03  0.15089484234E+03  0.12700000000E+01 0. -1.
         25    2    1    2    0    0  0.00000000000E+00  0.00000000000E+00 -0.12502300776E+03  0.17679249100E+03  0.12499932962E+03 0.  0.
    9000005    1    3    3    0    0  0.21866390203E+02 -0.35189990695E+01 -0.14515934255E+03  0.14684262700E+03  0.10000000000E+01 0.  0.
    9000005    1    3    3    0    0 -0.21866390203E+02  0.35189990695E+01  0.20136334788E+02  0.29949864000E+02  0.10000000000E+01 0.  0.
<mgrwt>
<rscale>  0 0.12499933E+03</rscale>
<asrwt>0</asrwt>
<pdfrwt beam="2">  1        4 0.37726935E-01 0.12499933E+03</pdfrwt>
<pdfrwt beam="1">  1       -4 0.64711858E-02 0.12499933E+03</pdfrwt>
<totfact> 0.17295227E+03</totfact>
</mgrwt>
</event>
<event>
 5    1  0.1435323E-002  0.1250074E+03  0.7818608E-02  0.1235058E+00
          4   -1    0    0  501    0  0.00000000000E+00  0.00000000000E+00  0.10507280334E+03  0.10508047821E+03  0.12700000000E+01 0.  1.
         -4   -1    0    0    0  501 -0.00000000000E+00 -0.00000000000E+00 -0.37161134745E+02  0.37182829848E+02  0.12700000000E+01 0.  1.
         25    2    1    2    0    0  0.00000000000E+00  0.00000000000E+00  0.67911668593E+02  0.14226330806E+03  0.12500741614E+03 0.  0.
    9000005    1    3    3    0    0  0.39193875005E+02  0.12543594337E+02 -0.19570868155E+02  0.45579825330E+02  0.10000000000E+01 0.  0.
    9000005    1    3    3    0    0 -0.39193875005E+02 -0.12543594337E+02  0.87482536748E+02  0.96683482729E+02  0.10000000000E+01 0.  0.
<mgrwt>
<rscale>  0 0.12500742E+03</rscale>
<asrwt>0</asrwt>
<pdfrwt beam="1">  1        4 0.26271872E-01 0.12500742E+03</pdfrwt>
<pdfrwt beam="2">  1       -4 0.92939550E-02 0.12500742E+03</pdfrwt>
<totfact> 0.18921876E+03</totfact>
</mgrwt>
</event>
<event>
 5    1  0.1435323E-002  0.1250018E+03  0.7818608E-02  0.1235066E+00
         -4   -1    0    0    0  501 -0.00000000000E+00  0.00000000000E+00  0.33799506865E+02  0.33823358264E+02  0.12700000000E+01 0.  1.
          4   -1    0    0  501    0  0.00000000000E+00 -0.00000000000E+00 -0.11550644110E+03  0.11551342275E+03  0.12700000000E+01 0.  1.
         25    2    1    2    0    0  0.00000000000E+00  0.00000000000E+00 -0.81706934237E+02  0.14933678102E+03  0.12500180424E+03 0.  0.
    9000005    1    3    3    0    0  0.48384013393E+01  0.57814722939E+02 -0.68600093226E+02  0.89849458020E+02  0.10000000000E+01 0.  0.
    9000005    1    3    3    0    0 -0.48384013393E+01 -0.57814722939E+02 -0.13106841012E+02  0.59487322996E+02  0.10000000000E+01 0.  0.
<mgrwt>
<rscale>  0 0.12500180E+03</rscale>
<asrwt>0</asrwt>
<pdfrwt beam="2">  1        4 0.28880463E-01 0.12500180E+03</pdfrwt>
<pdfrwt beam="1">  1       -4 0.84537311E-02 0.12500180E+03</pdfrwt>
<totfact> 0.18570660E+03</totfact>
</mgrwt>
</event>
<event>
 5    1  0.1435323E-002  0.1250033E+03  0.7818608E-02  0.1235064E+00
          4   -1    0    0  501    0  0.00000000000E+00  0.00000000000E+00  0.15495967676E+02  0.15547923148E+02  0.12700000000E+01 0.  1.
         -4   -1    0    0    0  501 -0.00000000000E+00 -0.00000000000E+00 -0.25161957235E+03  0.25162277737E+03  0.12700000000E+01 0.  1.
         25    2    1    2    0    0  0.00000000000E+00  0.00000000000E+00 -0.23612360467E+03  0.26717070051E+03  0.12500330607E+03 0.  0.
    9000005    1    3    3    0    0  0.24659048425E+02  0.52794689386E+02 -0.16633418219E+03  0.17624814343E+03  0.10000000000E+01 0.  0.
    9000005    1    3    3    0    0 -0.24659048425E+02 -0.52794689386E+02 -0.69789422479E+02  0.90922557083E+02  0.10000000000E+01 0.  0.
<mgrwt>
<rscale>  0 0.12500331E+03</rscale>
<asrwt>0</asrwt>
<pdfrwt beam="1">  1        4 0.38808878E-02 0.12500331E+03</pdfrwt>
<pdfrwt beam="2">  1       -4 0.62911775E-01 0.12500331E+03</pdfrwt>
<totfact> 0.13942694E+03</totfact>
</mgrwt>
</event>
<event>
 5    1  0.1435323E-002  0.1250007E+03  0.7818608E-02  0.1235068E+00
         -4   -1    0    0    0  501 -0.00000000000E+00  0.00000000000E+00  0.14157608149E+03  0.14158177761E+03  0.12700000000E+01 0. -1.
          4   -1    0    0  501    0  0.00000000000E+00 -0.00000000000E+00 -0.27570628497E+02  0.27599863328E+02  0.12700000000E+01 0. -1.
         25    2    1    2    0    0  0.00000000000E+00  0.00000000000E+00  0.11400545300E+03  0.16918164094E+03  0.12500073727E+03 0.  0.
    9000005    1    3    3    0    0  0.41355727492E+02 -0.15206291809E+02  0.11697987458E+03  0.12500727404E+03  0.10000000000E+01 0.  0.
    9000005    1    3    3    0    0 -0.41355727492E+02  0.15206291809E+02 -0.29744215813E+01  0.44174366897E+02  0.10000000000E+01 0.  0.
<mgrwt>
<rscale>  0 0.12500074E+03</rscale>
<asrwt>0</asrwt>
<pdfrwt beam="2">  1        4 0.68970236E-02 0.12500074E+03</pdfrwt>
<pdfrwt beam="1">  1       -4 0.35398386E-01 0.12500074E+03</pdfrwt>
<totfact> 0.17633720E+03</totfact>
</mgrwt>
</event>
<event>
 5    1  0.1435323E-002  0.1249957E+03  0.7818608E-02  0.1235076E+00
          4   -1    0    0  501    0  0.00000000000E+00  0.00000000000E+00  0.39532172768E+03  0.39532376766E+03  0.12700000000E+01 0. -1.
         -4   -1    0    0    0  501 -0.00000000000E+00 -0.00000000000E+00 -0.98376326984E+01  0.99192699887E+01  0.12700000000E+01 0. -1.
         25    2    1    2    0    0  0.00000000000E+00  0.00000000000E+00  0.38548409498E+03  0.40524303765E+03  0.12499572824E+03 0.  0.
    9000005    1    3    3    0    0  0.17923514641E+02 -0.58612901902E+02  0.15326633239E+03  0.16507057064E+03  0.10000000000E+01 0.  0.
    9000005    1    3    3    0    0 -0.17923514641E+02  0.58612901902E+02  0.23221776259E+03  0.24017246701E+03  0.10000000000E+01 0.  0.
<mgrwt>
<rscale>  0 0.12499573E+03</rscale>
<asrwt>0</asrwt>
<pdfrwt beam="1">  1        4 0.98840885E-01 0.12499573E+03</pdfrwt>
<pdfrwt beam="2">  1       -4 0.24698680E-02 0.12499573E+03</pdfrwt>
<totfact> 0.10463011E+03</totfact>
</mgrwt>
</event>
<event>
 5    1  0.1435323E-002  0.1250005E+03  0.7818608E-02  0.1235068E+00
          4   -1    0    0  501    0  0.00000000000E+00  0.00000000000E+00  0.40384180931E+03  0.40384380625E+03  0.12700000000E+01 0. -1.
         -4   -1    0    0    0  501 -0.00000000000E+00 -0.00000000000E+00 -0.96290920930E+01  0.97124824085E+01  0.12700000000E+01 0. -1.
         25    2    1    2    0    0  0.00000000000E+00  0.00000000000E+00  0.39421271722E+03  0.41355628866E+03  0.12500054989E+03 0.  0.
    9000005    1    3    3    0    0 -0.41674773214E+02 -0.37987612403E+02  0.28621568088E+03  0.29171949095E+03  0.10000000000E+01 0.  0.
    9000005    1    3    3    0    0  0.41674773214E+02  0.37987612403E+02  0.10799703634E+03  0.12183679771E+03  0.10000000000E+01 0.  0.
<mgrwt>
<rscale>  0 0.12500055E+03</rscale>
<asrwt>0</asrwt>
<pdfrwt beam="1">  1        4 0.10097112E+00 0.12500055E+03</pdfrwt>
<pdfrwt beam="2">  1       -4 0.24179466E-02 0.12500055E+03</pdfrwt>
<totfact> 0.10294121E+03</totfact>
</mgrwt>
</event>
<event>
 5    1  0.1435323E-002  0.1249991E+03  0.7818608E-02  0.1235071E+00
          4   -1    0    0  501    0  0.00000000000E+00  0.00000000000E+00  0.11526004921E+04  0.11526011918E+04  0.12700000000E+01 0. -1.
         -4   -1    0    0    0  501 -0.00000000000E+00 -0.00000000000E+00 -0.32693242129E+01  0.35073324349E+01  0.12700000000E+01 0. -1.
         25    2    1    2    0    0  0.00000000000E+00  0.00000000000E+00  0.11493311679E+04  0.11561085242E+04  0.12499914512E+03 0.  0.
    9000005    1    3    3    0    0 -0.30592988953E+02 -0.38440346016E+02  0.93187140970E+03  0.93316607063E+03  0.10000000000E+01 0.  0.
    9000005    1    3    3    0    0  0.30592988953E+02  0.38440346016E+02  0.21745975817E+03  0.22294245356E+03  0.10000000000E+01 0.  0.
<mgrwt>
<rscale>  0 0.12499915E+03</rscale>
<asrwt>0</asrwt>
<pdfrwt beam="1">  1        4 0.28817997E+00 0.12499915E+03</pdfrwt>
<pdfrwt beam="2">  1       -4 0.84716952E-03 0.12499915E+03</pdfrwt>
<totfact> 0.27565182E+02</totfact>
</mgrwt>
</event>
<event>
 5    1  0.1435323E-002  0.1249997E+03  0.7818608E-02  0.1235070E+00
          4   -1    0    0  501    0  0.00000000000E+00  0.00000000000E+00  0.86451374266E+02  0.86460702128E+02  0.12700000000E+01 0.  1.
         -4   -1    0    0    0  501 -0.00000000000E+00 -0.00000000000E+00 -0.45163469662E+02  0.45181322379E+02  0.12700000000E+01 0.  1.
         25    2    1    2    0    0  0.00000000000E+00  0.00000000000E+00  0.41287904604E+02  0.13164202451E+03  0.12499972620E+03 0.  0.
    9000005    1    3    3    0    0  0.22320798014E+02 -0.38304893858E+02  0.67026902419E+02  0.80368455039E+02  0.10000000000E+01 0.  0.
    9000005    1    3    3    0    0 -0.22320798014E+02  0.38304893858E+02 -0.25738997815E+02  0.51273569468E+02  0.10000000000E+01 0.  0.
<mgrwt>
<rscale>  0 0.12499973E+03</rscale>
<asrwt>0</asrwt>
<pdfrwt beam="1">  1        4 0.21616241E-01 0.12499973E+03</pdfrwt>
<pdfrwt beam="2">  1       -4 0.11294265E-01 0.12499973E+03</pdfrwt>
<totfact> 0.19476633E+03</totfact>
</mgrwt>
</event>
<event>
 5    1  0.1435323E-002  0.1249993E+03  0.7818608E-02  0.1235070E+00
         -4   -1    0    0    0  501 -0.00000000000E+00  0.00000000000E+00  0.18261435901E+02  0.18305544001E+02  0.12700000000E+01 0. -1.
          4   -1    0    0  501    0  0.00000000000E+00 -0.00000000000E+00 -0.21360076204E+03  0.21360453751E+03  0.12700000000E+01 0. -1.
         25    2    1    2    0    0  0.00000000000E+00  0.00000000000E+00 -0.19533932614E+03  0.23191008151E+03  0.12499933427E+03 0.  0.
    9000005    1    3    3    0    0 -0.64601396908E+01 -0.57458044444E+02 -0.53685262593E+02  0.78906702478E+02  0.10000000000E+01 0.  0.
    9000005    1    3    3    0    0  0.64601396908E+01  0.57458044444E+02 -0.14165406354E+03  0.15300337903E+03  0.10000000000E+01 0.  0.
<mgrwt>
<rscale>  0 0.12499933E+03</rscale>
<asrwt>0</asrwt>
<pdfrwt beam="2">  1        4 0.53406168E-01 0.12499933E+03</pdfrwt>
<pdfrwt beam="1">  1       -4 0.45713451E-02 0.12499933E+03</pdfrwt>
<totfact> 0.15119533E+03</totfact>
</mgrwt>
</event>
<event>
 5    1  0.1435323E-002  0.1250061E+03  0.7818608E-02  0.1235060E+00
          4   -1    0    0  501    0  0.00000000000E+00  0.00000000000E+00  0.73247866249E+02  0.73258875299E+02  0.12700000000E+01 0.  1.
         -4   -1    0    0    0  501 -0.00000000000E+00 -0.00000000000E+00 -0.53311861862E+02  0.53326986744E+02  0.12700000000E+01 0.  1.
         25    2    1    2    0    0  0.00000000000E+00  0.00000000000E+00  0.19936004387E+02  0.12658586204E+03  0.12500614464E+03 0.  0.
    9000005    1    3    3    0    0 -0.66731924921E+00  0.32625118829E+02  0.63940614015E+02  0.71793076367E+02  0.10000000000E+01 0.  0.
    9000005    1    3    3    0    0  0.66731924921E+00 -0.32625118829E+02 -0.44004609628E+02  0.54792785676E+02  0.10000000000E+01 0.  0.
<mgrwt>
<rscale>  0 0.12500614E+03</rscale>
<asrwt>0</asrwt>
<pdfrwt beam="1">  1        4 0.18315233E-01 0.12500614E+03</pdfrwt>
<pdfrwt beam="2">  1       -4 0.13331232E-01 0.12500614E+03</pdfrwt>
<totfact> 0.19746456E+03</totfact>
</mgrwt>
</event>
<event>
 5    1  0.1435323E-002  0.1250178E+03  0.7818608E-02  0.1235041E+00
          4   -1    0    0  501    0  0.00000000000E+00  0.00000000000E+00  0.78594821350E+02  0.78605081534E+02  0.12700000000E+01 0.  1.
         -4   -1    0    0    0  501 -0.00000000000E+00 -0.00000000000E+00 -0.49693683308E+02  0.49709909080E+02  0.12700000000E+01 0.  1.
         25    2    1    2    0    0  0.00000000000E+00  0.00000000000E+00  0.28901138041E+02  0.12831499061E+03  0.12501784287E+03 0.  0.
    9000005    1    3    3    0    0  0.29070151052E+02  0.22695979764E+02  0.66241091769E+02  0.75822578553E+02  0.10000000000E+01 0.  0.
    9000005    1    3    3    0    0 -0.29070151052E+02 -0.22695979764E+02 -0.37339953728E+02  0.52492412062E+02  0.10000000000E+01 0.  0.
<mgrwt>
<rscale>  0 0.12501784E+03</rscale>
<asrwt>0</asrwt>
<pdfrwt beam="1">  1        4 0.19652016E-01 0.12501784E+03</pdfrwt>
<pdfrwt beam="2">  1       -4 0.12426732E-01 0.12501784E+03</pdfrwt>
<totfact> 0.19647229E+03</totfact>
</mgrwt>
</event>
<event>
 5    1  0.1435323E-002  0.1249989E+03  0.7818608E-02  0.1235071E+00
          4   -1    0    0  501    0  0.00000000000E+00  0.00000000000E+00  0.40961572916E+03  0.40961769796E+03  0.12700000000E+01 0. -1.
         -4   -1    0    0    0  501 -0.00000000000E+00 -0.00000000000E+00 -0.94919265306E+01  0.95765113305E+01  0.12700000000E+01 0. -1.
         25    2    1    2    0    0  0.00000000000E+00  0.00000000000E+00  0.40012380263E+03  0.41919420929E+03  0.12499891066E+03 0.  0.
    9000005    1    3    3    0    0 -0.53953167582E+02 -0.19287674704E+02  0.11640877879E+03  0.12974961452E+03  0.10000000000E+01 0.  0.
    9000005    1    3    3    0    0  0.53953167582E+02  0.19287674704E+02  0.28371502384E+03  0.28944459477E+03  0.10000000000E+01 0.  0.
<mgrwt>
<rscale>  0 0.12499891E+03</rscale>
<asrwt>0</asrwt>
<pdfrwt beam="1">  1        4 0.10241475E+00 0.12499891E+03</pdfrwt>
<pdfrwt beam="2">  1       -4 0.23838010E-02 0.12499891E+03</pdfrwt>
<totfact> 0.10182265E+03</totfact>
</mgrwt>
</event>
<event>
 5    1  0.1435323E-002  0.1250024E+03  0.7818608E-02  0.1235065E+00
          4   -1    0    0  501    0  0.00000000000E+00  0.00000000000E+00  0.10606781877E+03  0.10607542166E+03  0.12700000000E+01 0. -1.
         -4   -1    0    0    0  501 -0.00000000000E+00 -0.00000000000E+00 -0.36809410902E+02  0.36831313185E+02  0.12700000000E+01 0. -1.
         25    2    1    2    0    0  0.00000000000E+00  0.00000000000E+00  0.69258407872E+02  0.14290673484E+03  0.12500243118E+03 0.  0.
    9000005    1    3    3    0    0 -0.25536038161E+02  0.24480811159E+02 -0.24266675082E+02  0.42910032387E+02  0.10000000000E+01 0.  0.
    9000005    1    3    3    0    0  0.25536038161E+02 -0.24480811159E+02  0.93525082954E+02  0.99996702454E+02  0.10000000000E+01 0.  0.
<mgrwt>
<rscale>  0 0.12500243E+03</rscale>
<asrwt>0</asrwt>
<pdfrwt beam="1">  1        4 0.26520643E-01 0.12500243E+03</pdfrwt>
<pdfrwt beam="2">  1       -4 0.92060409E-02 0.12500243E+03</pdfrwt>
<totfact> 0.18891542E+03</totfact>
</mgrwt>
</event>
<event>
 5    1  0.1435323E-002  0.1249992E+03  0.7818608E-02  0.1235071E+00
         -4   -1    0    0    0  501 -0.00000000000E+00  0.00000000000E+00  0.21191225309E+03  0.21191605864E+03  0.12700000000E+01 0.  1.
          4   -1    0    0  501    0  0.00000000000E+00 -0.00000000000E+00 -0.18407253700E+02  0.18451013218E+02  0.12700000000E+01 0.  1.
         25    2    1    2    0    0  0.00000000000E+00  0.00000000000E+00  0.19350499939E+03  0.23036707186E+03  0.12499921203E+03 0.  0.
    9000005    1    3    3    0    0 -0.10959959646E+02  0.56466101152E+02  0.14176948327E+03  0.15299714926E+03  0.10000000000E+01 0.  0.
    9000005    1    3    3    0    0  0.10959959646E+02 -0.56466101152E+02  0.51735516119E+02  0.77369922598E+02  0.10000000000E+01 0.  0.
<mgrwt>
<rscale>  0 0.12499921E+03</rscale>
<asrwt>0</asrwt>
<pdfrwt beam="2">  1        4 0.46077591E-02 0.12499921E+03</pdfrwt>
<pdfrwt beam="1">  1       -4 0.52984008E-01 0.12499921E+03</pdfrwt>
<totfact> 0.15174480E+03</totfact>
</mgrwt>
</event>
<event>
 5    1  0.1435323E-002  0.1250037E+03  0.7818608E-02  0.1235064E+00
         -4   -1    0    0    0  501 -0.00000000000E+00  0.00000000000E+00  0.24294135631E+03  0.24294467581E+03  0.12700000000E+01 0.  1.
          4   -1    0    0  501    0  0.00000000000E+00 -0.00000000000E+00 -0.16051421154E+02  0.16101584427E+02  0.12700000000E+01 0.  1.
         25    2    1    2    0    0  0.00000000000E+00  0.00000000000E+00  0.22688993516E+03  0.25904626024E+03  0.12500368902E+03 0.  0.
    9000005    1    3    3    0    0  0.36964432663E+02 -0.49468067286E+02  0.93565744964E+02  0.11211158546E+03  0.10000000000E+01 0.  0.
    9000005    1    3    3    0    0 -0.36964432663E+02  0.49468067286E+02  0.13332419019E+03  0.14693467478E+03  0.10000000000E+01 0.  0.
<mgrwt>
<rscale>  0 0.12500369E+03</rscale>
<asrwt>0</asrwt>
<pdfrwt beam="2">  1        4 0.40195406E-02 0.12500369E+03</pdfrwt>
<pdfrwt beam="1">  1       -4 0.60742025E-01 0.12500369E+03</pdfrwt>
<totfact> 0.14200624E+03</totfact>
</mgrwt>
</event>
<event>
 5    1  0.1435323E-002  0.1250000E+03  0.7818608E-02  0.1235069E+00
         -4   -1    0    0    0  501 -0.00000000000E+00  0.00000000000E+00  0.86588682686E+02  0.86597995758E+02  0.12700000000E+01 0. -1.
          4   -1    0    0  501    0  0.00000000000E+00 -0.00000000000E+00 -0.45092036855E+02  0.45109917842E+02  0.12700000000E+01 0. -1.
         25    2    1    2    0    0  0.00000000000E+00  0.00000000000E+00  0.41496645832E+02  0.13170791360E+03  0.12500001156E+03 0.  0.
    9000005    1    3    3    0    0 -0.48174550076E+02  0.38666827933E+02  0.30707523121E+02  0.68991759172E+02  0.10000000000E+01 0.  0.
    9000005    1    3    3    0    0  0.48174550076E+02 -0.38666827933E+02  0.10789122711E+02  0.62716154428E+02  0.10000000000E+01 0.  0.
<mgrwt>
<rscale>  0 0.12500001E+03</rscale>
<asrwt>0</asrwt>
<pdfrwt beam="2">  1        4 0.11276409E-01 0.12500001E+03</pdfrwt>
<pdfrwt beam="1">  1       -4 0.21650570E-01 0.12500001E+03</pdfrwt>
<totfact> 0.19472994E+03</totfact>
</mgrwt>
</event>
<event>
 5    1  0.1435323E-002  0.1250052E+03  0.7818608E-02  0.1235061E+00
         -4   -1    0    0    0  501 -0.00000000000E+00  0.00000000000E+00  0.28160520546E+02  0.28189143609E+02  0.12700000000E+01 0.  1.
          4   -1    0    0  501    0  0.00000000000E+00 -0.00000000000E+00 -0.13862325382E+03  0.13862907127E+03  0.12700000000E+01 0.  1.
         25    2    1    2    0    0  0.00000000000E+00  0.00000000000E+00 -0.11046273328E+03  0.16681821488E+03  0.12500520538E+03 0.  0.
    9000005    1    3    3    0    0  0.33580030931E+02  0.13566023451E+02 -0.12319767003E+03  0.12841464624E+03  0.10000000000E+01 0.  0.
    9000005    1    3    3    0    0 -0.33580030931E+02 -0.13566023451E+02  0.12734936752E+02  0.38403568632E+02  0.10000000000E+01 0.  0.
<mgrwt>
<rscale>  0 0.12500521E+03</rscale>
<asrwt>0</asrwt>
<pdfrwt beam="2">  1        4 0.34660117E-01 0.12500521E+03</pdfrwt>
<pdfrwt beam="1">  1       -4 0.70444356E-02 0.12500521E+03</pdfrwt>
<totfact> 0.17739377E+03</totfact>
</mgrwt>
</event>
<event>
 5    1  0.1435323E-002  0.1249988E+03  0.7818608E-02  0.1235071E+00
          4   -1    0    0  501    0  0.00000000000E+00  0.00000000000E+00  0.68496232942E+03  0.68496350678E+03  0.12700000000E+01 0.  1.
         -4   -1    0    0    0  501 -0.00000000000E+00 -0.00000000000E+00 -0.56308581904E+01  0.57723014440E+01  0.12700000000E+01 0.  1.
         25    2    1    2    0    0  0.00000000000E+00  0.00000000000E+00  0.67933147123E+03  0.69073580823E+03  0.12499883585E+03 0.  0.
    9000005    1    3    3    0    0 -0.11507233571E+02 -0.57501560406E+02  0.22033472550E+03  0.22800709887E+03  0.10000000000E+01 0.  0.
    9000005    1    3    3    0    0  0.11507233571E+02  0.57501560406E+02  0.45899674573E+03  0.46272870935E+03  0.10000000000E+01 0.  0.
<mgrwt>
<rscale>  0 0.12499884E+03</rscale>
<asrwt>0</asrwt>
<pdfrwt beam="1">  1        4 0.17125837E+00 0.12499884E+03</pdfrwt>
<pdfrwt beam="2">  1       -4 0.14255424E-02 0.12499884E+03</pdfrwt>
<totfact> 0.63037121E+02</totfact>
</mgrwt>
</event>
<event>
 5    1  0.1435323E-002  0.1250125E+03  0.7818608E-02  0.1235050E+00
          4   -1    0    0  501    0  0.00000000000E+00  0.00000000000E+00  0.95945753780E+03  0.95945837833E+03  0.12700000000E+01 0.  1.
         -4   -1    0    0    0  501 -0.00000000000E+00 -0.00000000000E+00 -0.39722449844E+01  0.41703273512E+01  0.12700000000E+01 0.  1.
         25    2    1    2    0    0  0.00000000000E+00  0.00000000000E+00  0.95548529281E+03  0.96362870568E+03  0.12501254985E+03 0.  0.
    9000005    1    3    3    0    0  0.23695953464E+01 -0.11371605305E+02  0.43838127470E+01  0.12455769889E+02  0.10000000000E+01 0.  0.
    9000005    1    3    3    0    0 -0.23695953464E+01  0.11371605305E+02  0.95110148007E+03  0.95117293579E+03  0.10000000000E+01 0.  0.
<mgrwt>
<rscale>  0 0.12501255E+03</rscale>
<asrwt>0</asrwt>
<pdfrwt beam="1">  1        4 0.23988938E+00 0.12501255E+03</pdfrwt>
<pdfrwt beam="2">  1       -4 0.10179261E-02 0.12501255E+03</pdfrwt>
<totfact> 0.39598587E+02</totfact>
</mgrwt>
</event>
<event>
 5    1  0.1435323E-002  0.1249973E+03  0.7818608E-02  0.1235074E+00
         -4   -1    0    0    0  501 -0.00000000000E+00  0.00000000000E+00  0.39291267112E+02  0.39311786671E+02  0.12700000000E+01 0. -1.
          4   -1    0    0  501    0  0.00000000000E+00 -0.00000000000E+00 -0.99362872569E+02  0.99370988449E+02  0.12700000000E+01 0. -1.
         25    2    1    2    0    0  0.00000000000E+00  0.00000000000E+00 -0.60071605458E+02  0.13868277512E+03  0.12499725730E+03 0.  0.
    9000005    1    3    3    0    0  0.15515630293E+02 -0.60491203338E+02 -0.27515993304E+02  0.68249911005E+02  0.10000000000E+01 0.  0.
    9000005    1    3    3    0    0 -0.15515630293E+02  0.60491203338E+02 -0.32555612153E+02  0.70432864114E+02  0.10000000000E+01 0.  0.
<mgrwt>
<rscale>  0 0.12499726E+03</rscale>
<asrwt>0</asrwt>
<pdfrwt beam="2">  1        4 0.24844297E-01 0.12499726E+03</pdfrwt>
<pdfrwt beam="1">  1       -4 0.98263964E-02 0.12499726E+03</pdfrwt>
<totfact> 0.19109155E+03</totfact>
</mgrwt>
</event>
<event>
 5    1  0.1435323E-002  0.1249995E+03  0.7818608E-02  0.1235070E+00
         -4   -1    0    0    0  501 -0.00000000000E+00  0.00000000000E+00  0.12732069170E+04  0.12732075504E+04  0.12700000000E+01 0.  1.
          4   -1    0    0  501    0  0.00000000000E+00 -0.00000000000E+00 -0.29359282334E+01  0.31988395696E+01  0.12700000000E+01 0.  1.
         25    2    1    2    0    0  0.00000000000E+00  0.00000000000E+00  0.12702709888E+04  0.12764063900E+04  0.12499954982E+03 0.  0.
    9000005    1    3    3    0    0  0.43179615872E+02 -0.37769702567E+02  0.88820083606E+03  0.89005210793E+03  0.10000000000E+01 0.  0.
    9000005    1    3    3    0    0 -0.43179615872E+02  0.37769702567E+02  0.38207015270E+03  0.38635428203E+03  0.10000000000E+01 0.  0.
<mgrwt>
<rscale>  0 0.12499955E+03</rscale>
<asrwt>0</asrwt>
<pdfrwt beam="2">  1        4 0.76692538E-03 0.12499955E+03</pdfrwt>
<pdfrwt beam="1">  1       -4 0.31833458E+00 0.12499955E+03</pdfrwt>
<totfact> 0.21408924E+02</totfact>
</mgrwt>
</event>
<event>
 5    1  0.1435323E-002  0.1250015E+03  0.7818608E-02  0.1235067E+00
         -4   -1    0    0    0  501 -0.00000000000E+00  0.00000000000E+00  0.33974534748E+02  0.33998263358E+02  0.12700000000E+01 0. -1.
          4   -1    0    0  501    0  0.00000000000E+00 -0.00000000000E+00 -0.11491128248E+03  0.11491830029E+03  0.12700000000E+01 0. -1.
         25    2    1    2    0    0  0.00000000000E+00  0.00000000000E+00 -0.80936747731E+02  0.14891656365E+03  0.12500154317E+03 0.  0.
    9000005    1    3    3    0    0 -0.70649036886E+00 -0.60401976127E+02 -0.21390595556E+02  0.64089433036E+02  0.10000000000E+01 0.  0.
    9000005    1    3    3    0    0  0.70649036886E+00  0.60401976127E+02 -0.59546152175E+02  0.84827130610E+02  0.10000000000E+01 0.  0.
<mgrwt>
<rscale>  0 0.12500154E+03</rscale>
<asrwt>0</asrwt>
<pdfrwt beam="2">  1        4 0.28731663E-01 0.12500154E+03</pdfrwt>
<pdfrwt beam="1">  1       -4 0.84974772E-02 0.12500154E+03</pdfrwt>
<totfact> 0.18591514E+03</totfact>
</mgrwt>
</event>
<event>
 5    1  0.1435323E-002  0.1250004E+03  0.7818608E-02  0.1235069E+00
         -4   -1    0    0    0  501 -0.00000000000E+00  0.00000000000E+00  0.33214264469E+03  0.33214507271E+03  0.12700000000E+01 0.  1.
          4   -1    0    0  501    0  0.00000000000E+00 -0.00000000000E+00 -0.11724079606E+02  0.11792664780E+02  0.12700000000E+01 0.  1.
         25    2    1    2    0    0  0.00000000000E+00  0.00000000000E+00  0.32041856509E+03  0.34393773749E+03  0.12500044166E+03 0.  0.
    9000005    1    3    3    0    0  0.13152901768E+02 -0.35272962920E+02  0.22962578219E+02  0.44107377348E+02  0.10000000000E+01 0.  0.
    9000005    1    3    3    0    0 -0.13152901768E+02  0.35272962920E+02  0.29745598687E+03  0.29983036014E+03  0.10000000000E+01 0.  0.
<mgrwt>
<rscale>  0 0.12500044E+03</rscale>
<asrwt>0</asrwt>
<pdfrwt beam="2">  1        4 0.29398967E-02 0.12500044E+03</pdfrwt>
<pdfrwt beam="1">  1       -4 0.83044534E-01 0.12500044E+03</pdfrwt>
<totfact> 0.11823116E+03</totfact>
</mgrwt>
</event>
<event>
 5    1  0.1435323E-002  0.1249974E+03  0.7818608E-02  0.1235073E+00
          4   -1    0    0  501    0  0.00000000000E+00  0.00000000000E+00  0.65668329023E+02  0.65680608529E+02  0.12700000000E+01 0.  1.
         -4   -1    0    0    0  501 -0.00000000000E+00 -0.00000000000E+00 -0.59457465128E+02  0.59471027059E+02  0.12700000000E+01 0.  1.
         25    2    1    2    0    0  0.00000000000E+00  0.00000000000E+00  0.62108638956E+01  0.12515163559E+03  0.12499742821E+03 0.  0.
    9000005    1    3    3    0    0 -0.40977295790E+02  0.37354238719E+02 -0.25750451907E+02  0.61143795221E+02  0.10000000000E+01 0.  0.
    9000005    1    3    3    0    0  0.40977295790E+02 -0.37354238719E+02  0.31961315803E+02  0.64007840367E+02  0.10000000000E+01 0.  0.
<mgrwt>
<rscale>  0 0.12499743E+03</rscale>
<asrwt>0</asrwt>
<pdfrwt beam="1">  1        4 0.16420312E-01 0.12499743E+03</pdfrwt>
<pdfrwt beam="2">  1       -4 0.14867597E-01 0.12499743E+03</pdfrwt>
<totfact> 0.19828027E+03</totfact>
</mgrwt>
</event>
<event>
 5    1  0.1435323E-002  0.1250025E+03  0.7818608E-02  0.1235065E+00
         -4   -1    0    0    0  501 -0.00000000000E+00  0.00000000000E+00  0.48328834560E+02  0.48345518406E+02  0.12700000000E+01 0. -1.
          4   -1    0    0  501    0  0.00000000000E+00 -0.00000000000E+00 -0.80794064277E+02  0.80804045211E+02  0.12700000000E+01 0. -1.
         25    2    1    2    0    0  0.00000000000E+00  0.00000000000E+00 -0.32465229717E+02  0.12914956362E+03  0.12500247454E+03 0.  0.
    9000005    1    3    3    0    0  0.30312884891E+02 -0.45606218300E+01  0.40032661966E+02  0.50430985376E+02  0.10000000000E+01 0.  0.
    9000005    1    3    3    0    0 -0.30312884891E+02  0.45606218300E+01 -0.72497891683E+02  0.78718578241E+02  0.10000000000E+01 0.  0.
<mgrwt>
<rscale>  0 0.12500247E+03</rscale>
<asrwt>0</asrwt>
<pdfrwt beam="2">  1        4 0.20201849E-01 0.12500247E+03</pdfrwt>
<pdfrwt beam="1">  1       -4 0.12085542E-01 0.12500247E+03</pdfrwt>
<totfact> 0.19609079E+03</totfact>
</mgrwt>
</event>
<event>
 5    1  0.1435323E-002  0.1250009E+03  0.7818608E-02  0.1235068E+00
          4   -1    0    0  501    0  0.00000000000E+00  0.00000000000E+00  0.79073307060E+03  0.79073409048E+03  0.12700000000E+01 0.  1.
         -4   -1    0    0    0  501 -0.00000000000E+00 -0.00000000000E+00 -0.48574473297E+01  0.50207264973E+01  0.12700000000E+01 0.  1.
         25    2    1    2    0    0  0.00000000000E+00  0.00000000000E+00  0.78587562327E+03  0.79575481698E+03  0.12500093394E+03 0.  0.
    9000005    1    3    3    0    0 -0.18222251033E+01 -0.34804473635E+02  0.72315032869E+03  0.72399037961E+03  0.10000000000E+01 0.  0.
    9000005    1    3    3    0    0  0.18222251033E+01  0.34804473635E+02  0.62725294584E+02  0.71764437363E+02  0.10000000000E+01 0.  0.
<mgrwt>
<rscale>  0 0.12500093E+03</rscale>
<asrwt>0</asrwt>
<pdfrwt beam="1">  1        4 0.19770383E+00 0.12500093E+03</pdfrwt>
<pdfrwt beam="2">  1       -4 0.12348990E-02 0.12500093E+03</pdfrwt>
<totfact> 0.52853418E+02</totfact>
</mgrwt>
</event>
<event>
 5    1  0.1435323E-002  0.1250004E+03  0.7818608E-02  0.1235069E+00
         -4   -1    0    0    0  501 -0.00000000000E+00  0.00000000000E+00  0.34902697906E+03  0.34902928962E+03  0.12700000000E+01 0.  1.
          4   -1    0    0  501    0  0.00000000000E+00 -0.00000000000E+00 -0.11153521320E+02  0.11225592984E+02  0.12700000000E+01 0.  1.
         25    2    1    2    0    0  0.00000000000E+00  0.00000000000E+00  0.33787345774E+03  0.36025488260E+03  0.12500042797E+03 0.  0.
    9000005    1    3    3    0    0  0.58905826854E+02  0.78319942918E+01  0.22467551446E+03  0.23240336351E+03  0.10000000000E+01 0.  0.
    9000005    1    3    3    0    0 -0.58905826854E+02 -0.78319942918E+01  0.11319794328E+03  0.12785151909E+03  0.10000000000E+01 0.  0.
<mgrwt>
<rscale>  0 0.12500043E+03</rscale>
<asrwt>0</asrwt>
<pdfrwt beam="2">  1        4 0.27976781E-02 0.12500043E+03</pdfrwt>
<pdfrwt beam="1">  1       -4 0.87266041E-01 0.12500043E+03</pdfrwt>
<totfact> 0.11436389E+03</totfact>
</mgrwt>
</event>
<event>
 5    1  0.1435323E-002  0.1249947E+03  0.7818608E-02  0.1235078E+00
          4   -1    0    0  501    0  0.00000000000E+00  0.00000000000E+00  0.10053320508E+02  0.10133220280E+02  0.12700000000E+01 0.  1.
         -4   -1    0    0    0  501 -0.00000000000E+00 -0.00000000000E+00 -0.38690128644E+03  0.38690337082E+03  0.12700000000E+01 0.  1.
         25    2    1    2    0    0  0.00000000000E+00  0.00000000000E+00 -0.37684796593E+03  0.39703659110E+03  0.12499466086E+03 0.  0.
    9000005    1    3    3    0    0  0.34069437033E+02  0.31088235232E+02 -0.32235146376E+03  0.32563579517E+03  0.10000000000E+01 0.  0.
    9000005    1    3    3    0    0 -0.34069437033E+02 -0.31088235232E+02 -0.54496502173E+02  0.71400795925E+02  0.10000000000E+01 0.  0.
<mgrwt>
<rscale>  0 0.12499466E+03</rscale>
<asrwt>0</asrwt>
<pdfrwt beam="1">  1        4 0.25235794E-02 0.12499466E+03</pdfrwt>
<pdfrwt beam="2">  1       -4 0.96735520E-01 0.12499466E+03</pdfrwt>
<totfact> 0.10631793E+03</totfact>
</mgrwt>
</event>
<event>
 5    1  0.1435323E-002  0.1249948E+03  0.7818608E-02  0.1235077E+00
         -4   -1    0    0    0  501 -0.00000000000E+00  0.00000000000E+00  0.51524817189E+01  0.53066908581E+01  0.12700000000E+01 0. -1.
          4   -1    0    0  501    0  0.00000000000E+00 -0.00000000000E+00 -0.74673498976E+03  0.74673606973E+03  0.12700000000E+01 0. -1.
         25    2    1    2    0    0  0.00000000000E+00  0.00000000000E+00 -0.74158250804E+03  0.75204276058E+03  0.12499478996E+03 0.  0.
    9000005    1    3    3    0    0 -0.20694046980E+02 -0.23909750839E+02 -0.46508362301E+02  0.56248978031E+02  0.10000000000E+01 0.  0.
    9000005    1    3    3    0    0  0.20694046980E+02  0.23909750839E+02 -0.69507414574E+03  0.69579378255E+03  0.10000000000E+01 0.  0.
<mgrwt>
<rscale>  0 0.12499479E+03</rscale>
<asrwt>0</asrwt>
<pdfrwt beam="2">  1        4 0.18670279E+00 0.12499479E+03</pdfrwt>
<pdfrwt beam="1">  1       -4 0.13075341E-02 0.12499479E+03</pdfrwt>
<totfact> 0.56882354E+02</totfact>
</mgrwt>
</event>
<event>
 5    1  0.1435323E-002  0.1249979E+03  0.7818608E-02  0.1235073E+00
          4   -1    0    0  501    0  0.00000000000E+00  0.00000000000E+00  0.21539040807E+02  0.21576449636E+02  0.12700000000E+01 0.  1.
         -4   -1    0    0    0  501 -0.00000000000E+00 -0.00000000000E+00 -0.18115361952E+03  0.18115807121E+03  0.12700000000E+01 0.  1.
         25    2    1    2    0    0  0.00000000000E+00  0.00000000000E+00 -0.15961457871E+03  0.20273452084E+03  0.12499788880E+03 0.  0.
    9000005    1    3    3    0    0  0.33910334623E+02  0.52490067772E+02 -0.79796734372E+02  0.10135895040E+03  0.10000000000E+01 0.  0.
    9000005    1    3    3    0    0 -0.33910334623E+02 -0.52490067772E+02 -0.79817844337E+02  0.10137557045E+03  0.10000000000E+01 0.  0.
<mgrwt>
<rscale>  0 0.12499789E+03</rscale>
<asrwt>0</asrwt>
<pdfrwt beam="1">  1        4 0.53899933E-02 0.12499789E+03</pdfrwt>
<pdfrwt beam="2">  1       -4 0.45293633E-01 0.12499789E+03</pdfrwt>
<totfact> 0.16213921E+03</totfact>
</mgrwt>
</event>
<event>
 5    1  0.1435323E-002  0.1250006E+03  0.7818608E-02  0.1235068E+00
          4   -1    0    0  501    0  0.00000000000E+00  0.00000000000E+00  0.45147178256E+02  0.45165037412E+02  0.12700000000E+01 0. -1.
         -4   -1    0    0    0  501 -0.00000000000E+00 -0.00000000000E+00 -0.86483716306E+02  0.86493040681E+02  0.12700000000E+01 0. -1.
         25    2    1    2    0    0  0.00000000000E+00  0.00000000000E+00 -0.41336538051E+02  0.13165807809E+03  0.12500056060E+03 0.  0.
    9000005    1    3    3    0    0 -0.18211042770E+02  0.59524999590E+02 -0.14859334664E+02  0.64005214487E+02  0.10000000000E+01 0.  0.
    9000005    1    3    3    0    0  0.18211042770E+02 -0.59524999590E+02 -0.26477203386E+02  0.67652863606E+02  0.10000000000E+01 0.  0.
<mgrwt>
<rscale>  0 0.12500056E+03</rscale>
<asrwt>0</asrwt>
<pdfrwt beam="1">  1        4 0.11290193E-01 0.12500056E+03</pdfrwt>
<pdfrwt beam="2">  1       -4 0.21624327E-01 0.12500056E+03</pdfrwt>
<totfact> 0.19475399E+03</totfact>
</mgrwt>
</event>
<event>
 5    1  0.1435323E-002  0.1249999E+03  0.7818608E-02  0.1235069E+00
          4   -1    0    0  501    0  0.00000000000E+00  0.00000000000E+00  0.13704172631E+04  0.13704178516E+04  0.12700000000E+01 0. -1.
         -4   -1    0    0    0  501 -0.00000000000E+00 -0.00000000000E+00 -0.27083234267E+01  0.29913067017E+01  0.12700000000E+01 0. -1.
         25    2    1    2    0    0  0.00000000000E+00  0.00000000000E+00  0.13677089397E+04  0.13734091583E+04  0.12499988945E+03 0.  0.
    9000005    1    3    3    0    0 -0.59180788940E+02  0.23493171121E+01  0.90287322274E+03  0.90481431322E+03  0.10000000000E+01 0.  0.
    9000005    1    3    3    0    0  0.59180788940E+02 -0.23493171121E+01  0.46483571694E+03  0.46859484505E+03  0.10000000000E+01 0.  0.
<mgrwt>
<rscale>  0 0.12499989E+03</rscale>
<asrwt>0</asrwt>
<pdfrwt beam="1">  1        4 0.34263966E+00 0.12499989E+03</pdfrwt>
<pdfrwt beam="2">  1       -4 0.71252753E-03 0.12499989E+03</pdfrwt>
<totfact> 0.17150061E+02</totfact>
</mgrwt>
</event>
<event>
 5    1  0.1435323E-002  0.1249979E+03  0.7818608E-02  0.1235073E+00
          4   -1    0    0  501    0  0.00000000000E+00  0.00000000000E+00  0.42721698090E+02  0.42740570746E+02  0.12700000000E+01 0. -1.
         -4   -1    0    0    0  501 -0.00000000000E+00 -0.00000000000E+00 -0.91388219028E+02  0.91397043043E+02  0.12700000000E+01 0. -1.
         25    2    1    2    0    0  0.00000000000E+00  0.00000000000E+00 -0.48666520938E+02  0.13413761379E+03  0.12499787667E+03 0.  0.
    9000005    1    3    3    0    0  0.10324097482E+02  0.60557848885E+02 -0.12037860412E+02  0.62607907916E+02  0.10000000000E+01 0.  0.
    9000005    1    3    3    0    0 -0.10324097482E+02 -0.60557848885E+02 -0.36628660526E+02  0.71529705873E+02  0.10000000000E+01 0.  0.
<mgrwt>
<rscale>  0 0.12499788E+03</rscale>
<asrwt>0</asrwt>
<pdfrwt beam="1">  1        4 0.10683887E-01 0.12499788E+03</pdfrwt>
<pdfrwt beam="2">  1       -4 0.22850517E-01 0.12499788E+03</pdfrwt>
<totfact> 0.19345362E+03</totfact>
</mgrwt>
</event>
<event>
 5    1  0.1435323E-002  0.1250096E+03  0.7818608E-02  0.1235054E+00
          4   -1    0    0  501    0  0.00000000000E+00  0.00000000000E+00  0.13615817058E+03  0.13616409334E+03  0.12700000000E+01 0. -1.
         -4   -1    0    0    0  501 -0.00000000000E+00 -0.00000000000E+00 -0.28672857214E+02  0.28700969336E+02  0.12700000000E+01 0. -1.
         25    2    1    2    0    0  0.00000000000E+00  0.00000000000E+00  0.10748531336E+03  0.16486506268E+03  0.12500958484E+03 0.  0.
    9000005    1    3    3    0    0 -0.60407482632E+02  0.64098198972E+01  0.34373544536E+02  0.69804658247E+02  0.10000000000E+01 0.  0.
    9000005    1    3    3    0    0  0.60407482632E+02 -0.64098198972E+01  0.73111768828E+02  0.95060404429E+02  0.10000000000E+01 0.  0.
<mgrwt>
<rscale>  0 0.12500958E+03</rscale>
<asrwt>0</asrwt>
<pdfrwt beam="1">  1        4 0.34043797E-01 0.12500958E+03</pdfrwt>
<pdfrwt beam="2">  1       -4 0.71724687E-02 0.12500958E+03</pdfrwt>
<totfact> 0.17827203E+03</totfact>
</mgrwt>
</event>
<event>
 5    1  0.1435323E-002  0.1249983E+03  0.7818608E-02  0.1235072E+00
          4   -1    0    0  501    0  0.00000000000E+00  0.00000000000E+00  0.35004679248E+02  0.35027710020E+02  0.12700000000E+01 0.  1.
         -4   -1    0    0    0  501 -0.00000000000E+00 -0.00000000000E+00 -0.11152586987E+03  0.11153310070E+03  0.12700000000E+01 0.  1.
         25    2    1    2    0    0  0.00000000000E+00  0.00000000000E+00 -0.76521190625E+02  0.14656081072E+03  0.12499831448E+03 0.  0.
    9000005    1    3    3    0    0  0.19518273232E+02  0.57960399533E+01 -0.10753343194E+03  0.10944860005E+03  0.10000000000E+01 0.  0.
    9000005    1    3    3    0    0 -0.19518273232E+02 -0.57960399533E+01  0.31012241313E+02  0.37112210664E+02  0.10000000000E+01 0.  0.
<mgrwt>
<rscale>  0 0.12499831E+03</rscale>
<asrwt>0</asrwt>
<pdfrwt beam="1">  1        4 0.87549528E-02 0.12499831E+03</pdfrwt>
<pdfrwt beam="2">  1       -4 0.27885249E-01 0.12499831E+03</pdfrwt>
<totfact> 0.18709923E+03</totfact>
</mgrwt>
</event>
<event>
 5    1  0.1435323E-002  0.1249993E+03  0.7818608E-02  0.1235070E+00
         -4   -1    0    0    0  501 -0.00000000000E+00  0.00000000000E+00  0.58377221340E+01  0.59742698059E+01  0.12700000000E+01 0.  1.
          4   -1    0    0  501    0  0.00000000000E+00 -0.00000000000E+00 -0.66125970692E+03  0.66126092649E+03  0.12700000000E+01 0.  1.
         25    2    1    2    0    0  0.00000000000E+00  0.00000000000E+00 -0.65542198479E+03  0.66723519629E+03  0.12499931611E+03 0.  0.
    9000005    1    3    3    0    0 -0.55369653250E+02 -0.28929475775E+02 -0.31928083161E+03  0.32533669099E+03  0.10000000000E+01 0.  0.
    9000005    1    3    3    0    0  0.55369653250E+02  0.28929475775E+02 -0.33614115317E+03  0.34189850530E+03  0.10000000000E+01 0.  0.
<mgrwt>
<rscale>  0 0.12499932E+03</rscale>
<asrwt>0</asrwt>
<pdfrwt beam="2">  1        4 0.16533190E+00 0.12499932E+03</pdfrwt>
<pdfrwt beam="1">  1       -4 0.14766537E-02 0.12499932E+03</pdfrwt>
<totfact> 0.65574028E+02</totfact>
</mgrwt>
</event>
<event>
 5    1  0.1435323E-002  0.1249795E+03  0.7818608E-02  0.1235101E+00
         -4   -1    0    0    0  501 -0.00000000000E+00  0.00000000000E+00  0.92175112658E+02  0.92183861350E+02  0.12700000000E+01 0.  1.
          4   -1    0    0  501    0  0.00000000000E+00 -0.00000000000E+00 -0.42344367558E+02  0.42363408312E+02  0.12700000000E+01 0.  1.
         25    2    1    2    0    0  0.00000000000E+00  0.00000000000E+00  0.49830745100E+02  0.13454726966E+03  0.12497945678E+03 0.  0.
    9000005    1    3    3    0    0 -0.27623297664E+02 -0.44602083142E+02  0.61448103343E+02  0.80803847674E+02  0.10000000000E+01 0.  0.
    9000005    1    3    3    0    0  0.27623297664E+02  0.44602083142E+02 -0.11617358243E+02  0.53743421988E+02  0.10000000000E+01 0.  0.
<mgrwt>
<rscale>  0 0.12497946E+03</rscale>
<asrwt>0</asrwt>
<pdfrwt beam="2">  1        4 0.10589566E-01 0.12497946E+03</pdfrwt>
<pdfrwt beam="1">  1       -4 0.23047252E-01 0.12497946E+03</pdfrwt>
<totfact> 0.19332142E+03</totfact>
</mgrwt>
</event>
<event>
 5    1  0.1435323E-002  0.1250005E+03  0.7818608E-02  0.1235069E+00
          4   -1    0    0  501    0  0.00000000000E+00  0.00000000000E+00  0.31708479518E+03  0.31708733849E+03  0.12700000000E+01 0. -1.
         -4   -1    0    0    0  501 -0.00000000000E+00 -0.00000000000E+00 -0.12284019224E+02  0.12349495062E+02  0.12700000000E+01 0. -1.
         25    2    1    2    0    0  0.00000000000E+00  0.00000000000E+00  0.30480077595E+03  0.32943683356E+03  0.12500045712E+03 0.  0.
    9000005    1    3    3    0    0  0.46746226853E+02 -0.20280681438E+02  0.57056902189E+02  0.76504940050E+02  0.10000000000E+01 0.  0.
    9000005    1    3    3    0    0 -0.46746226853E+02  0.20280681438E+02  0.24774387376E+03  0.25293189351E+03  0.10000000000E+01 0.  0.
<mgrwt>
<rscale>  0 0.12500046E+03</rscale>
<asrwt>0</asrwt>
<pdfrwt beam="1">  1        4 0.79279701E-01 0.12500046E+03</pdfrwt>
<pdfrwt beam="2">  1       -4 0.30795072E-02 0.12500046E+03</pdfrwt>
<totfact> 0.12184246E+03</totfact>
</mgrwt>
</event>
<event>
 5    1  0.1435323E-002  0.1250155E+03  0.7818608E-02  0.1235045E+00
          4   -1    0    0  501    0  0.00000000000E+00  0.00000000000E+00  0.10649137380E+03  0.10649894645E+03  0.12700000000E+01 0.  1.
         -4   -1    0    0    0  501 -0.00000000000E+00 -0.00000000000E+00 -0.36670624227E+02  0.36692609354E+02  0.12700000000E+01 0.  1.
         25    2    1    2    0    0  0.00000000000E+00  0.00000000000E+00  0.69820749575E+02  0.14319155580E+03  0.12501553736E+03 0.  0.
    9000005    1    3    3    0    0  0.18979039057E+02  0.17572106435E+02  0.10007932882E+03  0.10337240882E+03  0.10000000000E+01 0.  0.
    9000005    1    3    3    0    0 -0.18979039057E+02 -0.17572106435E+02 -0.30258579247E+02  0.39819146979E+02  0.10000000000E+01 0.  0.
<mgrwt>
<rscale>  0 0.12501554E+03</rscale>
<asrwt>0</asrwt>
<pdfrwt beam="1">  1        4 0.26626538E-01 0.12501554E+03</pdfrwt>
<pdfrwt beam="2">  1       -4 0.91713509E-02 0.12501554E+03</pdfrwt>
<totfact> 0.18871405E+03</totfact>
</mgrwt>
</event>
<event>
 5    1  0.1435323E-002  0.1250042E+03  0.7818608E-02  0.1235063E+00
         -4   -1    0    0    0  501 -0.00000000000E+00  0.00000000000E+00  0.17635432171E+03  0.17635889455E+03  0.12700000000E+01 0.  1.
          4   -1    0    0  501    0  0.00000000000E+00 -0.00000000000E+00 -0.22128430414E+02  0.22164844520E+02  0.12700000000E+01 0.  1.
         25    2    1    2    0    0  0.00000000000E+00  0.00000000000E+00  0.15422589130E+03  0.19852373907E+03  0.12500419764E+03 0.  0.
    9000005    1    3    3    0    0 -0.11412945676E+02  0.34572366204E+02  0.15778041258E+03  0.16192949833E+03  0.10000000000E+01 0.  0.
    9000005    1    3    3    0    0  0.11412945676E+02 -0.34572366204E+02 -0.35545212833E+01  0.36594240742E+02  0.10000000000E+01 0.  0.
<mgrwt>
<rscale>  0 0.12500420E+03</rscale>
<asrwt>0</asrwt>
<pdfrwt beam="2">  1        4 0.55372311E-02 0.12500420E+03</pdfrwt>
<pdfrwt beam="1">  1       -4 0.44093703E-01 0.12500420E+03</pdfrwt>
<totfact> 0.16379734E+03</totfact>
</mgrwt>
</event>
<event>
 5    1  0.1435323E-002  0.1249979E+03  0.7818608E-02  0.1235073E+00
         -4   -1    0    0    0  501 -0.00000000000E+00  0.00000000000E+00  0.74372799276E+02  0.74383641832E+02  0.12700000000E+01 0.  1.
          4   -1    0    0  501    0  0.00000000000E+00 -0.00000000000E+00 -0.52498468196E+02  0.52513827350E+02  0.12700000000E+01 0.  1.
         25    2    1    2    0    0  0.00000000000E+00  0.00000000000E+00  0.21874331080E+02  0.12689746918E+03  0.12499792528E+03 0.  0.
    9000005    1    3    3    0    0  0.11991723605E+02 -0.48807384676E+02  0.48638539956E+02  0.69947621854E+02  0.10000000000E+01 0.  0.
    9000005    1    3    3    0    0 -0.11991723605E+02  0.48807384676E+02 -0.26764208876E+02  0.56949847328E+02  0.10000000000E+01 0.  0.
<mgrwt>
<rscale>  0 0.12499793E+03</rscale>
<asrwt>0</asrwt>
<pdfrwt beam="2">  1        4 0.13127892E-01 0.12499793E+03</pdfrwt>
<pdfrwt beam="1">  1       -4 0.18596475E-01 0.12499793E+03</pdfrwt>
<totfact> 0.19733457E+03</totfact>
</mgrwt>
</event>
<event>
 5    1  0.1435323E-002  0.1250581E+03  0.7818608E-02  0.1234978E+00
          4   -1    0    0  501    0  0.00000000000E+00  0.00000000000E+00  0.21249644467E+02  0.21287561860E+02  0.12700000000E+01 0.  1.
         -4   -1    0    0    0  501 -0.00000000000E+00 -0.00000000000E+00 -0.18379354452E+03  0.18379793227E+03  0.12700000000E+01 0.  1.
         25    2    1    2    0    0  0.00000000000E+00  0.00000000000E+00 -0.16254390005E+03  0.20508549413E+03  0.12505814831E+03 0.  0.
    9000005    1    3    3    0    0 -0.47096434245E+02  0.33579524514E+02 -0.12019120347E+03  0.13338884502E+03  0.10000000000E+01 0.  0.
    9000005    1    3    3    0    0  0.47096434245E+02 -0.33579524514E+02 -0.42352696581E+02  0.71696649105E+02  0.10000000000E+01 0.  0.
<mgrwt>
<rscale>  0 0.12505815E+03</rscale>
<asrwt>0</asrwt>
<pdfrwt beam="1">  1        4 0.53176998E-02 0.12505815E+03</pdfrwt>
<pdfrwt beam="2">  1       -4 0.45953669E-01 0.12505815E+03</pdfrwt>
<totfact> 0.16098773E+03</totfact>
</mgrwt>
</event>
<event>
 5    1  0.1435323E-002  0.1250005E+03  0.7818608E-02  0.1235069E+00
          4   -1    0    0  501    0  0.00000000000E+00  0.00000000000E+00  0.41344972000E+02  0.41364472796E+02  0.12700000000E+01 0.  1.
         -4   -1    0    0    0  501 -0.00000000000E+00 -0.00000000000E+00 -0.94434108513E+02  0.94442647944E+02  0.12700000000E+01 0.  1.
         25    2    1    2    0    0  0.00000000000E+00  0.00000000000E+00 -0.53089136513E+02  0.13580712074E+03  0.12500047051E+03 0.  0.
    9000005    1    3    3    0    0  0.54231604295E+02  0.22382900995E+02 -0.49927756333E+02  0.77044415850E+02  0.10000000000E+01 0.  0.
    9000005    1    3    3    0    0 -0.54231604295E+02 -0.22382900995E+02 -0.31613801800E+01  0.58762704890E+02  0.10000000000E+01 0.  0.
<mgrwt>
<rscale>  0 0.12500047E+03</rscale>
<asrwt>0</asrwt>
<pdfrwt beam="1">  1        4 0.10339748E-01 0.12500047E+03</pdfrwt>
<pdfrwt beam="2">  1       -4 0.23612032E-01 0.12500047E+03</pdfrwt>
<totfact> 0.19256733E+03</totfact>
</mgrwt>
</event>
<event>
 5    1  0.1435323E-002  0.1250121E+03  0.7818608E-02  0.1235050E+00
          4   -1    0    0  501    0  0.00000000000E+00  0.00000000000E+00  0.73246626216E+02  0.73257635452E+02  0.12700000000E+01 0.  1.
         -4   -1    0    0    0  501 -0.00000000000E+00 -0.00000000000E+00 -0.53317822170E+02  0.53332945362E+02  0.12700000000E+01 0.  1.
         25    2    1    2    0    0  0.00000000000E+00  0.00000000000E+00  0.19928804046E+02  0.12659058081E+03  0.12501207110E+03 0.  0.
    9000005    1    3    3    0    0 -0.14053714223E+02 -0.64026827802E+01  0.71288998033E+02  0.72949451477E+02  0.10000000000E+01 0.  0.
    9000005    1    3    3    0    0  0.14053714223E+02  0.64026827802E+01 -0.51360193987E+02  0.53641129338E+02  0.10000000000E+01 0.  0.
<mgrwt>
<rscale>  0 0.12501207E+03</rscale>
<asrwt>0</asrwt>
<pdfrwt beam="1">  1        4 0.18314923E-01 0.12501207E+03</pdfrwt>
<pdfrwt beam="2">  1       -4 0.13332722E-01 0.12501207E+03</pdfrwt>
<totfact> 0.19743465E+03</totfact>
</mgrwt>
</event>
<event>
 5    1  0.1435323E-002  0.1250011E+03  0.7818608E-02  0.1235068E+00
         -4   -1    0    0    0  501 -0.00000000000E+00  0.00000000000E+00  0.39370523626E+02  0.39391001899E+02  0.12700000000E+01 0. -1.
          4   -1    0    0  501    0  0.00000000000E+00 -0.00000000000E+00 -0.99169066710E+02  0.99177198449E+02  0.12700000000E+01 0. -1.
         25    2    1    2    0    0  0.00000000000E+00  0.00000000000E+00 -0.59798543084E+02  0.13856820035E+03  0.12500112157E+03 0.  0.
    9000005    1    3    3    0    0  0.27092357362E+02 -0.21158405090E+02  0.27953612004E+02  0.44317923659E+02  0.10000000000E+01 0.  0.
    9000005    1    3    3    0    0 -0.27092357362E+02  0.21158405090E+02 -0.87752155088E+02  0.94250276689E+02  0.10000000000E+01 0.  0.
<mgrwt>
<rscale>  0 0.12500112E+03</rscale>
<asrwt>0</asrwt>
<pdfrwt beam="2">  1        4 0.24795842E-01 0.12500112E+03</pdfrwt>
<pdfrwt beam="1">  1       -4 0.98462073E-02 0.12500112E+03</pdfrwt>
<totfact> 0.19113332E+03</totfact>
</mgrwt>
</event>
<event>
 5    1  0.1435323E-002  0.1249962E+03  0.7818608E-02  0.1235075E+00
          4   -1    0    0  501    0  0.00000000000E+00  0.00000000000E+00  0.19874810844E+03  0.19875216604E+03  0.12700000000E+01 0. -1.
         -4   -1    0    0    0  501 -0.00000000000E+00 -0.00000000000E+00 -0.19628310531E+02  0.19669353683E+02  0.12700000000E+01 0. -1.
         25    2    1    2    0    0  0.00000000000E+00  0.00000000000E+00  0.17911979790E+03  0.21842151973E+03  0.12499623305E+03 0.  0.
    9000005    1    3    3    0    0  0.40513828681E+01  0.57732767450E+02  0.48373706577E+02  0.75435413624E+02  0.10000000000E+01 0.  0.
    9000005    1    3    3    0    0 -0.40513828681E+01 -0.57732767450E+02  0.13074609133E+03  0.14298610610E+03  0.10000000000E+01 0.  0.
<mgrwt>
<rscale>  0 0.12499623E+03</rscale>
<asrwt>0</asrwt>
<pdfrwt beam="1">  1        4 0.49692664E-01 0.12499623E+03</pdfrwt>
<pdfrwt beam="2">  1       -4 0.49127153E-02 0.12499623E+03</pdfrwt>
<totfact> 0.15611412E+03</totfact>
</mgrwt>
</event>
<event>
 5    1  0.1435323E-002  0.1250056E+03  0.7818608E-02  0.1235061E+00
         -4   -1    0    0    0  501 -0.00000000000E+00  0.00000000000E+00  0.39640917536E+01  0.41625621233E+01  0.12700000000E+01 0.  1.
          4   -1    0    0  501    0  0.00000000000E+00 -0.00000000000E+00 -0.96123019862E+03  0.96123103760E+03  0.12700000000E+01 0.  1.
         25    2    1    2    0    0  0.00000000000E+00  0.00000000000E+00 -0.95726610687E+03  0.96539359972E+03  0.12500561197E+03 0.  0.
    9000005    1    3    3    0    0 -0.30107692928E+02 -0.43727283023E+02 -0.22400859122E+03  0.23021597988E+03  0.10000000000E+01 0.  0.
    9000005    1    3    3    0    0  0.30107692928E+02  0.43727283023E+02 -0.73325751565E+03  0.73517761984E+03  0.10000000000E+01 0.  0.
<mgrwt>
<rscale>  0 0.12500561E+03</rscale>
<asrwt>0</asrwt>
<pdfrwt beam="2">  1        4 0.24033169E+00 0.12500561E+03</pdfrwt>
<pdfrwt beam="1">  1       -4 0.10159399E-02 0.12500561E+03</pdfrwt>
<totfact> 0.39481078E+02</totfact>
</mgrwt>
</event>
<event>
 5    1  0.1435323E-002  0.1249693E+03  0.7818608E-02  0.1235117E+00
          4   -1    0    0  501    0  0.00000000000E+00  0.00000000000E+00  0.93495969283E+02  0.93504594391E+02  0.12700000000E+01 0.  1.
         -4   -1    0    0    0  501 -0.00000000000E+00 -0.00000000000E+00 -0.41739117907E+02  0.41758434641E+02  0.12700000000E+01 0.  1.
         25    2    1    2    0    0  0.00000000000E+00  0.00000000000E+00  0.51756851376E+02  0.13526302903E+03  0.12496925765E+03 0.  0.
    9000005    1    3    3    0    0 -0.35221454738E+02  0.46400481676E+02  0.14404939900E+01  0.58280619390E+02  0.10000000000E+01 0.  0.
    9000005    1    3    3    0    0  0.35221454738E+02 -0.46400481676E+02  0.50316357386E+02  0.76982409641E+02  0.10000000000E+01 0.  0.
<mgrwt>
<rscale>  0 0.12496926E+03</rscale>
<asrwt>0</asrwt>
<pdfrwt beam="1">  1        4 0.23377485E-01 0.12496926E+03</pdfrwt>
<pdfrwt beam="2">  1       -4 0.10438272E-01 0.12496926E+03</pdfrwt>
<totfact> 0.19299208E+03</totfact>
</mgrwt>
</event>
<event>
 5    1  0.1435323E-002  0.1249923E+03  0.7818608E-02  0.1235081E+00
         -4   -1    0    0    0  501 -0.00000000000E+00  0.00000000000E+00  0.24235286250E+02  0.24268539297E+02  0.12700000000E+01 0. -1.
          4   -1    0    0  501    0  0.00000000000E+00 -0.00000000000E+00 -0.16101423084E+03  0.16101923933E+03  0.12700000000E+01 0. -1.
         25    2    1    2    0    0  0.00000000000E+00  0.00000000000E+00 -0.13677894459E+03  0.18528777862E+03  0.12499232466E+03 0.  0.
    9000005    1    3    3    0    0  0.45870047960E+02 -0.37496035020E+02 -0.38936576601E+02  0.70901840170E+02  0.10000000000E+01 0.  0.
    9000005    1    3    3    0    0 -0.45870047960E+02  0.37496035020E+02 -0.97842367990E+02  0.11438593845E+03  0.10000000000E+01 0.  0.
<mgrwt>
<rscale>  0 0.12499232E+03</rscale>
<asrwt>0</asrwt>
<pdfrwt beam="2">  1        4 0.40258337E-01 0.12499232E+03</pdfrwt>
<pdfrwt beam="1">  1       -4 0.60636047E-02 0.12499232E+03</pdfrwt>
<totfact> 0.16931611E+03</totfact>
</mgrwt>
</event>
<event>
 5    1  0.1435323E-002  0.1249973E+03  0.7818608E-02  0.1235074E+00
          4   -1    0    0  501    0  0.00000000000E+00  0.00000000000E+00  0.93031067582E+02  0.93039735788E+02  0.12700000000E+01 0.  1.
         -4   -1    0    0    0  501 -0.00000000000E+00 -0.00000000000E+00 -0.41966610389E+02  0.41985822459E+02  0.12700000000E+01 0.  1.
         25    2    1    2    0    0  0.00000000000E+00  0.00000000000E+00  0.51064457194E+02  0.13502555825E+03  0.12499729034E+03 0.  0.
    9000005    1    3    3    0    0  0.48754401657E+02  0.17757050825E+02  0.63151094622E+02  0.81739618832E+02  0.10000000000E+01 0.  0.
    9000005    1    3    3    0    0 -0.48754401657E+02 -0.17757050825E+02 -0.12086637428E+02  0.53285939414E+02  0.10000000000E+01 0.  0.
<mgrwt>
<rscale>  0 0.12499729E+03</rscale>
<asrwt>0</asrwt>
<pdfrwt beam="1">  1        4 0.23261252E-01 0.12499729E+03</pdfrwt>
<pdfrwt beam="2">  1       -4 0.10495138E-01 0.12499729E+03</pdfrwt>
<totfact> 0.19299019E+03</totfact>
</mgrwt>
</event>
<event>
 5    1  0.1435323E-002  0.1250035E+03  0.7818608E-02  0.1235064E+00
         -4   -1    0    0    0  501 -0.00000000000E+00  0.00000000000E+00  0.23678798788E+01  0.26869602007E+01  0.12700000000E+01 0. -1.
          4   -1    0    0  501    0  0.00000000000E+00 -0.00000000000E+00 -0.15453145778E+04  0.15453150997E+04  0.12700000000E+01 0. -1.
         25    2    1    2    0    0  0.00000000000E+00  0.00000000000E+00 -0.15429466979E+04  0.15480020599E+04  0.12500345888E+03 0.  0.
    9000005    1    3    3    0    0  0.29102595118E+02  0.51389772312E+01 -0.89572891819E+02  0.94327477854E+02  0.10000000000E+01 0.  0.
    9000005    1    3    3    0    0 -0.29102595118E+02 -0.51389772312E+01 -0.14533738061E+04  0.14536745820E+04  0.10000000000E+01 0.  0.
<mgrwt>
<rscale>  0 0.12500346E+03</rscale>
<asrwt>0</asrwt>
<pdfrwt beam="2">  1        4 0.38636535E+00 0.12500346E+03</pdfrwt>
<pdfrwt beam="1">  1       -4 0.63192554E-03 0.12500346E+03</pdfrwt>
<totfact> 0.10983109E+02</totfact>
</mgrwt>
</event>
<event>
 5    1  0.1435323E-002  0.1249989E+03  0.7818608E-02  0.1235071E+00
         -4   -1    0    0    0  501 -0.00000000000E+00  0.00000000000E+00  0.96313442897E+03  0.96313526629E+03  0.12700000000E+01 0. -1.
          4   -1    0    0  501    0  0.00000000000E+00 -0.00000000000E+00 -0.39554153650E+01  0.41543002671E+01  0.12700000000E+01 0. -1.
         25    2    1    2    0    0  0.00000000000E+00  0.00000000000E+00  0.95917901361E+03  0.96728956656E+03  0.12499890170E+03 0.  0.
    9000005    1    3    3    0    0 -0.38638401831E+02  0.41288828708E+02  0.68542004508E+03  0.68774946868E+03  0.10000000000E+01 0.  0.
    9000005    1    3    3    0    0  0.38638401831E+02 -0.41288828708E+02  0.27375896853E+03  0.27954009788E+03  0.10000000000E+01 0.  0.
<mgrwt>
<rscale>  0 0.12499890E+03</rscale>
<asrwt>0</asrwt>
<pdfrwt beam="2">  1        4 0.10138191E-02 0.12499890E+03</pdfrwt>
<pdfrwt beam="1">  1       -4 0.24080857E+00 0.12499890E+03</pdfrwt>
<totfact> 0.39353969E+02</totfact>
</mgrwt>
</event>
<event>
 5    1  0.1435323E-002  0.1250035E+03  0.7818608E-02  0.1235064E+00
          4   -1    0    0  501    0  0.00000000000E+00  0.00000000000E+00  0.38585446175E+03  0.38585655178E+03  0.12700000000E+01 0.  1.
         -4   -1    0    0    0  501 -0.00000000000E+00 -0.00000000000E+00 -0.10082248640E+02  0.10161920963E+02  0.12700000000E+01 0.  1.
         25    2    1    2    0    0  0.00000000000E+00  0.00000000000E+00  0.37577221311E+03  0.39601847274E+03  0.12500349839E+03 0.  0.
    9000005    1    3    3    0    0  0.55558357508E+02 -0.20475291836E+02  0.25120767478E+03  0.25809351897E+03  0.10000000000E+01 0.  0.
    9000005    1    3    3    0    0 -0.55558357508E+02  0.20475291836E+02  0.12456453833E+03  0.13792495378E+03  0.10000000000E+01 0.  0.
<mgrwt>
<rscale>  0 0.12500350E+03</rscale>
<asrwt>0</asrwt>
<pdfrwt beam="1">  1        4 0.96473832E-01 0.12500350E+03</pdfrwt>
<pdfrwt beam="2">  1       -4 0.25307825E-02 0.12500350E+03</pdfrwt>
<totfact> 0.10650826E+03</totfact>
</mgrwt>
</event>
<event>
 5    1  0.1435323E-002  0.1249982E+03  0.7818608E-02  0.1235072E+00
          4   -1    0    0  501    0  0.00000000000E+00  0.00000000000E+00  0.43846480955E+03  0.43846664881E+03  0.12700000000E+01 0. -1.
         -4   -1    0    0    0  501 -0.00000000000E+00 -0.00000000000E+00 -0.88615336215E+01  0.89520767493E+01  0.12700000000E+01 0. -1.
         25    2    1    2    0    0  0.00000000000E+00  0.00000000000E+00  0.42960327593E+03  0.44741872556E+03  0.12499816514E+03 0.  0.
    9000005    1    3    3    0    0  0.10911373716E+02 -0.81106174109E+01  0.43312449969E+03  0.43333898096E+03  0.10000000000E+01 0.  0.
    9000005    1    3    3    0    0 -0.10911373716E+02  0.81106174109E+01 -0.35212237554E+01  0.14079744596E+02  0.10000000000E+01 0.  0.
<mgrwt>
<rscale>  0 0.12499817E+03</rscale>
<asrwt>0</asrwt>
<pdfrwt beam="1">  1        4 0.10962774E+00 0.12499817E+03</pdfrwt>
<pdfrwt beam="2">  1       -4 0.22269314E-02 0.12499817E+03</pdfrwt>
<totfact> 0.96486278E+02</totfact>
</mgrwt>
</event>
<event>
 5    1  0.1435323E-002  0.1250073E+03  0.7818608E-02  0.1235058E+00
          4   -1    0    0  501    0  0.00000000000E+00  0.00000000000E+00  0.30495564188E+02  0.30521997562E+02  0.12700000000E+01 0.  1.
         -4   -1    0    0    0  501 -0.00000000000E+00 -0.00000000000E+00 -0.12802228434E+03  0.12802858348E+03  0.12700000000E+01 0.  1.
         25    2    1    2    0    0  0.00000000000E+00  0.00000000000E+00 -0.97526720155E+02  0.15855058104E+03  0.12500730221E+03 0.  0.
    9000005    1    3    3    0    0 -0.35903061207E+02  0.43402501965E+02 -0.83099750965E+02  0.10039609351E+03  0.10000000000E+01 0.  0.
    9000005    1    3    3    0    0  0.35903061207E+02 -0.43402501965E+02 -0.14426969190E+02  0.58154487538E+02  0.10000000000E+01 0.  0.
<mgrwt>
<rscale>  0 0.12500730E+03</rscale>
<asrwt>0</asrwt>
<pdfrwt beam="1">  1        4 0.76279829E-02 0.12500730E+03</pdfrwt>
<pdfrwt beam="2">  1       -4 0.32009661E-01 0.12500730E+03</pdfrwt>
<totfact> 0.18123104E+03</totfact>
</mgrwt>
</event>
<event>
 5    1  0.1435323E-002  0.1250010E+03  0.7818608E-02  0.1235068E+00
         -4   -1    0    0    0  501 -0.00000000000E+00  0.00000000000E+00  0.11317738840E+02  0.11388771332E+02  0.12700000000E+01 0.  1.
          4   -1    0    0  501    0  0.00000000000E+00 -0.00000000000E+00 -0.34399736140E+03  0.34399970574E+03  0.12700000000E+01 0.  1.
         25    2    1    2    0    0  0.00000000000E+00  0.00000000000E+00 -0.33267962256E+03  0.35538847707E+03  0.12500095348E+03 0.  0.
    9000005    1    3    3    0    0  0.18583188408E+02 -0.45075591629E+02 -0.55198569153E+02  0.73654775057E+02  0.10000000000E+01 0.  0.
    9000005    1    3    3    0    0 -0.18583188408E+02  0.45075591629E+02 -0.27748105341E+03  0.28173370202E+03  0.10000000000E+01 0.  0.
<mgrwt>
<rscale>  0 0.12500095E+03</rscale>
<asrwt>0</asrwt>
<pdfrwt beam="2">  1        4 0.86008478E-01 0.12500095E+03</pdfrwt>
<pdfrwt beam="1">  1       -4 0.28386080E-02 0.12500095E+03</pdfrwt>
<totfact> 0.11549599E+03</totfact>
</mgrwt>
</event>
<event>
 5    1  0.1435323E-002  0.1249970E+03  0.7818608E-02  0.1235074E+00
          4   -1    0    0  501    0  0.00000000000E+00  0.00000000000E+00  0.45351385232E+02  0.45369164004E+02  0.12700000000E+01 0. -1.
         -4   -1    0    0    0  501 -0.00000000000E+00 -0.00000000000E+00 -0.86089547192E+02  0.86098914254E+02  0.12700000000E+01 0. -1.
         25    2    1    2    0    0  0.00000000000E+00  0.00000000000E+00 -0.40738161960E+02  0.13146807826E+03  0.12499703101E+03 0.  0.
    9000005    1    3    3    0    0  0.52707453346E+02 -0.25715784668E+02 -0.43066045427E+02  0.72767173148E+02  0.10000000000E+01 0.  0.
    9000005    1    3    3    0    0 -0.52707453346E+02  0.25715784668E+02  0.23278834675E+01  0.58700905110E+02  0.10000000000E+01 0.  0.
<mgrwt>
<rscale>  0 0.12499703E+03</rscale>
<asrwt>0</asrwt>
<pdfrwt beam="1">  1        4 0.11341240E-01 0.12499703E+03</pdfrwt>
<pdfrwt beam="2">  1       -4 0.21525780E-01 0.12499703E+03</pdfrwt>
<totfact> 0.19487131E+03</totfact>
</mgrwt>
</event>
<event>
 5    1  0.1435323E-002  0.1249697E+03  0.7818608E-02  0.1235117E+00
         -4   -1    0    0    0  501 -0.00000000000E+00  0.00000000000E+00  0.25616620175E+02  0.25648082369E+02  0.12700000000E+01 0.  1.
          4   -1    0    0  501    0  0.00000000000E+00 -0.00000000000E+00 -0.15228727854E+03  0.15229257403E+03  0.12700000000E+01 0.  1.
         25    2    1    2    0    0  0.00000000000E+00  0.00000000000E+00 -0.12667065836E+03  0.17794065640E+03  0.12496968236E+03 0.  0.
    9000005    1    3    3    0    0  0.51341845472E+02 -0.34156260329E+02 -0.49045444358E+02  0.78797784413E+02  0.10000000000E+01 0.  0.
    9000005    1    3    3    0    0 -0.51341845472E+02  0.34156260329E+02 -0.77625214004E+02  0.99142871985E+02  0.10000000000E+01 0.  0.
<mgrwt>
<rscale>  0 0.12496968E+03</rscale>
<asrwt>0</asrwt>
<pdfrwt beam="2">  1        4 0.38076412E-01 0.12496968E+03</pdfrwt>
<pdfrwt beam="1">  1       -4 0.64087502E-02 0.12496968E+03</pdfrwt>
<totfact> 0.17256855E+03</totfact>
</mgrwt>
</event>
<event>
 5    1  0.1435323E-002  0.1250035E+03  0.7818608E-02  0.1235064E+00
          4   -1    0    0  501    0  0.00000000000E+00  0.00000000000E+00  0.59128217389E+02  0.59141854821E+02  0.12700000000E+01 0. -1.
         -4   -1    0    0    0  501 -0.00000000000E+00 -0.00000000000E+00 -0.66040435411E+02  0.66052645740E+02  0.12700000000E+01 0. -1.
         25    2    1    2    0    0  0.00000000000E+00  0.00000000000E+00 -0.69122180218E+01  0.12519450056E+03  0.12500353680E+03 0.  0.
    9000005    1    3    3    0    0  0.13592537194E+01 -0.42945899871E+02  0.41992430452E+02  0.60087953050E+02  0.10000000000E+01 0.  0.
    9000005    1    3    3    0    0 -0.13592537194E+01  0.42945899871E+02 -0.48904648474E+02  0.65106547511E+02  0.10000000000E+01 0.  0.
<mgrwt>
<rscale>  0 0.12500354E+03</rscale>
<asrwt>0</asrwt>
<pdfrwt beam="1">  1        4 0.14785285E-01 0.12500354E+03</pdfrwt>
<pdfrwt beam="2">  1       -4 0.16513340E-01 0.12500354E+03</pdfrwt>
<totfact> 0.19822870E+03</totfact>
</mgrwt>
</event>
<event>
 5    1  0.1435323E-002  0.1249993E+03  0.7818608E-02  0.1235070E+00
         -4   -1    0    0    0  501 -0.00000000000E+00  0.00000000000E+00  0.50504660603E+03  0.50504820281E+03  0.12700000000E+01 0. -1.
          4   -1    0    0  501    0  0.00000000000E+00 -0.00000000000E+00 -0.76805987361E+01  0.77848890130E+01  0.12700000000E+01 0. -1.
         25    2    1    2    0    0  0.00000000000E+00  0.00000000000E+00  0.49736600729E+03  0.51283309182E+03  0.12499933943E+03 0.  0.
    9000005    1    3    3    0    0  0.42941849959E+02 -0.34229319663E+02  0.12631836698E+03  0.13774243587E+03  0.10000000000E+01 0.  0.
    9000005    1    3    3    0    0 -0.42941849959E+02  0.34229319663E+02  0.37104764032E+03  0.37509065596E+03  0.10000000000E+01 0.  0.
<mgrwt>
<rscale>  0 0.12499934E+03</rscale>
<asrwt>0</asrwt>
<pdfrwt beam="2">  1        4 0.19333858E-02 0.12499934E+03</pdfrwt>
<pdfrwt beam="1">  1       -4 0.12627487E+00 0.12499934E+03</pdfrwt>
<totfact> 0.85602477E+02</totfact>
</mgrwt>
</event>
<event>
 5    1  0.1435323E-002  0.1249989E+03  0.7818608E-02  0.1235071E+00
         -4   -1    0    0    0  501 -0.00000000000E+00  0.00000000000E+00  0.75716317744E+01  0.76774024075E+01  0.12700000000E+01 0.  1.
          4   -1    0    0  501    0  0.00000000000E+00 -0.00000000000E+00 -0.51221234308E+03  0.51221391752E+03  0.12700000000E+01 0.  1.
         25    2    1    2    0    0  0.00000000000E+00  0.00000000000E+00 -0.50464071131E+03  0.51989131993E+03  0.12499894812E+03 0.  0.
    9000005    1    3    3    0    0  0.25075307256E+02 -0.57149470464E+02 -0.26570178788E+03  0.27293455826E+03  0.10000000000E+01 0.  0.
    9000005    1    3    3    0    0 -0.25075307256E+02  0.57149470464E+02 -0.23893892343E+03  0.24695676167E+03  0.10000000000E+01 0.  0.
<mgrwt>
<rscale>  0 0.12499895E+03</rscale>
<asrwt>0</asrwt>
<pdfrwt beam="2">  1        4 0.12806639E+00 0.12499895E+03</pdfrwt>
<pdfrwt beam="1">  1       -4 0.19063278E-02 0.12499895E+03</pdfrwt>
<totfact> 0.84529573E+02</totfact>
</mgrwt>
</event>
<event>
 5    1  0.1435323E-002  0.1249995E+03  0.7818608E-02  0.1235070E+00
         -4   -1    0    0    0  501 -0.00000000000E+00  0.00000000000E+00  0.19128923232E+02  0.19171035548E+02  0.12700000000E+01 0.  1.
          4   -1    0    0  501    0  0.00000000000E+00 -0.00000000000E+00 -0.20393624240E+03  0.20394019678E+03  0.12700000000E+01 0.  1.
         25    2    1    2    0    0  0.00000000000E+00  0.00000000000E+00 -0.18480731917E+03  0.22311123233E+03  0.12499950710E+03 0.  0.
    9000005    1    3    3    0    0  0.30315408944E+02 -0.51367195399E+02 -0.59125674452E+02  0.83990821891E+02  0.10000000000E+01 0.  0.
    9000005    1    3    3    0    0 -0.30315408944E+02  0.51367195399E+02 -0.12568164472E+03  0.13912041044E+03  0.10000000000E+01 0.  0.
<mgrwt>
<rscale>  0 0.12499951E+03</rscale>
<asrwt>0</asrwt>
<pdfrwt beam="2">  1        4 0.50989812E-01 0.12499951E+03</pdfrwt>
<pdfrwt beam="1">  1       -4 0.47879898E-02 0.12499951E+03</pdfrwt>
<totfact> 0.15436803E+03</totfact>
</mgrwt>
</event>
<event>
 5    1  0.1435323E-002  0.1249921E+03  0.7818608E-02  0.1235082E+00
          4   -1    0    0  501    0  0.00000000000E+00  0.00000000000E+00  0.40883782308E+03  0.40883979562E+03  0.12700000000E+01 0.  1.
         -4   -1    0    0    0  501 -0.00000000000E+00 -0.00000000000E+00 -0.95091077365E+01  0.95935410535E+01  0.12700000000E+01 0.  1.
         25    2    1    2    0    0  0.00000000000E+00  0.00000000000E+00  0.39932871535E+03  0.41843333668E+03  0.12499213711E+03 0.  0.
    9000005    1    3    3    0    0  0.25251493969E+02 -0.44492010028E+02  0.79540027646E+02  0.94576915269E+02  0.10000000000E+01 0.  0.
    9000005    1    3    3    0    0 -0.25251493969E+02  0.44492010028E+02  0.31978868770E+03  0.32385642141E+03  0.10000000000E+01 0.  0.
<mgrwt>
<rscale>  0 0.12499214E+03</rscale>
<asrwt>0</asrwt>
<pdfrwt beam="1">  1        4 0.10222025E+00 0.12499214E+03</pdfrwt>
<pdfrwt beam="2">  1       -4 0.23880778E-02 0.12499214E+03</pdfrwt>
<totfact> 0.10198874E+03</totfact>
</mgrwt>
</event>
<event>
 5    1  0.1435323E-002  0.1249992E+03  0.7818608E-02  0.1235070E+00
          4   -1    0    0  501    0  0.00000000000E+00  0.00000000000E+00  0.19151274204E+02  0.19193337480E+02  0.12700000000E+01 0. -1.
         -4   -1    0    0    0  501 -0.00000000000E+00 -0.00000000000E+00 -0.20369782226E+03  0.20370178127E+03  0.12700000000E+01 0. -1.
         25    2    1    2    0    0  0.00000000000E+00  0.00000000000E+00 -0.18454654806E+03  0.22289511875E+03  0.12499922226E+03 0.  0.
    9000005    1    3    3    0    0  0.41997282007E+02  0.46105421312E+02 -0.99343235424E+02  0.11730115087E+03  0.10000000000E+01 0.  0.
    9000005    1    3    3    0    0 -0.41997282007E+02 -0.46105421312E+02 -0.85203312634E+02  0.10559396789E+03  0.10000000000E+01 0.  0.
<mgrwt>
<rscale>  0 0.12499922E+03</rscale>
<asrwt>0</asrwt>
<pdfrwt beam="1">  1        4 0.47935720E-02 0.12499922E+03</pdfrwt>
<pdfrwt beam="2">  1       -4 0.50930202E-01 0.12499922E+03</pdfrwt>
<totfact> 0.15444830E+03</totfact>
</mgrwt>
</event>
<event>
 5    1  0.1435323E-002  0.1250042E+03  0.7818608E-02  0.1235063E+00
         -4   -1    0    0    0  501 -0.00000000000E+00  0.00000000000E+00  0.11299123836E+03  0.11299837542E+03  0.12700000000E+01 0. -1.
          4   -1    0    0  501    0  0.00000000000E+00 -0.00000000000E+00 -0.34553710178E+02  0.34577041329E+02  0.12700000000E+01 0. -1.
         25    2    1    2    0    0  0.00000000000E+00  0.00000000000E+00  0.78437528184E+02  0.14757541675E+03  0.12500423113E+03 0.  0.
    9000005    1    3    3    0    0  0.11634601124E+02 -0.61396860719E+02  0.40114749086E+02  0.74263931647E+02  0.10000000000E+01 0.  0.
    9000005    1    3    3    0    0 -0.11634601124E+02  0.61396860719E+02  0.38322779098E+02  0.73311485098E+02  0.10000000000E+01 0.  0.
<mgrwt>
<rscale>  0 0.12500423E+03</rscale>
<asrwt>0</asrwt>
<pdfrwt beam="2">  1        4 0.86422361E-02 0.12500423E+03</pdfrwt>
<pdfrwt beam="1">  1       -4 0.28251618E-01 0.12500423E+03</pdfrwt>
<totfact> 0.18656806E+03</totfact>
</mgrwt>
</event>
<event>
 5    1  0.1435323E-002  0.1249992E+03  0.7818608E-02  0.1235070E+00
          4   -1    0    0  501    0  0.00000000000E+00  0.00000000000E+00  0.88383321981E+03  0.88383413226E+03  0.12700000000E+01 0. -1.
         -4   -1    0    0    0  501 -0.00000000000E+00 -0.00000000000E+00 -0.43274466587E+01  0.45099550535E+01  0.12700000000E+01 0. -1.
         25    2    1    2    0    0  0.00000000000E+00  0.00000000000E+00  0.87950577315E+03  0.88834408731E+03  0.12499924980E+03 0.  0.
    9000005    1    3    3    0    0 -0.13098488947E+02  0.61022107526E+02  0.46215349311E+03  0.46634978205E+03  0.10000000000E+01 0.  0.
    9000005    1    3    3    0    0  0.13098488947E+02 -0.61022107526E+02  0.41735228004E+03  0.42199430526E+03  0.10000000000E+01 0.  0.
<mgrwt>
<rscale>  0 0.12499925E+03</rscale>
<asrwt>0</asrwt>
<pdfrwt beam="1">  1        4 0.22098120E+00 0.12499925E+03</pdfrwt>
<pdfrwt beam="2">  1       -4 0.11047894E-02 0.12499925E+03</pdfrwt>
<totfact> 0.45172402E+02</totfact>
</mgrwt>
</event>
<event>
 5    1  0.1435323E-002  0.1249982E+03  0.7818608E-02  0.1235072E+00
          4   -1    0    0  501    0  0.00000000000E+00  0.00000000000E+00  0.12827473007E+02  0.12890188662E+02  0.12700000000E+01 0.  1.
         -4   -1    0    0    0  501 -0.00000000000E+00 -0.00000000000E+00 -0.30370689531E+03  0.30370955065E+03  0.12700000000E+01 0.  1.
         25    2    1    2    0    0  0.00000000000E+00  0.00000000000E+00 -0.29087942230E+03  0.31659973931E+03  0.12499822645E+03 0.  0.
    9000005    1    3    3    0    0  0.80822453784E+01  0.45688640714E+02 -0.39412110355E+02  0.60885868831E+02  0.10000000000E+01 0.  0.
    9000005    1    3    3    0    0 -0.80822453784E+01 -0.45688640714E+02 -0.25146731194E+03  0.25571387048E+03  0.10000000000E+01 0.  0.
<mgrwt>
<rscale>  0 0.12499823E+03</rscale>
<asrwt>0</asrwt>
<pdfrwt beam="1">  1        4 0.32150406E-02 0.12499823E+03</pdfrwt>
<pdfrwt beam="2">  1       -4 0.75934872E-01 0.12499823E+03</pdfrwt>
<totfact> 0.12518758E+03</totfact>
</mgrwt>
</event>
<event>
 5    1  0.1435323E-002  0.1249964E+03  0.7818608E-02  0.1235075E+00
         -4   -1    0    0    0  501 -0.00000000000E+00  0.00000000000E+00  0.14548768658E+03  0.14549322956E+03  0.12700000000E+01 0. -1.
          4   -1    0    0  501    0  0.00000000000E+00 -0.00000000000E+00 -0.26826712564E+02  0.26856757195E+02  0.12700000000E+01 0. -1.
         25    2    1    2    0    0  0.00000000000E+00  0.00000000000E+00  0.11866097402E+03  0.17234998675E+03  0.12499636466E+03 0.  0.
    9000005    1    3    3    0    0  0.39456504468E+02 -0.34070462455E+00  0.12614508062E+03  0.13217606889E+03  0.10000000000E+01 0.  0.
    9000005    1    3    3    0    0 -0.39456504468E+02  0.34070462455E+00 -0.74841065994E+01  0.40173917858E+02  0.10000000000E+01 0.  0.
<mgrwt>
<rscale>  0 0.12499636E+03</rscale>
<asrwt>0</asrwt>
<pdfrwt beam="2">  1        4 0.67111267E-02 0.12499636E+03</pdfrwt>
<pdfrwt beam="1">  1       -4 0.36376370E-01 0.12499636E+03</pdfrwt>
<totfact> 0.17493046E+03</totfact>
</mgrwt>
</event>
<event>
 5    1  0.1435323E-002  0.1250009E+03  0.7818608E-02  0.1235068E+00
          4   -1    0    0  501    0  0.00000000000E+00  0.00000000000E+00  0.13477535342E+03  0.13478133695E+03  0.12700000000E+01 0.  1.
         -4   -1    0    0    0  501 -0.00000000000E+00 -0.00000000000E+00 -0.28963303580E+02  0.28991134063E+02  0.12700000000E+01 0.  1.
         25    2    1    2    0    0  0.00000000000E+00  0.00000000000E+00  0.10581204984E+03  0.16377247101E+03  0.12500092947E+03 0.  0.
    9000005    1    3    3    0    0  0.72957062097E+01  0.41371921080E+02 -0.77089160651E+01  0.42723419454E+02  0.10000000000E+01 0.  0.
    9000005    1    3    3    0    0 -0.72957062097E+01 -0.41371921080E+02  0.11352096590E+03  0.12104905155E+03  0.10000000000E+01 0.  0.
<mgrwt>
<rscale>  0 0.12500093E+03</rscale>
<asrwt>0</asrwt>
<pdfrwt beam="1">  1        4 0.33698065E-01 0.12500093E+03</pdfrwt>
<pdfrwt beam="2">  1       -4 0.72450527E-02 0.12500093E+03</pdfrwt>
<totfact> 0.17881262E+03</totfact>
</mgrwt>
</event>
<event>
 5    1  0.1435323E-002  0.1250023E+03  0.7818608E-02  0.1235066E+00
         -4   -1    0    0    0  501 -0.00000000000E+00  0.00000000000E+00  0.52936856364E+03  0.52937008705E+03  0.12700000000E+01 0.  1.
          4   -1    0    0  501    0  0.00000000000E+00 -0.00000000000E+00 -0.73231618864E+01  0.74324693080E+01  0.12700000000E+01 0.  1.
         25    2    1    2    0    0  0.00000000000E+00  0.00000000000E+00  0.52204540175E+03  0.53680255636E+03  0.12500233209E+03 0.  0.
    9000005    1    3    3    0    0 -0.47948087042E+02  0.37146673458E+02  0.19639304197E+03  0.20554834305E+03  0.10000000000E+01 0.  0.
    9000005    1    3    3    0    0  0.47948087042E+02 -0.37146673458E+02  0.32565235978E+03  0.33125421331E+03  0.10000000000E+01 0.  0.
<mgrwt>
<rscale>  0 0.12500233E+03</rscale>
<asrwt>0</asrwt>
<pdfrwt beam="2">  1        4 0.18446440E-02 0.12500233E+03</pdfrwt>
<pdfrwt beam="1">  1       -4 0.13235602E+00 0.12500233E+03</pdfrwt>
<totfact> 0.82031855E+02</totfact>
</mgrwt>
</event>
<event>
 5    1  0.1435323E-002  0.1250045E+03  0.7818608E-02  0.1235062E+00
          4   -1    0    0  501    0  0.00000000000E+00  0.00000000000E+00  0.11041775464E+02  0.11114571760E+02  0.12700000000E+01 0. -1.
         -4   -1    0    0    0  501 -0.00000000000E+00 -0.00000000000E+00 -0.35255939811E+03  0.35256168552E+03  0.12700000000E+01 0. -1.
         25    2    1    2    0    0  0.00000000000E+00  0.00000000000E+00 -0.34151762264E+03  0.36367625728E+03  0.12500453404E+03 0.  0.
    9000005    1    3    3    0    0 -0.32397039905E+02  0.21532076418E+02 -0.31305726110E+03  0.31546639637E+03  0.10000000000E+01 0.  0.
    9000005    1    3    3    0    0  0.32397039905E+02 -0.21532076418E+02 -0.28460361538E+02  0.48209860904E+02  0.10000000000E+01 0.  0.
<mgrwt>
<rscale>  0 0.12500453E+03</rscale>
<asrwt>0</asrwt>
<pdfrwt beam="1">  1        4 0.27698305E-02 0.12500453E+03</pdfrwt>
<pdfrwt beam="2">  1       -4 0.88149198E-01 0.12500453E+03</pdfrwt>
<totfact> 0.11356627E+03</totfact>
</mgrwt>
</event>
<event>
 5    1  0.1435323E-002  0.1249983E+03  0.7818608E-02  0.1235072E+00
          4   -1    0    0  501    0  0.00000000000E+00  0.00000000000E+00  0.48621878500E+02  0.48638461827E+02  0.12700000000E+01 0. -1.
         -4   -1    0    0    0  501 -0.00000000000E+00 -0.00000000000E+00 -0.80301858964E+02  0.80311901067E+02  0.12700000000E+01 0. -1.
         25    2    1    2    0    0  0.00000000000E+00  0.00000000000E+00 -0.31679980463E+02  0.12895036289E+03  0.12499829970E+03 0.  0.
    9000005    1    3    3    0    0  0.22407491617E+02 -0.28955231460E+02  0.36403464853E+02  0.51640230081E+02  0.10000000000E+01 0.  0.
    9000005    1    3    3    0    0 -0.22407491617E+02  0.28955231460E+02 -0.68083445316E+02  0.77310132813E+02  0.10000000000E+01 0.  0.
<mgrwt>
<rscale>  0 0.12499830E+03</rscale>
<asrwt>0</asrwt>
<pdfrwt beam="1">  1        4 0.12158798E-01 0.12499830E+03</pdfrwt>
<pdfrwt beam="2">  1       -4 0.20078793E-01 0.12499830E+03</pdfrwt>
<totfact> 0.19621759E+03</totfact>
</mgrwt>
</event>
<event>
 5    1  0.1435323E-002  0.1250018E+03  0.7818608E-02  0.1235066E+00
          4   -1    0    0  501    0  0.00000000000E+00  0.00000000000E+00  0.26527247818E+02  0.26557631235E+02  0.12700000000E+01 0.  1.
         -4   -1    0    0    0  501 -0.00000000000E+00 -0.00000000000E+00 -0.14714114539E+03  0.14714662608E+03  0.12700000000E+01 0.  1.
         25    2    1    2    0    0  0.00000000000E+00  0.00000000000E+00 -0.12061389758E+03  0.17370425732E+03  0.12500182688E+03 0.  0.
    9000005    1    3    3    0    0 -0.32025337235E+02  0.15559412343E+02 -0.13167476526E+03  0.13640733611E+03  0.10000000000E+01 0.  0.
    9000005    1    3    3    0    0  0.32025337235E+02 -0.15559412343E+02  0.11060867689E+02  0.37296921207E+02  0.10000000000E+01 0.  0.
<mgrwt>
<rscale>  0 0.12500183E+03</rscale>
<asrwt>0</asrwt>
<pdfrwt beam="1">  1        4 0.66362954E-02 0.12500183E+03</pdfrwt>
<pdfrwt beam="2">  1       -4 0.36789767E-01 0.12500183E+03</pdfrwt>
<totfact> 0.17430514E+03</totfact>
</mgrwt>
</event>
<event>
 5    1  0.1435323E-002  0.1249982E+03  0.7818608E-02  0.1235072E+00
         -4   -1    0    0    0  501 -0.00000000000E+00  0.00000000000E+00  0.86052974752E+02  0.86062345795E+02  0.12700000000E+01 0. -1.
          4   -1    0    0  501    0  0.00000000000E+00 -0.00000000000E+00 -0.45371533538E+02  0.45389304418E+02  0.12700000000E+01 0. -1.
         25    2    1    2    0    0  0.00000000000E+00  0.00000000000E+00  0.40681441214E+02  0.13145165021E+03  0.12499822673E+03 0.  0.
    9000005    1    3    3    0    0  0.47872307425E+02 -0.40166915640E+02  0.20324399648E+02  0.65720774123E+02  0.10000000000E+01 0.  0.
    9000005    1    3    3    0    0 -0.47872307425E+02  0.40166915640E+02  0.20357041566E+02  0.65730876090E+02  0.10000000000E+01 0.  0.
<mgrwt>
<rscale>  0 0.12499823E+03</rscale>
<asrwt>0</asrwt>
<pdfrwt beam="2">  1        4 0.11346276E-01 0.12499823E+03</pdfrwt>
<pdfrwt beam="1">  1       -4 0.21516636E-01 0.12499823E+03</pdfrwt>
<totfact> 0.19487463E+03</totfact>
</mgrwt>
</event>
<event>
 5    1  0.1435323E-002  0.1250019E+03  0.7818608E-02  0.1235066E+00
         -4   -1    0    0    0  501 -0.00000000000E+00  0.00000000000E+00  0.63692875839E+02  0.63705536122E+02  0.12700000000E+01 0.  1.
          4   -1    0    0  501    0  0.00000000000E+00 -0.00000000000E+00 -0.61305969806E+02  0.61319122905E+02  0.12700000000E+01 0.  1.
         25    2    1    2    0    0  0.00000000000E+00  0.00000000000E+00  0.23869060331E+01  0.12502465903E+03  0.12500187216E+03 0.  0.
    9000005    1    3    3    0    0  0.28218953588E+02  0.29290377573E+02  0.48648192013E+02  0.63418310811E+02  0.10000000000E+01 0.  0.
    9000005    1    3    3    0    0 -0.28218953588E+02 -0.29290377573E+02 -0.46261285980E+02  0.61606348216E+02  0.10000000000E+01 0.  0.
<mgrwt>
<rscale>  0 0.12500187E+03</rscale>
<asrwt>0</asrwt>
<pdfrwt beam="2">  1        4 0.15329719E-01 0.12500187E+03</pdfrwt>
<pdfrwt beam="1">  1       -4 0.15926446E-01 0.12500187E+03</pdfrwt>
<totfact> 0.19832849E+03</totfact>
</mgrwt>
</event>
<event>
 5    1  0.1435323E-002  0.1249987E+03  0.7818608E-02  0.1235071E+00
          4   -1    0    0  501    0  0.00000000000E+00  0.00000000000E+00  0.50817051032E+03  0.50817209729E+03  0.12700000000E+01 0. -1.
         -4   -1    0    0    0  501 -0.00000000000E+00 -0.00000000000E+00 -0.76326665433E+01  0.77376028951E+01  0.12700000000E+01 0. -1.
         25    2    1    2    0    0  0.00000000000E+00  0.00000000000E+00  0.50053784378E+03  0.51590970018E+03  0.12499874274E+03 0.  0.
    9000005    1    3    3    0    0 -0.13583599630E+02 -0.36273228554E+02  0.47865675065E+02  0.61582336251E+02  0.10000000000E+01 0.  0.
    9000005    1    3    3    0    0  0.13583599630E+02  0.36273228554E+02  0.45267216871E+03  0.45432736393E+03  0.10000000000E+01 0.  0.
<mgrwt>
<rscale>  0 0.12499874E+03</rscale>
<asrwt>0</asrwt>
<pdfrwt beam="1">  1        4 0.12705594E+00 0.12499874E+03</pdfrwt>
<pdfrwt beam="2">  1       -4 0.19214820E-02 0.12499874E+03</pdfrwt>
<totfact> 0.85133071E+02</totfact>
</mgrwt>
</event>
<event>
 5    1  0.1435323E-002  0.1249996E+03  0.7818608E-02  0.1235070E+00
          4   -1    0    0  501    0  0.00000000000E+00  0.00000000000E+00  0.14773160272E+03  0.14773706150E+03  0.12700000000E+01 0. -1.
         -4   -1    0    0    0  501 -0.00000000000E+00 -0.00000000000E+00 -0.26420144464E+02  0.26450650909E+02  0.12700000000E+01 0. -1.
         25    2    1    2    0    0  0.00000000000E+00  0.00000000000E+00  0.12131145825E+03  0.17418771241E+03  0.12499955701E+03 0.  0.
    9000005    1    3    3    0    0  0.46756061519E+02 -0.41451065581E+02  0.59332127834E+02  0.86172046046E+02  0.10000000000E+01 0.  0.
    9000005    1    3    3    0    0 -0.46756061519E+02  0.41451065581E+02  0.61979330418E+02  0.88015666365E+02  0.10000000000E+01 0.  0.
<mgrwt>
<rscale>  0 0.12499956E+03</rscale>
<asrwt>0</asrwt>
<pdfrwt beam="1">  1        4 0.36937396E-01 0.12499956E+03</pdfrwt>
<pdfrwt beam="2">  1       -4 0.66095318E-02 0.12499956E+03</pdfrwt>
<totfact> 0.17409980E+03</totfact>
</mgrwt>
</event>
<event>
 5    1  0.1435323E-002  0.1250019E+03  0.7818608E-02  0.1235066E+00
         -4   -1    0    0    0  501 -0.00000000000E+00  0.00000000000E+00  0.12028837885E+04  0.12028844590E+04  0.12700000000E+01 0. -1.
          4   -1    0    0  501    0  0.00000000000E+00 -0.00000000000E+00 -0.31226403507E+01  0.33710210263E+01  0.12700000000E+01 0. -1.
         25    2    1    2    0    0  0.00000000000E+00  0.00000000000E+00  0.11997611482E+04  0.12062554800E+04  0.12500188126E+03 0.  0.
    9000005    1    3    3    0    0 -0.21708575512E+02  0.42402384241E+02  0.99021189210E+03  0.99135756198E+03  0.10000000000E+01 0.  0.
    9000005    1    3    3    0    0  0.21708575512E+02 -0.42402384241E+02  0.20954925609E+03  0.21489791802E+03  0.10000000000E+01 0.  0.
<mgrwt>
<rscale>  0 0.12500188E+03</rscale>
<asrwt>0</asrwt>
<pdfrwt beam="2">  1        4 0.81179192E-03 0.12500188E+03</pdfrwt>
<pdfrwt beam="1">  1       -4 0.30075192E+00 0.12500188E+03</pdfrwt>
<totfact> 0.24876688E+02</totfact>
</mgrwt>
</event>
<event>
 5    1  0.1435323E-002  0.1250021E+03  0.7818608E-02  0.1235066E+00
          4   -1    0    0  501    0  0.00000000000E+00  0.00000000000E+00  0.74181384449E+03  0.74181493163E+03  0.12700000000E+01 0. -1.
         -4   -1    0    0    0  501 -0.00000000000E+00 -0.00000000000E+00 -0.51883060478E+01  0.53414810348E+01  0.12700000000E+01 0. -1.
         25    2    1    2    0    0  0.00000000000E+00  0.00000000000E+00  0.73662553845E+03  0.74715641266E+03  0.12500208434E+03 0.  0.
    9000005    1    3    3    0    0  0.22295220312E+02  0.43181985814E+02  0.13347691480E+03  0.14205227042E+03  0.10000000000E+01 0.  0.
    9000005    1    3    3    0    0 -0.22295220312E+02 -0.43181985814E+02  0.60314862365E+03  0.60510414224E+03  0.10000000000E+01 0.  0.
<mgrwt>
<rscale>  0 0.12500208E+03</rscale>
<asrwt>0</asrwt>
<pdfrwt beam="1">  1        4 0.18547279E+00 0.12500208E+03</pdfrwt>
<pdfrwt beam="2">  1       -4 0.13163590E-02 0.12500208E+03</pdfrwt>
<totfact> 0.57339821E+02</totfact>
</mgrwt>
</event>
<event>
 5    1  0.1435323E-002  0.1250008E+03  0.7818608E-02  0.1235068E+00
          4   -1    0    0  501    0  0.00000000000E+00  0.00000000000E+00  0.29292984804E+02  0.29320502361E+02  0.12700000000E+01 0.  1.
         -4   -1    0    0    0  501 -0.00000000000E+00 -0.00000000000E+00 -0.13325967720E+03  0.13326572878E+03  0.12700000000E+01 0.  1.
         25    2    1    2    0    0  0.00000000000E+00  0.00000000000E+00 -0.10396669240E+03  0.16258623114E+03  0.12500083771E+03 0.  0.
    9000005    1    3    3    0    0 -0.60206015091E+02 -0.15350699437E+02 -0.60698310751E+02  0.86865949338E+02  0.10000000000E+01 0.  0.
    9000005    1    3    3    0    0  0.60206015091E+02  0.15350699437E+02 -0.43268381646E+02  0.75720281805E+02  0.10000000000E+01 0.  0.
<mgrwt>
<rscale>  0 0.12500084E+03</rscale>
<asrwt>0</asrwt>
<pdfrwt beam="1">  1        4 0.73274427E-02 0.12500084E+03</pdfrwt>
<pdfrwt beam="2">  1       -4 0.33319114E-01 0.12500084E+03</pdfrwt>
<totfact> 0.17936369E+03</totfact>
</mgrwt>
</event>
<event>
 5    1  0.1435323E-002  0.1250002E+03  0.7818608E-02  0.1235069E+00
          4   -1    0    0  501    0  0.00000000000E+00  0.00000000000E+00  0.11847239574E+03  0.11847920262E+03  0.12700000000E+01 0. -1.
         -4   -1    0    0    0  501 -0.00000000000E+00 -0.00000000000E+00 -0.32951947882E+02  0.32976412316E+02  0.12700000000E+01 0. -1.
         25    2    1    2    0    0  0.00000000000E+00  0.00000000000E+00  0.85520447861E+02  0.15145561493E+03  0.12500022517E+03 0.  0.
    9000005    1    3    3    0    0 -0.23685274608E+02 -0.50181000380E+01 -0.27044390279E+02  0.36312155083E+02  0.10000000000E+01 0.  0.
    9000005    1    3    3    0    0  0.23685274608E+02  0.50181000380E+01  0.11256483814E+03  0.11514345985E+03  0.10000000000E+01 0.  0.
<mgrwt>
<rscale>  0 0.12500023E+03</rscale>
<asrwt>0</asrwt>
<pdfrwt beam="1">  1        4 0.29622008E-01 0.12500023E+03</pdfrwt>
<pdfrwt beam="2">  1       -4 0.82418960E-02 0.12500023E+03</pdfrwt>
<totfact> 0.18467342E+03</totfact>
</mgrwt>
</event>
<event>
 5    1  0.1435323E-002  0.1249985E+03  0.7818608E-02  0.1235072E+00
         -4   -1    0    0    0  501 -0.00000000000E+00  0.00000000000E+00  0.42129226437E+01  0.44001837691E+01  0.12700000000E+01 0. -1.
          4   -1    0    0  501    0  0.00000000000E+00 -0.00000000000E+00 -0.90683912700E+03  0.90684001630E+03  0.12700000000E+01 0. -1.
         25    2    1    2    0    0  0.00000000000E+00  0.00000000000E+00 -0.90262620436E+03  0.91124020007E+03  0.12499854970E+03 0.  0.
    9000005    1    3    3    0    0 -0.18138998236E+02  0.40521491839E+02 -0.77191965067E+03  0.77319594001E+03  0.10000000000E+01 0.  0.
    9000005    1    3    3    0    0  0.18138998236E+02 -0.40521491839E+02 -0.13070655369E+03  0.13804426006E+03  0.10000000000E+01 0.  0.
<mgrwt>
<rscale>  0 0.12499855E+03</rscale>
<asrwt>0</asrwt>
<pdfrwt beam="2">  1        4 0.22673265E+00 0.12499855E+03</pdfrwt>
<pdfrwt beam="1">  1       -4 0.10767526E-02 0.12499855E+03</pdfrwt>
<totfact> 0.43425093E+02</totfact>
</mgrwt>
</event>
<event>
 5    1  0.1435323E-002  0.1250025E+03  0.7818608E-02  0.1235065E+00
         -4   -1    0    0    0  501 -0.00000000000E+00  0.00000000000E+00  0.54730527948E+02  0.54745260886E+02  0.12700000000E+01 0.  1.
          4   -1    0    0  501    0  0.00000000000E+00 -0.00000000000E+00 -0.71345322819E+02  0.71356625398E+02  0.12700000000E+01 0.  1.
         25    2    1    2    0    0  0.00000000000E+00  0.00000000000E+00 -0.16614794870E+02  0.12610188628E+03  0.12500253724E+03 0.  0.
    9000005    1    3    3    0    0  0.16893925207E+02  0.59839938067E+02 -0.14622297193E+02  0.63882974820E+02  0.10000000000E+01 0.  0.
    9000005    1    3    3    0    0 -0.16893925207E+02 -0.59839938067E+02 -0.19924976778E+01  0.62218911463E+02  0.10000000000E+01 0.  0.
<mgrwt>
<rscale>  0 0.12500254E+03</rscale>
<asrwt>0</asrwt>
<pdfrwt beam="2">  1        4 0.17839585E-01 0.12500254E+03</pdfrwt>
<pdfrwt beam="1">  1       -4 0.13685886E-01 0.12500254E+03</pdfrwt>
<totfact> 0.19774242E+03</totfact>
</mgrwt>
</event>
<event>
 5    1  0.1435323E-002  0.1249958E+03  0.7818608E-02  0.1235076E+00
         -4   -1    0    0    0  501 -0.00000000000E+00  0.00000000000E+00  0.46328042314E+01  0.48037251218E+01  0.12700000000E+01 0. -1.
          4   -1    0    0  501    0  0.00000000000E+00 -0.00000000000E+00 -0.82767222525E+03  0.82767319960E+03  0.12700000000E+01 0. -1.
         25    2    1    2    0    0  0.00000000000E+00  0.00000000000E+00 -0.82303942101E+03  0.83247692473E+03  0.12499576656E+03 0.  0.
    9000005    1    3    3    0    0  0.61464516962E+02 -0.10922841354E+02 -0.43010839164E+03  0.43461641003E+03  0.10000000000E+01 0.  0.
    9000005    1    3    3    0    0 -0.61464516962E+02  0.10922841354E+02 -0.39293102938E+03  0.39786051470E+03  0.10000000000E+01 0.  0.
<mgrwt>
<rscale>  0 0.12499577E+03</rscale>
<asrwt>0</asrwt>
<pdfrwt beam="2">  1        4 0.20693905E+00 0.12499577E+03</pdfrwt>
<pdfrwt beam="1">  1       -4 0.11796908E-02 0.12499577E+03</pdfrwt>
<totfact> 0.49687938E+02</totfact>
</mgrwt>
</event>
<event>
 5    1  0.1435323E-002  0.1250126E+03  0.7818608E-02  0.1235050E+00
          4   -1    0    0  501    0  0.00000000000E+00  0.00000000000E+00  0.17912192221E+03  0.17912642439E+03  0.12700000000E+01 0. -1.
         -4   -1    0    0    0  501 -0.00000000000E+00 -0.00000000000E+00 -0.21788909670E+02  0.21825890237E+02  0.12700000000E+01 0. -1.
         25    2    1    2    0    0  0.00000000000E+00  0.00000000000E+00  0.15733301254E+03  0.20095231463E+03  0.12501262305E+03 0.  0.
    9000005    1    3    3    0    0  0.58221163772E+02 -0.21891666820E+02  0.68876848254E+02  0.92811471341E+02  0.10000000000E+01 0.  0.
    9000005    1    3    3    0    0 -0.58221163772E+02  0.21891666820E+02  0.88456164285E+02  0.10814084329E+03  0.10000000000E+01 0.  0.
<mgrwt>
<rscale>  0 0.12501262E+03</rscale>
<asrwt>0</asrwt>
<pdfrwt beam="1">  1        4 0.44785665E-01 0.12501262E+03</pdfrwt>
<pdfrwt beam="2">  1       -4 0.54524129E-02 0.12501262E+03</pdfrwt>
<totfact> 0.16279228E+03</totfact>
</mgrwt>
</event>
<event>
 5    1  0.1435323E-002  0.1250023E+03  0.7818608E-02  0.1235066E+00
          4   -1    0    0  501    0  0.00000000000E+00  0.00000000000E+00  0.17878487500E+02  0.17923538023E+02  0.12700000000E+01 0. -1.
         -4   -1    0    0    0  501 -0.00000000000E+00 -0.00000000000E+00 -0.21817514973E+03  0.21817884605E+03  0.12700000000E+01 0. -1.
         25    2    1    2    0    0  0.00000000000E+00  0.00000000000E+00 -0.20029666223E+03  0.23610238407E+03  0.12500233142E+03 0.  0.
    9000005    1    3    3    0    0 -0.27680260340E+02  0.68126847670E+00 -0.20596633599E+03  0.20782154003E+03  0.10000000000E+01 0.  0.
    9000005    1    3    3    0    0  0.27680260340E+02 -0.68126847670E+00  0.56696737524E+01  0.28280844042E+02  0.10000000000E+01 0.  0.
<mgrwt>
<rscale>  0 0.12500233E+03</rscale>
<asrwt>0</asrwt>
<pdfrwt beam="1">  1        4 0.44757159E-02 0.12500233E+03</pdfrwt>
<pdfrwt beam="2">  1       -4 0.54549872E-01 0.12500233E+03</pdfrwt>
<totfact> 0.14970881E+03</totfact>
</mgrwt>
</event>
<event>
 5    1  0.1435323E-002  0.1250006E+03  0.7818608E-02  0.1235068E+00
         -4   -1    0    0    0  501 -0.00000000000E+00  0.00000000000E+00  0.44728838365E+02  0.44746864488E+02  0.12700000000E+01 0. -1.
          4   -1    0    0  501    0  0.00000000000E+00 -0.00000000000E+00 -0.87292363928E+02  0.87301601933E+02  0.12700000000E+01 0. -1.
         25    2    1    2    0    0  0.00000000000E+00  0.00000000000E+00 -0.42563525562E+02  0.13204846642E+03  0.12500057510E+03 0.  0.
    9000005    1    3    3    0    0 -0.12521301660E+02 -0.58439158905E+02 -0.40569579958E+02  0.72241325477E+02  0.10000000000E+01 0.  0.
    9000005    1    3    3    0    0  0.12521301660E+02  0.58439158905E+02 -0.19939456047E+01  0.59807140944E+02  0.10000000000E+01 0.  0.
<mgrwt>
<rscale>  0 0.12500058E+03</rscale>
<asrwt>0</asrwt>
<pdfrwt beam="2">  1        4 0.21826499E-01 0.12500058E+03</pdfrwt>
<pdfrwt beam="1">  1       -4 0.11185618E-01 0.12500058E+03</pdfrwt>
<totfact> 0.19454616E+03</totfact>
</mgrwt>
</event>
<event>
 5    1  0.1435323E-002  0.1249994E+03  0.7818608E-02  0.1235070E+00
          4   -1    0    0  501    0  0.00000000000E+00  0.00000000000E+00  0.67214321277E+02  0.67226318393E+02  0.12700000000E+01 0. -1.
         -4   -1    0    0    0  501 -0.00000000000E+00 -0.00000000000E+00 -0.58091623936E+02  0.58105504658E+02  0.12700000000E+01 0. -1.
         25    2    1    2    0    0  0.00000000000E+00  0.00000000000E+00  0.91226973408E+01  0.12533182305E+03  0.12499936905E+03 0.  0.
    9000005    1    3    3    0    0 -0.55642038273E+02 -0.17890339520E+02  0.26735997979E+02  0.64279967791E+02  0.10000000000E+01 0.  0.
    9000005    1    3    3    0    0  0.55642038273E+02  0.17890339520E+02 -0.17613300638E+02  0.61051855260E+02  0.10000000000E+01 0.  0.
<mgrwt>
<rscale>  0 0.12499937E+03</rscale>
<asrwt>0</asrwt>
<pdfrwt beam="1">  1        4 0.16806815E-01 0.12499937E+03</pdfrwt>
<pdfrwt beam="2">  1       -4 0.14526141E-01 0.12499937E+03</pdfrwt>
<totfact> 0.19817363E+03</totfact>
</mgrwt>
</event>
<event>
 5    1  0.1435323E-002  0.1250029E+03  0.7818608E-02  0.1235065E+00
          4   -1    0    0  501    0  0.00000000000E+00  0.00000000000E+00  0.16676080341E+02  0.16724370109E+02  0.12700000000E+01 0. -1.
         -4   -1    0    0    0  501 -0.00000000000E+00 -0.00000000000E+00 -0.23386483135E+03  0.23386827968E+03  0.12700000000E+01 0. -1.
         25    2    1    2    0    0  0.00000000000E+00  0.00000000000E+00 -0.21718875101E+03  0.25059264979E+03  0.12500289023E+03 0.  0.
    9000005    1    3    3    0    0  0.49300149920E+02  0.35948393406E+02 -0.81502137612E+02  0.10181547135E+03  0.10000000000E+01 0.  0.
    9000005    1    3    3    0    0 -0.49300149920E+02 -0.35948393406E+02 -0.13568661340E+03  0.14877717844E+03  0.10000000000E+01 0.  0.
<mgrwt>
<rscale>  0 0.12500289E+03</rscale>
<asrwt>0</asrwt>
<pdfrwt beam="1">  1        4 0.41754881E-02 0.12500289E+03</pdfrwt>
<pdfrwt beam="2">  1       -4 0.58472665E-01 0.12500289E+03</pdfrwt>
<totfact> 0.14477332E+03</totfact>
</mgrwt>
</event>
<event>
 4    1  0.1435323E-002  0.1250895E+03  0.7818608E-02  0.1234929E+00
          4   -1    0    0  501    0  0.00000000000E+00  0.00000000000E+00  0.27027877429E+02  0.27057698688E+02  0.12700000000E+01 0. -1.
         -4   -1    0    0    0  501 -0.00000000000E+00 -0.00000000000E+00 -0.14462132589E+03  0.14462690207E+03  0.12700000000E+01 0. -1.
    9000005    1    1    2    0    0  0.30133090346E+01  0.48647978129E+02 -0.50212223074E+01  0.49009371357E+02  0.10000000000E+01 0.  0.
    9000005    1    1    2    0    0 -0.30133090346E+01 -0.48647978129E+02 -0.11257222615E+03  0.12267522940E+03  0.10000000000E+01 0.  0.
<mgrwt>
<rscale>  0 0.12508950E+03</rscale>
<asrwt>0</asrwt>
<pdfrwt beam="1">  1        4 0.67613944E-02 0.12508950E+03</pdfrwt>
<pdfrwt beam="2">  1       -4 0.36159754E-01 0.12508950E+03</pdfrwt>
<totfact> 0.17484986E+03</totfact>
</mgrwt>
</event>
<event>
 5    1  0.1435323E-002  0.1249729E+03  0.7818608E-02  0.1235112E+00
          4   -1    0    0  501    0  0.00000000000E+00  0.00000000000E+00  0.42848979336E+01  0.44691442471E+01  0.12700000000E+01 0. -1.
         -4   -1    0    0    0  501 -0.00000000000E+00 -0.00000000000E+00 -0.89187371024E+03  0.89187461445E+03  0.12700000000E+01 0. -1.
         25    2    1    2    0    0  0.00000000000E+00  0.00000000000E+00 -0.88758881230E+03  0.89634375870E+03  0.12497293323E+03 0.  0.
    9000005    1    3    3    0    0 -0.26676674431E+02  0.25329857821E+02 -0.81588706263E+02  0.89503986758E+02  0.10000000000E+01 0.  0.
    9000005    1    3    3    0    0  0.26676674431E+02 -0.25329857821E+02 -0.80600010604E+03  0.80683977194E+03  0.10000000000E+01 0.  0.
<mgrwt>
<rscale>  0 0.12497293E+03</rscale>
<asrwt>0</asrwt>
<pdfrwt beam="1">  1        4 0.10943714E-02 0.12497293E+03</pdfrwt>
<pdfrwt beam="2">  1       -4 0.22299095E+00 0.12497293E+03</pdfrwt>
<totfact> 0.44581912E+02</totfact>
</mgrwt>
</event>
<event>
 5    1  0.1435323E-002  0.1250016E+03  0.7818608E-02  0.1235067E+00
         -4   -1    0    0    0  501 -0.00000000000E+00  0.00000000000E+00  0.25489374084E+03  0.25489690469E+03  0.12700000000E+01 0. -1.
          4   -1    0    0  501    0  0.00000000000E+00 -0.00000000000E+00 -0.15295841019E+02  0.15348473946E+02  0.12700000000E+01 0. -1.
         25    2    1    2    0    0  0.00000000000E+00  0.00000000000E+00  0.23959789982E+03  0.27024537863E+03  0.12500164429E+03 0.  0.
    9000005    1    3    3    0    0  0.40485802325E+02  0.38691808408E+02  0.17975889293E+03  0.18828280807E+03  0.10000000000E+01 0.  0.
    9000005    1    3    3    0    0 -0.40485802325E+02 -0.38691808408E+02  0.59839006894E+02  0.81962570566E+02  0.10000000000E+01 0.  0.
<mgrwt>
<rscale>  0 0.12500164E+03</rscale>
<asrwt>0</asrwt>
<pdfrwt beam="2">  1        4 0.38309347E-02 0.12500164E+03</pdfrwt>
<pdfrwt beam="1">  1       -4 0.63730412E-01 0.12500164E+03</pdfrwt>
<totfact> 0.13847445E+03</totfact>
</mgrwt>
</event>
<event>
 5    1  0.1435323E-002  0.1250028E+03  0.7818608E-02  0.1235065E+00
         -4   -1    0    0    0  501 -0.00000000000E+00  0.00000000000E+00  0.24501469303E+02  0.24534361578E+02  0.12700000000E+01 0. -1.
          4   -1    0    0  501    0  0.00000000000E+00 -0.00000000000E+00 -0.15929387963E+03  0.15929894221E+03  0.12700000000E+01 0. -1.
         25    2    1    2    0    0  0.00000000000E+00  0.00000000000E+00 -0.13479241033E+03  0.18383330378E+03  0.12500275876E+03 0.  0.
    9000005    1    3    3    0    0 -0.32719563841E+02 -0.13626010404E+02  0.82976612672E+01  0.36415507685E+02  0.10000000000E+01 0.  0.
    9000005    1    3    3    0    0  0.32719563841E+02  0.13626010404E+02 -0.14309007159E+03  0.14741779610E+03  0.10000000000E+01 0.  0.
<mgrwt>
<rscale>  0 0.12500276E+03</rscale>
<asrwt>0</asrwt>
<pdfrwt beam="2">  1        4 0.39828211E-01 0.12500276E+03</pdfrwt>
<pdfrwt beam="1">  1       -4 0.61301121E-02 0.12500276E+03</pdfrwt>
<totfact> 0.16989440E+03</totfact>
</mgrwt>
</event>
<event>
 5    1  0.1435323E-002  0.1249868E+03  0.7818608E-02  0.1235090E+00
          4   -1    0    0  501    0  0.00000000000E+00  0.00000000000E+00  0.82762268295E+01  0.83731016077E+01  0.12700000000E+01 0.  1.
         -4   -1    0    0    0  501 -0.00000000000E+00 -0.00000000000E+00 -0.46904154162E+03  0.46904326098E+03  0.12700000000E+01 0.  1.
         25    2    1    2    0    0  0.00000000000E+00  0.00000000000E+00 -0.46076531479E+03  0.47741636259E+03  0.12498683109E+03 0.  0.
    9000005    1    3    3    0    0  0.19193370631E+02  0.52142357674E+02 -0.12118797603E+03  0.13332192796E+03  0.10000000000E+01 0.  0.
    9000005    1    3    3    0    0 -0.19193370631E+02 -0.52142357674E+02 -0.33957733876E+03  0.34409443463E+03  0.10000000000E+01 0.  0.
<mgrwt>
<rscale>  0 0.12498683E+03</rscale>
<asrwt>0</asrwt>
<pdfrwt beam="1">  1        4 0.20813826E-02 0.12498683E+03</pdfrwt>
<pdfrwt beam="2">  1       -4 0.11727262E+00 0.12498683E+03</pdfrwt>
<totfact> 0.91321490E+02</totfact>
</mgrwt>
</event>
<event>
 5    1  0.1435323E-002  0.1250076E+03  0.7818608E-02  0.1235057E+00
          4   -1    0    0  501    0  0.00000000000E+00  0.00000000000E+00  0.46235036368E+01  0.47947560814E+01  0.12700000000E+01 0. -1.
         -4   -1    0    0    0  501 -0.00000000000E+00 -0.00000000000E+00 -0.82943506846E+03  0.82943604075E+03  0.12700000000E+01 0. -1.
         25    2    1    2    0    0  0.00000000000E+00  0.00000000000E+00 -0.82481156482E+03  0.83423079683E+03  0.12500761942E+03 0.  0.
    9000005    1    3    3    0    0 -0.47149500604E+02 -0.31860263806E+02 -0.23998104460E+03  0.24663749428E+03  0.10000000000E+01 0.  0.
    9000005    1    3    3    0    0  0.47149500604E+02  0.31860263806E+02 -0.58483052022E+03  0.58759330255E+03  0.10000000000E+01 0.  0.
<mgrwt>
<rscale>  0 0.12500762E+03</rscale>
<asrwt>0</asrwt>
<pdfrwt beam="1">  1        4 0.11774068E-02 0.12500762E+03</pdfrwt>
<pdfrwt beam="2">  1       -4 0.20737980E+00 0.12500762E+03</pdfrwt>
<totfact> 0.49527720E+02</totfact>
</mgrwt>
</event>
<event>
 5    1  0.1435323E-002  0.1249904E+03  0.7818608E-02  0.1235084E+00
         -4   -1    0    0    0  501 -0.00000000000E+00  0.00000000000E+00  0.83839197419E+02  0.83848815876E+02  0.12700000000E+01 0.  1.
          4   -1    0    0  501    0  0.00000000000E+00 -0.00000000000E+00 -0.46564039097E+02  0.46581355036E+02  0.12700000000E+01 0.  1.
         25    2    1    2    0    0  0.00000000000E+00  0.00000000000E+00  0.37275158322E+02  0.13043017091E+03  0.12499036785E+03 0.  0.
    9000005    1    3    3    0    0 -0.72556209726E+01  0.85233141078E+01 -0.45514462333E+02  0.46881309715E+02  0.10000000000E+01 0.  0.
    9000005    1    3    3    0    0  0.72556209726E+01 -0.85233141078E+01  0.82789620656E+02  0.83548861198E+02  0.10000000000E+01 0.  0.
<mgrwt>
<rscale>  0 0.12499037E+03</rscale>
<asrwt>0</asrwt>
<pdfrwt beam="2">  1        4 0.11644377E-01 0.12499037E+03</pdfrwt>
<pdfrwt beam="1">  1       -4 0.20963166E-01 0.12499037E+03</pdfrwt>
<totfact> 0.19545679E+03</totfact>
</mgrwt>
</event>
<event>
 5    1  0.1435323E-002  0.1250105E+03  0.7818608E-02  0.1235053E+00
          4   -1    0    0  501    0  0.00000000000E+00  0.00000000000E+00  0.85931621702E+02  0.85941005977E+02  0.12700000000E+01 0.  1.
         -4   -1    0    0    0  501 -0.00000000000E+00 -0.00000000000E+00 -0.45444550391E+02  0.45462292730E+02  0.12700000000E+01 0.  1.
         25    2    1    2    0    0  0.00000000000E+00  0.00000000000E+00  0.40487071311E+02  0.13140329871E+03  0.12501049543E+03 0.  0.
    9000005    1    3    3    0    0 -0.24994518346E+02 -0.31986369042E+02  0.70192534054E+02  0.81091587657E+02  0.10000000000E+01 0.  0.
    9000005    1    3    3    0    0  0.24994518346E+02  0.31986369042E+02 -0.29705462744E+02  0.50311711049E+02  0.10000000000E+01 0.  0.
<mgrwt>
<rscale>  0 0.12501050E+03</rscale>
<asrwt>0</asrwt>
<pdfrwt beam="1">  1        4 0.21486296E-01 0.12501050E+03</pdfrwt>
<pdfrwt beam="2">  1       -4 0.11364528E-01 0.12501050E+03</pdfrwt>
<totfact> 0.19484463E+03</totfact>
</mgrwt>
</event>
<event>
 5    1  0.1435323E-002  0.1249987E+03  0.7818608E-02  0.1235071E+00
         -4   -1    0    0    0  501 -0.00000000000E+00  0.00000000000E+00  0.12763011754E+03  0.12763643603E+03  0.12700000000E+01 0. -1.
          4   -1    0    0  501    0  0.00000000000E+00 -0.00000000000E+00 -0.30585112681E+02  0.30611468728E+02  0.12700000000E+01 0. -1.
         25    2    1    2    0    0  0.00000000000E+00  0.00000000000E+00  0.97045004859E+02  0.15824790476E+03  0.12499866557E+03 0.  0.
    9000005    1    3    3    0    0 -0.30770949732E+02  0.53542262069E+02  0.60635215304E+02  0.86552033540E+02  0.10000000000E+01 0.  0.
    9000005    1    3    3    0    0  0.30770949732E+02 -0.53542262069E+02  0.36409789555E+02  0.71695871222E+02  0.10000000000E+01 0.  0.
<mgrwt>
<rscale>  0 0.12499867E+03</rscale>
<asrwt>0</asrwt>
<pdfrwt beam="2">  1        4 0.76503626E-02 0.12499867E+03</pdfrwt>
<pdfrwt beam="1">  1       -4 0.31911613E-01 0.12499867E+03</pdfrwt>
<totfact> 0.18141086E+03</totfact>
</mgrwt>
</event>
<event>
 5    1  0.1435323E-002  0.1249991E+03  0.7818608E-02  0.1235071E+00
          4   -1    0    0  501    0  0.00000000000E+00  0.00000000000E+00  0.82094298997E+02  0.82104121868E+02  0.12700000000E+01 0. -1.
         -4   -1    0    0    0  501 -0.00000000000E+00 -0.00000000000E+00 -0.47560644493E+02  0.47577597717E+02  0.12700000000E+01 0. -1.
         25    2    1    2    0    0  0.00000000000E+00  0.00000000000E+00  0.34533654504E+02  0.12968171959E+03  0.12499910040E+03 0.  0.
    9000005    1    3    3    0    0  0.51938143978E+02 -0.12178637256E+02  0.51033022870E+02  0.73832644735E+02  0.10000000000E+01 0.  0.
    9000005    1    3    3    0    0 -0.51938143978E+02  0.12178637256E+02 -0.16499368366E+02  0.55849074851E+02  0.10000000000E+01 0.  0.
<mgrwt>
<rscale>  0 0.12499910E+03</rscale>
<asrwt>0</asrwt>
<pdfrwt beam="1">  1        4 0.20526922E-01 0.12499910E+03</pdfrwt>
<pdfrwt beam="2">  1       -4 0.11893508E-01 0.12499910E+03</pdfrwt>
<totfact> 0.19581919E+03</totfact>
</mgrwt>
</event>
<event>
 5    1  0.1435323E-002  0.1249972E+03  0.7818608E-02  0.1235074E+00
          4   -1    0    0  501    0  0.00000000000E+00  0.00000000000E+00  0.10572368392E+02  0.10648374215E+02  0.12700000000E+01 0. -1.
         -4   -1    0    0    0  501 -0.00000000000E+00 -0.00000000000E+00 -0.36806039225E+03  0.36806258333E+03  0.12700000000E+01 0. -1.
         25    2    1    2    0    0  0.00000000000E+00  0.00000000000E+00 -0.35748802386E+03  0.37871095754E+03  0.12499720860E+03 0.  0.
    9000005    1    3    3    0    0  0.39455873868E+02  0.25866558271E+02 -0.30289859100E+03  0.30655244453E+03  0.10000000000E+01 0.  0.
    9000005    1    3    3    0    0 -0.39455873868E+02 -0.25866558271E+02 -0.54589432860E+02  0.72158513008E+02  0.10000000000E+01 0.  0.
<mgrwt>
<rscale>  0 0.12499721E+03</rscale>
<asrwt>0</asrwt>
<pdfrwt beam="1">  1        4 0.26528679E-02 0.12499721E+03</pdfrwt>
<pdfrwt beam="2">  1       -4 0.92024830E-01 0.12499721E+03</pdfrwt>
<totfact> 0.11021979E+03</totfact>
</mgrwt>
</event>
<event>
 5    1  0.1435323E-002  0.1250097E+03  0.7818608E-02  0.1235054E+00
          4   -1    0    0  501    0  0.00000000000E+00  0.00000000000E+00  0.36607492290E+01  0.38747883707E+01  0.12700000000E+01 0. -1.
         -4   -1    0    0    0  501 -0.00000000000E+00 -0.00000000000E+00 -0.10367002389E+04  0.10367010168E+04  0.12700000000E+01 0. -1.
         25    2    1    2    0    0  0.00000000000E+00  0.00000000000E+00 -0.10330394896E+04  0.10405758051E+04  0.12500967598E+03 0.  0.
    9000005    1    3    3    0    0 -0.55413988775E+02 -0.27410276613E+02 -0.59272895053E+03  0.59594516712E+03  0.10000000000E+01 0.  0.
    9000005    1    3    3    0    0  0.55413988775E+02  0.27410276613E+02 -0.44031053911E+03  0.44463063802E+03  0.10000000000E+01 0.  0.
<mgrwt>
<rscale>  0 0.12500968E+03</rscale>
<asrwt>0</asrwt>
<pdfrwt beam="1">  1        4 0.94204299E-03 0.12500968E+03</pdfrwt>
<pdfrwt beam="2">  1       -4 0.25920094E+00 0.12500968E+03</pdfrwt>
<totfact> 0.34439912E+02</totfact>
</mgrwt>
</event>
<event>
 5    1  0.1435323E-002  0.1249995E+03  0.7818608E-02  0.1235070E+00
         -4   -1    0    0    0  501 -0.00000000000E+00  0.00000000000E+00  0.28817739106E+02  0.28845710030E+02  0.12700000000E+01 0. -1.
          4   -1    0    0  501    0  0.00000000000E+00 -0.00000000000E+00 -0.13545248046E+03  0.13545843407E+03  0.12700000000E+01 0. -1.
         25    2    1    2    0    0  0.00000000000E+00  0.00000000000E+00 -0.10663474135E+03  0.16430414411E+03  0.12499953483E+03 0.  0.
    9000005    1    3    3    0    0  0.13446271799E+02  0.10246630060E+02 -0.13239614474E+03  0.13347484705E+03  0.10000000000E+01 0.  0.
    9000005    1    3    3    0    0 -0.13446271799E+02 -0.10246630060E+02  0.25761403384E+02  0.30829297060E+02  0.10000000000E+01 0.  0.
<mgrwt>
<rscale>  0 0.12499953E+03</rscale>
<asrwt>0</asrwt>
<pdfrwt beam="2">  1        4 0.33867359E-01 0.12499953E+03</pdfrwt>
<pdfrwt beam="1">  1       -4 0.72086757E-02 0.12499953E+03</pdfrwt>
<totfact> 0.17857250E+03</totfact>
</mgrwt>
</event>
<event>
 5    1  0.1435323E-002  0.1249999E+03  0.7818608E-02  0.1235069E+00
         -4   -1    0    0    0  501 -0.00000000000E+00  0.00000000000E+00  0.33301321508E+03  0.33301563674E+03  0.12700000000E+01 0. -1.
          4   -1    0    0  501    0  0.00000000000E+00 -0.00000000000E+00 -0.11693145751E+02  0.11761911305E+02  0.12700000000E+01 0. -1.
         25    2    1    2    0    0  0.00000000000E+00  0.00000000000E+00  0.32132006932E+03  0.34477754805E+03  0.12499988275E+03 0.  0.
    9000005    1    3    3    0    0  0.15317482269E+02  0.53122439738E+02  0.24101023727E+03  0.24727222516E+03  0.10000000000E+01 0.  0.
    9000005    1    3    3    0    0 -0.15317482269E+02 -0.53122439738E+02  0.80309832056E+02  0.97505322888E+02  0.10000000000E+01 0.  0.
<mgrwt>
<rscale>  0 0.12499988E+03</rscale>
<asrwt>0</asrwt>
<pdfrwt beam="2">  1        4 0.29321849E-02 0.12499988E+03</pdfrwt>
<pdfrwt beam="1">  1       -4 0.83262199E-01 0.12499988E+03</pdfrwt>
<totfact> 0.11802896E+03</totfact>
</mgrwt>
</event>
<event>
 5    1  0.1435323E-002  0.1249901E+03  0.7818608E-02  0.1235085E+00
         -4   -1    0    0    0  501 -0.00000000000E+00  0.00000000000E+00  0.31463188787E+02  0.31488809896E+02  0.12700000000E+01 0. -1.
          4   -1    0    0  501    0  0.00000000000E+00 -0.00000000000E+00 -0.12405391415E+03  0.12406041478E+03  0.12700000000E+01 0. -1.
         25    2    1    2    0    0  0.00000000000E+00  0.00000000000E+00 -0.92590725359E+02  0.15554922467E+03  0.12499007510E+03 0.  0.
    9000005    1    3    3    0    0 -0.37413690370E+02  0.21277177837E+02  0.10080663422E+02  0.44216764907E+02  0.10000000000E+01 0.  0.
    9000005    1    3    3    0    0  0.37413690370E+02 -0.21277177837E+02 -0.10267138878E+03  0.11133245977E+03  0.10000000000E+01 0.  0.
<mgrwt>
<rscale>  0 0.12499008E+03</rscale>
<asrwt>0</asrwt>
<pdfrwt beam="2">  1        4 0.31017493E-01 0.12499008E+03</pdfrwt>
<pdfrwt beam="1">  1       -4 0.78698127E-02 0.12499008E+03</pdfrwt>
<totfact> 0.18273465E+03</totfact>
</mgrwt>
</event>
<event>
 5    1  0.1435323E-002  0.1249999E+03  0.7818608E-02  0.1235069E+00
          4   -1    0    0  501    0  0.00000000000E+00  0.00000000000E+00  0.83542960796E+02  0.83552613356E+02  0.12700000000E+01 0.  1.
         -4   -1    0    0    0  501 -0.00000000000E+00 -0.00000000000E+00 -0.46736314820E+02  0.46753566954E+02  0.12700000000E+01 0.  1.
         25    2    1    2    0    0  0.00000000000E+00  0.00000000000E+00  0.36806645977E+02  0.13030618031E+03  0.12499988576E+03 0.  0.
    9000005    1    3    3    0    0 -0.98088579470E+01 -0.60378622307E+02  0.50758022492E+01  0.61388561593E+02  0.10000000000E+01 0.  0.
    9000005    1    3    3    0    0  0.98088579470E+01  0.60378622307E+02  0.31730843727E+02  0.68917618717E+02  0.10000000000E+01 0.  0.
<mgrwt>
<rscale>  0 0.12499989E+03</rscale>
<asrwt>0</asrwt>
<pdfrwt beam="1">  1        4 0.20889103E-01 0.12499989E+03</pdfrwt>
<pdfrwt beam="2">  1       -4 0.11687442E-01 0.12499989E+03</pdfrwt>
<totfact> 0.19547989E+03</totfact>
</mgrwt>
</event>
<event>
 5    1  0.1435323E-002  0.1250030E+03  0.7818608E-02  0.1235065E+00
          4   -1    0    0  501    0  0.00000000000E+00  0.00000000000E+00  0.27430632178E+03  0.27430926173E+03  0.12700000000E+01 0.  1.
         -4   -1    0    0    0  501 -0.00000000000E+00 -0.00000000000E+00 -0.14209818091E+02  0.14266458221E+02  0.12700000000E+01 0.  1.
         25    2    1    2    0    0  0.00000000000E+00  0.00000000000E+00  0.26009650369E+03  0.28857571995E+03  0.12500301961E+03 0.  0.
    9000005    1    3    3    0    0 -0.53180489461E+02 -0.26915647492E+02  0.17341104298E+03  0.18337122557E+03  0.10000000000E+01 0.  0.
    9000005    1    3    3    0    0  0.53180489461E+02  0.26915647492E+02  0.86685460717E+02  0.10520449439E+03  0.10000000000E+01 0.  0.
<mgrwt>
<rscale>  0 0.12500302E+03</rscale>
<asrwt>0</asrwt>
<pdfrwt beam="1">  1        4 0.68584026E-01 0.12500302E+03</pdfrwt>
<pdfrwt beam="2">  1       -4 0.35599021E-02 0.12500302E+03</pdfrwt>
<totfact> 0.13296472E+03</totfact>
</mgrwt>
</event>
<event>
 5    1  0.1435323E-002  0.1250326E+03  0.7818608E-02  0.1235018E+00
         -4   -1    0    0    0  501 -0.00000000000E+00  0.00000000000E+00  0.28121432020E+03  0.28121718793E+03  0.12700000000E+01 0.  1.
          4   -1    0    0  501    0  0.00000000000E+00 -0.00000000000E+00 -0.13865939627E+02  0.13923978660E+02  0.12700000000E+01 0.  1.
         25    2    1    2    0    0  0.00000000000E+00  0.00000000000E+00  0.26734838058E+03  0.29514116659E+03  0.12503260223E+03 0.  0.
    9000005    1    3    3    0    0 -0.17096547240E+02  0.50395894684E+02  0.21107779743E+03  0.21768526523E+03  0.10000000000E+01 0.  0.
    9000005    1    3    3    0    0  0.17096547240E+02 -0.50395894684E+02  0.56270583145E+02  0.77455901364E+02  0.10000000000E+01 0.  0.
<mgrwt>
<rscale>  0 0.12503260E+03</rscale>
<asrwt>0</asrwt>
<pdfrwt beam="2">  1        4 0.34740983E-02 0.12503260E+03</pdfrwt>
<pdfrwt beam="1">  1       -4 0.70311193E-01 0.12503260E+03</pdfrwt>
<totfact> 0.13098545E+03</totfact>
</mgrwt>
</event>
<event>
 5    1  0.1435323E-002  0.1250005E+03  0.7818608E-02  0.1235068E+00
         -4   -1    0    0    0  501 -0.00000000000E+00  0.00000000000E+00  0.44937285578E+03  0.44937465039E+03  0.12700000000E+01 0. -1.
          4   -1    0    0  501    0  0.00000000000E+00 -0.00000000000E+00 -0.86445356333E+01  0.87373277559E+01  0.12700000000E+01 0. -1.
         25    2    1    2    0    0  0.00000000000E+00  0.00000000000E+00  0.44072832015E+03  0.45811197814E+03  0.12500052936E+03 0.  0.
    9000005    1    3    3    0    0 -0.59929591597E+02  0.22275087004E+01  0.15596590980E+03  0.16710141461E+03  0.10000000000E+01 0.  0.
    9000005    1    3    3    0    0  0.59929591597E+02 -0.22275087004E+01  0.28476241034E+03  0.29101056353E+03  0.10000000000E+01 0.  0.
<mgrwt>
<rscale>  0 0.12500053E+03</rscale>
<asrwt>0</asrwt>
<pdfrwt beam="2">  1        4 0.21729573E-02 0.12500053E+03</pdfrwt>
<pdfrwt beam="1">  1       -4 0.11235504E+00 0.12500053E+03</pdfrwt>
<totfact> 0.94577476E+02</totfact>
</mgrwt>
</event>
<event>
 5    1  0.1435323E-002  0.1250016E+03  0.7818608E-02  0.1235067E+00
          4   -1    0    0  501    0  0.00000000000E+00  0.00000000000E+00  0.19264381517E+03  0.19264800134E+03  0.12700000000E+01 0. -1.
         -4   -1    0    0    0  501 -0.00000000000E+00 -0.00000000000E+00 -0.20253268371E+02  0.20293047571E+02  0.12700000000E+01 0. -1.
         25    2    1    2    0    0  0.00000000000E+00  0.00000000000E+00  0.17239054679E+03  0.21294104891E+03  0.12500155874E+03 0.  0.
    9000005    1    3    3    0    0  0.42658581590E+02 -0.45240255747E+02  0.75568870254E+02  0.97867714160E+02  0.10000000000E+01 0.  0.
    9000005    1    3    3    0    0 -0.42658581590E+02  0.45240255747E+02  0.96821676541E+02  0.11507333475E+03  0.10000000000E+01 0.  0.
<mgrwt>
<rscale>  0 0.12500156E+03</rscale>
<asrwt>0</asrwt>
<pdfrwt beam="1">  1        4 0.48166449E-01 0.12500156E+03</pdfrwt>
<pdfrwt beam="2">  1       -4 0.50688128E-02 0.12500156E+03</pdfrwt>
<totfact> 0.15816081E+03</totfact>
</mgrwt>
</event>
<event>
 5    1  0.1435323E-002  0.1249837E+03  0.7818608E-02  0.1235095E+00
         -4   -1    0    0    0  501 -0.00000000000E+00  0.00000000000E+00  0.17536263493E+03  0.17536723363E+03  0.12700000000E+01 0. -1.
          4   -1    0    0  501    0  0.00000000000E+00 -0.00000000000E+00 -0.22246461264E+02  0.22282682486E+02  0.12700000000E+01 0. -1.
         25    2    1    2    0    0  0.00000000000E+00  0.00000000000E+00  0.15311617367E+03  0.19764991612E+03  0.12498370574E+03 0.  0.
    9000005    1    3    3    0    0  0.29878730093E+02  0.47016181088E+02  0.12131414933E+03  0.13349675136E+03  0.10000000000E+01 0.  0.
    9000005    1    3    3    0    0 -0.29878730093E+02 -0.47016181088E+02  0.31802024337E+02  0.64153164754E+02  0.10000000000E+01 0.  0.
<mgrwt>
<rscale>  0 0.12498371E+03</rscale>
<asrwt>0</asrwt>
<pdfrwt beam="2">  1        4 0.55667179E-02 0.12498371E+03</pdfrwt>
<pdfrwt beam="1">  1       -4 0.43845760E-01 0.12498371E+03</pdfrwt>
<totfact> 0.16422765E+03</totfact>
</mgrwt>
</event>
<event>
 5    1  0.1435323E-002  0.1250010E+03  0.7818608E-02  0.1235068E+00
          4   -1    0    0  501    0  0.00000000000E+00  0.00000000000E+00  0.77523277369E+01  0.78556658114E+01  0.12700000000E+01 0.  1.
         -4   -1    0    0    0  501 -0.00000000000E+00 -0.00000000000E+00 -0.50044897899E+03  0.50045059044E+03  0.12700000000E+01 0.  1.
         25    2    1    2    0    0  0.00000000000E+00  0.00000000000E+00 -0.49269665126E+03  0.50830625625E+03  0.12500103995E+03 0.  0.
    9000005    1    3    3    0    0 -0.21218860605E+02  0.16753259544E+02 -0.17238942385E+02  0.32079477634E+02  0.10000000000E+01 0.  0.
    9000005    1    3    3    0    0  0.21218860605E+02 -0.16753259544E+02 -0.47545770887E+03  0.47622677862E+03  0.10000000000E+01 0.  0.
<mgrwt>
<rscale>  0 0.12500104E+03</rscale>
<asrwt>0</asrwt>
<pdfrwt beam="1">  1        4 0.19512023E-02 0.12500104E+03</pdfrwt>
<pdfrwt beam="2">  1       -4 0.12512526E+00 0.12500104E+03</pdfrwt>
<totfact> 0.86298760E+02</totfact>
</mgrwt>
</event>
<event>
 5    1  0.1435323E-002  0.1249915E+03  0.7818608E-02  0.1235083E+00
          4   -1    0    0  501    0  0.00000000000E+00  0.00000000000E+00  0.16238401463E+02  0.16287988890E+02  0.12700000000E+01 0.  1.
         -4   -1    0    0    0  501 -0.00000000000E+00 -0.00000000000E+00 -0.24010555357E+03  0.24010891228E+03  0.12700000000E+01 0.  1.
         25    2    1    2    0    0  0.00000000000E+00  0.00000000000E+00 -0.22386715211E+03  0.25639690117E+03  0.12499147625E+03 0.  0.
    9000005    1    3    3    0    0 -0.19300960473E+02  0.54252758000E+02 -0.62156799379E+02  0.84736984457E+02  0.10000000000E+01 0.  0.
    9000005    1    3    3    0    0  0.19300960473E+02 -0.54252758000E+02 -0.16171035273E+03  0.17165991671E+03  0.10000000000E+01 0.  0.
<mgrwt>
<rscale>  0 0.12499148E+03</rscale>
<asrwt>0</asrwt>
<pdfrwt beam="1">  1        4 0.40662194E-02 0.12499148E+03</pdfrwt>
<pdfrwt beam="2">  1       -4 0.60032995E-01 0.12499148E+03</pdfrwt>
<totfact> 0.14290387E+03</totfact>
</mgrwt>
</event>
<event>
 5    1  0.1435323E-002  0.1249997E+03  0.7818608E-02  0.1235070E+00
          4   -1    0    0  501    0  0.00000000000E+00  0.00000000000E+00  0.11711254651E+02  0.11779914495E+02  0.12700000000E+01 0. -1.
         -4   -1    0    0    0  501 -0.00000000000E+00 -0.00000000000E+00 -0.33250043322E+03  0.33250285862E+03  0.12700000000E+01 0. -1.
         25    2    1    2    0    0  0.00000000000E+00  0.00000000000E+00 -0.32078917857E+03  0.34428277312E+03  0.12499972311E+03 0.  0.
    9000005    1    3    3    0    0  0.94482057571E+01 -0.19217495289E+02 -0.32209270461E+03  0.32280534550E+03  0.10000000000E+01 0.  0.
    9000005    1    3    3    0    0 -0.94482057571E+01  0.19217495289E+02  0.13035260387E+01  0.21477427624E+02  0.10000000000E+01 0.  0.
<mgrwt>
<rscale>  0 0.12499972E+03</rscale>
<asrwt>0</asrwt>
<pdfrwt beam="1">  1        4 0.29367004E-02 0.12499972E+03</pdfrwt>
<pdfrwt beam="2">  1       -4 0.83133963E-01 0.12499972E+03</pdfrwt>
<totfact> 0.11814937E+03</totfact>
</mgrwt>
</event>
<event>
 5    1  0.1435323E-002  0.1249986E+03  0.7818608E-02  0.1235071E+00
         -4   -1    0    0    0  501 -0.00000000000E+00  0.00000000000E+00  0.57952773851E+02  0.57966687822E+02  0.12700000000E+01 0.  1.
          4   -1    0    0  501    0  0.00000000000E+00 -0.00000000000E+00 -0.67374524749E+02  0.67386493343E+02  0.12700000000E+01 0.  1.
         25    2    1    2    0    0  0.00000000000E+00  0.00000000000E+00 -0.94217508976E+01  0.12535318116E+03  0.12499860254E+03 0.  0.
    9000005    1    3    3    0    0  0.34092560322E+01 -0.48197977041E+02  0.35031006741E+02  0.59689525470E+02  0.10000000000E+01 0.  0.
    9000005    1    3    3    0    0 -0.34092560322E+01  0.48197977041E+02 -0.44452757639E+02  0.65663655695E+02  0.10000000000E+01 0.  0.
<mgrwt>
<rscale>  0 0.12499860E+03</rscale>
<asrwt>0</asrwt>
<pdfrwt beam="2">  1        4 0.16846866E-01 0.12499860E+03</pdfrwt>
<pdfrwt beam="1">  1       -4 0.14491429E-01 0.12499860E+03</pdfrwt>
<totfact> 0.19816562E+03</totfact>
</mgrwt>
</event>
<event>
 5    1  0.1435323E-002  0.1250084E+03  0.7818608E-02  0.1235056E+00
          4   -1    0    0  501    0  0.00000000000E+00  0.00000000000E+00  0.37860943175E+03  0.37861156178E+03  0.12700000000E+01 0.  1.
         -4   -1    0    0    0  501 -0.00000000000E+00 -0.00000000000E+00 -0.10277496510E+02  0.10355666783E+02  0.12700000000E+01 0.  1.
         25    2    1    2    0    0  0.00000000000E+00  0.00000000000E+00  0.36833193524E+03  0.38896722856E+03  0.12500836122E+03 0.  0.
    9000005    1    3    3    0    0 -0.53438230306E+02  0.18910020291E+02  0.10228251387E+03  0.11694420024E+03  0.10000000000E+01 0.  0.
    9000005    1    3    3    0    0  0.53438230306E+02 -0.18910020291E+02  0.26604942137E+03  0.27202302832E+03  0.10000000000E+01 0.  0.
<mgrwt>
<rscale>  0 0.12500836E+03</rscale>
<asrwt>0</asrwt>
<pdfrwt beam="1">  1        4 0.94662395E-01 0.12500836E+03</pdfrwt>
<pdfrwt beam="2">  1       -4 0.25794117E-02 0.12500836E+03</pdfrwt>
<totfact> 0.10797984E+03</totfact>
</mgrwt>
</event>
<event>
 5    1  0.1435323E-002  0.1250018E+03  0.7818608E-02  0.1235067E+00
          4   -1    0    0  501    0  0.00000000000E+00  0.00000000000E+00  0.32405836615E+02  0.32430713016E+02  0.12700000000E+01 0. -1.
         -4   -1    0    0    0  501 -0.00000000000E+00 -0.00000000000E+00 -0.12047051081E+03  0.12047720480E+03  0.12700000000E+01 0. -1.
         25    2    1    2    0    0  0.00000000000E+00  0.00000000000E+00 -0.88064674197E+02  0.15290791781E+03  0.12500177794E+03 0.  0.
    9000005    1    3    3    0    0  0.16233668092E+02 -0.59398287182E+02 -0.57074262847E+02  0.83965230777E+02  0.10000000000E+01 0.  0.
    9000005    1    3    3    0    0 -0.16233668092E+02  0.59398287182E+02 -0.30990411350E+02  0.68942687035E+02  0.10000000000E+01 0.  0.
<mgrwt>
<rscale>  0 0.12500178E+03</rscale>
<asrwt>0</asrwt>
<pdfrwt beam="1">  1        4 0.81054057E-02 0.12500178E+03</pdfrwt>
<pdfrwt beam="2">  1       -4 0.30121573E-01 0.12500178E+03</pdfrwt>
<totfact> 0.18395956E+03</totfact>
</mgrwt>
</event>
<event>
 5    1  0.1435323E-002  0.1249990E+03  0.7818608E-02  0.1235071E+00
         -4   -1    0    0    0  501 -0.00000000000E+00  0.00000000000E+00  0.92290116509E+02  0.92298854300E+02  0.12700000000E+01 0.  1.
          4   -1    0    0  501    0  0.00000000000E+00 -0.00000000000E+00 -0.42304840326E+02  0.42323898864E+02  0.12700000000E+01 0.  1.
         25    2    1    2    0    0  0.00000000000E+00  0.00000000000E+00  0.49985276182E+02  0.13462275316E+03  0.12499903133E+03 0.  0.
    9000005    1    3    3    0    0 -0.55281348568E+02 -0.79520004015E+01 -0.52001420294E+01  0.56100831429E+02  0.10000000000E+01 0.  0.
    9000005    1    3    3    0    0  0.55281348568E+02  0.79520004015E+01  0.55185418211E+02  0.78521921736E+02  0.10000000000E+01 0.  0.
<mgrwt>
<rscale>  0 0.12499903E+03</rscale>
<asrwt>0</asrwt>
<pdfrwt beam="2">  1        4 0.10579685E-01 0.12499903E+03</pdfrwt>
<pdfrwt beam="1">  1       -4 0.23076003E-01 0.12499903E+03</pdfrwt>
<totfact> 0.19319352E+03</totfact>
</mgrwt>
</event>
<event>
 5    1  0.1435323E-002  0.1249987E+03  0.7818608E-02  0.1235071E+00
         -4   -1    0    0    0  501 -0.00000000000E+00  0.00000000000E+00  0.72365896305E+02  0.72377039509E+02  0.12700000000E+01 0. -1.
          4   -1    0    0  501    0  0.00000000000E+00 -0.00000000000E+00 -0.53955259556E+02  0.53970204130E+02  0.12700000000E+01 0. -1.
         25    2    1    2    0    0  0.00000000000E+00  0.00000000000E+00  0.18410636749E+02  0.12634724364E+03  0.12499869771E+03 0.  0.
    9000005    1    3    3    0    0  0.48509040568E+02  0.76119502566E+01  0.48275919026E+02  0.68866778357E+02  0.10000000000E+01 0.  0.
    9000005    1    3    3    0    0 -0.48509040568E+02 -0.76119502566E+01 -0.29865282277E+02  0.57480465281E+02  0.10000000000E+01 0.  0.
<mgrwt>
<rscale>  0 0.12499870E+03</rscale>
<asrwt>0</asrwt>
<pdfrwt beam="2">  1        4 0.13492076E-01 0.12499870E+03</pdfrwt>
<pdfrwt beam="1">  1       -4 0.18094735E-01 0.12499870E+03</pdfrwt>
<totfact> 0.19762769E+03</totfact>
</mgrwt>
</event>
<event>
 5    1  0.1435323E-002  0.1250041E+03  0.7818608E-02  0.1235063E+00
         -4   -1    0    0    0  501 -0.00000000000E+00  0.00000000000E+00  0.12131333188E+03  0.12131997936E+03  0.12700000000E+01 0. -1.
          4   -1    0    0  501    0  0.00000000000E+00 -0.00000000000E+00 -0.32181718368E+02  0.32206767877E+02  0.12700000000E+01 0. -1.
         25    2    1    2    0    0  0.00000000000E+00  0.00000000000E+00  0.89131613515E+02  0.15352674724E+03  0.12500407029E+03 0.  0.
    9000005    1    3    3    0    0 -0.61554918993E+00  0.18139507476E+02 -0.28879447011E+02  0.34123937228E+02  0.10000000000E+01 0.  0.
    9000005    1    3    3    0    0  0.61554918993E+00 -0.18139507476E+02  0.11801106053E+03  0.11940281001E+03  0.10000000000E+01 0.  0.
<mgrwt>
<rscale>  0 0.12500407E+03</rscale>
<asrwt>0</asrwt>
<pdfrwt beam="2">  1        4 0.80493918E-02 0.12500407E+03</pdfrwt>
<pdfrwt beam="1">  1       -4 0.30332295E-01 0.12500407E+03</pdfrwt>
<totfact> 0.18364980E+03</totfact>
</mgrwt>
</event>
<event>
 5    1  0.1435323E-002  0.1249958E+03  0.7818608E-02  0.1235076E+00
          4   -1    0    0  501    0  0.00000000000E+00  0.00000000000E+00  0.12916472672E+02  0.12978758272E+02  0.12700000000E+01 0. -1.
         -4   -1    0    0    0  501 -0.00000000000E+00 -0.00000000000E+00 -0.30161263294E+03  0.30161530672E+03  0.12700000000E+01 0. -1.
         25    2    1    2    0    0  0.00000000000E+00  0.00000000000E+00 -0.28869616027E+03  0.31459406499E+03  0.12499581103E+03 0.  0.
    9000005    1    3    3    0    0  0.62251607471E+02 -0.47493402001E+01 -0.13760909779E+03  0.15111281435E+03  0.10000000000E+01 0.  0.
    9000005    1    3    3    0    0 -0.62251607471E+02  0.47493402001E+01 -0.15108706248E+03  0.16348125065E+03  0.10000000000E+01 0.  0.
<mgrwt>
<rscale>  0 0.12499581E+03</rscale>
<asrwt>0</asrwt>
<pdfrwt beam="1">  1        4 0.32372391E-02 0.12499581E+03</pdfrwt>
<pdfrwt beam="2">  1       -4 0.75411255E-01 0.12499581E+03</pdfrwt>
<totfact> 0.12572875E+03</totfact>
</mgrwt>
</event>
<event>
 5    1  0.1435323E-002  0.1250147E+03  0.7818608E-02  0.1235046E+00
          4   -1    0    0  501    0  0.00000000000E+00  0.00000000000E+00  0.24024801306E+03  0.24025136977E+03  0.12700000000E+01 0.  1.
         -4   -1    0    0    0  501 -0.00000000000E+00 -0.00000000000E+00 -0.16234799140E+02  0.16284397536E+02  0.12700000000E+01 0.  1.
         25    2    1    2    0    0  0.00000000000E+00  0.00000000000E+00  0.22401321392E+03  0.25653576731E+03  0.12501471873E+03 0.  0.
    9000005    1    3    3    0    0 -0.63189555990E+01 -0.37257744671E+01  0.23937162874E+03  0.23948608987E+03  0.10000000000E+01 0.  0.
    9000005    1    3    3    0    0  0.63189555990E+01  0.37257744671E+01 -0.15358414818E+02  0.17049677444E+02  0.10000000000E+01 0.  0.
<mgrwt>
<rscale>  0 0.12501472E+03</rscale>
<asrwt>0</asrwt>
<pdfrwt beam="1">  1        4 0.60068623E-01 0.12501472E+03</pdfrwt>
<pdfrwt beam="2">  1       -4 0.40653192E-02 0.12501472E+03</pdfrwt>
<totfact> 0.14278239E+03</totfact>
</mgrwt>
</event>
<event>
 5    1  0.1435323E-002  0.1250006E+03  0.7818608E-02  0.1235068E+00
          4   -1    0    0  501    0  0.00000000000E+00  0.00000000000E+00  0.39918520364E+02  0.39938717657E+02  0.12700000000E+01 0.  1.
         -4   -1    0    0    0  501 -0.00000000000E+00 -0.00000000000E+00 -0.97807519518E+02  0.97815764447E+02  0.12700000000E+01 0.  1.
         25    2    1    2    0    0  0.00000000000E+00  0.00000000000E+00 -0.57888999154E+02  0.13775448210E+03  0.12500064446E+03 0.  0.
    9000005    1    3    3    0    0  0.56822028885E+02  0.12473637874E+02 -0.37912632554E+01  0.58307017463E+02  0.10000000000E+01 0.  0.
    9000005    1    3    3    0    0 -0.56822028885E+02 -0.12473637874E+02 -0.54097735899E+02  0.79447464640E+02  0.10000000000E+01 0.  0.
<mgrwt>
<rscale>  0 0.12500064E+03</rscale>
<asrwt>0</asrwt>
<pdfrwt beam="1">  1        4 0.99831856E-02 0.12500064E+03</pdfrwt>
<pdfrwt beam="2">  1       -4 0.24455435E-01 0.12500064E+03</pdfrwt>
<totfact> 0.19155527E+03</totfact>
</mgrwt>
</event>
<event>
 5    1  0.1435323E-002  0.1250021E+03  0.7818608E-02  0.1235066E+00
         -4   -1    0    0    0  501 -0.00000000000E+00  0.00000000000E+00  0.13259157117E+03  0.13259765324E+03  0.12700000000E+01 0. -1.
          4   -1    0    0  501    0  0.00000000000E+00 -0.00000000000E+00 -0.29441309931E+02  0.29468688984E+02  0.12700000000E+01 0. -1.
         25    2    1    2    0    0  0.00000000000E+00  0.00000000000E+00  0.10315026124E+03  0.16206634223E+03  0.12500209154E+03 0.  0.
    9000005    1    3    3    0    0  0.16468943949E+02  0.91994240094E+01  0.12881840633E+03  0.13019614943E+03  0.10000000000E+01 0.  0.
    9000005    1    3    3    0    0 -0.16468943949E+02 -0.91994240094E+01 -0.25668145088E+02  0.31870192801E+02  0.10000000000E+01 0.  0.
<mgrwt>
<rscale>  0 0.12500209E+03</rscale>
<asrwt>0</asrwt>
<pdfrwt beam="2">  1        4 0.73645102E-02 0.12500209E+03</pdfrwt>
<pdfrwt beam="1">  1       -4 0.33152075E-01 0.12500209E+03</pdfrwt>
<totfact> 0.17960068E+03</totfact>
</mgrwt>
</event>
<event>
 5    1  0.1435323E-002  0.1249998E+03  0.7818608E-02  0.1235070E+00
          4   -1    0    0  501    0  0.00000000000E+00  0.00000000000E+00  0.78766219235E+03  0.78766321620E+03  0.12700000000E+01 0. -1.
         -4   -1    0    0    0  501 -0.00000000000E+00 -0.00000000000E+00 -0.48769251890E+01  0.50395733251E+01  0.12700000000E+01 0. -1.
         25    2    1    2    0    0  0.00000000000E+00  0.00000000000E+00  0.78278526716E+03  0.79270278952E+03  0.12499975216E+03 0.  0.
    9000005    1    3    3    0    0 -0.55034561053E+02  0.24909255228E+02  0.28993428307E+03  0.29616239195E+03  0.10000000000E+01 0.  0.
    9000005    1    3    3    0    0  0.55034561053E+02 -0.24909255228E+02  0.49285098409E+03  0.49654039757E+03  0.10000000000E+01 0.  0.
<mgrwt>
<rscale>  0 0.12499975E+03</rscale>
<asrwt>0</asrwt>
<pdfrwt beam="1">  1        4 0.19693598E+00 0.12499975E+03</pdfrwt>
<pdfrwt beam="2">  1       -4 0.12396904E-02 0.12499975E+03</pdfrwt>
<totfact> 0.53126953E+02</totfact>
</mgrwt>
</event>
<event>
 5    1  0.1435323E-002  0.1250005E+03  0.7818608E-02  0.1235069E+00
         -4   -1    0    0    0  501 -0.00000000000E+00  0.00000000000E+00  0.77554350552E+02  0.77564748369E+02  0.12700000000E+01 0.  1.
          4   -1    0    0  501    0  0.00000000000E+00 -0.00000000000E+00 -0.50346485436E+02  0.50362500889E+02  0.12700000000E+01 0.  1.
         25    2    1    2    0    0  0.00000000000E+00  0.00000000000E+00  0.27207865116E+02  0.12792724926E+03  0.12500045271E+03 0.  0.
    9000005    1    3    3    0    0 -0.42139271520E+02 -0.33601210574E+02 -0.18767661756E+02  0.57078758607E+02  0.10000000000E+01 0.  0.
    9000005    1    3    3    0    0  0.42139271520E+02  0.33601210574E+02  0.45975526872E+02  0.70848490651E+02  0.10000000000E+01 0.  0.
<mgrwt>
<rscale>  0 0.12500045E+03</rscale>
<asrwt>0</asrwt>
<pdfrwt beam="2">  1        4 0.12589923E-01 0.12500045E+03</pdfrwt>
<pdfrwt beam="1">  1       -4 0.19391889E-01 0.12500045E+03</pdfrwt>
<totfact> 0.19676285E+03</totfact>
</mgrwt>
</event>
<event>
 5    1  0.1435323E-002  0.1250000E+03  0.7818608E-02  0.1235069E+00
         -4   -1    0    0    0  501 -0.00000000000E+00  0.00000000000E+00  0.17134577847E+02  0.17181579031E+02  0.12700000000E+01 0.  1.
          4   -1    0    0  501    0  0.00000000000E+00 -0.00000000000E+00 -0.22761379614E+03  0.22761733917E+03  0.12700000000E+01 0.  1.
         25    2    1    2    0    0  0.00000000000E+00  0.00000000000E+00 -0.21047921829E+03  0.24479891821E+03  0.12500003609E+03 0.  0.
    9000005    1    3    3    0    0  0.24082840368E+02 -0.45030785971E+02 -0.34696824537E+02  0.61746453488E+02  0.10000000000E+01 0.  0.
    9000005    1    3    3    0    0 -0.24082840368E+02  0.45030785971E+02 -0.17578239375E+03  0.18305246472E+03  0.10000000000E+01 0.  0.
<mgrwt>
<rscale>  0 0.12500004E+03</rscale>
<asrwt>0</asrwt>
<pdfrwt beam="2">  1        4 0.56909757E-01 0.12500004E+03</pdfrwt>
<pdfrwt beam="1">  1       -4 0.42899632E-02 0.12500004E+03</pdfrwt>
<totfact> 0.14672532E+03</totfact>
</mgrwt>
</event>
<event>
 5    1  0.1435323E-002  0.1249993E+03  0.7818608E-02  0.1235070E+00
         -4   -1    0    0    0  501 -0.00000000000E+00  0.00000000000E+00  0.10955406161E+03  0.10956142256E+03  0.12700000000E+01 0.  1.
          4   -1    0    0  501    0  0.00000000000E+00 -0.00000000000E+00 -0.35635646182E+02  0.35658269431E+02  0.12700000000E+01 0.  1.
         25    2    1    2    0    0  0.00000000000E+00  0.00000000000E+00  0.73918415423E+02  0.14521969200E+03  0.12499930722E+03 0.  0.
    9000005    1    3    3    0    0 -0.34255939603E+02  0.48813800714E+02  0.15257215266E+02  0.61563293901E+02  0.10000000000E+01 0.  0.
    9000005    1    3    3    0    0  0.34255939603E+02 -0.48813800714E+02  0.58661200158E+02  0.83656398095E+02  0.10000000000E+01 0.  0.
<mgrwt>
<rscale>  0 0.12499931E+03</rscale>
<asrwt>0</asrwt>
<pdfrwt beam="2">  1        4 0.89126596E-02 0.12499931E+03</pdfrwt>
<pdfrwt beam="1">  1       -4 0.27392263E-01 0.12499931E+03</pdfrwt>
<totfact> 0.18776646E+03</totfact>
</mgrwt>
</event>
<event>
 5    1  0.1435323E-002  0.1250030E+03  0.7818608E-02  0.1235065E+00
         -4   -1    0    0    0  501 -0.00000000000E+00  0.00000000000E+00  0.47097607307E+03  0.47097778536E+03  0.12700000000E+01 0.  1.
          4   -1    0    0  501    0  0.00000000000E+00 -0.00000000000E+00 -0.82439903596E+01  0.83412395391E+01  0.12700000000E+01 0.  1.
         25    2    1    2    0    0  0.00000000000E+00  0.00000000000E+00  0.46273208271E+03  0.47931902490E+03  0.12500298901E+03 0.  0.
    9000005    1    3    3    0    0 -0.48663376086E+02  0.16990522135E+02  0.36686064127E+03  0.37046529140E+03  0.10000000000E+01 0.  0.
    9000005    1    3    3    0    0  0.48663376086E+02 -0.16990522135E+02  0.95871441440E+02  0.10885373351E+03  0.10000000000E+01 0.  0.
<mgrwt>
<rscale>  0 0.12500299E+03</rscale>
<asrwt>0</asrwt>
<pdfrwt beam="2">  1        4 0.20733680E-02 0.12500299E+03</pdfrwt>
<pdfrwt beam="1">  1       -4 0.11775638E+00 0.12500299E+03</pdfrwt>
<totfact> 0.90974129E+02</totfact>
</mgrwt>
</event>
<event>
 5    1  0.1435323E-002  0.1250034E+03  0.7818608E-02  0.1235064E+00
         -4   -1    0    0    0  501 -0.00000000000E+00  0.00000000000E+00  0.84097368769E+01  0.85050910835E+01  0.12700000000E+01 0.  1.
          4   -1    0    0  501    0  0.00000000000E+00 -0.00000000000E+00 -0.46180207501E+03  0.46180382132E+03  0.12700000000E+01 0.  1.
         25    2    1    2    0    0  0.00000000000E+00  0.00000000000E+00 -0.45339233814E+03  0.47030891241E+03  0.12500344318E+03 0.  0.
    9000005    1    3    3    0    0  0.65898952650E+01  0.48463065806E+02 -0.80332342487E+02  0.94055200369E+02  0.10000000000E+01 0.  0.
    9000005    1    3    3    0    0 -0.65898952650E+01 -0.48463065806E+02 -0.37305999565E+03  0.37625371204E+03  0.10000000000E+01 0.  0.
<mgrwt>
<rscale>  0 0.12500344E+03</rscale>
<asrwt>0</asrwt>
<pdfrwt beam="2">  1        4 0.11546257E+00 0.12500344E+03</pdfrwt>
<pdfrwt beam="1">  1       -4 0.21145733E-02 0.12500344E+03</pdfrwt>
<totfact> 0.92474509E+02</totfact>
</mgrwt>
</event>
<event>
 5    1  0.1435323E-002  0.1249899E+03  0.7818608E-02  0.1235085E+00
         -4   -1    0    0    0  501 -0.00000000000E+00  0.00000000000E+00  0.13267482810E+02  0.13328128155E+02  0.12700000000E+01 0. -1.
          4   -1    0    0  501    0  0.00000000000E+00 -0.00000000000E+00 -0.29364198807E+03  0.29364473443E+03  0.12700000000E+01 0. -1.
         25    2    1    2    0    0  0.00000000000E+00  0.00000000000E+00 -0.28037450526E+03  0.30697286259E+03  0.12498990024E+03 0.  0.
    9000005    1    3    3    0    0  0.10568077635E+02 -0.61477064715E+02 -0.13116171675E+03  0.14524293336E+03  0.10000000000E+01 0.  0.
    9000005    1    3    3    0    0 -0.10568077635E+02  0.61477064715E+02 -0.14921278852E+03  0.16172992923E+03  0.10000000000E+01 0.  0.
<mgrwt>
<rscale>  0 0.12498990E+03</rscale>
<asrwt>0</asrwt>
<pdfrwt beam="2">  1        4 0.73418400E-01 0.12498990E+03</pdfrwt>
<pdfrwt beam="1">  1       -4 0.33247956E-02 0.12498990E+03</pdfrwt>
<totfact> 0.12780812E+03</totfact>
</mgrwt>
</event>
<event>
 5    1  0.1435323E-002  0.1249981E+03  0.7818608E-02  0.1235072E+00
         -4   -1    0    0    0  501 -0.00000000000E+00  0.00000000000E+00  0.52832411670E+02  0.52847673770E+02  0.12700000000E+01 0.  1.
          4   -1    0    0  501    0  0.00000000000E+00 -0.00000000000E+00 -0.73903005325E+02  0.73913916795E+02  0.12700000000E+01 0.  1.
         25    2    1    2    0    0  0.00000000000E+00  0.00000000000E+00 -0.21070593655E+02  0.12676159057E+03  0.12499812369E+03 0.  0.
    9000005    1    3    3    0    0 -0.53366066297E+02 -0.26950149075E+02 -0.28982173046E+02  0.66447076096E+02  0.10000000000E+01 0.  0.
    9000005    1    3    3    0    0  0.53366066297E+02  0.26950149075E+02  0.79115793915E+01  0.60314514469E+02  0.10000000000E+01 0.  0.
<mgrwt>
<rscale>  0 0.12499812E+03</rscale>
<asrwt>0</asrwt>
<pdfrwt beam="2">  1        4 0.18479023E-01 0.12499812E+03</pdfrwt>
<pdfrwt beam="1">  1       -4 0.13211375E-01 0.12499812E+03</pdfrwt>
<totfact> 0.19740687E+03</totfact>
</mgrwt>
</event>
<event>
 5    1  0.1435323E-002  0.1250028E+03  0.7818608E-02  0.1235065E+00
         -4   -1    0    0    0  501 -0.00000000000E+00  0.00000000000E+00  0.46632533524E+02  0.46649824039E+02  0.12700000000E+01 0.  1.
          4   -1    0    0  501    0  0.00000000000E+00 -0.00000000000E+00 -0.83732765280E+02  0.83742395962E+02  0.12700000000E+01 0.  1.
         25    2    1    2    0    0  0.00000000000E+00  0.00000000000E+00 -0.37100231756E+02  0.13039222000E+03  0.12500281533E+03 0.  0.
    9000005    1    3    3    0    0  0.14481176830E+02 -0.56216493304E+02 -0.42687053290E+02  0.72063743452E+02  0.10000000000E+01 0.  0.
    9000005    1    3    3    0    0 -0.14481176830E+02  0.56216493304E+02  0.55868215340E+01  0.58328476550E+02  0.10000000000E+01 0.  0.
<mgrwt>
<rscale>  0 0.12500282E+03</rscale>
<asrwt>0</asrwt>
<pdfrwt beam="2">  1        4 0.20936556E-01 0.12500282E+03</pdfrwt>
<pdfrwt beam="1">  1       -4 0.11661499E-01 0.12500282E+03</pdfrwt>
<totfact> 0.19542036E+03</totfact>
</mgrwt>
</event>
<event>
 5    1  0.1435323E-002  0.1250019E+03  0.7818608E-02  0.1235066E+00
          4   -1    0    0  501    0  0.00000000000E+00  0.00000000000E+00  0.25591360135E+02  0.25622853345E+02  0.12700000000E+01 0. -1.
         -4   -1    0    0    0  501 -0.00000000000E+00 -0.00000000000E+00 -0.15251600485E+03  0.15252129240E+03  0.12700000000E+01 0. -1.
         25    2    1    2    0    0  0.00000000000E+00  0.00000000000E+00 -0.12692464472E+03  0.17814414575E+03  0.12500188489E+03 0.  0.
    9000005    1    3    3    0    0 -0.17401861756E+02 -0.55951989180E+02 -0.32503229402E+02  0.67014250777E+02  0.10000000000E+01 0.  0.
    9000005    1    3    3    0    0  0.17401861756E+02  0.55951989180E+02 -0.94421415314E+02  0.11112989497E+03  0.10000000000E+01 0.  0.
<mgrwt>
<rscale>  0 0.12500188E+03</rscale>
<asrwt>0</asrwt>
<pdfrwt beam="1">  1        4 0.64024381E-02 0.12500188E+03</pdfrwt>
<pdfrwt beam="2">  1       -4 0.38133596E-01 0.12500188E+03</pdfrwt>
<totfact> 0.17235093E+03</totfact>
</mgrwt>
</event>
<event>
 5    1  0.1435323E-002  0.1250049E+03  0.7818608E-02  0.1235062E+00
         -4   -1    0    0    0  501 -0.00000000000E+00  0.00000000000E+00  0.11422269009E+03  0.11422975020E+03  0.12700000000E+01 0. -1.
          4   -1    0    0  501    0  0.00000000000E+00 -0.00000000000E+00 -0.34181334791E+02  0.34204919940E+02  0.12700000000E+01 0. -1.
         25    2    1    2    0    0  0.00000000000E+00  0.00000000000E+00  0.80041355299E+02  0.14843467014E+03  0.12500493087E+03 0.  0.
    9000005    1    3    3    0    0  0.14743384741E+02 -0.59893901351E+02  0.28092385574E+02  0.67785167551E+02  0.10000000000E+01 0.  0.
    9000005    1    3    3    0    0 -0.14743384741E+02  0.59893901351E+02  0.51948969725E+02  0.80649502591E+02  0.10000000000E+01 0.  0.
<mgrwt>
<rscale>  0 0.12500493E+03</rscale>
<asrwt>0</asrwt>
<pdfrwt beam="2">  1        4 0.85491644E-02 0.12500493E+03</pdfrwt>
<pdfrwt beam="1">  1       -4 0.28559503E-01 0.12500493E+03</pdfrwt>
<totfact> 0.18613880E+03</totfact>
</mgrwt>
</event>
<event>
 5    1  0.1435323E-002  0.1249975E+03  0.7818608E-02  0.1235073E+00
          4   -1    0    0  501    0  0.00000000000E+00  0.00000000000E+00  0.54665735795E+02  0.54680486190E+02  0.12700000000E+01 0. -1.
         -4   -1    0    0    0  501 -0.00000000000E+00 -0.00000000000E+00 -0.71424171487E+02  0.71435461590E+02  0.12700000000E+01 0. -1.
         25    2    1    2    0    0  0.00000000000E+00  0.00000000000E+00 -0.16758435692E+02  0.12611594778E+03  0.12499754845E+03 0.  0.
    9000005    1    3    3    0    0  0.11230870473E+02  0.25004674673E+01 -0.70351193106E+02  0.71292882959E+02  0.10000000000E+01 0.  0.
    9000005    1    3    3    0    0 -0.11230870473E+02 -0.25004674673E+01  0.53592757414E+02  0.54823064821E+02  0.10000000000E+01 0.  0.
<mgrwt>
<rscale>  0 0.12499755E+03</rscale>
<asrwt>0</asrwt>
<pdfrwt beam="1">  1        4 0.13669689E-01 0.12499755E+03</pdfrwt>
<pdfrwt beam="2">  1       -4 0.17859298E-01 0.12499755E+03</pdfrwt>
<totfact> 0.19775790E+03</totfact>
</mgrwt>
</event>
<event>
 5    1  0.1435323E-002  0.1250002E+03  0.7818608E-02  0.1235069E+00
         -4   -1    0    0    0  501 -0.00000000000E+00  0.00000000000E+00  0.22708772045E+03  0.22709127170E+03  0.12700000000E+01 0. -1.
          4   -1    0    0  501    0  0.00000000000E+00 -0.00000000000E+00 -0.17174417846E+02  0.17221310297E+02  0.12700000000E+01 0. -1.
         25    2    1    2    0    0  0.00000000000E+00  0.00000000000E+00  0.20991330261E+03  0.24431258199E+03  0.12500017243E+03 0.  0.
    9000005    1    3    3    0    0  0.59736624101E+02  0.22859988468E+00  0.14082284771E+03  0.15297251699E+03  0.10000000000E+01 0.  0.
    9000005    1    3    3    0    0 -0.59736624101E+02 -0.22859988468E+00  0.69090454896E+02  0.91340065003E+02  0.10000000000E+01 0.  0.
<mgrwt>
<rscale>  0 0.12500017E+03</rscale>
<asrwt>0</asrwt>
<pdfrwt beam="2">  1        4 0.42999099E-02 0.12500017E+03</pdfrwt>
<pdfrwt beam="1">  1       -4 0.56778235E-01 0.12500017E+03</pdfrwt>
<totfact> 0.14688967E+03</totfact>
</mgrwt>
</event>
<event>
 5    1  0.1435323E-002  0.1249987E+03  0.7818608E-02  0.1235071E+00
         -4   -1    0    0    0  501 -0.00000000000E+00  0.00000000000E+00  0.72116826090E+03  0.72116937916E+03  0.12700000000E+01 0. -1.
          4   -1    0    0  501    0  0.00000000000E+00 -0.00000000000E+00 -0.53408643141E+01  0.54897842965E+01  0.12700000000E+01 0. -1.
         25    2    1    2    0    0  0.00000000000E+00  0.00000000000E+00  0.71582739659E+03  0.72665916345E+03  0.12499871249E+03 0.  0.
    9000005    1    3    3    0    0  0.36848721317E+02 -0.47104047253E+02  0.25254152170E+03  0.25952810968E+03  0.10000000000E+01 0.  0.
    9000005    1    3    3    0    0 -0.36848721317E+02  0.47104047253E+02  0.46328587489E+03  0.46713105378E+03  0.10000000000E+01 0.  0.
<mgrwt>
<rscale>  0 0.12499871E+03</rscale>
<asrwt>0</asrwt>
<pdfrwt beam="2">  1        4 0.13539706E-02 0.12499871E+03</pdfrwt>
<pdfrwt beam="1">  1       -4 0.18031086E+00 0.12499871E+03</pdfrwt>
<totfact> 0.59348062E+02</totfact>
</mgrwt>
</event>
<event>
 5    1  0.1435323E-002  0.1249910E+03  0.7818608E-02  0.1235083E+00
          4   -1    0    0  501    0  0.00000000000E+00  0.00000000000E+00  0.14076376597E+03  0.14076949495E+03  0.12700000000E+01 0.  1.
         -4   -1    0    0    0  501 -0.00000000000E+00 -0.00000000000E+00 -0.27725565655E+02  0.27754637286E+02  0.12700000000E+01 0.  1.
         25    2    1    2    0    0  0.00000000000E+00  0.00000000000E+00  0.11303820031E+03  0.16852413224E+03  0.12499099334E+03 0.  0.
    9000005    1    3    3    0    0 -0.71423610807E+01  0.39123989956E+02  0.12150315215E+03  0.12785036525E+03  0.10000000000E+01 0.  0.
    9000005    1    3    3    0    0  0.71423610807E+01 -0.39123989956E+02 -0.84649518342E+01  0.40673766994E+02  0.10000000000E+01 0.  0.
<mgrwt>
<rscale>  0 0.12499099E+03</rscale>
<asrwt>0</asrwt>
<pdfrwt beam="1">  1        4 0.35195291E-01 0.12499099E+03</pdfrwt>
<pdfrwt beam="2">  1       -4 0.69357416E-02 0.12499099E+03</pdfrwt>
<totfact> 0.17667515E+03</totfact>
</mgrwt>
</event>
<event>
 5    1  0.1435323E-002  0.1249962E+03  0.7818608E-02  0.1235075E+00
         -4   -1    0    0    0  501 -0.00000000000E+00  0.00000000000E+00  0.18553058514E+02  0.18596474941E+02  0.12700000000E+01 0.  1.
          4   -1    0    0  501    0  0.00000000000E+00 -0.00000000000E+00 -0.21024075601E+03  0.21024459182E+03  0.12700000000E+01 0.  1.
         25    2    1    2    0    0  0.00000000000E+00  0.00000000000E+00 -0.19168769750E+03  0.22884106676E+03  0.12499624179E+03 0.  0.
    9000005    1    3    3    0    0 -0.26725332518E+02  0.45557352877E+02 -0.15698487529E+03  0.16563504118E+03  0.10000000000E+01 0.  0.
    9000005    1    3    3    0    0  0.26725332518E+02 -0.45557352877E+02 -0.34702822211E+02  0.63206025573E+02  0.10000000000E+01 0.  0.
<mgrwt>
<rscale>  0 0.12499624E+03</rscale>
<asrwt>0</asrwt>
<pdfrwt beam="2">  1        4 0.52566088E-01 0.12499624E+03</pdfrwt>
<pdfrwt beam="1">  1       -4 0.46441718E-02 0.12499624E+03</pdfrwt>
<totfact> 0.15230132E+03</totfact>
</mgrwt>
</event>
<event>
 5    1  0.1435323E-002  0.1249996E+03  0.7818608E-02  0.1235070E+00
         -4   -1    0    0    0  501 -0.00000000000E+00  0.00000000000E+00  0.49663980880E+03  0.49664143261E+03  0.12700000000E+01 0. -1.
          4   -1    0    0  501    0  0.00000000000E+00 -0.00000000000E+00 -0.78123912790E+01  0.79149451985E+01  0.12700000000E+01 0. -1.
         25    2    1    2    0    0  0.00000000000E+00  0.00000000000E+00  0.48882741752E+03  0.50455637780E+03  0.12499957707E+03 0.  0.
    9000005    1    3    3    0    0  0.62613824259E+01 -0.51198916335E+02  0.10200659284E+03  0.11431044977E+03  0.10000000000E+01 0.  0.
    9000005    1    3    3    0    0 -0.62613824259E+01  0.51198916335E+02  0.38682082468E+03  0.39024592804E+03  0.10000000000E+01 0.  0.
<mgrwt>
<rscale>  0 0.12499958E+03</rscale>
<asrwt>0</asrwt>
<pdfrwt beam="2">  1        4 0.19661202E-02 0.12499958E+03</pdfrwt>
<pdfrwt beam="1">  1       -4 0.12417296E+00 0.12499958E+03</pdfrwt>
<totfact> 0.86887614E+02</totfact>
</mgrwt>
</event>
<event>
 5    1  0.1435323E-002  0.1250002E+03  0.7818608E-02  0.1235069E+00
         -4   -1    0    0    0  501 -0.00000000000E+00  0.00000000000E+00  0.44733500121E+03  0.44733680399E+03  0.12700000000E+01 0.  1.
          4   -1    0    0  501    0  0.00000000000E+00 -0.00000000000E+00 -0.86842857058E+01  0.87766575767E+01  0.12700000000E+01 0.  1.
         25    2    1    2    0    0  0.00000000000E+00  0.00000000000E+00  0.43865071550E+03  0.45611346157E+03  0.12500015845E+03 0.  0.
    9000005    1    3    3    0    0  0.48835060782E+02  0.25897606850E+02  0.32569014369E+03  0.33034923778E+03  0.10000000000E+01 0.  0.
    9000005    1    3    3    0    0 -0.48835060782E+02 -0.25897606850E+02  0.11296057181E+03  0.12576422379E+03  0.10000000000E+01 0.  0.
<mgrwt>
<rscale>  0 0.12500016E+03</rscale>
<asrwt>0</asrwt>
<pdfrwt beam="2">  1        4 0.21828432E-02 0.12500016E+03</pdfrwt>
<pdfrwt beam="1">  1       -4 0.11184553E+00 0.12500016E+03</pdfrwt>
<totfact> 0.94929302E+02</totfact>
</mgrwt>
</event>
<event>
 5    1  0.1435323E-002  0.1249970E+03  0.7818608E-02  0.1235074E+00
         -4   -1    0    0    0  501 -0.00000000000E+00  0.00000000000E+00  0.22049433843E+02  0.22085978194E+02  0.12700000000E+01 0. -1.
          4   -1    0    0  501    0  0.00000000000E+00 -0.00000000000E+00 -0.17696479472E+03  0.17696935179E+03  0.12700000000E+01 0. -1.
         25    2    1    2    0    0  0.00000000000E+00  0.00000000000E+00 -0.15491536088E+03  0.19905532998E+03  0.12499702139E+03 0.  0.
    9000005    1    3    3    0    0  0.20007836344E+02 -0.53501426792E+02 -0.11781842955E+03  0.13093852957E+03  0.10000000000E+01 0.  0.
    9000005    1    3    3    0    0 -0.20007836344E+02  0.53501426792E+02 -0.37096931327E+02  0.68116800408E+02  0.10000000000E+01 0.  0.
<mgrwt>
<rscale>  0 0.12499702E+03</rscale>
<asrwt>0</asrwt>
<pdfrwt beam="2">  1        4 0.44246332E-01 0.12499702E+03</pdfrwt>
<pdfrwt beam="1">  1       -4 0.55174967E-02 0.12499702E+03</pdfrwt>
<totfact> 0.16361064E+03</totfact>
</mgrwt>
</event>
<event>
 5    1  0.1435323E-002  0.1249998E+03  0.7818608E-02  0.1235070E+00
          4   -1    0    0  501    0  0.00000000000E+00  0.00000000000E+00  0.47275117344E+01  0.48951268828E+01  0.12700000000E+01 0. -1.
         -4   -1    0    0    0  501 -0.00000000000E+00 -0.00000000000E+00 -0.81171658479E+03  0.81171757831E+03  0.12700000000E+01 0. -1.
         25    2    1    2    0    0  0.00000000000E+00  0.00000000000E+00 -0.80698907306E+03  0.81661270519E+03  0.12499978495E+03 0.  0.
    9000005    1    3    3    0    0 -0.56432141995E+02 -0.14853131345E+02 -0.54957993430E+03  0.55267016053E+03  0.10000000000E+01 0.  0.
    9000005    1    3    3    0    0  0.56432141995E+02  0.14853131345E+02 -0.25740913876E+03  0.26394254466E+03  0.10000000000E+01 0.  0.
<mgrwt>
<rscale>  0 0.12499978E+03</rscale>
<asrwt>0</asrwt>
<pdfrwt beam="1">  1        4 0.12029568E-02 0.12499978E+03</pdfrwt>
<pdfrwt beam="2">  1       -4 0.20294975E+00 0.12499978E+03</pdfrwt>
<totfact> 0.51030873E+02</totfact>
</mgrwt>
</event>
<event>
 5    1  0.1435323E-002  0.1250043E+03  0.7818608E-02  0.1235063E+00
         -4   -1    0    0    0  501 -0.00000000000E+00  0.00000000000E+00  0.29288537274E+03  0.29288812619E+03  0.12700000000E+01 0.  1.
          4   -1    0    0  501    0  0.00000000000E+00 -0.00000000000E+00 -0.13304998021E+02  0.13365473143E+02  0.12700000000E+01 0.  1.
         25    2    1    2    0    0  0.00000000000E+00  0.00000000000E+00  0.27958037472E+03  0.30625359933E+03  0.12500432464E+03 0.  0.
    9000005    1    3    3    0    0 -0.45109625357E+02  0.43039266206E+02  0.15026024015E+03  0.16268496091E+03  0.10000000000E+01 0.  0.
    9000005    1    3    3    0    0  0.45109625357E+02 -0.43039266206E+02  0.12932013456E+03  0.14356863842E+03  0.10000000000E+01 0.  0.
<mgrwt>
<rscale>  0 0.12500432E+03</rscale>
<asrwt>0</asrwt>
<pdfrwt beam="2">  1        4 0.33341532E-02 0.12500432E+03</pdfrwt>
<pdfrwt beam="1">  1       -4 0.73229244E-01 0.12500432E+03</pdfrwt>
<totfact> 0.12796313E+03</totfact>
</mgrwt>
</event>
<event>
 5    1  0.1435323E-002  0.1250014E+03  0.7818608E-02  0.1235067E+00
          4   -1    0    0  501    0  0.00000000000E+00  0.00000000000E+00  0.25270020773E+02  0.25301913957E+02  0.12700000000E+01 0. -1.
         -4   -1    0    0    0  501 -0.00000000000E+00 -0.00000000000E+00 -0.15445184460E+03  0.15445706588E+03  0.12700000000E+01 0. -1.
         25    2    1    2    0    0  0.00000000000E+00  0.00000000000E+00 -0.12918182382E+03  0.17975897983E+03  0.12500138889E+03 0.  0.
    9000005    1    3    3    0    0  0.18205655922E+02 -0.12385258669E+02 -0.14869562170E+03  0.15032041928E+03  0.10000000000E+01 0.  0.
    9000005    1    3    3    0    0 -0.18205655922E+02  0.12385258669E+02  0.19513797877E+02  0.29438560553E+02  0.10000000000E+01 0.  0.
<mgrwt>
<rscale>  0 0.12500139E+03</rscale>
<asrwt>0</asrwt>
<pdfrwt beam="1">  1        4 0.63221449E-02 0.12500139E+03</pdfrwt>
<pdfrwt beam="2">  1       -4 0.38617598E-01 0.12500139E+03</pdfrwt>
<totfact> 0.17165099E+03</totfact>
</mgrwt>
</event>
<event>
 5    1  0.1435323E-002  0.1249965E+03  0.7818608E-02  0.1235075E+00
         -4   -1    0    0    0  501 -0.00000000000E+00  0.00000000000E+00  0.13506623877E+03  0.13507220942E+03  0.12700000000E+01 0.  1.
          4   -1    0    0  501    0  0.00000000000E+00 -0.00000000000E+00 -0.28898801859E+02  0.28926694400E+02  0.12700000000E+01 0.  1.
         25    2    1    2    0    0  0.00000000000E+00  0.00000000000E+00  0.10616743691E+03  0.16399890382E+03  0.12499646312E+03 0.  0.
    9000005    1    3    3    0    0 -0.29148586488E+02  0.53634867104E+02  0.35545187864E+02  0.70645590406E+02  0.10000000000E+01 0.  0.
    9000005    1    3    3    0    0  0.29148586488E+02 -0.53634867104E+02  0.70622249051E+02  0.93353313409E+02  0.10000000000E+01 0.  0.
<mgrwt>
<rscale>  0 0.12499646E+03</rscale>
<asrwt>0</asrwt>
<pdfrwt beam="2">  1        4 0.72289335E-02 0.12499646E+03</pdfrwt>
<pdfrwt beam="1">  1       -4 0.33770792E-01 0.12499646E+03</pdfrwt>
<totfact> 0.17872637E+03</totfact>
</mgrwt>
</event>
<event>
 5    1  0.1435323E-002  0.1249990E+03  0.7818608E-02  0.1235071E+00
         -4   -1    0    0    0  501 -0.00000000000E+00  0.00000000000E+00  0.21749167322E+02  0.21786215348E+02  0.12700000000E+01 0.  1.
          4   -1    0    0  501    0  0.00000000000E+00 -0.00000000000E+00 -0.17940963234E+03  0.17941412730E+03  0.12700000000E+01 0.  1.
         25    2    1    2    0    0  0.00000000000E+00  0.00000000000E+00 -0.15766046501E+03  0.20120034265E+03  0.12499902261E+03 0.  0.
    9000005    1    3    3    0    0 -0.52951659864E+01  0.53020543922E+02 -0.26277535596E+02  0.59419910279E+02  0.10000000000E+01 0.  0.
    9000005    1    3    3    0    0  0.52951659864E+01 -0.53020543922E+02 -0.13138292942E+03  0.14178043237E+03  0.10000000000E+01 0.  0.
<mgrwt>
<rscale>  0 0.12499902E+03</rscale>
<asrwt>0</asrwt>
<pdfrwt beam="2">  1        4 0.44857596E-01 0.12499902E+03</pdfrwt>
<pdfrwt beam="1">  1       -4 0.54424852E-02 0.12499902E+03</pdfrwt>
<totfact> 0.16274458E+03</totfact>
</mgrwt>
</event>
<event>
 5    1  0.1435323E-002  0.1250135E+03  0.7818608E-02  0.1235048E+00
          4   -1    0    0  501    0  0.00000000000E+00  0.00000000000E+00  0.61263840915E+03  0.61263972550E+03  0.12700000000E+01 0.  1.
         -4   -1    0    0    0  501 -0.00000000000E+00 -0.00000000000E+00 -0.63129233564E+01  0.64394022474E+01  0.12700000000E+01 0.  1.
         25    2    1    2    0    0  0.00000000000E+00  0.00000000000E+00  0.60632548579E+03  0.61907912775E+03  0.12501348605E+03 0.  0.
    9000005    1    3    3    0    0  0.42709525432E+02 -0.36231211453E+02  0.44051441995E+03  0.44406166062E+03  0.10000000000E+01 0.  0.
    9000005    1    3    3    0    0 -0.42709525432E+02  0.36231211453E+02  0.16581106584E+03  0.17501746713E+03  0.10000000000E+01 0.  0.
<mgrwt>
<rscale>  0 0.12501349E+03</rscale>
<asrwt>0</asrwt>
<pdfrwt beam="1">  1        4 0.15317557E+00 0.12501349E+03</pdfrwt>
<pdfrwt beam="2">  1       -4 0.15942053E-02 0.12501349E+03</pdfrwt>
<totfact> 0.71131333E+02</totfact>
</mgrwt>
</event>
<event>
 5    1  0.1435323E-002  0.1249965E+03  0.7818608E-02  0.1235075E+00
          4   -1    0    0  501    0  0.00000000000E+00  0.00000000000E+00  0.25135987734E+02  0.25168050766E+02  0.12700000000E+01 0.  1.
         -4   -1    0    0    0  501 -0.00000000000E+00 -0.00000000000E+00 -0.15526229701E+03  0.15526749104E+03  0.12700000000E+01 0.  1.
         25    2    1    2    0    0  0.00000000000E+00  0.00000000000E+00 -0.13012630928E+03  0.18043554180E+03  0.12499651347E+03 0.  0.
    9000005    1    3    3    0    0  0.47265552471E+02  0.97574757431E+01 -0.12236565063E+03  0.13154312311E+03  0.10000000000E+01 0.  0.
    9000005    1    3    3    0    0 -0.47265552471E+02 -0.97574757431E+01 -0.77606586472E+01  0.48892418695E+02  0.10000000000E+01 0.  0.
<mgrwt>
<rscale>  0 0.12499651E+03</rscale>
<asrwt>0</asrwt>
<pdfrwt beam="1">  1        4 0.62886545E-02 0.12499651E+03</pdfrwt>
<pdfrwt beam="2">  1       -4 0.38820229E-01 0.12499651E+03</pdfrwt>
<totfact> 0.17137764E+03</totfact>
</mgrwt>
</event>
<event>
 5    1  0.1435323E-002  0.1249872E+03  0.7818608E-02  0.1235089E+00
          4   -1    0    0  501    0  0.00000000000E+00  0.00000000000E+00  0.12508763348E+02  0.12573068858E+02  0.12700000000E+01 0.  1.
         -4   -1    0    0    0  501 -0.00000000000E+00 -0.00000000000E+00 -0.31135114871E+03  0.31135373886E+03  0.12700000000E+01 0.  1.
         25    2    1    2    0    0  0.00000000000E+00  0.00000000000E+00 -0.29884238536E+03  0.32392680772E+03  0.12498722123E+03 0.  0.
    9000005    1    3    3    0    0  0.14823642874E+02  0.16671660607E+02 -0.30069107739E+03  0.30151916801E+03  0.10000000000E+01 0.  0.
    9000005    1    3    3    0    0 -0.14823642874E+02 -0.16671660607E+02  0.18486920219E+01  0.22407639716E+02  0.10000000000E+01 0.  0.
<mgrwt>
<rscale>  0 0.12498722E+03</rscale>
<asrwt>0</asrwt>
<pdfrwt beam="1">  1        4 0.31355538E-02 0.12498722E+03</pdfrwt>
<pdfrwt beam="2">  1       -4 0.77846124E-01 0.12498722E+03</pdfrwt>
<totfact> 0.12329608E+03</totfact>
</mgrwt>
</event>
<event>
 5    1  0.1435323E-002  0.1250016E+03  0.7818608E-02  0.1235067E+00
          4   -1    0    0  501    0  0.00000000000E+00  0.00000000000E+00  0.43349722415E+02  0.43368321774E+02  0.12700000000E+01 0. -1.
         -4   -1    0    0    0  501 -0.00000000000E+00 -0.00000000000E+00 -0.90070114261E+02  0.90079067396E+02  0.12700000000E+01 0. -1.
         25    2    1    2    0    0  0.00000000000E+00  0.00000000000E+00 -0.46720391846E+02  0.13344738917E+03  0.12500164264E+03 0.  0.
    9000005    1    3    3    0    0  0.40798248038E+02  0.37668144855E+00 -0.73894646626E+02  0.84415980311E+02  0.10000000000E+01 0.  0.
    9000005    1    3    3    0    0 -0.40798248038E+02 -0.37668144855E+00  0.27174254780E+02  0.49031408859E+02  0.10000000000E+01 0.  0.
<mgrwt>
<rscale>  0 0.12500164E+03</rscale>
<asrwt>0</asrwt>
<pdfrwt beam="1">  1        4 0.10840875E-01 0.12500164E+03</pdfrwt>
<pdfrwt beam="2">  1       -4 0.22520972E-01 0.12500164E+03</pdfrwt>
<totfact> 0.19380030E+03</totfact>
</mgrwt>
</event>
<event>
 5    1  0.1435323E-002  0.1249978E+03  0.7818608E-02  0.1235073E+00
         -4   -1    0    0    0  501 -0.00000000000E+00  0.00000000000E+00  0.39627038594E+02  0.39647384375E+02  0.12700000000E+01 0. -1.
          4   -1    0    0  501    0  0.00000000000E+00 -0.00000000000E+00 -0.98522086898E+02  0.98530272032E+02  0.12700000000E+01 0. -1.
         25    2    1    2    0    0  0.00000000000E+00  0.00000000000E+00 -0.58895048304E+02  0.13817765641E+03  0.12499775204E+03 0.  0.
    9000005    1    3    3    0    0  0.18271185778E+01  0.59382238606E+01 -0.98185242487E+02  0.98386699849E+02  0.10000000000E+01 0.  0.
    9000005    1    3    3    0    0 -0.18271185778E+01 -0.59382238606E+01  0.39290194183E+02  0.39790956558E+02  0.10000000000E+01 0.  0.
<mgrwt>
<rscale>  0 0.12499775E+03</rscale>
<asrwt>0</asrwt>
<pdfrwt beam="2">  1        4 0.24634088E-01 0.12499775E+03</pdfrwt>
<pdfrwt beam="1">  1       -4 0.99103262E-02 0.12499775E+03</pdfrwt>
<totfact> 0.19134965E+03</totfact>
</mgrwt>
</event>
<event>
 5    1  0.1435323E-002  0.1250098E+03  0.7818608E-02  0.1235054E+00
          4   -1    0    0  501    0  0.00000000000E+00  0.00000000000E+00  0.25413157836E+02  0.25444871609E+02  0.12700000000E+01 0. -1.
         -4   -1    0    0    0  501 -0.00000000000E+00 -0.00000000000E+00 -0.15360365614E+03  0.15360890625E+03  0.12700000000E+01 0. -1.
         25    2    1    2    0    0  0.00000000000E+00  0.00000000000E+00 -0.12819049830E+03  0.17905377785E+03  0.12500980565E+03 0.  0.
    9000005    1    3    3    0    0 -0.29864331714E+02  0.54867457190E+02 -0.66792692091E+02  0.91458077193E+02  0.10000000000E+01 0.  0.
    9000005    1    3    3    0    0  0.29864331714E+02 -0.54867457190E+02 -0.61397806208E+02  0.87595700661E+02  0.10000000000E+01 0.  0.
<mgrwt>
<rscale>  0 0.12500981E+03</rscale>
<asrwt>0</asrwt>
<pdfrwt beam="1">  1        4 0.63579104E-02 0.12500981E+03</pdfrwt>
<pdfrwt beam="2">  1       -4 0.38405532E-01 0.12500981E+03</pdfrwt>
<totfact> 0.17192340E+03</totfact>
</mgrwt>
</event>
<event>
 5    1  0.1435323E-002  0.1250008E+03  0.7818608E-02  0.1235068E+00
         -4   -1    0    0    0  501 -0.00000000000E+00  0.00000000000E+00  0.31787048899E+03  0.31787302602E+03  0.12700000000E+01 0.  1.
          4   -1    0    0  501    0  0.00000000000E+00 -0.00000000000E+00 -0.12253560627E+02  0.12319198352E+02  0.12700000000E+01 0.  1.
         25    2    1    2    0    0  0.00000000000E+00  0.00000000000E+00  0.30561692836E+03  0.33019222437E+03  0.12500079253E+03 0.  0.
    9000005    1    3    3    0    0 -0.35468773808E+02  0.18508893537E+02  0.27962036206E+03  0.28246975047E+03  0.10000000000E+01 0.  0.
    9000005    1    3    3    0    0  0.35468773808E+02 -0.18508893537E+02  0.25996566309E+02  0.47722473901E+02  0.10000000000E+01 0.  0.
<mgrwt>
<rscale>  0 0.12500079E+03</rscale>
<asrwt>0</asrwt>
<pdfrwt beam="2">  1        4 0.30719119E-02 0.12500079E+03</pdfrwt>
<pdfrwt beam="1">  1       -4 0.79476147E-01 0.12500079E+03</pdfrwt>
<totfact> 0.12164928E+03</totfact>
</mgrwt>
</event>
<event>
 5    1  0.1435323E-002  0.1249960E+03  0.7818608E-02  0.1235076E+00
         -4   -1    0    0    0  501 -0.00000000000E+00  0.00000000000E+00  0.94484806974E+02  0.94493341823E+02  0.12700000000E+01 0. -1.
          4   -1    0    0  501    0  0.00000000000E+00 -0.00000000000E+00 -0.41319798976E+02  0.41339311647E+02  0.12700000000E+01 0. -1.
         25    2    1    2    0    0  0.00000000000E+00  0.00000000000E+00  0.53165007998E+02  0.13583265347E+03  0.12499596663E+03 0.  0.
    9000005    1    3    3    0    0 -0.44156066068E+02  0.41269570342E+01 -0.21259390955E+02  0.49190971212E+02  0.10000000000E+01 0.  0.
    9000005    1    3    3    0    0  0.44156066068E+02 -0.41269570342E+01  0.74424398954E+02  0.86641682258E+02  0.10000000000E+01 0.  0.
<mgrwt>
<rscale>  0 0.12499597E+03</rscale>
<asrwt>0</asrwt>
<pdfrwt beam="2">  1        4 0.10333456E-01 0.12499597E+03</pdfrwt>
<pdfrwt beam="1">  1       -4 0.23624707E-01 0.12499597E+03</pdfrwt>
<totfact> 0.19257424E+03</totfact>
</mgrwt>
</event>
<event>
 5    1  0.1435323E-002  0.1250036E+03  0.7818608E-02  0.1235064E+00
         -4   -1    0    0    0  501 -0.00000000000E+00  0.00000000000E+00  0.21189030931E+03  0.21189411526E+03  0.12700000000E+01 0. -1.
          4   -1    0    0  501    0  0.00000000000E+00 -0.00000000000E+00 -0.18410470471E+02  0.18454222362E+02  0.12700000000E+01 0. -1.
         25    2    1    2    0    0  0.00000000000E+00  0.00000000000E+00  0.19347983884E+03  0.23034833762E+03  0.12500363437E+03 0.  0.
    9000005    1    3    3    0    0  0.12935244277E+02  0.32908452536E+02  0.17865733116E+01  0.35418619920E+02  0.10000000000E+01 0.  0.
    9000005    1    3    3    0    0 -0.12935244277E+02 -0.32908452536E+02  0.19169326553E+03  0.19492971770E+03  0.10000000000E+01 0.  0.
<mgrwt>
<rscale>  0 0.12500363E+03</rscale>
<asrwt>0</asrwt>
<pdfrwt beam="2">  1        4 0.46085624E-02 0.12500363E+03</pdfrwt>
<pdfrwt beam="1">  1       -4 0.52978521E-01 0.12500363E+03</pdfrwt>
<totfact> 0.15173602E+03</totfact>
</mgrwt>
</event>
<event>
 5    1  0.1435323E-002  0.1249890E+03  0.7818608E-02  0.1235086E+00
          4   -1    0    0  501    0  0.00000000000E+00  0.00000000000E+00  0.15097959844E+03  0.15098493979E+03  0.12700000000E+01 0.  1.
         -4   -1    0    0    0  501 -0.00000000000E+00 -0.00000000000E+00 -0.25846764693E+02  0.25877947080E+02  0.12700000000E+01 0.  1.
         25    2    1    2    0    0  0.00000000000E+00  0.00000000000E+00  0.12513283374E+03  0.17686288687E+03  0.12498901821E+03 0.  0.
    9000005    1    3    3    0    0  0.70617976642E+01 -0.10765898902E+02  0.14908918294E+03  0.14964744581E+03  0.10000000000E+01 0.  0.
    9000005    1    3    3    0    0 -0.70617976642E+01  0.10765898902E+02 -0.23956349200E+02  0.27215441066E+02  0.10000000000E+01 0.  0.
<mgrwt>
<rscale>  0 0.12498902E+03</rscale>
<asrwt>0</asrwt>
<pdfrwt beam="1">  1        4 0.37749465E-01 0.12498902E+03</pdfrwt>
<pdfrwt beam="2">  1       -4 0.64662567E-02 0.12498902E+03</pdfrwt>
<totfact> 0.17296276E+03</totfact>
</mgrwt>
</event>
<event>
 5    1  0.1435323E-002  0.1250025E+03  0.7818608E-02  0.1235065E+00
         -4   -1    0    0    0  501 -0.00000000000E+00  0.00000000000E+00  0.27071635892E+03  0.27071933785E+03  0.12700000000E+01 0.  1.
          4   -1    0    0  501    0  0.00000000000E+00 -0.00000000000E+00 -0.14398873784E+02  0.14454773130E+02  0.12700000000E+01 0.  1.
         25    2    1    2    0    0  0.00000000000E+00  0.00000000000E+00  0.25631748513E+03  0.28517411098E+03  0.12500248152E+03 0.  0.
    9000005    1    3    3    0    0 -0.41977684686E+02 -0.31983342364E+02  0.51798494293E+02  0.73953662596E+02  0.10000000000E+01 0.  0.
    9000005    1    3    3    0    0  0.41977684686E+02  0.31983342364E+02  0.20451899084E+03  0.21122044838E+03  0.10000000000E+01 0.  0.
<mgrwt>
<rscale>  0 0.12500248E+03</rscale>
<asrwt>0</asrwt>
<pdfrwt beam="2">  1        4 0.36070782E-02 0.12500248E+03</pdfrwt>
<pdfrwt beam="1">  1       -4 0.67686450E-01 0.12500248E+03</pdfrwt>
<totfact> 0.13396231E+03</totfact>
</mgrwt>
</event>
<event>
 5    1  0.1435323E-002  0.1250006E+03  0.7818608E-02  0.1235068E+00
          4   -1    0    0  501    0  0.00000000000E+00  0.00000000000E+00  0.78888136591E+02  0.78898358632E+02  0.12700000000E+01 0.  1.
         -4   -1    0    0    0  501 -0.00000000000E+00 -0.00000000000E+00 -0.49495212491E+02  0.49511503305E+02  0.12700000000E+01 0.  1.
         25    2    1    2    0    0  0.00000000000E+00  0.00000000000E+00  0.29392924100E+02  0.12840986194E+03  0.12500059462E+03 0.  0.
    9000005    1    3    3    0    0 -0.42391366818E+02 -0.24962799966E+02  0.54284752867E+02  0.73266661973E+02  0.10000000000E+01 0.  0.
    9000005    1    3    3    0    0  0.42391366818E+02  0.24962799966E+02 -0.24891828767E+02  0.55143199963E+02  0.10000000000E+01 0.  0.
<mgrwt>
<rscale>  0 0.12500059E+03</rscale>
<asrwt>0</asrwt>
<pdfrwt beam="1">  1        4 0.19725348E-01 0.12500059E+03</pdfrwt>
<pdfrwt beam="2">  1       -4 0.12377117E-01 0.12500059E+03</pdfrwt>
<totfact> 0.19649990E+03</totfact>
</mgrwt>
</event>
<event>
 5    1  0.1435323E-002  0.1249820E+03  0.7818608E-02  0.1235097E+00
         -4   -1    0    0    0  501 -0.00000000000E+00  0.00000000000E+00  0.38346099095E+02  0.38367124153E+02  0.12700000000E+01 0. -1.
          4   -1    0    0  501    0  0.00000000000E+00 -0.00000000000E+00 -0.10178595546E+03  0.10179387815E+03  0.12700000000E+01 0. -1.
         25    2    1    2    0    0  0.00000000000E+00  0.00000000000E+00 -0.63439856365E+02  0.14016100230E+03  0.12498196346E+03 0.  0.
    9000005    1    3    3    0    0  0.29687861569E+02 -0.52357186903E+02 -0.12904999204E+02  0.61564463365E+02  0.10000000000E+01 0.  0.
    9000005    1    3    3    0    0 -0.29687861569E+02  0.52357186903E+02 -0.50534857161E+02  0.78596538939E+02  0.10000000000E+01 0.  0.
<mgrwt>
<rscale>  0 0.12498196E+03</rscale>
<asrwt>0</asrwt>
<pdfrwt beam="2">  1        4 0.25450107E-01 0.12498196E+03</pdfrwt>
<pdfrwt beam="1">  1       -4 0.95901435E-02 0.12498196E+03</pdfrwt>
<totfact> 0.19040115E+03</totfact>
</mgrwt>
</event>
<event>
 5    1  0.1435323E-002  0.1249984E+03  0.7818608E-02  0.1235072E+00
          4   -1    0    0  501    0  0.00000000000E+00  0.00000000000E+00  0.25079887157E+03  0.25080208707E+03  0.12700000000E+01 0.  1.
         -4   -1    0    0    0  501 -0.00000000000E+00 -0.00000000000E+00 -0.15545625098E+02  0.15597415160E+02  0.12700000000E+01 0.  1.
         25    2    1    2    0    0  0.00000000000E+00  0.00000000000E+00  0.23525324647E+03  0.26639950223E+03  0.12499841925E+03 0.  0.
    9000005    1    3    3    0    0 -0.39684942757E+02  0.36764933642E+02  0.18429665244E+03  0.19207501433E+03  0.10000000000E+01 0.  0.
    9000005    1    3    3    0    0  0.39684942757E+02 -0.36764933642E+02  0.50956594027E+02  0.74324487904E+02  0.10000000000E+01 0.  0.
<mgrwt>
<rscale>  0 0.12499842E+03</rscale>
<asrwt>0</asrwt>
<pdfrwt beam="1">  1        4 0.62706593E-01 0.12499842E+03</pdfrwt>
<pdfrwt beam="2">  1       -4 0.38932820E-02 0.12499842E+03</pdfrwt>
<totfact> 0.13968443E+03</totfact>
</mgrwt>
</event>
<event>
 5    1  0.1435323E-002  0.1250155E+03  0.7818608E-02  0.1235045E+00
         -4   -1    0    0    0  501 -0.00000000000E+00  0.00000000000E+00  0.27036909924E+03  0.27037208200E+03  0.12700000000E+01 0.  1.
          4   -1    0    0  501    0  0.00000000000E+00 -0.00000000000E+00 -0.14420462613E+02  0.14476278595E+02  0.12700000000E+01 0.  1.
         25    2    1    2    0    0  0.00000000000E+00  0.00000000000E+00  0.25594863663E+03  0.28484836059E+03  0.12501553480E+03 0.  0.
    9000005    1    3    3    0    0  0.44630335172E+02 -0.38296279707E+02  0.17618764691E+03  0.18574595226E+03  0.10000000000E+01 0.  0.
    9000005    1    3    3    0    0 -0.44630335172E+02  0.38296279707E+02  0.79760989722E+02  0.99102408338E+02  0.10000000000E+01 0.  0.
<mgrwt>
<rscale>  0 0.12501553E+03</rscale>
<asrwt>0</asrwt>
<pdfrwt beam="2">  1        4 0.36124655E-02 0.12501553E+03</pdfrwt>
<pdfrwt beam="1">  1       -4 0.67599624E-01 0.12501553E+03</pdfrwt>
<totfact> 0.13401816E+03</totfact>
</mgrwt>
</event>
<event>
 5    1  0.1435323E-002  0.1250056E+03  0.7818608E-02  0.1235060E+00
          4   -1    0    0  501    0  0.00000000000E+00  0.00000000000E+00  0.31044207206E+02  0.31070173818E+02  0.12700000000E+01 0. -1.
         -4   -1    0    0    0  501 -0.00000000000E+00 -0.00000000000E+00 -0.12575817784E+03  0.12576459038E+03  0.12700000000E+01 0. -1.
         25    2    1    2    0    0  0.00000000000E+00  0.00000000000E+00 -0.94713970634E+02  0.15683476420E+03  0.12500562798E+03 0.  0.
    9000005    1    3    3    0    0  0.91098011409E+01  0.48861728047E+02  0.17222863071E+00  0.49714048389E+02  0.10000000000E+01 0.  0.
    9000005    1    3    3    0    0 -0.91098011409E+01 -0.48861728047E+02 -0.94886199264E+02  0.10712071581E+03  0.10000000000E+01 0.  0.
<mgrwt>
<rscale>  0 0.12500563E+03</rscale>
<asrwt>0</asrwt>
<pdfrwt beam="1">  1        4 0.77650995E-02 0.12500563E+03</pdfrwt>
<pdfrwt beam="2">  1       -4 0.31443591E-01 0.12500563E+03</pdfrwt>
<totfact> 0.18205358E+03</totfact>
</mgrwt>
</event>
<event>
 5    1  0.1435323E-002  0.1250142E+03  0.7818608E-02  0.1235047E+00
         -4   -1    0    0    0  501 -0.00000000000E+00  0.00000000000E+00  0.80936934940E+02  0.80946898257E+02  0.12700000000E+01 0.  1.
          4   -1    0    0  501    0  0.00000000000E+00 -0.00000000000E+00 -0.48252579827E+02  0.48269290029E+02  0.12700000000E+01 0.  1.
         25    2    1    2    0    0  0.00000000000E+00  0.00000000000E+00  0.32684355113E+02  0.12921618829E+03  0.12501422417E+03 0.  0.
    9000005    1    3    3    0    0  0.15273459567E+02 -0.43441384263E+02 -0.27335803034E+02  0.53560046316E+02  0.10000000000E+01 0.  0.
    9000005    1    3    3    0    0 -0.15273459567E+02  0.43441384263E+02  0.60020158148E+02  0.75656141970E+02  0.10000000000E+01 0.  0.
<mgrwt>
<rscale>  0 0.12501422E+03</rscale>
<asrwt>0</asrwt>
<pdfrwt beam="2">  1        4 0.12066479E-01 0.12501422E+03</pdfrwt>
<pdfrwt beam="1">  1       -4 0.20237568E-01 0.12501422E+03</pdfrwt>
<totfact> 0.19600105E+03</totfact>
</mgrwt>
</event>
<event>
 5    1  0.1435323E-002  0.1249947E+03  0.7818608E-02  0.1235078E+00
          4   -1    0    0  501    0  0.00000000000E+00  0.00000000000E+00  0.11847848467E+02  0.11915721266E+02  0.12700000000E+01 0. -1.
         -4   -1    0    0    0  501 -0.00000000000E+00 -0.00000000000E+00 -0.32866270524E+03  0.32866515896E+03  0.12700000000E+01 0. -1.
         25    2    1    2    0    0  0.00000000000E+00  0.00000000000E+00 -0.31681485677E+03  0.34058088023E+03  0.12499472991E+03 0.  0.
    9000005    1    3    3    0    0  0.34917512481E+02 -0.51760614383E+02 -0.16536851366E+03  0.17676577493E+03  0.10000000000E+01 0.  0.
    9000005    1    3    3    0    0 -0.34917512481E+02  0.51760614383E+02 -0.15144634312E+03  0.16381510529E+03  0.10000000000E+01 0.  0.
<mgrwt>
<rscale>  0 0.12499473E+03</rscale>
<asrwt>0</asrwt>
<pdfrwt beam="1">  1        4 0.29707540E-02 0.12499473E+03</pdfrwt>
<pdfrwt beam="2">  1       -4 0.82174437E-01 0.12499473E+03</pdfrwt>
<totfact> 0.11906811E+03</totfact>
</mgrwt>
</event>
<event>
 5    1  0.1435323E-002  0.1249990E+03  0.7818608E-02  0.1235071E+00
          4   -1    0    0  501    0  0.00000000000E+00  0.00000000000E+00  0.14801263917E+04  0.14801269366E+04  0.12700000000E+01 0. -1.
         -4   -1    0    0    0  501 -0.00000000000E+00 -0.00000000000E+00 -0.24857232718E+01  0.27913652903E+01  0.12700000000E+01 0. -1.
         25    2    1    2    0    0  0.00000000000E+00  0.00000000000E+00  0.14776406684E+04  0.14829183018E+04  0.12499897978E+03 0.  0.
    9000005    1    3    3    0    0  0.38676972638E+02  0.36440399044E+01  0.15811733007E+03  0.16282284025E+03  0.10000000000E+01 0.  0.
    9000005    1    3    3    0    0 -0.38676972638E+02 -0.36440399044E+01  0.13195233384E+04  0.13200954616E+04  0.10000000000E+01 0.  0.
<mgrwt>
<rscale>  0 0.12499898E+03</rscale>
<asrwt>0</asrwt>
<pdfrwt beam="1">  1        4 0.37007027E+00 0.12499898E+03</pdfrwt>
<pdfrwt beam="2">  1       -4 0.65970346E-03 0.12499898E+03</pdfrwt>
<totfact> 0.13063563E+02</totfact>
</mgrwt>
</event>
<event>
 5    1  0.1435323E-002  0.1250014E+03  0.7818608E-02  0.1235067E+00
         -4   -1    0    0    0  501 -0.00000000000E+00  0.00000000000E+00  0.96146964848E+02  0.96155352162E+02  0.12700000000E+01 0.  1.
          4   -1    0    0  501    0  0.00000000000E+00 -0.00000000000E+00 -0.40608735893E+02  0.40628590067E+02  0.12700000000E+01 0.  1.
         25    2    1    2    0    0  0.00000000000E+00  0.00000000000E+00  0.55538228955E+02  0.13678394223E+03  0.12500140790E+03 0.  0.
    9000005    1    3    3    0    0  0.32855640405E+02 -0.52674507091E+02  0.19936083988E+02  0.65211534627E+02  0.10000000000E+01 0.  0.
    9000005    1    3    3    0    0 -0.32855640405E+02  0.52674507091E+02  0.35602144968E+02  0.71572407602E+02  0.10000000000E+01 0.  0.
<mgrwt>
<rscale>  0 0.12500141E+03</rscale>
<asrwt>0</asrwt>
<pdfrwt beam="2">  1        4 0.10155714E-01 0.12500141E+03</pdfrwt>
<pdfrwt beam="1">  1       -4 0.24040271E-01 0.12500141E+03</pdfrwt>
<totfact> 0.19205469E+03</totfact>
</mgrwt>
</event>
<event>
 5    1  0.1435323E-002  0.1250035E+03  0.7818608E-02  0.1235064E+00
          4   -1    0    0  501    0  0.00000000000E+00  0.00000000000E+00  0.55958241269E+03  0.55958385385E+03  0.12700000000E+01 0. -1.
         -4   -1    0    0    0  501 -0.00000000000E+00 -0.00000000000E+00 -0.69218207700E+01  0.70373647605E+01  0.12700000000E+01 0. -1.
         25    2    1    2    0    0  0.00000000000E+00  0.00000000000E+00  0.55266059192E+03  0.56662121861E+03  0.12500350203E+03 0.  0.
    9000005    1    3    3    0    0 -0.15972560793E+02  0.56592577010E+02  0.37223248144E+03  0.37684992067E+03  0.10000000000E+01 0.  0.
    9000005    1    3    3    0    0  0.15972560793E+02 -0.56592577010E+02  0.18042811048E+03  0.18977129794E+03  0.10000000000E+01 0.  0.
<mgrwt>
<rscale>  0 0.12500350E+03</rscale>
<asrwt>0</asrwt>
<pdfrwt beam="1">  1        4 0.13991018E+00 0.12500350E+03</pdfrwt>
<pdfrwt beam="2">  1       -4 0.17450789E-02 0.12500350E+03</pdfrwt>
<totfact> 0.77863708E+02</totfact>
</mgrwt>
</event>
<event>
 5    1  0.1435323E-002  0.1249969E+03  0.7818608E-02  0.1235074E+00
         -4   -1    0    0    0  501 -0.00000000000E+00  0.00000000000E+00  0.59299335856E+03  0.59299471852E+03  0.12700000000E+01 0. -1.
          4   -1    0    0  501    0  0.00000000000E+00 -0.00000000000E+00 -0.65244185001E+01  0.66468742101E+01  0.12700000000E+01 0. -1.
         25    2    1    2    0    0  0.00000000000E+00  0.00000000000E+00  0.58646894006E+03  0.59964159273E+03  0.12499688828E+03 0.  0.
    9000005    1    3    3    0    0  0.56953524173E+02 -0.46225138815E+01  0.41459489691E+03  0.41851523281E+03  0.10000000000E+01 0.  0.
    9000005    1    3    3    0    0 -0.56953524173E+02  0.46225138815E+01  0.17187404315E+03  0.18112635993E+03  0.10000000000E+01 0.  0.
<mgrwt>
<rscale>  0 0.12499689E+03</rscale>
<asrwt>0</asrwt>
<pdfrwt beam="2">  1        4 0.16465816E-02 0.12499689E+03</pdfrwt>
<pdfrwt beam="1">  1       -4 0.14826381E+00 0.12499689E+03</pdfrwt>
<totfact> 0.73553183E+02</totfact>
</mgrwt>
</event>
<event>
 5    1  0.1435323E-002  0.1250003E+03  0.7818608E-02  0.1235069E+00
          4   -1    0    0  501    0  0.00000000000E+00  0.00000000000E+00  0.32080045036E+02  0.32105173875E+02  0.12700000000E+01 0.  1.
         -4   -1    0    0    0  501 -0.00000000000E+00 -0.00000000000E+00 -0.12169023796E+03  0.12169686485E+03  0.12700000000E+01 0.  1.
         25    2    1    2    0    0  0.00000000000E+00  0.00000000000E+00 -0.89610192925E+02  0.15380203873E+03  0.12500032176E+03 0.  0.
    9000005    1    3    3    0    0 -0.41611998953E+02 -0.30702163059E+02 -0.87976449290E+02  0.10205408812E+03  0.10000000000E+01 0.  0.
    9000005    1    3    3    0    0  0.41611998953E+02  0.30702163059E+02 -0.16337436352E+01  0.51747950603E+02  0.10000000000E+01 0.  0.
<mgrwt>
<rscale>  0 0.12500032E+03</rscale>
<asrwt>0</asrwt>
<pdfrwt beam="1">  1        4 0.80239810E-02 0.12500032E+03</pdfrwt>
<pdfrwt beam="2">  1       -4 0.30426528E-01 0.12500032E+03</pdfrwt>
<totfact> 0.18353264E+03</totfact>
</mgrwt>
</event>
<event>
 5    1  0.1435323E-002  0.1250081E+03  0.7818608E-02  0.1235057E+00
         -4   -1    0    0    0  501 -0.00000000000E+00  0.00000000000E+00  0.11869845691E+02  0.11937593423E+02  0.12700000000E+01 0. -1.
          4   -1    0    0  501    0  0.00000000000E+00 -0.00000000000E+00 -0.32812707756E+03  0.32812953529E+03  0.12700000000E+01 0. -1.
         25    2    1    2    0    0  0.00000000000E+00  0.00000000000E+00 -0.31625723187E+03  0.34006712871E+03  0.12500806102E+03 0.  0.
    9000005    1    3    3    0    0 -0.44133995617E+02 -0.31082698897E+02 -0.72456223144E+02  0.90359548539E+02  0.10000000000E+01 0.  0.
    9000005    1    3    3    0    0  0.44133995617E+02  0.31082698897E+02 -0.24380100872E+03  0.24970758017E+03  0.10000000000E+01 0.  0.
<mgrwt>
<rscale>  0 0.12500806E+03</rscale>
<asrwt>0</asrwt>
<pdfrwt beam="2">  1        4 0.82040515E-01 0.12500806E+03</pdfrwt>
<pdfrwt beam="1">  1       -4 0.29762382E-02 0.12500806E+03</pdfrwt>
<totfact> 0.11915830E+03</totfact>
</mgrwt>
</event>
<event>
 5    1  0.1435323E-002  0.1250010E+03  0.7818608E-02  0.1235068E+00
         -4   -1    0    0    0  501 -0.00000000000E+00  0.00000000000E+00  0.12694346765E+02  0.12757716872E+02  0.12700000000E+01 0. -1.
          4   -1    0    0  501    0  0.00000000000E+00 -0.00000000000E+00 -0.30688989509E+03  0.30689252290E+03  0.12700000000E+01 0. -1.
         25    2    1    2    0    0  0.00000000000E+00  0.00000000000E+00 -0.29419554833E+03  0.31965023977E+03  0.12500102051E+03 0.  0.
    9000005    1    3    3    0    0 -0.27932780492E+02  0.53201241978E+02 -0.19099656736E+03  0.20022812269E+03  0.10000000000E+01 0.  0.
    9000005    1    3    3    0    0  0.27932780492E+02 -0.53201241978E+02 -0.10319898097E+03  0.11942211708E+03  0.10000000000E+01 0.  0.
<mgrwt>
<rscale>  0 0.12500102E+03</rscale>
<asrwt>0</asrwt>
<pdfrwt beam="2">  1        4 0.76730699E-01 0.12500102E+03</pdfrwt>
<pdfrwt beam="1">  1       -4 0.31818374E-02 0.12500102E+03</pdfrwt>
<totfact> 0.12437371E+03</totfact>
</mgrwt>
</event>
<event>
 5    1  0.1435323E-002  0.1250026E+03  0.7818608E-02  0.1235065E+00
          4   -1    0    0  501    0  0.00000000000E+00  0.00000000000E+00  0.75599260037E+02  0.75609926717E+02  0.12700000000E+01 0. -1.
         -4   -1    0    0    0  501 -0.00000000000E+00 -0.00000000000E+00 -0.51650500213E+02  0.51666111449E+02  0.12700000000E+01 0. -1.
         25    2    1    2    0    0  0.00000000000E+00  0.00000000000E+00  0.23948759824E+02  0.12727603817E+03  0.12500258715E+03 0.  0.
    9000005    1    3    3    0    0 -0.62227617569E+02 -0.35249882870E+01  0.16607944930E+02  0.64509888897E+02  0.10000000000E+01 0.  0.
    9000005    1    3    3    0    0  0.62227617569E+02  0.35249882870E+01  0.73408148941E+01  0.62766149269E+02  0.10000000000E+01 0.  0.
<mgrwt>
<rscale>  0 0.12500259E+03</rscale>
<asrwt>0</asrwt>
<pdfrwt beam="1">  1        4 0.18903100E-01 0.12500259E+03</pdfrwt>
<pdfrwt beam="2">  1       -4 0.12915910E-01 0.12500259E+03</pdfrwt>
<totfact> 0.19710831E+03</totfact>
</mgrwt>
</event>
<event>
 4    1  0.1435323E-002  0.1248963E+03  0.7818608E-02  0.1235231E+00
         -4   -1    0    0    0  501 -0.00000000000E+00  0.00000000000E+00  0.34802197913E+02  0.34825362591E+02  0.12700000000E+01 0. -1.
          4   -1    0    0  501    0  0.00000000000E+00 -0.00000000000E+00 -0.11199127904E+03  0.11199847981E+03  0.12700000000E+01 0. -1.
    9000005    1    1    2    0    0 -0.13185009045E+02  0.15448563806E+02  0.30816323641E+02  0.36920839507E+02  0.10000000000E+01 0.  0.
    9000005    1    1    2    0    0  0.13185009045E+02 -0.15448563806E+02 -0.10800540476E+03  0.10990300290E+03  0.10000000000E+01 0.  0.
<mgrwt>
<rscale>  0 0.12489630E+03</rscale>
<asrwt>0</asrwt>
<pdfrwt beam="2">  1        4 0.28001615E-01 0.12489630E+03</pdfrwt>
<pdfrwt beam="1">  1       -4 0.87043454E-02 0.12489630E+03</pdfrwt>
<totfact> 0.18741269E+03</totfact>
</mgrwt>
</event>
<event>
 5    1  0.1435323E-002  0.1249994E+03  0.7818608E-02  0.1235070E+00
         -4   -1    0    0    0  501 -0.00000000000E+00  0.00000000000E+00  0.90944124390E+01  0.91826596153E+01  0.12700000000E+01 0. -1.
          4   -1    0    0  501    0  0.00000000000E+00 -0.00000000000E+00 -0.42735476414E+03  0.42735665121E+03  0.12700000000E+01 0. -1.
         25    2    1    2    0    0  0.00000000000E+00  0.00000000000E+00 -0.41826035170E+03  0.43653931082E+03  0.12499939236E+03 0.  0.
    9000005    1    3    3    0    0 -0.55733853273E+02 -0.78635570096E+01 -0.11431391732E+03  0.12742358346E+03  0.10000000000E+01 0.  0.
    9000005    1    3    3    0    0  0.55733853273E+02  0.78635570096E+01 -0.30394643438E+03  0.30911572736E+03  0.10000000000E+01 0.  0.
<mgrwt>
<rscale>  0 0.12499939E+03</rscale>
<asrwt>0</asrwt>
<pdfrwt beam="2">  1        4 0.10684989E+00 0.12499939E+03</pdfrwt>
<pdfrwt beam="1">  1       -4 0.22848713E-02 0.12499939E+03</pdfrwt>
<totfact> 0.98486283E+02</totfact>
</mgrwt>
</event>
<event>
 5    1  0.1435323E-002  0.1250201E+03  0.7818608E-02  0.1235038E+00
         -4   -1    0    0    0  501 -0.00000000000E+00  0.00000000000E+00  0.16774545132E+02  0.16822552255E+02  0.12700000000E+01 0.  1.
          4   -1    0    0  501    0  0.00000000000E+00 -0.00000000000E+00 -0.23255998857E+03  0.23256345625E+03  0.12700000000E+01 0.  1.
         25    2    1    2    0    0  0.00000000000E+00  0.00000000000E+00 -0.21578544344E+03  0.24938600851E+03  0.12502009294E+03 0.  0.
    9000005    1    3    3    0    0  0.49266153881E+02  0.49491740166E+01 -0.18397833062E+03  0.19052735861E+03  0.10000000000E+01 0.  0.
    9000005    1    3    3    0    0 -0.49266153881E+02 -0.49491740166E+01 -0.31807112818E+02  0.58858649895E+02  0.10000000000E+01 0.  0.
<mgrwt>
<rscale>  0 0.12502009E+03</rscale>
<asrwt>0</asrwt>
<pdfrwt beam="2">  1        4 0.58146421E-01 0.12502009E+03</pdfrwt>
<pdfrwt beam="1">  1       -4 0.42000714E-02 0.12502009E+03</pdfrwt>
<totfact> 0.14511727E+03</totfact>
</mgrwt>
</event>
<event>
 5    1  0.1435323E-002  0.1250009E+03  0.7818608E-02  0.1235068E+00
         -4   -1    0    0    0  501 -0.00000000000E+00  0.00000000000E+00  0.82998641286E+02  0.83008357141E+02  0.12700000000E+01 0.  1.
          4   -1    0    0  501    0  0.00000000000E+00 -0.00000000000E+00 -0.47043628017E+02  0.47060767493E+02  0.12700000000E+01 0.  1.
         25    2    1    2    0    0  0.00000000000E+00  0.00000000000E+00  0.35955013268E+02  0.13006912463E+03  0.12500085681E+03 0.  0.
    9000005    1    3    3    0    0 -0.58310756599E+02 -0.12908333419E+02  0.37122819439E+02  0.70326901893E+02  0.10000000000E+01 0.  0.
    9000005    1    3    3    0    0  0.58310756599E+02  0.12908333419E+02 -0.11678061711E+01  0.59742222741E+02  0.10000000000E+01 0.  0.
<mgrwt>
<rscale>  0 0.12500086E+03</rscale>
<asrwt>0</asrwt>
<pdfrwt beam="2">  1        4 0.11764264E-01 0.12500086E+03</pdfrwt>
<pdfrwt beam="1">  1       -4 0.20753017E-01 0.12500086E+03</pdfrwt>
<totfact> 0.19560276E+03</totfact>
</mgrwt>
</event>
<event>
 5    1  0.1435323E-002  0.1249986E+03  0.7818608E-02  0.1235071E+00
          4   -1    0    0  501    0  0.00000000000E+00  0.00000000000E+00  0.33867694076E+01  0.36170577850E+01  0.12700000000E+01 0. -1.
         -4   -1    0    0    0  501 -0.00000000000E+00 -0.00000000000E+00 -0.11152059807E+04  0.11152067038E+04  0.12700000000E+01 0. -1.
         25    2    1    2    0    0  0.00000000000E+00  0.00000000000E+00 -0.11118192113E+04  0.11188237616E+04  0.12499860390E+03 0.  0.
    9000005    1    3    3    0    0  0.36512228528E+02  0.45760231226E+02 -0.36021444988E+03  0.36494190153E+03  0.10000000000E+01 0.  0.
    9000005    1    3    3    0    0 -0.36512228528E+02 -0.45760231226E+02 -0.75160476139E+03  0.75388186006E+03  0.10000000000E+01 0.  0.
<mgrwt>
<rscale>  0 0.12499860E+03</rscale>
<asrwt>0</asrwt>
<pdfrwt beam="1">  1        4 0.87557261E-03 0.12499860E+03</pdfrwt>
<pdfrwt beam="2">  1       -4 0.27882916E+00 0.12499860E+03</pdfrwt>
<totfact> 0.29679061E+02</totfact>
</mgrwt>
</event>
<event>
 5    1  0.1435323E-002  0.1249992E+03  0.7818608E-02  0.1235070E+00
          4   -1    0    0  501    0  0.00000000000E+00  0.00000000000E+00  0.28425172778E+03  0.28425456486E+03  0.12700000000E+01 0. -1.
         -4   -1    0    0    0  501 -0.00000000000E+00 -0.00000000000E+00 -0.13709796692E+02  0.13768493939E+02  0.12700000000E+01 0. -1.
         25    2    1    2    0    0  0.00000000000E+00  0.00000000000E+00  0.27054193109E+03  0.29802305880E+03  0.12499922840E+03 0.  0.
    9000005    1    3    3    0    0  0.71615251433E+01 -0.54223276155E+02  0.20734127494E+03  0.21443613365E+03  0.10000000000E+01 0.  0.
    9000005    1    3    3    0    0 -0.71615251433E+01  0.54223276155E+02  0.63200656141E+02  0.83586925150E+02  0.10000000000E+01 0.  0.
<mgrwt>
<rscale>  0 0.12499923E+03</rscale>
<asrwt>0</asrwt>
<pdfrwt beam="1">  1        4 0.71070620E-01 0.12499923E+03</pdfrwt>
<pdfrwt beam="2">  1       -4 0.34351411E-02 0.12499923E+03</pdfrwt>
<totfact> 0.13026876E+03</totfact>
</mgrwt>
</event>
<event>
 5    1  0.1435323E-002  0.1249957E+03  0.7818608E-02  0.1235076E+00
          4   -1    0    0  501    0  0.00000000000E+00  0.00000000000E+00  0.74907133585E+02  0.74917898809E+02  0.12700000000E+01 0. -1.
         -4   -1    0    0    0  501 -0.00000000000E+00 -0.00000000000E+00 -0.52122095492E+02  0.52137565521E+02  0.12700000000E+01 0. -1.
         25    2    1    2    0    0  0.00000000000E+00  0.00000000000E+00  0.22785038093E+02  0.12705546433E+03  0.12499573215E+03 0.  0.
    9000005    1    3    3    0    0  0.60585108811E+02  0.12976276796E+02  0.19653186864E+02  0.65009129536E+02  0.10000000000E+01 0.  0.
    9000005    1    3    3    0    0 -0.60585108811E+02 -0.12976276796E+02  0.31318512291E+01  0.62046334793E+02  0.10000000000E+01 0.  0.
<mgrwt>
<rscale>  0 0.12499573E+03</rscale>
<asrwt>0</asrwt>
<pdfrwt beam="1">  1        4 0.18730063E-01 0.12499573E+03</pdfrwt>
<pdfrwt beam="2">  1       -4 0.13033803E-01 0.12499573E+03</pdfrwt>
<totfact> 0.19725960E+03</totfact>
</mgrwt>
</event>
<event>
 5    1  0.1435323E-002  0.1249991E+03  0.7818608E-02  0.1235071E+00
          4   -1    0    0  501    0  0.00000000000E+00  0.00000000000E+00  0.27081408790E+02  0.27111171167E+02  0.12700000000E+01 0. -1.
         -4   -1    0    0    0  501 -0.00000000000E+00 -0.00000000000E+00 -0.14412711004E+03  0.14413270534E+03  0.12700000000E+01 0. -1.
         25    2    1    2    0    0  0.00000000000E+00  0.00000000000E+00 -0.11704570125E+03  0.17124387651E+03  0.12499907624E+03 0.  0.
    9000005    1    3    3    0    0 -0.27137462437E+02 -0.50576645305E+01 -0.13532833137E+03  0.13811871383E+03  0.10000000000E+01 0.  0.
    9000005    1    3    3    0    0  0.27137462437E+02  0.50576645305E+01  0.18282630123E+02  0.33125162675E+02  0.10000000000E+01 0.  0.
<mgrwt>
<rscale>  0 0.12499908E+03</rscale>
<asrwt>0</asrwt>
<pdfrwt beam="1">  1        4 0.67747723E-02 0.12499908E+03</pdfrwt>
<pdfrwt beam="2">  1       -4 0.36036195E-01 0.12499908E+03</pdfrwt>
<totfact> 0.17541465E+03</totfact>
</mgrwt>
</event>
<event>
 5    1  0.1435323E-002  0.1250004E+03  0.7818608E-02  0.1235069E+00
          4   -1    0    0  501    0  0.00000000000E+00  0.00000000000E+00  0.96086184047E+01  0.96921848748E+01  0.12700000000E+01 0.  1.
         -4   -1    0    0    0  501 -0.00000000000E+00 -0.00000000000E+00 -0.40469369909E+03  0.40469569182E+03  0.12700000000E+01 0.  1.
         25    2    1    2    0    0  0.00000000000E+00  0.00000000000E+00 -0.39508508068E+03  0.41438787670E+03  0.12500036551E+03 0.  0.
    9000005    1    3    3    0    0 -0.18007831975E+02 -0.27742559500E+02 -0.21769389093E+02  0.39608558690E+02  0.10000000000E+01 0.  0.
    9000005    1    3    3    0    0  0.18007831975E+02  0.27742559500E+02 -0.37331569159E+03  0.37477931801E+03  0.10000000000E+01 0.  0.
<mgrwt>
<rscale>  0 0.12500037E+03</rscale>
<asrwt>0</asrwt>
<pdfrwt beam="1">  1        4 0.24128509E-02 0.12500037E+03</pdfrwt>
<pdfrwt beam="2">  1       -4 0.10118406E+00 0.12500037E+03</pdfrwt>
<totfact> 0.10277495E+03</totfact>
</mgrwt>
</event>
<event>
 5    1  0.1435323E-002  0.1250015E+03  0.7818608E-02  0.1235067E+00
         -4   -1    0    0    0  501 -0.00000000000E+00  0.00000000000E+00  0.63167515881E+03  0.63167643550E+03  0.12700000000E+01 0.  1.
          4   -1    0    0  501    0  0.00000000000E+00 -0.00000000000E+00 -0.61176018278E+01  0.62480358613E+01  0.12700000000E+01 0.  1.
         25    2    1    2    0    0  0.00000000000E+00  0.00000000000E+00  0.62555755699E+03  0.63792447136E+03  0.12500149621E+03 0.  0.
    9000005    1    3    3    0    0  0.48182926612E+02  0.39678285318E+02  0.29714659604E+03  0.30363310142E+03  0.10000000000E+01 0.  0.
    9000005    1    3    3    0    0 -0.48182926612E+02 -0.39678285318E+02  0.32841096095E+03  0.33429136994E+03  0.10000000000E+01 0.  0.
<mgrwt>
<rscale>  0 0.12500150E+03</rscale>
<asrwt>0</asrwt>
<pdfrwt beam="2">  1        4 0.15458645E-02 0.12500150E+03</pdfrwt>
<pdfrwt beam="1">  1       -4 0.15793524E+00 0.12500150E+03</pdfrwt>
<totfact> 0.68907476E+02</totfact>
</mgrwt>
</event>
<event>
 5    1  0.1435323E-002  0.1250012E+03  0.7818608E-02  0.1235067E+00
          4   -1    0    0  501    0  0.00000000000E+00  0.00000000000E+00  0.17004441441E+02  0.17051801334E+02  0.12700000000E+01 0. -1.
         -4   -1    0    0    0  501 -0.00000000000E+00 -0.00000000000E+00 -0.22935518623E+03  0.22935870237E+03  0.12700000000E+01 0. -1.
         25    2    1    2    0    0  0.00000000000E+00  0.00000000000E+00 -0.21235074479E+03  0.24641050370E+03  0.12500119008E+03 0.  0.
    9000005    1    3    3    0    0  0.42929780613E+02  0.42695968532E+02 -0.13667668710E+03  0.14949056355E+03  0.10000000000E+01 0.  0.
    9000005    1    3    3    0    0 -0.42929780613E+02 -0.42695968532E+02 -0.75674057690E+02  0.96919940155E+02  0.10000000000E+01 0.  0.
<mgrwt>
<rscale>  0 0.12500119E+03</rscale>
<asrwt>0</asrwt>
<pdfrwt beam="1">  1        4 0.42574706E-02 0.12500119E+03</pdfrwt>
<pdfrwt beam="2">  1       -4 0.57345146E-01 0.12500119E+03</pdfrwt>
<totfact> 0.14617728E+03</totfact>
</mgrwt>
</event>
<event>
 5    1  0.1435323E-002  0.1250005E+03  0.7818608E-02  0.1235069E+00
          4   -1    0    0  501    0  0.00000000000E+00  0.00000000000E+00  0.13578499360E+03  0.13579093264E+03  0.12700000000E+01 0.  1.
         -4   -1    0    0    0  501 -0.00000000000E+00 -0.00000000000E+00 -0.28747528913E+02  0.28775568084E+02  0.12700000000E+01 0.  1.
         25    2    1    2    0    0  0.00000000000E+00  0.00000000000E+00  0.10703746468E+03  0.16456650072E+03  0.12500045725E+03 0.  0.
    9000005    1    3    3    0    0  0.59079026676E+02 -0.60388837336E+01  0.79131161255E+02  0.98942105250E+02  0.10000000000E+01 0.  0.
    9000005    1    3    3    0    0 -0.59079026676E+02  0.60388837336E+01  0.27906303430E+02  0.65624395471E+02  0.10000000000E+01 0.  0.
<mgrwt>
<rscale>  0 0.12500046E+03</rscale>
<asrwt>0</asrwt>
<pdfrwt beam="1">  1        4 0.33950495E-01 0.12500046E+03</pdfrwt>
<pdfrwt beam="2">  1       -4 0.71911296E-02 0.12500046E+03</pdfrwt>
<totfact> 0.17844753E+03</totfact>
</mgrwt>
</event>
<event>
 5    1  0.1435323E-002  0.1250037E+03  0.7818608E-02  0.1235064E+00
         -4   -1    0    0    0  501 -0.00000000000E+00  0.00000000000E+00  0.40580266710E+02  0.40600134806E+02  0.12700000000E+01 0. -1.
          4   -1    0    0  501    0  0.00000000000E+00 -0.00000000000E+00 -0.96217895311E+02  0.96226276443E+02  0.12700000000E+01 0. -1.
         25    2    1    2    0    0  0.00000000000E+00  0.00000000000E+00 -0.55637628601E+02  0.13682641125E+03  0.12500368434E+03 0.  0.
    9000005    1    3    3    0    0 -0.46559647038E+02 -0.41611969351E+02 -0.30527438317E+02  0.69514611527E+02  0.10000000000E+01 0.  0.
    9000005    1    3    3    0    0  0.46559647038E+02  0.41611969351E+02 -0.25110190284E+02  0.67311799721E+02  0.10000000000E+01 0.  0.
<mgrwt>
<rscale>  0 0.12500368E+03</rscale>
<asrwt>0</asrwt>
<pdfrwt beam="2">  1        4 0.24058005E-01 0.12500368E+03</pdfrwt>
<pdfrwt beam="1">  1       -4 0.10148598E-01 0.12500368E+03</pdfrwt>
<totfact> 0.19202244E+03</totfact>
</mgrwt>
</event>
<event>
 5    1  0.1435323E-002  0.1250013E+03  0.7818608E-02  0.1235067E+00
         -4   -1    0    0    0  501 -0.00000000000E+00  0.00000000000E+00  0.61639560353E+02  0.61652642283E+02  0.12700000000E+01 0.  1.
          4   -1    0    0  501    0  0.00000000000E+00 -0.00000000000E+00 -0.63347617480E+02  0.63360346751E+02  0.12700000000E+01 0.  1.
         25    2    1    2    0    0  0.00000000000E+00  0.00000000000E+00 -0.17080571272E+01  0.12501298903E+03  0.12500131986E+03 0.  0.
    9000005    1    3    3    0    0  0.56400049324E+02 -0.26617315782E+02 -0.48400535024E+01  0.62560955724E+02  0.10000000000E+01 0.  0.
    9000005    1    3    3    0    0 -0.56400049324E+02  0.26617315782E+02  0.31319963752E+01  0.62452033309E+02  0.10000000000E+01 0.  0.
<mgrwt>
<rscale>  0 0.12500132E+03</rscale>
<asrwt>0</asrwt>
<pdfrwt beam="2">  1        4 0.15840131E-01 0.12500132E+03</pdfrwt>
<pdfrwt beam="1">  1       -4 0.15413116E-01 0.12500132E+03</pdfrwt>
<totfact> 0.19833738E+03</totfact>
</mgrwt>
</event>
<event>
 4    1  0.1435323E-002  0.1250855E+03  0.7818608E-02  0.1234936E+00
          4   -1    0    0  501    0  0.00000000000E+00  0.00000000000E+00  0.89660989312E+02  0.89669983296E+02  0.12700000000E+01 0. -1.
         -4   -1    0    0    0  501 -0.00000000000E+00 -0.00000000000E+00 -0.43606054164E+02  0.43624544236E+02  0.12700000000E+01 0. -1.
    9000005    1    1    2    0    0 -0.49135935961E+02 -0.85589028774E+01 -0.17170832186E+02  0.52758245794E+02  0.10000000000E+01 0.  0.
    9000005    1    1    2    0    0  0.49135935961E+02  0.85589028774E+01  0.63225767334E+02  0.80536281738E+02  0.10000000000E+01 0.  0.
<mgrwt>
<rscale>  0 0.12508547E+03</rscale>
<asrwt>0</asrwt>
<pdfrwt beam="1">  1        4 0.22418683E-01 0.12508547E+03</pdfrwt>
<pdfrwt beam="2">  1       -4 0.10904949E-01 0.12508547E+03</pdfrwt>
<totfact> 0.19350224E+03</totfact>
</mgrwt>
</event>
<event>
 5    1  0.1435323E-002  0.1250005E+03  0.7818608E-02  0.1235068E+00
         -4   -1    0    0    0  501 -0.00000000000E+00  0.00000000000E+00  0.70788366561E+02  0.70799758054E+02  0.12700000000E+01 0.  1.
          4   -1    0    0  501    0  0.00000000000E+00 -0.00000000000E+00 -0.55159402632E+02  0.55174021049E+02  0.12700000000E+01 0.  1.
         25    2    1    2    0    0  0.00000000000E+00  0.00000000000E+00  0.15628963930E+02  0.12597377910E+03  0.12500051403E+03 0.  0.
    9000005    1    3    3    0    0 -0.61456392561E+02 -0.11185689541E+02  0.59908931498E+01  0.62760645613E+02  0.10000000000E+01 0.  0.
    9000005    1    3    3    0    0  0.61456392561E+02  0.11185689541E+02  0.96380707802E+01  0.63213133489E+02  0.10000000000E+01 0.  0.
<mgrwt>
<rscale>  0 0.12500051E+03</rscale>
<asrwt>0</asrwt>
<pdfrwt beam="2">  1        4 0.13793102E-01 0.12500051E+03</pdfrwt>
<pdfrwt beam="1">  1       -4 0.17700343E-01 0.12500051E+03</pdfrwt>
<totfact> 0.19782099E+03</totfact>
</mgrwt>
</event>
<event>
 5    1  0.1435323E-002  0.1250031E+03  0.7818608E-02  0.1235064E+00
         -4   -1    0    0    0  501 -0.00000000000E+00  0.00000000000E+00  0.13399471944E+03  0.13400073782E+03  0.12700000000E+01 0. -1.
          4   -1    0    0  501    0  0.00000000000E+00 -0.00000000000E+00 -0.29133207826E+02  0.29160876157E+02  0.12700000000E+01 0. -1.
         25    2    1    2    0    0  0.00000000000E+00  0.00000000000E+00  0.10486151161E+03  0.16316161398E+03  0.12500310260E+03 0.  0.
    9000005    1    3    3    0    0  0.58437649360E+01 -0.15190486738E+02 -0.26324638270E+02  0.30965901505E+02  0.10000000000E+01 0.  0.
    9000005    1    3    3    0    0 -0.58437649360E+01  0.15190486738E+02  0.13118614988E+03  0.13219571247E+03  0.10000000000E+01 0.  0.
<mgrwt>
<rscale>  0 0.12500310E+03</rscale>
<asrwt>0</asrwt>
<pdfrwt beam="2">  1        4 0.72875130E-02 0.12500310E+03</pdfrwt>
<pdfrwt beam="1">  1       -4 0.33502890E-01 0.12500310E+03</pdfrwt>
<totfact> 0.17908681E+03</totfact>
</mgrwt>
</event>
<event>
 5    1  0.1435323E-002  0.1250001E+03  0.7818608E-02  0.1235069E+00
          4   -1    0    0  501    0  0.00000000000E+00  0.00000000000E+00  0.46440805399E+02  0.46458167270E+02  0.12700000000E+01 0. -1.
         -4   -1    0    0    0  501 -0.00000000000E+00 -0.00000000000E+00 -0.84074734164E+02  0.84084325678E+02  0.12700000000E+01 0. -1.
         25    2    1    2    0    0  0.00000000000E+00  0.00000000000E+00 -0.37633928764E+02  0.13054249295E+03  0.12500011948E+03 0.  0.
    9000005    1    3    3    0    0  0.11825265410E+02  0.13899978561E+02 -0.81234991207E+02  0.83265659803E+02  0.10000000000E+01 0.  0.
    9000005    1    3    3    0    0 -0.11825265410E+02 -0.13899978561E+02  0.43601062443E+02  0.47276833145E+02  0.10000000000E+01 0.  0.
<mgrwt>
<rscale>  0 0.12500012E+03</rscale>
<asrwt>0</asrwt>
<pdfrwt beam="1">  1        4 0.11613571E-01 0.12500012E+03</pdfrwt>
<pdfrwt beam="2">  1       -4 0.21022052E-01 0.12500012E+03</pdfrwt>
<totfact> 0.19535209E+03</totfact>
</mgrwt>
</event>
<event>
 5    1  0.1435323E-002  0.1250002E+03  0.7818608E-02  0.1235069E+00
         -4   -1    0    0    0  501 -0.00000000000E+00  0.00000000000E+00  0.62320415663E+01  0.63601290933E+01  0.12700000000E+01 0. -1.
          4   -1    0    0  501    0  0.00000000000E+00 -0.00000000000E+00 -0.62029892946E+03  0.62030022956E+03  0.12700000000E+01 0. -1.
         25    2    1    2    0    0  0.00000000000E+00  0.00000000000E+00 -0.61406688789E+03  0.62666035865E+03  0.12500024919E+03 0.  0.
    9000005    1    3    3    0    0 -0.42783973255E+02  0.43465952745E+02 -0.23875197562E+03  0.24642090674E+03  0.10000000000E+01 0.  0.
    9000005    1    3    3    0    0  0.42783973255E+02 -0.43465952745E+02 -0.37531491227E+03  0.38023945191E+03  0.10000000000E+01 0.  0.
<mgrwt>
<rscale>  0 0.12500025E+03</rscale>
<asrwt>0</asrwt>
<pdfrwt beam="2">  1        4 0.15509070E+00 0.12500025E+03</pdfrwt>
<pdfrwt beam="1">  1       -4 0.15741860E-02 0.12500025E+03</pdfrwt>
<totfact> 0.70245779E+02</totfact>
</mgrwt>
</event>
<event>
 5    1  0.1435323E-002  0.1249481E+03  0.7818608E-02  0.1235150E+00
          4   -1    0    0  501    0  0.00000000000E+00  0.00000000000E+00  0.18344318958E+03  0.18344758571E+03  0.12700000000E+01 0. -1.
         -4   -1    0    0    0  501 -0.00000000000E+00 -0.00000000000E+00 -0.21252760628E+02  0.21290672472E+02  0.12700000000E+01 0. -1.
         25    2    1    2    0    0  0.00000000000E+00  0.00000000000E+00  0.16219042895E+03  0.20473825818E+03  0.12494806569E+03 0.  0.
    9000005    1    3    3    0    0  0.32608164082E+02 -0.44728793419E+01 -0.58997948202E+01  0.33453050583E+02  0.10000000000E+01 0.  0.
    9000005    1    3    3    0    0 -0.32608164082E+02  0.44728793419E+01  0.16809022377E+03  0.17128520760E+03  0.10000000000E+01 0.  0.
<mgrwt>
<rscale>  0 0.12494807E+03</rscale>
<asrwt>0</asrwt>
<pdfrwt beam="1">  1        4 0.45866085E-01 0.12494807E+03</pdfrwt>
<pdfrwt beam="2">  1       -4 0.53184787E-02 0.12494807E+03</pdfrwt>
<totfact> 0.16153436E+03</totfact>
</mgrwt>
</event>
<event>
 5    1  0.1435323E-002  0.1249976E+03  0.7818608E-02  0.1235073E+00
          4   -1    0    0  501    0  0.00000000000E+00  0.00000000000E+00  0.26053567374E+02  0.26084502542E+02  0.12700000000E+01 0. -1.
         -4   -1    0    0    0  501 -0.00000000000E+00 -0.00000000000E+00 -0.14980305516E+03  0.14980843847E+03  0.12700000000E+01 0. -1.
         25    2    1    2    0    0  0.00000000000E+00  0.00000000000E+00 -0.12374948779E+03  0.17589294101E+03  0.12499756385E+03 0.  0.
    9000005    1    3    3    0    0 -0.45488580385E+02 -0.30727976815E+02 -0.10389425019E+03  0.11750929634E+03  0.10000000000E+01 0.  0.
    9000005    1    3    3    0    0  0.45488580385E+02  0.30727976815E+02 -0.19855237602E+02  0.58383644669E+02  0.10000000000E+01 0.  0.
<mgrwt>
<rscale>  0 0.12499756E+03</rscale>
<asrwt>0</asrwt>
<pdfrwt beam="1">  1        4 0.65179321E-02 0.12499756E+03</pdfrwt>
<pdfrwt beam="2">  1       -4 0.37455301E-01 0.12499756E+03</pdfrwt>
<totfact> 0.17335460E+03</totfact>
</mgrwt>
</event>
<event>
 5    1  0.1435323E-002  0.1250036E+03  0.7818608E-02  0.1235064E+00
         -4   -1    0    0    0  501 -0.00000000000E+00  0.00000000000E+00  0.15889468316E+03  0.15889975845E+03  0.12700000000E+01 0. -1.
          4   -1    0    0  501    0  0.00000000000E+00 -0.00000000000E+00 -0.24563434127E+02  0.24596243537E+02  0.12700000000E+01 0. -1.
         25    2    1    2    0    0  0.00000000000E+00  0.00000000000E+00  0.13433124903E+03  0.18349600199E+03  0.12500359307E+03 0.  0.
    9000005    1    3    3    0    0 -0.47809045414E+02  0.36863382695E+02  0.43456883655E+02  0.74391629530E+02  0.10000000000E+01 0.  0.
    9000005    1    3    3    0    0  0.47809045414E+02 -0.36863382695E+02  0.90874365377E+02  0.10910437246E+03  0.10000000000E+01 0.  0.
<mgrwt>
<rscale>  0 0.12500359E+03</rscale>
<asrwt>0</asrwt>
<pdfrwt beam="2">  1        4 0.61455942E-02 0.12500359E+03</pdfrwt>
<pdfrwt beam="1">  1       -4 0.39728406E-01 0.12500359E+03</pdfrwt>
<totfact> 0.17003512E+03</totfact>
</mgrwt>
</event>
<event>
 5    1  0.1435323E-002  0.1250003E+03  0.7818608E-02  0.1235069E+00
         -4   -1    0    0    0  501 -0.00000000000E+00  0.00000000000E+00  0.44596406470E+03  0.44596587303E+03  0.12700000000E+01 0. -1.
          4   -1    0    0  501    0  0.00000000000E+00 -0.00000000000E+00 -0.87112896915E+01  0.88033782203E+01  0.12700000000E+01 0. -1.
         25    2    1    2    0    0  0.00000000000E+00  0.00000000000E+00  0.43725277501E+03  0.45476925125E+03  0.12500033051E+03 0.  0.
    9000005    1    3    3    0    0  0.57156098948E+02  0.96001074698E+01  0.13359267552E+03  0.14562618124E+03  0.10000000000E+01 0.  0.
    9000005    1    3    3    0    0 -0.57156098948E+02 -0.96001074698E+01  0.30366009949E+03  0.30914307001E+03  0.10000000000E+01 0.  0.
<mgrwt>
<rscale>  0 0.12500033E+03</rscale>
<asrwt>0</asrwt>
<pdfrwt beam="2">  1        4 0.21895596E-02 0.12500033E+03</pdfrwt>
<pdfrwt beam="1">  1       -4 0.11150275E+00 0.12500033E+03</pdfrwt>
<totfact> 0.95166255E+02</totfact>
</mgrwt>
</event>
<event>
 5    1  0.1435323E-002  0.1250005E+03  0.7818608E-02  0.1235069E+00
         -4   -1    0    0    0  501 -0.00000000000E+00  0.00000000000E+00  0.63378724955E+02  0.63391447979E+02  0.12700000000E+01 0. -1.
          4   -1    0    0  501    0  0.00000000000E+00 -0.00000000000E+00 -0.61608482609E+02  0.61621571137E+02  0.12700000000E+01 0. -1.
         25    2    1    2    0    0  0.00000000000E+00  0.00000000000E+00  0.17702423464E+01  0.12501301912E+03  0.12500048476E+03 0.  0.
    9000005    1    3    3    0    0  0.23728288030E+02 -0.19508112522E+02 -0.53541675375E+02  0.61735800869E+02  0.10000000000E+01 0.  0.
    9000005    1    3    3    0    0 -0.23728288030E+02  0.19508112522E+02  0.55311917721E+02  0.63277218247E+02  0.10000000000E+01 0.  0.
<mgrwt>
<rscale>  0 0.12500048E+03</rscale>
<asrwt>0</asrwt>
<pdfrwt beam="2">  1        4 0.15405347E-01 0.12500048E+03</pdfrwt>
<pdfrwt beam="1">  1       -4 0.15847908E-01 0.12500048E+03</pdfrwt>
<totfact> 0.19834124E+03</totfact>
</mgrwt>
</event>
<event>
 5    1  0.1435323E-002  0.1249992E+03  0.7818608E-02  0.1235071E+00
          4   -1    0    0  501    0  0.00000000000E+00  0.00000000000E+00  0.89145374958E+02  0.89154420958E+02  0.12700000000E+01 0.  1.
         -4   -1    0    0    0  501 -0.00000000000E+00 -0.00000000000E+00 -0.43797839101E+02  0.43816248241E+02  0.12700000000E+01 0.  1.
         25    2    1    2    0    0  0.00000000000E+00  0.00000000000E+00  0.45347535857E+02  0.13297066920E+03  0.12499919943E+03 0.  0.
    9000005    1    3    3    0    0 -0.29890937185E+02 -0.26512169251E+02  0.73788399332E+02  0.83917168209E+02  0.10000000000E+01 0.  0.
    9000005    1    3    3    0    0  0.29890937185E+02  0.26512169251E+02 -0.28440863475E+02  0.49053500990E+02  0.10000000000E+01 0.  0.
<mgrwt>
<rscale>  0 0.12499920E+03</rscale>
<asrwt>0</asrwt>
<pdfrwt beam="1">  1        4 0.22289776E-01 0.12499920E+03</pdfrwt>
<pdfrwt beam="2">  1       -4 0.10952892E-01 0.12499920E+03</pdfrwt>
<totfact> 0.19406329E+03</totfact>
</mgrwt>
</event>
<event>
 5    1  0.1435323E-002  0.1250022E+03  0.7818608E-02  0.1235066E+00
          4   -1    0    0  501    0  0.00000000000E+00  0.00000000000E+00  0.16017043971E+02  0.16067314572E+02  0.12700000000E+01 0. -1.
         -4   -1    0    0    0  501 -0.00000000000E+00 -0.00000000000E+00 -0.24345533976E+03  0.24345865226E+03  0.12700000000E+01 0. -1.
         25    2    1    2    0    0  0.00000000000E+00  0.00000000000E+00 -0.22743829579E+03  0.25952596683E+03  0.12500219625E+03 0.  0.
    9000005    1    3    3    0    0 -0.30629806627E+02 -0.50603276178E+02 -0.15557913976E+03  0.16644742516E+03  0.10000000000E+01 0.  0.
    9000005    1    3    3    0    0  0.30629806627E+02  0.50603276178E+02 -0.71859156035E+02  0.93078541673E+02  0.10000000000E+01 0.  0.
<mgrwt>
<rscale>  0 0.12500220E+03</rscale>
<asrwt>0</asrwt>
<pdfrwt beam="1">  1        4 0.40109597E-02 0.12500220E+03</pdfrwt>
<pdfrwt beam="2">  1       -4 0.60870521E-01 0.12500220E+03</pdfrwt>
<totfact> 0.14185671E+03</totfact>
</mgrwt>
</event>
<event>
 5    1  0.1435323E-002  0.1250037E+03  0.7818608E-02  0.1235064E+00
         -4   -1    0    0    0  501 -0.00000000000E+00  0.00000000000E+00  0.35748104398E+02  0.35770656522E+02  0.12700000000E+01 0.  1.
          4   -1    0    0  501    0  0.00000000000E+00 -0.00000000000E+00 -0.10921726734E+03  0.10922465100E+03  0.12700000000E+01 0.  1.
         25    2    1    2    0    0  0.00000000000E+00  0.00000000000E+00 -0.73469162944E+02  0.14499530752E+03  0.12500368514E+03 0.  0.
    9000005    1    3    3    0    0  0.51782000732E+02 -0.24503177600E+02 -0.77665716344E+01  0.57819555059E+02  0.10000000000E+01 0.  0.
    9000005    1    3    3    0    0 -0.51782000732E+02  0.24503177600E+02 -0.65702591309E+02  0.87175752460E+02  0.10000000000E+01 0.  0.
<mgrwt>
<rscale>  0 0.12500369E+03</rscale>
<asrwt>0</asrwt>
<pdfrwt beam="2">  1        4 0.27308058E-01 0.12500369E+03</pdfrwt>
<pdfrwt beam="1">  1       -4 0.89407683E-02 0.12500369E+03</pdfrwt>
<totfact> 0.18785982E+03</totfact>
</mgrwt>
</event>
<event>
 5    1  0.1435323E-002  0.1250009E+03  0.7818608E-02  0.1235068E+00
         -4   -1    0    0    0  501 -0.00000000000E+00  0.00000000000E+00  0.63589018917E+01  0.64844840402E+01  0.12700000000E+01 0.  1.
          4   -1    0    0  501    0  0.00000000000E+00 -0.00000000000E+00 -0.60817213117E+03  0.60817345719E+03  0.12700000000E+01 0.  1.
         25    2    1    2    0    0  0.00000000000E+00  0.00000000000E+00 -0.60181322927E+03  0.61465794123E+03  0.12500088713E+03 0.  0.
    9000005    1    3    3    0    0  0.32985167322E+02  0.28950734056E+02 -0.82151321642E+02  0.93145079919E+02  0.10000000000E+01 0.  0.
    9000005    1    3    3    0    0 -0.32985167322E+02 -0.28950734056E+02 -0.51966190763E+03  0.52151286131E+03  0.10000000000E+01 0.  0.
<mgrwt>
<rscale>  0 0.12500089E+03</rscale>
<asrwt>0</asrwt>
<pdfrwt beam="2">  1        4 0.15205870E+00 0.12500089E+03</pdfrwt>
<pdfrwt beam="1">  1       -4 0.16055911E-02 0.12500089E+03</pdfrwt>
<totfact> 0.71687426E+02</totfact>
</mgrwt>
</event>
<event>
 5    1  0.1435323E-002  0.1250051E+03  0.7818608E-02  0.1235061E+00
         -4   -1    0    0    0  501 -0.00000000000E+00  0.00000000000E+00  0.32068982627E+02  0.32094120127E+02  0.12700000000E+01 0.  1.
          4   -1    0    0  501    0  0.00000000000E+00 -0.00000000000E+00 -0.12174147667E+03  0.12174810077E+03  0.12700000000E+01 0.  1.
         25    2    1    2    0    0  0.00000000000E+00  0.00000000000E+00 -0.89672494042E+02  0.15384222090E+03  0.12500509087E+03 0.  0.
    9000005    1    3    3    0    0  0.39756956841E+02  0.15176971831E+02 -0.10116104519E+03  0.10975205308E+03  0.10000000000E+01 0.  0.
    9000005    1    3    3    0    0 -0.39756956841E+02 -0.15176971831E+02  0.11488551144E+02  0.44090167823E+02  0.10000000000E+01 0.  0.
<mgrwt>
<rscale>  0 0.12500509E+03</rscale>
<asrwt>0</asrwt>
<pdfrwt beam="2">  1        4 0.30439338E-01 0.12500509E+03</pdfrwt>
<pdfrwt beam="1">  1       -4 0.80212161E-02 0.12500509E+03</pdfrwt>
<totfact> 0.18349285E+03</totfact>
</mgrwt>
</event>
<event>
 5    1  0.1435323E-002  0.1249992E+03  0.7818608E-02  0.1235070E+00
         -4   -1    0    0    0  501 -0.00000000000E+00  0.00000000000E+00  0.10104115870E+02  0.10183617113E+02  0.12700000000E+01 0. -1.
          4   -1    0    0  501    0  0.00000000000E+00 -0.00000000000E+00 -0.38499963176E+03  0.38500172643E+03  0.12700000000E+01 0. -1.
         25    2    1    2    0    0  0.00000000000E+00  0.00000000000E+00 -0.37489551589E+03  0.39518534355E+03  0.12499923167E+03 0.  0.
    9000005    1    3    3    0    0  0.62345016537E+02  0.38853762383E+01 -0.18178810039E+03  0.19222359553E+03  0.10000000000E+01 0.  0.
    9000005    1    3    3    0    0 -0.62345016537E+02 -0.38853762383E+01 -0.19310741550E+03  0.20296174801E+03  0.10000000000E+01 0.  0.
<mgrwt>
<rscale>  0 0.12499923E+03</rscale>
<asrwt>0</asrwt>
<pdfrwt beam="2">  1        4 0.96260059E-01 0.12499923E+03</pdfrwt>
<pdfrwt beam="1">  1       -4 0.25362297E-02 0.12499923E+03</pdfrwt>
<totfact> 0.10669240E+03</totfact>
</mgrwt>
</event>
<event>
 5    1  0.1435323E-002  0.1249674E+03  0.7818608E-02  0.1235120E+00
         -4   -1    0    0    0  501 -0.00000000000E+00  0.00000000000E+00  0.11573458993E+03  0.11574155782E+03  0.12700000000E+01 0. -1.
          4   -1    0    0  501    0  0.00000000000E+00 -0.00000000000E+00 -0.33714246726E+02  0.33738158401E+02  0.12700000000E+01 0. -1.
         25    2    1    2    0    0  0.00000000000E+00  0.00000000000E+00  0.82020343203E+02  0.14947971622E+03  0.12496739119E+03 0.  0.
    9000005    1    3    3    0    0 -0.24950404021E+02  0.51288506934E+02  0.10510026865E+02  0.58004260783E+02  0.10000000000E+01 0.  0.
    9000005    1    3    3    0    0  0.24950404021E+02 -0.51288506934E+02  0.71510316338E+02  0.91475455435E+02  0.10000000000E+01 0.  0.
<mgrwt>
<rscale>  0 0.12496739E+03</rscale>
<asrwt>0</asrwt>
<pdfrwt beam="2">  1        4 0.84324217E-02 0.12496739E+03</pdfrwt>
<pdfrwt beam="1">  1       -4 0.28937507E-01 0.12496739E+03</pdfrwt>
<totfact> 0.18578488E+03</totfact>
</mgrwt>
</event>
<event>
 5    1  0.1435323E-002  0.1249998E+03  0.7818608E-02  0.1235070E+00
          4   -1    0    0  501    0  0.00000000000E+00  0.00000000000E+00  0.31758551375E+02  0.31783934392E+02  0.12700000000E+01 0. -1.
         -4   -1    0    0    0  501 -0.00000000000E+00 -0.00000000000E+00 -0.12292022196E+03  0.12292678254E+03  0.12700000000E+01 0. -1.
         25    2    1    2    0    0  0.00000000000E+00  0.00000000000E+00 -0.91161670583E+02  0.15471071693E+03  0.12499982300E+03 0.  0.
    9000005    1    3    3    0    0  0.61744814230E+02  0.56243992956E+01 -0.55261971600E+02  0.83059866704E+02  0.10000000000E+01 0.  0.
    9000005    1    3    3    0    0 -0.61744814230E+02 -0.56243992956E+01 -0.35899698983E+02  0.71650850231E+02  0.10000000000E+01 0.  0.
<mgrwt>
<rscale>  0 0.12499982E+03</rscale>
<asrwt>0</asrwt>
<pdfrwt beam="1">  1        4 0.79436311E-02 0.12499982E+03</pdfrwt>
<pdfrwt beam="2">  1       -4 0.30734047E-01 0.12499982E+03</pdfrwt>
<totfact> 0.18309630E+03</totfact>
</mgrwt>
</event>
<event>
 5    1  0.1435323E-002  0.1249973E+03  0.7818608E-02  0.1235073E+00
         -4   -1    0    0    0  501 -0.00000000000E+00  0.00000000000E+00  0.57108430975E+01  0.58503528855E+01  0.12700000000E+01 0.  1.
          4   -1    0    0  501    0  0.00000000000E+00 -0.00000000000E+00 -0.67558291796E+03  0.67558411167E+03  0.12700000000E+01 0.  1.
         25    2    1    2    0    0  0.00000000000E+00  0.00000000000E+00 -0.66987207487E+03  0.68143446456E+03  0.12499733118E+03 0.  0.
    9000005    1    3    3    0    0  0.13341644756E+02  0.60569260844E+02 -0.29325778445E+03  0.29974616425E+03  0.10000000000E+01 0.  0.
    9000005    1    3    3    0    0 -0.13341644756E+02 -0.60569260844E+02 -0.37661429042E+03  0.38168830031E+03  0.10000000000E+01 0.  0.
<mgrwt>
<rscale>  0 0.12499733E+03</rscale>
<asrwt>0</asrwt>
<pdfrwt beam="2">  1        4 0.16891305E+00 0.12499733E+03</pdfrwt>
<pdfrwt beam="1">  1       -4 0.14453010E-02 0.12499733E+03</pdfrwt>
<totfact> 0.64029813E+02</totfact>
</mgrwt>
</event>
<event>
 5    1  0.1435323E-002  0.1249997E+03  0.7818608E-02  0.1235070E+00
         -4   -1    0    0    0  501 -0.00000000000E+00  0.00000000000E+00  0.28628272864E+03  0.28628554560E+03  0.12700000000E+01 0.  1.
          4   -1    0    0  501    0  0.00000000000E+00 -0.00000000000E+00 -0.13612212271E+02  0.13671328498E+02  0.12700000000E+01 0.  1.
         25    2    1    2    0    0  0.00000000000E+00  0.00000000000E+00  0.27267051637E+03  0.29995687410E+03  0.12499966328E+03 0.  0.
    9000005    1    3    3    0    0  0.19117647805E+02  0.10775114670E+02 -0.40734716812E+01  0.22342352725E+02  0.10000000000E+01 0.  0.
    9000005    1    3    3    0    0 -0.19117647805E+02 -0.10775114670E+02  0.27674398805E+03  0.27761452137E+03  0.10000000000E+01 0.  0.
<mgrwt>
<rscale>  0 0.12499966E+03</rscale>
<asrwt>0</asrwt>
<pdfrwt beam="2">  1        4 0.34107948E-02 0.12499966E+03</pdfrwt>
<pdfrwt beam="1">  1       -4 0.71578423E-01 0.12499966E+03</pdfrwt>
<totfact> 0.12972365E+03</totfact>
</mgrwt>
</event>
<event>
 5    1  0.1435323E-002  0.1250134E+03  0.7818608E-02  0.1235048E+00
          4   -1    0    0  501    0  0.00000000000E+00  0.00000000000E+00  0.19302775277E+03  0.19303193062E+03  0.12700000000E+01 0.  1.
         -4   -1    0    0    0  501 -0.00000000000E+00 -0.00000000000E+00 -0.20216743715E+02  0.20256594641E+02  0.12700000000E+01 0.  1.
         25    2    1    2    0    0  0.00000000000E+00  0.00000000000E+00  0.17281100905E+03  0.21328852526E+03  0.12501339991E+03 0.  0.
    9000005    1    3    3    0    0 -0.35332160846E+02 -0.13841502806E+02  0.17113208491E+03  0.17529158359E+03  0.10000000000E+01 0.  0.
    9000005    1    3    3    0    0  0.35332160846E+02  0.13841502806E+02  0.16789241367E+01  0.37996941669E+02  0.10000000000E+01 0.  0.
<mgrwt>
<rscale>  0 0.12501340E+03</rscale>
<asrwt>0</asrwt>
<pdfrwt beam="1">  1        4 0.48262441E-01 0.12501340E+03</pdfrwt>
<pdfrwt beam="2">  1       -4 0.50596896E-02 0.12501340E+03</pdfrwt>
<totfact> 0.15798534E+03</totfact>
</mgrwt>
</event>
<event>
 5    1  0.1435323E-002  0.1250006E+03  0.7818608E-02  0.1235068E+00
         -4   -1    0    0    0  501 -0.00000000000E+00  0.00000000000E+00  0.23615445739E+03  0.23615787229E+03  0.12700000000E+01 0. -1.
          4   -1    0    0  501    0  0.00000000000E+00 -0.00000000000E+00 -0.16513319222E+02  0.16562083557E+02  0.12700000000E+01 0. -1.
         25    2    1    2    0    0  0.00000000000E+00  0.00000000000E+00  0.21964113816E+03  0.25271995585E+03  0.12500058603E+03 0.  0.
    9000005    1    3    3    0    0  0.45661142501E+02 -0.64918327914E+01  0.19507523026E+03  0.20045555440E+03  0.10000000000E+01 0.  0.
    9000005    1    3    3    0    0 -0.45661142501E+02  0.64918327914E+01  0.24565907902E+02  0.52264401446E+02  0.10000000000E+01 0.  0.
<mgrwt>
<rscale>  0 0.12500059E+03</rscale>
<asrwt>0</asrwt>
<pdfrwt beam="2">  1        4 0.41348522E-02 0.12500059E+03</pdfrwt>
<pdfrwt beam="1">  1       -4 0.59045137E-01 0.12500059E+03</pdfrwt>
<totfact> 0.14407747E+03</totfact>
</mgrwt>
</event>
<event>
 5    1  0.1435323E-002  0.1250104E+03  0.7818608E-02  0.1235053E+00
         -4   -1    0    0    0  501 -0.00000000000E+00  0.00000000000E+00  0.41235816914E+02  0.41255369306E+02  0.12700000000E+01 0. -1.
          4   -1    0    0  501    0  0.00000000000E+00 -0.00000000000E+00 -0.94699101941E+02  0.94707617478E+02  0.12700000000E+01 0. -1.
         25    2    1    2    0    0  0.00000000000E+00  0.00000000000E+00 -0.53463285027E+02  0.13596298678E+03  0.12501044328E+03 0.  0.
    9000005    1    3    3    0    0  0.37669632785E+02 -0.38136665973E+02 -0.61679345304E+02  0.81723608357E+02  0.10000000000E+01 0.  0.
    9000005    1    3    3    0    0 -0.37669632785E+02  0.38136665973E+02  0.82160602777E+01  0.54239378427E+02  0.10000000000E+01 0.  0.
<mgrwt>
<rscale>  0 0.12501044E+03</rscale>
<asrwt>0</asrwt>
<pdfrwt beam="2">  1        4 0.23678284E-01 0.12501044E+03</pdfrwt>
<pdfrwt beam="1">  1       -4 0.10312463E-01 0.12501044E+03</pdfrwt>
<totfact> 0.19244126E+03</totfact>
</mgrwt>
</event>
<event>
 5    1  0.1435323E-002  0.1249987E+03  0.7818608E-02  0.1235071E+00
         -4   -1    0    0    0  501 -0.00000000000E+00  0.00000000000E+00  0.11176392718E+03  0.11177114261E+03  0.12700000000E+01 0. -1.
          4   -1    0    0  501    0  0.00000000000E+00 -0.00000000000E+00 -0.34930306125E+02  0.34953385902E+02  0.12700000000E+01 0. -1.
         25    2    1    2    0    0  0.00000000000E+00  0.00000000000E+00  0.76833621059E+02  0.14672452851E+03  0.12499872776E+03 0.  0.
    9000005    1    3    3    0    0 -0.51310888045E+02  0.16868663380E+02  0.15246442363E+01  0.54043349048E+02  0.10000000000E+01 0.  0.
    9000005    1    3    3    0    0  0.51310888045E+02 -0.16868663380E+02  0.75308976822E+02  0.92681179461E+02  0.10000000000E+01 0.  0.
<mgrwt>
<rscale>  0 0.12499873E+03</rscale>
<asrwt>0</asrwt>
<pdfrwt beam="2">  1        4 0.87363635E-02 0.12499873E+03</pdfrwt>
<pdfrwt beam="1">  1       -4 0.27944769E-01 0.12499873E+03</pdfrwt>
<totfact> 0.18701571E+03</totfact>
</mgrwt>
</event>
<event>
 5    1  0.1435323E-002  0.1250016E+03  0.7818608E-02  0.1235067E+00
         -4   -1    0    0    0  501 -0.00000000000E+00  0.00000000000E+00  0.72881829679E+02  0.72892894011E+02  0.12700000000E+01 0. -1.
          4   -1    0    0  501    0  0.00000000000E+00 -0.00000000000E+00 -0.53575753014E+02  0.53590803419E+02  0.12700000000E+01 0. -1.
         25    2    1    2    0    0  0.00000000000E+00  0.00000000000E+00  0.19306076664E+02  0.12648369743E+03  0.12500160447E+03 0.  0.
    9000005    1    3    3    0    0  0.12778875761E+02 -0.55350538686E+02  0.36007357171E+02  0.67264489658E+02  0.10000000000E+01 0.  0.
    9000005    1    3    3    0    0 -0.12778875761E+02  0.55350538686E+02 -0.16701280507E+02  0.59219207771E+02  0.10000000000E+01 0.  0.
<mgrwt>
<rscale>  0 0.12500160E+03</rscale>
<asrwt>0</asrwt>
<pdfrwt beam="2">  1        4 0.13397203E-01 0.12500160E+03</pdfrwt>
<pdfrwt beam="1">  1       -4 0.18223722E-01 0.12500160E+03</pdfrwt>
<totfact> 0.19754063E+03</totfact>
</mgrwt>
</event>
<event>
 5    1  0.1435323E-002  0.1249975E+03  0.7818608E-02  0.1235073E+00
         -4   -1    0    0    0  501 -0.00000000000E+00  0.00000000000E+00  0.14322210232E+03  0.14322773297E+03  0.12700000000E+01 0.  1.
          4   -1    0    0  501    0  0.00000000000E+00 -0.00000000000E+00 -0.27252022900E+02  0.27281599149E+02  0.12700000000E+01 0.  1.
         25    2    1    2    0    0  0.00000000000E+00  0.00000000000E+00  0.11597007942E+03  0.17050933212E+03  0.12499749206E+03 0.  0.
    9000005    1    3    3    0    0 -0.35188768529E+02  0.74686163744E+01  0.12768869906E+03  0.13266285663E+03  0.10000000000E+01 0.  0.
    9000005    1    3    3    0    0  0.35188768529E+02 -0.74686163744E+01 -0.11718619639E+02  0.37846475495E+02  0.10000000000E+01 0.  0.
<mgrwt>
<rscale>  0 0.12499749E+03</rscale>
<asrwt>0</asrwt>
<pdfrwt beam="2">  1        4 0.68174066E-02 0.12499749E+03</pdfrwt>
<pdfrwt beam="1">  1       -4 0.35809926E-01 0.12499749E+03</pdfrwt>
<totfact> 0.17575122E+03</totfact>
</mgrwt>
</event>
<event>
 5    1  0.1435323E-002  0.1249979E+03  0.7818608E-02  0.1235072E+00
          4   -1    0    0  501    0  0.00000000000E+00  0.00000000000E+00  0.25544876024E+02  0.25576426472E+02  0.12700000000E+01 0.  1.
         -4   -1    0    0    0  501 -0.00000000000E+00 -0.00000000000E+00 -0.15278357397E+03  0.15278885226E+03  0.12700000000E+01 0.  1.
         25    2    1    2    0    0  0.00000000000E+00  0.00000000000E+00 -0.12723869795E+03  0.17836527873E+03  0.12499794559E+03 0.  0.
    9000005    1    3    3    0    0  0.32522436061E+02  0.12696696825E+02  0.10337287445E+02  0.36424915502E+02  0.10000000000E+01 0.  0.
    9000005    1    3    3    0    0 -0.32522436061E+02 -0.12696696825E+02 -0.13757598539E+03  0.14194036323E+03  0.10000000000E+01 0.  0.
<mgrwt>
<rscale>  0 0.12499795E+03</rscale>
<asrwt>0</asrwt>
<pdfrwt beam="1">  1        4 0.63908230E-02 0.12499795E+03</pdfrwt>
<pdfrwt beam="2">  1       -4 0.38200495E-01 0.12499795E+03</pdfrwt>
<totfact> 0.17227028E+03</totfact>
</mgrwt>
</event>
<event>
 5    1  0.1435323E-002  0.1249924E+03  0.7818608E-02  0.1235081E+00
         -4   -1    0    0    0  501 -0.00000000000E+00  0.00000000000E+00  0.29671680471E+02  0.29698847149E+02  0.12700000000E+01 0. -1.
          4   -1    0    0  501    0  0.00000000000E+00 -0.00000000000E+00 -0.13154253042E+03  0.13154866099E+03  0.12700000000E+01 0. -1.
         25    2    1    2    0    0  0.00000000000E+00  0.00000000000E+00 -0.10187084994E+03  0.16124750814E+03  0.12499235502E+03 0.  0.
    9000005    1    3    3    0    0  0.31328373653E+02  0.50481401413E+02 -0.25955761735E+02  0.64842427867E+02  0.10000000000E+01 0.  0.
    9000005    1    3    3    0    0 -0.31328373653E+02 -0.50481401413E+02 -0.75915088209E+02  0.96405080271E+02  0.10000000000E+01 0.  0.
<mgrwt>
<rscale>  0 0.12499236E+03</rscale>
<asrwt>0</asrwt>
<pdfrwt beam="2">  1        4 0.32889793E-01 0.12499236E+03</pdfrwt>
<pdfrwt beam="1">  1       -4 0.74220826E-02 0.12499236E+03</pdfrwt>
<totfact> 0.18002401E+03</totfact>
</mgrwt>
</event>
<event>
 5    1  0.1435323E-002  0.1250004E+03  0.7818608E-02  0.1235069E+00
          4   -1    0    0  501    0  0.00000000000E+00  0.00000000000E+00  0.26398783762E+03  0.26399089247E+03  0.12700000000E+01 0.  1.
         -4   -1    0    0    0  501 -0.00000000000E+00 -0.00000000000E+00 -0.14766775796E+02  0.14821287643E+02  0.12700000000E+01 0.  1.
         25    2    1    2    0    0  0.00000000000E+00  0.00000000000E+00  0.24922106182E+03  0.27881218012E+03  0.12500037651E+03 0.  0.
    9000005    1    3    3    0    0  0.33692147819E+02  0.81984280732E+01  0.86486399802E+01  0.35751559701E+02  0.10000000000E+01 0.  0.
    9000005    1    3    3    0    0 -0.33692147819E+02 -0.81984280732E+01  0.24057242184E+03  0.24306062042E+03  0.10000000000E+01 0.  0.
<mgrwt>
<rscale>  0 0.12500038E+03</rscale>
<asrwt>0</asrwt>
<pdfrwt beam="1">  1        4 0.66004155E-01 0.12500038E+03</pdfrwt>
<pdfrwt beam="2">  1       -4 0.36988898E-02 0.12500038E+03</pdfrwt>
<totfact> 0.13586257E+03</totfact>
</mgrwt>
</event>
<event>
 5    1  0.1435323E-002  0.1250023E+03  0.7818608E-02  0.1235066E+00
          4   -1    0    0  501    0  0.00000000000E+00  0.00000000000E+00  0.10305810664E+03  0.10306593154E+03  0.12700000000E+01 0.  1.
         -4   -1    0    0    0  501 -0.00000000000E+00 -0.00000000000E+00 -0.37884859091E+02  0.37906139982E+02  0.12700000000E+01 0.  1.
         25    2    1    2    0    0  0.00000000000E+00  0.00000000000E+00  0.65173247546E+02  0.14097207152E+03  0.12500229099E+03 0.  0.
    9000005    1    3    3    0    0  0.34146900306E+02 -0.15754181887E+02  0.88874954923E+02  0.96508873478E+02  0.10000000000E+01 0.  0.
    9000005    1    3    3    0    0 -0.34146900306E+02  0.15754181887E+02 -0.23701707377E+02  0.44463198041E+02  0.10000000000E+01 0.  0.
<mgrwt>
<rscale>  0 0.12500229E+03</rscale>
<asrwt>0</asrwt>
<pdfrwt beam="1">  1        4 0.25768165E-01 0.12500229E+03</pdfrwt>
<pdfrwt beam="2">  1       -4 0.94748530E-02 0.12500229E+03</pdfrwt>
<totfact> 0.18989708E+03</totfact>
</mgrwt>
</event>
<event>
 4    1  0.1435323E-002  0.1240816E+03  0.7818608E-02  0.1236512E+00
         -4   -1    0    0    0  501 -0.00000000000E+00  0.00000000000E+00  0.17532152420E+03  0.17532612398E+03  0.12700000000E+01 0. -1.
          4   -1    0    0  501    0  0.00000000000E+00 -0.00000000000E+00 -0.21931045006E+02  0.21967786303E+02  0.12700000000E+01 0. -1.
    9000005    1    1    2    0    0 -0.82352156585E+01  0.39945091276E+02  0.23769910584E+01  0.40866602263E+02  0.10000000000E+01 0.  0.
    9000005    1    1    2    0    0  0.82352156585E+01 -0.39945091276E+02  0.15101348814E+03  0.15642730802E+03  0.10000000000E+01 0.  0.
<mgrwt>
<rscale>  0 0.12408162E+03</rscale>
<asrwt>0</asrwt>
<pdfrwt beam="2">  1        4 0.54879290E-02 0.12408162E+03</pdfrwt>
<pdfrwt beam="1">  1       -4 0.43835548E-01 0.12408162E+03</pdfrwt>
<totfact> 0.16784875E+03</totfact>
</mgrwt>
</event>
<event>
 5    1  0.1435323E-002  0.1249995E+03  0.7818608E-02  0.1235070E+00
         -4   -1    0    0    0  501 -0.00000000000E+00  0.00000000000E+00  0.86776788469E+03  0.86776881403E+03  0.12700000000E+01 0.  1.
          4   -1    0    0  501    0  0.00000000000E+00 -0.00000000000E+00 -0.44109284348E+01  0.45901186975E+01  0.12700000000E+01 0.  1.
         25    2    1    2    0    0  0.00000000000E+00  0.00000000000E+00  0.86335695626E+03  0.87235893273E+03  0.12499949437E+03 0.  0.
    9000005    1    3    3    0    0 -0.56947552790E+02  0.24942980119E+02  0.38751666930E+03  0.39247336854E+03  0.10000000000E+01 0.  0.
    9000005    1    3    3    0    0  0.56947552790E+02 -0.24942980119E+02  0.47584028696E+03  0.47988556419E+03  0.10000000000E+01 0.  0.
<mgrwt>
<rscale>  0 0.12499949E+03</rscale>
<asrwt>0</asrwt>
<pdfrwt beam="2">  1        4 0.11252473E-02 0.12499949E+03</pdfrwt>
<pdfrwt beam="1">  1       -4 0.21696445E+00 0.12499949E+03</pdfrwt>
<totfact> 0.46426788E+02</totfact>
</mgrwt>
</event>
<event>
 5    1  0.1435323E-002  0.1250000E+03  0.7818608E-02  0.1235069E+00
         -4   -1    0    0    0  501 -0.00000000000E+00  0.00000000000E+00  0.35104643792E+02  0.35127609024E+02  0.12700000000E+01 0. -1.
          4   -1    0    0  501    0  0.00000000000E+00 -0.00000000000E+00 -0.11121146018E+03  0.11121871144E+03  0.12700000000E+01 0. -1.
         25    2    1    2    0    0  0.00000000000E+00  0.00000000000E+00 -0.76106816387E+02  0.14634632047E+03  0.12499999205E+03 0.  0.
    9000005    1    3    3    0    0  0.47254608402E+02  0.35210802894E+02 -0.62400113474E+02  0.85834566564E+02  0.10000000000E+01 0.  0.
    9000005    1    3    3    0    0 -0.47254608402E+02 -0.35210802894E+02 -0.13706702913E+02  0.60511753903E+02  0.10000000000E+01 0.  0.
<mgrwt>
<rscale>  0 0.12499999E+03</rscale>
<asrwt>0</asrwt>
<pdfrwt beam="2">  1        4 0.27806641E-01 0.12499999E+03</pdfrwt>
<pdfrwt beam="1">  1       -4 0.87799382E-02 0.12499999E+03</pdfrwt>
<totfact> 0.18719907E+03</totfact>
</mgrwt>
</event>
<event>
 5    1  0.1435323E-002  0.1249814E+03  0.7818608E-02  0.1235098E+00
          4   -1    0    0  501    0  0.00000000000E+00  0.00000000000E+00  0.12488708175E+03  0.12489353901E+03  0.12700000000E+01 0. -1.
         -4   -1    0    0    0  501 -0.00000000000E+00 -0.00000000000E+00 -0.31248797608E+02  0.31274594353E+02  0.12700000000E+01 0. -1.
         25    2    1    2    0    0  0.00000000000E+00  0.00000000000E+00  0.93638284139E+02  0.15616813337E+03  0.12498142911E+03 0.  0.
    9000005    1    3    3    0    0 -0.29831287782E+02  0.53563785840E+02  0.61870906256E+02  0.87109092093E+02  0.10000000000E+01 0.  0.
    9000005    1    3    3    0    0  0.29831287782E+02 -0.53563785840E+02  0.31767377883E+02  0.69059041275E+02  0.10000000000E+01 0.  0.
<mgrwt>
<rscale>  0 0.12498143E+03</rscale>
<asrwt>0</asrwt>
<pdfrwt beam="1">  1        4 0.31225802E-01 0.12498143E+03</pdfrwt>
<pdfrwt beam="2">  1       -4 0.78162312E-02 0.12498143E+03</pdfrwt>
<totfact> 0.18247471E+03</totfact>
</mgrwt>
</event>
<event>
 5    1  0.1435323E-002  0.1250032E+03  0.7818608E-02  0.1235064E+00
          4   -1    0    0  501    0  0.00000000000E+00  0.00000000000E+00  0.20454895028E+02  0.20494282876E+02  0.12700000000E+01 0.  1.
         -4   -1    0    0    0  501 -0.00000000000E+00 -0.00000000000E+00 -0.19075361508E+03  0.19075784274E+03  0.12700000000E+01 0.  1.
         25    2    1    2    0    0  0.00000000000E+00  0.00000000000E+00 -0.17029872005E+03  0.21125212561E+03  0.12500322606E+03 0.  0.
    9000005    1    3    3    0    0 -0.59597016337E+02  0.11268674767E+02 -0.59706180976E+02  0.85115306696E+02  0.10000000000E+01 0.  0.
    9000005    1    3    3    0    0  0.59597016337E+02 -0.11268674767E+02 -0.11059253907E+03  0.12613681892E+03  0.10000000000E+01 0.  0.
<mgrwt>
<rscale>  0 0.12500323E+03</rscale>
<asrwt>0</asrwt>
<pdfrwt beam="1">  1        4 0.51191763E-02 0.12500323E+03</pdfrwt>
<pdfrwt beam="2">  1       -4 0.47693850E-01 0.12500323E+03</pdfrwt>
<totfact> 0.15880006E+03</totfact>
</mgrwt>
</event>
<event>
 5    1  0.1435323E-002  0.1250016E+03  0.7818608E-02  0.1235067E+00
         -4   -1    0    0    0  501 -0.00000000000E+00  0.00000000000E+00  0.81777144995E+02  0.81787005958E+02  0.12700000000E+01 0. -1.
          4   -1    0    0  501    0  0.00000000000E+00 -0.00000000000E+00 -0.47747049784E+02  0.47763936846E+02  0.12700000000E+01 0. -1.
         25    2    1    2    0    0  0.00000000000E+00  0.00000000000E+00  0.34030095211E+02  0.12955094280E+03  0.12500159759E+03 0.  0.
    9000005    1    3    3    0    0  0.17180270529E+02 -0.56303365925E+02  0.38757580827E+02  0.70486741885E+02  0.10000000000E+01 0.  0.
    9000005    1    3    3    0    0 -0.17180270529E+02  0.56303365925E+02 -0.47274856158E+01  0.59064200919E+02  0.10000000000E+01 0.  0.
<mgrwt>
<rscale>  0 0.12500160E+03</rscale>
<asrwt>0</asrwt>
<pdfrwt beam="2">  1        4 0.11940106E-01 0.12500160E+03</pdfrwt>
<pdfrwt beam="1">  1       -4 0.20447630E-01 0.12500160E+03</pdfrwt>
<totfact> 0.19587823E+03</totfact>
</mgrwt>
</event>
<event>
 5    1  0.1435323E-002  0.1249996E+03  0.7818608E-02  0.1235070E+00
          4   -1    0    0  501    0  0.00000000000E+00  0.00000000000E+00  0.76998198213E+02  0.77008671122E+02  0.12700000000E+01 0.  1.
         -4   -1    0    0    0  501 -0.00000000000E+00 -0.00000000000E+00 -0.50709536051E+02  0.50725436879E+02  0.12700000000E+01 0.  1.
         25    2    1    2    0    0  0.00000000000E+00  0.00000000000E+00  0.26288662162E+02  0.12773410800E+03  0.12499963435E+03 0.  0.
    9000005    1    3    3    0    0 -0.15284011698E+02 -0.16868477572E+02  0.72616106328E+02  0.76106802898E+02  0.10000000000E+01 0.  0.
    9000005    1    3    3    0    0  0.15284011698E+02  0.16868477572E+02 -0.46327444166E+02  0.51627305103E+02  0.10000000000E+01 0.  0.
<mgrwt>
<rscale>  0 0.12499963E+03</rscale>
<asrwt>0</asrwt>
<pdfrwt beam="1">  1        4 0.19252846E-01 0.12499963E+03</pdfrwt>
<pdfrwt beam="2">  1       -4 0.12680681E-01 0.12499963E+03</pdfrwt>
<totfact> 0.19687182E+03</totfact>
</mgrwt>
</event>
<event>
 5    1  0.1435323E-002  0.1250029E+03  0.7818608E-02  0.1235065E+00
         -4   -1    0    0    0  501 -0.00000000000E+00  0.00000000000E+00  0.21414546365E+02  0.21452172291E+02  0.12700000000E+01 0. -1.
          4   -1    0    0  501    0  0.00000000000E+00 -0.00000000000E+00 -0.18221943625E+03  0.18222386190E+03  0.12700000000E+01 0. -1.
         25    2    1    2    0    0  0.00000000000E+00  0.00000000000E+00 -0.16080488988E+03  0.20367603419E+03  0.12500285714E+03 0.  0.
    9000005    1    3    3    0    0 -0.20652916098E+01  0.12426446832E+02 -0.18013734329E+03  0.18058002231E+03  0.10000000000E+01 0.  0.
    9000005    1    3    3    0    0  0.20652916098E+01 -0.12426446832E+02  0.19332453405E+02  0.23096011884E+02  0.10000000000E+01 0.  0.
<mgrwt>
<rscale>  0 0.12500286E+03</rscale>
<asrwt>0</asrwt>
<pdfrwt beam="2">  1        4 0.45560111E-01 0.12500286E+03</pdfrwt>
<pdfrwt beam="1">  1       -4 0.53588936E-02 0.12500286E+03</pdfrwt>
<totfact> 0.16174830E+03</totfact>
</mgrwt>
</event>
<event>
 5    1  0.1435323E-002  0.1250324E+03  0.7818608E-02  0.1235019E+00
          4   -1    0    0  501    0  0.00000000000E+00  0.00000000000E+00  0.59290273323E+03  0.59290409340E+03  0.12700000000E+01 0.  1.
         -4   -1    0    0    0  501 -0.00000000000E+00 -0.00000000000E+00 -0.65292169242E+01  0.66515842957E+01  0.12700000000E+01 0.  1.
         25    2    1    2    0    0  0.00000000000E+00  0.00000000000E+00  0.58637351630E+03  0.59955567770E+03  0.12503243593E+03 0.  0.
    9000005    1    3    3    0    0  0.22651491911E+02  0.35681003045E+02  0.72344269003E+02  0.83790914315E+02  0.10000000000E+01 0.  0.
    9000005    1    3    3    0    0 -0.22651491911E+02 -0.35681003045E+02  0.51402924730E+03  0.51576476338E+03  0.10000000000E+01 0.  0.
<mgrwt>
<rscale>  0 0.12503244E+03</rscale>
<asrwt>0</asrwt>
<pdfrwt beam="1">  1        4 0.14824112E+00 0.12503244E+03</pdfrwt>
<pdfrwt beam="2">  1       -4 0.16477706E-02 0.12503244E+03</pdfrwt>
<totfact> 0.73504874E+02</totfact>
</mgrwt>
</event>
<event>
 5    1  0.1435323E-002  0.1250008E+03  0.7818608E-02  0.1235068E+00
         -4   -1    0    0    0  501 -0.00000000000E+00  0.00000000000E+00  0.19276460120E+02  0.19318250821E+02  0.12700000000E+01 0. -1.
          4   -1    0    0  501    0  0.00000000000E+00 -0.00000000000E+00 -0.20238288568E+03  0.20238687041E+03  0.12700000000E+01 0. -1.
         25    2    1    2    0    0  0.00000000000E+00  0.00000000000E+00 -0.18310642555E+03  0.22170512123E+03  0.12500079080E+03 0.  0.
    9000005    1    3    3    0    0  0.42484903910E+02 -0.45829259280E+02 -0.91742240810E+02  0.11100867901E+03  0.10000000000E+01 0.  0.
    9000005    1    3    3    0    0 -0.42484903910E+02  0.45829259280E+02 -0.91364184745E+02  0.11069644222E+03  0.10000000000E+01 0.  0.
<mgrwt>
<rscale>  0 0.12500079E+03</rscale>
<asrwt>0</asrwt>
<pdfrwt beam="2">  1        4 0.50601437E-01 0.12500079E+03</pdfrwt>
<pdfrwt beam="1">  1       -4 0.48248376E-02 0.12500079E+03</pdfrwt>
<totfact> 0.15488024E+03</totfact>
</mgrwt>
</event>
<event>
 5    1  0.1435323E-002  0.1249968E+03  0.7818608E-02  0.1235074E+00
          4   -1    0    0  501    0  0.00000000000E+00  0.00000000000E+00  0.14072480021E+03  0.14073053078E+03  0.12700000000E+01 0.  1.
         -4   -1    0    0    0  501 -0.00000000000E+00 -0.00000000000E+00 -0.27735843164E+02  0.27764904034E+02  0.12700000000E+01 0.  1.
         25    2    1    2    0    0  0.00000000000E+00  0.00000000000E+00  0.11298895704E+03  0.16849543481E+03  0.12499682852E+03 0.  0.
    9000005    1    3    3    0    0  0.15813221709E+02 -0.10066260784E+02 -0.23863191920E+02  0.30361810150E+02  0.10000000000E+01 0.  0.
    9000005    1    3    3    0    0 -0.15813221709E+02  0.10066260784E+02  0.13685214896E+03  0.13813362466E+03  0.10000000000E+01 0.  0.
<mgrwt>
<rscale>  0 0.12499683E+03</rscale>
<asrwt>0</asrwt>
<pdfrwt beam="1">  1        4 0.35185549E-01 0.12499683E+03</pdfrwt>
<pdfrwt beam="2">  1       -4 0.69383097E-02 0.12499683E+03</pdfrwt>
<totfact> 0.17666424E+03</totfact>
</mgrwt>
</event>
<event>
 5    1  0.1435323E-002  0.1250002E+03  0.7818608E-02  0.1235069E+00
          4   -1    0    0  501    0  0.00000000000E+00  0.00000000000E+00  0.19105387238E+02  0.19147551319E+02  0.12700000000E+01 0.  1.
         -4   -1    0    0    0  501 -0.00000000000E+00 -0.00000000000E+00 -0.20418933147E+03  0.20419328095E+03  0.12700000000E+01 0.  1.
         25    2    1    2    0    0  0.00000000000E+00  0.00000000000E+00 -0.18508394423E+03  0.22334083227E+03  0.12500024379E+03 0.  0.
    9000005    1    3    3    0    0  0.28200332195E+00 -0.60736614382E+02 -0.66267457009E+02  0.89896561173E+02  0.10000000000E+01 0.  0.
    9000005    1    3    3    0    0 -0.28200332195E+00  0.60736614382E+02 -0.11881648722E+03  0.13344427109E+03  0.10000000000E+01 0.  0.
<mgrwt>
<rscale>  0 0.12500024E+03</rscale>
<asrwt>0</asrwt>
<pdfrwt beam="1">  1        4 0.47821116E-02 0.12500024E+03</pdfrwt>
<pdfrwt beam="2">  1       -4 0.51053090E-01 0.12500024E+03</pdfrwt>
<totfact> 0.15428128E+03</totfact>
</mgrwt>
</event>
<event>
 5    1  0.1435323E-002  0.1250017E+03  0.7818608E-02  0.1235067E+00
         -4   -1    0    0    0  501 -0.00000000000E+00  0.00000000000E+00  0.19111406689E+02  0.19153557519E+02  0.12700000000E+01 0. -1.
          4   -1    0    0  501    0  0.00000000000E+00 -0.00000000000E+00 -0.20412979279E+03  0.20413374342E+03  0.12700000000E+01 0. -1.
         25    2    1    2    0    0  0.00000000000E+00  0.00000000000E+00 -0.18501838610E+03  0.22328730094E+03  0.12500166226E+03 0.  0.
    9000005    1    3    3    0    0 -0.99653254325E+00  0.58867731852E+02 -0.12993371298E+03  0.14265403148E+03  0.10000000000E+01 0.  0.
    9000005    1    3    3    0    0  0.99653254325E+00 -0.58867731852E+02 -0.55084673122E+02  0.80633269458E+02  0.10000000000E+01 0.  0.
<mgrwt>
<rscale>  0 0.12500166E+03</rscale>
<asrwt>0</asrwt>
<pdfrwt beam="2">  1        4 0.51038204E-01 0.12500166E+03</pdfrwt>
<pdfrwt beam="1">  1       -4 0.47836150E-02 0.12500166E+03</pdfrwt>
<totfact> 0.15429584E+03</totfact>
</mgrwt>
</event>
<event>
 5    1  0.1435323E-002  0.1249981E+03  0.7818608E-02  0.1235072E+00
         -4   -1    0    0    0  501 -0.00000000000E+00  0.00000000000E+00  0.26039218660E+02  0.26070170855E+02  0.12700000000E+01 0.  1.
          4   -1    0    0  501    0  0.00000000000E+00 -0.00000000000E+00 -0.14988676773E+03  0.14989214803E+03  0.12700000000E+01 0.  1.
         25    2    1    2    0    0  0.00000000000E+00  0.00000000000E+00 -0.12384754907E+03  0.17596231888E+03  0.12499808901E+03 0.  0.
    9000005    1    3    3    0    0  0.15011180442E+02  0.90785383218E+01 -0.14635618134E+03  0.14740721561E+03  0.10000000000E+01 0.  0.
    9000005    1    3    3    0    0 -0.15011180442E+02 -0.90785383218E+01  0.22508632272E+02  0.28555103275E+02  0.10000000000E+01 0.  0.
<mgrwt>
<rscale>  0 0.12499809E+03</rscale>
<asrwt>0</asrwt>
<pdfrwt beam="2">  1        4 0.37476231E-01 0.12499809E+03</pdfrwt>
<pdfrwt beam="1">  1       -4 0.65143466E-02 0.12499809E+03</pdfrwt>
<totfact> 0.17332195E+03</totfact>
</mgrwt>
</event>
<event>
 5    1  0.1435323E-002  0.1250059E+03  0.7818608E-02  0.1235060E+00
          4   -1    0    0  501    0  0.00000000000E+00  0.00000000000E+00  0.98993697104E+02  0.99001843247E+02  0.12700000000E+01 0.  1.
         -4   -1    0    0    0  501 -0.00000000000E+00 -0.00000000000E+00 -0.39443303573E+02  0.39463744079E+02  0.12700000000E+01 0.  1.
         25    2    1    2    0    0  0.00000000000E+00  0.00000000000E+00  0.59550393531E+02  0.13846558733E+03  0.12500587788E+03 0.  0.
    9000005    1    3    3    0    0  0.15403308264E+02 -0.59675130033E+02  0.41245590642E+02  0.74165907243E+02  0.10000000000E+01 0.  0.
    9000005    1    3    3    0    0 -0.15403308264E+02  0.59675130033E+02  0.18304802890E+02  0.64299680082E+02  0.10000000000E+01 0.  0.
<mgrwt>
<rscale>  0 0.12500588E+03</rscale>
<asrwt>0</asrwt>
<pdfrwt beam="1">  1        4 0.24751997E-01 0.12500588E+03</pdfrwt>
<pdfrwt beam="2">  1       -4 0.98643994E-02 0.12500588E+03</pdfrwt>
<totfact> 0.19116496E+03</totfact>
</mgrwt>
</event>
<event>
 5    1  0.1435323E-002  0.1249966E+03  0.7818608E-02  0.1235075E+00
          4   -1    0    0  501    0  0.00000000000E+00  0.00000000000E+00  0.61964799078E+01  0.63252876020E+01  0.12700000000E+01 0. -1.
         -4   -1    0    0    0  501 -0.00000000000E+00 -0.00000000000E+00 -0.62374993291E+03  0.62375122582E+03  0.12700000000E+01 0. -1.
         25    2    1    2    0    0  0.00000000000E+00  0.00000000000E+00 -0.61755345300E+03  0.63007651342E+03  0.12499658173E+03 0.  0.
    9000005    1    3    3    0    0 -0.61823586183E+02 -0.61522222294E+01 -0.34260264298E+03  0.34819186755E+03  0.10000000000E+01 0.  0.
    9000005    1    3    3    0    0  0.61823586183E+02  0.61522222294E+01 -0.27495081002E+03  0.28188464587E+03  0.10000000000E+01 0.  0.
<mgrwt>
<rscale>  0 0.12499658E+03</rscale>
<asrwt>0</asrwt>
<pdfrwt beam="1">  1        4 0.15653847E-02 0.12499658E+03</pdfrwt>
<pdfrwt beam="2">  1       -4 0.15595353E+00 0.12499658E+03</pdfrwt>
<totfact> 0.69843110E+02</totfact>
</mgrwt>
</event>
<event>
 5    1  0.1435323E-002  0.1250083E+03  0.7818608E-02  0.1235056E+00
          4   -1    0    0  501    0  0.00000000000E+00  0.00000000000E+00  0.25337642663E+02  0.25369450836E+02  0.12700000000E+01 0. -1.
         -4   -1    0    0    0  501 -0.00000000000E+00 -0.00000000000E+00 -0.15405707031E+03  0.15406230497E+03  0.12700000000E+01 0. -1.
         25    2    1    2    0    0  0.00000000000E+00  0.00000000000E+00 -0.12871942764E+03  0.17943175580E+03  0.12500825548E+03 0.  0.
    9000005    1    3    3    0    0 -0.51935436229E+02  0.34325374373E+02 -0.72253553171E+02  0.95378702068E+02  0.10000000000E+01 0.  0.
    9000005    1    3    3    0    0  0.51935436229E+02 -0.34325374373E+02 -0.56465874473E+02  0.84053053735E+02  0.10000000000E+01 0.  0.
<mgrwt>
<rscale>  0 0.12500826E+03</rscale>
<asrwt>0</asrwt>
<pdfrwt beam="1">  1        4 0.63390414E-02 0.12500826E+03</pdfrwt>
<pdfrwt beam="2">  1       -4 0.38518895E-01 0.12500826E+03</pdfrwt>
<totfact> 0.17176550E+03</totfact>
</mgrwt>
</event>
<event>
 5    1  0.1435323E-002  0.1249976E+03  0.7818608E-02  0.1235073E+00
          4   -1    0    0  501    0  0.00000000000E+00  0.00000000000E+00  0.11718494129E+03  0.11719182295E+03  0.12700000000E+01 0.  1.
         -4   -1    0    0    0  501 -0.00000000000E+00 -0.00000000000E+00 -0.33312834929E+02  0.33337034526E+02  0.12700000000E+01 0.  1.
         25    2    1    2    0    0  0.00000000000E+00  0.00000000000E+00  0.83872106366E+02  0.15052885747E+03  0.12499762680E+03 0.  0.
    9000005    1    3    3    0    0  0.16320080677E+02  0.12873021462E+02  0.11290576031E+03  0.11480753645E+03  0.10000000000E+01 0.  0.
    9000005    1    3    3    0    0 -0.16320080677E+02 -0.12873021462E+02 -0.29033653940E+02  0.35721321028E+02  0.10000000000E+01 0.  0.
<mgrwt>
<rscale>  0 0.12499763E+03</rscale>
<asrwt>0</asrwt>
<pdfrwt beam="1">  1        4 0.29300120E-01 0.12499763E+03</pdfrwt>
<pdfrwt beam="2">  1       -4 0.83320940E-02 0.12499763E+03</pdfrwt>
<totfact> 0.18513830E+03</totfact>
</mgrwt>
</event>
<event>
 5    1  0.1435323E-002  0.1249868E+03  0.7818608E-02  0.1235090E+00
         -4   -1    0    0    0  501 -0.00000000000E+00  0.00000000000E+00  0.39036401304E+03  0.39036607892E+03  0.12700000000E+01 0.  1.
          4   -1    0    0  501    0  0.00000000000E+00 -0.00000000000E+00 -0.99621639376E+01  0.10042788971E+02  0.12700000000E+01 0.  1.
         25    2    1    2    0    0  0.00000000000E+00  0.00000000000E+00  0.38040184910E+03  0.40040886790E+03  0.12498677806E+03 0.  0.
    9000005    1    3    3    0    0  0.99637376935E+01  0.35591705709E+02  0.35160621644E+03  0.35354487271E+03  0.10000000000E+01 0.  0.
    9000005    1    3    3    0    0 -0.99637376935E+01 -0.35591705709E+02  0.28795632665E+02  0.46863995185E+02  0.10000000000E+01 0.  0.
<mgrwt>
<rscale>  0 0.12498678E+03</rscale>
<asrwt>0</asrwt>
<pdfrwt beam="2">  1        4 0.25008774E-02 0.12498678E+03</pdfrwt>
<pdfrwt beam="1">  1       -4 0.97601337E-01 0.12498678E+03</pdfrwt>
<totfact> 0.10563963E+03</totfact>
</mgrwt>
</event>
<event>
 5    1  0.1435323E-002  0.1249972E+03  0.7818608E-02  0.1235074E+00
         -4   -1    0    0    0  501 -0.00000000000E+00  0.00000000000E+00  0.26827154440E+02  0.26857198576E+02  0.12700000000E+01 0.  1.
          4   -1    0    0  501    0  0.00000000000E+00 -0.00000000000E+00 -0.14548713335E+03  0.14549267634E+03  0.12700000000E+01 0.  1.
         25    2    1    2    0    0  0.00000000000E+00  0.00000000000E+00 -0.11865997891E+03  0.17234987492E+03  0.12499715513E+03 0.  0.
    9000005    1    3    3    0    0  0.51718828373E+02 -0.21534028572E+01 -0.10760082743E+03  0.11940859439E+03  0.10000000000E+01 0.  0.
    9000005    1    3    3    0    0 -0.51718828373E+02  0.21534028572E+01 -0.11059151480E+02  0.52941280525E+02  0.10000000000E+01 0.  0.
<mgrwt>
<rscale>  0 0.12499716E+03</rscale>
<asrwt>0</asrwt>
<pdfrwt beam="2">  1        4 0.36376230E-01 0.12499716E+03</pdfrwt>
<pdfrwt beam="1">  1       -4 0.67112374E-02 0.12499716E+03</pdfrwt>
<totfact> 0.17492731E+03</totfact>
</mgrwt>
</event>
<event>
 5    1  0.1435323E-002  0.1249546E+03  0.7818608E-02  0.1235140E+00
         -4   -1    0    0    0  501 -0.00000000000E+00  0.00000000000E+00  0.70959460809E+02  0.70970824839E+02  0.12700000000E+01 0. -1.
          4   -1    0    0  501    0  0.00000000000E+00 -0.00000000000E+00 -0.54985995728E+02  0.55000660234E+02  0.12700000000E+01 0. -1.
         25    2    1    2    0    0  0.00000000000E+00  0.00000000000E+00  0.15973465081E+02  0.12597148507E+03  0.12495464563E+03 0.  0.
    9000005    1    3    3    0    0 -0.42217157240E+02 -0.18880994886E+02 -0.34350675094E+02  0.57617264884E+02  0.10000000000E+01 0.  0.
    9000005    1    3    3    0    0  0.42217157240E+02  0.18880994886E+02  0.50324140176E+02  0.68354220189E+02  0.10000000000E+01 0.  0.
<mgrwt>
<rscale>  0 0.12495465E+03</rscale>
<asrwt>0</asrwt>
<pdfrwt beam="2">  1        4 0.13749753E-01 0.12495465E+03</pdfrwt>
<pdfrwt beam="1">  1       -4 0.17743119E-01 0.12495465E+03</pdfrwt>
<totfact> 0.19803463E+03</totfact>
</mgrwt>
</event>
<event>
 5    1  0.1435323E-002  0.1250012E+03  0.7818608E-02  0.1235067E+00
          4   -1    0    0  501    0  0.00000000000E+00  0.00000000000E+00  0.81658845284E+01  0.82640528877E+01  0.12700000000E+01 0. -1.
         -4   -1    0    0    0  501 -0.00000000000E+00 -0.00000000000E+00 -0.47541398747E+03  0.47541568377E+03  0.12700000000E+01 0. -1.
         25    2    1    2    0    0  0.00000000000E+00  0.00000000000E+00 -0.46724810294E+03  0.48367973666E+03  0.12500119183E+03 0.  0.
    9000005    1    3    3    0    0  0.53453476727E+02  0.29681588349E+02 -0.18361234239E+03  0.19352716383E+03  0.10000000000E+01 0.  0.
    9000005    1    3    3    0    0 -0.53453476727E+02 -0.29681588349E+02 -0.28363576055E+03  0.29015257284E+03  0.10000000000E+01 0.  0.
<mgrwt>
<rscale>  0 0.12500119E+03</rscale>
<asrwt>0</asrwt>
<pdfrwt beam="1">  1        4 0.20539558E-02 0.12500119E+03</pdfrwt>
<pdfrwt beam="2">  1       -4 0.11886589E+00 0.12500119E+03</pdfrwt>
<totfact> 0.90257819E+02</totfact>
</mgrwt>
</event>
<event>
 5    1  0.1435323E-002  0.1250021E+03  0.7818608E-02  0.1235066E+00
          4   -1    0    0  501    0  0.00000000000E+00  0.00000000000E+00  0.56169879384E+03  0.56170022957E+03  0.12700000000E+01 0. -1.
         -4   -1    0    0    0  501 -0.00000000000E+00 -0.00000000000E+00 -0.68951437287E+01  0.70111273729E+01  0.12700000000E+01 0. -1.
         25    2    1    2    0    0  0.00000000000E+00  0.00000000000E+00  0.55480365011E+03  0.56871135694E+03  0.12500206935E+03 0.  0.
    9000005    1    3    3    0    0 -0.53358368440E+00 -0.62378115712E+02  0.29446458414E+03  0.30100117166E+03  0.10000000000E+01 0.  0.
    9000005    1    3    3    0    0  0.53358368440E+00  0.62378115712E+02  0.26033906597E+03  0.26771018528E+03  0.10000000000E+01 0.  0.
<mgrwt>
<rscale>  0 0.12500207E+03</rscale>
<asrwt>0</asrwt>
<pdfrwt beam="1">  1        4 0.14043936E+00 0.12500207E+03</pdfrwt>
<pdfrwt beam="2">  1       -4 0.17384635E-02 0.12500207E+03</pdfrwt>
<totfact> 0.77582622E+02</totfact>
</mgrwt>
</event>
<event>
 5    1  0.1435323E-002  0.1250005E+03  0.7818608E-02  0.1235069E+00
          4   -1    0    0  501    0  0.00000000000E+00  0.00000000000E+00  0.48709790718E+01  0.50338193370E+01  0.12700000000E+01 0. -1.
         -4   -1    0    0    0  501 -0.00000000000E+00 -0.00000000000E+00 -0.78860159351E+03  0.78860261614E+03  0.12700000000E+01 0. -1.
         25    2    1    2    0    0  0.00000000000E+00  0.00000000000E+00 -0.78373061444E+03  0.79363643548E+03  0.12500046285E+03 0.  0.
    9000005    1    3    3    0    0 -0.49004891125E+02  0.25803618210E+02 -0.20807400554E+03  0.21532091828E+03  0.10000000000E+01 0.  0.
    9000005    1    3    3    0    0  0.49004891125E+02 -0.25803618210E+02 -0.57565660890E+03  0.57831551720E+03  0.10000000000E+01 0.  0.
<mgrwt>
<rscale>  0 0.12500046E+03</rscale>
<asrwt>0</asrwt>
<pdfrwt beam="1">  1        4 0.12382303E-02 0.12500046E+03</pdfrwt>
<pdfrwt beam="2">  1       -4 0.19717045E+00 0.12500046E+03</pdfrwt>
<totfact> 0.53042862E+02</totfact>
</mgrwt>
</event>
<event>
 5    1  0.1435323E-002  0.1249973E+03  0.7818608E-02  0.1235074E+00
         -4   -1    0    0    0  501 -0.00000000000E+00  0.00000000000E+00  0.44760615787E+02  0.44778629118E+02  0.12700000000E+01 0. -1.
          4   -1    0    0  501    0  0.00000000000E+00 -0.00000000000E+00 -0.87225837837E+02  0.87235082887E+02  0.12700000000E+01 0. -1.
         25    2    1    2    0    0  0.00000000000E+00  0.00000000000E+00 -0.42465222049E+02  0.13201371200E+03  0.12499730027E+03 0.  0.
    9000005    1    3    3    0    0 -0.30326887907E+02  0.71921867846E+01  0.35970723341E+02  0.47606098544E+02  0.10000000000E+01 0.  0.
    9000005    1    3    3    0    0  0.30326887907E+02 -0.71921867846E+01 -0.78435945391E+02  0.84407613461E+02  0.10000000000E+01 0.  0.
<mgrwt>
<rscale>  0 0.12499730E+03</rscale>
<asrwt>0</asrwt>
<pdfrwt beam="2">  1        4 0.21809866E-01 0.12499730E+03</pdfrwt>
<pdfrwt beam="1">  1       -4 0.11193561E-01 0.12499730E+03</pdfrwt>
<totfact> 0.19457951E+03</totfact>
</mgrwt>
</event>
<event>
 4    1  0.1435323E-002  0.1252283E+03  0.7818608E-02  0.1234713E+00
         -4   -1    0    0    0  501 -0.00000000000E+00  0.00000000000E+00  0.40290877528E+03  0.40291077685E+03  0.12700000000E+01 0. -1.
          4   -1    0    0  501    0  0.00000000000E+00 -0.00000000000E+00 -0.96871023702E+01  0.97699975604E+01  0.12700000000E+01 0. -1.
    9000005    1    1    2    0    0  0.58209639092E+02 -0.21637321394E+02  0.22276718541E+03  0.23126338806E+03  0.10000000000E+01 0.  0.
    9000005    1    1    2    0    0 -0.58209639092E+02  0.21637321394E+02  0.17045448750E+03  0.18141738635E+03  0.10000000000E+01 0.  0.
<mgrwt>
<rscale>  0 0.12522834E+03</rscale>
<asrwt>0</asrwt>
<pdfrwt beam="2">  1        4 0.24323879E-02 0.12522834E+03</pdfrwt>
<pdfrwt beam="1">  1       -4 0.10073780E+00 0.12522834E+03</pdfrwt>
<totfact> 0.10258450E+03</totfact>
</mgrwt>
</event>
<event>
 5    1  0.1435323E-002  0.1249962E+03  0.7818608E-02  0.1235075E+00
          4   -1    0    0  501    0  0.00000000000E+00  0.00000000000E+00  0.31278363544E+02  0.31304135924E+02  0.12700000000E+01 0. -1.
         -4   -1    0    0    0  501 -0.00000000000E+00 -0.00000000000E+00 -0.12479859897E+03  0.12480506082E+03  0.12700000000E+01 0. -1.
         25    2    1    2    0    0  0.00000000000E+00  0.00000000000E+00 -0.93520235428E+02  0.15610919674E+03  0.12499618743E+03 0.  0.
    9000005    1    3    3    0    0  0.55469577995E+02  0.19046432865E+02 -0.19818020753E+02  0.61914413786E+02  0.10000000000E+01 0.  0.
    9000005    1    3    3    0    0 -0.55469577995E+02 -0.19046432865E+02 -0.73702214675E+02  0.94194782955E+02  0.10000000000E+01 0.  0.
<mgrwt>
<rscale>  0 0.12499619E+03</rscale>
<asrwt>0</asrwt>
<pdfrwt beam="1">  1        4 0.78236205E-02 0.12499619E+03</pdfrwt>
<pdfrwt beam="2">  1       -4 0.31203678E-01 0.12499619E+03</pdfrwt>
<totfact> 0.18244031E+03</totfact>
</mgrwt>
</event>
<event>
 5    1  0.1435323E-002  0.1249980E+03  0.7818608E-02  0.1235072E+00
          4   -1    0    0  501    0  0.00000000000E+00  0.00000000000E+00  0.78971430106E+03  0.78971532225E+03  0.12700000000E+01 0.  1.
         -4   -1    0    0    0  501 -0.00000000000E+00 -0.00000000000E+00 -0.48636846438E+01  0.50267612152E+01  0.12700000000E+01 0.  1.
         25    2    1    2    0    0  0.00000000000E+00  0.00000000000E+00  0.78485061642E+03  0.79474208347E+03  0.12499795656E+03 0.  0.
    9000005    1    3    3    0    0 -0.62243920131E+02 -0.55334351036E+01  0.38959766885E+03  0.39457859556E+03  0.10000000000E+01 0.  0.
    9000005    1    3    3    0    0  0.62243920131E+02  0.55334351036E+01  0.39525294756E+03  0.40016348791E+03  0.10000000000E+01 0.  0.
<mgrwt>
<rscale>  0 0.12499796E+03</rscale>
<asrwt>0</asrwt>
<pdfrwt beam="1">  1        4 0.19744909E+00 0.12499796E+03</pdfrwt>
<pdfrwt beam="2">  1       -4 0.12364334E-02 0.12499796E+03</pdfrwt>
<totfact> 0.52947129E+02</totfact>
</mgrwt>
</event>
<event>
 5    1  0.1435323E-002  0.1249998E+03  0.7818608E-02  0.1235070E+00
          4   -1    0    0  501    0  0.00000000000E+00  0.00000000000E+00  0.15825353664E+03  0.15825863250E+03  0.12700000000E+01 0.  1.
         -4   -1    0    0    0  501 -0.00000000000E+00 -0.00000000000E+00 -0.24661561270E+02  0.24694240305E+02  0.12700000000E+01 0.  1.
         25    2    1    2    0    0  0.00000000000E+00  0.00000000000E+00  0.13359197537E+03  0.18295287280E+03  0.12499975113E+03 0.  0.
    9000005    1    3    3    0    0 -0.56624144399E+02 -0.41546041251E+01  0.28582176344E+02  0.63572755713E+02  0.10000000000E+01 0.  0.
    9000005    1    3    3    0    0  0.56624144399E+02  0.41546041251E+01  0.10500979903E+03  0.11938011709E+03  0.10000000000E+01 0.  0.
<mgrwt>
<rscale>  0 0.12499975E+03</rscale>
<asrwt>0</asrwt>
<pdfrwt beam="1">  1        4 0.39568105E-01 0.12499975E+03</pdfrwt>
<pdfrwt beam="2">  1       -4 0.61701123E-02 0.12499975E+03</pdfrwt>
<totfact> 0.17028247E+03</totfact>
</mgrwt>
</event>
<event>
 5    1  0.1435323E-002  0.1250008E+03  0.7818608E-02  0.1235068E+00
         -4   -1    0    0    0  501 -0.00000000000E+00  0.00000000000E+00  0.50685780750E+03  0.50685939858E+03  0.12700000000E+01 0.  1.
          4   -1    0    0  501    0  0.00000000000E+00 -0.00000000000E+00 -0.76529618830E+01  0.77576237072E+01  0.12700000000E+01 0.  1.
         25    2    1    2    0    0  0.00000000000E+00  0.00000000000E+00  0.49920484562E+03  0.51461702228E+03  0.12500080694E+03 0.  0.
    9000005    1    3    3    0    0 -0.18089828361E+02  0.44912345337E+02  0.86948551171E+02  0.99525932322E+02  0.10000000000E+01 0.  0.
    9000005    1    3    3    0    0  0.18089828361E+02 -0.44912345337E+02  0.41225629445E+03  0.41509108996E+03  0.10000000000E+01 0.  0.
<mgrwt>
<rscale>  0 0.12500081E+03</rscale>
<asrwt>0</asrwt>
<pdfrwt beam="2">  1        4 0.19265220E-02 0.12500081E+03</pdfrwt>
<pdfrwt beam="1">  1       -4 0.12672774E+00 0.12500081E+03</pdfrwt>
<totfact> 0.85326307E+02</totfact>
</mgrwt>
</event>
<event>
 5    1  0.1435323E-002  0.1249966E+03  0.7818608E-02  0.1235075E+00
          4   -1    0    0  501    0  0.00000000000E+00  0.00000000000E+00  0.36293497772E+03  0.36293719973E+03  0.12700000000E+01 0.  1.
         -4   -1    0    0    0  501 -0.00000000000E+00 -0.00000000000E+00 -0.10722624971E+02  0.10797573166E+02  0.12700000000E+01 0.  1.
         25    2    1    2    0    0  0.00000000000E+00  0.00000000000E+00  0.35221235275E+03  0.37373477290E+03  0.12499655614E+03 0.  0.
    9000005    1    3    3    0    0  0.41167030955E+02  0.44378898920E+02  0.22250586126E+03  0.23059503334E+03  0.10000000000E+01 0.  0.
    9000005    1    3    3    0    0 -0.41167030955E+02 -0.44378898920E+02  0.12970649149E+03  0.14313973956E+03  0.10000000000E+01 0.  0.
<mgrwt>
<rscale>  0 0.12499656E+03</rscale>
<asrwt>0</asrwt>
<pdfrwt beam="1">  1        4 0.90743393E-01 0.12499656E+03</pdfrwt>
<pdfrwt beam="2">  1       -4 0.26903024E-02 0.12499656E+03</pdfrwt>
<totfact> 0.11131885E+03</totfact>
</mgrwt>
</event>
<event>
 5    1  0.1435323E-002  0.1249987E+03  0.7818608E-02  0.1235071E+00
         -4   -1    0    0    0  501 -0.00000000000E+00  0.00000000000E+00  0.48773533152E+02  0.48790064932E+02  0.12700000000E+01 0. -1.
          4   -1    0    0  501    0  0.00000000000E+00 -0.00000000000E+00 -0.80052725458E+02  0.80062798810E+02  0.12700000000E+01 0. -1.
         25    2    1    2    0    0  0.00000000000E+00  0.00000000000E+00 -0.31279192306E+02  0.12885286374E+03  0.12499869049E+03 0.  0.
    9000005    1    3    3    0    0  0.56925452450E+01  0.59436080516E+02 -0.34650456489E+02  0.69041341770E+02  0.10000000000E+01 0.  0.
    9000005    1    3    3    0    0 -0.56925452450E+01 -0.59436080516E+02  0.33712641824E+01  0.59811521972E+02  0.10000000000E+01 0.  0.
<mgrwt>
<rscale>  0 0.12499869E+03</rscale>
<asrwt>0</asrwt>
<pdfrwt beam="2">  1        4 0.20016507E-01 0.12499869E+03</pdfrwt>
<pdfrwt beam="1">  1       -4 0.12196709E-01 0.12499869E+03</pdfrwt>
<totfact> 0.19626855E+03</totfact>
</mgrwt>
</event>
<event>
 5    1  0.1435323E-002  0.1250036E+03  0.7818608E-02  0.1235064E+00
         -4   -1    0    0    0  501 -0.00000000000E+00  0.00000000000E+00  0.67687390961E+02  0.67699304244E+02  0.12700000000E+01 0.  1.
          4   -1    0    0  501    0  0.00000000000E+00 -0.00000000000E+00 -0.57689501065E+02  0.57703478519E+02  0.12700000000E+01 0.  1.
         25    2    1    2    0    0  0.00000000000E+00  0.00000000000E+00  0.99978898958E+01  0.12540278276E+03  0.12500360044E+03 0.  0.
    9000005    1    3    3    0    0 -0.56384967999E+02 -0.87269371435E+01 -0.20578570834E+02  0.60662192721E+02  0.10000000000E+01 0.  0.
    9000005    1    3    3    0    0  0.56384967999E+02  0.87269371435E+01  0.30576460729E+02  0.64740590042E+02  0.10000000000E+01 0.  0.
<mgrwt>
<rscale>  0 0.12500360E+03</rscale>
<asrwt>0</asrwt>
<pdfrwt beam="2">  1        4 0.14425612E-01 0.12500360E+03</pdfrwt>
<pdfrwt beam="1">  1       -4 0.16925084E-01 0.12500360E+03</pdfrwt>
<totfact> 0.19811558E+03</totfact>
</mgrwt>
</event>
<event>
 5    1  0.1435323E-002  0.1249998E+03  0.7818608E-02  0.1235070E+00
         -4   -1    0    0    0  501 -0.00000000000E+00  0.00000000000E+00  0.17153045665E+02  0.17199996383E+02  0.12700000000E+01 0.  1.
          4   -1    0    0  501    0  0.00000000000E+00 -0.00000000000E+00 -0.22736858316E+03  0.22737213002E+03  0.12700000000E+01 0.  1.
         25    2    1    2    0    0  0.00000000000E+00  0.00000000000E+00 -0.21021553750E+03  0.24457212640E+03  0.12499981123E+03 0.  0.
    9000005    1    3    3    0    0  0.47674748822E+02 -0.25070252793E+02 -0.43116628600E+02  0.69003209434E+02  0.10000000000E+01 0.  0.
    9000005    1    3    3    0    0 -0.47674748822E+02  0.25070252793E+02 -0.16709890890E+03  0.17556891697E+03  0.10000000000E+01 0.  0.
<mgrwt>
<rscale>  0 0.12499981E+03</rscale>
<asrwt>0</asrwt>
<pdfrwt beam="2">  1        4 0.56848449E-01 0.12499981E+03</pdfrwt>
<pdfrwt beam="1">  1       -4 0.42945743E-02 0.12499981E+03</pdfrwt>
<totfact> 0.14680290E+03</totfact>
</mgrwt>
</event>
<event>
 5    1  0.1435323E-002  0.1249998E+03  0.7818608E-02  0.1235070E+00
         -4   -1    0    0    0  501 -0.00000000000E+00  0.00000000000E+00  0.24429380126E+02  0.24462369333E+02  0.12700000000E+01 0.  1.
          4   -1    0    0  501    0  0.00000000000E+00 -0.00000000000E+00 -0.15975571303E+03  0.15976076097E+03  0.12700000000E+01 0.  1.
         25    2    1    2    0    0  0.00000000000E+00  0.00000000000E+00 -0.13532633291E+03  0.18422313031E+03  0.12499978145E+03 0.  0.
    9000005    1    3    3    0    0  0.14681808881E+02 -0.25220049751E+02  0.13777834907E+02  0.32286764412E+02  0.10000000000E+01 0.  0.
    9000005    1    3    3    0    0 -0.14681808881E+02  0.25220049751E+02 -0.14910416782E+03  0.15193636590E+03  0.10000000000E+01 0.  0.
<mgrwt>
<rscale>  0 0.12499978E+03</rscale>
<asrwt>0</asrwt>
<pdfrwt beam="2">  1        4 0.39943680E-01 0.12499978E+03</pdfrwt>
<pdfrwt beam="1">  1       -4 0.61121001E-02 0.12499978E+03</pdfrwt>
<totfact> 0.16973979E+03</totfact>
</mgrwt>
</event>
<event>
 5    1  0.1435323E-002  0.1249791E+03  0.7818608E-02  0.1235102E+00
          4   -1    0    0  501    0  0.00000000000E+00  0.00000000000E+00  0.28488936844E+02  0.28517230274E+02  0.12700000000E+01 0. -1.
         -4   -1    0    0    0  501 -0.00000000000E+00 -0.00000000000E+00 -0.13696942829E+03  0.13697531598E+03  0.12700000000E+01 0. -1.
         25    2    1    2    0    0  0.00000000000E+00  0.00000000000E+00 -0.10848049145E+03  0.16549254625E+03  0.12497906161E+03 0.  0.
    9000005    1    3    3    0    0 -0.60846671944E+02  0.17396801140E+01 -0.35579540513E+02  0.70514166496E+02  0.10000000000E+01 0.  0.
    9000005    1    3    3    0    0  0.60846671944E+02 -0.17396801140E+01 -0.72900950937E+02  0.94978379756E+02  0.10000000000E+01 0.  0.
<mgrwt>
<rscale>  0 0.12497906E+03</rscale>
<asrwt>0</asrwt>
<pdfrwt beam="1">  1        4 0.71265072E-02 0.12497906E+03</pdfrwt>
<pdfrwt beam="2">  1       -4 0.34246628E-01 0.12497906E+03</pdfrwt>
<totfact> 0.17810950E+03</totfact>
</mgrwt>
</event>
<event>
 5    1  0.1435323E-002  0.1249991E+03  0.7818608E-02  0.1235071E+00
         -4   -1    0    0    0  501 -0.00000000000E+00  0.00000000000E+00  0.21271820614E+03  0.21272199727E+03  0.12700000000E+01 0.  1.
          4   -1    0    0  501    0  0.00000000000E+00 -0.00000000000E+00 -0.18337314492E+02  0.18381240513E+02  0.12700000000E+01 0.  1.
         25    2    1    2    0    0  0.00000000000E+00  0.00000000000E+00  0.19438089165E+03  0.23110323778E+03  0.12499910190E+03 0.  0.
    9000005    1    3    3    0    0 -0.32606086789E+02 -0.15435401405E+02  0.28491738287E+01  0.36201192020E+02  0.10000000000E+01 0.  0.
    9000005    1    3    3    0    0  0.32606086789E+02  0.15435401405E+02  0.19153171782E+03  0.19490204576E+03  0.10000000000E+01 0.  0.
<mgrwt>
<rscale>  0 0.12499910E+03</rscale>
<asrwt>0</asrwt>
<pdfrwt beam="2">  1        4 0.45902933E-02 0.12499910E+03</pdfrwt>
<pdfrwt beam="1">  1       -4 0.53185516E-01 0.12499910E+03</pdfrwt>
<totfact> 0.15148284E+03</totfact>
</mgrwt>
</event>
<event>
 5    1  0.1435323E-002  0.1249996E+03  0.7818608E-02  0.1235070E+00
         -4   -1    0    0    0  501 -0.00000000000E+00  0.00000000000E+00  0.75048204618E+02  0.75058949609E+02  0.12700000000E+01 0. -1.
          4   -1    0    0  501    0  0.00000000000E+00 -0.00000000000E+00 -0.52027336456E+02  0.52042834653E+02  0.12700000000E+01 0. -1.
         25    2    1    2    0    0  0.00000000000E+00  0.00000000000E+00  0.23020868162E+02  0.12710178426E+03  0.12499961277E+03 0.  0.
    9000005    1    3    3    0    0  0.14750606694E+02 -0.18525219920E+02  0.70314328389E+02  0.74201542758E+02  0.10000000000E+01 0.  0.
    9000005    1    3    3    0    0 -0.14750606694E+02  0.18525219920E+02 -0.47293460227E+02  0.52900241504E+02  0.10000000000E+01 0.  0.
<mgrwt>
<rscale>  0 0.12499961E+03</rscale>
<asrwt>0</asrwt>
<pdfrwt beam="2">  1        4 0.13010115E-01 0.12499961E+03</pdfrwt>
<pdfrwt beam="1">  1       -4 0.18765331E-01 0.12499961E+03</pdfrwt>
<totfact> 0.19721660E+03</totfact>
</mgrwt>
</event>
<event>
 5    1  0.1435323E-002  0.1249981E+03  0.7818608E-02  0.1235072E+00
          4   -1    0    0  501    0  0.00000000000E+00  0.00000000000E+00  0.35885731510E+03  0.35885956237E+03  0.12700000000E+01 0. -1.
         -4   -1    0    0    0  501 -0.00000000000E+00 -0.00000000000E+00 -0.10845584265E+02  0.10919688551E+02  0.12700000000E+01 0. -1.
         25    2    1    2    0    0  0.00000000000E+00  0.00000000000E+00  0.34801173084E+03  0.36977925092E+03  0.12499811842E+03 0.  0.
    9000005    1    3    3    0    0 -0.45229852855E+02 -0.41833261955E+02  0.14306801265E+03  0.15577296826E+03  0.10000000000E+01 0.  0.
    9000005    1    3    3    0    0  0.45229852855E+02  0.41833261955E+02  0.20494371819E+03  0.21400628266E+03  0.10000000000E+01 0.  0.
<mgrwt>
<rscale>  0 0.12499812E+03</rscale>
<asrwt>0</asrwt>
<pdfrwt beam="1">  1        4 0.89723869E-01 0.12499812E+03</pdfrwt>
<pdfrwt beam="2">  1       -4 0.27209401E-02 0.12499812E+03</pdfrwt>
<totfact> 0.11219873E+03</totfact>
</mgrwt>
</event>
<event>
 5    1  0.1435323E-002  0.1250001E+03  0.7818608E-02  0.1235069E+00
          4   -1    0    0  501    0  0.00000000000E+00  0.00000000000E+00  0.72657597281E+02  0.72668695755E+02  0.12700000000E+01 0.  1.
         -4   -1    0    0    0  501 -0.00000000000E+00 -0.00000000000E+00 -0.53739827266E+02  0.53754831732E+02  0.12700000000E+01 0.  1.
         25    2    1    2    0    0  0.00000000000E+00  0.00000000000E+00  0.18917770016E+02  0.12642352749E+03  0.12500010512E+03 0.  0.
    9000005    1    3    3    0    0 -0.48468982074E+01 -0.79065355572E+00  0.72467092548E+02  0.72640188998E+02  0.10000000000E+01 0.  0.
    9000005    1    3    3    0    0  0.48468982074E+01  0.79065355572E+00 -0.53549322533E+02  0.53783338489E+02  0.10000000000E+01 0.  0.
<mgrwt>
<rscale>  0 0.12500011E+03</rscale>
<asrwt>0</asrwt>
<pdfrwt beam="1">  1        4 0.18167662E-01 0.12500011E+03</pdfrwt>
<pdfrwt beam="2">  1       -4 0.13438220E-01 0.12500011E+03</pdfrwt>
<totfact> 0.19758002E+03</totfact>
</mgrwt>
</event>
<event>
 5    1  0.1435323E-002  0.1250028E+03  0.7818608E-02  0.1235065E+00
         -4   -1    0    0    0  501 -0.00000000000E+00  0.00000000000E+00  0.58083821147E+03  0.58083959989E+03  0.12700000000E+01 0.  1.
          4   -1    0    0  501    0  0.00000000000E+00 -0.00000000000E+00 -0.66641336771E+01  0.67840679291E+01  0.12700000000E+01 0.  1.
         25    2    1    2    0    0  0.00000000000E+00  0.00000000000E+00  0.57417407779E+03  0.58762366782E+03  0.12500281347E+03 0.  0.
    9000005    1    3    3    0    0 -0.22178208438E+02 -0.46304840504E+02  0.45457409400E+03  0.45746542833E+03  0.10000000000E+01 0.  0.
    9000005    1    3    3    0    0  0.22178208438E+02  0.46304840504E+02  0.11959998379E+03  0.13015823949E+03  0.10000000000E+01 0.  0.
<mgrwt>
<rscale>  0 0.12500281E+03</rscale>
<asrwt>0</asrwt>
<pdfrwt beam="2">  1        4 0.16811990E-02 0.12500281E+03</pdfrwt>
<pdfrwt beam="1">  1       -4 0.14522469E+00 0.12500281E+03</pdfrwt>
<totfact> 0.75077726E+02</totfact>
</mgrwt>
</event>
<event>
 5    1  0.1435323E-002  0.1250095E+03  0.7818608E-02  0.1235054E+00
         -4   -1    0    0    0  501 -0.00000000000E+00  0.00000000000E+00  0.36713909496E+02  0.36735868718E+02  0.12700000000E+01 0.  1.
          4   -1    0    0  501    0  0.00000000000E+00 -0.00000000000E+00 -0.10635555375E+03  0.10636313606E+03  0.12700000000E+01 0.  1.
         25    2    1    2    0    0  0.00000000000E+00  0.00000000000E+00 -0.69641644252E+02  0.14309900478E+03  0.12500946586E+03 0.  0.
    9000005    1    3    3    0    0 -0.35667794834E+02 -0.15997068984E+02  0.20997431659E+02  0.44384568723E+02  0.10000000000E+01 0.  0.
    9000005    1    3    3    0    0  0.35667794834E+02  0.15997068984E+02 -0.90639075911E+02  0.98714436059E+02  0.10000000000E+01 0.  0.
<mgrwt>
<rscale>  0 0.12500947E+03</rscale>
<asrwt>0</asrwt>
<pdfrwt beam="2">  1        4 0.26592580E-01 0.12500947E+03</pdfrwt>
<pdfrwt beam="1">  1       -4 0.91821703E-02 0.12500947E+03</pdfrwt>
<totfact> 0.18878743E+03</totfact>
</mgrwt>
</event>
<event>
 5    1  0.1435323E-002  0.1250019E+03  0.7818608E-02  0.1235066E+00
          4   -1    0    0  501    0  0.00000000000E+00  0.00000000000E+00  0.99816434285E+02  0.99824513289E+02  0.12700000000E+01 0.  1.
         -4   -1    0    0    0  501 -0.00000000000E+00 -0.00000000000E+00 -0.39115540390E+02  0.39136152085E+02  0.12700000000E+01 0.  1.
         25    2    1    2    0    0  0.00000000000E+00  0.00000000000E+00  0.60700893895E+02  0.13896066537E+03  0.12500187199E+03 0.  0.
    9000005    1    3    3    0    0 -0.42626258162E+02  0.33426286463E+02  0.64991949489E+02  0.84612457771E+02  0.10000000000E+01 0.  0.
    9000005    1    3    3    0    0  0.42626258162E+02 -0.33426286463E+02 -0.42910555942E+01  0.54348207604E+02  0.10000000000E+01 0.  0.
<mgrwt>
<rscale>  0 0.12500187E+03</rscale>
<asrwt>0</asrwt>
<pdfrwt beam="1">  1        4 0.24957695E-01 0.12500187E+03</pdfrwt>
<pdfrwt beam="2">  1       -4 0.97824716E-02 0.12500187E+03</pdfrwt>
<totfact> 0.19092806E+03</totfact>
</mgrwt>
</event>
<event>
 5    1  0.1435323E-002  0.1250002E+03  0.7818608E-02  0.1235069E+00
         -4   -1    0    0    0  501 -0.00000000000E+00  0.00000000000E+00  0.47316043332E+02  0.47333084165E+02  0.12700000000E+01 0.  1.
          4   -1    0    0  501    0  0.00000000000E+00 -0.00000000000E+00 -0.82519990263E+02  0.82529762467E+02  0.12700000000E+01 0.  1.
         25    2    1    2    0    0  0.00000000000E+00  0.00000000000E+00 -0.35203946931E+02  0.12986284663E+03  0.12500016422E+03 0.  0.
    9000005    1    3    3    0    0 -0.44385925155E+02 -0.12876117643E+02  0.26098071710E+02  0.53084970608E+02  0.10000000000E+01 0.  0.
    9000005    1    3    3    0    0  0.44385925155E+02  0.12876117643E+02 -0.61302018641E+02  0.76777876025E+02  0.10000000000E+01 0.  0.
<mgrwt>
<rscale>  0 0.12500016E+03</rscale>
<asrwt>0</asrwt>
<pdfrwt beam="2">  1        4 0.20633349E-01 0.12500016E+03</pdfrwt>
<pdfrwt beam="1">  1       -4 0.11832363E-01 0.12500016E+03</pdfrwt>
<totfact> 0.19571683E+03</totfact>
</mgrwt>
</event>
<event>
 5    1  0.1435323E-002  0.1249952E+03  0.7818608E-02  0.1235077E+00
         -4   -1    0    0    0  501 -0.00000000000E+00  0.00000000000E+00  0.38510959551E+02  0.38531894653E+02  0.12700000000E+01 0.  1.
          4   -1    0    0  501    0  0.00000000000E+00 -0.00000000000E+00 -0.10137184134E+03  0.10137979639E+03  0.12700000000E+01 0.  1.
         25    2    1    2    0    0  0.00000000000E+00  0.00000000000E+00 -0.62860881785E+02  0.13991169104E+03  0.12499516323E+03 0.  0.
    9000005    1    3    3    0    0  0.55290340022E+02 -0.12181921851E+02 -0.18255835390E+01  0.56654688023E+02  0.10000000000E+01 0.  0.
    9000005    1    3    3    0    0 -0.55290340022E+02  0.12181921851E+02 -0.61035298247E+02  0.83257003020E+02  0.10000000000E+01 0.  0.
<mgrwt>
<rscale>  0 0.12499516E+03</rscale>
<asrwt>0</asrwt>
<pdfrwt beam="2">  1        4 0.25346571E-01 0.12499516E+03</pdfrwt>
<pdfrwt beam="1">  1       -4 0.96313514E-02 0.12499516E+03</pdfrwt>
<totfact> 0.19047009E+03</totfact>
</mgrwt>
</event>
<event>
 5    1  0.1435323E-002  0.1249995E+03  0.7818608E-02  0.1235070E+00
         -4   -1    0    0    0  501 -0.00000000000E+00  0.00000000000E+00  0.20567391268E+03  0.20567783365E+03  0.12700000000E+01 0. -1.
          4   -1    0    0  501    0  0.00000000000E+00 -0.00000000000E+00 -0.18966966664E+02  0.19009437772E+02  0.12700000000E+01 0. -1.
         25    2    1    2    0    0  0.00000000000E+00  0.00000000000E+00  0.18670694601E+03  0.22468727142E+03  0.12499954500E+03 0.  0.
    9000005    1    3    3    0    0  0.91375200544E+01 -0.56289275101E+02  0.47411671801E+02  0.74167670768E+02  0.10000000000E+01 0.  0.
    9000005    1    3    3    0    0 -0.91375200544E+01  0.56289275101E+02  0.13929527421E+03  0.15051960066E+03  0.10000000000E+01 0.  0.
<mgrwt>
<rscale>  0 0.12499955E+03</rscale>
<asrwt>0</asrwt>
<pdfrwt beam="2">  1        4 0.47475407E-02 0.12499955E+03</pdfrwt>
<pdfrwt beam="1">  1       -4 0.51424277E-01 0.12499955E+03</pdfrwt>
<totfact> 0.15379185E+03</totfact>
</mgrwt>
</event>
<event>
 5    1  0.1435323E-002  0.1249966E+03  0.7818608E-02  0.1235075E+00
         -4   -1    0    0    0  501 -0.00000000000E+00  0.00000000000E+00  0.98473076648E+03  0.98473158543E+03  0.12700000000E+01 0. -1.
          4   -1    0    0  501    0  0.00000000000E+00 -0.00000000000E+00 -0.38641092595E+01  0.40674611700E+01  0.12700000000E+01 0. -1.
         25    2    1    2    0    0  0.00000000000E+00  0.00000000000E+00  0.98086665722E+03  0.98879904660E+03  0.12499662123E+03 0.  0.
    9000005    1    3    3    0    0 -0.56534941852E+02  0.89677700973E+01  0.29212809793E+03  0.29768514601E+03  0.10000000000E+01 0.  0.
    9000005    1    3    3    0    0  0.56534941852E+02 -0.89677700973E+01  0.68873855929E+03  0.69111390060E+03  0.10000000000E+01 0.  0.
<mgrwt>
<rscale>  0 0.12499662E+03</rscale>
<asrwt>0</asrwt>
<pdfrwt beam="2">  1        4 0.99154862E-03 0.12499662E+03</pdfrwt>
<pdfrwt beam="1">  1       -4 0.24620822E+00 0.12499662E+03</pdfrwt>
<totfact> 0.37871001E+02</totfact>
</mgrwt>
</event>
<event>
 5    1  0.1435323E-002  0.1249880E+03  0.7818608E-02  0.1235088E+00
          4   -1    0    0  501    0  0.00000000000E+00  0.00000000000E+00  0.74940380727E+03  0.74940488339E+03  0.12700000000E+01 0.  1.
         -4   -1    0    0    0  501 -0.00000000000E+00 -0.00000000000E+00 -0.51330098039E+01  0.52877868383E+01  0.12700000000E+01 0.  1.
         25    2    1    2    0    0  0.00000000000E+00  0.00000000000E+00  0.74427079747E+03  0.75469267023E+03  0.12498802558E+03 0.  0.
    9000005    1    3    3    0    0 -0.12521152686E+02  0.60637916460E+02  0.42292939503E+03  0.42743889547E+03  0.10000000000E+01 0.  0.
    9000005    1    3    3    0    0  0.12521152686E+02 -0.60637916460E+02  0.32134140244E+03  0.32725377476E+03  0.10000000000E+01 0.  0.
<mgrwt>
<rscale>  0 0.12498803E+03</rscale>
<asrwt>0</asrwt>
<pdfrwt beam="1">  1        4 0.18737047E+00 0.12498803E+03</pdfrwt>
<pdfrwt beam="2">  1       -4 0.13027339E-02 0.12498803E+03</pdfrwt>
<totfact> 0.56639227E+02</totfact>
</mgrwt>
</event>
<event>
 5    1  0.1435323E-002  0.1249993E+03  0.7818608E-02  0.1235070E+00
          4   -1    0    0  501    0  0.00000000000E+00  0.00000000000E+00  0.98762513647E+02  0.98770678857E+02  0.12700000000E+01 0.  1.
         -4   -1    0    0    0  501 -0.00000000000E+00 -0.00000000000E+00 -0.39531528493E+02  0.39551923405E+02  0.12700000000E+01 0.  1.
         25    2    1    2    0    0  0.00000000000E+00  0.00000000000E+00  0.59230985154E+02  0.13832260226E+03  0.12499933078E+03 0.  0.
    9000005    1    3    3    0    0  0.12348135617E+02 -0.59689434509E+02  0.14366135907E+02  0.62631389144E+02  0.10000000000E+01 0.  0.
    9000005    1    3    3    0    0 -0.12348135617E+02  0.59689434509E+02  0.44864849247E+02  0.75691213118E+02  0.10000000000E+01 0.  0.
<mgrwt>
<rscale>  0 0.12499933E+03</rscale>
<asrwt>0</asrwt>
<pdfrwt beam="1">  1        4 0.24694198E-01 0.12499933E+03</pdfrwt>
<pdfrwt beam="2">  1       -4 0.98864522E-02 0.12499933E+03</pdfrwt>
<totfact> 0.19126785E+03</totfact>
</mgrwt>
</event>
<event>
 5    1  0.1435323E-002  0.1249993E+03  0.7818608E-02  0.1235070E+00
         -4   -1    0    0    0  501 -0.00000000000E+00  0.00000000000E+00  0.56632594289E+03  0.56632736689E+03  0.12700000000E+01 0. -1.
          4   -1    0    0  501    0  0.00000000000E+00 -0.00000000000E+00 -0.68375488579E+01  0.69544931076E+01  0.12700000000E+01 0. -1.
         25    2    1    2    0    0  0.00000000000E+00  0.00000000000E+00  0.55948839403E+03  0.57328186000E+03  0.12499931179E+03 0.  0.
    9000005    1    3    3    0    0  0.43742476062E+02 -0.30928388971E+02  0.13218014165E+03  0.14262734417E+03  0.10000000000E+01 0.  0.
    9000005    1    3    3    0    0 -0.43742476062E+02  0.30928388971E+02  0.42730825238E+03  0.43065451583E+03  0.10000000000E+01 0.  0.
<mgrwt>
<rscale>  0 0.12499931E+03</rscale>
<asrwt>0</asrwt>
<pdfrwt beam="2">  1        4 0.17241838E-02 0.12499931E+03</pdfrwt>
<pdfrwt beam="1">  1       -4 0.14159624E+00 0.12499931E+03</pdfrwt>
<totfact> 0.76972149E+02</totfact>
</mgrwt>
</event>
<event>
 5    1  0.1435323E-002  0.1250006E+03  0.7818608E-02  0.1235068E+00
         -4   -1    0    0    0  501 -0.00000000000E+00  0.00000000000E+00  0.79101414421E+02  0.79111608904E+02  0.12700000000E+01 0. -1.
          4   -1    0    0  501    0  0.00000000000E+00 -0.00000000000E+00 -0.49361732371E+02  0.49378067223E+02  0.12700000000E+01 0. -1.
         25    2    1    2    0    0  0.00000000000E+00  0.00000000000E+00  0.29739682050E+02  0.12848967613E+03  0.12500059273E+03 0.  0.
    9000005    1    3    3    0    0  0.20199570039E+01  0.56423901158E+02  0.42404665111E+02  0.70617933072E+02  0.10000000000E+01 0.  0.
    9000005    1    3    3    0    0 -0.20199570039E+01 -0.56423901158E+02 -0.12664983061E+02  0.57871743054E+02  0.10000000000E+01 0.  0.
<mgrwt>
<rscale>  0 0.12500059E+03</rscale>
<asrwt>0</asrwt>
<pdfrwt beam="2">  1        4 0.12343749E-01 0.12500059E+03</pdfrwt>
<pdfrwt beam="1">  1       -4 0.19778670E-01 0.12500059E+03</pdfrwt>
<totfact> 0.19645661E+03</totfact>
</mgrwt>
</event>
<event>
 5    1  0.1435323E-002  0.1249963E+03  0.7818608E-02  0.1235075E+00
         -4   -1    0    0    0  501 -0.00000000000E+00  0.00000000000E+00  0.22143315946E+02  0.22179705613E+02  0.12700000000E+01 0. -1.
          4   -1    0    0  501    0  0.00000000000E+00 -0.00000000000E+00 -0.17621363435E+03  0.17621821084E+03  0.12700000000E+01 0. -1.
         25    2    1    2    0    0  0.00000000000E+00  0.00000000000E+00 -0.15407031840E+03  0.19839791645E+03  0.12499628090E+03 0.  0.
    9000005    1    3    3    0    0  0.52329712238E+02 -0.14346285926E+02 -0.27836059179E+02  0.60992301919E+02  0.10000000000E+01 0.  0.
    9000005    1    3    3    0    0 -0.52329712238E+02  0.14346285926E+02 -0.12623425923E+03  0.13740561453E+03  0.10000000000E+01 0.  0.
<mgrwt>
<rscale>  0 0.12499628E+03</rscale>
<asrwt>0</asrwt>
<pdfrwt beam="2">  1        4 0.44058525E-01 0.12499628E+03</pdfrwt>
<pdfrwt beam="1">  1       -4 0.55409503E-02 0.12499628E+03</pdfrwt>
<totfact> 0.16387802E+03</totfact>
</mgrwt>
</event>
<event>
 5    1  0.1435323E-002  0.1249941E+03  0.7818608E-02  0.1235079E+00
          4   -1    0    0  501    0  0.00000000000E+00  0.00000000000E+00  0.15649626281E+02  0.15701073299E+02  0.12700000000E+01 0. -1.
         -4   -1    0    0    0  501 -0.00000000000E+00 -0.00000000000E+00 -0.24912022228E+03  0.24912345945E+03  0.12700000000E+01 0. -1.
         25    2    1    2    0    0  0.00000000000E+00  0.00000000000E+00 -0.23347059599E+03  0.26482453275E+03  0.12499405566E+03 0.  0.
    9000005    1    3    3    0    0 -0.38458846666E+02  0.31371383299E+02 -0.36290855109E+02  0.61492054296E+02  0.10000000000E+01 0.  0.
    9000005    1    3    3    0    0  0.38458846666E+02 -0.31371383299E+02 -0.19717974089E+03  0.20333247845E+03  0.10000000000E+01 0.  0.
<mgrwt>
<rscale>  0 0.12499406E+03</rscale>
<asrwt>0</asrwt>
<pdfrwt beam="1">  1        4 0.39192429E-02 0.12499406E+03</pdfrwt>
<pdfrwt beam="2">  1       -4 0.62286878E-01 0.12499406E+03</pdfrwt>
<totfact> 0.14019445E+03</totfact>
</mgrwt>
</event>
<event>
 5    1  0.1435323E-002  0.1250001E+03  0.7818608E-02  0.1235069E+00
          4   -1    0    0  501    0  0.00000000000E+00  0.00000000000E+00  0.25153216335E+03  0.25153536948E+03  0.12700000000E+01 0. -1.
         -4   -1    0    0    0  501 -0.00000000000E+00 -0.00000000000E+00 -0.15500561426E+02  0.15552501552E+02  0.12700000000E+01 0. -1.
         25    2    1    2    0    0  0.00000000000E+00  0.00000000000E+00  0.23603160193E+03  0.26708787104E+03  0.12500005498E+03 0.  0.
    9000005    1    3    3    0    0  0.49392839926E+02 -0.32338073121E+02  0.74234269224E+02  0.94853204144E+02  0.10000000000E+01 0.  0.
    9000005    1    3    3    0    0 -0.49392839926E+02  0.32338073121E+02  0.16179733270E+03  0.17223466689E+03  0.10000000000E+01 0.  0.
<mgrwt>
<rscale>  0 0.12500005E+03</rscale>
<asrwt>0</asrwt>
<pdfrwt beam="1">  1        4 0.62889932E-01 0.12500005E+03</pdfrwt>
<pdfrwt beam="2">  1       -4 0.38820337E-02 0.12500005E+03</pdfrwt>
<totfact> 0.13946328E+03</totfact>
</mgrwt>
</event>
<event>
 5    1  0.1435323E-002  0.1249993E+03  0.7818608E-02  0.1235070E+00
          4   -1    0    0  501    0  0.00000000000E+00  0.00000000000E+00  0.55331124303E+02  0.55345697364E+02  0.12700000000E+01 0.  1.
         -4   -1    0    0    0  501 -0.00000000000E+00 -0.00000000000E+00 -0.70567285733E+02  0.70578712908E+02  0.12700000000E+01 0.  1.
         25    2    1    2    0    0  0.00000000000E+00  0.00000000000E+00 -0.15236161430E+02  0.12592441027E+03  0.12499926595E+03 0.  0.
    9000005    1    3    3    0    0 -0.19935421403E+02 -0.10980740129E+02 -0.66248540004E+02  0.70056168415E+02  0.10000000000E+01 0.  0.
    9000005    1    3    3    0    0  0.19935421403E+02  0.10980740129E+02  0.51012378575E+02  0.55868241856E+02  0.10000000000E+01 0.  0.
<mgrwt>
<rscale>  0 0.12499927E+03</rscale>
<asrwt>0</asrwt>
<pdfrwt beam="1">  1        4 0.13836031E-01 0.12499927E+03</pdfrwt>
<pdfrwt beam="2">  1       -4 0.17645071E-01 0.12499927E+03</pdfrwt>
<totfact> 0.19785345E+03</totfact>
</mgrwt>
</event>
<event>
 5    1  0.1435323E-002  0.1250002E+03  0.7818608E-02  0.1235069E+00
         -4   -1    0    0    0  501 -0.00000000000E+00  0.00000000000E+00  0.51801598909E+02  0.51817164622E+02  0.12700000000E+01 0. -1.
          4   -1    0    0  501    0  0.00000000000E+00 -0.00000000000E+00 -0.75375862803E+02  0.75386561092E+02  0.12700000000E+01 0. -1.
         25    2    1    2    0    0  0.00000000000E+00  0.00000000000E+00 -0.23574263894E+02  0.12720372571E+03  0.12500016767E+03 0.  0.
    9000005    1    3    3    0    0 -0.50055669599E+02 -0.37318096506E+02 -0.14489140231E+02  0.64102617501E+02  0.10000000000E+01 0.  0.
    9000005    1    3    3    0    0  0.50055669599E+02  0.37318096506E+02 -0.90851236631E+01  0.63101108214E+02  0.10000000000E+01 0.  0.
<mgrwt>
<rscale>  0 0.12500017E+03</rscale>
<asrwt>0</asrwt>
<pdfrwt beam="2">  1        4 0.18847249E-01 0.12500017E+03</pdfrwt>
<pdfrwt beam="1">  1       -4 0.12953683E-01 0.12500017E+03</pdfrwt>
<totfact> 0.19715869E+03</totfact>
</mgrwt>
</event>
<event>
 5    1  0.1435323E-002  0.1249995E+03  0.7818608E-02  0.1235070E+00
         -4   -1    0    0    0  501 -0.00000000000E+00  0.00000000000E+00  0.49127559541E+01  0.50742557154E+01  0.12700000000E+01 0. -1.
          4   -1    0    0  501    0  0.00000000000E+00 -0.00000000000E+00 -0.78209822503E+03  0.78209925617E+03  0.12700000000E+01 0. -1.
         25    2    1    2    0    0  0.00000000000E+00  0.00000000000E+00 -0.77718546908E+03  0.78717351188E+03  0.12499953786E+03 0.  0.
    9000005    1    3    3    0    0 -0.62464403089E+02 -0.17234205717E+01 -0.39281380629E+03  0.39775426867E+03  0.10000000000E+01 0.  0.
    9000005    1    3    3    0    0  0.62464403089E+02  0.17234205717E+01 -0.38437166278E+03  0.38941924321E+03  0.10000000000E+01 0.  0.
<mgrwt>
<rscale>  0 0.12499954E+03</rscale>
<asrwt>0</asrwt>
<pdfrwt beam="2">  1        4 0.19554445E+00 0.12499954E+03</pdfrwt>
<pdfrwt beam="1">  1       -4 0.12485080E-02 0.12499954E+03</pdfrwt>
<totfact> 0.53623783E+02</totfact>
</mgrwt>
</event>
<event>
 5    1  0.1435323E-002  0.1250014E+03  0.7818608E-02  0.1235067E+00
          4   -1    0    0  501    0  0.00000000000E+00  0.00000000000E+00  0.20596579587E+02  0.20635697000E+02  0.12700000000E+01 0.  1.
         -4   -1    0    0    0  501 -0.00000000000E+00 -0.00000000000E+00 -0.18943840851E+03  0.18944266552E+03  0.12700000000E+01 0.  1.
         25    2    1    2    0    0  0.00000000000E+00  0.00000000000E+00 -0.16884182893E+03  0.21007836252E+03  0.12500142081E+03 0.  0.
    9000005    1    3    3    0    0 -0.48652894626E+02  0.69457269111E+01 -0.19548767232E+02  0.52900865570E+02  0.10000000000E+01 0.  0.
    9000005    1    3    3    0    0  0.48652894626E+02 -0.69457269111E+01 -0.14929306170E+03  0.15717749695E+03  0.10000000000E+01 0.  0.
<mgrwt>
<rscale>  0 0.12500142E+03</rscale>
<asrwt>0</asrwt>
<pdfrwt beam="1">  1        4 0.51545673E-02 0.12500142E+03</pdfrwt>
<pdfrwt beam="2">  1       -4 0.47365019E-01 0.12500142E+03</pdfrwt>
<totfact> 0.15925766E+03</totfact>
</mgrwt>
</event>
<event>
 5    1  0.1435323E-002  0.1250106E+03  0.7818608E-02  0.1235053E+00
         -4   -1    0    0    0  501 -0.00000000000E+00  0.00000000000E+00  0.17440654329E+03  0.17441116720E+03  0.12700000000E+01 0. -1.
          4   -1    0    0  501    0  0.00000000000E+00 -0.00000000000E+00 -0.22378242679E+02  0.22414250945E+02  0.12700000000E+01 0. -1.
         25    2    1    2    0    0  0.00000000000E+00  0.00000000000E+00  0.15202830061E+03  0.19682541814E+03  0.12501056371E+03 0.  0.
    9000005    1    3    3    0    0 -0.19429254380E+02  0.31925471268E+02  0.15488204688E+03  0.15933041169E+03  0.10000000000E+01 0.  0.
    9000005    1    3    3    0    0  0.19429254380E+02 -0.31925471268E+02 -0.28537462695E+01  0.37495006457E+02  0.10000000000E+01 0.  0.
<mgrwt>
<rscale>  0 0.12501056E+03</rscale>
<asrwt>0</asrwt>
<pdfrwt beam="2">  1        4 0.55996398E-02 0.12501056E+03</pdfrwt>
<pdfrwt beam="1">  1       -4 0.43606714E-01 0.12501056E+03</pdfrwt>
<totfact> 0.16445931E+03</totfact>
</mgrwt>
</event>
<event>
 5    1  0.1435323E-002  0.1250106E+03  0.7818608E-02  0.1235053E+00
          4   -1    0    0  501    0  0.00000000000E+00  0.00000000000E+00  0.22552432925E+02  0.22588163511E+02  0.12700000000E+01 0.  1.
         -4   -1    0    0    0  501 -0.00000000000E+00 -0.00000000000E+00 -0.17306175891E+03  0.17306641874E+03  0.12700000000E+01 0.  1.
         25    2    1    2    0    0  0.00000000000E+00  0.00000000000E+00 -0.15050932598E+03  0.19565458225E+03  0.12501063294E+03 0.  0.
    9000005    1    3    3    0    0 -0.37096297856E+02 -0.47559309047E+01  0.31125006928E+01  0.37542533931E+02  0.10000000000E+01 0.  0.
    9000005    1    3    3    0    0  0.37096297856E+02  0.47559309047E+01 -0.15362182667E+03  0.15811204832E+03  0.10000000000E+01 0.  0.
<mgrwt>
<rscale>  0 0.12501063E+03</rscale>
<asrwt>0</asrwt>
<pdfrwt beam="1">  1        4 0.56431575E-02 0.12501063E+03</pdfrwt>
<pdfrwt beam="2">  1       -4 0.43270485E-01 0.12501063E+03</pdfrwt>
<totfact> 0.16493473E+03</totfact>
</mgrwt>
</event>
<event>
 5    1  0.1435323E-002  0.1249974E+03  0.7818608E-02  0.1235073E+00
          4   -1    0    0  501    0  0.00000000000E+00  0.00000000000E+00  0.50399286358E+02  0.50415285037E+02  0.12700000000E+01 0. -1.
         -4   -1    0    0    0  501 -0.00000000000E+00 -0.00000000000E+00 -0.77469388827E+02  0.77479798046E+02  0.12700000000E+01 0. -1.
         25    2    1    2    0    0  0.00000000000E+00  0.00000000000E+00 -0.27070102469E+02  0.12789508308E+03  0.12499744729E+03 0.  0.
    9000005    1    3    3    0    0 -0.55042403907E+02 -0.29579942273E+02 -0.12847731705E+02  0.63802064408E+02  0.10000000000E+01 0.  0.
    9000005    1    3    3    0    0  0.55042403907E+02  0.29579942273E+02 -0.14222370764E+02  0.64093018675E+02  0.10000000000E+01 0.  0.
<mgrwt>
<rscale>  0 0.12499745E+03</rscale>
<asrwt>0</asrwt>
<pdfrwt beam="1">  1        4 0.12603123E-01 0.12499745E+03</pdfrwt>
<pdfrwt beam="2">  1       -4 0.19370648E-01 0.12499745E+03</pdfrwt>
<totfact> 0.19679417E+03</totfact>
</mgrwt>
</event>
<event>
 5    1  0.1435323E-002  0.1250272E+03  0.7818608E-02  0.1235027E+00
          4   -1    0    0  501    0  0.00000000000E+00  0.00000000000E+00  0.18183337998E+02  0.18227635084E+02  0.12700000000E+01 0. -1.
         -4   -1    0    0    0  501 -0.00000000000E+00 -0.00000000000E+00 -0.21461155815E+03  0.21461531584E+03  0.12700000000E+01 0. -1.
         25    2    1    2    0    0  0.00000000000E+00  0.00000000000E+00 -0.19642822015E+03  0.23284295092E+03  0.12502717353E+03 0.  0.
    9000005    1    3    3    0    0  0.24299586597E+02  0.31862011307E+02 -0.88744208549E+01  0.41053782029E+02  0.10000000000E+01 0.  0.
    9000005    1    3    3    0    0 -0.24299586597E+02 -0.31862011307E+02 -0.18755379930E+03  0.19178916889E+03  0.10000000000E+01 0.  0.
<mgrwt>
<rscale>  0 0.12502717E+03</rscale>
<asrwt>0</asrwt>
<pdfrwt beam="1">  1        4 0.45518420E-02 0.12502717E+03</pdfrwt>
<pdfrwt beam="2">  1       -4 0.53658889E-01 0.12502717E+03</pdfrwt>
<totfact> 0.15076814E+03</totfact>
</mgrwt>
</event>
<event>
 5    1  0.1435323E-002  0.1249983E+03  0.7818608E-02  0.1235072E+00
         -4   -1    0    0    0  501 -0.00000000000E+00  0.00000000000E+00  0.58171866319E+02  0.58185727898E+02  0.12700000000E+01 0.  1.
          4   -1    0    0  501    0  0.00000000000E+00 -0.00000000000E+00 -0.67120504201E+02  0.67132518083E+02  0.12700000000E+01 0.  1.
         25    2    1    2    0    0  0.00000000000E+00  0.00000000000E+00 -0.89486378814E+01  0.12531824598E+03  0.12499833861E+03 0.  0.
    9000005    1    3    3    0    0  0.56419339631E+02  0.26680435488E+02 -0.12788993870E+01  0.62430946700E+02  0.10000000000E+01 0.  0.
    9000005    1    3    3    0    0 -0.56419339631E+02 -0.26680435488E+02 -0.76697384943E+01  0.62887299281E+02  0.10000000000E+01 0.  0.
<mgrwt>
<rscale>  0 0.12499834E+03</rscale>
<asrwt>0</asrwt>
<pdfrwt beam="2">  1        4 0.16783360E-01 0.12499834E+03</pdfrwt>
<pdfrwt beam="1">  1       -4 0.14546201E-01 0.12499834E+03</pdfrwt>
<totfact> 0.19818576E+03</totfact>
</mgrwt>
</event>
<event>
 5    1  0.1435323E-002  0.1249984E+03  0.7818608E-02  0.1235072E+00
          4   -1    0    0  501    0  0.00000000000E+00  0.00000000000E+00  0.32373781211E+02  0.32398682225E+02  0.12700000000E+01 0.  1.
         -4   -1    0    0    0  501 -0.00000000000E+00 -0.00000000000E+00 -0.12058321855E+03  0.12058990628E+03  0.12700000000E+01 0.  1.
         25    2    1    2    0    0  0.00000000000E+00  0.00000000000E+00 -0.88209437341E+02  0.15298858850E+03  0.12499841350E+03 0.  0.
    9000005    1    3    3    0    0  0.53216553042E+02  0.51648237351E+01 -0.83697748951E+02  0.99322656536E+02  0.10000000000E+01 0.  0.
    9000005    1    3    3    0    0 -0.53216553042E+02 -0.51648237351E+01 -0.45116883901E+01  0.53665931968E+02  0.10000000000E+01 0.  0.
<mgrwt>
<rscale>  0 0.12499841E+03</rscale>
<asrwt>0</asrwt>
<pdfrwt beam="1">  1        4 0.80973942E-02 0.12499841E+03</pdfrwt>
<pdfrwt beam="2">  1       -4 0.30149752E-01 0.12499841E+03</pdfrwt>
<totfact> 0.18393481E+03</totfact>
</mgrwt>
</event>
<event>
 5    1  0.1435323E-002  0.1250055E+03  0.7818608E-02  0.1235061E+00
         -4   -1    0    0    0  501 -0.00000000000E+00  0.00000000000E+00  0.44944078437E+02  0.44962018266E+02  0.12700000000E+01 0. -1.
          4   -1    0    0  501    0  0.00000000000E+00 -0.00000000000E+00 -0.86881308380E+02  0.86890590088E+02  0.12700000000E+01 0. -1.
         25    2    1    2    0    0  0.00000000000E+00  0.00000000000E+00 -0.41937229944E+02  0.13185260835E+03  0.12500551618E+03 0.  0.
    9000005    1    3    3    0    0 -0.89379776382E+01  0.33718303139E+02 -0.75662333784E+02  0.83322266919E+02  0.10000000000E+01 0.  0.
    9000005    1    3    3    0    0  0.89379776382E+01 -0.33718303139E+02  0.33725103840E+02  0.48530341435E+02  0.10000000000E+01 0.  0.
<mgrwt>
<rscale>  0 0.12500552E+03</rscale>
<asrwt>0</asrwt>
<pdfrwt beam="2">  1        4 0.21723730E-01 0.12500552E+03</pdfrwt>
<pdfrwt beam="1">  1       -4 0.11239422E-01 0.12500552E+03</pdfrwt>
<totfact> 0.19462790E+03</totfact>
</mgrwt>
</event>
<event>
 5    1  0.1435323E-002  0.1249995E+03  0.7818608E-02  0.1235070E+00
         -4   -1    0    0    0  501 -0.00000000000E+00  0.00000000000E+00  0.19489881616E+03  0.19490295391E+03  0.12700000000E+01 0.  1.
          4   -1    0    0  501    0  0.00000000000E+00 -0.00000000000E+00 -0.20017808505E+02  0.20058054675E+02  0.12700000000E+01 0.  1.
         25    2    1    2    0    0  0.00000000000E+00  0.00000000000E+00  0.17488100766E+03  0.21496100858E+03  0.12499947348E+03 0.  0.
    9000005    1    3    3    0    0  0.22228432732E+02 -0.29045703137E+02  0.30333702001E+00  0.36590273377E+02  0.10000000000E+01 0.  0.
    9000005    1    3    3    0    0 -0.22228432732E+02  0.29045703137E+02  0.17457767064E+03  0.17837073521E+03  0.10000000000E+01 0.  0.
<mgrwt>
<rscale>  0 0.12499947E+03</rscale>
<asrwt>0</asrwt>
<pdfrwt beam="2">  1        4 0.50100001E-02 0.12499947E+03</pdfrwt>
<pdfrwt beam="1">  1       -4 0.48730252E-01 0.12499947E+03</pdfrwt>
<totfact> 0.15740196E+03</totfact>
</mgrwt>
</event>
<event>
 5    1  0.1435323E-002  0.1250013E+03  0.7818608E-02  0.1235067E+00
          4   -1    0    0  501    0  0.00000000000E+00  0.00000000000E+00  0.13599800688E+03  0.13600393662E+03  0.12700000000E+01 0. -1.
         -4   -1    0    0    0  501 -0.00000000000E+00 -0.00000000000E+00 -0.28702864781E+02  0.28730947541E+02  0.12700000000E+01 0. -1.
         25    2    1    2    0    0  0.00000000000E+00  0.00000000000E+00  0.10729514210E+03  0.16473488416E+03  0.12500133816E+03 0.  0.
    9000005    1    3    3    0    0  0.58458713209E+02  0.10368122095E+02  0.79351496948E+02  0.99108925802E+02  0.10000000000E+01 0.  0.
    9000005    1    3    3    0    0 -0.58458713209E+02 -0.10368122095E+02  0.27943645153E+02  0.65625958357E+02  0.10000000000E+01 0.  0.
<mgrwt>
<rscale>  0 0.12500134E+03</rscale>
<asrwt>0</asrwt>
<pdfrwt beam="1">  1        4 0.34003752E-01 0.12500134E+03</pdfrwt>
<pdfrwt beam="2">  1       -4 0.71799679E-02 0.12500134E+03</pdfrwt>
<totfact> 0.17836620E+03</totfact>
</mgrwt>
</event>
<event>
 5    1  0.1435323E-002  0.1250244E+03  0.7818608E-02  0.1235031E+00
          4   -1    0    0  501    0  0.00000000000E+00  0.00000000000E+00  0.65719172157E+01  0.66935040069E+01  0.12700000000E+01 0.  1.
         -4   -1    0    0    0  501 -0.00000000000E+00 -0.00000000000E+00 -0.58904440849E+03  0.58904577757E+03  0.12700000000E+01 0.  1.
         25    2    1    2    0    0  0.00000000000E+00  0.00000000000E+00 -0.58247249127E+03  0.59573928157E+03  0.12502435172E+03 0.  0.
    9000005    1    3    3    0    0 -0.44935962453E+02 -0.27372628530E+02 -0.45199861138E+03  0.45505191594E+03  0.10000000000E+01 0.  0.
    9000005    1    3    3    0    0  0.44935962453E+02  0.27372628530E+02 -0.13047387989E+03  0.14068736563E+03  0.10000000000E+01 0.  0.
<mgrwt>
<rscale>  0 0.12502435E+03</rscale>
<asrwt>0</asrwt>
<pdfrwt beam="1">  1        4 0.16583508E-02 0.12502435E+03</pdfrwt>
<pdfrwt beam="2">  1       -4 0.14727629E+00 0.12502435E+03</pdfrwt>
<totfact> 0.74000902E+02</totfact>
</mgrwt>
</event>
<event>
 5    1  0.1435323E-002  0.1249871E+03  0.7818608E-02  0.1235090E+00
          4   -1    0    0  501    0  0.00000000000E+00  0.00000000000E+00  0.35945388785E+03  0.35945613138E+03  0.12700000000E+01 0.  1.
         -4   -1    0    0    0  501 -0.00000000000E+00 -0.00000000000E+00 -0.10825532371E+02  0.10899772984E+02  0.12700000000E+01 0.  1.
         25    2    1    2    0    0  0.00000000000E+00  0.00000000000E+00  0.34862835548E+03  0.37035590437E+03  0.12498706196E+03 0.  0.
    9000005    1    3    3    0    0  0.29663778094E+02 -0.35533765781E+02  0.29869088921E+03  0.30225789575E+03  0.10000000000E+01 0.  0.
    9000005    1    3    3    0    0 -0.29663778094E+02  0.35533765781E+02  0.49937466263E+02  0.68098008621E+02  0.10000000000E+01 0.  0.
<mgrwt>
<rscale>  0 0.12498706E+03</rscale>
<asrwt>0</asrwt>
<pdfrwt beam="1">  1        4 0.89873031E-01 0.12498706E+03</pdfrwt>
<pdfrwt beam="2">  1       -4 0.27159437E-02 0.12498706E+03</pdfrwt>
<totfact> 0.11209750E+03</totfact>
</mgrwt>
</event>
<event>
 5    1  0.1435323E-002  0.1250015E+03  0.7818608E-02  0.1235067E+00
         -4   -1    0    0    0  501 -0.00000000000E+00  0.00000000000E+00  0.25630986233E+02  0.25662430814E+02  0.12700000000E+01 0.  1.
          4   -1    0    0  501    0  0.00000000000E+00 -0.00000000000E+00 -0.15227951815E+03  0.15228481391E+03  0.12700000000E+01 0.  1.
         25    2    1    2    0    0  0.00000000000E+00  0.00000000000E+00 -0.12664853192E+03  0.17794724472E+03  0.12500148507E+03 0.  0.
    9000005    1    3    3    0    0  0.44105402854E+02  0.42799180226E+02 -0.79448030670E+02  0.10044922083E+03  0.10000000000E+01 0.  0.
    9000005    1    3    3    0    0 -0.44105402854E+02 -0.42799180226E+02 -0.47200501247E+02  0.77498023891E+02  0.10000000000E+01 0.  0.
<mgrwt>
<rscale>  0 0.12500149E+03</rscale>
<asrwt>0</asrwt>
<pdfrwt beam="2">  1        4 0.38074470E-01 0.12500149E+03</pdfrwt>
<pdfrwt beam="1">  1       -4 0.64123395E-02 0.12500149E+03</pdfrwt>
<totfact> 0.17243844E+03</totfact>
</mgrwt>
</event>
<event>
 5    1  0.1435323E-002  0.1249964E+03  0.7818608E-02  0.1235075E+00
         -4   -1    0    0    0  501 -0.00000000000E+00  0.00000000000E+00  0.13991172462E+03  0.13991748849E+03  0.12700000000E+01 0. -1.
          4   -1    0    0  501    0  0.00000000000E+00 -0.00000000000E+00 -0.27896986776E+02  0.27925879954E+02  0.12700000000E+01 0. -1.
         25    2    1    2    0    0  0.00000000000E+00  0.00000000000E+00  0.11201473784E+03  0.16784336844E+03  0.12499637930E+03 0.  0.
    9000005    1    3    3    0    0 -0.10945532976E+02 -0.61104836894E+02  0.65635988499E+02  0.90347599692E+02  0.10000000000E+01 0.  0.
    9000005    1    3    3    0    0  0.10945532976E+02  0.61104836894E+02  0.46378749343E+02  0.77495768752E+02  0.10000000000E+01 0.  0.
<mgrwt>
<rscale>  0 0.12499638E+03</rscale>
<asrwt>0</asrwt>
<pdfrwt beam="2">  1        4 0.69785790E-02 0.12499638E+03</pdfrwt>
<pdfrwt beam="1">  1       -4 0.34982262E-01 0.12499638E+03</pdfrwt>
<totfact> 0.17696249E+03</totfact>
</mgrwt>
</event>
<event>
 5    1  0.1435323E-002  0.1249963E+03  0.7818608E-02  0.1235075E+00
         -4   -1    0    0    0  501 -0.00000000000E+00  0.00000000000E+00  0.25170057762E+02  0.25202077449E+02  0.12700000000E+01 0. -1.
          4   -1    0    0  501    0  0.00000000000E+00 -0.00000000000E+00 -0.15505179847E+03  0.15505699955E+03  0.12700000000E+01 0. -1.
         25    2    1    2    0    0  0.00000000000E+00  0.00000000000E+00 -0.12988174071E+03  0.18025907700E+03  0.12499627303E+03 0.  0.
    9000005    1    3    3    0    0  0.33694062570E+02 -0.52285891498E+02 -0.73583074142E+02  0.96356489675E+02  0.10000000000E+01 0.  0.
    9000005    1    3    3    0    0 -0.33694062570E+02  0.52285891498E+02 -0.56298666566E+02  0.83902587322E+02  0.10000000000E+01 0.  0.
<mgrwt>
<rscale>  0 0.12499627E+03</rscale>
<asrwt>0</asrwt>
<pdfrwt beam="2">  1        4 0.38767600E-01 0.12499627E+03</pdfrwt>
<pdfrwt beam="1">  1       -4 0.62971675E-02 0.12499627E+03</pdfrwt>
<totfact> 0.17145487E+03</totfact>
</mgrwt>
</event>
<event>
 4    1  0.1435323E-002  0.1250821E+03  0.7818608E-02  0.1234941E+00
         -4   -1    0    0    0  501 -0.00000000000E+00  0.00000000000E+00  0.56018394534E+02  0.56032788849E+02  0.12700000000E+01 0. -1.
          4   -1    0    0  501    0  0.00000000000E+00 -0.00000000000E+00 -0.69794094468E+02  0.69805648215E+02  0.12700000000E+01 0. -1.
    9000005    1    1    2    0    0  0.40740092585E+01  0.56510908372E+02 -0.33511138627E+02  0.65833705110E+02  0.10000000000E+01 0.  0.
    9000005    1    1    2    0    0 -0.40740092585E+01 -0.56510908372E+02  0.19735438693E+02  0.60004731953E+02  0.10000000000E+01 0.  0.
<mgrwt>
<rscale>  0 0.12508214E+03</rscale>
<asrwt>0</asrwt>
<pdfrwt beam="2">  1        4 0.17451767E-01 0.12508214E+03</pdfrwt>
<pdfrwt beam="1">  1       -4 0.14007842E-01 0.12508214E+03</pdfrwt>
<totfact> 0.19751673E+03</totfact>
</mgrwt>
</event>
<event>
 5    1  0.1435323E-002  0.1249986E+03  0.7818608E-02  0.1235072E+00
         -4   -1    0    0    0  501 -0.00000000000E+00  0.00000000000E+00  0.33896196731E+03  0.33896434647E+03  0.12700000000E+01 0.  1.
          4   -1    0    0  501    0  0.00000000000E+00 -0.00000000000E+00 -0.11486471158E+02  0.11556466573E+02  0.12700000000E+01 0.  1.
         25    2    1    2    0    0  0.00000000000E+00  0.00000000000E+00  0.32747549615E+03  0.35052081305E+03  0.12499855920E+03 0.  0.
    9000005    1    3    3    0    0  0.53139259557E+02 -0.16059415376E+02  0.83267783990E+02  0.10008101508E+03  0.10000000000E+01 0.  0.
    9000005    1    3    3    0    0 -0.53139259557E+02  0.16059415376E+02  0.24420771216E+03  0.25043979797E+03  0.10000000000E+01 0.  0.
<mgrwt>
<rscale>  0 0.12499856E+03</rscale>
<asrwt>0</asrwt>
<pdfrwt beam="2">  1        4 0.28806648E-02 0.12499856E+03</pdfrwt>
<pdfrwt beam="1">  1       -4 0.84749534E-01 0.12499856E+03</pdfrwt>
<totfact> 0.11665292E+03</totfact>
</mgrwt>
</event>
<event>
 5    1  0.1435323E-002  0.1249982E+03  0.7818608E-02  0.1235072E+00
          4   -1    0    0  501    0  0.00000000000E+00  0.00000000000E+00  0.51098186047E+02  0.51113965971E+02  0.12700000000E+01 0. -1.
         -4   -1    0    0    0  501 -0.00000000000E+00 -0.00000000000E+00 -0.76410904132E+02  0.76421457526E+02  0.12700000000E+01 0. -1.
         25    2    1    2    0    0  0.00000000000E+00  0.00000000000E+00 -0.25312718085E+02  0.12753542350E+03  0.12499820219E+03 0.  0.
    9000005    1    3    3    0    0  0.27463204146E+02  0.48073528469E+02 -0.42224693992E+02  0.69636315986E+02  0.10000000000E+01 0.  0.
    9000005    1    3    3    0    0 -0.27463204146E+02 -0.48073528469E+02  0.16911975907E+02  0.57899107511E+02  0.10000000000E+01 0.  0.
<mgrwt>
<rscale>  0 0.12499820E+03</rscale>
<asrwt>0</asrwt>
<pdfrwt beam="1">  1        4 0.12777838E-01 0.12499820E+03</pdfrwt>
<pdfrwt beam="2">  1       -4 0.19106018E-01 0.12499820E+03</pdfrwt>
<totfact> 0.19698677E+03</totfact>
</mgrwt>
</event>
<event>
 5    1  0.1435323E-002  0.1249967E+03  0.7818608E-02  0.1235074E+00
          4   -1    0    0  501    0  0.00000000000E+00  0.00000000000E+00  0.50893080838E+01  0.52453747981E+01  0.12700000000E+01 0. -1.
         -4   -1    0    0    0  501 -0.00000000000E+00 -0.00000000000E+00 -0.75575313823E+03  0.75575420531E+03  0.12700000000E+01 0. -1.
         25    2    1    2    0    0  0.00000000000E+00  0.00000000000E+00 -0.75066383014E+03  0.76099958011E+03  0.12499670010E+03 0.  0.
    9000005    1    3    3    0    0  0.37981055988E+02  0.42264769541E+02 -0.21701964026E+03  0.22433768212E+03  0.10000000000E+01 0.  0.
    9000005    1    3    3    0    0 -0.37981055988E+02 -0.42264769541E+02 -0.53364418988E+03  0.53666189799E+03  0.10000000000E+01 0.  0.
<mgrwt>
<rscale>  0 0.12499670E+03</rscale>
<asrwt>0</asrwt>
<pdfrwt beam="1">  1        4 0.12919713E-02 0.12499670E+03</pdfrwt>
<pdfrwt beam="2">  1       -4 0.18895755E+00 0.12499670E+03</pdfrwt>
<totfact> 0.56034030E+02</totfact>
</mgrwt>
</event>
<event>
 5    1  0.1435323E-002  0.1249983E+03  0.7818608E-02  0.1235072E+00
          4   -1    0    0  501    0  0.00000000000E+00  0.00000000000E+00  0.52048542552E+02  0.52064034437E+02  0.12700000000E+01 0. -1.
         -4   -1    0    0    0  501 -0.00000000000E+00 -0.00000000000E+00 -0.75016018219E+02  0.75026767819E+02  0.12700000000E+01 0. -1.
         25    2    1    2    0    0  0.00000000000E+00  0.00000000000E+00 -0.22967475666E+02  0.12709080226E+03  0.12499826831E+03 0.  0.
    9000005    1    3    3    0    0 -0.26600495732E+02  0.21637699541E+02 -0.64601645787E+02  0.73144713090E+02  0.10000000000E+01 0.  0.
    9000005    1    3    3    0    0  0.26600495732E+02 -0.21637699541E+02  0.41634170121E+02  0.53946089166E+02  0.10000000000E+01 0.  0.
<mgrwt>
<rscale>  0 0.12499827E+03</rscale>
<asrwt>0</asrwt>
<pdfrwt beam="1">  1        4 0.13015416E-01 0.12499827E+03</pdfrwt>
<pdfrwt beam="2">  1       -4 0.18757285E-01 0.12499827E+03</pdfrwt>
<totfact> 0.19722876E+03</totfact>
</mgrwt>
</event>
<event>
 5    1  0.1435323E-002  0.1249927E+03  0.7818608E-02  0.1235081E+00
          4   -1    0    0  501    0  0.00000000000E+00  0.00000000000E+00  0.48832311963E+03  0.48832477110E+03  0.12700000000E+01 0.  1.
         -4   -1    0    0    0  501 -0.00000000000E+00 -0.00000000000E+00 -0.79462859392E+01  0.80471336653E+01  0.12700000000E+01 0.  1.
         25    2    1    2    0    0  0.00000000000E+00  0.00000000000E+00  0.48037683369E+03  0.49637190476E+03  0.12499266174E+03 0.  0.
    9000005    1    3    3    0    0 -0.57498048160E+02  0.22441364555E+02  0.20145111890E+03  0.21069692378E+03  0.10000000000E+01 0.  0.
    9000005    1    3    3    0    0  0.57498048160E+02 -0.22441364555E+02  0.27892571480E+03  0.28567498098E+03  0.10000000000E+01 0.  0.
<mgrwt>
<rscale>  0 0.12499266E+03</rscale>
<asrwt>0</asrwt>
<pdfrwt beam="1">  1        4 0.12209359E+00 0.12499266E+03</pdfrwt>
<pdfrwt beam="2">  1       -4 0.19993838E-02 0.12499266E+03</pdfrwt>
<totfact> 0.88201526E+02</totfact>
</mgrwt>
</event>
<event>
 5    1  0.1435323E-002  0.1250035E+03  0.7818608E-02  0.1235064E+00
          4   -1    0    0  501    0  0.00000000000E+00  0.00000000000E+00  0.79056710977E+02  0.79066911224E+02  0.12700000000E+01 0.  1.
         -4   -1    0    0    0  501 -0.00000000000E+00 -0.00000000000E+00 -0.49391962397E+02  0.49408287255E+02  0.12700000000E+01 0.  1.
         25    2    1    2    0    0  0.00000000000E+00  0.00000000000E+00  0.29664748580E+02  0.12847519848E+03  0.12500351721E+03 0.  0.
    9000005    1    3    3    0    0  0.50462053162E+02 -0.34870289580E+02  0.27127642577E+02  0.67076559964E+02  0.10000000000E+01 0.  0.
    9000005    1    3    3    0    0 -0.50462053162E+02  0.34870289580E+02  0.25371060027E+01  0.61398638516E+02  0.10000000000E+01 0.  0.
<mgrwt>
<rscale>  0 0.12500352E+03</rscale>
<asrwt>0</asrwt>
<pdfrwt beam="1">  1        4 0.19767493E-01 0.12500352E+03</pdfrwt>
<pdfrwt beam="2">  1       -4 0.12351306E-01 0.12500352E+03</pdfrwt>
<totfact> 0.19645105E+03</totfact>
</mgrwt>
</event>
<event>
 5    1  0.1435323E-002  0.1249998E+03  0.7818608E-02  0.1235070E+00
         -4   -1    0    0    0  501 -0.00000000000E+00  0.00000000000E+00  0.11749960695E+03  0.11750647018E+03  0.12700000000E+01 0.  1.
          4   -1    0    0  501    0  0.00000000000E+00 -0.00000000000E+00 -0.33224707371E+02  0.33248971111E+02  0.12700000000E+01 0.  1.
         25    2    1    2    0    0  0.00000000000E+00  0.00000000000E+00  0.84274899580E+02  0.15075544129E+03  0.12499977752E+03 0.  0.
    9000005    1    3    3    0    0  0.46917393536E+02  0.38478845491E+02  0.60162597428E+02  0.85454089989E+02  0.10000000000E+01 0.  0.
    9000005    1    3    3    0    0 -0.46917393536E+02 -0.38478845491E+02  0.24112302152E+02  0.65301351300E+02  0.10000000000E+01 0.  0.
<mgrwt>
<rscale>  0 0.12499978E+03</rscale>
<asrwt>0</asrwt>
<pdfrwt beam="2">  1        4 0.83100678E-02 0.12499978E+03</pdfrwt>
<pdfrwt beam="1">  1       -4 0.29378792E-01 0.12499978E+03</pdfrwt>
<totfact> 0.18501794E+03</totfact>
</mgrwt>
</event>
<event>
 4    1  0.1435323E-002  0.1250856E+03  0.7818608E-02  0.1234936E+00
         -4   -1    0    0    0  501 -0.00000000000E+00  0.00000000000E+00  0.27990356536E+02  0.28019153432E+02  0.12700000000E+01 0.  1.
          4   -1    0    0  501    0  0.00000000000E+00 -0.00000000000E+00 -0.13964473298E+03  0.13965050788E+03  0.12700000000E+01 0.  1.
    9000005    1    1    2    0    0  0.23013490226E+02  0.18701461255E+02 -0.12962731556E+03  0.13297972148E+03  0.10000000000E+01 0.  0.
    9000005    1    1    2    0    0 -0.23013490226E+02 -0.18701461255E+02  0.17972939108E+02  0.34689939833E+02  0.10000000000E+01 0.  0.
<mgrwt>
<rscale>  0 0.12508563E+03</rscale>
<asrwt>0</asrwt>
<pdfrwt beam="2">  1        4 0.34915503E-01 0.12508563E+03</pdfrwt>
<pdfrwt beam="1">  1       -4 0.70019110E-02 0.12508563E+03</pdfrwt>
<totfact> 0.17667516E+03</totfact>
</mgrwt>
</event>
<event>
 5    1  0.1435323E-002  0.1249932E+03  0.7818608E-02  0.1235080E+00
          4   -1    0    0  501    0  0.00000000000E+00  0.00000000000E+00  0.21105633854E+03  0.21106015953E+03  0.12700000000E+01 0.  1.
         -4   -1    0    0    0  501 -0.00000000000E+00 -0.00000000000E+00 -0.18480289906E+02  0.18523876890E+02  0.12700000000E+01 0.  1.
         25    2    1    2    0    0  0.00000000000E+00  0.00000000000E+00  0.19257604864E+03  0.22958403642E+03  0.12499318089E+03 0.  0.
    9000005    1    3    3    0    0 -0.36856976684E+02 -0.23485355846E+02  0.17832464911E+03  0.18360468173E+03  0.10000000000E+01 0.  0.
    9000005    1    3    3    0    0  0.36856976684E+02  0.23485355846E+02  0.14251399523E+02  0.45979354692E+02  0.10000000000E+01 0.  0.
<mgrwt>
<rscale>  0 0.12499318E+03</rscale>
<asrwt>0</asrwt>
<pdfrwt beam="1">  1        4 0.52770010E-01 0.12499318E+03</pdfrwt>
<pdfrwt beam="2">  1       -4 0.46259985E-02 0.12499318E+03</pdfrwt>
<totfact> 0.15204576E+03</totfact>
</mgrwt>
</event>
<event>
 5    1  0.1435323E-002  0.1250007E+03  0.7818608E-02  0.1235068E+00
         -4   -1    0    0    0  501 -0.00000000000E+00  0.00000000000E+00  0.74864378141E+02  0.74875149512E+02  0.12700000000E+01 0.  1.
          4   -1    0    0  501    0  0.00000000000E+00 -0.00000000000E+00 -0.52155992894E+02  0.52171452872E+02  0.12700000000E+01 0.  1.
         25    2    1    2    0    0  0.00000000000E+00  0.00000000000E+00  0.22708385247E+02  0.12704660238E+03  0.12500067367E+03 0.  0.
    9000005    1    3    3    0    0 -0.26687392850E+01 -0.44022859371E+02 -0.33644118878E+02  0.55480276240E+02  0.10000000000E+01 0.  0.
    9000005    1    3    3    0    0  0.26687392850E+01  0.44022859371E+02  0.56352504125E+02  0.71566326144E+02  0.10000000000E+01 0.  0.
<mgrwt>
<rscale>  0 0.12500067E+03</rscale>
<asrwt>0</asrwt>
<pdfrwt beam="2">  1        4 0.13042277E-01 0.12500067E+03</pdfrwt>
<pdfrwt beam="1">  1       -4 0.18719373E-01 0.12500067E+03</pdfrwt>
<totfact> 0.19724158E+03</totfact>
</mgrwt>
</event>
<event>
 5    1  0.1435323E-002  0.1250002E+03  0.7818608E-02  0.1235069E+00
         -4   -1    0    0    0  501 -0.00000000000E+00  0.00000000000E+00  0.10433110252E+02  0.10510123193E+02  0.12700000000E+01 0. -1.
          4   -1    0    0  501    0  0.00000000000E+00 -0.00000000000E+00 -0.37295542951E+03  0.37295759182E+03  0.12700000000E+01 0. -1.
         25    2    1    2    0    0  0.00000000000E+00  0.00000000000E+00 -0.36252231925E+03  0.38346771501E+03  0.12500022601E+03 0.  0.
    9000005    1    3    3    0    0 -0.22020962989E+02  0.41277784307E+02 -0.30835898491E+03  0.31188947058E+03  0.10000000000E+01 0.  0.
    9000005    1    3    3    0    0  0.22020962989E+02 -0.41277784307E+02 -0.54163334346E+02  0.71578244431E+02  0.10000000000E+01 0.  0.
<mgrwt>
<rscale>  0 0.12500023E+03</rscale>
<asrwt>0</asrwt>
<pdfrwt beam="2">  1        4 0.93248710E-01 0.12500023E+03</pdfrwt>
<pdfrwt beam="1">  1       -4 0.26181757E-02 0.12500023E+03</pdfrwt>
<totfact> 0.10917801E+03</totfact>
</mgrwt>
</event>
<event>
 5    1  0.1435323E-002  0.1249974E+03  0.7818608E-02  0.1235073E+00
          4   -1    0    0  501    0  0.00000000000E+00  0.00000000000E+00  0.66848510405E+02  0.66860573160E+02  0.12700000000E+01 0. -1.
         -4   -1    0    0    0  501 -0.00000000000E+00 -0.00000000000E+00 -0.58407735582E+02  0.58421541197E+02  0.12700000000E+01 0. -1.
         25    2    1    2    0    0  0.00000000000E+00  0.00000000000E+00  0.84407748228E+01  0.12528211436E+03  0.12499744597E+03 0.  0.
    9000005    1    3    3    0    0 -0.24162334759E+02 -0.54996721055E+02 -0.13041862260E+02  0.61478027937E+02  0.10000000000E+01 0.  0.
    9000005    1    3    3    0    0  0.24162334759E+02  0.54996721055E+02  0.21482637083E+02  0.63804086420E+02  0.10000000000E+01 0.  0.
<mgrwt>
<rscale>  0 0.12499745E+03</rscale>
<asrwt>0</asrwt>
<pdfrwt beam="1">  1        4 0.16715361E-01 0.12499745E+03</pdfrwt>
<pdfrwt beam="2">  1       -4 0.14605167E-01 0.12499745E+03</pdfrwt>
<totfact> 0.19820948E+03</totfact>
</mgrwt>
</event>
<event>
 5    1  0.1435323E-002  0.1250016E+03  0.7818608E-02  0.1235067E+00
          4   -1    0    0  501    0  0.00000000000E+00  0.00000000000E+00  0.25178150175E+03  0.25178470471E+03  0.12700000000E+01 0.  1.
         -4   -1    0    0    0  501 -0.00000000000E+00 -0.00000000000E+00 -0.15485542639E+02  0.15537532971E+02  0.12700000000E+01 0.  1.
         25    2    1    2    0    0  0.00000000000E+00  0.00000000000E+00  0.23629595911E+03  0.26732223768E+03  0.12500159385E+03 0.  0.
    9000005    1    3    3    0    0  0.11613965917E+02 -0.49025838312E+02  0.19721458363E+03  0.20355099858E+03  0.10000000000E+01 0.  0.
    9000005    1    3    3    0    0 -0.11613965917E+02  0.49025838312E+02  0.39081375482E+02  0.63771239098E+02  0.10000000000E+01 0.  0.
<mgrwt>
<rscale>  0 0.12500159E+03</rscale>
<asrwt>0</asrwt>
<pdfrwt beam="1">  1        4 0.62952272E-01 0.12500159E+03</pdfrwt>
<pdfrwt beam="2">  1       -4 0.38782850E-02 0.12500159E+03</pdfrwt>
<totfact> 0.13938496E+03</totfact>
</mgrwt>
</event>
<event>
 5    1  0.1435323E-002  0.1249831E+03  0.7818608E-02  0.1235096E+00
         -4   -1    0    0    0  501 -0.00000000000E+00  0.00000000000E+00  0.10839298758E+03  0.10840042738E+03  0.12700000000E+01 0.  1.
          4   -1    0    0  501    0  0.00000000000E+00 -0.00000000000E+00 -0.36008249369E+02  0.36030638665E+02  0.12700000000E+01 0.  1.
         25    2    1    2    0    0  0.00000000000E+00  0.00000000000E+00  0.72384738211E+02  0.14443106605E+03  0.12498312892E+03 0.  0.
    9000005    1    3    3    0    0  0.22748512838E+02 -0.52631893294E+02  0.74974132651E+01  0.57834438129E+02  0.10000000000E+01 0.  0.
    9000005    1    3    3    0    0 -0.22748512838E+02  0.52631893294E+02  0.64887324946E+02  0.86596627918E+02  0.10000000000E+01 0.  0.
<mgrwt>
<rscale>  0 0.12498313E+03</rscale>
<asrwt>0</asrwt>
<pdfrwt beam="2">  1        4 0.90057911E-02 0.12498313E+03</pdfrwt>
<pdfrwt beam="1">  1       -4 0.27101975E-01 0.12498313E+03</pdfrwt>
<totfact> 0.18823303E+03</totfact>
</mgrwt>
</event>
<event>
 5    1  0.1435323E-002  0.1250016E+03  0.7818608E-02  0.1235067E+00
         -4   -1    0    0    0  501 -0.00000000000E+00  0.00000000000E+00  0.35024879950E+03  0.35025110200E+03  0.12700000000E+01 0. -1.
          4   -1    0    0  501    0  0.00000000000E+00 -0.00000000000E+00 -0.11114571626E+02  0.11186894227E+02  0.12700000000E+01 0. -1.
         25    2    1    2    0    0  0.00000000000E+00  0.00000000000E+00  0.33913422787E+03  0.36143799623E+03  0.12500160239E+03 0.  0.
    9000005    1    3    3    0    0  0.23147958001E+01  0.55682399921E+02  0.25132265468E+03  0.25742953346E+03  0.10000000000E+01 0.  0.
    9000005    1    3    3    0    0 -0.23147958001E+01 -0.55682399921E+02  0.87811573192E+02  0.10400846277E+03  0.10000000000E+01 0.  0.
<mgrwt>
<rscale>  0 0.12500160E+03</rscale>
<asrwt>0</asrwt>
<pdfrwt beam="2">  1        4 0.27879711E-02 0.12500160E+03</pdfrwt>
<pdfrwt beam="1">  1       -4 0.87571526E-01 0.12500160E+03</pdfrwt>
<totfact> 0.11408777E+03</totfact>
</mgrwt>
</event>
<event>
 5    1  0.1435323E-002  0.1250039E+03  0.7818608E-02  0.1235063E+00
          4   -1    0    0  501    0  0.00000000000E+00  0.00000000000E+00  0.40422590429E+02  0.40442535986E+02  0.12700000000E+01 0. -1.
         -4   -1    0    0    0  501 -0.00000000000E+00 -0.00000000000E+00 -0.96593416298E+02  0.96601764850E+02  0.12700000000E+01 0. -1.
         25    2    1    2    0    0  0.00000000000E+00  0.00000000000E+00 -0.56170825869E+02  0.13704430084E+03  0.12500391479E+03 0.  0.
    9000005    1    3    3    0    0 -0.46863199843E+02 -0.19897411800E+02  0.11646596577E+02  0.52237053015E+02  0.10000000000E+01 0.  0.
    9000005    1    3    3    0    0  0.46863199843E+02  0.19897411800E+02 -0.67817422446E+02  0.84807247821E+02  0.10000000000E+01 0.  0.
<mgrwt>
<rscale>  0 0.12500391E+03</rscale>
<asrwt>0</asrwt>
<pdfrwt beam="1">  1        4 0.10109185E-01 0.12500391E+03</pdfrwt>
<pdfrwt beam="2">  1       -4 0.24151890E-01 0.12500391E+03</pdfrwt>
<totfact> 0.19190835E+03</totfact>
</mgrwt>
</event>
<event>
 5    1  0.1435323E-002  0.1249991E+03  0.7818608E-02  0.1235071E+00
         -4   -1    0    0    0  501 -0.00000000000E+00  0.00000000000E+00  0.97073474969E+01  0.97900712676E+01  0.12700000000E+01 0.  1.
          4   -1    0    0  501    0  0.00000000000E+00 -0.00000000000E+00 -0.40060478141E+03  0.40060679449E+03  0.12700000000E+01 0.  1.
         25    2    1    2    0    0  0.00000000000E+00  0.00000000000E+00 -0.39089743392E+03  0.41039686576E+03  0.12499913432E+03 0.  0.
    9000005    1    3    3    0    0  0.30961367740E+02 -0.24553429636E+02 -0.35439477890E+03  0.35659239547E+03  0.10000000000E+01 0.  0.
    9000005    1    3    3    0    0 -0.30961367740E+02  0.24553429636E+02 -0.36502655022E+02  0.53804470287E+02  0.10000000000E+01 0.  0.
<mgrwt>
<rscale>  0 0.12499913E+03</rscale>
<asrwt>0</asrwt>
<pdfrwt beam="2">  1        4 0.10016173E+00 0.12499913E+03</pdfrwt>
<pdfrwt beam="1">  1       -4 0.24374303E-02 0.12499913E+03</pdfrwt>
<totfact> 0.10358176E+03</totfact>
</mgrwt>
</event>
<event>
 5    1  0.1435323E-002  0.1249909E+03  0.7818608E-02  0.1235083E+00
          4   -1    0    0  501    0  0.00000000000E+00  0.00000000000E+00  0.64472747810E+02  0.64485254983E+02  0.12700000000E+01 0.  1.
         -4   -1    0    0    0  501 -0.00000000000E+00 -0.00000000000E+00 -0.60553779980E+02  0.60567096429E+02  0.12700000000E+01 0.  1.
         25    2    1    2    0    0  0.00000000000E+00  0.00000000000E+00  0.39189678302E+01  0.12505235141E+03  0.12499092881E+03 0.  0.
    9000005    1    3    3    0    0 -0.42299840288E+02 -0.44332488799E+01 -0.43842406529E+02  0.61090807773E+02  0.10000000000E+01 0.  0.
    9000005    1    3    3    0    0  0.42299840288E+02  0.44332488799E+01  0.47761374359E+02  0.63961543639E+02  0.10000000000E+01 0.  0.
<mgrwt>
<rscale>  0 0.12499093E+03</rscale>
<asrwt>0</asrwt>
<pdfrwt beam="1">  1        4 0.16121415E-01 0.12499093E+03</pdfrwt>
<pdfrwt beam="2">  1       -4 0.15141673E-01 0.12499093E+03</pdfrwt>
<totfact> 0.19836426E+03</totfact>
</mgrwt>
</event>
<event>
 5    1  0.1435323E-002  0.1250012E+03  0.7818608E-02  0.1235067E+00
          4   -1    0    0  501    0  0.00000000000E+00  0.00000000000E+00  0.21986655943E+03  0.21987022730E+03  0.12700000000E+01 0.  1.
         -4   -1    0    0    0  501 -0.00000000000E+00 -0.00000000000E+00 -0.17740281911E+02  0.17785682508E+02  0.12700000000E+01 0.  1.
         25    2    1    2    0    0  0.00000000000E+00  0.00000000000E+00  0.20212627751E+03  0.23765590981E+03  0.12500119762E+03 0.  0.
    9000005    1    3    3    0    0  0.11595913030E+01  0.32534187595E+02 -0.35467893928E+00  0.32572132439E+02  0.10000000000E+01 0.  0.
    9000005    1    3    3    0    0 -0.11595913030E+01 -0.32534187595E+02  0.20248095645E+03  0.20508377737E+03  0.10000000000E+01 0.  0.
<mgrwt>
<rscale>  0 0.12500120E+03</rscale>
<asrwt>0</asrwt>
<pdfrwt beam="1">  1        4 0.54972773E-01 0.12500120E+03</pdfrwt>
<pdfrwt beam="2">  1       -4 0.44412041E-02 0.12500120E+03</pdfrwt>
<totfact> 0.14917141E+03</totfact>
</mgrwt>
</event>
<event>
 5    1  0.1435323E-002  0.1249966E+03  0.7818608E-02  0.1235075E+00
         -4   -1    0    0    0  501 -0.00000000000E+00  0.00000000000E+00  0.48915024367E+02  0.48931508344E+02  0.12700000000E+01 0. -1.
          4   -1    0    0  501    0  0.00000000000E+00 -0.00000000000E+00 -0.79818555387E+02  0.79828658288E+02  0.12700000000E+01 0. -1.
         25    2    1    2    0    0  0.00000000000E+00  0.00000000000E+00 -0.30903531020E+02  0.12876016663E+03  0.12499660908E+03 0.  0.
    9000005    1    3    3    0    0  0.26892195491E+02 -0.44270215519E+02  0.20557824328E+02  0.55737476634E+02  0.10000000000E+01 0.  0.
    9000005    1    3    3    0    0 -0.26892195491E+02  0.44270215519E+02 -0.51461355348E+02  0.73022689999E+02  0.10000000000E+01 0.  0.
<mgrwt>
<rscale>  0 0.12499661E+03</rscale>
<asrwt>0</asrwt>
<pdfrwt beam="2">  1        4 0.19957962E-01 0.12499661E+03</pdfrwt>
<pdfrwt beam="1">  1       -4 0.12232080E-01 0.12499661E+03</pdfrwt>
<totfact> 0.19632827E+03</totfact>
</mgrwt>
</event>
<event>
 5    1  0.1435323E-002  0.1249978E+03  0.7818608E-02  0.1235073E+00
         -4   -1    0    0    0  501 -0.00000000000E+00  0.00000000000E+00  0.61057615239E+03  0.61057747319E+03  0.12700000000E+01 0. -1.
          4   -1    0    0  501    0  0.00000000000E+00 -0.00000000000E+00 -0.63330463230E+01  0.64591311900E+01  0.12700000000E+01 0. -1.
         25    2    1    2    0    0  0.00000000000E+00  0.00000000000E+00  0.60424310607E+03  0.61703660438E+03  0.12499775964E+03 0.  0.
    9000005    1    3    3    0    0 -0.21146617359E+02  0.57947387571E+02  0.25275013186E+03  0.26017053697E+03  0.10000000000E+01 0.  0.
    9000005    1    3    3    0    0  0.21146617359E+02 -0.57947387571E+02  0.35149297420E+03  0.35686606741E+03  0.10000000000E+01 0.  0.
<mgrwt>
<rscale>  0 0.12499776E+03</rscale>
<asrwt>0</asrwt>
<pdfrwt beam="2">  1        4 0.15991871E-02 0.12499776E+03</pdfrwt>
<pdfrwt beam="1">  1       -4 0.15265998E+00 0.12499776E+03</pdfrwt>
<totfact> 0.71403507E+02</totfact>
</mgrwt>
</event>
<event>
 5    1  0.1435323E-002  0.1249996E+03  0.7818608E-02  0.1235070E+00
          4   -1    0    0  501    0  0.00000000000E+00  0.00000000000E+00  0.26344650741E+03  0.26344956855E+03  0.12700000000E+01 0. -1.
         -4   -1    0    0    0  501 -0.00000000000E+00 -0.00000000000E+00 -0.14797039910E+02  0.14851440675E+02  0.12700000000E+01 0. -1.
         25    2    1    2    0    0  0.00000000000E+00  0.00000000000E+00  0.24864946750E+03  0.27830100922E+03  0.12499957618E+03 0.  0.
    9000005    1    3    3    0    0 -0.26575479921E+02  0.48341669686E+02  0.18969384149E+03  0.19755487000E+03  0.10000000000E+01 0.  0.
    9000005    1    3    3    0    0  0.26575479921E+02 -0.48341669686E+02  0.58955626014E+02  0.80746139225E+02  0.10000000000E+01 0.  0.
<mgrwt>
<rscale>  0 0.12499958E+03</rscale>
<asrwt>0</asrwt>
<pdfrwt beam="1">  1        4 0.65868807E-01 0.12499958E+03</pdfrwt>
<pdfrwt beam="2">  1       -4 0.37064429E-02 0.12499958E+03</pdfrwt>
<totfact> 0.13601902E+03</totfact>
</mgrwt>
</event>
<event>
 5    1  0.1435323E-002  0.1250125E+03  0.7818608E-02  0.1235050E+00
          4   -1    0    0  501    0  0.00000000000E+00  0.00000000000E+00  0.25345627847E+02  0.25377426012E+02  0.12700000000E+01 0.  1.
         -4   -1    0    0    0  501 -0.00000000000E+00 -0.00000000000E+00 -0.15401909550E+03  0.15402433145E+03  0.12700000000E+01 0.  1.
         25    2    1    2    0    0  0.00000000000E+00  0.00000000000E+00 -0.12867346765E+03  0.17940175746E+03  0.12501251658E+03 0.  0.
    9000005    1    3    3    0    0 -0.49564936053E+02 -0.38034900019E+02 -0.66692969083E+02  0.91390856384E+02  0.10000000000E+01 0.  0.
    9000005    1    3    3    0    0  0.49564936053E+02  0.38034900019E+02 -0.61980498566E+02  0.88010901074E+02  0.10000000000E+01 0.  0.
<mgrwt>
<rscale>  0 0.12501252E+03</rscale>
<asrwt>0</asrwt>
<pdfrwt beam="1">  1        4 0.63410367E-02 0.12501252E+03</pdfrwt>
<pdfrwt beam="2">  1       -4 0.38509401E-01 0.12501252E+03</pdfrwt>
<totfact> 0.17176155E+03</totfact>
</mgrwt>
</event>
<event>
 5    1  0.1435323E-002  0.1250011E+03  0.7818608E-02  0.1235068E+00
         -4   -1    0    0    0  501 -0.00000000000E+00  0.00000000000E+00  0.26607171359E+02  0.26637463613E+02  0.12700000000E+01 0.  1.
          4   -1    0    0  501    0  0.00000000000E+00 -0.00000000000E+00 -0.14669795579E+03  0.14670345304E+03  0.12700000000E+01 0.  1.
         25    2    1    2    0    0  0.00000000000E+00  0.00000000000E+00 -0.12009078443E+03  0.17334091665E+03  0.12500110751E+03 0.  0.
    9000005    1    3    3    0    0  0.22491350742E+01  0.58905880160E+02 -0.31277892684E+02  0.66740301893E+02  0.10000000000E+01 0.  0.
    9000005    1    3    3    0    0 -0.22491350742E+01 -0.58905880160E+02 -0.88812891747E+02  0.10660061476E+03  0.10000000000E+01 0.  0.
<mgrwt>
<rscale>  0 0.12500111E+03</rscale>
<asrwt>0</asrwt>
<pdfrwt beam="2">  1        4 0.36678960E-01 0.12500111E+03</pdfrwt>
<pdfrwt beam="1">  1       -4 0.66562669E-02 0.12500111E+03</pdfrwt>
<totfact> 0.17446954E+03</totfact>
</mgrwt>
</event>
<event>
 5    1  0.1435323E-002  0.1249937E+03  0.7818608E-02  0.1235079E+00
         -4   -1    0    0    0  501 -0.00000000000E+00  0.00000000000E+00  0.62443831399E+01  0.63722225949E+01  0.12700000000E+01 0. -1.
          4   -1    0    0  501    0  0.00000000000E+00 -0.00000000000E+00 -0.61903261798E+03  0.61903392074E+03  0.12700000000E+01 0. -1.
         25    2    1    2    0    0  0.00000000000E+00  0.00000000000E+00 -0.61278823484E+03  0.62540614333E+03  0.12499369328E+03 0.  0.
    9000005    1    3    3    0    0 -0.39956131989E+02  0.38298189809E+02 -0.16123978410E+03  0.17047730583E+03  0.10000000000E+01 0.  0.
    9000005    1    3    3    0    0  0.39956131989E+02 -0.38298189809E+02 -0.45154845074E+03  0.45492883750E+03  0.10000000000E+01 0.  0.
<mgrwt>
<rscale>  0 0.12499369E+03</rscale>
<asrwt>0</asrwt>
<pdfrwt beam="2">  1        4 0.15477409E+00 0.12499369E+03</pdfrwt>
<pdfrwt beam="1">  1       -4 0.15772407E-02 0.12499369E+03</pdfrwt>
<totfact> 0.70405266E+02</totfact>
</mgrwt>
</event>
<event>
 5    1  0.1435323E-002  0.1249926E+03  0.7818608E-02  0.1235081E+00
          4   -1    0    0  501    0  0.00000000000E+00  0.00000000000E+00  0.58233932681E+02  0.58247779490E+02  0.12700000000E+01 0.  1.
         -4   -1    0    0    0  501 -0.00000000000E+00 -0.00000000000E+00 -0.67042780146E+02  0.67054807953E+02  0.12700000000E+01 0.  1.
         25    2    1    2    0    0  0.00000000000E+00  0.00000000000E+00 -0.88088474641E+01  0.12530258744E+03  0.12499257028E+03 0.  0.
    9000005    1    3    3    0    0 -0.17631040511E+02  0.25367209247E+02 -0.58857070673E+02  0.66479347641E+02  0.10000000000E+01 0.  0.
    9000005    1    3    3    0    0  0.17631040511E+02 -0.25367209247E+02  0.50048223209E+02  0.58823239803E+02  0.10000000000E+01 0.  0.
<mgrwt>
<rscale>  0 0.12499257E+03</rscale>
<asrwt>0</asrwt>
<pdfrwt beam="1">  1        4 0.14561718E-01 0.12499257E+03</pdfrwt>
<pdfrwt beam="2">  1       -4 0.16763929E-01 0.12499257E+03</pdfrwt>
<totfact> 0.19822100E+03</totfact>
</mgrwt>
</event>
<event>
 5    1  0.1435323E-002  0.1250046E+03  0.7818608E-02  0.1235062E+00
          4   -1    0    0  501    0  0.00000000000E+00  0.00000000000E+00  0.31175730488E+02  0.31201587644E+02  0.12700000000E+01 0. -1.
         -4   -1    0    0    0  501 -0.00000000000E+00 -0.00000000000E+00 -0.12522605761E+03  0.12523249740E+03  0.12700000000E+01 0. -1.
         25    2    1    2    0    0  0.00000000000E+00  0.00000000000E+00 -0.94050327120E+02  0.15643408504E+03  0.12500463564E+03 0.  0.
    9000005    1    3    3    0    0  0.41818155235E+02 -0.43279114192E+02 -0.68103428518E+02  0.90889585808E+02  0.10000000000E+01 0.  0.
    9000005    1    3    3    0    0 -0.41818155235E+02  0.43279114192E+02 -0.25946898601E+02  0.65544499231E+02  0.10000000000E+01 0.  0.
<mgrwt>
<rscale>  0 0.12500464E+03</rscale>
<asrwt>0</asrwt>
<pdfrwt beam="1">  1        4 0.77979701E-02 0.12500464E+03</pdfrwt>
<pdfrwt beam="2">  1       -4 0.31310550E-01 0.12500464E+03</pdfrwt>
<totfact> 0.18224910E+03</totfact>
</mgrwt>
</event>
<event>
 5    1  0.1435323E-002  0.1250022E+03  0.7818608E-02  0.1235066E+00
          4   -1    0    0  501    0  0.00000000000E+00  0.00000000000E+00  0.94585354694E+02  0.94593880471E+02  0.12700000000E+01 0. -1.
         -4   -1    0    0    0  501 -0.00000000000E+00 -0.00000000000E+00 -0.41279957586E+02  0.41299489081E+02  0.12700000000E+01 0. -1.
         25    2    1    2    0    0  0.00000000000E+00  0.00000000000E+00  0.53305397107E+02  0.13589336955E+03  0.12500217009E+03 0.  0.
    9000005    1    3    3    0    0 -0.39793003455E+02 -0.41813780786E+02  0.61807486336E+00  0.57734369349E+02  0.10000000000E+01 0.  0.
    9000005    1    3    3    0    0  0.39793003455E+02  0.41813780786E+02  0.52687322244E+02  0.78159000203E+02  0.10000000000E+01 0.  0.
<mgrwt>
<rscale>  0 0.12500217E+03</rscale>
<asrwt>0</asrwt>
<pdfrwt beam="1">  1        4 0.23649845E-01 0.12500217E+03</pdfrwt>
<pdfrwt beam="2">  1       -4 0.10323497E-01 0.12500217E+03</pdfrwt>
<totfact> 0.19251471E+03</totfact>
</mgrwt>
</event>
<event>
 5    1  0.1435323E-002  0.1250003E+03  0.7818608E-02  0.1235069E+00
          4   -1    0    0  501    0  0.00000000000E+00  0.00000000000E+00  0.91321214086E+01  0.92200076692E+01  0.12700000000E+01 0. -1.
         -4   -1    0    0    0  501 -0.00000000000E+00 -0.00000000000E+00 -0.42561335162E+03  0.42561524641E+03  0.12700000000E+01 0. -1.
         25    2    1    2    0    0  0.00000000000E+00  0.00000000000E+00 -0.41648123021E+03  0.43483525408E+03  0.12500033229E+03 0.  0.
    9000005    1    3    3    0    0  0.60281053456E+02 -0.93949234840E+01 -0.16115619425E+03  0.17232059928E+03  0.10000000000E+01 0.  0.
    9000005    1    3    3    0    0 -0.60281053456E+02  0.93949234840E+01 -0.25532503596E+03  0.26251465479E+03  0.10000000000E+01 0.  0.
<mgrwt>
<rscale>  0 0.12500033E+03</rscale>
<asrwt>0</asrwt>
<pdfrwt beam="1">  1        4 0.22942544E-02 0.12500033E+03</pdfrwt>
<pdfrwt beam="2">  1       -4 0.10641449E+00 0.12500033E+03</pdfrwt>
<totfact> 0.98804023E+02</totfact>
</mgrwt>
</event>
<event>
 5    1  0.1435323E-002  0.1250032E+03  0.7818608E-02  0.1235064E+00
          4   -1    0    0  501    0  0.00000000000E+00  0.00000000000E+00  0.32967820762E+03  0.32968065379E+03  0.12700000000E+01 0. -1.
         -4   -1    0    0    0  501 -0.00000000000E+00 -0.00000000000E+00 -0.11812749299E+02  0.11880822615E+02  0.12700000000E+01 0. -1.
         25    2    1    2    0    0  0.00000000000E+00  0.00000000000E+00  0.31786545832E+03  0.34156147640E+03  0.12500317023E+03 0.  0.
    9000005    1    3    3    0    0  0.30351361295E+02  0.17315958493E+02  0.17362636077E+02  0.39032149346E+02  0.10000000000E+01 0.  0.
    9000005    1    3    3    0    0 -0.30351361295E+02 -0.17315958493E+02  0.30050282225E+03  0.30252932706E+03  0.10000000000E+01 0.  0.
<mgrwt>
<rscale>  0 0.12500317E+03</rscale>
<asrwt>0</asrwt>
<pdfrwt beam="1">  1        4 0.82428365E-01 0.12500317E+03</pdfrwt>
<pdfrwt beam="2">  1       -4 0.29620023E-02 0.12500317E+03</pdfrwt>
<totfact> 0.11880429E+03</totfact>
</mgrwt>
</event>
<event>
 5    1  0.1435323E-002  0.1249975E+03  0.7818608E-02  0.1235073E+00
         -4   -1    0    0    0  501 -0.00000000000E+00  0.00000000000E+00  0.28666258405E+03  0.28666539727E+03  0.12700000000E+01 0.  1.
          4   -1    0    0  501    0  0.00000000000E+00 -0.00000000000E+00 -0.13593627043E+02  0.13652823744E+02  0.12700000000E+01 0.  1.
         25    2    1    2    0    0  0.00000000000E+00  0.00000000000E+00  0.27306895700E+03  0.30031822101E+03  0.12499751435E+03 0.  0.
    9000005    1    3    3    0    0  0.53674066373E+02  0.30125914604E+02  0.11058885793E+03  0.12656765634E+03  0.10000000000E+01 0.  0.
    9000005    1    3    3    0    0 -0.53674066373E+02 -0.30125914604E+02  0.16248009907E+03  0.17375056468E+03  0.10000000000E+01 0.  0.
<mgrwt>
<rscale>  0 0.12499751E+03</rscale>
<asrwt>0</asrwt>
<pdfrwt beam="2">  1        4 0.34061579E-02 0.12499751E+03</pdfrwt>
<pdfrwt beam="1">  1       -4 0.71673399E-01 0.12499751E+03</pdfrwt>
<totfact> 0.12962880E+03</totfact>
</mgrwt>
</event>
<event>
 5    1  0.1435323E-002  0.1249896E+03  0.7818608E-02  0.1235086E+00
         -4   -1    0    0    0  501 -0.00000000000E+00  0.00000000000E+00  0.48379678682E+01  0.50018829548E+01  0.12700000000E+01 0. -1.
          4   -1    0    0  501    0  0.00000000000E+00 -0.00000000000E+00 -0.79366816207E+03  0.79366917817E+03  0.12700000000E+01 0. -1.
         25    2    1    2    0    0  0.00000000000E+00  0.00000000000E+00 -0.78883019420E+03  0.79867106113E+03  0.12498955396E+03 0.  0.
    9000005    1    3    3    0    0 -0.17446280871E+02 -0.32973156115E+02 -0.71473953888E+03  0.71571307811E+03  0.10000000000E+01 0.  0.
    9000005    1    3    3    0    0  0.17446280871E+02  0.32973156115E+02 -0.74090655322E+02  0.82957983018E+02  0.10000000000E+01 0.  0.
<mgrwt>
<rscale>  0 0.12498955E+03</rscale>
<asrwt>0</asrwt>
<pdfrwt beam="2">  1        4 0.19843722E+00 0.12498955E+03</pdfrwt>
<pdfrwt beam="1">  1       -4 0.12301111E-02 0.12498955E+03</pdfrwt>
<totfact> 0.52608371E+02</totfact>
</mgrwt>
</event>
<event>
 5    1  0.1435323E-002  0.1250005E+03  0.7818608E-02  0.1235069E+00
         -4   -1    0    0    0  501 -0.00000000000E+00  0.00000000000E+00  0.35458688324E+02  0.35481424403E+02  0.12700000000E+01 0. -1.
          4   -1    0    0  501    0  0.00000000000E+00 -0.00000000000E+00 -0.11010257156E+03  0.11010989585E+03  0.12700000000E+01 0. -1.
         25    2    1    2    0    0  0.00000000000E+00  0.00000000000E+00 -0.74643883240E+02  0.14559132026E+03  0.12500049292E+03 0.  0.
    9000005    1    3    3    0    0  0.30354494699E+02  0.45698205975E+01  0.26078129584E+02  0.40290786184E+02  0.10000000000E+01 0.  0.
    9000005    1    3    3    0    0 -0.30354494699E+02 -0.45698205975E+01 -0.10072201282E+03  0.10530053407E+03  0.10000000000E+01 0.  0.
<mgrwt>
<rscale>  0 0.12500049E+03</rscale>
<asrwt>0</asrwt>
<pdfrwt beam="2">  1        4 0.27529400E-01 0.12500049E+03</pdfrwt>
<pdfrwt beam="1">  1       -4 0.88684299E-02 0.12500049E+03</pdfrwt>
<totfact> 0.18757486E+03</totfact>
</mgrwt>
</event>
<event>
 5    1  0.1435323E-002  0.1249992E+03  0.7818608E-02  0.1235071E+00
         -4   -1    0    0    0  501 -0.00000000000E+00  0.00000000000E+00  0.58115204631E+02  0.58129079722E+02  0.12700000000E+01 0.  1.
          4   -1    0    0  501    0  0.00000000000E+00 -0.00000000000E+00 -0.67186870788E+02  0.67198872805E+02  0.12700000000E+01 0.  1.
         25    2    1    2    0    0  0.00000000000E+00  0.00000000000E+00 -0.90716661571E+01  0.12532795253E+03  0.12499920223E+03 0.  0.
    9000005    1    3    3    0    0 -0.12687369589E+02 -0.30759244255E+02  0.48500354108E+02  0.58825035511E+02  0.10000000000E+01 0.  0.
    9000005    1    3    3    0    0  0.12687369589E+02  0.30759244255E+02 -0.57572020266E+02  0.66502917016E+02  0.10000000000E+01 0.  0.
<mgrwt>
<rscale>  0 0.12499920E+03</rscale>
<asrwt>0</asrwt>
<pdfrwt beam="2">  1        4 0.16799952E-01 0.12499920E+03</pdfrwt>
<pdfrwt beam="1">  1       -4 0.14532036E-01 0.12499920E+03</pdfrwt>
<totfact> 0.19817650E+03</totfact>
</mgrwt>
</event>
<event>
 5    1  0.1435323E-002  0.1249966E+03  0.7818608E-02  0.1235075E+00
          4   -1    0    0  501    0  0.00000000000E+00  0.00000000000E+00  0.66399783771E+02  0.66411928032E+02  0.12700000000E+01 0.  1.
         -4   -1    0    0    0  501 -0.00000000000E+00 -0.00000000000E+00 -0.58801723219E+02  0.58815436354E+02  0.12700000000E+01 0.  1.
         25    2    1    2    0    0  0.00000000000E+00  0.00000000000E+00  0.75980605525E+01  0.12522736439E+03  0.12499664902E+03 0.  0.
    9000005    1    3    3    0    0 -0.32789388739E+02  0.22674464575E+02  0.52010251476E+02  0.65538855774E+02  0.10000000000E+01 0.  0.
    9000005    1    3    3    0    0  0.32789388739E+02 -0.22674464575E+02 -0.44412190923E+02  0.59688508611E+02  0.10000000000E+01 0.  0.
<mgrwt>
<rscale>  0 0.12499665E+03</rscale>
<asrwt>0</asrwt>
<pdfrwt beam="1">  1        4 0.16603178E-01 0.12499665E+03</pdfrwt>
<pdfrwt beam="2">  1       -4 0.14703663E-01 0.12499665E+03</pdfrwt>
<totfact> 0.19824284E+03</totfact>
</mgrwt>
</event>
<event>
 5    1  0.1435323E-002  0.1250130E+03  0.7818608E-02  0.1235049E+00
         -4   -1    0    0    0  501 -0.00000000000E+00  0.00000000000E+00  0.17967952457E+03  0.17968401279E+03  0.12700000000E+01 0. -1.
          4   -1    0    0  501    0  0.00000000000E+00 -0.00000000000E+00 -0.21721297075E+02  0.21758392556E+02  0.12700000000E+01 0. -1.
         25    2    1    2    0    0  0.00000000000E+00  0.00000000000E+00  0.15795822750E+03  0.20144240534E+03  0.12501296347E+03 0.  0.
    9000005    1    3    3    0    0 -0.56305808921E+02 -0.48361575866E+01  0.12198577923E+03  0.13444427423E+03  0.10000000000E+01 0.  0.
    9000005    1    3    3    0    0  0.56305808921E+02  0.48361575866E+01  0.35972448270E+02  0.66998131116E+02  0.10000000000E+01 0.  0.
<mgrwt>
<rscale>  0 0.12501296E+03</rscale>
<asrwt>0</asrwt>
<pdfrwt beam="2">  1        4 0.54355222E-02 0.12501296E+03</pdfrwt>
<pdfrwt beam="1">  1       -4 0.44925079E-01 0.12501296E+03</pdfrwt>
<totfact> 0.16259574E+03</totfact>
</mgrwt>
</event>
<event>
 5    1  0.1435323E-002  0.1249895E+03  0.7818608E-02  0.1235086E+00
         -4   -1    0    0    0  501 -0.00000000000E+00  0.00000000000E+00  0.18306541603E+03  0.18306982123E+03  0.12700000000E+01 0. -1.
          4   -1    0    0  501    0  0.00000000000E+00 -0.00000000000E+00 -0.21310848799E+02  0.21348657488E+02  0.12700000000E+01 0. -1.
         25    2    1    2    0    0  0.00000000000E+00  0.00000000000E+00  0.16175456723E+03  0.20441847872E+03  0.12498949725E+03 0.  0.
    9000005    1    3    3    0    0  0.29699533575E+02 -0.54843087909E+02  0.87162106682E+02  0.10718236528E+03  0.10000000000E+01 0.  0.
    9000005    1    3    3    0    0 -0.29699533575E+02  0.54843087909E+02  0.74592460546E+02  0.97236113437E+02  0.10000000000E+01 0.  0.
<mgrwt>
<rscale>  0 0.12498950E+03</rscale>
<asrwt>0</asrwt>
<pdfrwt beam="2">  1        4 0.53329889E-02 0.12498950E+03</pdfrwt>
<pdfrwt beam="1">  1       -4 0.45771631E-01 0.12498950E+03</pdfrwt>
<totfact> 0.16150554E+03</totfact>
</mgrwt>
</event>
<event>
 5    1  0.1435323E-002  0.1249995E+03  0.7818608E-02  0.1235070E+00
          4   -1    0    0  501    0  0.00000000000E+00  0.00000000000E+00  0.52212358025E+03  0.52212512480E+03  0.12700000000E+01 0.  1.
         -4   -1    0    0    0  501 -0.00000000000E+00 -0.00000000000E+00 -0.74259458827E+01  0.75337621580E+01  0.12700000000E+01 0.  1.
         25    2    1    2    0    0  0.00000000000E+00  0.00000000000E+00  0.51469763437E+03  0.52965888696E+03  0.12499952686E+03 0.  0.
    9000005    1    3    3    0    0  0.54876740325E+02 -0.29223017022E+02  0.28407366510E+03  0.29079939573E+03  0.10000000000E+01 0.  0.
    9000005    1    3    3    0    0 -0.54876740325E+02  0.29223017022E+02  0.23062396927E+03  0.23885949124E+03  0.10000000000E+01 0.  0.
<mgrwt>
<rscale>  0 0.12499953E+03</rscale>
<asrwt>0</asrwt>
<pdfrwt beam="1">  1        4 0.13054457E+00 0.12499953E+03</pdfrwt>
<pdfrwt beam="2">  1       -4 0.18701565E-02 0.12499953E+03</pdfrwt>
<totfact> 0.83075834E+02</totfact>
</mgrwt>
</event>
<event>
 5    1  0.1435323E-002  0.1250006E+03  0.7818608E-02  0.1235068E+00
          4   -1    0    0  501    0  0.00000000000E+00  0.00000000000E+00  0.44398448289E+02  0.44416608498E+02  0.12700000000E+01 0. -1.
         -4   -1    0    0    0  501 -0.00000000000E+00 -0.00000000000E+00 -0.87941758577E+02  0.87950928372E+02  0.12700000000E+01 0. -1.
         25    2    1    2    0    0  0.00000000000E+00  0.00000000000E+00 -0.43543310288E+02  0.13236753687E+03  0.12500057978E+03 0.  0.
    9000005    1    3    3    0    0  0.97693114004E+01 -0.29599060147E+02 -0.79127865790E+02  0.85051531152E+02  0.10000000000E+01 0.  0.
    9000005    1    3    3    0    0 -0.97693114004E+01  0.29599060147E+02  0.35584555502E+02  0.47316005718E+02  0.10000000000E+01 0.  0.
<mgrwt>
<rscale>  0 0.12500058E+03</rscale>
<asrwt>0</asrwt>
<pdfrwt beam="1">  1        4 0.11103028E-01 0.12500058E+03</pdfrwt>
<pdfrwt beam="2">  1       -4 0.21988856E-01 0.12500058E+03</pdfrwt>
<totfact> 0.19437666E+03</totfact>
</mgrwt>
</event>
<event>
 5    1  0.1435323E-002  0.1250017E+03  0.7818608E-02  0.1235067E+00
         -4   -1    0    0    0  501 -0.00000000000E+00  0.00000000000E+00  0.10510990533E+03  0.10511757749E+03  0.12700000000E+01 0. -1.
          4   -1    0    0  501    0  0.00000000000E+00 -0.00000000000E+00 -0.37144619550E+02  0.37166324294E+02  0.12700000000E+01 0. -1.
         25    2    1    2    0    0  0.00000000000E+00  0.00000000000E+00  0.67965285778E+02  0.14228390179E+03  0.12500171454E+03 0.  0.
    9000005    1    3    3    0    0  0.23992487713E+02 -0.39831680516E+02  0.81506074091E+02  0.93842646771E+02  0.10000000000E+01 0.  0.
    9000005    1    3    3    0    0 -0.23992487713E+02  0.39831680516E+02 -0.13540788312E+02  0.48441255016E+02  0.10000000000E+01 0.  0.
<mgrwt>
<rscale>  0 0.12500171E+03</rscale>
<asrwt>0</asrwt>
<pdfrwt beam="2">  1        4 0.92898271E-02 0.12500171E+03</pdfrwt>
<pdfrwt beam="1">  1       -4 0.26281148E-01 0.12500171E+03</pdfrwt>
<totfact> 0.18923348E+03</totfact>
</mgrwt>
</event>
<event>
 5    1  0.1435323E-002  0.1249996E+03  0.7818608E-02  0.1235070E+00
         -4   -1    0    0    0  501 -0.00000000000E+00  0.00000000000E+00  0.54518521006E+03  0.54518668928E+03  0.12700000000E+01 0.  1.
          4   -1    0    0  501    0  0.00000000000E+00 -0.00000000000E+00 -0.71071728304E+01  0.72197510789E+01  0.12700000000E+01 0.  1.
         25    2    1    2    0    0  0.00000000000E+00  0.00000000000E+00  0.53807803722E+03  0.55240644035E+03  0.12499960480E+03 0.  0.
    9000005    1    3    3    0    0  0.14719836945E+02  0.54753443904E+02  0.15290293433E+03  0.16307949149E+03  0.10000000000E+01 0.  0.
    9000005    1    3    3    0    0 -0.14719836945E+02 -0.54753443904E+02  0.38517510290E+03  0.38932694886E+03  0.10000000000E+01 0.  0.
<mgrwt>
<rscale>  0 0.12499960E+03</rscale>
<asrwt>0</asrwt>
<pdfrwt beam="2">  1        4 0.17910504E-02 0.12499960E+03</pdfrwt>
<pdfrwt beam="1">  1       -4 0.13631056E+00 0.12499960E+03</pdfrwt>
<totfact> 0.79833171E+02</totfact>
</mgrwt>
</event>
<event>
 5    1  0.1435323E-002  0.1250042E+03  0.7818608E-02  0.1235063E+00
          4   -1    0    0  501    0  0.00000000000E+00  0.00000000000E+00  0.10585688303E+02  0.10661599169E+02  0.12700000000E+01 0. -1.
         -4   -1    0    0    0  501 -0.00000000000E+00 -0.00000000000E+00 -0.36764191827E+03  0.36764411184E+03  0.12700000000E+01 0. -1.
         25    2    1    2    0    0  0.00000000000E+00  0.00000000000E+00 -0.35705622997E+03  0.37830571101E+03  0.12500423842E+03 0.  0.
    9000005    1    3    3    0    0 -0.49215863402E+02  0.34314963078E+02 -0.12560629487E+03  0.13920366091E+03  0.10000000000E+01 0.  0.
    9000005    1    3    3    0    0  0.49215863402E+02 -0.34314963078E+02 -0.23144993510E+03  0.23910205010E+03  0.10000000000E+01 0.  0.
<mgrwt>
<rscale>  0 0.12500424E+03</rscale>
<asrwt>0</asrwt>
<pdfrwt beam="1">  1        4 0.26561864E-02 0.12500424E+03</pdfrwt>
<pdfrwt beam="2">  1       -4 0.91920200E-01 0.12500424E+03</pdfrwt>
<totfact> 0.11029089E+03</totfact>
</mgrwt>
</event>
<event>
 5    1  0.1435323E-002  0.1249989E+03  0.7818608E-02  0.1235071E+00
          4   -1    0    0  501    0  0.00000000000E+00  0.00000000000E+00  0.93653682572E+02  0.93662293157E+02  0.12700000000E+01 0.  1.
         -4   -1    0    0    0  501 -0.00000000000E+00 -0.00000000000E+00 -0.41688593994E+02  0.41707934128E+02  0.12700000000E+01 0.  1.
         25    2    1    2    0    0  0.00000000000E+00  0.00000000000E+00  0.51965088578E+02  0.13537022728E+03  0.12499891201E+03 0.  0.
    9000005    1    3    3    0    0 -0.20862100444E+02  0.11246976776E+02  0.88602824870E+02  0.91723401030E+02  0.10000000000E+01 0.  0.
    9000005    1    3    3    0    0  0.20862100444E+02 -0.11246976776E+02 -0.36637736292E+02  0.43646826255E+02  0.10000000000E+01 0.  0.
<mgrwt>
<rscale>  0 0.12499891E+03</rscale>
<asrwt>0</asrwt>
<pdfrwt beam="1">  1        4 0.23416914E-01 0.12499891E+03</pdfrwt>
<pdfrwt beam="2">  1       -4 0.10425642E-01 0.12499891E+03</pdfrwt>
<totfact> 0.19280252E+03</totfact>
</mgrwt>
</event>
<event>
 5    1  0.1435323E-002  0.1250003E+03  0.7818608E-02  0.1235069E+00
          4   -1    0    0  501    0  0.00000000000E+00  0.00000000000E+00  0.51238235955E+02  0.51253972761E+02  0.12700000000E+01 0.  1.
         -4   -1    0    0    0  501 -0.00000000000E+00 -0.00000000000E+00 -0.76204642779E+02  0.76215224733E+02  0.12700000000E+01 0.  1.
         25    2    1    2    0    0  0.00000000000E+00  0.00000000000E+00 -0.24966406824E+02  0.12746919749E+03  0.12500029936E+03 0.  0.
    9000005    1    3    3    0    0  0.33265532256E+02  0.23286156439E+02  0.35956886200E+02  0.54247012666E+02  0.10000000000E+01 0.  0.
    9000005    1    3    3    0    0 -0.33265532256E+02 -0.23286156439E+02 -0.60923293024E+02  0.73222184827E+02  0.10000000000E+01 0.  0.
<mgrwt>
<rscale>  0 0.12500030E+03</rscale>
<asrwt>0</asrwt>
<pdfrwt beam="1">  1        4 0.12812849E-01 0.12500030E+03</pdfrwt>
<pdfrwt beam="2">  1       -4 0.19054450E-01 0.12500030E+03</pdfrwt>
<totfact> 0.19701329E+03</totfact>
</mgrwt>
</event>
<event>
 5    1  0.1435323E-002  0.1249963E+03  0.7818608E-02  0.1235075E+00
          4   -1    0    0  501    0  0.00000000000E+00  0.00000000000E+00  0.10156650143E+03  0.10157444124E+03  0.12700000000E+01 0.  1.
         -4   -1    0    0    0  501 -0.00000000000E+00 -0.00000000000E+00 -0.38437802706E+02  0.38458777631E+02  0.12700000000E+01 0.  1.
         25    2    1    2    0    0  0.00000000000E+00  0.00000000000E+00  0.63128698728E+02  0.14003321887E+03  0.12499627908E+03 0.  0.
    9000005    1    3    3    0    0 -0.15872080304E+02  0.48241181930E+02 -0.92287373068E+01  0.51626583845E+02  0.10000000000E+01 0.  0.
    9000005    1    3    3    0    0  0.15872080304E+02 -0.48241181930E+02  0.72357436035E+02  0.88406635027E+02  0.10000000000E+01 0.  0.
<mgrwt>
<rscale>  0 0.12499628E+03</rscale>
<asrwt>0</asrwt>
<pdfrwt beam="1">  1        4 0.25395240E-01 0.12499628E+03</pdfrwt>
<pdfrwt beam="2">  1       -4 0.96130651E-02 0.12499628E+03</pdfrwt>
<totfact> 0.19040295E+03</totfact>
</mgrwt>
</event>
<event>
 5    1  0.1435323E-002  0.1249970E+03  0.7818608E-02  0.1235074E+00
         -4   -1    0    0    0  501 -0.00000000000E+00  0.00000000000E+00  0.13956226910E+03  0.13956804741E+03  0.12700000000E+01 0. -1.
          4   -1    0    0  501    0  0.00000000000E+00 -0.00000000000E+00 -0.27967197596E+02  0.27996018313E+02  0.12700000000E+01 0. -1.
         25    2    1    2    0    0  0.00000000000E+00  0.00000000000E+00  0.11159507151E+03  0.16756406572E+03  0.12499702451E+03 0.  0.
    9000005    1    3    3    0    0 -0.56527454076E+02 -0.62729777596E+01  0.90506007668E+02  0.10689733738E+03  0.10000000000E+01 0.  0.
    9000005    1    3    3    0    0  0.56527454076E+02  0.62729777596E+01  0.21089063838E+02  0.60666728343E+02  0.10000000000E+01 0.  0.
<mgrwt>
<rscale>  0 0.12499702E+03</rscale>
<asrwt>0</asrwt>
<pdfrwt beam="2">  1        4 0.69961244E-02 0.12499702E+03</pdfrwt>
<pdfrwt beam="1">  1       -4 0.34894891E-01 0.12499702E+03</pdfrwt>
<totfact> 0.17708704E+03</totfact>
</mgrwt>
</event>
<event>
 5    1  0.1435323E-002  0.1249908E+03  0.7818608E-02  0.1235084E+00
         -4   -1    0    0    0  501 -0.00000000000E+00  0.00000000000E+00  0.23438102808E+02  0.23472485238E+02  0.12700000000E+01 0.  1.
          4   -1    0    0  501    0  0.00000000000E+00 -0.00000000000E+00 -0.16647888968E+03  0.16648373377E+03  0.12700000000E+01 0.  1.
         25    2    1    2    0    0  0.00000000000E+00  0.00000000000E+00 -0.14304078688E+03  0.18995621901E+03  0.12499079338E+03 0.  0.
    9000005    1    3    3    0    0 -0.32694112770E+02 -0.24663214619E+02  0.20681088209E+00  0.40966107161E+02  0.10000000000E+01 0.  0.
    9000005    1    3    3    0    0  0.32694112770E+02  0.24663214619E+02 -0.14324759776E+03  0.14899011185E+03  0.10000000000E+01 0.  0.
<mgrwt>
<rscale>  0 0.12499079E+03</rscale>
<asrwt>0</asrwt>
<pdfrwt beam="2">  1        4 0.41624622E-01 0.12499079E+03</pdfrwt>
<pdfrwt beam="1">  1       -4 0.58644295E-02 0.12499079E+03</pdfrwt>
<totfact> 0.16735837E+03</totfact>
</mgrwt>
</event>
<event>
 5    1  0.1435323E-002  0.1249990E+03  0.7818608E-02  0.1235071E+00
          4   -1    0    0  501    0  0.00000000000E+00  0.00000000000E+00  0.41303643790E+02  0.41323164089E+02  0.12700000000E+01 0. -1.
         -4   -1    0    0    0  501 -0.00000000000E+00 -0.00000000000E+00 -0.94526274121E+02  0.94534805226E+02  0.12700000000E+01 0. -1.
         25    2    1    2    0    0  0.00000000000E+00  0.00000000000E+00 -0.53222630331E+02  0.13585796931E+03  0.12499895778E+03 0.  0.
    9000005    1    3    3    0    0  0.25097824636E+02  0.54574315164E+02 -0.78827529327E+01  0.60592033065E+02  0.10000000000E+01 0.  0.
    9000005    1    3    3    0    0 -0.25097824636E+02 -0.54574315164E+02 -0.45339877398E+02  0.75265936250E+02  0.10000000000E+01 0.  0.
<mgrwt>
<rscale>  0 0.12499896E+03</rscale>
<asrwt>0</asrwt>
<pdfrwt beam="1">  1        4 0.10329418E-01 0.12499896E+03</pdfrwt>
<pdfrwt beam="2">  1       -4 0.23635075E-01 0.12499896E+03</pdfrwt>
<totfact> 0.19254760E+03</totfact>
</mgrwt>
</event>
<event>
 5    1  0.1435323E-002  0.1250007E+03  0.7818608E-02  0.1235068E+00
         -4   -1    0    0    0  501 -0.00000000000E+00  0.00000000000E+00  0.81794555951E+01  0.82774630070E+01  0.12700000000E+01 0.  1.
          4   -1    0    0  501    0  0.00000000000E+00 -0.00000000000E+00 -0.47463101462E+03  0.47463271373E+03  0.12700000000E+01 0.  1.
         25    2    1    2    0    0  0.00000000000E+00  0.00000000000E+00 -0.46645155903E+03  0.48291017673E+03  0.12500072750E+03 0.  0.
    9000005    1    3    3    0    0  0.18586642018E+02 -0.56147554404E+02 -0.15526024259E+03  0.16614678467E+03  0.10000000000E+01 0.  0.
    9000005    1    3    3    0    0 -0.18586642018E+02  0.56147554404E+02 -0.31119131643E+03  0.31676339206E+03  0.10000000000E+01 0.  0.
<mgrwt>
<rscale>  0 0.12500073E+03</rscale>
<asrwt>0</asrwt>
<pdfrwt beam="2">  1        4 0.11867012E+00 0.12500073E+03</pdfrwt>
<pdfrwt beam="1">  1       -4 0.20573288E-02 0.12500073E+03</pdfrwt>
<totfact> 0.90386753E+02</totfact>
</mgrwt>
</event>
<event>
 5    1  0.1435323E-002  0.1249992E+03  0.7818608E-02  0.1235070E+00
         -4   -1    0    0    0  501 -0.00000000000E+00  0.00000000000E+00  0.13077959480E+02  0.13139479600E+02  0.12700000000E+01 0.  1.
          4   -1    0    0  501    0  0.00000000000E+00 -0.00000000000E+00 -0.29792214501E+03  0.29792485191E+03  0.12700000000E+01 0.  1.
         25    2    1    2    0    0  0.00000000000E+00  0.00000000000E+00 -0.28484418553E+03  0.31106433151E+03  0.12499923323E+03 0.  0.
    9000005    1    3    3    0    0 -0.59552381018E+02  0.14340439054E+02 -0.17321032732E+03  0.18372520722E+03  0.10000000000E+01 0.  0.
    9000005    1    3    3    0    0  0.59552381018E+02 -0.14340439054E+02 -0.11163385821E+03  0.12733912429E+03  0.10000000000E+01 0.  0.
<mgrwt>
<rscale>  0 0.12499923E+03</rscale>
<asrwt>0</asrwt>
<pdfrwt beam="2">  1        4 0.74488542E-01 0.12499923E+03</pdfrwt>
<pdfrwt beam="1">  1       -4 0.32775192E-02 0.12499923E+03</pdfrwt>
<totfact> 0.12666752E+03</totfact>
</mgrwt>
</event>
<event>
 5    1  0.1435323E-002  0.1250075E+03  0.7818608E-02  0.1235058E+00
         -4   -1    0    0    0  501 -0.00000000000E+00  0.00000000000E+00  0.10411311649E+03  0.10412086211E+03  0.12700000000E+01 0.  1.
          4   -1    0    0  501    0  0.00000000000E+00 -0.00000000000E+00 -0.37503878779E+02  0.37525375727E+02  0.12700000000E+01 0.  1.
         25    2    1    2    0    0  0.00000000000E+00  0.00000000000E+00  0.66609237715E+02  0.14164623784E+03  0.12500746435E+03 0.  0.
    9000005    1    3    3    0    0 -0.22378054899E+02 -0.34655009069E+02  0.86499751008E+02  0.95838165253E+02  0.10000000000E+01 0.  0.
    9000005    1    3    3    0    0  0.22378054899E+02  0.34655009069E+02 -0.19890513293E+02  0.45808072582E+02  0.10000000000E+01 0.  0.
<mgrwt>
<rscale>  0 0.12500746E+03</rscale>
<asrwt>0</asrwt>
<pdfrwt beam="2">  1        4 0.93796251E-02 0.12500746E+03</pdfrwt>
<pdfrwt beam="1">  1       -4 0.26031934E-01 0.12500746E+03</pdfrwt>
<totfact> 0.18953139E+03</totfact>
</mgrwt>
</event>
<event>
 5    1  0.1435323E-002  0.1250099E+03  0.7818608E-02  0.1235054E+00
         -4   -1    0    0    0  501 -0.00000000000E+00  0.00000000000E+00  0.24937685806E+03  0.24938009190E+03  0.12700000000E+01 0. -1.
          4   -1    0    0  501    0  0.00000000000E+00 -0.00000000000E+00 -0.15637451183E+02  0.15688938125E+02  0.12700000000E+01 0. -1.
         25    2    1    2    0    0  0.00000000000E+00  0.00000000000E+00  0.23373940688E+03  0.26506903003E+03  0.12500992101E+03 0.  0.
    9000005    1    3    3    0    0 -0.41101253994E+02  0.47059742286E+02  0.11982127781E+03  0.13513723039E+03  0.10000000000E+01 0.  0.
    9000005    1    3    3    0    0  0.41101253994E+02 -0.47059742286E+02  0.11391812908E+03  0.12993179963E+03  0.10000000000E+01 0.  0.
<mgrwt>
<rscale>  0 0.12500992E+03</rscale>
<asrwt>0</asrwt>
<pdfrwt beam="2">  1        4 0.39162029E-02 0.12500992E+03</pdfrwt>
<pdfrwt beam="1">  1       -4 0.62351054E-01 0.12500992E+03</pdfrwt>
<totfact> 0.14006620E+03</totfact>
</mgrwt>
</event>
<event>
 5    1  0.1435323E-002  0.1250002E+03  0.7818608E-02  0.1235069E+00
          4   -1    0    0  501    0  0.00000000000E+00  0.00000000000E+00  0.15663977674E+03  0.15664492510E+03  0.12700000000E+01 0. -1.
         -4   -1    0    0    0  501 -0.00000000000E+00 -0.00000000000E+00 -0.24916136605E+02  0.24948482185E+02  0.12700000000E+01 0. -1.
         25    2    1    2    0    0  0.00000000000E+00  0.00000000000E+00  0.13172364014E+03  0.18159340728E+03  0.12500019279E+03 0.  0.
    9000005    1    3    3    0    0  0.87234696691E+01  0.61391972267E+02  0.54591208575E+02  0.82621263822E+02  0.10000000000E+01 0.  0.
    9000005    1    3    3    0    0 -0.87234696691E+01 -0.61391972267E+02  0.77132431565E+02  0.98972143459E+02  0.10000000000E+01 0.  0.
<mgrwt>
<rscale>  0 0.12500019E+03</rscale>
<asrwt>0</asrwt>
<pdfrwt beam="1">  1        4 0.39164631E-01 0.12500019E+03</pdfrwt>
<pdfrwt beam="2">  1       -4 0.62337209E-02 0.12500019E+03</pdfrwt>
<totfact> 0.17086390E+03</totfact>
</mgrwt>
</event>
<event>
 5    1  0.1435323E-002  0.1249996E+03  0.7818608E-02  0.1235070E+00
         -4   -1    0    0    0  501 -0.00000000000E+00  0.00000000000E+00  0.26435713588E+03  0.26436018647E+03  0.12700000000E+01 0.  1.
          4   -1    0    0  501    0  0.00000000000E+00 -0.00000000000E+00 -0.14745894485E+02  0.14800483241E+02  0.12700000000E+01 0.  1.
         25    2    1    2    0    0  0.00000000000E+00  0.00000000000E+00  0.24961124140E+03  0.27916066971E+03  0.12499963073E+03 0.  0.
    9000005    1    3    3    0    0 -0.23176146155E+02  0.41105570385E+02  0.21630044008E+03  0.22139033865E+03  0.10000000000E+01 0.  0.
    9000005    1    3    3    0    0  0.23176146155E+02 -0.41105570385E+02  0.33310801319E+02  0.57770331069E+02  0.10000000000E+01 0.  0.
<mgrwt>
<rscale>  0 0.12499963E+03</rscale>
<asrwt>0</asrwt>
<pdfrwt beam="2">  1        4 0.36936785E-02 0.12499963E+03</pdfrwt>
<pdfrwt beam="1">  1       -4 0.66096490E-01 0.12499963E+03</pdfrwt>
<totfact> 0.13576010E+03</totfact>
</mgrwt>
</event>
<event>
 5    1  0.1435323E-002  0.1250089E+03  0.7818608E-02  0.1235055E+00
         -4   -1    0    0    0  501 -0.00000000000E+00  0.00000000000E+00  0.25550240498E+01  0.28532521611E+01  0.12700000000E+01 0.  1.
          4   -1    0    0  501    0  0.00000000000E+00 -0.00000000000E+00 -0.14444535663E+04  0.14444541246E+04  0.12700000000E+01 0.  1.
         25    2    1    2    0    0  0.00000000000E+00  0.00000000000E+00 -0.14418985423E+04  0.14473073768E+04  0.12500894651E+03 0.  0.
    9000005    1    3    3    0    0  0.68136537985E+01  0.56237418603E+02 -0.10265496024E+04  0.10281119391E+04  0.10000000000E+01 0.  0.
    9000005    1    3    3    0    0 -0.68136537985E+01 -0.56237418603E+02 -0.41534893985E+03  0.41919543767E+03  0.10000000000E+01 0.  0.
<mgrwt>
<rscale>  0 0.12500895E+03</rscale>
<asrwt>0</asrwt>
<pdfrwt beam="2">  1        4 0.36114809E+00 0.12500895E+03</pdfrwt>
<pdfrwt beam="1">  1       -4 0.67610927E-03 0.12500895E+03</pdfrwt>
<totfact> 0.14307641E+02</totfact>
</mgrwt>
</event>
<event>
 5    1  0.1435323E-002  0.1249964E+03  0.7818608E-02  0.1235075E+00
          4   -1    0    0  501    0  0.00000000000E+00  0.00000000000E+00  0.37553991660E+02  0.37575459938E+02  0.12700000000E+01 0.  1.
         -4   -1    0    0    0  501 -0.00000000000E+00 -0.00000000000E+00 -0.10395589032E+03  0.10396364765E+03  0.12700000000E+01 0.  1.
         25    2    1    2    0    0  0.00000000000E+00  0.00000000000E+00 -0.66401898660E+02  0.14153910759E+03  0.12499642727E+03 0.  0.
    9000005    1    3    3    0    0 -0.38170478642E+02 -0.41497457843E+02 -0.26905536745E+01  0.56455854668E+02  0.10000000000E+01 0.  0.
    9000005    1    3    3    0    0  0.38170478642E+02  0.41497457843E+02 -0.63711344985E+02  0.85083252917E+02  0.10000000000E+01 0.  0.
<mgrwt>
<rscale>  0 0.12499643E+03</rscale>
<asrwt>0</asrwt>
<pdfrwt beam="1">  1        4 0.93921513E-02 0.12499643E+03</pdfrwt>
<pdfrwt beam="2">  1       -4 0.25992625E-01 0.12499643E+03</pdfrwt>
<totfact> 0.18963458E+03</totfact>
</mgrwt>
</event>
<event>
 5    1  0.1435323E-002  0.1250253E+03  0.7818608E-02  0.1235030E+00
         -4   -1    0    0    0  501 -0.00000000000E+00  0.00000000000E+00  0.38671032547E+02  0.38691881038E+02  0.12700000000E+01 0. -1.
          4   -1    0    0  501    0  0.00000000000E+00 -0.00000000000E+00 -0.10100118706E+03  0.10100917131E+03  0.12700000000E+01 0. -1.
         25    2    1    2    0    0  0.00000000000E+00  0.00000000000E+00 -0.62330154516E+02  0.13970105234E+03  0.12502534089E+03 0.  0.
    9000005    1    3    3    0    0  0.11361835184E+02  0.10359559137E+02  0.36530398045E+02  0.39646963888E+02  0.10000000000E+01 0.  0.
    9000005    1    3    3    0    0 -0.11361835184E+02 -0.10359559137E+02 -0.98860552560E+02  0.10005408846E+03  0.10000000000E+01 0.  0.
<mgrwt>
<rscale>  0 0.12502534E+03</rscale>
<asrwt>0</asrwt>
<pdfrwt beam="2">  1        4 0.25253900E-01 0.12502534E+03</pdfrwt>
<pdfrwt beam="1">  1       -4 0.96713624E-02 0.12502534E+03</pdfrwt>
<totfact> 0.19044390E+03</totfact>
</mgrwt>
</event>
<event>
 5    1  0.1435323E-002  0.1250024E+03  0.7818608E-02  0.1235066E+00
          4   -1    0    0  501    0  0.00000000000E+00  0.00000000000E+00  0.29736352010E+02  0.29763459659E+02  0.12700000000E+01 0.  1.
         -4   -1    0    0    0  501 -0.00000000000E+00 -0.00000000000E+00 -0.13127774928E+03  0.13128389222E+03  0.12700000000E+01 0.  1.
         25    2    1    2    0    0  0.00000000000E+00  0.00000000000E+00 -0.10154139727E+03  0.16104735188E+03  0.12500237673E+03 0.  0.
    9000005    1    3    3    0    0  0.61320903451E+02  0.10353212904E+02 -0.42833314089E+02  0.75519103632E+02  0.10000000000E+01 0.  0.
    9000005    1    3    3    0    0 -0.61320903451E+02 -0.10353212904E+02 -0.58708083185E+02  0.85528248250E+02  0.10000000000E+01 0.  0.
<mgrwt>
<rscale>  0 0.12500238E+03</rscale>
<asrwt>0</asrwt>
<pdfrwt beam="1">  1        4 0.74382447E-02 0.12500238E+03</pdfrwt>
<pdfrwt beam="2">  1       -4 0.32823592E-01 0.12500238E+03</pdfrwt>
<totfact> 0.18007581E+03</totfact>
</mgrwt>
</event>
<event>
 5    1  0.1435323E-002  0.1249978E+03  0.7818608E-02  0.1235073E+00
          4   -1    0    0  501    0  0.00000000000E+00  0.00000000000E+00  0.18494736090E+02  0.18538289107E+02  0.12700000000E+01 0.  1.
         -4   -1    0    0    0  501 -0.00000000000E+00 -0.00000000000E+00 -0.21090747962E+03  0.21091130330E+03  0.12700000000E+01 0.  1.
         25    2    1    2    0    0  0.00000000000E+00  0.00000000000E+00 -0.19241274353E+03  0.22944959241E+03  0.12499780631E+03 0.  0.
    9000005    1    3    3    0    0  0.41766274100E+02  0.11217764753E+02 -0.17901039135E+03  0.18416291730E+03  0.10000000000E+01 0.  0.
    9000005    1    3    3    0    0 -0.41766274100E+02 -0.11217764753E+02 -0.13402352184E+02  0.45286675108E+02  0.10000000000E+01 0.  0.
<mgrwt>
<rscale>  0 0.12499781E+03</rscale>
<asrwt>0</asrwt>
<pdfrwt beam="1">  1        4 0.46296068E-02 0.12499781E+03</pdfrwt>
<pdfrwt beam="2">  1       -4 0.52732784E-01 0.12499781E+03</pdfrwt>
<totfact> 0.15207769E+03</totfact>
</mgrwt>
</event>
<event>
 5    1  0.1435323E-002  0.1249912E+03  0.7818608E-02  0.1235083E+00
          4   -1    0    0  501    0  0.00000000000E+00  0.00000000000E+00  0.12923781798E+02  0.12986032341E+02  0.12700000000E+01 0. -1.
         -4   -1    0    0    0  501 -0.00000000000E+00 -0.00000000000E+00 -0.30142076744E+03  0.30142344293E+03  0.12700000000E+01 0. -1.
         25    2    1    2    0    0  0.00000000000E+00  0.00000000000E+00 -0.28849698565E+03  0.31440947527E+03  0.12499122934E+03 0.  0.
    9000005    1    3    3    0    0  0.22040728787E+02  0.47091513885E+02 -0.23143341081E+03  0.23720419061E+03  0.10000000000E+01 0.  0.
    9000005    1    3    3    0    0 -0.22040728787E+02 -0.47091513885E+02 -0.57063574835E+02  0.77205284653E+02  0.10000000000E+01 0.  0.
<mgrwt>
<rscale>  0 0.12499123E+03</rscale>
<asrwt>0</asrwt>
<pdfrwt beam="1">  1        4 0.32390622E-02 0.12499123E+03</pdfrwt>
<pdfrwt beam="2">  1       -4 0.75363285E-01 0.12499123E+03</pdfrwt>
<totfact> 0.12579128E+03</totfact>
</mgrwt>
</event>
<event>
 5    1  0.1435323E-002  0.1250234E+03  0.7818608E-02  0.1235033E+00
         -4   -1    0    0    0  501 -0.00000000000E+00  0.00000000000E+00  0.29051599208E+02  0.29079345188E+02  0.12700000000E+01 0.  1.
          4   -1    0    0  501    0  0.00000000000E+00 -0.00000000000E+00 -0.13441436245E+03  0.13442036204E+03  0.12700000000E+01 0.  1.
         25    2    1    2    0    0  0.00000000000E+00  0.00000000000E+00 -0.10536276324E+03  0.16349970723E+03  0.12502336737E+03 0.  0.
    9000005    1    3    3    0    0  0.96066643515E+00  0.35173301055E+02  0.14875515377E+02  0.38214721572E+02  0.10000000000E+01 0.  0.
    9000005    1    3    3    0    0 -0.96066643515E+00 -0.35173301055E+02 -0.12023827862E+03  0.12528498566E+03  0.10000000000E+01 0.  0.
<mgrwt>
<rscale>  0 0.12502337E+03</rscale>
<asrwt>0</asrwt>
<pdfrwt beam="2">  1        4 0.33607807E-01 0.12502337E+03</pdfrwt>
<pdfrwt beam="1">  1       -4 0.72671184E-02 0.12502337E+03</pdfrwt>
<totfact> 0.17884576E+03</totfact>
</mgrwt>
</event>
<event>
 5    1  0.1435323E-002  0.1250009E+03  0.7818608E-02  0.1235068E+00
          4   -1    0    0  501    0  0.00000000000E+00  0.00000000000E+00  0.74214034649E+03  0.74214143314E+03  0.12700000000E+01 0. -1.
         -4   -1    0    0    0  501 -0.00000000000E+00 -0.00000000000E+00 -0.51858548001E+01  0.53391001122E+01  0.12700000000E+01 0. -1.
         25    2    1    2    0    0  0.00000000000E+00  0.00000000000E+00  0.73695449169E+03  0.74748053325E+03  0.12500089909E+03 0.  0.
    9000005    1    3    3    0    0  0.60113596364E+02  0.34853926697E+01  0.26850295113E+03  0.27517381270E+03  0.10000000000E+01 0.  0.
    9000005    1    3    3    0    0 -0.60113596364E+02 -0.34853926697E+01  0.46845154055E+03  0.47230672055E+03  0.10000000000E+01 0.  0.
<mgrwt>
<rscale>  0 0.12500090E+03</rscale>
<asrwt>0</asrwt>
<pdfrwt beam="1">  1        4 0.18555433E+00 0.12500090E+03</pdfrwt>
<pdfrwt beam="2">  1       -4 0.13157555E-02 0.12500090E+03</pdfrwt>
<totfact> 0.57310289E+02</totfact>
</mgrwt>
</event>
<event>
 5    1  0.1435323E-002  0.1249993E+03  0.7818608E-02  0.1235070E+00
         -4   -1    0    0    0  501 -0.00000000000E+00  0.00000000000E+00  0.14683995072E+03  0.14684544265E+03  0.12700000000E+01 0.  1.
          4   -1    0    0  501    0  0.00000000000E+00 -0.00000000000E+00 -0.26580657686E+02  0.26610980122E+02  0.12700000000E+01 0.  1.
         25    2    1    2    0    0  0.00000000000E+00  0.00000000000E+00  0.12025929303E+03  0.17345642277E+03  0.12499933216E+03 0.  0.
    9000005    1    3    3    0    0  0.22478024651E+02  0.41061483391E+02  0.26815569756E+01  0.46898803378E+02  0.10000000000E+01 0.  0.
    9000005    1    3    3    0    0 -0.22478024651E+02 -0.41061483391E+02  0.11757773605E+03  0.12655761939E+03  0.10000000000E+01 0.  0.
<mgrwt>
<rscale>  0 0.12499933E+03</rscale>
<asrwt>0</asrwt>
<pdfrwt beam="2">  1        4 0.66496413E-02 0.12499933E+03</pdfrwt>
<pdfrwt beam="1">  1       -4 0.36714464E-01 0.12499933E+03</pdfrwt>
<totfact> 0.17442536E+03</totfact>
</mgrwt>
</event>
<event>
 5    1  0.1435323E-002  0.1249998E+03  0.7818608E-02  0.1235070E+00
          4   -1    0    0  501    0  0.00000000000E+00  0.00000000000E+00  0.36889791398E+02  0.36911645986E+02  0.12700000000E+01 0.  1.
         -4   -1    0    0    0  501 -0.00000000000E+00 -0.00000000000E+00 -0.10583230818E+03  0.10583992798E+03  0.12700000000E+01 0.  1.
         25    2    1    2    0    0  0.00000000000E+00  0.00000000000E+00 -0.68942516780E+02  0.14275157396E+03  0.12499976500E+03 0.  0.
    9000005    1    3    3    0    0 -0.12606666898E+02 -0.58803103124E+02 -0.53868785507E+02  0.80743910230E+02  0.10000000000E+01 0.  0.
    9000005    1    3    3    0    0  0.12606666898E+02  0.58803103124E+02 -0.15073731273E+02  0.62007663734E+02  0.10000000000E+01 0.  0.
<mgrwt>
<rscale>  0 0.12499976E+03</rscale>
<asrwt>0</asrwt>
<pdfrwt beam="1">  1        4 0.92261324E-02 0.12499976E+03</pdfrwt>
<pdfrwt beam="2">  1       -4 0.26461761E-01 0.12499976E+03</pdfrwt>
<totfact> 0.18900553E+03</totfact>
</mgrwt>
</event>
<event>
 5    1  0.1435323E-002  0.1249999E+03  0.7818608E-02  0.1235070E+00
         -4   -1    0    0    0  501 -0.00000000000E+00  0.00000000000E+00  0.19398427209E+03  0.19398842934E+03  0.12700000000E+01 0.  1.
          4   -1    0    0  501    0  0.00000000000E+00 -0.00000000000E+00 -0.20112494287E+02  0.20152551364E+02  0.12700000000E+01 0.  1.
         25    2    1    2    0    0  0.00000000000E+00  0.00000000000E+00  0.17387177780E+03  0.21414098070E+03  0.12499985800E+03 0.  0.
    9000005    1    3    3    0    0  0.34007596325E+02  0.29598490644E+01 -0.27373138069E+01  0.34260329846E+02  0.10000000000E+01 0.  0.
    9000005    1    3    3    0    0 -0.34007596325E+02 -0.29598490644E+01  0.17660909160E+03  0.17988065085E+03  0.10000000000E+01 0.  0.
<mgrwt>
<rscale>  0 0.12499986E+03</rscale>
<asrwt>0</asrwt>
<pdfrwt beam="2">  1        4 0.50336505E-02 0.12499986E+03</pdfrwt>
<pdfrwt beam="1">  1       -4 0.48501594E-01 0.12499986E+03</pdfrwt>
<totfact> 0.15771100E+03</totfact>
</mgrwt>
</event>
<event>
 5    1  0.1435323E-002  0.1250002E+03  0.7818608E-02  0.1235069E+00
          4   -1    0    0  501    0  0.00000000000E+00  0.00000000000E+00  0.51724424423E+03  0.51724580336E+03  0.12700000000E+01 0. -1.
         -4   -1    0    0    0  501 -0.00000000000E+00 -0.00000000000E+00 -0.74970879481E+01  0.76038955609E+01  0.12700000000E+01 0. -1.
         25    2    1    2    0    0  0.00000000000E+00  0.00000000000E+00  0.50974715628E+03  0.52484969892E+03  0.12500017246E+03 0.  0.
    9000005    1    3    3    0    0 -0.57068416717E+02 -0.33587849700E+01  0.14888629562E+03  0.15948734949E+03  0.10000000000E+01 0.  0.
    9000005    1    3    3    0    0  0.57068416717E+02  0.33587849700E+01  0.36086086066E+03  0.36536234943E+03  0.10000000000E+01 0.  0.
<mgrwt>
<rscale>  0 0.12500017E+03</rscale>
<asrwt>0</asrwt>
<pdfrwt beam="1">  1        4 0.12932460E+00 0.12500017E+03</pdfrwt>
<pdfrwt beam="2">  1       -4 0.18878179E-02 0.12500017E+03</pdfrwt>
<totfact> 0.83785050E+02</totfact>
</mgrwt>
</event>
<event>
 5    1  0.1435323E-002  0.1250012E+03  0.7818608E-02  0.1235067E+00
          4   -1    0    0  501    0  0.00000000000E+00  0.00000000000E+00  0.32402795809E+02  0.32427674542E+02  0.12700000000E+01 0. -1.
         -4   -1    0    0    0  501 -0.00000000000E+00 -0.00000000000E+00 -0.12048066688E+03  0.12048736030E+03  0.12700000000E+01 0. -1.
         25    2    1    2    0    0  0.00000000000E+00  0.00000000000E+00 -0.88077871070E+02  0.15291503484E+03  0.12500118603E+03 0.  0.
    9000005    1    3    3    0    0 -0.34963116486E+02  0.47890337705E+02 -0.19898490413E+02  0.62552808735E+02  0.10000000000E+01 0.  0.
    9000005    1    3    3    0    0  0.34963116486E+02 -0.47890337705E+02 -0.68179380656E+02  0.90362226105E+02  0.10000000000E+01 0.  0.
<mgrwt>
<rscale>  0 0.12500119E+03</rscale>
<asrwt>0</asrwt>
<pdfrwt beam="1">  1        4 0.81046458E-02 0.12500119E+03</pdfrwt>
<pdfrwt beam="2">  1       -4 0.30124112E-01 0.12500119E+03</pdfrwt>
<totfact> 0.18395864E+03</totfact>
</mgrwt>
</event>
<event>
 5    1  0.1435323E-002  0.1249990E+03  0.7818608E-02  0.1235071E+00
          4   -1    0    0  501    0  0.00000000000E+00  0.00000000000E+00  0.46261906066E+02  0.46279335052E+02  0.12700000000E+01 0.  1.
         -4   -1    0    0    0  501 -0.00000000000E+00 -0.00000000000E+00 -0.84398272673E+02  0.84407827423E+02  0.12700000000E+01 0.  1.
         25    2    1    2    0    0  0.00000000000E+00  0.00000000000E+00 -0.38136366607E+02  0.13068716247E+03  0.12499900791E+03 0.  0.
    9000005    1    3    3    0    0  0.13485652243E+02  0.30559378106E+02  0.36150445875E+02  0.49230002474E+02  0.10000000000E+01 0.  0.
    9000005    1    3    3    0    0 -0.13485652243E+02 -0.30559378106E+02 -0.74286812482E+02  0.81457160001E+02  0.10000000000E+01 0.  0.
<mgrwt>
<rscale>  0 0.12499901E+03</rscale>
<asrwt>0</asrwt>
<pdfrwt beam="1">  1        4 0.11568850E-01 0.12499901E+03</pdfrwt>
<pdfrwt beam="2">  1       -4 0.21102941E-01 0.12499901E+03</pdfrwt>
<totfact> 0.19527965E+03</totfact>
</mgrwt>
</event>
<event>
 5    1  0.1435323E-002  0.1250022E+03  0.7818608E-02  0.1235066E+00
         -4   -1    0    0    0  501 -0.00000000000E+00  0.00000000000E+00  0.47819639517E+02  0.47836500954E+02  0.12700000000E+01 0.  1.
          4   -1    0    0  501    0  0.00000000000E+00 -0.00000000000E+00 -0.81653840869E+02  0.81663716721E+02  0.12700000000E+01 0.  1.
         25    2    1    2    0    0  0.00000000000E+00  0.00000000000E+00 -0.33834201352E+02  0.12950021767E+03  0.12500221277E+03 0.  0.
    9000005    1    3    3    0    0  0.60848238544E+02  0.11176467191E+02 -0.77694935724E+01  0.62360136170E+02  0.10000000000E+01 0.  0.
    9000005    1    3    3    0    0 -0.60848238544E+02 -0.11176467191E+02 -0.26064707780E+02  0.67140081504E+02  0.10000000000E+01 0.  0.
<mgrwt>
<rscale>  0 0.12500221E+03</rscale>
<asrwt>0</asrwt>
<pdfrwt beam="2">  1        4 0.20416802E-01 0.12500221E+03</pdfrwt>
<pdfrwt beam="1">  1       -4 0.11958252E-01 0.12500221E+03</pdfrwt>
<totfact> 0.19590276E+03</totfact>
</mgrwt>
</event>
<event>
 5    1  0.1435323E-002  0.1250007E+03  0.7818608E-02  0.1235068E+00
         -4   -1    0    0    0  501 -0.00000000000E+00  0.00000000000E+00  0.71081698990E+02  0.71093043481E+02  0.12700000000E+01 0. -1.
          4   -1    0    0  501    0  0.00000000000E+00 -0.00000000000E+00 -0.54931949850E+02  0.54946628781E+02  0.12700000000E+01 0. -1.
         25    2    1    2    0    0  0.00000000000E+00  0.00000000000E+00  0.16149749140E+02  0.12603967226E+03  0.12500073834E+03 0.  0.
    9000005    1    3    3    0    0 -0.23611618414E+02  0.49997197736E+02 -0.21288771749E+02  0.59257405513E+02  0.10000000000E+01 0.  0.
    9000005    1    3    3    0    0  0.23611618414E+02 -0.49997197736E+02  0.37438520889E+02  0.66782266748E+02  0.10000000000E+01 0.  0.
<mgrwt>
<rscale>  0 0.12500074E+03</rscale>
<asrwt>0</asrwt>
<pdfrwt beam="2">  1        4 0.13736240E-01 0.12500074E+03</pdfrwt>
<pdfrwt beam="1">  1       -4 0.17773678E-01 0.12500074E+03</pdfrwt>
<totfact> 0.19778435E+03</totfact>
</mgrwt>
</event>
<event>
 5    1  0.1435323E-002  0.1250022E+03  0.7818608E-02  0.1235066E+00
          4   -1    0    0  501    0  0.00000000000E+00  0.00000000000E+00  0.27415641437E+02  0.27445041362E+02  0.12700000000E+01 0.  1.
         -4   -1    0    0    0  501 -0.00000000000E+00 -0.00000000000E+00 -0.14237892744E+03  0.14238459144E+03  0.12700000000E+01 0.  1.
         25    2    1    2    0    0  0.00000000000E+00  0.00000000000E+00 -0.11496328601E+03  0.16982963280E+03  0.12500218818E+03 0.  0.
    9000005    1    3    3    0    0  0.13611711236E+02 -0.13848424297E+02  0.23219633830E+02  0.30285457458E+02  0.10000000000E+01 0.  0.
    9000005    1    3    3    0    0 -0.13611711236E+02  0.13848424297E+02 -0.13818291984E+03  0.13954417534E+03  0.10000000000E+01 0.  0.
<mgrwt>
<rscale>  0 0.12500219E+03</rscale>
<asrwt>0</asrwt>
<pdfrwt beam="1">  1        4 0.68582937E-02 0.12500219E+03</pdfrwt>
<pdfrwt beam="2">  1       -4 0.35599113E-01 0.12500219E+03</pdfrwt>
<totfact> 0.17603840E+03</totfact>
</mgrwt>
</event>
<event>
 5    1  0.1435323E-002  0.1249991E+03  0.7818608E-02  0.1235071E+00
         -4   -1    0    0    0  501 -0.00000000000E+00  0.00000000000E+00  0.44785132489E+02  0.44803135962E+02  0.12700000000E+01 0.  1.
          4   -1    0    0  501    0  0.00000000000E+00 -0.00000000000E+00 -0.87180624471E+02  0.87189874315E+02  0.12700000000E+01 0.  1.
         25    2    1    2    0    0  0.00000000000E+00  0.00000000000E+00 -0.42395491981E+02  0.13199301028E+03  0.12499910808E+03 0.  0.
    9000005    1    3    3    0    0  0.57627136243E+02  0.13450945020E+02  0.10313463736E-01  0.59184582957E+02  0.10000000000E+01 0.  0.
    9000005    1    3    3    0    0 -0.57627136243E+02 -0.13450945020E+02 -0.42405805445E+02  0.72808427321E+02  0.10000000000E+01 0.  0.
<mgrwt>
<rscale>  0 0.12499911E+03</rscale>
<asrwt>0</asrwt>
<pdfrwt beam="2">  1        4 0.21798562E-01 0.12499911E+03</pdfrwt>
<pdfrwt beam="1">  1       -4 0.11199690E-01 0.12499911E+03</pdfrwt>
<totfact> 0.19458231E+03</totfact>
</mgrwt>
</event>
<event>
 5    1  0.1435323E-002  0.1249997E+03  0.7818608E-02  0.1235070E+00
          4   -1    0    0  501    0  0.00000000000E+00  0.00000000000E+00  0.53511200078E+02  0.53526268633E+02  0.12700000000E+01 0. -1.
         -4   -1    0    0    0  501 -0.00000000000E+00 -0.00000000000E+00 -0.72967556702E+02  0.72978608037E+02  0.12700000000E+01 0. -1.
         25    2    1    2    0    0  0.00000000000E+00  0.00000000000E+00 -0.19456356624E+02  0.12650487667E+03  0.12499973603E+03 0.  0.
    9000005    1    3    3    0    0  0.46995696072E+02  0.38104083640E+02  0.61036153058E+01  0.60817520166E+02  0.10000000000E+01 0.  0.
    9000005    1    3    3    0    0 -0.46995696072E+02 -0.38104083640E+02 -0.25559971930E+02  0.65687356504E+02  0.10000000000E+01 0.  0.
<mgrwt>
<rscale>  0 0.12499974E+03</rscale>
<asrwt>0</asrwt>
<pdfrwt beam="1">  1        4 0.13381065E-01 0.12499974E+03</pdfrwt>
<pdfrwt beam="2">  1       -4 0.18245154E-01 0.12499974E+03</pdfrwt>
<totfact> 0.19753784E+03</totfact>
</mgrwt>
</event>
<event>
 5    1  0.1435323E-002  0.1249998E+03  0.7818608E-02  0.1235070E+00
          4   -1    0    0  501    0  0.00000000000E+00  0.00000000000E+00  0.74667435128E+03  0.74667543134E+03  0.12700000000E+01 0.  1.
         -4   -1    0    0    0  501 -0.00000000000E+00 -0.00000000000E+00 -0.51533346094E+01  0.53075189681E+01  0.12700000000E+01 0.  1.
         25    2    1    2    0    0  0.00000000000E+00  0.00000000000E+00  0.74152101668E+03  0.75198295031E+03  0.12499975753E+03 0.  0.
    9000005    1    3    3    0    0 -0.37562808325E+01  0.61895219353E+02  0.41740081808E+03  0.42198290340E+03  0.10000000000E+01 0.  0.
    9000005    1    3    3    0    0  0.37562808325E+01 -0.61895219353E+02  0.32412019859E+03  0.33000004691E+03  0.10000000000E+01 0.  0.
<mgrwt>
<rscale>  0 0.12499976E+03</rscale>
<asrwt>0</asrwt>
<pdfrwt beam="1">  1        4 0.18668798E+00 0.12499976E+03</pdfrwt>
<pdfrwt beam="2">  1       -4 0.13077418E-02 0.12499976E+03</pdfrwt>
<totfact> 0.56881530E+02</totfact>
</mgrwt>
</event>
<event>
 5    1  0.1435323E-002  0.1250347E+03  0.7818608E-02  0.1235015E+00
          4   -1    0    0  501    0  0.00000000000E+00  0.00000000000E+00  0.29449470636E+02  0.29476842110E+02  0.12700000000E+01 0. -1.
         -4   -1    0    0    0  501 -0.00000000000E+00 -0.00000000000E+00 -0.13262406820E+03  0.13263014878E+03  0.12700000000E+01 0. -1.
         25    2    1    2    0    0  0.00000000000E+00  0.00000000000E+00 -0.10317459756E+03  0.16210699089E+03  0.12503471083E+03 0.  0.
    9000005    1    3    3    0    0  0.36212798072E+02 -0.49628885441E+02 -0.66540720512E+02  0.90570748592E+02  0.10000000000E+01 0.  0.
    9000005    1    3    3    0    0 -0.36212798072E+02  0.49628885441E+02 -0.36633877049E+02  0.71536242297E+02  0.10000000000E+01 0.  0.
<mgrwt>
<rscale>  0 0.12503471E+03</rscale>
<asrwt>0</asrwt>
<pdfrwt beam="1">  1        4 0.73665495E-02 0.12503471E+03</pdfrwt>
<pdfrwt beam="2">  1       -4 0.33160197E-01 0.12503471E+03</pdfrwt>
<totfact> 0.17944568E+03</totfact>
</mgrwt>
</event>
<event>
 5    1  0.1435323E-002  0.1250057E+03  0.7818608E-02  0.1235060E+00
          4   -1    0    0  501    0  0.00000000000E+00  0.00000000000E+00  0.10216669786E+03  0.10217459103E+03  0.12700000000E+01 0. -1.
         -4   -1    0    0    0  501 -0.00000000000E+00 -0.00000000000E+00 -0.38217629133E+02  0.38238724829E+02  0.12700000000E+01 0. -1.
         25    2    1    2    0    0  0.00000000000E+00  0.00000000000E+00  0.63949068726E+02  0.14041331586E+03  0.12500566339E+03 0.  0.
    9000005    1    3    3    0    0  0.37028679075E+02 -0.46765374495E+02  0.11036113976E+02  0.60670578845E+02  0.10000000000E+01 0.  0.
    9000005    1    3    3    0    0 -0.37028679075E+02  0.46765374495E+02  0.52912954750E+02  0.79742737011E+02  0.10000000000E+01 0.  0.
<mgrwt>
<rscale>  0 0.12500566E+03</rscale>
<asrwt>0</asrwt>
<pdfrwt beam="1">  1        4 0.25545298E-01 0.12500566E+03</pdfrwt>
<pdfrwt beam="2">  1       -4 0.95580310E-02 0.12500566E+03</pdfrwt>
<totfact> 0.19016706E+03</totfact>
</mgrwt>
</event>
<event>
 5    1  0.1435323E-002  0.1250076E+03  0.7818608E-02  0.1235057E+00
         -4   -1    0    0    0  501 -0.00000000000E+00  0.00000000000E+00  0.12502798748E+02  0.12567134779E+02  0.12700000000E+01 0. -1.
          4   -1    0    0  501    0  0.00000000000E+00 -0.00000000000E+00 -0.31160052447E+03  0.31160311255E+03  0.12700000000E+01 0. -1.
         25    2    1    2    0    0  0.00000000000E+00  0.00000000000E+00 -0.29909772572E+03  0.32417024733E+03  0.12500759865E+03 0.  0.
    9000005    1    3    3    0    0 -0.47517047850E+01  0.61657953419E+02 -0.17295143825E+03  0.18367765762E+03  0.10000000000E+01 0.  0.
    9000005    1    3    3    0    0  0.47517047850E+01 -0.61657953419E+02 -0.12614628748E+03  0.14049258971E+03  0.10000000000E+01 0.  0.
<mgrwt>
<rscale>  0 0.12500760E+03</rscale>
<asrwt>0</asrwt>
<pdfrwt beam="2">  1        4 0.77908471E-01 0.12500760E+03</pdfrwt>
<pdfrwt beam="1">  1       -4 0.31340662E-02 0.12500760E+03</pdfrwt>
<totfact> 0.12317554E+03</totfact>
</mgrwt>
</event>
<event>
 5    1  0.1435323E-002  0.1249988E+03  0.7818608E-02  0.1235071E+00
          4   -1    0    0  501    0  0.00000000000E+00  0.00000000000E+00  0.98041974566E+02  0.98050199780E+02  0.12700000000E+01 0.  1.
         -4   -1    0    0    0  501 -0.00000000000E+00 -0.00000000000E+00 -0.39821868400E+02  0.39842114689E+02  0.12700000000E+01 0.  1.
         25    2    1    2    0    0  0.00000000000E+00  0.00000000000E+00  0.58220106166E+02  0.13789231447E+03  0.12499883850E+03 0.  0.
    9000005    1    3    3    0    0  0.50749742943E+02 -0.18526243296E+02 -0.55368854581E+01  0.54317724548E+02  0.10000000000E+01 0.  0.
    9000005    1    3    3    0    0 -0.50749742943E+02  0.18526243296E+02  0.63756991624E+02  0.83574589921E+02  0.10000000000E+01 0.  0.
<mgrwt>
<rscale>  0 0.12499884E+03</rscale>
<asrwt>0</asrwt>
<pdfrwt beam="1">  1        4 0.24514052E-01 0.12499884E+03</pdfrwt>
<pdfrwt beam="2">  1       -4 0.99590261E-02 0.12499884E+03</pdfrwt>
<totfact> 0.19149211E+03</totfact>
</mgrwt>
</event>
<event>
 5    1  0.1435323E-002  0.1249956E+03  0.7818608E-02  0.1235076E+00
          4   -1    0    0  501    0  0.00000000000E+00  0.00000000000E+00  0.33631800703E+03  0.33632040490E+03  0.12700000000E+01 0. -1.
         -4   -1    0    0    0  501 -0.00000000000E+00 -0.00000000000E+00 -0.11576764123E+02  0.11646216878E+02  0.12700000000E+01 0. -1.
         25    2    1    2    0    0  0.00000000000E+00  0.00000000000E+00  0.32474124291E+03  0.34796662178E+03  0.12499558003E+03 0.  0.
    9000005    1    3    3    0    0 -0.52577296170E+02 -0.33070103437E+02  0.14329173833E+03  0.15617786683E+03  0.10000000000E+01 0.  0.
    9000005    1    3    3    0    0  0.52577296170E+02  0.33070103437E+02  0.18144950458E+03  0.19178875495E+03  0.10000000000E+01 0.  0.
<mgrwt>
<rscale>  0 0.12499558E+03</rscale>
<asrwt>0</asrwt>
<pdfrwt beam="1">  1        4 0.84088478E-01 0.12499558E+03</pdfrwt>
<pdfrwt beam="2">  1       -4 0.29031725E-02 0.12499558E+03</pdfrwt>
<totfact> 0.11727154E+03</totfact>
</mgrwt>
</event>
<event>
 5    1  0.1435323E-002  0.1250001E+03  0.7818608E-02  0.1235069E+00
          4   -1    0    0  501    0  0.00000000000E+00  0.00000000000E+00  0.21892395873E+03  0.21892764240E+03  0.12700000000E+01 0. -1.
         -4   -1    0    0    0  501 -0.00000000000E+00 -0.00000000000E+00 -0.17816531982E+02  0.17861738769E+02  0.12700000000E+01 0. -1.
         25    2    1    2    0    0  0.00000000000E+00  0.00000000000E+00  0.20110742675E+03  0.23678938117E+03  0.12500005576E+03 0.  0.
    9000005    1    3    3    0    0  0.23677502109E+02  0.52312354957E+02  0.14726486282E+03  0.15806690485E+03  0.10000000000E+01 0.  0.
    9000005    1    3    3    0    0 -0.23677502109E+02 -0.52312354957E+02  0.53842563930E+02  0.78722476320E+02  0.10000000000E+01 0.  0.
<mgrwt>
<rscale>  0 0.12500006E+03</rscale>
<asrwt>0</asrwt>
<pdfrwt beam="1">  1        4 0.54737100E-01 0.12500006E+03</pdfrwt>
<pdfrwt beam="2">  1       -4 0.44602444E-02 0.12500006E+03</pdfrwt>
<totfact> 0.14947689E+03</totfact>
</mgrwt>
</event>
<event>
 5    1  0.1435323E-002  0.1249991E+03  0.7818608E-02  0.1235071E+00
          4   -1    0    0  501    0  0.00000000000E+00  0.00000000000E+00  0.27891988428E+02  0.27920886778E+02  0.12700000000E+01 0. -1.
         -4   -1    0    0    0  501 -0.00000000000E+00 -0.00000000000E+00 -0.13994283717E+03  0.13994859977E+03  0.12700000000E+01 0. -1.
         25    2    1    2    0    0  0.00000000000E+00  0.00000000000E+00 -0.11205084875E+03  0.16786948654E+03  0.12499908723E+03 0.  0.
    9000005    1    3    3    0    0  0.42827783252E+02 -0.29445125792E+02 -0.94270593455E+01  0.52830899094E+02  0.10000000000E+01 0.  0.
    9000005    1    3    3    0    0 -0.42827783252E+02  0.29445125792E+02 -0.10262378940E+03  0.11503858745E+03  0.10000000000E+01 0.  0.
<mgrwt>
<rscale>  0 0.12499909E+03</rscale>
<asrwt>0</asrwt>
<pdfrwt beam="1">  1        4 0.69773301E-02 0.12499909E+03</pdfrwt>
<pdfrwt beam="2">  1       -4 0.34990040E-01 0.12499909E+03</pdfrwt>
<totfact> 0.17693948E+03</totfact>
</mgrwt>
</event>
<event>
 5    1  0.1435323E-002  0.1250007E+03  0.7818608E-02  0.1235068E+00
          4   -1    0    0  501    0  0.00000000000E+00  0.00000000000E+00  0.78312625095E+01  0.79335724924E+01  0.12700000000E+01 0. -1.
         -4   -1    0    0    0  501 -0.00000000000E+00 -0.00000000000E+00 -0.49546715781E+03  0.49546878546E+03  0.12700000000E+01 0. -1.
         25    2    1    2    0    0  0.00000000000E+00  0.00000000000E+00 -0.48763589530E+03  0.50340235795E+03  0.12500067044E+03 0.  0.
    9000005    1    3    3    0    0  0.46449844857E+02  0.41502930329E+02 -0.22359733073E+03  0.23211386780E+03  0.10000000000E+01 0.  0.
    9000005    1    3    3    0    0 -0.46449844857E+02 -0.41502930329E+02 -0.26403856456E+03  0.27128849015E+03  0.10000000000E+01 0.  0.
<mgrwt>
<rscale>  0 0.12500067E+03</rscale>
<asrwt>0</asrwt>
<pdfrwt beam="1">  1        4 0.19708095E-02 0.12500067E+03</pdfrwt>
<pdfrwt beam="2">  1       -4 0.12387968E+00 0.12500067E+03</pdfrwt>
<totfact> 0.87067079E+02</totfact>
</mgrwt>
</event>
<event>
 5    1  0.1435323E-002  0.1249995E+03  0.7818608E-02  0.1235070E+00
          4   -1    0    0  501    0  0.00000000000E+00  0.00000000000E+00  0.23289058474E+03  0.23289404750E+03  0.12700000000E+01 0.  1.
         -4   -1    0    0    0  501 -0.00000000000E+00 -0.00000000000E+00 -0.16745126975E+02  0.16793218196E+02  0.12700000000E+01 0.  1.
         25    2    1    2    0    0  0.00000000000E+00  0.00000000000E+00  0.21614545777E+03  0.24968726570E+03  0.12499948695E+03 0.  0.
    9000005    1    3    3    0    0 -0.26915619975E+02 -0.53686750435E+01  0.22021709362E+03  0.22192305332E+03  0.10000000000E+01 0.  0.
    9000005    1    3    3    0    0  0.26915619975E+02  0.53686750435E+01 -0.40716358580E+01  0.27764212377E+02  0.10000000000E+01 0.  0.
<mgrwt>
<rscale>  0 0.12499949E+03</rscale>
<asrwt>0</asrwt>
<pdfrwt beam="1">  1        4 0.58229090E-01 0.12499949E+03</pdfrwt>
<pdfrwt beam="2">  1       -4 0.41927260E-02 0.12499949E+03</pdfrwt>
<totfact> 0.14508568E+03</totfact>
</mgrwt>
</event>
<event>
 5    1  0.1435323E-002  0.1249964E+03  0.7818608E-02  0.1235075E+00
          4   -1    0    0  501    0  0.00000000000E+00  0.00000000000E+00  0.14644049855E+02  0.14699016843E+02  0.12700000000E+01 0. -1.
         -4   -1    0    0    0  501 -0.00000000000E+00 -0.00000000000E+00 -0.26617492207E+03  0.26617795182E+03  0.12700000000E+01 0. -1.
         25    2    1    2    0    0  0.00000000000E+00  0.00000000000E+00 -0.25153087221E+03  0.28087696867E+03  0.12499636735E+03 0.  0.
    9000005    1    3    3    0    0 -0.25276902282E+02 -0.50455803211E+02 -0.18607405641E+03  0.19444604480E+03  0.10000000000E+01 0.  0.
    9000005    1    3    3    0    0  0.25276902282E+02  0.50455803211E+02 -0.65456815800E+02  0.86430923872E+02  0.10000000000E+01 0.  0.
<mgrwt>
<rscale>  0 0.12499637E+03</rscale>
<asrwt>0</asrwt>
<pdfrwt beam="1">  1        4 0.36682629E-02 0.12499637E+03</pdfrwt>
<pdfrwt beam="2">  1       -4 0.66550964E-01 0.12499637E+03</pdfrwt>
<totfact> 0.13525591E+03</totfact>
</mgrwt>
</event>
<event>
 5    1  0.1435323E-002  0.1249973E+03  0.7818608E-02  0.1235074E+00
          4   -1    0    0  501    0  0.00000000000E+00  0.00000000000E+00  0.85739713550E+02  0.85749118827E+02  0.12700000000E+01 0. -1.
         -4   -1    0    0    0  501 -0.00000000000E+00 -0.00000000000E+00 -0.45536640362E+02  0.45554346834E+02  0.12700000000E+01 0. -1.
         25    2    1    2    0    0  0.00000000000E+00  0.00000000000E+00  0.40203073188E+02  0.13130346566E+03  0.12499725197E+03 0.  0.
    9000005    1    3    3    0    0 -0.30461427491E+02  0.60474694162E+00  0.77414329317E+02  0.83200016030E+02  0.10000000000E+01 0.  0.
    9000005    1    3    3    0    0  0.30461427491E+02 -0.60474694162E+00 -0.37211256130E+02  0.48103449631E+02  0.10000000000E+01 0.  0.
<mgrwt>
<rscale>  0 0.12499725E+03</rscale>
<asrwt>0</asrwt>
<pdfrwt beam="1">  1        4 0.21438317E-01 0.12499725E+03</pdfrwt>
<pdfrwt beam="2">  1       -4 0.11387549E-01 0.12499725E+03</pdfrwt>
<totfact> 0.19495813E+03</totfact>
</mgrwt>
</event>
<event>
 5    1  0.1435323E-002  0.1249860E+03  0.7818608E-02  0.1235091E+00
          4   -1    0    0  501    0  0.00000000000E+00  0.00000000000E+00  0.47759770374E+02  0.47776652940E+02  0.12700000000E+01 0.  1.
         -4   -1    0    0    0  501 -0.00000000000E+00 -0.00000000000E+00 -0.81735025100E+02  0.81744891144E+02  0.12700000000E+01 0.  1.
         25    2    1    2    0    0  0.00000000000E+00  0.00000000000E+00 -0.33975254727E+02  0.12952154408E+03  0.12498604901E+03 0.  0.
    9000005    1    3    3    0    0 -0.11784906249E+02 -0.34249032286E+02  0.35776611643E+02  0.50919997726E+02  0.10000000000E+01 0.  0.
    9000005    1    3    3    0    0  0.11784906249E+02  0.34249032286E+02 -0.69751866369E+02  0.78601546358E+02  0.10000000000E+01 0.  0.
<mgrwt>
<rscale>  0 0.12498605E+03</rscale>
<asrwt>0</asrwt>
<pdfrwt beam="1">  1        4 0.11943286E-01 0.12498605E+03</pdfrwt>
<pdfrwt beam="2">  1       -4 0.20437100E-01 0.12498605E+03</pdfrwt>
<totfact> 0.19596519E+03</totfact>
</mgrwt>
</event>
<event>
 5    1  0.1435323E-002  0.1249971E+03  0.7818608E-02  0.1235074E+00
         -4   -1    0    0    0  501 -0.00000000000E+00  0.00000000000E+00  0.35901683220E+03  0.35901907847E+03  0.12700000000E+01 0.  1.
          4   -1    0    0  501    0  0.00000000000E+00 -0.00000000000E+00 -0.10840545986E+02  0.10914684479E+02  0.12700000000E+01 0.  1.
         25    2    1    2    0    0  0.00000000000E+00  0.00000000000E+00  0.34817628622E+03  0.36993376295E+03  0.12499705071E+03 0.  0.
    9000005    1    3    3    0    0  0.53007865782E+02  0.19307788596E+02  0.94540844169E+02  0.11009811875E+03  0.10000000000E+01 0.  0.
    9000005    1    3    3    0    0 -0.53007865782E+02 -0.19307788596E+02  0.25363544205E+03  0.25983564420E+03  0.10000000000E+01 0.  0.
<mgrwt>
<rscale>  0 0.12499705E+03</rscale>
<asrwt>0</asrwt>
<pdfrwt beam="2">  1        4 0.27196846E-02 0.12499705E+03</pdfrwt>
<pdfrwt beam="1">  1       -4 0.89763756E-01 0.12499705E+03</pdfrwt>
<totfact> 0.11216674E+03</totfact>
</mgrwt>
</event>
<event>
 5    1  0.1435323E-002  0.1249633E+03  0.7818608E-02  0.1235127E+00
         -4   -1    0    0    0  501 -0.00000000000E+00  0.00000000000E+00  0.18971672893E+03  0.18972097969E+03  0.12700000000E+01 0. -1.
          4   -1    0    0  501    0  0.00000000000E+00 -0.00000000000E+00 -0.20553722463E+02  0.20592921286E+02  0.12700000000E+01 0. -1.
         25    2    1    2    0    0  0.00000000000E+00  0.00000000000E+00  0.16916300647E+03  0.21031390098E+03  0.12496325135E+03 0.  0.
    9000005    1    3    3    0    0  0.42117814300E+02  0.35626891063E+01  0.16200619077E+03  0.16743240093E+03  0.10000000000E+01 0.  0.
    9000005    1    3    3    0    0 -0.42117814300E+02 -0.35626891063E+01  0.71568156960E+01  0.42881500043E+02  0.10000000000E+01 0.  0.
<mgrwt>
<rscale>  0 0.12496325E+03</rscale>
<asrwt>0</asrwt>
<pdfrwt beam="2">  1        4 0.51438620E-02 0.12496325E+03</pdfrwt>
<pdfrwt beam="1">  1       -4 0.47434612E-01 0.12496325E+03</pdfrwt>
<totfact> 0.15930739E+03</totfact>
</mgrwt>
</event>
<event>
 5    1  0.1435323E-002  0.1249993E+03  0.7818608E-02  0.1235070E+00
          4   -1    0    0  501    0  0.00000000000E+00  0.00000000000E+00  0.20927700511E+03  0.20928085858E+03  0.12700000000E+01 0.  1.
         -4   -1    0    0    0  501 -0.00000000000E+00 -0.00000000000E+00 -0.18639625152E+02  0.18682840410E+02  0.12700000000E+01 0.  1.
         25    2    1    2    0    0  0.00000000000E+00  0.00000000000E+00  0.19063737996E+03  0.22796369899E+03  0.12499934968E+03 0.  0.
    9000005    1    3    3    0    0 -0.16463141056E+02  0.50732263253E+02  0.35931165965E+02  0.64318319597E+02  0.10000000000E+01 0.  0.
    9000005    1    3    3    0    0  0.16463141056E+02 -0.50732263253E+02  0.15470621399E+03  0.16364537939E+03  0.10000000000E+01 0.  0.
<mgrwt>
<rscale>  0 0.12499935E+03</rscale>
<asrwt>0</asrwt>
<pdfrwt beam="1">  1        4 0.52325135E-01 0.12499935E+03</pdfrwt>
<pdfrwt beam="2">  1       -4 0.46657899E-02 0.12499935E+03</pdfrwt>
<totfact> 0.15260576E+03</totfact>
</mgrwt>
</event>
<event>
 5    1  0.1435323E-002  0.1250004E+03  0.7818608E-02  0.1235069E+00
          4   -1    0    0  501    0  0.00000000000E+00  0.00000000000E+00  0.78009649350E+02  0.78019986489E+02  0.12700000000E+01 0.  1.
         -4   -1    0    0    0  501 -0.00000000000E+00 -0.00000000000E+00 -0.50052580361E+02  0.50068689825E+02  0.12700000000E+01 0.  1.
         25    2    1    2    0    0  0.00000000000E+00  0.00000000000E+00  0.27957068989E+02  0.12808867631E+03  0.12500044517E+03 0.  0.
    9000005    1    3    3    0    0  0.15337065450E+02 -0.13934985675E+02  0.74391595606E+02  0.77230297805E+02  0.10000000000E+01 0.  0.
    9000005    1    3    3    0    0 -0.15337065450E+02  0.13934985675E+02 -0.46434526617E+02  0.50858378508E+02  0.10000000000E+01 0.  0.
<mgrwt>
<rscale>  0 0.12500045E+03</rscale>
<asrwt>0</asrwt>
<pdfrwt beam="1">  1        4 0.19505718E-01 0.12500045E+03</pdfrwt>
<pdfrwt beam="2">  1       -4 0.12516451E-01 0.12500045E+03</pdfrwt>
<totfact> 0.19667506E+03</totfact>
</mgrwt>
</event>
<event>
 5    1  0.1435323E-002  0.1250013E+03  0.7818608E-02  0.1235067E+00
          4   -1    0    0  501    0  0.00000000000E+00  0.00000000000E+00  0.26948503212E+03  0.26948802467E+03  0.12700000000E+01 0. -1.
         -4   -1    0    0    0  501 -0.00000000000E+00 -0.00000000000E+00 -0.14464636705E+02  0.14520282884E+02  0.12700000000E+01 0. -1.
         25    2    1    2    0    0  0.00000000000E+00  0.00000000000E+00  0.25502039542E+03  0.28400830755E+03  0.12500126671E+03 0.  0.
    9000005    1    3    3    0    0 -0.88962772519E+01  0.54616485170E+02  0.61533836581E+02  0.82761810309E+02  0.10000000000E+01 0.  0.
    9000005    1    3    3    0    0  0.88962772519E+01 -0.54616485170E+02  0.19348655884E+03  0.20124649724E+03  0.10000000000E+01 0.  0.
<mgrwt>
<rscale>  0 0.12500127E+03</rscale>
<asrwt>0</asrwt>
<pdfrwt beam="1">  1        4 0.67378586E-01 0.12500127E+03</pdfrwt>
<pdfrwt beam="2">  1       -4 0.36234891E-02 0.12500127E+03</pdfrwt>
<totfact> 0.13431002E+03</totfact>
</mgrwt>
</event>
<event>
 5    1  0.1435323E-002  0.1249998E+03  0.7818608E-02  0.1235070E+00
          4   -1    0    0  501    0  0.00000000000E+00  0.00000000000E+00  0.37983431257E+03  0.37983643572E+03  0.12700000000E+01 0.  1.
         -4   -1    0    0    0  501 -0.00000000000E+00 -0.00000000000E+00 -0.10242691746E+02  0.10321125627E+02  0.12700000000E+01 0.  1.
         25    2    1    2    0    0  0.00000000000E+00  0.00000000000E+00  0.36959162082E+03  0.39015756135E+03  0.12499982599E+03 0.  0.
    9000005    1    3    3    0    0 -0.40243857168E+02  0.41527889380E+02  0.11086033360E+03  0.12504058222E+03  0.10000000000E+01 0.  0.
    9000005    1    3    3    0    0  0.40243857168E+02 -0.41527889380E+02  0.25873128722E+03  0.26511697913E+03  0.10000000000E+01 0.  0.
<mgrwt>
<rscale>  0 0.12499983E+03</rscale>
<asrwt>0</asrwt>
<pdfrwt beam="1">  1        4 0.94968649E-01 0.12499983E+03</pdfrwt>
<pdfrwt beam="2">  1       -4 0.25707425E-02 0.12499983E+03</pdfrwt>
<totfact> 0.10774828E+03</totfact>
</mgrwt>
</event>
<event>
 5    1  0.1435323E-002  0.1249934E+03  0.7818608E-02  0.1235080E+00
          4   -1    0    0  501    0  0.00000000000E+00  0.00000000000E+00  0.26318987770E+02  0.26349611330E+02  0.12700000000E+01 0. -1.
         -4   -1    0    0    0  501 -0.00000000000E+00 -0.00000000000E+00 -0.14828408570E+03  0.14828952415E+03  0.12700000000E+01 0. -1.
         25    2    1    2    0    0  0.00000000000E+00  0.00000000000E+00 -0.12196509793E+03  0.17463913548E+03  0.12499336993E+03 0.  0.
    9000005    1    3    3    0    0 -0.32215703412E+02 -0.51950020307E+02 -0.42863262442E+02  0.74665356246E+02  0.10000000000E+01 0.  0.
    9000005    1    3    3    0    0  0.32215703412E+02  0.51950020307E+02 -0.79101835487E+02  0.99973779231E+02  0.10000000000E+01 0.  0.
<mgrwt>
<rscale>  0 0.12499337E+03</rscale>
<asrwt>0</asrwt>
<pdfrwt beam="1">  1        4 0.65842551E-02 0.12499337E+03</pdfrwt>
<pdfrwt beam="2">  1       -4 0.37075527E-01 0.12499337E+03</pdfrwt>
<totfact> 0.17392485E+03</totfact>
</mgrwt>
</event>
<event>
 5    1  0.1435323E-002  0.1250003E+03  0.7818608E-02  0.1235069E+00
          4   -1    0    0  501    0  0.00000000000E+00  0.00000000000E+00  0.51966594087E+01  0.53495952193E+01  0.12700000000E+01 0. -1.
         -4   -1    0    0    0  501 -0.00000000000E+00 -0.00000000000E+00 -0.74063493378E+03  0.74063602264E+03  0.12700000000E+01 0. -1.
         25    2    1    2    0    0  0.00000000000E+00  0.00000000000E+00 -0.73543827437E+03  0.74598561786E+03  0.12500034658E+03 0.  0.
    9000005    1    3    3    0    0 -0.29035968235E+02  0.53058069253E+02 -0.46151639212E+03  0.46546388299E+03  0.10000000000E+01 0.  0.
    9000005    1    3    3    0    0  0.29035968235E+02 -0.53058069253E+02 -0.27392188224E+03  0.28052173487E+03  0.10000000000E+01 0.  0.
<mgrwt>
<rscale>  0 0.12500035E+03</rscale>
<asrwt>0</asrwt>
<pdfrwt beam="1">  1        4 0.13184205E-02 0.12500035E+03</pdfrwt>
<pdfrwt beam="2">  1       -4 0.18517763E+00 0.12500035E+03</pdfrwt>
<totfact> 0.57454721E+02</totfact>
</mgrwt>
</event>
<event>
 5    1  0.1435323E-002  0.1250057E+03  0.7818608E-02  0.1235060E+00
         -4   -1    0    0    0  501 -0.00000000000E+00  0.00000000000E+00  0.10670532171E+03  0.10671287918E+03  0.12700000000E+01 0. -1.
          4   -1    0    0  501    0  0.00000000000E+00 -0.00000000000E+00 -0.36591313950E+02  0.36613346700E+02  0.12700000000E+01 0. -1.
         25    2    1    2    0    0  0.00000000000E+00  0.00000000000E+00  0.70114007764E+02  0.14332622588E+03  0.12500573162E+03 0.  0.
    9000005    1    3    3    0    0 -0.36757572011E+02  0.48951377548E+02  0.49480482927E+02  0.78718959944E+02  0.10000000000E+01 0.  0.
    9000005    1    3    3    0    0  0.36757572011E+02 -0.48951377548E+02  0.20633524836E+02  0.64607265931E+02  0.10000000000E+01 0.  0.
<mgrwt>
<rscale>  0 0.12500573E+03</rscale>
<asrwt>0</asrwt>
<pdfrwt beam="2">  1        4 0.91515274E-02 0.12500573E+03</pdfrwt>
<pdfrwt beam="1">  1       -4 0.26680029E-01 0.12500573E+03</pdfrwt>
<totfact> 0.18868930E+03</totfact>
</mgrwt>
</event>
<event>
 5    1  0.1435323E-002  0.1250000E+03  0.7818608E-02  0.1235069E+00
         -4   -1    0    0    0  501 -0.00000000000E+00  0.00000000000E+00  0.43152406900E+01  0.44982443478E+01  0.12700000000E+01 0.  1.
          4   -1    0    0  501    0  0.00000000000E+00 -0.00000000000E+00 -0.88624254370E+03  0.88624345367E+03  0.12700000000E+01 0.  1.
         25    2    1    2    0    0  0.00000000000E+00  0.00000000000E+00 -0.88192730301E+03  0.89074169801E+03  0.12500001914E+03 0.  0.
    9000005    1    3    3    0    0 -0.60257114775E+02 -0.58629062920E+01 -0.55134838135E+03  0.55466325925E+03  0.10000000000E+01 0.  0.
    9000005    1    3    3    0    0  0.60257114775E+02  0.58629062920E+01 -0.33057892166E+03  0.33607843876E+03  0.10000000000E+01 0.  0.
<mgrwt>
<rscale>  0 0.12500002E+03</rscale>
<asrwt>0</asrwt>
<pdfrwt beam="2">  1        4 0.22158302E+00 0.12500002E+03</pdfrwt>
<pdfrwt beam="1">  1       -4 0.11018024E-02 0.12500002E+03</pdfrwt>
<totfact> 0.44986083E+02</totfact>
</mgrwt>
</event>
<event>
 5    1  0.1435323E-002  0.1250009E+03  0.7818608E-02  0.1235068E+00
          4   -1    0    0  501    0  0.00000000000E+00  0.00000000000E+00  0.26980066726E+02  0.27009940773E+02  0.12700000000E+01 0.  1.
         -4   -1    0    0    0  501 -0.00000000000E+00 -0.00000000000E+00 -0.14467202615E+03  0.14467760037E+03  0.12700000000E+01 0.  1.
         25    2    1    2    0    0  0.00000000000E+00  0.00000000000E+00 -0.11769195942E+03  0.17168754114E+03  0.12500085789E+03 0.  0.
    9000005    1    3    3    0    0 -0.31116865821E+00  0.41254683390E+02 -0.12331609611E+03  0.13003809168E+03  0.10000000000E+01 0.  0.
    9000005    1    3    3    0    0  0.31116865821E+00 -0.41254683390E+02  0.56241366871E+01  0.41649449469E+02  0.10000000000E+01 0.  0.
<mgrwt>
<rscale>  0 0.12500086E+03</rscale>
<asrwt>0</asrwt>
<pdfrwt beam="1">  1        4 0.67494481E-02 0.12500086E+03</pdfrwt>
<pdfrwt beam="2">  1       -4 0.36172435E-01 0.12500086E+03</pdfrwt>
<totfact> 0.17520851E+03</totfact>
</mgrwt>
</event>
<event>
 5    1  0.1435323E-002  0.1250002E+03  0.7818608E-02  0.1235069E+00
         -4   -1    0    0    0  501 -0.00000000000E+00  0.00000000000E+00  0.35594992304E+03  0.35595218866E+03  0.12700000000E+01 0. -1.
          4   -1    0    0  501    0  0.00000000000E+00 -0.00000000000E+00 -0.10935144260E+02  0.11008645693E+02  0.12700000000E+01 0. -1.
         25    2    1    2    0    0  0.00000000000E+00  0.00000000000E+00  0.34501477878E+03  0.36696083435E+03  0.12500022549E+03 0.  0.
    9000005    1    3    3    0    0  0.35815676108E+02 -0.47845099546E+02  0.11890825552E+03  0.13308677409E+03  0.10000000000E+01 0.  0.
    9000005    1    3    3    0    0 -0.35815676108E+02  0.47845099546E+02  0.22610652326E+03  0.23387406027E+03  0.10000000000E+01 0.  0.
<mgrwt>
<rscale>  0 0.12500023E+03</rscale>
<asrwt>0</asrwt>
<pdfrwt beam="2">  1        4 0.27432571E-02 0.12500023E+03</pdfrwt>
<pdfrwt beam="1">  1       -4 0.88996948E-01 0.12500023E+03</pdfrwt>
<totfact> 0.11282939E+03</totfact>
</mgrwt>
</event>
<event>
 5    1  0.1435323E-002  0.1249974E+03  0.7818608E-02  0.1235073E+00
         -4   -1    0    0    0  501 -0.00000000000E+00  0.00000000000E+00  0.30111104909E+03  0.30111372732E+03  0.12700000000E+01 0. -1.
          4   -1    0    0  501    0  0.00000000000E+00 -0.00000000000E+00 -0.12938418962E+02  0.13000599418E+02  0.12700000000E+01 0. -1.
         25    2    1    2    0    0  0.00000000000E+00  0.00000000000E+00  0.28817263013E+03  0.31411432674E+03  0.12499738202E+03 0.  0.
    9000005    1    3    3    0    0 -0.50989353460E+02 -0.36126461267E+02  0.14351876392E+03  0.15653648446E+03  0.10000000000E+01 0.  0.
    9000005    1    3    3    0    0  0.50989353460E+02  0.36126461267E+02  0.14465386620E+03  0.15757784228E+03  0.10000000000E+01 0.  0.
<mgrwt>
<rscale>  0 0.12499738E+03</rscale>
<asrwt>0</asrwt>
<pdfrwt beam="2">  1        4 0.32427119E-02 0.12499738E+03</pdfrwt>
<pdfrwt beam="1">  1       -4 0.75285873E-01 0.12499738E+03</pdfrwt>
<totfact> 0.12585250E+03</totfact>
</mgrwt>
</event>
<event>
 5    1  0.1435323E-002  0.1249999E+03  0.7818608E-02  0.1235069E+00
          4   -1    0    0  501    0  0.00000000000E+00  0.00000000000E+00  0.16231227985E+02  0.16280837261E+02  0.12700000000E+01 0.  1.
         -4   -1    0    0    0  501 -0.00000000000E+00 -0.00000000000E+00 -0.24024363589E+03  0.24024699267E+03  0.12700000000E+01 0.  1.
         25    2    1    2    0    0  0.00000000000E+00  0.00000000000E+00 -0.22401240790E+03  0.25652782993E+03  0.12499987453E+03 0.  0.
    9000005    1    3    3    0    0  0.11872652077E+02  0.51237901855E+00  0.13901080567E+02  0.18315633774E+02  0.10000000000E+01 0.  0.
    9000005    1    3    3    0    0 -0.11872652077E+02 -0.51237901855E+00 -0.23791348847E+03  0.23821219615E+03  0.10000000000E+01 0.  0.
<mgrwt>
<rscale>  0 0.12499987E+03</rscale>
<asrwt>0</asrwt>
<pdfrwt beam="1">  1        4 0.40644285E-02 0.12499987E+03</pdfrwt>
<pdfrwt beam="2">  1       -4 0.60067518E-01 0.12499987E+03</pdfrwt>
<totfact> 0.14283371E+03</totfact>
</mgrwt>
</event>
<event>
 4    1  0.1435323E-002  0.1252722E+03  0.7818608E-02  0.1234645E+00
         -4   -1    0    0    0  501 -0.00000000000E+00  0.00000000000E+00  0.27228425554E+01  0.30044586170E+01  0.12700000000E+01 0. -1.
          4   -1    0    0  501    0  0.00000000000E+00 -0.00000000000E+00 -0.13697454541E+04  0.13697460429E+04  0.12700000000E+01 0. -1.
    9000005    1    1    2    0    0  0.46674113072E+02  0.40159232968E+02 -0.55806909488E+03  0.56145645556E+03  0.10000000000E+01 0.  0.
    9000005    1    1    2    0    0 -0.46674113072E+02 -0.40159232968E+02 -0.80895351670E+03  0.81129404596E+03  0.10000000000E+01 0.  0.
<mgrwt>
<rscale>  0 0.12527218E+03</rscale>
<asrwt>0</asrwt>
<pdfrwt beam="2">  1        4 0.34246939E+00 0.12527218E+03</pdfrwt>
<pdfrwt beam="1">  1       -4 0.71599094E-03 0.12527218E+03</pdfrwt>
<totfact> 0.17071180E+02</totfact>
</mgrwt>
</event>
<event>
 5    1  0.1435323E-002  0.1250016E+03  0.7818608E-02  0.1235067E+00
         -4   -1    0    0    0  501 -0.00000000000E+00  0.00000000000E+00  0.21415004986E+02  0.21452630108E+02  0.12700000000E+01 0. -1.
          4   -1    0    0  501    0  0.00000000000E+00 -0.00000000000E+00 -0.18221195349E+03  0.18221637933E+03  0.12700000000E+01 0. -1.
         25    2    1    2    0    0  0.00000000000E+00  0.00000000000E+00 -0.16079694851E+03  0.20366900944E+03  0.12500162701E+03 0.  0.
    9000005    1    3    3    0    0  0.41061509438E+02  0.29771382711E+02 -0.20911854106E+02  0.54869740550E+02  0.10000000000E+01 0.  0.
    9000005    1    3    3    0    0 -0.41061509438E+02 -0.29771382711E+02 -0.13988509440E+03  0.14879926889E+03  0.10000000000E+01 0.  0.
<mgrwt>
<rscale>  0 0.12500163E+03</rscale>
<asrwt>0</asrwt>
<pdfrwt beam="2">  1        4 0.45558240E-01 0.12500163E+03</pdfrwt>
<pdfrwt beam="1">  1       -4 0.53590082E-02 0.12500163E+03</pdfrwt>
<totfact> 0.16175567E+03</totfact>
</mgrwt>
</event>
<event>
 5    1  0.1435323E-002  0.1250018E+03  0.7818608E-02  0.1235066E+00
          4   -1    0    0  501    0  0.00000000000E+00  0.00000000000E+00  0.53111956331E+02  0.53127138125E+02  0.12700000000E+01 0. -1.
         -4   -1    0    0    0  501 -0.00000000000E+00 -0.00000000000E+00 -0.73518445830E+02  0.73529414368E+02  0.12700000000E+01 0. -1.
         25    2    1    2    0    0  0.00000000000E+00  0.00000000000E+00 -0.20406489499E+02  0.12665655249E+03  0.12500182989E+03 0.  0.
    9000005    1    3    3    0    0 -0.19947097094E+02  0.55340425033E+02  0.11168985150E+02  0.59884852464E+02  0.10000000000E+01 0.  0.
    9000005    1    3    3    0    0  0.19947097094E+02 -0.55340425033E+02 -0.31575474649E+02  0.66771700028E+02  0.10000000000E+01 0.  0.
<mgrwt>
<rscale>  0 0.12500183E+03</rscale>
<asrwt>0</asrwt>
<pdfrwt beam="1">  1        4 0.13281258E-01 0.12500183E+03</pdfrwt>
<pdfrwt beam="2">  1       -4 0.18382880E-01 0.12500183E+03</pdfrwt>
<totfact> 0.19744637E+03</totfact>
</mgrwt>
</event>
<event>
 5    1  0.1435323E-002  0.1249982E+03  0.7818608E-02  0.1235072E+00
          4   -1    0    0  501    0  0.00000000000E+00  0.00000000000E+00  0.39065680598E+02  0.39086318585E+02  0.12700000000E+01 0.  1.
         -4   -1    0    0    0  501 -0.00000000000E+00 -0.00000000000E+00 -0.99937944379E+02  0.99946013560E+02  0.12700000000E+01 0.  1.
         25    2    1    2    0    0  0.00000000000E+00  0.00000000000E+00 -0.60872263781E+02  0.13903233215E+03  0.12499822752E+03 0.  0.
    9000005    1    3    3    0    0 -0.46460528803E+02  0.26755198844E+02 -0.66145473675E+02  0.85150719842E+02  0.10000000000E+01 0.  0.
    9000005    1    3    3    0    0  0.46460528803E+02 -0.26755198844E+02  0.52732098946E+01  0.53881612304E+02  0.10000000000E+01 0.  0.
<mgrwt>
<rscale>  0 0.12499823E+03</rscale>
<asrwt>0</asrwt>
<pdfrwt beam="1">  1        4 0.97700088E-02 0.12499823E+03</pdfrwt>
<pdfrwt beam="2">  1       -4 0.24988074E-01 0.12499823E+03</pdfrwt>
<totfact> 0.19090745E+03</totfact>
</mgrwt>
</event>
<event>
 5    1  0.1435323E-002  0.1250002E+03  0.7818608E-02  0.1235069E+00
          4   -1    0    0  501    0  0.00000000000E+00  0.00000000000E+00  0.32613761589E+02  0.32638479514E+02  0.12700000000E+01 0.  1.
         -4   -1    0    0    0  501 -0.00000000000E+00 -0.00000000000E+00 -0.11969993710E+03  0.11970667417E+03  0.12700000000E+01 0.  1.
         25    2    1    2    0    0  0.00000000000E+00  0.00000000000E+00 -0.87086175512E+02  0.15234515369E+03  0.12500017555E+03 0.  0.
    9000005    1    3    3    0    0 -0.53348980918E+02  0.30882702283E+02 -0.31030403258E+02  0.69019859400E+02  0.10000000000E+01 0.  0.
    9000005    1    3    3    0    0  0.53348980918E+02 -0.30882702283E+02 -0.56055772254E+02  0.83325294289E+02  0.10000000000E+01 0.  0.
<mgrwt>
<rscale>  0 0.12500018E+03</rscale>
<asrwt>0</asrwt>
<pdfrwt beam="1">  1        4 0.81573726E-02 0.12500018E+03</pdfrwt>
<pdfrwt beam="2">  1       -4 0.29928915E-01 0.12500018E+03</pdfrwt>
<totfact> 0.18423992E+03</totfact>
</mgrwt>
</event>
<event>
 5    1  0.1435323E-002  0.1249971E+03  0.7818608E-02  0.1235074E+00
         -4   -1    0    0    0  501 -0.00000000000E+00  0.00000000000E+00  0.44840231987E+02  0.44858213347E+02  0.12700000000E+01 0.  1.
          4   -1    0    0  501    0  0.00000000000E+00 -0.00000000000E+00 -0.87070689847E+02  0.87079951369E+02  0.12700000000E+01 0.  1.
         25    2    1    2    0    0  0.00000000000E+00  0.00000000000E+00 -0.42230457860E+02  0.13193816472E+03  0.12499707092E+03 0.  0.
    9000005    1    3    3    0    0  0.23793386684E+01 -0.43648348208E+02 -0.68251794909E+02  0.81056443680E+02  0.10000000000E+01 0.  0.
    9000005    1    3    3    0    0 -0.23793386684E+01  0.43648348208E+02  0.26021337049E+02  0.50881721036E+02  0.10000000000E+01 0.  0.
<mgrwt>
<rscale>  0 0.12499707E+03</rscale>
<asrwt>0</asrwt>
<pdfrwt beam="2">  1        4 0.21771078E-01 0.12499707E+03</pdfrwt>
<pdfrwt beam="1">  1       -4 0.11213463E-01 0.12499707E+03</pdfrwt>
<totfact> 0.19462074E+03</totfact>
</mgrwt>
</event>
<event>
 5    1  0.1435323E-002  0.1249979E+03  0.7818608E-02  0.1235073E+00
         -4   -1    0    0    0  501 -0.00000000000E+00  0.00000000000E+00  0.69586420684E+02  0.69598008905E+02  0.12700000000E+01 0. -1.
          4   -1    0    0  501    0  0.00000000000E+00 -0.00000000000E+00 -0.56109860315E+02  0.56124231171E+02  0.12700000000E+01 0. -1.
         25    2    1    2    0    0  0.00000000000E+00  0.00000000000E+00  0.13476560369E+02  0.12572224008E+03  0.12499785586E+03 0.  0.
    9000005    1    3    3    0    0  0.46375089574E+01 -0.42810977069E+02 -0.38810248305E+02  0.57978630723E+02  0.10000000000E+01 0.  0.
    9000005    1    3    3    0    0 -0.46375089574E+01  0.42810977069E+02  0.52286808674E+02  0.67743609354E+02  0.10000000000E+01 0.  0.
<mgrwt>
<rscale>  0 0.12499786E+03</rscale>
<asrwt>0</asrwt>
<pdfrwt beam="2">  1        4 0.14030710E-01 0.12499786E+03</pdfrwt>
<pdfrwt beam="1">  1       -4 0.17399850E-01 0.12499786E+03</pdfrwt>
<totfact> 0.19796930E+03</totfact>
</mgrwt>
</event>
<event>
 5    1  0.1435323E-002  0.1249946E+03  0.7818608E-02  0.1235078E+00
         -4   -1    0    0    0  501 -0.00000000000E+00  0.00000000000E+00  0.48343569839E+02  0.48360248601E+02  0.12700000000E+01 0. -1.
          4   -1    0    0  501    0  0.00000000000E+00 -0.00000000000E+00 -0.80759321836E+02  0.80769307062E+02  0.12700000000E+01 0. -1.
         25    2    1    2    0    0  0.00000000000E+00  0.00000000000E+00 -0.32415751997E+02  0.12912955566E+03  0.12499464456E+03 0.  0.
    9000005    1    3    3    0    0  0.59127652712E+02 -0.20216358629E+02 -0.15828550046E+02  0.64469554582E+02  0.10000000000E+01 0.  0.
    9000005    1    3    3    0    0 -0.59127652712E+02  0.20216358629E+02 -0.16587201951E+02  0.64660001082E+02  0.10000000000E+01 0.  0.
<mgrwt>
<rscale>  0 0.12499464E+03</rscale>
<asrwt>0</asrwt>
<pdfrwt beam="2">  1        4 0.20193163E-01 0.12499464E+03</pdfrwt>
<pdfrwt beam="1">  1       -4 0.12089226E-01 0.12499464E+03</pdfrwt>
<totfact> 0.19613745E+03</totfact>
</mgrwt>
</event>
<event>
 5    1  0.1435323E-002  0.1249987E+03  0.7818608E-02  0.1235071E+00
          4   -1    0    0  501    0  0.00000000000E+00  0.00000000000E+00  0.13065127843E+03  0.13065745082E+03  0.12700000000E+01 0. -1.
         -4   -1    0    0    0  501 -0.00000000000E+00 -0.00000000000E+00 -0.29877312758E+02  0.29904292629E+02  0.12700000000E+01 0. -1.
         25    2    1    2    0    0  0.00000000000E+00  0.00000000000E+00  0.10077396567E+03  0.16056174345E+03  0.12499872520E+03 0.  0.
    9000005    1    3    3    0    0 -0.45638993719E+02  0.26648911304E+02  0.75512610712E+01  0.53395727968E+02  0.10000000000E+01 0.  0.
    9000005    1    3    3    0    0  0.45638993719E+02 -0.26648911304E+02  0.93222704602E+02  0.10716601548E+03  0.10000000000E+01 0.  0.
<mgrwt>
<rscale>  0 0.12499873E+03</rscale>
<asrwt>0</asrwt>
<pdfrwt beam="1">  1        4 0.32666963E-01 0.12499873E+03</pdfrwt>
<pdfrwt beam="2">  1       -4 0.74734723E-02 0.12499873E+03</pdfrwt>
<totfact> 0.18031884E+03</totfact>
</mgrwt>
</event>
<event>
 5    1  0.1435323E-002  0.1249997E+03  0.7818608E-02  0.1235070E+00
          4   -1    0    0  501    0  0.00000000000E+00  0.00000000000E+00  0.23123537266E+01  0.26381584025E+01  0.12700000000E+01 0. -1.
         -4   -1    0    0    0  501 -0.00000000000E+00 -0.00000000000E+00 -0.15777848768E+04  0.15777853880E+04  0.12700000000E+01 0. -1.
         25    2    1    2    0    0  0.00000000000E+00  0.00000000000E+00 -0.15754725231E+04  0.15804235464E+04  0.12499965935E+03 0.  0.
    9000005    1    3    3    0    0 -0.37135286785E+02  0.26825562166E+02 -0.25034045819E+03  0.25449948000E+03  0.10000000000E+01 0.  0.
    9000005    1    3    3    0    0  0.37135286785E+02 -0.26825562166E+02 -0.13251320649E+04  0.13259240664E+04  0.10000000000E+01 0.  0.
<mgrwt>
<rscale>  0 0.12499966E+03</rscale>
<asrwt>0</asrwt>
<pdfrwt beam="1">  1        4 0.61888332E-03 0.12499966E+03</pdfrwt>
<pdfrwt beam="2">  1       -4 0.39448356E+00 0.12499966E+03</pdfrwt>
<totfact> 0.10041593E+02</totfact>
</mgrwt>
</event>
<event>
 5    1  0.1435323E-002  0.1250013E+03  0.7818608E-02  0.1235067E+00
          4   -1    0    0  501    0  0.00000000000E+00  0.00000000000E+00  0.37865867051E+02  0.37887158609E+02  0.12700000000E+01 0.  1.
         -4   -1    0    0    0  501 -0.00000000000E+00 -0.00000000000E+00 -0.10310809978E+03  0.10311592089E+03  0.12700000000E+01 0.  1.
         25    2    1    2    0    0  0.00000000000E+00  0.00000000000E+00 -0.65242232728E+02  0.14100307949E+03  0.12500127798E+03 0.  0.
    9000005    1    3    3    0    0  0.40872484351E+02 -0.35784860159E+01  0.20550845725E+02  0.45898832220E+02  0.10000000000E+01 0.  0.
    9000005    1    3    3    0    0 -0.40872484351E+02  0.35784860159E+01 -0.85793078453E+02  0.95104247274E+02  0.10000000000E+01 0.  0.
<mgrwt>
<rscale>  0 0.12500128E+03</rscale>
<asrwt>0</asrwt>
<pdfrwt beam="1">  1        4 0.94701060E-02 0.12500128E+03</pdfrwt>
<pdfrwt beam="2">  1       -4 0.25780663E-01 0.12500128E+03</pdfrwt>
<totfact> 0.18988578E+03</totfact>
</mgrwt>
</event>
<event>
 5    1  0.1435323E-002  0.1250069E+03  0.7818608E-02  0.1235059E+00
         -4   -1    0    0    0  501 -0.00000000000E+00  0.00000000000E+00  0.35304735211E+03  0.35304963636E+03  0.12700000000E+01 0. -1.
          4   -1    0    0  501    0  0.00000000000E+00 -0.00000000000E+00 -0.11026830118E+02  0.11099724431E+02  0.12700000000E+01 0. -1.
         25    2    1    2    0    0  0.00000000000E+00  0.00000000000E+00  0.34202052199E+03  0.36414936079E+03  0.12500687780E+03 0.  0.
    9000005    1    3    3    0    0 -0.32184340464E+02 -0.31569082066E+02  0.29708918381E+03  0.30049196637E+03  0.10000000000E+01 0.  0.
    9000005    1    3    3    0    0  0.32184340464E+02  0.31569082066E+02  0.44931338176E+02  0.63657394416E+02  0.10000000000E+01 0.  0.
<mgrwt>
<rscale>  0 0.12500688E+03</rscale>
<asrwt>0</asrwt>
<pdfrwt beam="2">  1        4 0.27661048E-02 0.12500688E+03</pdfrwt>
<pdfrwt beam="1">  1       -4 0.88271236E-01 0.12500688E+03</pdfrwt>
<totfact> 0.11345199E+03</totfact>
</mgrwt>
</event>
<event>
 5    1  0.1435323E-002  0.1249883E+03  0.7818608E-02  0.1235088E+00
         -4   -1    0    0    0  501 -0.00000000000E+00  0.00000000000E+00  0.10808230460E+02  0.10882589107E+02  0.12700000000E+01 0.  1.
          4   -1    0    0  501    0  0.00000000000E+00 -0.00000000000E+00 -0.36003270905E+03  0.36003494898E+03  0.12700000000E+01 0.  1.
         25    2    1    2    0    0  0.00000000000E+00  0.00000000000E+00 -0.34922447859E+03  0.37091753809E+03  0.12498833391E+03 0.  0.
    9000005    1    3    3    0    0  0.90615901989E+01 -0.32958988591E+02 -0.32984198592E+03  0.33160992600E+03  0.10000000000E+01 0.  0.
    9000005    1    3    3    0    0 -0.90615901989E+01  0.32958988591E+02 -0.19382492672E+02  0.39307612088E+02  0.10000000000E+01 0.  0.
<mgrwt>
<rscale>  0 0.12498833E+03</rscale>
<asrwt>0</asrwt>
<pdfrwt beam="2">  1        4 0.90017712E-01 0.12498833E+03</pdfrwt>
<pdfrwt beam="1">  1       -4 0.27116336E-02 0.12498833E+03</pdfrwt>
<totfact> 0.11196834E+03</totfact>
</mgrwt>
</event>
<event>
 5    1  0.1435323E-002  0.1250023E+03  0.7818608E-02  0.1235066E+00
         -4   -1    0    0    0  501 -0.00000000000E+00  0.00000000000E+00  0.64705725788E+02  0.64718187937E+02  0.12700000000E+01 0. -1.
          4   -1    0    0  501    0  0.00000000000E+00 -0.00000000000E+00 -0.60346708852E+02  0.60360070985E+02  0.12700000000E+01 0. -1.
         25    2    1    2    0    0  0.00000000000E+00  0.00000000000E+00  0.43590169361E+01  0.12507825892E+03  0.12500227928E+03 0.  0.
    9000005    1    3    3    0    0  0.17756321656E+02 -0.24174859462E+02 -0.52677912555E+02  0.60627330965E+02  0.10000000000E+01 0.  0.
    9000005    1    3    3    0    0 -0.17756321656E+02  0.24174859462E+02  0.57036929491E+02  0.64450927957E+02  0.10000000000E+01 0.  0.
<mgrwt>
<rscale>  0 0.12500228E+03</rscale>
<asrwt>0</asrwt>
<pdfrwt beam="2">  1        4 0.15089905E-01 0.12500228E+03</pdfrwt>
<pdfrwt beam="1">  1       -4 0.16179659E-01 0.12500228E+03</pdfrwt>
<totfact> 0.19829754E+03</totfact>
</mgrwt>
</event>
<event>
 5    1  0.1435323E-002  0.1250014E+03  0.7818608E-02  0.1235067E+00
          4   -1    0    0  501    0  0.00000000000E+00  0.00000000000E+00  0.30217396069E+03  0.30217662950E+03  0.12700000000E+01 0.  1.
         -4   -1    0    0    0  501 -0.00000000000E+00 -0.00000000000E+00 -0.12893511741E+02  0.12955907727E+02  0.12700000000E+01 0.  1.
         25    2    1    2    0    0  0.00000000000E+00  0.00000000000E+00  0.28928044895E+03  0.31513253723E+03  0.12500135151E+03 0.  0.
    9000005    1    3    3    0    0 -0.42957287321E+02 -0.42452100808E+02  0.10416016781E+03  0.12040701788E+03  0.10000000000E+01 0.  0.
    9000005    1    3    3    0    0  0.42957287321E+02  0.42452100808E+02  0.18512028114E+03  0.19472551935E+03  0.10000000000E+01 0.  0.
<mgrwt>
<rscale>  0 0.12500135E+03</rscale>
<asrwt>0</asrwt>
<pdfrwt beam="1">  1        4 0.75551616E-01 0.12500135E+03</pdfrwt>
<pdfrwt beam="2">  1       -4 0.32315113E-02 0.12500135E+03</pdfrwt>
<totfact> 0.12556904E+03</totfact>
</mgrwt>
</event>
<event>
 5    1  0.1435323E-002  0.1250077E+03  0.7818608E-02  0.1235057E+00
          4   -1    0    0  501    0  0.00000000000E+00  0.00000000000E+00  0.42383057186E+03  0.42383247462E+03  0.12700000000E+01 0.  1.
         -4   -1    0    0    0  501 -0.00000000000E+00 -0.00000000000E+00 -0.91719998430E+01  0.92595076068E+01  0.12700000000E+01 0.  1.
         25    2    1    2    0    0  0.00000000000E+00  0.00000000000E+00  0.41465857202E+03  0.43309198223E+03  0.12500773465E+03 0.  0.
    9000005    1    3    3    0    0 -0.49274890597E+02 -0.21122426634E+02  0.31860255812E+03  0.32308321187E+03  0.10000000000E+01 0.  0.
    9000005    1    3    3    0    0  0.49274890597E+02  0.21122426634E+02  0.96056013896E+02  0.11000877036E+03  0.10000000000E+01 0.  0.
<mgrwt>
<rscale>  0 0.12500773E+03</rscale>
<asrwt>0</asrwt>
<pdfrwt beam="1">  1        4 0.10596881E+00 0.12500773E+03</pdfrwt>
<pdfrwt beam="2">  1       -4 0.23041765E-02 0.12500773E+03</pdfrwt>
<totfact> 0.99116255E+02</totfact>
</mgrwt>
</event>
<event>
 5    1  0.1435323E-002  0.1250143E+03  0.7818608E-02  0.1235047E+00
          4   -1    0    0  501    0  0.00000000000E+00  0.00000000000E+00  0.43912920020E+02  0.43931280936E+02  0.12700000000E+01 0.  1.
         -4   -1    0    0    0  501 -0.00000000000E+00 -0.00000000000E+00 -0.88933285306E+02  0.88942352877E+02  0.12700000000E+01 0.  1.
         25    2    1    2    0    0  0.00000000000E+00  0.00000000000E+00 -0.45020365286E+02  0.13287363381E+03  0.12501427627E+03 0.  0.
    9000005    1    3    3    0    0 -0.21955512446E+02 -0.41075681153E+02 -0.66806220800E+02  0.81445240785E+02  0.10000000000E+01 0.  0.
    9000005    1    3    3    0    0  0.21955512446E+02  0.41075681153E+02  0.21785855514E+02  0.51428393028E+02  0.10000000000E+01 0.  0.
<mgrwt>
<rscale>  0 0.12501428E+03</rscale>
<asrwt>0</asrwt>
<pdfrwt beam="1">  1        4 0.10981659E-01 0.12501428E+03</pdfrwt>
<pdfrwt beam="2">  1       -4 0.22236750E-01 0.12501428E+03</pdfrwt>
<totfact> 0.19404636E+03</totfact>
</mgrwt>
</event>
<event>
 5    1  0.1435323E-002  0.1249987E+03  0.7818608E-02  0.1235071E+00
          4   -1    0    0  501    0  0.00000000000E+00  0.00000000000E+00  0.56040870721E+03  0.56041014625E+03  0.12700000000E+01 0. -1.
         -4   -1    0    0    0  501 -0.00000000000E+00 -0.00000000000E+00 -0.69109013205E+01  0.70266248699E+01  0.12700000000E+01 0. -1.
         25    2    1    2    0    0  0.00000000000E+00  0.00000000000E+00  0.55349780589E+03  0.56743677112E+03  0.12499867236E+03 0.  0.
    9000005    1    3    3    0    0  0.51664450234E+02 -0.35122563558E+02  0.28371844439E+03  0.29051672168E+03  0.10000000000E+01 0.  0.
    9000005    1    3    3    0    0 -0.51664450234E+02  0.35122563558E+02  0.26977936150E+03  0.27692004944E+03  0.10000000000E+01 0.  0.
<mgrwt>
<rscale>  0 0.12499867E+03</rscale>
<asrwt>0</asrwt>
<pdfrwt beam="1">  1        4 0.14011681E+00 0.12499867E+03</pdfrwt>
<pdfrwt beam="2">  1       -4 0.17423708E-02 0.12499867E+03</pdfrwt>
<totfact> 0.77761376E+02</totfact>
</mgrwt>
</event>
<event>
 5    1  0.1435323E-002  0.1250000E+03  0.7818608E-02  0.1235069E+00
          4   -1    0    0  501    0  0.00000000000E+00  0.00000000000E+00  0.15251591872E+02  0.15304376976E+02  0.12700000000E+01 0. -1.
         -4   -1    0    0    0  501 -0.00000000000E+00 -0.00000000000E+00 -0.25562383570E+03  0.25562699051E+03  0.12700000000E+01 0. -1.
         25    2    1    2    0    0  0.00000000000E+00  0.00000000000E+00 -0.24037224383E+03  0.27093136748E+03  0.12499996114E+03 0.  0.
    9000005    1    3    3    0    0 -0.18277948834E+02  0.36123637261E+02 -0.17004338254E+02  0.43922068508E+02  0.10000000000E+01 0.  0.
    9000005    1    3    3    0    0  0.18277948834E+02 -0.36123637261E+02 -0.22336790557E+03  0.22700929898E+03  0.10000000000E+01 0.  0.
<mgrwt>
<rscale>  0 0.12499996E+03</rscale>
<asrwt>0</asrwt>
<pdfrwt beam="1">  1        4 0.38198913E-02 0.12499996E+03</pdfrwt>
<pdfrwt beam="2">  1       -4 0.63912938E-01 0.12499996E+03</pdfrwt>
<totfact> 0.13826750E+03</totfact>
</mgrwt>
</event>
<event>
 5    1  0.1435323E-002  0.1250017E+03  0.7818608E-02  0.1235067E+00
         -4   -1    0    0    0  501 -0.00000000000E+00  0.00000000000E+00  0.10248686705E+03  0.10249473556E+03  0.12700000000E+01 0.  1.
          4   -1    0    0  501    0  0.00000000000E+00 -0.00000000000E+00 -0.38095742656E+02  0.38116905810E+02  0.12700000000E+01 0.  1.
         25    2    1    2    0    0  0.00000000000E+00  0.00000000000E+00  0.64391124395E+02  0.14061164137E+03  0.12500166714E+03 0.  0.
    9000005    1    3    3    0    0 -0.51516740733E+02  0.13712710929E+02 -0.44854903629E+01  0.53508248342E+02  0.10000000000E+01 0.  0.
    9000005    1    3    3    0    0  0.51516740733E+02 -0.13712710929E+02  0.68876614758E+02  0.87103393030E+02  0.10000000000E+01 0.  0.
<mgrwt>
<rscale>  0 0.12500167E+03</rscale>
<asrwt>0</asrwt>
<pdfrwt beam="2">  1        4 0.95275647E-02 0.12500167E+03</pdfrwt>
<pdfrwt beam="1">  1       -4 0.25625346E-01 0.12500167E+03</pdfrwt>
<totfact> 0.19008356E+03</totfact>
</mgrwt>
</event>
<event>
 5    1  0.1435323E-002  0.1249998E+03  0.7818608E-02  0.1235070E+00
         -4   -1    0    0    0  501 -0.00000000000E+00  0.00000000000E+00  0.30097247391E+02  0.30124030284E+02  0.12700000000E+01 0.  1.
          4   -1    0    0  501    0  0.00000000000E+00 -0.00000000000E+00 -0.12969958990E+03  0.12970580758E+03  0.12700000000E+01 0.  1.
         25    2    1    2    0    0  0.00000000000E+00  0.00000000000E+00 -0.99602342506E+02  0.15982983786E+03  0.12499980175E+03 0.  0.
    9000005    1    3    3    0    0 -0.44704612038E+02  0.44157602259E+01  0.57459657089E+01  0.45299198644E+02  0.10000000000E+01 0.  0.
    9000005    1    3    3    0    0  0.44704612038E+02 -0.44157602259E+01 -0.10534830821E+03  0.11453063922E+03  0.10000000000E+01 0.  0.
<mgrwt>
<rscale>  0 0.12499980E+03</rscale>
<asrwt>0</asrwt>
<pdfrwt beam="2">  1        4 0.32429021E-01 0.12499980E+03</pdfrwt>
<pdfrwt beam="1">  1       -4 0.75284373E-02 0.12499980E+03</pdfrwt>
<totfact> 0.18065849E+03</totfact>
</mgrwt>
</event>
<event>
 5    1  0.1435323E-002  0.1249952E+03  0.7818608E-02  0.1235077E+00
         -4   -1    0    0    0  501 -0.00000000000E+00  0.00000000000E+00  0.15465927633E+02  0.15517983682E+02  0.12700000000E+01 0.  1.
          4   -1    0    0  501    0  0.00000000000E+00 -0.00000000000E+00 -0.25207382610E+03  0.25207702534E+03  0.12700000000E+01 0.  1.
         25    2    1    2    0    0  0.00000000000E+00  0.00000000000E+00 -0.23660789846E+03  0.26759500902E+03  0.12499516485E+03 0.  0.
    9000005    1    3    3    0    0 -0.40252256130E+02 -0.47747840797E+02 -0.12301739533E+03  0.13796514045E+03  0.10000000000E+01 0.  0.
    9000005    1    3    3    0    0  0.40252256130E+02  0.47747840797E+02 -0.11359050313E+03  0.12962986857E+03  0.10000000000E+01 0.  0.
<mgrwt>
<rscale>  0 0.12499516E+03</rscale>
<asrwt>0</asrwt>
<pdfrwt beam="2">  1        4 0.63025350E-01 0.12499516E+03</pdfrwt>
<pdfrwt beam="1">  1       -4 0.38733896E-02 0.12499516E+03</pdfrwt>
<totfact> 0.13932021E+03</totfact>
</mgrwt>
</event>
<event>
 5    1  0.1435323E-002  0.1250029E+03  0.7818608E-02  0.1235065E+00
         -4   -1    0    0    0  501 -0.00000000000E+00  0.00000000000E+00  0.18577780570E+03  0.18578214659E+03  0.12700000000E+01 0. -1.
          4   -1    0    0  501    0  0.00000000000E+00 -0.00000000000E+00 -0.21003666366E+02  0.21042027013E+02  0.12700000000E+01 0. -1.
         25    2    1    2    0    0  0.00000000000E+00  0.00000000000E+00  0.16477413934E+03  0.20682417360E+03  0.12500288714E+03 0.  0.
    9000005    1    3    3    0    0 -0.19630785155E+02  0.43383051206E+02  0.15424100616E+02  0.50063556981E+02  0.10000000000E+01 0.  0.
    9000005    1    3    3    0    0  0.19630785155E+02 -0.43383051206E+02  0.14935003872E+03  0.15676061662E+03  0.10000000000E+01 0.  0.
<mgrwt>
<rscale>  0 0.12500289E+03</rscale>
<asrwt>0</asrwt>
<pdfrwt beam="2">  1        4 0.52562543E-02 0.12500289E+03</pdfrwt>
<pdfrwt beam="1">  1       -4 0.46449789E-01 0.12500289E+03</pdfrwt>
<totfact> 0.16051319E+03</totfact>
</mgrwt>
</event>
<event>
 5    1  0.1435323E-002  0.1249958E+03  0.7818608E-02  0.1235076E+00
          4   -1    0    0  501    0  0.00000000000E+00  0.00000000000E+00  0.43881732021E+03  0.43881915798E+03  0.12700000000E+01 0. -1.
         -4   -1    0    0    0  501 -0.00000000000E+00 -0.00000000000E+00 -0.88540074222E+01  0.89446267352E+01  0.12700000000E+01 0. -1.
         25    2    1    2    0    0  0.00000000000E+00  0.00000000000E+00  0.42996331279E+03  0.44776378472E+03  0.12499582619E+03 0.  0.
    9000005    1    3    3    0    0  0.56433129290E+02  0.18979051577E+02  0.14700544275E+03  0.15860801581E+03  0.10000000000E+01 0.  0.
    9000005    1    3    3    0    0 -0.56433129290E+02 -0.18979051577E+02  0.28295787003E+03  0.28915576891E+03  0.10000000000E+01 0.  0.
<mgrwt>
<rscale>  0 0.12499583E+03</rscale>
<asrwt>0</asrwt>
<pdfrwt beam="1">  1        4 0.10971589E+00 0.12499583E+03</pdfrwt>
<pdfrwt beam="2">  1       -4 0.22250590E-02 0.12499583E+03</pdfrwt>
<totfact> 0.96428979E+02</totfact>
</mgrwt>
</event>
<event>
 5    1  0.1435323E-002  0.1250013E+03  0.7818608E-02  0.1235067E+00
          4   -1    0    0  501    0  0.00000000000E+00  0.00000000000E+00  0.37757320747E+03  0.37757534334E+03  0.12700000000E+01 0.  1.
         -4   -1    0    0    0  501 -0.00000000000E+00 -0.00000000000E+00 -0.10304744245E+02  0.10382709374E+02  0.12700000000E+01 0.  1.
         25    2    1    2    0    0  0.00000000000E+00  0.00000000000E+00  0.36726846322E+03  0.38795805271E+03  0.12500130634E+03 0.  0.
    9000005    1    3    3    0    0  0.18401647399E+02 -0.20247013766E+02  0.35801221537E+03  0.35905752819E+03  0.10000000000E+01 0.  0.
    9000005    1    3    3    0    0 -0.18401647399E+02  0.20247013766E+02  0.92562478492E+01  0.28900524522E+02  0.10000000000E+01 0.  0.
<mgrwt>
<rscale>  0 0.12500131E+03</rscale>
<asrwt>0</asrwt>
<pdfrwt beam="1">  1        4 0.94403321E-01 0.12500131E+03</pdfrwt>
<pdfrwt beam="2">  1       -4 0.25861985E-02 0.12500131E+03</pdfrwt>
<totfact> 0.10821198E+03</totfact>
</mgrwt>
</event>
<event>
 5    1  0.1435323E-002  0.1250001E+03  0.7818608E-02  0.1235069E+00
         -4   -1    0    0    0  501 -0.00000000000E+00  0.00000000000E+00  0.54689092683E+02  0.54703836780E+02  0.12700000000E+01 0.  1.
          4   -1    0    0  501    0  0.00000000000E+00 -0.00000000000E+00 -0.71396632660E+02  0.71407927117E+02  0.12700000000E+01 0.  1.
         25    2    1    2    0    0  0.00000000000E+00  0.00000000000E+00 -0.16707539977E+02  0.12611176390E+03  0.12500014041E+03 0.  0.
    9000005    1    3    3    0    0  0.61250338910E+02 -0.10136401714E+02 -0.15552213890E+02  0.64009546266E+02  0.10000000000E+01 0.  0.
    9000005    1    3    3    0    0 -0.61250338910E+02  0.10136401714E+02 -0.11553260868E+01  0.62102217631E+02  0.10000000000E+01 0.  0.
<mgrwt>
<rscale>  0 0.12500014E+03</rscale>
<asrwt>0</asrwt>
<pdfrwt beam="2">  1        4 0.17852413E-01 0.12500014E+03</pdfrwt>
<pdfrwt beam="1">  1       -4 0.13675528E-01 0.12500014E+03</pdfrwt>
<totfact> 0.19774817E+03</totfact>
</mgrwt>
</event>
<event>
 5    1  0.1435323E-002  0.1250065E+03  0.7818608E-02  0.1235059E+00
          4   -1    0    0  501    0  0.00000000000E+00  0.00000000000E+00  0.10628094650E+03  0.10628853414E+03  0.12700000000E+01 0.  1.
         -4   -1    0    0    0  501 -0.00000000000E+00 -0.00000000000E+00 -0.36737944271E+02  0.36759889135E+02  0.12700000000E+01 0.  1.
         25    2    1    2    0    0  0.00000000000E+00  0.00000000000E+00  0.69543002229E+02  0.14304842327E+03  0.12500648880E+03 0.  0.
    9000005    1    3    3    0    0  0.51767171756E+02  0.34758105334E+02  0.29958571017E+02  0.69184405290E+02  0.10000000000E+01 0.  0.
    9000005    1    3    3    0    0 -0.51767171756E+02 -0.34758105334E+02  0.39584431212E+02  0.73864017981E+02  0.10000000000E+01 0.  0.
<mgrwt>
<rscale>  0 0.12500649E+03</rscale>
<asrwt>0</asrwt>
<pdfrwt beam="1">  1        4 0.26573928E-01 0.12500649E+03</pdfrwt>
<pdfrwt beam="2">  1       -4 0.91881777E-02 0.12500649E+03</pdfrwt>
<totfact> 0.18882604E+03</totfact>
</mgrwt>
</event>
<event>
 5    1  0.1435323E-002  0.1249998E+03  0.7818608E-02  0.1235070E+00
         -4   -1    0    0    0  501 -0.00000000000E+00  0.00000000000E+00  0.48658751803E+01  0.50288807175E+01  0.12700000000E+01 0. -1.
          4   -1    0    0  501    0  0.00000000000E+00 -0.00000000000E+00 -0.78939422065E+03  0.78939524225E+03  0.12700000000E+01 0. -1.
         25    2    1    2    0    0  0.00000000000E+00  0.00000000000E+00 -0.78452834547E+03  0.79442412297E+03  0.12499984926E+03 0.  0.
    9000005    1    3    3    0    0 -0.59899090715E+02  0.10181840213E+02 -0.29936446590E+03  0.30546956375E+03  0.10000000000E+01 0.  0.
    9000005    1    3    3    0    0  0.59899090715E+02 -0.10181840213E+02 -0.48516387957E+03  0.48895455922E+03  0.10000000000E+01 0.  0.
<mgrwt>
<rscale>  0 0.12499985E+03</rscale>
<asrwt>0</asrwt>
<pdfrwt beam="2">  1        4 0.19736863E+00 0.12499985E+03</pdfrwt>
<pdfrwt beam="1">  1       -4 0.12369749E-02 0.12499985E+03</pdfrwt>
<totfact> 0.52973348E+02</totfact>
</mgrwt>
</event>
<event>
 5    1  0.1435323E-002  0.1250185E+03  0.7818608E-02  0.1235040E+00
          4   -1    0    0  501    0  0.00000000000E+00  0.00000000000E+00  0.56096816524E+02  0.56111190721E+02  0.12700000000E+01 0. -1.
         -4   -1    0    0    0  501 -0.00000000000E+00 -0.00000000000E+00 -0.69625554203E+02  0.69637135912E+02  0.12700000000E+01 0. -1.
         25    2    1    2    0    0  0.00000000000E+00  0.00000000000E+00 -0.13528737679E+02  0.12574832663E+03  0.12501845827E+03 0.  0.
    9000005    1    3    3    0    0  0.11297084819E+02  0.61239506430E+02 -0.12134305959E+02  0.63451892441E+02  0.10000000000E+01 0.  0.
    9000005    1    3    3    0    0 -0.11297084819E+02 -0.61239506430E+02 -0.13944317200E+01  0.62296434192E+02  0.10000000000E+01 0.  0.
<mgrwt>
<rscale>  0 0.12501846E+03</rscale>
<asrwt>0</asrwt>
<pdfrwt beam="1">  1        4 0.14027449E-01 0.12501846E+03</pdfrwt>
<pdfrwt beam="2">  1       -4 0.17409633E-01 0.12501846E+03</pdfrwt>
<totfact> 0.19785981E+03</totfact>
</mgrwt>
</event>
<event>
 5    1  0.1435323E-002  0.1250009E+03  0.7818608E-02  0.1235068E+00
          4   -1    0    0  501    0  0.00000000000E+00  0.00000000000E+00  0.50583757828E+02  0.50599698181E+02  0.12700000000E+01 0. -1.
         -4   -1    0    0    0  501 -0.00000000000E+00 -0.00000000000E+00 -0.77191187394E+02  0.77201634123E+02  0.12700000000E+01 0. -1.
         25    2    1    2    0    0  0.00000000000E+00  0.00000000000E+00 -0.26607429566E+02  0.12780133230E+03  0.12500090092E+03 0.  0.
    9000005    1    3    3    0    0 -0.10958199748E+02  0.57926893244E+02 -0.34497304042E+02  0.68313037473E+02  0.10000000000E+01 0.  0.
    9000005    1    3    3    0    0  0.10958199748E+02 -0.57926893244E+02  0.78898744767E+01  0.59488294831E+02  0.10000000000E+01 0.  0.
<mgrwt>
<rscale>  0 0.12500090E+03</rscale>
<asrwt>0</asrwt>
<pdfrwt beam="1">  1        4 0.12649238E-01 0.12500090E+03</pdfrwt>
<pdfrwt beam="2">  1       -4 0.19301095E-01 0.12500090E+03</pdfrwt>
<totfact> 0.19682937E+03</totfact>
</mgrwt>
</event>
<event>
 5    1  0.1435323E-002  0.1249981E+03  0.7818608E-02  0.1235072E+00
         -4   -1    0    0    0  501 -0.00000000000E+00  0.00000000000E+00  0.17858313606E+03  0.17858765182E+03  0.12700000000E+01 0. -1.
          4   -1    0    0  501    0  0.00000000000E+00 -0.00000000000E+00 -0.21849673853E+02  0.21886551749E+02  0.12700000000E+01 0. -1.
         25    2    1    2    0    0  0.00000000000E+00  0.00000000000E+00  0.15673346220E+03  0.20047420357E+03  0.12499811248E+03 0.  0.
    9000005    1    3    3    0    0  0.39565287558E+01 -0.54192575804E+02  0.28865038406E+02  0.61536004373E+02  0.10000000000E+01 0.  0.
    9000005    1    3    3    0    0 -0.39565287558E+01  0.54192575804E+02  0.12786842380E+03  0.13893819920E+03  0.10000000000E+01 0.  0.
<mgrwt>
<rscale>  0 0.12499811E+03</rscale>
<asrwt>0</asrwt>
<pdfrwt beam="2">  1        4 0.54675928E-02 0.12499811E+03</pdfrwt>
<pdfrwt beam="1">  1       -4 0.44650957E-01 0.12499811E+03</pdfrwt>
<totfact> 0.16303782E+03</totfact>
</mgrwt>
</event>
<event>
 5    1  0.1435323E-002  0.1249999E+03  0.7818608E-02  0.1235069E+00
         -4   -1    0    0    0  501 -0.00000000000E+00  0.00000000000E+00  0.17412606946E+02  0.17458859661E+02  0.12700000000E+01 0.  1.
          4   -1    0    0  501    0  0.00000000000E+00 -0.00000000000E+00 -0.22398857130E+03  0.22399217168E+03  0.12700000000E+01 0.  1.
         25    2    1    2    0    0  0.00000000000E+00  0.00000000000E+00 -0.20657596436E+03  0.24145103134E+03  0.12499988594E+03 0.  0.
    9000005    1    3    3    0    0 -0.36305674131E+02 -0.49901391949E+02 -0.84264616419E+02  0.10444987541E+03  0.10000000000E+01 0.  0.
    9000005    1    3    3    0    0  0.36305674131E+02  0.49901391949E+02 -0.12231134794E+03  0.13700115593E+03  0.10000000000E+01 0.  0.
<mgrwt>
<rscale>  0 0.12499989E+03</rscale>
<asrwt>0</asrwt>
<pdfrwt beam="2">  1        4 0.56003365E-01 0.12499989E+03</pdfrwt>
<pdfrwt beam="1">  1       -4 0.43593841E-02 0.12499989E+03</pdfrwt>
<totfact> 0.14786632E+03</totfact>
</mgrwt>
</event>
<event>
 5    1  0.1435323E-002  0.1249991E+03  0.7818608E-02  0.1235071E+00
          4   -1    0    0  501    0  0.00000000000E+00  0.00000000000E+00  0.35582367228E+02  0.35605024330E+02  0.12700000000E+01 0.  1.
         -4   -1    0    0    0  501 -0.00000000000E+00 -0.00000000000E+00 -0.10971762117E+03  0.10972497115E+03  0.12700000000E+01 0.  1.
         25    2    1    2    0    0  0.00000000000E+00  0.00000000000E+00 -0.74135253937E+02  0.14532999548E+03  0.12499908684E+03 0.  0.
    9000005    1    3    3    0    0 -0.40292768479E+02  0.44673445986E+02 -0.17406524465E+02  0.62635541523E+02  0.10000000000E+01 0.  0.
    9000005    1    3    3    0    0  0.40292768479E+02 -0.44673445986E+02 -0.56728729472E+02  0.82694453958E+02  0.10000000000E+01 0.  0.
<mgrwt>
<rscale>  0 0.12499909E+03</rscale>
<asrwt>0</asrwt>
<pdfrwt beam="1">  1        4 0.88993429E-02 0.12499909E+03</pdfrwt>
<pdfrwt beam="2">  1       -4 0.27433155E-01 0.12499909E+03</pdfrwt>
<totfact> 0.18771213E+03</totfact>
</mgrwt>
</event>
<event>
 5    1  0.1435323E-002  0.1250013E+03  0.7818608E-02  0.1235067E+00
         -4   -1    0    0    0  501 -0.00000000000E+00  0.00000000000E+00  0.28287298311E+03  0.28287583402E+03  0.12700000000E+01 0. -1.
          4   -1    0    0  501    0  0.00000000000E+00 -0.00000000000E+00 -0.13777353044E+02  0.13835763691E+02  0.12700000000E+01 0. -1.
         25    2    1    2    0    0  0.00000000000E+00  0.00000000000E+00  0.26909563007E+03  0.29671159771E+03  0.12500125638E+03 0.  0.
    9000005    1    3    3    0    0  0.24794314240E+02  0.15754871394E+02  0.36220696608E+01  0.29615762355E+02  0.10000000000E+01 0.  0.
    9000005    1    3    3    0    0 -0.24794314240E+02 -0.15754871394E+02  0.26547356041E+03  0.26709583536E+03  0.10000000000E+01 0.  0.
<mgrwt>
<rscale>  0 0.12500126E+03</rscale>
<asrwt>0</asrwt>
<pdfrwt beam="2">  1        4 0.34519961E-02 0.12500126E+03</pdfrwt>
<pdfrwt beam="1">  1       -4 0.70725900E-01 0.12500126E+03</pdfrwt>
<totfact> 0.13063347E+03</totfact>
</mgrwt>
</event>
<event>
 5    1  0.1435323E-002  0.1249965E+03  0.7818608E-02  0.1235075E+00
         -4   -1    0    0    0  501 -0.00000000000E+00  0.00000000000E+00  0.15793282848E+03  0.15793793468E+03  0.12700000000E+01 0.  1.
          4   -1    0    0  501    0  0.00000000000E+00 -0.00000000000E+00 -0.24710424563E+02  0.24743039064E+02  0.12700000000E+01 0.  1.
         25    2    1    2    0    0  0.00000000000E+00  0.00000000000E+00  0.13322240391E+03  0.18268097374E+03  0.12499651700E+03 0.  0.
    9000005    1    3    3    0    0 -0.22541200958E+02 -0.20519717669E+02 -0.13115210213E+02  0.33198995358E+02  0.10000000000E+01 0.  0.
    9000005    1    3    3    0    0  0.22541200958E+02  0.20519717669E+02  0.14633761413E+03  0.14948197838E+03  0.10000000000E+01 0.  0.
<mgrwt>
<rscale>  0 0.12499652E+03</rscale>
<asrwt>0</asrwt>
<pdfrwt beam="2">  1        4 0.61823213E-02 0.12499652E+03</pdfrwt>
<pdfrwt beam="1">  1       -4 0.39487921E-01 0.12499652E+03</pdfrwt>
<totfact> 0.17041169E+03</totfact>
</mgrwt>
</event>
<event>
 5    1  0.1435323E-002  0.1250152E+03  0.7818608E-02  0.1235046E+00
         -4   -1    0    0    0  501 -0.00000000000E+00  0.00000000000E+00  0.36282029679E+03  0.36282251950E+03  0.12700000000E+01 0. -1.
          4   -1    0    0  501    0  0.00000000000E+00 -0.00000000000E+00 -0.10729254186E+02  0.10804156394E+02  0.12700000000E+01 0. -1.
         25    2    1    2    0    0  0.00000000000E+00  0.00000000000E+00  0.35209104260E+03  0.37362667590E+03  0.12501516174E+03 0.  0.
    9000005    1    3    3    0    0 -0.15363545221E+02 -0.24059276013E+02  0.98778646998E+01  0.30223492437E+02  0.10000000000E+01 0.  0.
    9000005    1    3    3    0    0  0.15363545221E+02  0.24059276013E+02  0.34221317790E+03  0.34340318346E+03  0.10000000000E+01 0.  0.
<mgrwt>
<rscale>  0 0.12501516E+03</rscale>
<asrwt>0</asrwt>
<pdfrwt beam="2">  1        4 0.26919542E-02 0.12501516E+03</pdfrwt>
<pdfrwt beam="1">  1       -4 0.90714713E-01 0.12501516E+03</pdfrwt>
<totfact> 0.11129565E+03</totfact>
</mgrwt>
</event>
<event>
 5    1  0.1435323E-002  0.1249993E+03  0.7818608E-02  0.1235070E+00
         -4   -1    0    0    0  501 -0.00000000000E+00  0.00000000000E+00  0.22742627455E+02  0.22778059697E+02  0.12700000000E+01 0. -1.
          4   -1    0    0  501    0  0.00000000000E+00 -0.00000000000E+00 -0.17158562479E+03  0.17159032471E+03  0.12700000000E+01 0. -1.
         25    2    1    2    0    0  0.00000000000E+00  0.00000000000E+00 -0.14884299734E+03  0.19436838441E+03  0.12499932401E+03 0.  0.
    9000005    1    3    3    0    0  0.24454288985E+02  0.19682290015E+02  0.96008336693E+01  0.32841753869E+02  0.10000000000E+01 0.  0.
    9000005    1    3    3    0    0 -0.24454288985E+02 -0.19682290015E+02 -0.15844383101E+03  0.16152663054E+03  0.10000000000E+01 0.  0.
<mgrwt>
<rscale>  0 0.12499932E+03</rscale>
<asrwt>0</asrwt>
<pdfrwt beam="2">  1        4 0.42901419E-01 0.12499932E+03</pdfrwt>
<pdfrwt beam="1">  1       -4 0.56906739E-02 0.12499932E+03</pdfrwt>
<totfact> 0.16550310E+03</totfact>
</mgrwt>
</event>
<event>
 5    1  0.1435323E-002  0.1250017E+03  0.7818608E-02  0.1235067E+00
         -4   -1    0    0    0  501 -0.00000000000E+00  0.00000000000E+00  0.92376216976E+03  0.92376304277E+03  0.12700000000E+01 0. -1.
          4   -1    0    0  501    0  0.00000000000E+00 -0.00000000000E+00 -0.41324976927E+01  0.43232438261E+01  0.12700000000E+01 0. -1.
         25    2    1    2    0    0  0.00000000000E+00  0.00000000000E+00  0.91962967207E+03  0.92808628659E+03  0.12500168644E+03 0.  0.
    9000005    1    3    3    0    0  0.54632049789E+02 -0.25068435181E+02  0.33288515492E+03  0.33827003071E+03  0.10000000000E+01 0.  0.
    9000005    1    3    3    0    0 -0.54632049789E+02  0.25068435181E+02  0.58674451715E+03  0.58981625589E+03  0.10000000000E+01 0.  0.
<mgrwt>
<rscale>  0 0.12500169E+03</rscale>
<asrwt>0</asrwt>
<pdfrwt beam="2">  1        4 0.10570766E-02 0.12500169E+03</pdfrwt>
<pdfrwt beam="1">  1       -4 0.23096455E+00 0.12500169E+03</pdfrwt>
<totfact> 0.42167726E+02</totfact>
</mgrwt>
</event>
<event>
 5    1  0.1435323E-002  0.1249992E+03  0.7818608E-02  0.1235070E+00
          4   -1    0    0  501    0  0.00000000000E+00  0.00000000000E+00  0.85626675349E+03  0.85626769531E+03  0.12700000000E+01 0. -1.
         -4   -1    0    0    0  501 -0.00000000000E+00 -0.00000000000E+00 -0.44725459591E+01  0.46493620375E+01  0.12700000000E+01 0. -1.
         25    2    1    2    0    0  0.00000000000E+00  0.00000000000E+00  0.85179420753E+03  0.86091705735E+03  0.12499923060E+03 0.  0.
    9000005    1    3    3    0    0 -0.29876170163E+02  0.47164476555E+01  0.80252852107E+03  0.80309890894E+03  0.10000000000E+01 0.  0.
    9000005    1    3    3    0    0  0.29876170163E+02 -0.47164476555E+01  0.49265686467E+02  0.57818148406E+02  0.10000000000E+01 0.  0.
<mgrwt>
<rscale>  0 0.12499923E+03</rscale>
<asrwt>0</asrwt>
<pdfrwt beam="1">  1        4 0.21408890E+00 0.12499923E+03</pdfrwt>
<pdfrwt beam="2">  1       -4 0.11403563E-02 0.12499923E+03</pdfrwt>
<totfact> 0.47343143E+02</totfact>
</mgrwt>
</event>
<event>
 5    1  0.1435323E-002  0.1249985E+03  0.7818608E-02  0.1235072E+00
          4   -1    0    0  501    0  0.00000000000E+00  0.00000000000E+00  0.20325921329E+02  0.20365558619E+02  0.12700000000E+01 0.  1.
         -4   -1    0    0    0  501 -0.00000000000E+00 -0.00000000000E+00 -0.19194726823E+03  0.19195146960E+03  0.12700000000E+01 0.  1.
         25    2    1    2    0    0  0.00000000000E+00  0.00000000000E+00 -0.17162134690E+03  0.21231702821E+03  0.12499853503E+03 0.  0.
    9000005    1    3    3    0    0 -0.52458411411E+02  0.33923903389E+02 -0.88465148136E+02  0.10830419467E+03  0.10000000000E+01 0.  0.
    9000005    1    3    3    0    0  0.52458411411E+02 -0.33923903389E+02 -0.83156198763E+02  0.10401283354E+03  0.10000000000E+01 0.  0.
<mgrwt>
<rscale>  0 0.12499854E+03</rscale>
<asrwt>0</asrwt>
<pdfrwt beam="1">  1        4 0.50869607E-02 0.12499854E+03</pdfrwt>
<pdfrwt beam="2">  1       -4 0.47992291E-01 0.12499854E+03</pdfrwt>
<totfact> 0.15840984E+03</totfact>
</mgrwt>
</event>
<event>
 4    1  0.1435323E-002  0.1249378E+03  0.7818608E-02  0.1235167E+00
         -4   -1    0    0    0  501 -0.00000000000E+00  0.00000000000E+00  0.80294347535E+01  0.81292510393E+01  0.12700000000E+01 0. -1.
          4   -1    0    0  501    0  0.00000000000E+00 -0.00000000000E+00 -0.48290408745E+03  0.48290575745E+03  0.12700000000E+01 0. -1.
    9000005    1    1    2    0    0 -0.38497638282E+02  0.13205737440E+02 -0.51221166110E+02  0.65429867128E+02  0.10000000000E+01 0.  0.
    9000005    1    1    2    0    0  0.38497638282E+02 -0.13205737440E+02 -0.42365348658E+03  0.42560514136E+03  0.10000000000E+01 0.  0.
<mgrwt>
<rscale>  0 0.12493776E+03</rscale>
<asrwt>0</asrwt>
<pdfrwt beam="2">  1        4 0.12073861E+00 0.12493776E+03</pdfrwt>
<pdfrwt beam="1">  1       -4 0.20200461E-02 0.12493776E+03</pdfrwt>
<totfact> 0.89176053E+02</totfact>
</mgrwt>
</event>
<event>
 5    1  0.1435323E-002  0.1249998E+03  0.7818608E-02  0.1235070E+00
         -4   -1    0    0    0  501 -0.00000000000E+00  0.00000000000E+00  0.48078486123E+02  0.48095256812E+02  0.12700000000E+01 0.  1.
          4   -1    0    0  501    0  0.00000000000E+00 -0.00000000000E+00 -0.81211129596E+02  0.81221059278E+02  0.12700000000E+01 0.  1.
         25    2    1    2    0    0  0.00000000000E+00  0.00000000000E+00 -0.33132643473E+02  0.12931631609E+03  0.12499975017E+03 0.  0.
    9000005    1    3    3    0    0 -0.13495540158E+02 -0.45804535116E+02 -0.58270297115E+02  0.75343298091E+02  0.10000000000E+01 0.  0.
    9000005    1    3    3    0    0  0.13495540158E+02  0.45804535116E+02  0.25137653642E+02  0.53973017999E+02  0.10000000000E+01 0.  0.
<mgrwt>
<rscale>  0 0.12499975E+03</rscale>
<asrwt>0</asrwt>
<pdfrwt beam="2">  1        4 0.20306120E-01 0.12499975E+03</pdfrwt>
<pdfrwt beam="1">  1       -4 0.12022959E-01 0.12499975E+03</pdfrwt>
<totfact> 0.19601322E+03</totfact>
</mgrwt>
</event>
<event>
 5    1  0.1435323E-002  0.1249908E+03  0.7818608E-02  0.1235084E+00
         -4   -1    0    0    0  501 -0.00000000000E+00  0.00000000000E+00  0.27366543127E+02  0.27395995743E+02  0.12700000000E+01 0.  1.
          4   -1    0    0  501    0  0.00000000000E+00 -0.00000000000E+00 -0.14260820718E+03  0.14261386207E+03  0.12700000000E+01 0.  1.
         25    2    1    2    0    0  0.00000000000E+00  0.00000000000E+00 -0.11524166405E+03  0.17000985781E+03  0.12499084214E+03 0.  0.
    9000005    1    3    3    0    0  0.20361079729E+02 -0.51155839722E+02 -0.17427979299E+02  0.57760089749E+02  0.10000000000E+01 0.  0.
    9000005    1    3    3    0    0 -0.20361079729E+02  0.51155839722E+02 -0.97813684750E+02  0.11224976806E+03  0.10000000000E+01 0.  0.
<mgrwt>
<rscale>  0 0.12499084E+03</rscale>
<asrwt>0</asrwt>
<pdfrwt beam="2">  1        4 0.35656438E-01 0.12499084E+03</pdfrwt>
<pdfrwt beam="1">  1       -4 0.68460246E-02 0.12499084E+03</pdfrwt>
<totfact> 0.17600344E+03</totfact>
</mgrwt>
</event>
<event>
 5    1  0.1435323E-002  0.1250001E+03  0.7818608E-02  0.1235069E+00
         -4   -1    0    0    0  501 -0.00000000000E+00  0.00000000000E+00  0.73366992678E+02  0.73377983855E+02  0.12700000000E+01 0. -1.
          4   -1    0    0  501    0  0.00000000000E+00 -0.00000000000E+00 -0.53220146104E+02  0.53235297044E+02  0.12700000000E+01 0. -1.
         25    2    1    2    0    0  0.00000000000E+00  0.00000000000E+00  0.20146846573E+02  0.12661328090E+03  0.12500010989E+03 0.  0.
    9000005    1    3    3    0    0 -0.51324248461E+02 -0.19770607687E+01 -0.25983298911E+02  0.57569254569E+02  0.10000000000E+01 0.  0.
    9000005    1    3    3    0    0  0.51324248461E+02  0.19770607687E+01  0.46130145484E+02  0.69044026329E+02  0.10000000000E+01 0.  0.
<mgrwt>
<rscale>  0 0.12500011E+03</rscale>
<asrwt>0</asrwt>
<pdfrwt beam="2">  1        4 0.13308304E-01 0.12500011E+03</pdfrwt>
<pdfrwt beam="1">  1       -4 0.18345016E-01 0.12500011E+03</pdfrwt>
<totfact> 0.19747765E+03</totfact>
</mgrwt>
</event>
<event>
 5    1  0.1435323E-002  0.1250017E+03  0.7818608E-02  0.1235067E+00
          4   -1    0    0  501    0  0.00000000000E+00  0.00000000000E+00  0.72365938496E+02  0.72377081693E+02  0.12700000000E+01 0. -1.
         -4   -1    0    0    0  501 -0.00000000000E+00 -0.00000000000E+00 -0.53957823622E+02  0.53972767485E+02  0.12700000000E+01 0. -1.
         25    2    1    2    0    0  0.00000000000E+00  0.00000000000E+00  0.18408114874E+02  0.12634984918E+03  0.12500170277E+03 0.  0.
    9000005    1    3    3    0    0  0.33747658052E+02 -0.47815678745E+02 -0.12943736333E+02  0.59948176520E+02  0.10000000000E+01 0.  0.
    9000005    1    3    3    0    0 -0.33747658052E+02  0.47815678745E+02  0.31351851207E+02  0.66401672659E+02  0.10000000000E+01 0.  0.
<mgrwt>
<rscale>  0 0.12500170E+03</rscale>
<asrwt>0</asrwt>
<pdfrwt beam="1">  1        4 0.18094745E-01 0.12500170E+03</pdfrwt>
<pdfrwt beam="2">  1       -4 0.13492717E-01 0.12500170E+03</pdfrwt>
<totfact> 0.19761239E+03</totfact>
</mgrwt>
</event>
<event>
 5    1  0.1435323E-002  0.1250037E+03  0.7818608E-02  0.1235063E+00
          4   -1    0    0  501    0  0.00000000000E+00  0.00000000000E+00  0.88237666833E+02  0.88246805880E+02  0.12700000000E+01 0.  1.
         -4   -1    0    0    0  501 -0.00000000000E+00 -0.00000000000E+00 -0.44251728532E+02  0.44269948928E+02  0.12700000000E+01 0.  1.
         25    2    1    2    0    0  0.00000000000E+00  0.00000000000E+00  0.43985938300E+02  0.13251675481E+03  0.12500371009E+03 0.  0.
    9000005    1    3    3    0    0  0.51977057627E+01  0.44316652718E+02 -0.24391819039E+02  0.50861996514E+02  0.10000000000E+01 0.  0.
    9000005    1    3    3    0    0 -0.51977057627E+01 -0.44316652718E+02  0.68377757339E+02  0.81654758294E+02  0.10000000000E+01 0.  0.
<mgrwt>
<rscale>  0 0.12500371E+03</rscale>
<asrwt>0</asrwt>
<pdfrwt beam="1">  1        4 0.22062836E-01 0.12500371E+03</pdfrwt>
<pdfrwt beam="2">  1       -4 0.11066352E-01 0.12500371E+03</pdfrwt>
<totfact> 0.19428329E+03</totfact>
</mgrwt>
</event>
<event>
 5    1  0.1435323E-002  0.1249986E+03  0.7818608E-02  0.1235071E+00
         -4   -1    0    0    0  501 -0.00000000000E+00  0.00000000000E+00  0.13514788375E+03  0.13515385078E+03  0.12700000000E+01 0. -1.
          4   -1    0    0  501    0  0.00000000000E+00 -0.00000000000E+00 -0.28882329782E+02  0.28910238215E+02  0.12700000000E+01 0. -1.
         25    2    1    2    0    0  0.00000000000E+00  0.00000000000E+00  0.10626555396E+03  0.16406408900E+03  0.12499862935E+03 0.  0.
    9000005    1    3    3    0    0  0.18512684267E+02  0.19645626668E+02 -0.20841770035E+02  0.34118169707E+02  0.10000000000E+01 0.  0.
    9000005    1    3    3    0    0 -0.18512684267E+02 -0.19645626668E+02  0.12710732400E+03  0.12994591929E+03  0.10000000000E+01 0.  0.
<mgrwt>
<rscale>  0 0.12499863E+03</rscale>
<asrwt>0</asrwt>
<pdfrwt beam="2">  1        4 0.72248170E-02 0.12499863E+03</pdfrwt>
<pdfrwt beam="1">  1       -4 0.33791205E-01 0.12499863E+03</pdfrwt>
<totfact> 0.17868722E+03</totfact>
</mgrwt>
</event>
<event>
 5    1  0.1435323E-002  0.1250001E+03  0.7818608E-02  0.1235069E+00
          4   -1    0    0  501    0  0.00000000000E+00  0.00000000000E+00  0.36356483719E+02  0.36378658695E+02  0.12700000000E+01 0. -1.
         -4   -1    0    0    0  501 -0.00000000000E+00 -0.00000000000E+00 -0.10738448370E+03  0.10739199337E+03  0.12700000000E+01 0. -1.
         25    2    1    2    0    0  0.00000000000E+00  0.00000000000E+00 -0.71027999980E+02  0.14377065206E+03  0.12500009445E+03 0.  0.
    9000005    1    3    3    0    0 -0.12596294967E+02  0.58744435283E+02 -0.55291495824E+02  0.81656137762E+02  0.10000000000E+01 0.  0.
    9000005    1    3    3    0    0  0.12596294967E+02 -0.58744435283E+02 -0.15736504156E+02  0.62114514300E+02  0.10000000000E+01 0.  0.
<mgrwt>
<rscale>  0 0.12500009E+03</rscale>
<asrwt>0</asrwt>
<pdfrwt beam="1">  1        4 0.90928318E-02 0.12500009E+03</pdfrwt>
<pdfrwt beam="2">  1       -4 0.26849831E-01 0.12500009E+03</pdfrwt>
<totfact> 0.18849033E+03</totfact>
</mgrwt>
</event>
<event>
 5    1  0.1435323E-002  0.1250000E+03  0.7818608E-02  0.1235069E+00
          4   -1    0    0  501    0  0.00000000000E+00  0.00000000000E+00  0.56729912397E+02  0.56744126221E+02  0.12700000000E+01 0.  1.
         -4   -1    0    0    0  501 -0.00000000000E+00 -0.00000000000E+00 -0.68828275296E+02  0.68839991141E+02  0.12700000000E+01 0.  1.
         25    2    1    2    0    0  0.00000000000E+00  0.00000000000E+00 -0.12098362899E+02  0.12558411736E+03  0.12500000060E+03 0.  0.
    9000005    1    3    3    0    0 -0.33619993537E+02 -0.16010708531E+02 -0.56469383903E+02  0.67649375988E+02  0.10000000000E+01 0.  0.
    9000005    1    3    3    0    0  0.33619993537E+02  0.16010708531E+02  0.44371021004E+02  0.57934741374E+02  0.10000000000E+01 0.  0.
<mgrwt>
<rscale>  0 0.12500000E+03</rscale>
<asrwt>0</asrwt>
<pdfrwt beam="1">  1        4 0.14185719E-01 0.12500000E+03</pdfrwt>
<pdfrwt beam="2">  1       -4 0.17210310E-01 0.12500000E+03</pdfrwt>
<totfact> 0.19803410E+03</totfact>
</mgrwt>
</event>
<event>
 4    1  0.1435323E-002  0.1234696E+03  0.7818608E-02  0.1237481E+00
         -4   -1    0    0    0  501 -0.00000000000E+00  0.00000000000E+00  0.10329950112E+02  0.10407726424E+02  0.12700000000E+01 0.  1.
          4   -1    0    0  501    0  0.00000000000E+00 -0.00000000000E+00 -0.36748279863E+03  0.36748499315E+03  0.12700000000E+01 0.  1.
    9000005    1    1    2    0    0  0.60681595070E+02  0.89982879405E+01 -0.15760231379E+03  0.16912337059E+03  0.10000000000E+01 0.  0.
    9000005    1    1    2    0    0 -0.60681595070E+02 -0.89982879405E+01 -0.19955053472E+03  0.20876934898E+03  0.10000000000E+01 0.  0.
<mgrwt>
<rscale>  0 0.12346963E+03</rscale>
<asrwt>0</asrwt>
<pdfrwt beam="2">  1        4 0.91880653E-01 0.12346963E+03</pdfrwt>
<pdfrwt beam="1">  1       -4 0.25924851E-02 0.12346963E+03</pdfrwt>
<totfact> 0.11433299E+03</totfact>
</mgrwt>
</event>
<event>
 5    1  0.1435323E-002  0.1249961E+03  0.7818608E-02  0.1235075E+00
         -4   -1    0    0    0  501 -0.00000000000E+00  0.00000000000E+00  0.11144251959E+02  0.11216383184E+02  0.12700000000E+01 0. -1.
          4   -1    0    0  501    0  0.00000000000E+00 -0.00000000000E+00 -0.34929108432E+03  0.34929339313E+03  0.12700000000E+01 0. -1.
         25    2    1    2    0    0  0.00000000000E+00  0.00000000000E+00 -0.33814683236E+03  0.36050977632E+03  0.12499607427E+03 0.  0.
    9000005    1    3    3    0    0 -0.48427285963E+01  0.60275772294E+02 -0.21452849276E+03  0.22289032045E+03  0.10000000000E+01 0.  0.
    9000005    1    3    3    0    0  0.48427285963E+01 -0.60275772294E+02 -0.12361833960E+03  0.13761945586E+03  0.10000000000E+01 0.  0.
<mgrwt>
<rscale>  0 0.12499607E+03</rscale>
<asrwt>0</asrwt>
<pdfrwt beam="2">  1        4 0.87332040E-01 0.12499607E+03</pdfrwt>
<pdfrwt beam="1">  1       -4 0.27953691E-02 0.12499607E+03</pdfrwt>
<totfact> 0.11431637E+03</totfact>
</mgrwt>
</event>
<event>
 5    1  0.1435323E-002  0.1250158E+03  0.7818608E-02  0.1235045E+00
          4   -1    0    0  501    0  0.00000000000E+00  0.00000000000E+00  0.15979657792E+02  0.16030045638E+02  0.12700000000E+01 0. -1.
         -4   -1    0    0    0  501 -0.00000000000E+00 -0.00000000000E+00 -0.24407617749E+03  0.24407948156E+03  0.12700000000E+01 0. -1.
         25    2    1    2    0    0  0.00000000000E+00  0.00000000000E+00 -0.22809651970E+03  0.26010952720E+03  0.12501577437E+03 0.  0.
    9000005    1    3    3    0    0  0.38048053389E+02 -0.46431120832E+02 -0.77847219787E+02  0.98309170361E+02  0.10000000000E+01 0.  0.
    9000005    1    3    3    0    0 -0.38048053389E+02  0.46431120832E+02 -0.15024929992E+03  0.16180035684E+03  0.10000000000E+01 0.  0.
<mgrwt>
<rscale>  0 0.12501577E+03</rscale>
<asrwt>0</asrwt>
<pdfrwt beam="1">  1        4 0.40016267E-02 0.12501577E+03</pdfrwt>
<pdfrwt beam="2">  1       -4 0.61025744E-01 0.12501577E+03</pdfrwt>
<totfact> 0.14162501E+03</totfact>
</mgrwt>
</event>
<event>
 5    1  0.1435323E-002  0.1250335E+03  0.7818608E-02  0.1235017E+00
          4   -1    0    0  501    0  0.00000000000E+00  0.00000000000E+00  0.18429049701E+02  0.18472757587E+02  0.12700000000E+01 0. -1.
         -4   -1    0    0    0  501 -0.00000000000E+00 -0.00000000000E+00 -0.21177846606E+03  0.21178227401E+03  0.12700000000E+01 0. -1.
         25    2    1    2    0    0  0.00000000000E+00  0.00000000000E+00 -0.19334941636E+03  0.23025503160E+03  0.12503352659E+03 0.  0.
    9000005    1    3    3    0    0  0.60856229881E+02 -0.36744546566E+01 -0.12208293337E+03  0.13646327328E+03  0.10000000000E+01 0.  0.
    9000005    1    3    3    0    0 -0.60856229881E+02  0.36744546566E+01 -0.71266482986E+02  0.93791758324E+02  0.10000000000E+01 0.  0.
<mgrwt>
<rscale>  0 0.12503353E+03</rscale>
<asrwt>0</asrwt>
<pdfrwt beam="1">  1        4 0.46132026E-02 0.12503353E+03</pdfrwt>
<pdfrwt beam="2">  1       -4 0.52950548E-01 0.12503353E+03</pdfrwt>
<totfact> 0.15166480E+03</totfact>
</mgrwt>
</event>
<event>
 5    1  0.1435323E-002  0.1250028E+03  0.7818608E-02  0.1235065E+00
          4   -1    0    0  501    0  0.00000000000E+00  0.00000000000E+00  0.93427328990E+02  0.93435960434E+02  0.12700000000E+01 0. -1.
         -4   -1    0    0    0  501 -0.00000000000E+00 -0.00000000000E+00 -0.41792208939E+02  0.41811501145E+02  0.12700000000E+01 0. -1.
         25    2    1    2    0    0  0.00000000000E+00  0.00000000000E+00  0.51635120052E+02  0.13524746158E+03  0.12500276093E+03 0.  0.
    9000005    1    3    3    0    0  0.32364806355E+02  0.52678194012E+02  0.35671661861E+02  0.71385854864E+02  0.10000000000E+01 0.  0.
    9000005    1    3    3    0    0 -0.32364806355E+02 -0.52678194012E+02  0.15963458190E+02  0.63861606715E+02  0.10000000000E+01 0.  0.
<mgrwt>
<rscale>  0 0.12500276E+03</rscale>
<asrwt>0</asrwt>
<pdfrwt beam="1">  1        4 0.23360322E-01 0.12500276E+03</pdfrwt>
<pdfrwt beam="2">  1       -4 0.10451543E-01 0.12500276E+03</pdfrwt>
<totfact> 0.19284941E+03</totfact>
</mgrwt>
</event>
<event>
 5    1  0.1435323E-002  0.1249973E+03  0.7818608E-02  0.1235073E+00
          4   -1    0    0  501    0  0.00000000000E+00  0.00000000000E+00  0.11520403127E+04  0.11520410127E+04  0.12700000000E+01 0.  1.
         -4   -1    0    0    0  501 -0.00000000000E+00 -0.00000000000E+00 -0.32709264043E+01  0.35088259492E+01  0.12700000000E+01 0.  1.
         25    2    1    2    0    0  0.00000000000E+00  0.00000000000E+00  0.11487693863E+04  0.11555498387E+04  0.12499730699E+03 0.  0.
    9000005    1    3    3    0    0  0.16949179524E+02 -0.45649075774E+02  0.21231156026E+03  0.21782633318E+03  0.10000000000E+01 0.  0.
    9000005    1    3    3    0    0 -0.16949179524E+02  0.45649075774E+02  0.93645782604E+03  0.93772350550E+03  0.10000000000E+01 0.  0.
<mgrwt>
<rscale>  0 0.12499731E+03</rscale>
<asrwt>0</asrwt>
<pdfrwt beam="1">  1        4 0.28803977E+00 0.12499731E+03</pdfrwt>
<pdfrwt beam="2">  1       -4 0.84755695E-03 0.12499731E+03</pdfrwt>
<totfact> 0.27597309E+02</totfact>
</mgrwt>
</event>
<event>
 5    1  0.1435323E-002  0.1249962E+03  0.7818608E-02  0.1235075E+00
          4   -1    0    0  501    0  0.00000000000E+00  0.00000000000E+00  0.37109180921E+02  0.37130906381E+02  0.12700000000E+01 0.  1.
         -4   -1    0    0    0  501 -0.00000000000E+00 -0.00000000000E+00 -0.10520099223E+03  0.10520865776E+03  0.12700000000E+01 0.  1.
         25    2    1    2    0    0  0.00000000000E+00  0.00000000000E+00 -0.68091811313E+02  0.14233956414E+03  0.12499622695E+03 0.  0.
    9000005    1    3    3    0    0  0.38376243089E+02  0.37018065067E+02 -0.71154877749E+02  0.88921818483E+02  0.10000000000E+01 0.  0.
    9000005    1    3    3    0    0 -0.38376243089E+02 -0.37018065067E+02  0.30630664359E+01  0.53417745655E+02  0.10000000000E+01 0.  0.
<mgrwt>
<rscale>  0 0.12499623E+03</rscale>
<asrwt>0</asrwt>
<pdfrwt beam="1">  1        4 0.92809693E-02 0.12499623E+03</pdfrwt>
<pdfrwt beam="2">  1       -4 0.26303921E-01 0.12499623E+03</pdfrwt>
<totfact> 0.18922951E+03</totfact>
</mgrwt>
</event>
<event>
 5    1  0.1435323E-002  0.1250096E+03  0.7818608E-02  0.1235054E+00
         -4   -1    0    0    0  501 -0.00000000000E+00  0.00000000000E+00  0.70725035218E+02  0.70736436909E+02  0.12700000000E+01 0.  1.
          4   -1    0    0  501    0  0.00000000000E+00 -0.00000000000E+00 -0.55216791311E+02  0.55231394539E+02  0.12700000000E+01 0.  1.
         25    2    1    2    0    0  0.00000000000E+00  0.00000000000E+00  0.15508243907E+02  0.12596783145E+03  0.12500955536E+03 0.  0.
    9000005    1    3    3    0    0 -0.22206663823E+02 -0.41519761044E+02 -0.33656163255E+02  0.57885782368E+02  0.10000000000E+01 0.  0.
    9000005    1    3    3    0    0  0.22206663823E+02  0.41519761044E+02  0.49164407162E+02  0.68082049080E+02  0.10000000000E+01 0.  0.
<mgrwt>
<rscale>  0 0.12500956E+03</rscale>
<asrwt>0</asrwt>
<pdfrwt beam="2">  1        4 0.13807449E-01 0.12500956E+03</pdfrwt>
<pdfrwt beam="1">  1       -4 0.17684509E-01 0.12500956E+03</pdfrwt>
<totfact> 0.19778237E+03</totfact>
</mgrwt>
</event>
<event>
 5    1  0.1435323E-002  0.1249952E+03  0.7818608E-02  0.1235077E+00
          4   -1    0    0  501    0  0.00000000000E+00  0.00000000000E+00  0.59055186059E+01  0.60405339171E+01  0.12700000000E+01 0. -1.
         -4   -1    0    0    0  501 -0.00000000000E+00 -0.00000000000E+00 -0.65379571087E+03  0.65379694436E+03  0.12700000000E+01 0. -1.
         25    2    1    2    0    0  0.00000000000E+00  0.00000000000E+00 -0.64789019227E+03  0.65983747828E+03  0.12499518593E+03 0.  0.
    9000005    1    3    3    0    0 -0.30208497653E+02 -0.49128769046E+02 -0.45094192874E+03  0.45461611539E+03  0.10000000000E+01 0.  0.
    9000005    1    3    3    0    0  0.30208497653E+02  0.49128769046E+02 -0.19694826353E+03  0.20522136289E+03  0.10000000000E+01 0.  0.
<mgrwt>
<rscale>  0 0.12499519E+03</rscale>
<asrwt>0</asrwt>
<pdfrwt beam="1">  1        4 0.14934130E-02 0.12499519E+03</pdfrwt>
<pdfrwt beam="2">  1       -4 0.16346572E+00 0.12499519E+03</pdfrwt>
<totfact> 0.66403795E+02</totfact>
</mgrwt>
</event>
<event>
 5    1  0.1435323E-002  0.1250033E+03  0.7818608E-02  0.1235064E+00
         -4   -1    0    0    0  501 -0.00000000000E+00  0.00000000000E+00  0.27110952175E+02  0.27140682155E+02  0.12700000000E+01 0. -1.
          4   -1    0    0  501    0  0.00000000000E+00 -0.00000000000E+00 -0.14397992256E+03  0.14398552357E+03  0.12700000000E+01 0. -1.
         25    2    1    2    0    0  0.00000000000E+00  0.00000000000E+00 -0.11686897038E+03  0.17112620573E+03  0.12500328815E+03 0.  0.
    9000005    1    3    3    0    0 -0.58729472142E+02 -0.11160951644E+02 -0.33500451252E+02  0.68534647980E+02  0.10000000000E+01 0.  0.
    9000005    1    3    3    0    0  0.58729472142E+02  0.11160951644E+02 -0.83368519129E+02  0.10259155775E+03  0.10000000000E+01 0.  0.
<mgrwt>
<rscale>  0 0.12500329E+03</rscale>
<asrwt>0</asrwt>
<pdfrwt beam="2">  1        4 0.35999395E-01 0.12500329E+03</pdfrwt>
<pdfrwt beam="1">  1       -4 0.67821548E-02 0.12500329E+03</pdfrwt>
<totfact> 0.17545031E+03</totfact>
</mgrwt>
</event>
<event>
 5    1  0.1435323E-002  0.1250019E+03  0.7818608E-02  0.1235066E+00
          4   -1    0    0  501    0  0.00000000000E+00  0.00000000000E+00  0.36279793094E+01  0.38438436323E+01  0.12700000000E+01 0.  1.
         -4   -1    0    0    0  501 -0.00000000000E+00 -0.00000000000E+00 -0.10454108310E+04  0.10454116025E+04  0.12700000000E+01 0.  1.
         25    2    1    2    0    0  0.00000000000E+00  0.00000000000E+00 -0.10417828517E+04  0.10492554461E+04  0.12500192395E+03 0.  0.
    9000005    1    3    3    0    0  0.59497099558E+02  0.11255717587E+02 -0.65059688237E+03  0.65340944237E+03  0.10000000000E+01 0.  0.
    9000005    1    3    3    0    0 -0.59497099558E+02 -0.11255717587E+02 -0.39118596936E+03  0.39584600372E+03  0.10000000000E+01 0.  0.
<mgrwt>
<rscale>  0 0.12500192E+03</rscale>
<asrwt>0</asrwt>
<pdfrwt beam="1">  1        4 0.93407787E-03 0.12500192E+03</pdfrwt>
<pdfrwt beam="2">  1       -4 0.26137879E+00 0.12500192E+03</pdfrwt>
<totfact> 0.33894054E+02</totfact>
</mgrwt>
</event>
<event>
 5    1  0.1435323E-002  0.1250029E+03  0.7818608E-02  0.1235065E+00
          4   -1    0    0  501    0  0.00000000000E+00  0.00000000000E+00  0.35171355387E+02  0.35194277088E+02  0.12700000000E+01 0. -1.
         -4   -1    0    0    0  501 -0.00000000000E+00 -0.00000000000E+00 -0.11100576928E+03  0.11101303398E+03  0.12700000000E+01 0. -1.
         25    2    1    2    0    0  0.00000000000E+00  0.00000000000E+00 -0.75834413894E+02  0.14620731107E+03  0.12500287788E+03 0.  0.
    9000005    1    3    3    0    0  0.38411850491E+02 -0.16377136515E+02 -0.92298773346E+02  0.10131013977E+03  0.10000000000E+01 0.  0.
    9000005    1    3    3    0    0 -0.38411850491E+02  0.16377136515E+02  0.16464359452E+02  0.44897171300E+02  0.10000000000E+01 0.  0.
<mgrwt>
<rscale>  0 0.12500288E+03</rscale>
<asrwt>0</asrwt>
<pdfrwt beam="1">  1        4 0.87966124E-02 0.12500288E+03</pdfrwt>
<pdfrwt beam="2">  1       -4 0.27755215E-01 0.12500288E+03</pdfrwt>
<totfact> 0.18725599E+03</totfact>
</mgrwt>
</event>
<event>
 5    1  0.1435323E-002  0.1249973E+03  0.7818608E-02  0.1235074E+00
          4   -1    0    0  501    0  0.00000000000E+00  0.00000000000E+00  0.11185615112E+04  0.11185622322E+04  0.12700000000E+01 0. -1.
         -4   -1    0    0    0  501 -0.00000000000E+00 -0.00000000000E+00 -0.33758399836E+01  0.36068262496E+01  0.12700000000E+01 0. -1.
         25    2    1    2    0    0  0.00000000000E+00  0.00000000000E+00  0.11151856712E+04  0.11221690584E+04  0.12499725752E+03 0.  0.
    9000005    1    3    3    0    0 -0.60671707490E+02  0.55907696728E+00  0.42331620154E+03  0.42764351409E+03  0.10000000000E+01 0.  0.
    9000005    1    3    3    0    0  0.60671707490E+02 -0.55907696728E+00  0.69186946967E+03  0.69452554432E+03  0.10000000000E+01 0.  0.
<mgrwt>
<rscale>  0 0.12499726E+03</rscale>
<asrwt>0</asrwt>
<pdfrwt beam="1">  1        4 0.27966903E+00 0.12499726E+03</pdfrwt>
<pdfrwt beam="2">  1       -4 0.87292438E-03 0.12499726E+03</pdfrwt>
<totfact> 0.29486119E+02</totfact>
</mgrwt>
</event>
<event>
 5    1  0.1435323E-002  0.1250001E+03  0.7818608E-02  0.1235069E+00
         -4   -1    0    0    0  501 -0.00000000000E+00  0.00000000000E+00  0.92018146536E+02  0.92026910151E+02  0.12700000000E+01 0.  1.
          4   -1    0    0  501    0  0.00000000000E+00 -0.00000000000E+00 -0.42430640828E+02  0.42449642885E+02  0.12700000000E+01 0.  1.
         25    2    1    2    0    0  0.00000000000E+00  0.00000000000E+00  0.49587505709E+02  0.13447655304E+03  0.12500009038E+03 0.  0.
    9000005    1    3    3    0    0  0.17783326630E+02 -0.33723272727E+02  0.78062725071E+02  0.86880923539E+02  0.10000000000E+01 0.  0.
    9000005    1    3    3    0    0 -0.17783326630E+02  0.33723272727E+02 -0.28475219363E+02  0.47595629497E+02  0.10000000000E+01 0.  0.
<mgrwt>
<rscale>  0 0.12500009E+03</rscale>
<asrwt>0</asrwt>
<pdfrwt beam="2">  1        4 0.10611131E-01 0.12500009E+03</pdfrwt>
<pdfrwt beam="1">  1       -4 0.23008007E-01 0.12500009E+03</pdfrwt>
<totfact> 0.19326549E+03</totfact>
</mgrwt>
</event>
<event>
 5    1  0.1435323E-002  0.1249983E+03  0.7818608E-02  0.1235072E+00
         -4   -1    0    0    0  501 -0.00000000000E+00  0.00000000000E+00  0.31918772975E+02  0.31944028679E+02  0.12700000000E+01 0.  1.
          4   -1    0    0  501    0  0.00000000000E+00 -0.00000000000E+00 -0.12230071966E+03  0.12230731347E+03  0.12700000000E+01 0.  1.
         25    2    1    2    0    0  0.00000000000E+00  0.00000000000E+00 -0.90381946681E+02  0.15425134215E+03  0.12499832106E+03 0.  0.
    9000005    1    3    3    0    0  0.29061837075E+02  0.47005029105E+02 -0.81191632876E+02  0.98219877745E+02  0.10000000000E+01 0.  0.
    9000005    1    3    3    0    0 -0.29061837075E+02 -0.47005029105E+02 -0.91903138053E+01  0.56031464403E+02  0.10000000000E+01 0.  0.
<mgrwt>
<rscale>  0 0.12499832E+03</rscale>
<asrwt>0</asrwt>
<pdfrwt beam="2">  1        4 0.30579160E-01 0.12499832E+03</pdfrwt>
<pdfrwt beam="1">  1       -4 0.79836747E-02 0.12499832E+03</pdfrwt>
<totfact> 0.18332415E+03</totfact>
</mgrwt>
</event>
<event>
 5    1  0.1435323E-002  0.1249966E+03  0.7818608E-02  0.1235075E+00
         -4   -1    0    0    0  501 -0.00000000000E+00  0.00000000000E+00  0.10604378090E+02  0.10680156117E+02  0.12700000000E+01 0.  1.
          4   -1    0    0  501    0  0.00000000000E+00 -0.00000000000E+00 -0.36695344557E+03  0.36695564326E+03  0.12700000000E+01 0.  1.
         25    2    1    2    0    0  0.00000000000E+00  0.00000000000E+00 -0.35634906748E+03  0.37763579937E+03  0.12499655624E+03 0.  0.
    9000005    1    3    3    0    0  0.53978390573E+02 -0.28319383971E+02 -0.21975054934E+03  0.22805034113E+03  0.10000000000E+01 0.  0.
    9000005    1    3    3    0    0 -0.53978390573E+02  0.28319383971E+02 -0.13659851815E+03  0.14958545824E+03  0.10000000000E+01 0.  0.
<mgrwt>
<rscale>  0 0.12499656E+03</rscale>
<asrwt>0</asrwt>
<pdfrwt beam="2">  1        4 0.91748066E-01 0.12499656E+03</pdfrwt>
<pdfrwt beam="1">  1       -4 0.26608427E-02 0.12499656E+03</pdfrwt>
<totfact> 0.11045720E+03</totfact>
</mgrwt>
</event>
<event>
 5    1  0.1435323E-002  0.1250000E+03  0.7818608E-02  0.1235069E+00
          4   -1    0    0  501    0  0.00000000000E+00  0.00000000000E+00  0.12284607451E+03  0.12285263905E+03  0.12700000000E+01 0.  1.
         -4   -1    0    0    0  501 -0.00000000000E+00 -0.00000000000E+00 -0.31777804700E+02  0.31803172351E+02  0.12700000000E+01 0.  1.
         25    2    1    2    0    0  0.00000000000E+00  0.00000000000E+00  0.91068269809E+02  0.15465581140E+03  0.12499996094E+03 0.  0.
    9000005    1    3    3    0    0  0.52075371899E+02 -0.28676596650E+02  0.21701278369E+02  0.63294052143E+02  0.10000000000E+01 0.  0.
    9000005    1    3    3    0    0 -0.52075371899E+02  0.28676596650E+02  0.69366991441E+02  0.91361759262E+02  0.10000000000E+01 0.  0.
<mgrwt>
<rscale>  0 0.12499996E+03</rscale>
<asrwt>0</asrwt>
<pdfrwt beam="1">  1        4 0.30715510E-01 0.12499996E+03</pdfrwt>
<pdfrwt beam="2">  1       -4 0.79484428E-02 0.12499996E+03</pdfrwt>
<totfact> 0.18312215E+03</totfact>
</mgrwt>
</event>
<event>
 5    1  0.1435323E-002  0.1250013E+03  0.7818608E-02  0.1235067E+00
          4   -1    0    0  501    0  0.00000000000E+00  0.00000000000E+00  0.67461184815E+03  0.67461304358E+03  0.12700000000E+01 0. -1.
         -4   -1    0    0    0  501 -0.00000000000E+00 -0.00000000000E+00 -0.57196343014E+01  0.58589347617E+01  0.12700000000E+01 0. -1.
         25    2    1    2    0    0  0.00000000000E+00  0.00000000000E+00  0.66889221385E+03  0.68047197834E+03  0.12500127822E+03 0.  0.
    9000005    1    3    3    0    0 -0.52607621829E+02  0.47928574040E+01  0.51620413253E+03  0.51890099229E+03  0.10000000000E+01 0.  0.
    9000005    1    3    3    0    0  0.52607621829E+02 -0.47928574040E+01  0.15268808132E+03  0.16157098605E+03  0.10000000000E+01 0.  0.
<mgrwt>
<rscale>  0 0.12500128E+03</rscale>
<asrwt>0</asrwt>
<pdfrwt beam="1">  1        4 0.16867051E+00 0.12500128E+03</pdfrwt>
<pdfrwt beam="2">  1       -4 0.14474707E-02 0.12500128E+03</pdfrwt>
<totfact> 0.64127492E+02</totfact>
</mgrwt>
</event>
<event>
 5    1  0.1435323E-002  0.1249892E+03  0.7818608E-02  0.1235086E+00
         -4   -1    0    0    0  501 -0.00000000000E+00  0.00000000000E+00  0.16858949531E+03  0.16859427876E+03  0.12700000000E+01 0.  1.
          4   -1    0    0  501    0  0.00000000000E+00 -0.00000000000E+00 -0.23143663793E+02  0.23178482991E+02  0.12700000000E+01 0.  1.
         25    2    1    2    0    0  0.00000000000E+00  0.00000000000E+00  0.14544583152E+03  0.19177276175E+03  0.12498920850E+03 0.  0.
    9000005    1    3    3    0    0 -0.58606296133E+02  0.19788748769E+02  0.86298178253E+02  0.10618224001E+03  0.10000000000E+01 0.  0.
    9000005    1    3    3    0    0  0.58606296133E+02 -0.19788748769E+02  0.59147653267E+02  0.85590521737E+02  0.10000000000E+01 0.  0.
<mgrwt>
<rscale>  0 0.12498921E+03</rscale>
<asrwt>0</asrwt>
<pdfrwt beam="2">  1        4 0.57908664E-02 0.12498921E+03</pdfrwt>
<pdfrwt beam="1">  1       -4 0.42152324E-01 0.12498921E+03</pdfrwt>
<totfact> 0.16661022E+03</totfact>
</mgrwt>
</event>
<event>
 5    1  0.1435323E-002  0.1250021E+03  0.7818608E-02  0.1235066E+00
         -4   -1    0    0    0  501 -0.00000000000E+00  0.00000000000E+00  0.18859891204E+02  0.18902602896E+02  0.12700000000E+01 0. -1.
          4   -1    0    0  501    0  0.00000000000E+00 -0.00000000000E+00 -0.20684760392E+03  0.20685150265E+03  0.12700000000E+01 0. -1.
         25    2    1    2    0    0  0.00000000000E+00  0.00000000000E+00 -0.18798771271E+03  0.22575410554E+03  0.12500214413E+03 0.  0.
    9000005    1    3    3    0    0  0.32410478278E+02 -0.58071133110E+01  0.19322577570E+01  0.32998413405E+02  0.10000000000E+01 0.  0.
    9000005    1    3    3    0    0 -0.32410478278E+02  0.58071133110E+01 -0.18991997047E+03  0.19275569214E+03  0.10000000000E+01 0.  0.
<mgrwt>
<rscale>  0 0.12500214E+03</rscale>
<asrwt>0</asrwt>
<pdfrwt beam="2">  1        4 0.51717720E-01 0.12500214E+03</pdfrwt>
<pdfrwt beam="1">  1       -4 0.47207997E-02 0.12500214E+03</pdfrwt>
<totfact> 0.15339465E+03</totfact>
</mgrwt>
</event>
<event>
 5    1  0.1435323E-002  0.1250040E+03  0.7818608E-02  0.1235063E+00
          4   -1    0    0  501    0  0.00000000000E+00  0.00000000000E+00  0.30698324326E+01  0.33221636269E+01  0.12700000000E+01 0.  1.
         -4   -1    0    0    0  501 -0.00000000000E+00 -0.00000000000E+00 -0.12220576294E+04  0.12220582893E+04  0.12700000000E+01 0.  1.
         25    2    1    2    0    0  0.00000000000E+00  0.00000000000E+00 -0.12189877970E+04  0.12253804529E+04  0.12500402109E+03 0.  0.
    9000005    1    3    3    0    0 -0.31778968295E+02  0.49445531480E+02 -0.40137620245E+03  0.40565825432E+03  0.10000000000E+01 0.  0.
    9000005    1    3    3    0    0  0.31778968295E+02 -0.49445531480E+02 -0.81761159451E+03  0.81972219860E+03  0.10000000000E+01 0.  0.
<mgrwt>
<rscale>  0 0.12500402E+03</rscale>
<asrwt>0</asrwt>
<pdfrwt beam="1">  1        4 0.79908618E-03 0.12500402E+03</pdfrwt>
<pdfrwt beam="2">  1       -4 0.30554443E+00 0.12500402E+03</pdfrwt>
<totfact> 0.23896855E+02</totfact>
</mgrwt>
</event>
<event>
 5    1  0.1435323E-002  0.1250016E+03  0.7818608E-02  0.1235067E+00
          4   -1    0    0  501    0  0.00000000000E+00  0.00000000000E+00  0.44719501938E+02  0.44737531823E+02  0.12700000000E+01 0. -1.
         -4   -1    0    0    0  501 -0.00000000000E+00 -0.00000000000E+00 -0.87311952580E+02  0.87321188513E+02  0.12700000000E+01 0. -1.
         25    2    1    2    0    0  0.00000000000E+00  0.00000000000E+00 -0.42592450642E+02  0.13205872034E+03  0.12500155505E+03 0.  0.
    9000005    1    3    3    0    0  0.58262450607E+02 -0.13870701096E+02 -0.24439444111E+01  0.59948998022E+02  0.10000000000E+01 0.  0.
    9000005    1    3    3    0    0 -0.58262450607E+02  0.13870701096E+02 -0.40148506231E+02  0.72109722314E+02  0.10000000000E+01 0.  0.
<mgrwt>
<rscale>  0 0.12500156E+03</rscale>
<asrwt>0</asrwt>
<pdfrwt beam="1">  1        4 0.11183284E-01 0.12500156E+03</pdfrwt>
<pdfrwt beam="2">  1       -4 0.21831396E-01 0.12500156E+03</pdfrwt>
<totfact> 0.19453626E+03</totfact>
</mgrwt>
</event>
<event>
 5    1  0.1435323E-002  0.1249936E+03  0.7818608E-02  0.1235079E+00
          4   -1    0    0  501    0  0.00000000000E+00  0.00000000000E+00  0.87599724659E+02  0.87608930254E+02  0.12700000000E+01 0.  1.
         -4   -1    0    0    0  501 -0.00000000000E+00 -0.00000000000E+00 -0.44566883493E+02  0.44584975095E+02  0.12700000000E+01 0.  1.
         25    2    1    2    0    0  0.00000000000E+00  0.00000000000E+00  0.43032841166E+02  0.13219390535E+03  0.12499361261E+03 0.  0.
    9000005    1    3    3    0    0 -0.48704208548E+02 -0.23825352833E+02  0.54372106800E+02  0.76792404350E+02  0.10000000000E+01 0.  0.
    9000005    1    3    3    0    0  0.48704208548E+02  0.23825352833E+02 -0.11339265634E+02  0.55401501000E+02  0.10000000000E+01 0.  0.
<mgrwt>
<rscale>  0 0.12499361E+03</rscale>
<asrwt>0</asrwt>
<pdfrwt beam="1">  1        4 0.21903343E-01 0.12499361E+03</pdfrwt>
<pdfrwt beam="2">  1       -4 0.11145133E-01 0.12499361E+03</pdfrwt>
<totfact> 0.19450048E+03</totfact>
</mgrwt>
</event>
<event>
 5    1  0.1435323E-002  0.1250056E+03  0.7818608E-02  0.1235061E+00
         -4   -1    0    0    0  501 -0.00000000000E+00  0.00000000000E+00  0.69640901497E+02  0.69652480654E+02  0.12700000000E+01 0. -1.
          4   -1    0    0  501    0  0.00000000000E+00 -0.00000000000E+00 -0.56072892813E+02  0.56087273141E+02  0.12700000000E+01 0. -1.
         25    2    1    2    0    0  0.00000000000E+00  0.00000000000E+00  0.13568008684E+02  0.12573975380E+03  0.12500557917E+03 0.  0.
    9000005    1    3    3    0    0 -0.53538716448E+02 -0.15579432505E+02 -0.21603828284E+02  0.59806674148E+02  0.10000000000E+01 0.  0.
    9000005    1    3    3    0    0  0.53538716448E+02  0.15579432505E+02  0.35171836968E+02  0.65933079647E+02  0.10000000000E+01 0.  0.
<mgrwt>
<rscale>  0 0.12500558E+03</rscale>
<asrwt>0</asrwt>
<pdfrwt beam="2">  1        4 0.14021468E-01 0.12500558E+03</pdfrwt>
<pdfrwt beam="1">  1       -4 0.17413470E-01 0.12500558E+03</pdfrwt>
<totfact> 0.19792406E+03</totfact>
</mgrwt>
</event>
<event>
 5    1  0.1435323E-002  0.1249968E+03  0.7818608E-02  0.1235074E+00
         -4   -1    0    0    0  501 -0.00000000000E+00  0.00000000000E+00  0.30468395533E+02  0.30494852457E+02  0.12700000000E+01 0.  1.
          4   -1    0    0  501    0  0.00000000000E+00 -0.00000000000E+00 -0.12811485174E+03  0.12812114632E+03  0.12700000000E+01 0.  1.
         25    2    1    2    0    0  0.00000000000E+00  0.00000000000E+00 -0.97646456203E+02  0.15861599878E+03  0.12499681860E+03 0.  0.
    9000005    1    3    3    0    0  0.49746828641E+02  0.34538366210E+02 -0.68375327052E+02  0.91344573182E+02  0.10000000000E+01 0.  0.
    9000005    1    3    3    0    0 -0.49746828641E+02 -0.34538366210E+02 -0.29271129151E+02  0.67271425599E+02  0.10000000000E+01 0.  0.
<mgrwt>
<rscale>  0 0.12499682E+03</rscale>
<asrwt>0</asrwt>
<pdfrwt beam="2">  1        4 0.32032806E-01 0.12499682E+03</pdfrwt>
<pdfrwt beam="1">  1       -4 0.76211931E-02 0.12499682E+03</pdfrwt>
<totfact> 0.18124423E+03</totfact>
</mgrwt>
</event>
<event>
 5    1  0.1435323E-002  0.1249960E+03  0.7818608E-02  0.1235076E+00
          4   -1    0    0  501    0  0.00000000000E+00  0.00000000000E+00  0.26242833522E+03  0.26243140823E+03  0.12700000000E+01 0. -1.
         -4   -1    0    0    0  501 -0.00000000000E+00 -0.00000000000E+00 -0.14853801004E+02  0.14907994642E+02  0.12700000000E+01 0. -1.
         25    2    1    2    0    0  0.00000000000E+00  0.00000000000E+00  0.24757453421E+03  0.27733940287E+03  0.12499597751E+03 0.  0.
    9000005    1    3    3    0    0 -0.28976908477E+02 -0.16401575695E+02  0.24111736016E+03  0.24340758879E+03  0.10000000000E+01 0.  0.
    9000005    1    3    3    0    0  0.28976908477E+02  0.16401575695E+02  0.64571740560E+01  0.33931814083E+02  0.10000000000E+01 0.  0.
<mgrwt>
<rscale>  0 0.12499598E+03</rscale>
<asrwt>0</asrwt>
<pdfrwt beam="1">  1        4 0.65614242E-01 0.12499598E+03</pdfrwt>
<pdfrwt beam="2">  1       -4 0.37206086E-02 0.12499598E+03</pdfrwt>
<totfact> 0.13632061E+03</totfact>
</mgrwt>
</event>
<event>
 5    1  0.1435323E-002  0.1250001E+03  0.7818608E-02  0.1235069E+00
          4   -1    0    0  501    0  0.00000000000E+00  0.00000000000E+00  0.20039633705E+02  0.20079836130E+02  0.12700000000E+01 0.  1.
         -4   -1    0    0    0  501 -0.00000000000E+00 -0.00000000000E+00 -0.19468900080E+03  0.19469314300E+03  0.12700000000E+01 0.  1.
         25    2    1    2    0    0  0.00000000000E+00  0.00000000000E+00 -0.17464936709E+03  0.21477297913E+03  0.12500012456E+03 0.  0.
    9000005    1    3    3    0    0 -0.31403636716E+02  0.36824386294E+02 -0.19395968018E+02  0.52148129403E+02  0.10000000000E+01 0.  0.
    9000005    1    3    3    0    0  0.31403636716E+02 -0.36824386294E+02 -0.15525339907E+03  0.16262484973E+03  0.10000000000E+01 0.  0.
<mgrwt>
<rscale>  0 0.12500012E+03</rscale>
<asrwt>0</asrwt>
<pdfrwt beam="1">  1        4 0.50154521E-02 0.12500012E+03</pdfrwt>
<pdfrwt beam="2">  1       -4 0.48677788E-01 0.12500012E+03</pdfrwt>
<totfact> 0.15747070E+03</totfact>
</mgrwt>
</event>
<event>
 5    1  0.1435323E-002  0.1249971E+03  0.7818608E-02  0.1235074E+00
          4   -1    0    0  501    0  0.00000000000E+00  0.00000000000E+00  0.14834010042E+03  0.14834553682E+03  0.12700000000E+01 0.  1.
         -4   -1    0    0    0  501 -0.00000000000E+00 -0.00000000000E+00 -0.26310608572E+02  0.26341241873E+02  0.12700000000E+01 0.  1.
         25    2    1    2    0    0  0.00000000000E+00  0.00000000000E+00  0.12202949185E+03  0.17468677869E+03  0.12499709504E+03 0.  0.
    9000005    1    3    3    0    0  0.56612652026E+02 -0.29902544827E+01  0.24274556843E+02  0.61678100662E+02  0.10000000000E+01 0.  0.
    9000005    1    3    3    0    0 -0.56612652026E+02  0.29902544827E+01  0.97754935008E+02  0.11300867803E+03  0.10000000000E+01 0.  0.
<mgrwt>
<rscale>  0 0.12499710E+03</rscale>
<asrwt>0</asrwt>
<pdfrwt beam="1">  1        4 0.37089533E-01 0.12499710E+03</pdfrwt>
<pdfrwt beam="2">  1       -4 0.65821610E-02 0.12499710E+03</pdfrwt>
<totfact> 0.17388874E+03</totfact>
</mgrwt>
</event>
<event>
 5    1  0.1435323E-002  0.1250048E+03  0.7818608E-02  0.1235062E+00
         -4   -1    0    0    0  501 -0.00000000000E+00  0.00000000000E+00  0.17807298317E+03  0.17807751187E+03  0.12700000000E+01 0.  1.
          4   -1    0    0  501    0  0.00000000000E+00 -0.00000000000E+00 -0.21914737844E+02  0.21951506435E+02  0.12700000000E+01 0.  1.
         25    2    1    2    0    0  0.00000000000E+00  0.00000000000E+00  0.15615824532E+03  0.20002901831E+03  0.12500484223E+03 0.  0.
    9000005    1    3    3    0    0  0.18593100565E+02  0.25930783576E+02 -0.79059239905E+01  0.32887878612E+02  0.10000000000E+01 0.  0.
    9000005    1    3    3    0    0 -0.18593100565E+02 -0.25930783576E+02  0.16406416931E+03  0.16714113969E+03  0.10000000000E+01 0.  0.
<mgrwt>
<rscale>  0 0.12500484E+03</rscale>
<asrwt>0</asrwt>
<pdfrwt beam="2">  1        4 0.54838468E-02 0.12500484E+03</pdfrwt>
<pdfrwt beam="1">  1       -4 0.44523406E-01 0.12500484E+03</pdfrwt>
<totfact> 0.16319052E+03</totfact>
</mgrwt>
</event>
<event>
 5    1  0.1435323E-002  0.1249993E+03  0.7818608E-02  0.1235070E+00
          4   -1    0    0  501    0  0.00000000000E+00  0.00000000000E+00  0.21478671990E+02  0.21516185779E+02  0.12700000000E+01 0. -1.
         -4   -1    0    0    0  501 -0.00000000000E+00 -0.00000000000E+00 -0.18166597167E+03  0.18167041081E+03  0.12700000000E+01 0. -1.
         25    2    1    2    0    0  0.00000000000E+00  0.00000000000E+00 -0.16018729968E+03  0.20318659659E+03  0.12499928821E+03 0.  0.
    9000005    1    3    3    0    0 -0.55658551529E+02  0.17842878571E+02 -0.11603757018E+03  0.12993059827E+03  0.10000000000E+01 0.  0.
    9000005    1    3    3    0    0  0.55658551529E+02 -0.17842878571E+02 -0.44149729498E+02  0.73255998312E+02  0.10000000000E+01 0.  0.
<mgrwt>
<rscale>  0 0.12499929E+03</rscale>
<asrwt>0</asrwt>
<pdfrwt beam="1">  1        4 0.53749127E-02 0.12499929E+03</pdfrwt>
<pdfrwt beam="2">  1       -4 0.45421732E-01 0.12499929E+03</pdfrwt>
<totfact> 0.16195502E+03</totfact>
</mgrwt>
</event>
<event>
 5    1  0.1435323E-002  0.1250010E+03  0.7818608E-02  0.1235068E+00
         -4   -1    0    0    0  501 -0.00000000000E+00  0.00000000000E+00  0.18577461140E+03  0.18577895236E+03  0.12700000000E+01 0.  1.
          4   -1    0    0  501    0  0.00000000000E+00 -0.00000000000E+00 -0.21003380712E+02  0.21041741880E+02  0.12700000000E+01 0.  1.
         25    2    1    2    0    0  0.00000000000E+00  0.00000000000E+00  0.16477123069E+03  0.20682069424E+03  0.12500096441E+03 0.  0.
    9000005    1    3    3    0    0  0.38665804363E+02 -0.47845384764E+02  0.64179142765E+02  0.88905498347E+02  0.10000000000E+01 0.  0.
    9000005    1    3    3    0    0 -0.38665804363E+02  0.47845384764E+02  0.10059208792E+03  0.11791519589E+03  0.10000000000E+01 0.  0.
<mgrwt>
<rscale>  0 0.12500096E+03</rscale>
<asrwt>0</asrwt>
<pdfrwt beam="2">  1        4 0.52561830E-02 0.12500096E+03</pdfrwt>
<pdfrwt beam="1">  1       -4 0.46448990E-01 0.12500096E+03</pdfrwt>
<totfact> 0.16052168E+03</totfact>
</mgrwt>
</event>
<event>
 5    1  0.1435323E-002  0.1249985E+03  0.7818608E-02  0.1235072E+00
         -4   -1    0    0    0  501 -0.00000000000E+00  0.00000000000E+00  0.13283699610E+02  0.13344271255E+02  0.12700000000E+01 0.  1.
          4   -1    0    0  501    0  0.00000000000E+00 -0.00000000000E+00 -0.29332540330E+03  0.29332815262E+03  0.12700000000E+01 0.  1.
         25    2    1    2    0    0  0.00000000000E+00  0.00000000000E+00 -0.28004170369E+03  0.30667242387E+03  0.12499847904E+03 0.  0.
    9000005    1    3    3    0    0 -0.49768694820E+01 -0.34543983002E+02 -0.12842899955E+02  0.37202097666E+02  0.10000000000E+01 0.  0.
    9000005    1    3    3    0    0  0.49768694820E+01  0.34543983002E+02 -0.26719880373E+03  0.26947032621E+03  0.10000000000E+01 0.  0.
<mgrwt>
<rscale>  0 0.12499848E+03</rscale>
<asrwt>0</asrwt>
<pdfrwt beam="2">  1        4 0.73339245E-01 0.12499848E+03</pdfrwt>
<pdfrwt beam="1">  1       -4 0.33288410E-02 0.12499848E+03</pdfrwt>
<totfact> 0.12786536E+03</totfact>
</mgrwt>
</event>
<event>
 5    1  0.1435323E-002  0.1250036E+03  0.7818608E-02  0.1235064E+00
          4   -1    0    0  501    0  0.00000000000E+00  0.00000000000E+00  0.54106835619E+03  0.54106984666E+03  0.12700000000E+01 0.  1.
         -4   -1    0    0    0  501 -0.00000000000E+00 -0.00000000000E+00 -0.71625723975E+01  0.72742933230E+01  0.12700000000E+01 0.  1.
         25    2    1    2    0    0  0.00000000000E+00  0.00000000000E+00  0.53390578379E+03  0.54834413999E+03  0.12500363952E+03 0.  0.
    9000005    1    3    3    0    0  0.47761110860E+02  0.11257809154E+02  0.43671107223E+03  0.43946037658E+03  0.10000000000E+01 0.  0.
    9000005    1    3    3    0    0 -0.47761110860E+02 -0.11257809154E+02  0.97194711558E+02  0.10888376340E+03  0.10000000000E+01 0.  0.
<mgrwt>
<rscale>  0 0.12500364E+03</rscale>
<asrwt>0</asrwt>
<pdfrwt beam="1">  1        4 0.13528125E+00 0.12500364E+03</pdfrwt>
<pdfrwt beam="2">  1       -4 0.18047945E-02 0.12500364E+03</pdfrwt>
<totfact> 0.80391289E+02</totfact>
</mgrwt>
</event>
<event>
 5    1  0.1435323E-002  0.1250007E+03  0.7818608E-02  0.1235068E+00
          4   -1    0    0  501    0  0.00000000000E+00  0.00000000000E+00  0.70647817898E+02  0.70659232049E+02  0.12700000000E+01 0. -1.
         -4   -1    0    0    0  501 -0.00000000000E+00 -0.00000000000E+00 -0.55269296685E+02  0.55283886043E+02  0.12700000000E+01 0. -1.
         25    2    1    2    0    0  0.00000000000E+00  0.00000000000E+00  0.15378521213E+02  0.12594311809E+03  0.12500068032E+03 0.  0.
    9000005    1    3    3    0    0 -0.42655923284E+01 -0.37464653403E+02 -0.42521162776E+02  0.56840520901E+02  0.10000000000E+01 0.  0.
    9000005    1    3    3    0    0  0.42655923284E+01  0.37464653403E+02  0.57899683989E+02  0.69102597191E+02  0.10000000000E+01 0.  0.
<mgrwt>
<rscale>  0 0.12500068E+03</rscale>
<asrwt>0</asrwt>
<pdfrwt beam="1">  1        4 0.17665205E-01 0.12500068E+03</pdfrwt>
<pdfrwt beam="2">  1       -4 0.13820575E-01 0.12500068E+03</pdfrwt>
<totfact> 0.19783679E+03</totfact>
</mgrwt>
</event>
<event>
 5    1  0.1435323E-002  0.1250095E+03  0.7818608E-02  0.1235054E+00
          4   -1    0    0  501    0  0.00000000000E+00  0.00000000000E+00  0.13352188482E+03  0.13352792452E+03  0.12700000000E+01 0.  1.
         -4   -1    0    0    0  501 -0.00000000000E+00 -0.00000000000E+00 -0.29239468310E+02  0.29267036185E+02  0.12700000000E+01 0.  1.
         25    2    1    2    0    0  0.00000000000E+00  0.00000000000E+00  0.10428241651E+03  0.16279496071E+03  0.12500950699E+03 0.  0.
    9000005    1    3    3    0    0  0.29880533288E+02  0.83043964171E+01 -0.18518102170E+02  0.36134877576E+02  0.10000000000E+01 0.  0.
    9000005    1    3    3    0    0 -0.29880533288E+02 -0.83043964171E+01  0.12280051868E+03  0.12666008313E+03  0.10000000000E+01 0.  0.
<mgrwt>
<rscale>  0 0.12500951E+03</rscale>
<asrwt>0</asrwt>
<pdfrwt beam="1">  1        4 0.33384672E-01 0.12500951E+03</pdfrwt>
<pdfrwt beam="2">  1       -4 0.73140681E-02 0.12500951E+03</pdfrwt>
<totfact> 0.17923048E+03</totfact>
</mgrwt>
</event>
<event>
 5    1  0.1435323E-002  0.1249839E+03  0.7818608E-02  0.1235094E+00
          4   -1    0    0  501    0  0.00000000000E+00  0.00000000000E+00  0.32718533705E+03  0.32718780185E+03  0.12700000000E+01 0. -1.
         -4   -1    0    0    0  501 -0.00000000000E+00 -0.00000000000E+00 -0.11899582876E+02  0.11967162263E+02  0.12700000000E+01 0. -1.
         25    2    1    2    0    0  0.00000000000E+00  0.00000000000E+00  0.31528575417E+03  0.33915496411E+03  0.12498393056E+03 0.  0.
    9000005    1    3    3    0    0 -0.49311313607E+01 -0.40753921643E+02  0.29814491872E+02  0.50745463948E+02  0.10000000000E+01 0.  0.
    9000005    1    3    3    0    0  0.49311313607E+01  0.40753921643E+02  0.28547126230E+03  0.28840950017E+03  0.10000000000E+01 0.  0.
<mgrwt>
<rscale>  0 0.12498393E+03</rscale>
<asrwt>0</asrwt>
<pdfrwt beam="1">  1        4 0.81805096E-01 0.12498393E+03</pdfrwt>
<pdfrwt beam="2">  1       -4 0.29836510E-02 0.12498393E+03</pdfrwt>
<totfact> 0.11944914E+03</totfact>
</mgrwt>
</event>
<event>
 5    1  0.1435323E-002  0.1249991E+03  0.7818608E-02  0.1235071E+00
         -4   -1    0    0    0  501 -0.00000000000E+00  0.00000000000E+00  0.78591483570E+02  0.78601744190E+02  0.12700000000E+01 0. -1.
          4   -1    0    0  501    0  0.00000000000E+00 -0.00000000000E+00 -0.49680889921E+02  0.49697119870E+02  0.12700000000E+01 0. -1.
         25    2    1    2    0    0  0.00000000000E+00  0.00000000000E+00  0.28910593649E+02  0.12829886406E+03  0.12499910437E+03 0.  0.
    9000005    1    3    3    0    0 -0.55493440768E+02  0.35973395842E+01 -0.14805717512E+02  0.57555817181E+02  0.10000000000E+01 0.  0.
    9000005    1    3    3    0    0  0.55493440768E+02 -0.35973395842E+01  0.43716311160E+02  0.70743046879E+02  0.10000000000E+01 0.  0.
<mgrwt>
<rscale>  0 0.12499910E+03</rscale>
<asrwt>0</asrwt>
<pdfrwt beam="2">  1        4 0.12423534E-01 0.12499910E+03</pdfrwt>
<pdfrwt beam="1">  1       -4 0.19651182E-01 0.12499910E+03</pdfrwt>
<totfact> 0.19656699E+03</totfact>
</mgrwt>
</event>
<event>
 5    1  0.1435323E-002  0.1250028E+03  0.7818608E-02  0.1235065E+00
          4   -1    0    0  501    0  0.00000000000E+00  0.00000000000E+00  0.65374508755E+02  0.65386843439E+02  0.12700000000E+01 0.  1.
         -4   -1    0    0    0  501 -0.00000000000E+00 -0.00000000000E+00 -0.59729795379E+02  0.59743295490E+02  0.12700000000E+01 0.  1.
         25    2    1    2    0    0  0.00000000000E+00  0.00000000000E+00  0.56447133763E+01  0.12513013893E+03  0.12500275549E+03 0.  0.
    9000005    1    3    3    0    0  0.62046614512E+01 -0.43448368279E+02  0.47355484350E+02  0.64573991884E+02  0.10000000000E+01 0.  0.
    9000005    1    3    3    0    0 -0.62046614512E+01  0.43448368279E+02 -0.41710770974E+02  0.60556147046E+02  0.10000000000E+01 0.  0.
<mgrwt>
<rscale>  0 0.12500276E+03</rscale>
<asrwt>0</asrwt>
<pdfrwt beam="1">  1        4 0.16346857E-01 0.12500276E+03</pdfrwt>
<pdfrwt beam="2">  1       -4 0.14935678E-01 0.12500276E+03</pdfrwt>
<totfact> 0.19826721E+03</totfact>
</mgrwt>
</event>
<event>
 5    1  0.1435323E-002  0.1250025E+03  0.7818608E-02  0.1235065E+00
         -4   -1    0    0    0  501 -0.00000000000E+00  0.00000000000E+00  0.10205608766E+04  0.10205616668E+04  0.12700000000E+01 0.  1.
          4   -1    0    0  501    0  0.00000000000E+00 -0.00000000000E+00 -0.37215486022E+01  0.39322797457E+01  0.12700000000E+01 0.  1.
         25    2    1    2    0    0  0.00000000000E+00  0.00000000000E+00  0.10168393280E+04  0.10244939466E+04  0.12500251018E+03 0.  0.
    9000005    1    3    3    0    0 -0.71239575277E+01  0.19463983481E+02  0.99161044897E+03  0.99182754546E+03  0.10000000000E+01 0.  0.
    9000005    1    3    3    0    0  0.71239575277E+01 -0.19463983481E+02  0.25228879071E+02  0.32666401133E+02  0.10000000000E+01 0.  0.
<mgrwt>
<rscale>  0 0.12500251E+03</rscale>
<asrwt>0</asrwt>
<pdfrwt beam="2">  1        4 0.95682715E-03 0.12500251E+03</pdfrwt>
<pdfrwt beam="1">  1       -4 0.25516670E+00 0.12500251E+03</pdfrwt>
<totfact> 0.35483992E+02</totfact>
</mgrwt>
</event>
<event>
 5    1  0.1435323E-002  0.1250001E+03  0.7818608E-02  0.1235069E+00
         -4   -1    0    0    0  501 -0.00000000000E+00  0.00000000000E+00  0.10339581508E+03  0.10340361442E+03  0.12700000000E+01 0.  1.
          4   -1    0    0  501    0  0.00000000000E+00 -0.00000000000E+00 -0.37759712825E+02  0.37781064207E+02  0.12700000000E+01 0.  1.
         25    2    1    2    0    0  0.00000000000E+00  0.00000000000E+00  0.65636102253E+02  0.14118467863E+03  0.12500006224E+03 0.  0.
    9000005    1    3    3    0    0  0.20958694628E+02  0.48711987795E+02 -0.45252837287E+01  0.53231596146E+02  0.10000000000E+01 0.  0.
    9000005    1    3    3    0    0 -0.20958694628E+02 -0.48711987795E+02  0.70161385982E+02  0.87953082484E+02  0.10000000000E+01 0.  0.
<mgrwt>
<rscale>  0 0.12500006E+03</rscale>
<asrwt>0</asrwt>
<pdfrwt beam="2">  1        4 0.94435721E-02 0.12500006E+03</pdfrwt>
<pdfrwt beam="1">  1       -4 0.25852597E-01 0.12500006E+03</pdfrwt>
<totfact> 0.18979872E+03</totfact>
</mgrwt>
</event>
<event>
 5    1  0.1435323E-002  0.1250001E+03  0.7818608E-02  0.1235069E+00
          4   -1    0    0  501    0  0.00000000000E+00  0.00000000000E+00  0.38134995062E+03  0.38135206533E+03  0.12700000000E+01 0. -1.
         -4   -1    0    0    0  501 -0.00000000000E+00 -0.00000000000E+00 -0.10201723739E+02  0.10280470186E+02  0.12700000000E+01 0. -1.
         25    2    1    2    0    0  0.00000000000E+00  0.00000000000E+00  0.37114822688E+03  0.39163253552E+03  0.12500014625E+03 0.  0.
    9000005    1    3    3    0    0  0.25752604250E+02 -0.47516672524E+02  0.87282564757E+02  0.10266585072E+03  0.10000000000E+01 0.  0.
    9000005    1    3    3    0    0 -0.25752604250E+02  0.47516672524E+02  0.28386566212E+03  0.28896668480E+03  0.10000000000E+01 0.  0.
<mgrwt>
<rscale>  0 0.12500015E+03</rscale>
<asrwt>0</asrwt>
<pdfrwt beam="1">  1        4 0.95347594E-01 0.12500015E+03</pdfrwt>
<pdfrwt beam="2">  1       -4 0.25605386E-02 0.12500015E+03</pdfrwt>
<totfact> 0.10743573E+03</totfact>
</mgrwt>
</event>
<event>
 5    1  0.1435323E-002  0.1249912E+03  0.7818608E-02  0.1235083E+00
          4   -1    0    0  501    0  0.00000000000E+00  0.00000000000E+00  0.28573725415E+03  0.28574007649E+03  0.12700000000E+01 0. -1.
         -4   -1    0    0    0  501 -0.00000000000E+00 -0.00000000000E+00 -0.13636448760E+02  0.13695460372E+02  0.12700000000E+01 0. -1.
         25    2    1    2    0    0  0.00000000000E+00  0.00000000000E+00  0.27210080539E+03  0.29943553686E+03  0.12499116944E+03 0.  0.
    9000005    1    3    3    0    0 -0.31205767159E+02 -0.44887064107E+02  0.20855800158E+03  0.21560632748E+03  0.10000000000E+01 0.  0.
    9000005    1    3    3    0    0  0.31205767159E+02  0.44887064107E+02  0.63542803817E+02  0.83829209378E+02  0.10000000000E+01 0.  0.
<mgrwt>
<rscale>  0 0.12499117E+03</rscale>
<asrwt>0</asrwt>
<pdfrwt beam="1">  1        4 0.71442039E-01 0.12499117E+03</pdfrwt>
<pdfrwt beam="2">  1       -4 0.34168416E-02 0.12499117E+03</pdfrwt>
<totfact> 0.12989519E+03</totfact>
</mgrwt>
</event>
<event>
 5    1  0.1435323E-002  0.1250057E+03  0.7818608E-02  0.1235060E+00
         -4   -1    0    0    0  501 -0.00000000000E+00  0.00000000000E+00  0.70844620391E+02  0.70856002839E+02  0.12700000000E+01 0.  1.
          4   -1    0    0  501    0  0.00000000000E+00 -0.00000000000E+00 -0.55120195342E+02  0.55134824154E+02  0.12700000000E+01 0.  1.
         25    2    1    2    0    0  0.00000000000E+00  0.00000000000E+00  0.15724425049E+02  0.12599082699E+03  0.12500572364E+03 0.  0.
    9000005    1    3    3    0    0 -0.67382623841E+01  0.48085633702E+02  0.47516582449E+02  0.67944521163E+02  0.10000000000E+01 0.  0.
    9000005    1    3    3    0    0  0.67382623841E+01 -0.48085633702E+02 -0.31792157400E+02  0.58046305830E+02  0.10000000000E+01 0.  0.
<mgrwt>
<rscale>  0 0.12500572E+03</rscale>
<asrwt>0</asrwt>
<pdfrwt beam="2">  1        4 0.13783300E-01 0.12500572E+03</pdfrwt>
<pdfrwt beam="1">  1       -4 0.17714406E-01 0.12500572E+03</pdfrwt>
<totfact> 0.19778767E+03</totfact>
</mgrwt>
</event>
<event>
 5    1  0.1435323E-002  0.1249962E+03  0.7818608E-02  0.1235075E+00
         -4   -1    0    0    0  501 -0.00000000000E+00  0.00000000000E+00  0.31931038141E+02  0.31956284152E+02  0.12700000000E+01 0. -1.
          4   -1    0    0  501    0  0.00000000000E+00 -0.00000000000E+00 -0.12224955342E+03  0.12225614999E+03  0.12700000000E+01 0. -1.
         25    2    1    2    0    0  0.00000000000E+00  0.00000000000E+00 -0.90318515275E+02  0.15421243414E+03  0.12499616251E+03 0.  0.
    9000005    1    3    3    0    0 -0.46627765715E+02 -0.64171169307E+01 -0.95872949943E+02  0.10680800745E+03  0.10000000000E+01 0.  0.
    9000005    1    3    3    0    0  0.46627765715E+02  0.64171169307E+01  0.55544346684E+01  0.47404426689E+02  0.10000000000E+01 0.  0.
<mgrwt>
<rscale>  0 0.12499616E+03</rscale>
<asrwt>0</asrwt>
<pdfrwt beam="2">  1        4 0.30566368E-01 0.12499616E+03</pdfrwt>
<pdfrwt beam="1">  1       -4 0.79867402E-02 0.12499616E+03</pdfrwt>
<totfact> 0.18335213E+03</totfact>
</mgrwt>
</event>
<event>
 5    1  0.1435323E-002  0.1249995E+03  0.7818608E-02  0.1235070E+00
          4   -1    0    0  501    0  0.00000000000E+00  0.00000000000E+00  0.95697073031E+02  0.95705499773E+02  0.12700000000E+01 0. -1.
         -4   -1    0    0    0  501 -0.00000000000E+00 -0.00000000000E+00 -0.40798486664E+02  0.40818248543E+02  0.12700000000E+01 0. -1.
         25    2    1    2    0    0  0.00000000000E+00  0.00000000000E+00  0.54898586367E+02  0.13652374832E+03  0.12499951627E+03 0.  0.
    9000005    1    3    3    0    0 -0.14929684591E+02  0.11134514657E+02 -0.37702145695E+02  0.42063341387E+02  0.10000000000E+01 0.  0.
    9000005    1    3    3    0    0  0.14929684591E+02 -0.11134514657E+02  0.92600732062E+02  0.94460406928E+02  0.10000000000E+01 0.  0.
<mgrwt>
<rscale>  0 0.12499952E+03</rscale>
<asrwt>0</asrwt>
<pdfrwt beam="1">  1        4 0.23927792E-01 0.12499952E+03</pdfrwt>
<pdfrwt beam="2">  1       -4 0.10203145E-01 0.12499952E+03</pdfrwt>
<totfact> 0.19219837E+03</totfact>
</mgrwt>
</event>
<event>
 5    1  0.1435323E-002  0.1249936E+03  0.7818608E-02  0.1235079E+00
         -4   -1    0    0    0  501 -0.00000000000E+00  0.00000000000E+00  0.18537270304E+03  0.18537705341E+03  0.12700000000E+01 0.  1.
          4   -1    0    0  501    0  0.00000000000E+00 -0.00000000000E+00 -0.21046520541E+02  0.21084803221E+02  0.12700000000E+01 0.  1.
         25    2    1    2    0    0  0.00000000000E+00  0.00000000000E+00  0.16432618249E+03  0.20646185663E+03  0.12499361580E+03 0.  0.
    9000005    1    3    3    0    0  0.22501386606E+02 -0.27662314015E+02 -0.25996612738E+01  0.35766943602E+02  0.10000000000E+01 0.  0.
    9000005    1    3    3    0    0 -0.22501386606E+02  0.27662314015E+02  0.16692584377E+03  0.17069491303E+03  0.10000000000E+01 0.  0.
<mgrwt>
<rscale>  0 0.12499362E+03</rscale>
<asrwt>0</asrwt>
<pdfrwt beam="2">  1        4 0.52669593E-02 0.12499362E+03</pdfrwt>
<pdfrwt beam="1">  1       -4 0.46348505E-01 0.12499362E+03</pdfrwt>
<totfact> 0.16068898E+03</totfact>
</mgrwt>
</event>
<event>
 5    1  0.1435323E-002  0.1249978E+03  0.7818608E-02  0.1235073E+00
          4   -1    0    0  501    0  0.00000000000E+00  0.00000000000E+00  0.47878980206E+01  0.49534702438E+01  0.12700000000E+01 0. -1.
         -4   -1    0    0    0  501 -0.00000000000E+00 -0.00000000000E+00 -0.80179816846E+03  0.80179917426E+03  0.12700000000E+01 0. -1.
         25    2    1    2    0    0  0.00000000000E+00  0.00000000000E+00 -0.79701027044E+03  0.80675264451E+03  0.12499783290E+03 0.  0.
    9000005    1    3    3    0    0 -0.21964442735E+00  0.40919860164E+02 -0.70333100073E+03  0.70452109960E+03  0.10000000000E+01 0.  0.
    9000005    1    3    3    0    0  0.21964442735E+00 -0.40919860164E+02 -0.93679269712E+02  0.10223154490E+03  0.10000000000E+01 0.  0.
<mgrwt>
<rscale>  0 0.12499783E+03</rscale>
<asrwt>0</asrwt>
<pdfrwt beam="1">  1        4 0.12177995E-02 0.12499783E+03</pdfrwt>
<pdfrwt beam="2">  1       -4 0.20046991E+00 0.12499783E+03</pdfrwt>
<totfact> 0.51887824E+02</totfact>
</mgrwt>
</event>
<event>
 5    1  0.1435323E-002  0.1249800E+03  0.7818608E-02  0.1235101E+00
          4   -1    0    0  501    0  0.00000000000E+00  0.00000000000E+00  0.28250306279E+03  0.28250591744E+03  0.12700000000E+01 0. -1.
         -4   -1    0    0    0  501 -0.00000000000E+00 -0.00000000000E+00 -0.13790761168E+02  0.13849115264E+02  0.12700000000E+01 0. -1.
         25    2    1    2    0    0  0.00000000000E+00  0.00000000000E+00  0.26871230162E+03  0.29635503270E+03  0.12498001585E+03 0.  0.
    9000005    1    3    3    0    0  0.15193619597E+02 -0.60284792104E+02  0.14914519620E+03  0.16158710278E+03  0.10000000000E+01 0.  0.
    9000005    1    3    3    0    0 -0.15193619597E+02  0.60284792104E+02  0.11956710543E+03  0.13476792992E+03  0.10000000000E+01 0.  0.
<mgrwt>
<rscale>  0 0.12498002E+03</rscale>
<asrwt>0</asrwt>
<pdfrwt beam="1">  1        4 0.70633418E-01 0.12498002E+03</pdfrwt>
<pdfrwt beam="2">  1       -4 0.34553413E-02 0.12498002E+03</pdfrwt>
<totfact> 0.13079820E+03</totfact>
</mgrwt>
</event>
<event>
 5    1  0.1435323E-002  0.1249967E+03  0.7818608E-02  0.1235074E+00
         -4   -1    0    0    0  501 -0.00000000000E+00  0.00000000000E+00  0.64026316576E+03  0.64026442532E+03  0.12700000000E+01 0. -1.
          4   -1    0    0  501    0  0.00000000000E+00 -0.00000000000E+00 -0.60333110923E+01  0.61655285853E+01  0.12700000000E+01 0. -1.
         25    2    1    2    0    0  0.00000000000E+00  0.00000000000E+00  0.63422985467E+03  0.64642995391E+03  0.12499670697E+03 0.  0.
    9000005    1    3    3    0    0 -0.41533724510E+02 -0.12453455420E+02  0.84399451064E+02  0.94891549484E+02  0.10000000000E+01 0.  0.
    9000005    1    3    3    0    0  0.41533724510E+02  0.12453455420E+02  0.54983040361E+03  0.55153840442E+03  0.10000000000E+01 0.  0.
<mgrwt>
<rscale>  0 0.12499671E+03</rscale>
<asrwt>0</asrwt>
<pdfrwt beam="2">  1        4 0.15250127E-02 0.12499671E+03</pdfrwt>
<pdfrwt beam="1">  1       -4 0.16008244E+00 0.12499671E+03</pdfrwt>
<totfact> 0.67925967E+02</totfact>
</mgrwt>
</event>
<event>
 5    1  0.1435323E-002  0.1250001E+03  0.7818608E-02  0.1235069E+00
         -4   -1    0    0    0  501 -0.00000000000E+00  0.00000000000E+00  0.98115393912E+01  0.98933919980E+01  0.12700000000E+01 0.  1.
          4   -1    0    0  501    0  0.00000000000E+00 -0.00000000000E+00 -0.39639218646E+03  0.39639422093E+03  0.12700000000E+01 0.  1.
         25    2    1    2    0    0  0.00000000000E+00  0.00000000000E+00 -0.38658064707E+03  0.40628761293E+03  0.12500011092E+03 0.  0.
    9000005    1    3    3    0    0 -0.32385910596E+02  0.32082687675E+02 -0.54357252729E+02  0.70949679195E+02  0.10000000000E+01 0.  0.
    9000005    1    3    3    0    0  0.32385910596E+02 -0.32082687675E+02 -0.33222339434E+03  0.33533793374E+03  0.10000000000E+01 0.  0.
<mgrwt>
<rscale>  0 0.12500011E+03</rscale>
<asrwt>0</asrwt>
<pdfrwt beam="2">  1        4 0.99108479E-01 0.12500011E+03</pdfrwt>
<pdfrwt beam="1">  1       -4 0.24633721E-02 0.12500011E+03</pdfrwt>
<totfact> 0.10440799E+03</totfact>
</mgrwt>
</event>
<event>
 5    1  0.1435323E-002  0.1249999E+03  0.7818608E-02  0.1235070E+00
         -4   -1    0    0    0  501 -0.00000000000E+00  0.00000000000E+00  0.13475065715E+02  0.13534780975E+02  0.12700000000E+01 0.  1.
          4   -1    0    0  501    0  0.00000000000E+00 -0.00000000000E+00 -0.28918456752E+03  0.28918735621E+03  0.12700000000E+01 0.  1.
         25    2    1    2    0    0  0.00000000000E+00  0.00000000000E+00 -0.27570950180E+03  0.30272213718E+03  0.12499985182E+03 0.  0.
    9000005    1    3    3    0    0  0.30137601729E+02 -0.47764183463E+02 -0.20263673037E+03  0.21036239387E+03  0.10000000000E+01 0.  0.
    9000005    1    3    3    0    0 -0.30137601729E+02  0.47764183463E+02 -0.73072771436E+02  0.92359743315E+02  0.10000000000E+01 0.  0.
<mgrwt>
<rscale>  0 0.12499985E+03</rscale>
<asrwt>0</asrwt>
<pdfrwt beam="2">  1        4 0.72303935E-01 0.12499985E+03</pdfrwt>
<pdfrwt beam="1">  1       -4 0.33765804E-02 0.12499985E+03</pdfrwt>
<totfact> 0.12895151E+03</totfact>
</mgrwt>
</event>
<event>
 5    1  0.1435323E-002  0.1250001E+03  0.7818608E-02  0.1235069E+00
         -4   -1    0    0    0  501 -0.00000000000E+00  0.00000000000E+00  0.13510003325E+02  0.13569564836E+02  0.12700000000E+01 0.  1.
          4   -1    0    0  501    0  0.00000000000E+00 -0.00000000000E+00 -0.28844093875E+03  0.28844373463E+03  0.12700000000E+01 0.  1.
         25    2    1    2    0    0  0.00000000000E+00  0.00000000000E+00 -0.27493093543E+03  0.30201329947E+03  0.12500005520E+03 0.  0.
    9000005    1    3    3    0    0  0.82941717912E+00  0.21573421938E+01 -0.28834948306E+03  0.28836048002E+03  0.10000000000E+01 0.  0.
    9000005    1    3    3    0    0 -0.82941717912E+00 -0.21573421938E+01  0.13418547633E+02  0.13652819444E+02  0.10000000000E+01 0.  0.
<mgrwt>
<rscale>  0 0.12500006E+03</rscale>
<asrwt>0</asrwt>
<pdfrwt beam="2">  1        4 0.72118009E-01 0.12500006E+03</pdfrwt>
<pdfrwt beam="1">  1       -4 0.33852964E-02 0.12500006E+03</pdfrwt>
<totfact> 0.12914802E+03</totfact>
</mgrwt>
</event>
<event>
 5    1  0.1435323E-002  0.1250291E+03  0.7818608E-02  0.1235024E+00
          4   -1    0    0  501    0  0.00000000000E+00  0.00000000000E+00  0.16026802971E+03  0.16027306151E+03  0.12700000000E+01 0. -1.
         -4   -1    0    0    0  501 -0.00000000000E+00 -0.00000000000E+00 -0.24362637295E+02  0.24395716754E+02  0.12700000000E+01 0. -1.
         25    2    1    2    0    0  0.00000000000E+00  0.00000000000E+00  0.13590539241E+03  0.18466877826E+03  0.12502912452E+03 0.  0.
    9000005    1    3    3    0    0 -0.32783324598E+02  0.46363321542E+02  0.10654657248E+03  0.12073721905E+03  0.10000000000E+01 0.  0.
    9000005    1    3    3    0    0  0.32783324598E+02 -0.46363321542E+02  0.29358819933E+02  0.63931559217E+02  0.10000000000E+01 0.  0.
<mgrwt>
<rscale>  0 0.12502912E+03</rscale>
<asrwt>0</asrwt>
<pdfrwt beam="1">  1        4 0.40071771E-01 0.12502912E+03</pdfrwt>
<pdfrwt beam="2">  1       -4 0.60954233E-02 0.12502912E+03</pdfrwt>
<totfact> 0.16943478E+03</totfact>
</mgrwt>
</event>
<event>
 5    1  0.1435323E-002  0.1250013E+03  0.7818608E-02  0.1235067E+00
          4   -1    0    0  501    0  0.00000000000E+00  0.00000000000E+00  0.65418076370E+02  0.65430402841E+02  0.12700000000E+01 0. -1.
         -4   -1    0    0    0  501 -0.00000000000E+00 -0.00000000000E+00 -0.59688596305E+02  0.59702105733E+02  0.12700000000E+01 0. -1.
         25    2    1    2    0    0  0.00000000000E+00  0.00000000000E+00  0.57294800644E+01  0.12513250857E+03  0.12500127103E+03 0.  0.
    9000005    1    3    3    0    0 -0.39887619924E+02 -0.25899836368E+01 -0.45223171070E+02  0.60364438538E+02  0.10000000000E+01 0.  0.
    9000005    1    3    3    0    0  0.39887619924E+02  0.25899836368E+01  0.50952651134E+02  0.64768070035E+02  0.10000000000E+01 0.  0.
<mgrwt>
<rscale>  0 0.12500127E+03</rscale>
<asrwt>0</asrwt>
<pdfrwt beam="1">  1        4 0.16357749E-01 0.12500127E+03</pdfrwt>
<pdfrwt beam="2">  1       -4 0.14925379E-01 0.12500127E+03</pdfrwt>
<totfact> 0.19827281E+03</totfact>
</mgrwt>
</event>
<event>
 5    1  0.1435323E-002  0.1249993E+03  0.7818608E-02  0.1235070E+00
          4   -1    0    0  501    0  0.00000000000E+00  0.00000000000E+00  0.26295138758E+02  0.26325790060E+02  0.12700000000E+01 0.  1.
         -4   -1    0    0    0  501 -0.00000000000E+00 -0.00000000000E+00 -0.14843250587E+03  0.14843793888E+03  0.12700000000E+01 0.  1.
         25    2    1    2    0    0  0.00000000000E+00  0.00000000000E+00 -0.12213736711E+03  0.17476372894E+03  0.12499929803E+03 0.  0.
    9000005    1    3    3    0    0  0.61884912486E+02  0.59387250695E+01 -0.69932714168E+02  0.93576681709E+02  0.10000000000E+01 0.  0.
    9000005    1    3    3    0    0 -0.61884912486E+02 -0.59387250695E+01 -0.52204652943E+02  0.81187047229E+02  0.10000000000E+01 0.  0.
<mgrwt>
<rscale>  0 0.12499930E+03</rscale>
<asrwt>0</asrwt>
<pdfrwt beam="1">  1        4 0.65782956E-02 0.12499930E+03</pdfrwt>
<pdfrwt beam="2">  1       -4 0.37112635E-01 0.12499930E+03</pdfrwt>
<totfact> 0.17384582E+03</totfact>
</mgrwt>
</event>
<event>
 5    1  0.1435323E-002  0.1250018E+03  0.7818608E-02  0.1235066E+00
         -4   -1    0    0    0  501 -0.00000000000E+00  0.00000000000E+00  0.90260767616E+02  0.90269701842E+02  0.12700000000E+01 0.  1.
          4   -1    0    0  501    0  0.00000000000E+00 -0.00000000000E+00 -0.43258230624E+02  0.43276869303E+02  0.12700000000E+01 0.  1.
         25    2    1    2    0    0  0.00000000000E+00  0.00000000000E+00  0.47002536992E+02  0.13354657114E+03  0.12500179271E+03 0.  0.
    9000005    1    3    3    0    0 -0.44792669181E+02 -0.17508349756E+02 -0.19131895526E+02  0.51768281312E+02  0.10000000000E+01 0.  0.
    9000005    1    3    3    0    0  0.44792669181E+02  0.17508349756E+02  0.66134432518E+02  0.81778289833E+02  0.10000000000E+01 0.  0.
<mgrwt>
<rscale>  0 0.12500179E+03</rscale>
<asrwt>0</asrwt>
<pdfrwt beam="2">  1        4 0.10818004E-01 0.12500179E+03</pdfrwt>
<pdfrwt beam="1">  1       -4 0.22568638E-01 0.12500179E+03</pdfrwt>
<totfact> 0.19374728E+03</totfact>
</mgrwt>
</event>
<event>
 5    1  0.1435323E-002  0.1250000E+03  0.7818608E-02  0.1235069E+00
         -4   -1    0    0    0  501 -0.00000000000E+00  0.00000000000E+00  0.76875136470E+02  0.76885626142E+02  0.12700000000E+01 0.  1.
          4   -1    0    0  501    0  0.00000000000E+00 -0.00000000000E+00 -0.50791057188E+02  0.50806932503E+02  0.12700000000E+01 0.  1.
         25    2    1    2    0    0  0.00000000000E+00  0.00000000000E+00  0.26084079282E+02  0.12769255864E+03  0.12500004137E+03 0.  0.
    9000005    1    3    3    0    0 -0.37647588211E+02  0.13903114974E+02  0.61975998706E+02  0.73842141896E+02  0.10000000000E+01 0.  0.
    9000005    1    3    3    0    0  0.37647588211E+02 -0.13903114974E+02 -0.35891919425E+02  0.53850416749E+02  0.10000000000E+01 0.  0.
<mgrwt>
<rscale>  0 0.12500004E+03</rscale>
<asrwt>0</asrwt>
<pdfrwt beam="2">  1        4 0.12701060E-01 0.12500004E+03</pdfrwt>
<pdfrwt beam="1">  1       -4 0.19222080E-01 0.12500004E+03</pdfrwt>
<totfact> 0.19689260E+03</totfact>
</mgrwt>
</event>
<event>
 5    1  0.1435323E-002  0.1249986E+03  0.7818608E-02  0.1235071E+00
         -4   -1    0    0    0  501 -0.00000000000E+00  0.00000000000E+00  0.46579254186E+02  0.46596564471E+02  0.12700000000E+01 0. -1.
          4   -1    0    0  501    0  0.00000000000E+00 -0.00000000000E+00 -0.83822885472E+02  0.83832505800E+02  0.12700000000E+01 0. -1.
         25    2    1    2    0    0  0.00000000000E+00  0.00000000000E+00 -0.37243631286E+02  0.13042907027E+03  0.12499861719E+03 0.  0.
    9000005    1    3    3    0    0 -0.75911673287E-01 -0.27486044621E+02  0.39938319845E+02  0.48492863428E+02  0.10000000000E+01 0.  0.
    9000005    1    3    3    0    0  0.75911673287E-01  0.27486044621E+02 -0.77181951131E+02  0.81936206843E+02  0.10000000000E+01 0.  0.
<mgrwt>
<rscale>  0 0.12499862E+03</rscale>
<asrwt>0</asrwt>
<pdfrwt beam="2">  1        4 0.20959087E-01 0.12499862E+03</pdfrwt>
<pdfrwt beam="1">  1       -4 0.11648180E-01 0.12499862E+03</pdfrwt>
<totfact> 0.19541975E+03</totfact>
</mgrwt>
</event>
<event>
 5    1  0.1435323E-002  0.1250029E+03  0.7818608E-02  0.1235065E+00
          4   -1    0    0  501    0  0.00000000000E+00  0.00000000000E+00  0.15216588354E+02  0.15269494462E+02  0.12700000000E+01 0.  1.
         -4   -1    0    0    0  501 -0.00000000000E+00 -0.00000000000E+00 -0.25622187196E+03  0.25622501940E+03  0.12700000000E+01 0.  1.
         25    2    1    2    0    0  0.00000000000E+00  0.00000000000E+00 -0.24100528360E+03  0.27149451387E+03  0.12500289731E+03 0.  0.
    9000005    1    3    3    0    0 -0.45774605458E+01 -0.49040008385E+02 -0.36960306383E+02  0.61586847747E+02  0.10000000000E+01 0.  0.
    9000005    1    3    3    0    0  0.45774605458E+01  0.49040008385E+02 -0.20404497722E+03  0.20990766612E+03  0.10000000000E+01 0.  0.
<mgrwt>
<rscale>  0 0.12500290E+03</rscale>
<asrwt>0</asrwt>
<pdfrwt beam="1">  1        4 0.38111546E-02 0.12500290E+03</pdfrwt>
<pdfrwt beam="2">  1       -4 0.64062461E-01 0.12500290E+03</pdfrwt>
<totfact> 0.13808427E+03</totfact>
</mgrwt>
</event>
<event>
 4    1  0.1435323E-002  0.1246013E+03  0.7818608E-02  0.1235694E+00
         -4   -1    0    0    0  501 -0.00000000000E+00  0.00000000000E+00  0.13395454339E+03  0.13396056359E+03  0.12700000000E+01 0.  1.
          4   -1    0    0  501    0  0.00000000000E+00 -0.00000000000E+00 -0.28954710683E+02  0.28982549417E+02  0.12700000000E+01 0.  1.
    9000005    1    1    2    0    0  0.28816621795E+02 -0.38048461373E+02  0.15386893945E+00  0.47739991414E+02  0.10000000000E+01 0.  0.
    9000005    1    1    2    0    0 -0.28816621795E+02  0.38048461373E+02  0.10484596377E+03  0.11520312159E+03  0.10000000000E+01 0.  0.
<mgrwt>
<rscale>  0 0.12460134E+03</rscale>
<asrwt>0</asrwt>
<pdfrwt beam="2">  1        4 0.72429102E-02 0.12460134E+03</pdfrwt>
<pdfrwt beam="1">  1       -4 0.33492867E-01 0.12460134E+03</pdfrwt>
<totfact> 0.18087108E+03</totfact>
</mgrwt>
</event>
<event>
 4    1  0.1435323E-002  0.1249104E+03  0.7818608E-02  0.1235209E+00
         -4   -1    0    0    0  501 -0.00000000000E+00  0.00000000000E+00  0.97960064524E+02  0.97968296614E+02  0.12700000000E+01 0.  1.
          4   -1    0    0  501    0  0.00000000000E+00 -0.00000000000E+00 -0.39798782237E+02  0.39819040264E+02  0.12700000000E+01 0.  1.
    9000005    1    1    2    0    0  0.46492165548E+02  0.34761182882E+02  0.54470689918E+02  0.79611037883E+02  0.10000000000E+01 0.  0.
    9000005    1    1    2    0    0 -0.46492165548E+02 -0.34761182882E+02  0.36905923688E+01  0.58176298995E+02  0.10000000000E+01 0.  0.
<mgrwt>
<rscale>  0 0.12491043E+03</rscale>
<asrwt>0</asrwt>
<pdfrwt beam="2">  1        4 0.99532570E-02 0.12491043E+03</pdfrwt>
<pdfrwt beam="1">  1       -4 0.24493577E-01 0.12491043E+03</pdfrwt>
<totfact> 0.19194188E+03</totfact>
</mgrwt>
</event>
<event>
 5    1  0.1435323E-002  0.1249991E+03  0.7818608E-02  0.1235071E+00
         -4   -1    0    0    0  501 -0.00000000000E+00  0.00000000000E+00  0.42297428000E+02  0.42316489876E+02  0.12700000000E+01 0.  1.
          4   -1    0    0  501    0  0.00000000000E+00 -0.00000000000E+00 -0.92306447384E+02  0.92315183630E+02  0.12700000000E+01 0.  1.
         25    2    1    2    0    0  0.00000000000E+00  0.00000000000E+00 -0.50009019384E+02  0.13463167351E+03  0.12499914196E+03 0.  0.
    9000005    1    3    3    0    0 -0.99635880338E+01  0.61506802699E+02 -0.19857499122E+02  0.65403976455E+02  0.10000000000E+01 0.  0.
    9000005    1    3    3    0    0  0.99635880338E+01 -0.61506802699E+02 -0.30151520263E+02  0.69227697051E+02  0.10000000000E+01 0.  0.
<mgrwt>
<rscale>  0 0.12499914E+03</rscale>
<asrwt>0</asrwt>
<pdfrwt beam="2">  1        4 0.23080086E-01 0.12499914E+03</pdfrwt>
<pdfrwt beam="1">  1       -4 0.10577832E-01 0.12499914E+03</pdfrwt>
<totfact> 0.19318834E+03</totfact>
</mgrwt>
</event>
<event>
 5    1  0.1435323E-002  0.1250017E+03  0.7818608E-02  0.1235067E+00
         -4   -1    0    0    0  501 -0.00000000000E+00  0.00000000000E+00  0.27994049953E+03  0.27994338031E+03  0.12700000000E+01 0.  1.
          4   -1    0    0  501    0  0.00000000000E+00 -0.00000000000E+00 -0.13922387655E+02  0.13980192346E+02  0.12700000000E+01 0.  1.
         25    2    1    2    0    0  0.00000000000E+00  0.00000000000E+00  0.26601811188E+03  0.29392357266E+03  0.12500172285E+03 0.  0.
    9000005    1    3    3    0    0  0.16349213515E+02  0.27099683711E+02  0.63045962552E+01  0.32286801850E+02  0.10000000000E+01 0.  0.
    9000005    1    3    3    0    0 -0.16349213515E+02 -0.27099683711E+02  0.25971351562E+03  0.26163677080E+03  0.10000000000E+01 0.  0.
<mgrwt>
<rscale>  0 0.12500172E+03</rscale>
<asrwt>0</asrwt>
<pdfrwt beam="2">  1        4 0.34881826E-02 0.12500172E+03</pdfrwt>
<pdfrwt beam="1">  1       -4 0.69992710E-01 0.12500172E+03</pdfrwt>
<totfact> 0.13142565E+03</totfact>
</mgrwt>
</event>
<event>
 5    1  0.1435323E-002  0.1250024E+03  0.7818608E-02  0.1235065E+00
         -4   -1    0    0    0  501 -0.00000000000E+00  0.00000000000E+00  0.94915933698E+02  0.94924429784E+02  0.12700000000E+01 0.  1.
          4   -1    0    0  501    0  0.00000000000E+00 -0.00000000000E+00 -0.41136314316E+02  0.41155913979E+02  0.12700000000E+01 0.  1.
         25    2    1    2    0    0  0.00000000000E+00  0.00000000000E+00  0.53779619382E+02  0.13608034376E+03  0.12500244997E+03 0.  0.
    9000005    1    3    3    0    0  0.79731391221E+01 -0.61625563159E+02  0.19658696358E+02  0.65182400421E+02  0.10000000000E+01 0.  0.
    9000005    1    3    3    0    0 -0.79731391221E+01  0.61625563159E+02  0.34120923024E+02  0.70897943342E+02  0.10000000000E+01 0.  0.
<mgrwt>
<rscale>  0 0.12500245E+03</rscale>
<asrwt>0</asrwt>
<pdfrwt beam="2">  1        4 0.10287591E-01 0.12500245E+03</pdfrwt>
<pdfrwt beam="1">  1       -4 0.23732495E-01 0.12500245E+03</pdfrwt>
<totfact> 0.19241599E+03</totfact>
</mgrwt>
</event>
<event>
 5    1  0.1435323E-002  0.1250028E+03  0.7818608E-02  0.1235065E+00
         -4   -1    0    0    0  501 -0.00000000000E+00  0.00000000000E+00  0.10130198031E+02  0.10209496175E+02  0.12700000000E+01 0. -1.
          4   -1    0    0  501    0  0.00000000000E+00 -0.00000000000E+00 -0.38403802545E+03  0.38404012536E+03  0.12700000000E+01 0. -1.
         25    2    1    2    0    0  0.00000000000E+00  0.00000000000E+00 -0.37390782741E+03  0.39424962154E+03  0.12500280269E+03 0.  0.
    9000005    1    3    3    0    0 -0.46350454736E+02  0.38911899275E+02 -0.23611113124E+03  0.24374570120E+03  0.10000000000E+01 0.  0.
    9000005    1    3    3    0    0  0.46350454736E+02 -0.38911899275E+02 -0.13779669618E+03  0.15050392034E+03  0.10000000000E+01 0.  0.
<mgrwt>
<rscale>  0 0.12500280E+03</rscale>
<asrwt>0</asrwt>
<pdfrwt beam="2">  1        4 0.96019633E-01 0.12500280E+03</pdfrwt>
<pdfrwt beam="1">  1       -4 0.25427255E-02 0.12500280E+03</pdfrwt>
<totfact> 0.10687935E+03</totfact>
</mgrwt>
</event>
<event>
 5    1  0.1435323E-002  0.1250037E+03  0.7818608E-02  0.1235064E+00
         -4   -1    0    0    0  501 -0.00000000000E+00  0.00000000000E+00  0.86813276271E+02  0.86822565251E+02  0.12700000000E+01 0. -1.
          4   -1    0    0  501    0  0.00000000000E+00 -0.00000000000E+00 -0.44977999242E+02  0.44995925547E+02  0.12700000000E+01 0. -1.
         25    2    1    2    0    0  0.00000000000E+00  0.00000000000E+00  0.41835277029E+02  0.13181849080E+03  0.12500369639E+03 0.  0.
    9000005    1    3    3    0    0  0.44236739074E+02  0.31565610974E+02  0.53457710859E+02  0.76236498676E+02  0.10000000000E+01 0.  0.
    9000005    1    3    3    0    0 -0.44236739074E+02 -0.31565610974E+02 -0.11622433830E+02  0.55581992122E+02  0.10000000000E+01 0.  0.
<mgrwt>
<rscale>  0 0.12500370E+03</rscale>
<asrwt>0</asrwt>
<pdfrwt beam="2">  1        4 0.11247902E-01 0.12500370E+03</pdfrwt>
<pdfrwt beam="1">  1       -4 0.21706721E-01 0.12500370E+03</pdfrwt>
<totfact> 0.19465432E+03</totfact>
</mgrwt>
</event>
<event>
 5    1  0.1435323E-002  0.1249997E+03  0.7818608E-02  0.1235070E+00
          4   -1    0    0  501    0  0.00000000000E+00  0.00000000000E+00  0.31984119773E+02  0.32009323917E+02  0.12700000000E+01 0.  1.
         -4   -1    0    0    0  501 -0.00000000000E+00 -0.00000000000E+00 -0.12205371180E+03  0.12206031895E+03  0.12700000000E+01 0.  1.
         25    2    1    2    0    0  0.00000000000E+00  0.00000000000E+00 -0.90069592023E+02  0.15406964287E+03  0.12499969379E+03 0.  0.
    9000005    1    3    3    0    0  0.11452491989E+02  0.46475488985E+02 -0.94553967990E+02  0.10598388326E+03  0.10000000000E+01 0.  0.
    9000005    1    3    3    0    0 -0.11452491989E+02 -0.46475488985E+02  0.44843759668E+01  0.48085759607E+02  0.10000000000E+01 0.  0.
<mgrwt>
<rscale>  0 0.12499969E+03</rscale>
<asrwt>0</asrwt>
<pdfrwt beam="1">  1        4 0.80000067E-02 0.12499969E+03</pdfrwt>
<pdfrwt beam="2">  1       -4 0.30517403E-01 0.12499969E+03</pdfrwt>
<totfact> 0.18340601E+03</totfact>
</mgrwt>
</event>
<event>
 5    1  0.1435323E-002  0.1250026E+03  0.7818608E-02  0.1235065E+00
         -4   -1    0    0    0  501 -0.00000000000E+00  0.00000000000E+00  0.72749182939E+02  0.72760267443E+02  0.12700000000E+01 0. -1.
          4   -1    0    0  501    0  0.00000000000E+00 -0.00000000000E+00 -0.53674342715E+02  0.53689365483E+02  0.12700000000E+01 0. -1.
         25    2    1    2    0    0  0.00000000000E+00  0.00000000000E+00  0.19074840224E+02  0.12644963293E+03  0.12500264052E+03 0.  0.
    9000005    1    3    3    0    0  0.55867526597E+02  0.14081733004E+00  0.37865417188E+02  0.67498075353E+02  0.10000000000E+01 0.  0.
    9000005    1    3    3    0    0 -0.55867526597E+02 -0.14081733004E+00 -0.18790576963E+02  0.58951557572E+02  0.10000000000E+01 0.  0.
<mgrwt>
<rscale>  0 0.12500264E+03</rscale>
<asrwt>0</asrwt>
<pdfrwt beam="2">  1        4 0.13421849E-01 0.12500264E+03</pdfrwt>
<pdfrwt beam="1">  1       -4 0.18190559E-01 0.12500264E+03</pdfrwt>
<totfact> 0.19755422E+03</totfact>
</mgrwt>
</event>
<event>
 5    1  0.1435323E-002  0.1249836E+03  0.7818608E-02  0.1235095E+00
          4   -1    0    0  501    0  0.00000000000E+00  0.00000000000E+00  0.93675883649E+02  0.93684492192E+02  0.12700000000E+01 0.  1.
         -4   -1    0    0    0  501 -0.00000000000E+00 -0.00000000000E+00 -0.41668496282E+02  0.41687845740E+02  0.12700000000E+01 0.  1.
         25    2    1    2    0    0  0.00000000000E+00  0.00000000000E+00  0.52007387366E+02  0.13537233793E+03  0.12498360507E+03 0.  0.
    9000005    1    3    3    0    0 -0.10779110662E+02  0.52316352714E+02  0.61118118023E+02  0.81176439554E+02  0.10000000000E+01 0.  0.
    9000005    1    3    3    0    0  0.10779110662E+02 -0.52316352714E+02 -0.91107306571E+01  0.54195898378E+02  0.10000000000E+01 0.  0.
<mgrwt>
<rscale>  0 0.12498361E+03</rscale>
<asrwt>0</asrwt>
<pdfrwt beam="1">  1        4 0.23422466E-01 0.12498361E+03</pdfrwt>
<pdfrwt beam="2">  1       -4 0.10420619E-01 0.12498361E+03</pdfrwt>
<totfact> 0.19287029E+03</totfact>
</mgrwt>
</event>
<event>
 5    1  0.1435323E-002  0.1250015E+03  0.7818608E-02  0.1235067E+00
         -4   -1    0    0    0  501 -0.00000000000E+00  0.00000000000E+00  0.12262517081E+02  0.12328107120E+02  0.12700000000E+01 0. -1.
          4   -1    0    0  501    0  0.00000000000E+00 -0.00000000000E+00 -0.31764322593E+03  0.31764576477E+03  0.12700000000E+01 0. -1.
         25    2    1    2    0    0  0.00000000000E+00  0.00000000000E+00 -0.30538070885E+03  0.32997387189E+03  0.12500151517E+03 0.  0.
    9000005    1    3    3    0    0  0.48365449175E+02  0.39570038126E+02 -0.15422982886E+03  0.16641167237E+03  0.10000000000E+01 0.  0.
    9000005    1    3    3    0    0 -0.48365449175E+02 -0.39570038126E+02 -0.15115087999E+03  0.16356219952E+03  0.10000000000E+01 0.  0.
<mgrwt>
<rscale>  0 0.12500152E+03</rscale>
<asrwt>0</asrwt>
<pdfrwt beam="2">  1        4 0.79419295E-01 0.12500152E+03</pdfrwt>
<pdfrwt beam="1">  1       -4 0.30741464E-02 0.12500152E+03</pdfrwt>
<totfact> 0.12170282E+03</totfact>
</mgrwt>
</event>
<event>
 5    1  0.1435323E-002  0.1249982E+03  0.7818608E-02  0.1235072E+00
          4   -1    0    0  501    0  0.00000000000E+00  0.00000000000E+00  0.25639692595E+03  0.25640007125E+03  0.12700000000E+01 0.  1.
         -4   -1    0    0    0  501 -0.00000000000E+00 -0.00000000000E+00 -0.15205005802E+02  0.15257952072E+02  0.12700000000E+01 0.  1.
         25    2    1    2    0    0  0.00000000000E+00  0.00000000000E+00  0.24119192015E+03  0.27165802332E+03  0.12499815715E+03 0.  0.
    9000005    1    3    3    0    0 -0.77285416360E+00 -0.67045202778E+01 -0.14421315192E+02  0.15953752774E+02  0.10000000000E+01 0.  0.
    9000005    1    3    3    0    0  0.77285416360E+00  0.67045202778E+01  0.25561323534E+03  0.25570427055E+03  0.10000000000E+01 0.  0.
<mgrwt>
<rscale>  0 0.12499816E+03</rscale>
<asrwt>0</asrwt>
<pdfrwt beam="1">  1        4 0.64106245E-01 0.12499816E+03</pdfrwt>
<pdfrwt beam="2">  1       -4 0.38082628E-02 0.12499816E+03</pdfrwt>
<totfact> 0.13804884E+03</totfact>
</mgrwt>
</event>
<event>
 5    1  0.1435323E-002  0.1249978E+03  0.7818608E-02  0.1235073E+00
          4   -1    0    0  501    0  0.00000000000E+00  0.00000000000E+00  0.47398648282E+02  0.47415659427E+02  0.12700000000E+01 0. -1.
         -4   -1    0    0    0  501 -0.00000000000E+00 -0.00000000000E+00 -0.82373131068E+02  0.82382920693E+02  0.12700000000E+01 0. -1.
         25    2    1    2    0    0  0.00000000000E+00  0.00000000000E+00 -0.34974482786E+02  0.12979858012E+03  0.12499782780E+03 0.  0.
    9000005    1    3    3    0    0 -0.36730050144E+02 -0.85920063351E+01  0.34247875082E+02  0.50959161140E+02  0.10000000000E+01 0.  0.
    9000005    1    3    3    0    0  0.36730050144E+02  0.85920063351E+01 -0.69222357868E+02  0.78839418981E+02  0.10000000000E+01 0.  0.
<mgrwt>
<rscale>  0 0.12499783E+03</rscale>
<asrwt>0</asrwt>
<pdfrwt beam="1">  1        4 0.11853012E-01 0.12499783E+03</pdfrwt>
<pdfrwt beam="2">  1       -4 0.20596633E-01 0.12499783E+03</pdfrwt>
<totfact> 0.19576209E+03</totfact>
</mgrwt>
</event>
<event>
 5    1  0.1435323E-002  0.1250006E+03  0.7818608E-02  0.1235068E+00
         -4   -1    0    0    0  501 -0.00000000000E+00  0.00000000000E+00  0.27635248617E+03  0.27635540435E+03  0.12700000000E+01 0. -1.
          4   -1    0    0  501    0  0.00000000000E+00 -0.00000000000E+00 -0.14103626529E+02  0.14160691412E+02  0.12700000000E+01 0. -1.
         25    2    1    2    0    0  0.00000000000E+00  0.00000000000E+00  0.26224885964E+03  0.29051609576E+03  0.12500055005E+03 0.  0.
    9000005    1    3    3    0    0 -0.18584714960E+02  0.50348141136E+02  0.56717876170E+02  0.78091257022E+02  0.10000000000E+01 0.  0.
    9000005    1    3    3    0    0  0.18584714960E+02 -0.50348141136E+02  0.20553098347E+03  0.21242483874E+03  0.10000000000E+01 0.  0.
<mgrwt>
<rscale>  0 0.12500055E+03</rscale>
<asrwt>0</asrwt>
<pdfrwt beam="2">  1        4 0.35334045E-02 0.12500055E+03</pdfrwt>
<pdfrwt beam="1">  1       -4 0.69095619E-01 0.12500055E+03</pdfrwt>
<totfact> 0.13240918E+03</totfact>
</mgrwt>
</event>
<event>
 4    1  0.1435323E-002  0.1250908E+03  0.7818608E-02  0.1234927E+00
         -4   -1    0    0    0  501 -0.00000000000E+00  0.00000000000E+00  0.12635350822E+02  0.12699015332E+02  0.12700000000E+01 0.  1.
          4   -1    0    0  501    0  0.00000000000E+00 -0.00000000000E+00 -0.30875861821E+03  0.30876123011E+03  0.12700000000E+01 0.  1.
    9000005    1    1    2    0    0 -0.32985983920E+02  0.48127078764E+02 -0.90218842695E+02  0.10744640721E+03  0.10000000000E+01 0.  0.
    9000005    1    1    2    0    0  0.32985983920E+02 -0.48127078764E+02 -0.20590442469E+03  0.21401383823E+03  0.10000000000E+01 0.  0.
<mgrwt>
<rscale>  0 0.12509077E+03</rscale>
<asrwt>0</asrwt>
<pdfrwt beam="2">  1        4 0.77197914E-01 0.12509077E+03</pdfrwt>
<pdfrwt beam="1">  1       -4 0.31671233E-02 0.12509077E+03</pdfrwt>
<totfact> 0.12364524E+03</totfact>
</mgrwt>
</event>
<event>
 5    1  0.1435323E-002  0.1250019E+03  0.7818608E-02  0.1235066E+00
          4   -1    0    0  501    0  0.00000000000E+00  0.00000000000E+00  0.12893563833E+03  0.12894189285E+03  0.12700000000E+01 0.  1.
         -4   -1    0    0    0  501 -0.00000000000E+00 -0.00000000000E+00 -0.30276727938E+02  0.30303352201E+02  0.12700000000E+01 0.  1.
         25    2    1    2    0    0  0.00000000000E+00  0.00000000000E+00  0.98658910390E+02  0.15924524505E+03  0.12500186987E+03 0.  0.
    9000005    1    3    3    0    0 -0.21810098432E+02  0.23052351419E+02  0.11791298003E+03  0.12211290742E+03  0.10000000000E+01 0.  0.
    9000005    1    3    3    0    0  0.21810098432E+02 -0.23052351419E+02 -0.19254069643E+02  0.37132337623E+02  0.10000000000E+01 0.  0.
<mgrwt>
<rscale>  0 0.12500187E+03</rscale>
<asrwt>0</asrwt>
<pdfrwt beam="1">  1        4 0.32238019E-01 0.12500187E+03</pdfrwt>
<pdfrwt beam="2">  1       -4 0.75732919E-02 0.12500187E+03</pdfrwt>
<totfact> 0.18092546E+03</totfact>
</mgrwt>
</event>
<event>
 5    1  0.1435323E-002  0.1249987E+03  0.7818608E-02  0.1235071E+00
         -4   -1    0    0    0  501 -0.00000000000E+00  0.00000000000E+00  0.11125288011E+03  0.11126012867E+03  0.12700000000E+01 0. -1.
          4   -1    0    0  501    0  0.00000000000E+00 -0.00000000000E+00 -0.35090814184E+02  0.35113788461E+02  0.12700000000E+01 0. -1.
         25    2    1    2    0    0  0.00000000000E+00  0.00000000000E+00  0.76162065924E+02  0.14637391713E+03  0.12499865332E+03 0.  0.
    9000005    1    3    3    0    0 -0.43538676815E+02 -0.21299325609E+02 -0.81089234268E+01  0.49153151367E+02  0.10000000000E+01 0.  0.
    9000005    1    3    3    0    0  0.43538676815E+02  0.21299325609E+02  0.84270989351E+02  0.97220765767E+02  0.10000000000E+01 0.  0.
<mgrwt>
<rscale>  0 0.12499865E+03</rscale>
<asrwt>0</asrwt>
<pdfrwt beam="2">  1        4 0.87764814E-02 0.12499865E+03</pdfrwt>
<pdfrwt beam="1">  1       -4 0.27816998E-01 0.12499865E+03</pdfrwt>
<totfact> 0.18719111E+03</totfact>
</mgrwt>
</event>
<event>
 5    1  0.1435323E-002  0.1250012E+03  0.7818608E-02  0.1235067E+00
         -4   -1    0    0    0  501 -0.00000000000E+00  0.00000000000E+00  0.20062548058E+02  0.20102704659E+02  0.12700000000E+01 0.  1.
          4   -1    0    0  501    0  0.00000000000E+00 -0.00000000000E+00 -0.19447039856E+03  0.19447454542E+03  0.12700000000E+01 0.  1.
         25    2    1    2    0    0  0.00000000000E+00  0.00000000000E+00 -0.17440785051E+03  0.21457725008E+03  0.12500119173E+03 0.  0.
    9000005    1    3    3    0    0  0.40266927255E+02 -0.46493669953E+02 -0.10618287256E+03  0.12271466579E+03  0.10000000000E+01 0.  0.
    9000005    1    3    3    0    0 -0.40266927255E+02  0.46493669953E+02 -0.68224977950E+02  0.91862584291E+02  0.10000000000E+01 0.  0.
<mgrwt>
<rscale>  0 0.12500119E+03</rscale>
<asrwt>0</asrwt>
<pdfrwt beam="2">  1        4 0.48623132E-01 0.12500119E+03</pdfrwt>
<pdfrwt beam="1">  1       -4 0.50211755E-02 0.12500119E+03</pdfrwt>
<totfact> 0.15754088E+03</totfact>
</mgrwt>
</event>
<event>
 5    1  0.1435323E-002  0.1250005E+03  0.7818608E-02  0.1235068E+00
          4   -1    0    0  501    0  0.00000000000E+00  0.00000000000E+00  0.23500463082E+03  0.23500806243E+03  0.12700000000E+01 0.  1.
         -4   -1    0    0    0  501 -0.00000000000E+00 -0.00000000000E+00 -0.16594337816E+02  0.16642864764E+02  0.12700000000E+01 0.  1.
         25    2    1    2    0    0  0.00000000000E+00  0.00000000000E+00  0.21841029301E+03  0.25165092720E+03  0.12500053227E+03 0.  0.
    9000005    1    3    3    0    0 -0.40213053087E+01 -0.55659475813E+02  0.16583064070E+03  0.17497128204E+03  0.10000000000E+01 0.  0.
    9000005    1    3    3    0    0  0.40213053087E+01  0.55659475813E+02  0.52579652305E+02  0.76679645152E+02  0.10000000000E+01 0.  0.
<mgrwt>
<rscale>  0 0.12500053E+03</rscale>
<asrwt>0</asrwt>
<pdfrwt beam="1">  1        4 0.58757653E-01 0.12500053E+03</pdfrwt>
<pdfrwt beam="2">  1       -4 0.41550793E-02 0.12500053E+03</pdfrwt>
<totfact> 0.14443052E+03</totfact>
</mgrwt>
</event>
<event>
 5    1  0.1435323E-002  0.1250007E+03  0.7818608E-02  0.1235068E+00
          4   -1    0    0  501    0  0.00000000000E+00  0.00000000000E+00  0.77994480820E+01  0.79021699794E+01  0.12700000000E+01 0. -1.
         -4   -1    0    0    0  501 -0.00000000000E+00 -0.00000000000E+00 -0.49746233255E+03  0.49746395367E+03  0.12700000000E+01 0. -1.
         25    2    1    2    0    0  0.00000000000E+00  0.00000000000E+00 -0.48966288447E+03  0.50536612365E+03  0.12500071405E+03 0.  0.
    9000005    1    3    3    0    0  0.27578980402E+02 -0.52777293289E+02 -0.16820245293E+03  0.17843516475E+03  0.10000000000E+01 0.  0.
    9000005    1    3    3    0    0 -0.27578980402E+02  0.52777293289E+02 -0.32146043154E+03  0.32693095890E+03  0.10000000000E+01 0.  0.
<mgrwt>
<rscale>  0 0.12500071E+03</rscale>
<asrwt>0</asrwt>
<pdfrwt beam="1">  1        4 0.19629066E-02 0.12500071E+03</pdfrwt>
<pdfrwt beam="2">  1       -4 0.12437852E+00 0.12500071E+03</pdfrwt>
<totfact> 0.86758378E+02</totfact>
</mgrwt>
</event>
<event>
 5    1  0.1435323E-002  0.1249995E+03  0.7818608E-02  0.1235070E+00
         -4   -1    0    0    0  501 -0.00000000000E+00  0.00000000000E+00  0.13874443493E+03  0.13875024730E+03  0.12700000000E+01 0. -1.
          4   -1    0    0  501    0  0.00000000000E+00 -0.00000000000E+00 -0.28133344514E+02  0.28161995198E+02  0.12700000000E+01 0. -1.
         25    2    1    2    0    0  0.00000000000E+00  0.00000000000E+00  0.11061109042E+03  0.16691224249E+03  0.12499953348E+03 0.  0.
    9000005    1    3    3    0    0 -0.21324599166E+02  0.70158789736E+01 -0.22569748934E+02  0.31848934901E+02  0.10000000000E+01 0.  0.
    9000005    1    3    3    0    0  0.21324599166E+02 -0.70158789736E+01  0.13318083935E+03  0.13506330759E+03  0.10000000000E+01 0.  0.
<mgrwt>
<rscale>  0 0.12499953E+03</rscale>
<asrwt>0</asrwt>
<pdfrwt beam="2">  1        4 0.70376441E-02 0.12499953E+03</pdfrwt>
<pdfrwt beam="1">  1       -4 0.34690416E-01 0.12499953E+03</pdfrwt>
<totfact> 0.17737416E+03</totfact>
</mgrwt>
</event>
<event>
 5    1  0.1435323E-002  0.1250009E+03  0.7818608E-02  0.1235068E+00
          4   -1    0    0  501    0  0.00000000000E+00  0.00000000000E+00  0.64903292811E+02  0.64915717032E+02  0.12700000000E+01 0. -1.
         -4   -1    0    0    0  501 -0.00000000000E+00 -0.00000000000E+00 -0.60161632938E+02  0.60175036168E+02  0.12700000000E+01 0. -1.
         25    2    1    2    0    0  0.00000000000E+00  0.00000000000E+00  0.47416598731E+01  0.12509075320E+03  0.12500085279E+03 0.  0.
    9000005    1    3    3    0    0  0.95958801554E+01  0.83844959152E+01 -0.58852599856E+02  0.60224656059E+02  0.10000000000E+01 0.  0.
    9000005    1    3    3    0    0 -0.95958801554E+01 -0.83844959152E+01  0.63594259729E+02  0.64866097140E+02  0.10000000000E+01 0.  0.
<mgrwt>
<rscale>  0 0.12500085E+03</rscale>
<asrwt>0</asrwt>
<pdfrwt beam="1">  1        4 0.16229052E-01 0.12500085E+03</pdfrwt>
<pdfrwt beam="2">  1       -4 0.15043637E-01 0.12500085E+03</pdfrwt>
<totfact> 0.19829739E+03</totfact>
</mgrwt>
</event>
<event>
 5    1  0.1435323E-002  0.1249964E+03  0.7818608E-02  0.1235075E+00
         -4   -1    0    0    0  501 -0.00000000000E+00  0.00000000000E+00  0.93730449624E+01  0.94586929260E+01  0.12700000000E+01 0.  1.
          4   -1    0    0  501    0  0.00000000000E+00 -0.00000000000E+00 -0.41474774054E+03  0.41474968497E+03  0.12700000000E+01 0.  1.
         25    2    1    2    0    0  0.00000000000E+00  0.00000000000E+00 -0.40537469557E+03  0.42420837789E+03  0.12499641620E+03 0.  0.
    9000005    1    3    3    0    0 -0.25387901673E+02  0.54824178151E+02 -0.25685909341E+03  0.26387085843E+03  0.10000000000E+01 0.  0.
    9000005    1    3    3    0    0  0.25387901673E+02 -0.54824178151E+02 -0.14851560217E+03  0.16033751947E+03  0.10000000000E+01 0.  0.
<mgrwt>
<rscale>  0 0.12499642E+03</rscale>
<asrwt>0</asrwt>
<pdfrwt beam="2">  1        4 0.10369782E+00 0.12499642E+03</pdfrwt>
<pdfrwt beam="1">  1       -4 0.23542117E-02 0.12499642E+03</pdfrwt>
<totfact> 0.10084600E+03</totfact>
</mgrwt>
</event>
<event>
 5    1  0.1435323E-002  0.1250017E+03  0.7818608E-02  0.1235067E+00
         -4   -1    0    0    0  501 -0.00000000000E+00  0.00000000000E+00  0.79659745950E+02  0.79669868990E+02  0.12700000000E+01 0.  1.
          4   -1    0    0  501    0  0.00000000000E+00 -0.00000000000E+00 -0.49016544522E+02  0.49032994370E+02  0.12700000000E+01 0.  1.
         25    2    1    2    0    0  0.00000000000E+00  0.00000000000E+00  0.30643201428E+02  0.12870286336E+03  0.12500168496E+03 0.  0.
    9000005    1    3    3    0    0  0.42830261021E+02  0.45293357472E+02  0.10782458565E+02  0.63270695451E+02  0.10000000000E+01 0.  0.
    9000005    1    3    3    0    0 -0.42830261021E+02 -0.45293357472E+02  0.19860742863E+02  0.65432167909E+02  0.10000000000E+01 0.  0.
<mgrwt>
<rscale>  0 0.12500168E+03</rscale>
<asrwt>0</asrwt>
<pdfrwt beam="2">  1        4 0.12257458E-01 0.12500168E+03</pdfrwt>
<pdfrwt beam="1">  1       -4 0.19918258E-01 0.12500168E+03</pdfrwt>
<totfact> 0.19633605E+03</totfact>
</mgrwt>
</event>
<event>
 5    1  0.1435323E-002  0.1250027E+03  0.7818608E-02  0.1235065E+00
          4   -1    0    0  501    0  0.00000000000E+00  0.00000000000E+00  0.73315879947E+02  0.73326878785E+02  0.12700000000E+01 0.  1.
         -4   -1    0    0    0  501 -0.00000000000E+00 -0.00000000000E+00 -0.53259454659E+02  0.53274594420E+02  0.12700000000E+01 0.  1.
         25    2    1    2    0    0  0.00000000000E+00  0.00000000000E+00  0.20056425288E+02  0.12660147320E+03  0.12500269126E+03 0.  0.
    9000005    1    3    3    0    0  0.26586468816E+02  0.71453975380E+00  0.67302961887E+02  0.72374301862E+02  0.10000000000E+01 0.  0.
    9000005    1    3    3    0    0 -0.26586468816E+02 -0.71453975380E+00 -0.47246536600E+02  0.54227171343E+02  0.10000000000E+01 0.  0.
<mgrwt>
<rscale>  0 0.12500269E+03</rscale>
<asrwt>0</asrwt>
<pdfrwt beam="1">  1        4 0.18332237E-01 0.12500269E+03</pdfrwt>
<pdfrwt beam="2">  1       -4 0.13318131E-01 0.12500269E+03</pdfrwt>
<totfact> 0.19747209E+03</totfact>
</mgrwt>
</event>
<event>
 5    1  0.1435323E-002  0.1249967E+03  0.7818608E-02  0.1235074E+00
          4   -1    0    0  501    0  0.00000000000E+00  0.00000000000E+00  0.16915149837E+02  0.16962759033E+02  0.12700000000E+01 0.  1.
         -4   -1    0    0    0  501 -0.00000000000E+00 -0.00000000000E+00 -0.23054585416E+03  0.23054935214E+03  0.12700000000E+01 0.  1.
         25    2    1    2    0    0  0.00000000000E+00  0.00000000000E+00 -0.21363070432E+03  0.24751211117E+03  0.12499666934E+03 0.  0.
    9000005    1    3    3    0    0 -0.53268470270E+02  0.67749416456E+01 -0.17010621593E+03  0.17838316753E+03  0.10000000000E+01 0.  0.
    9000005    1    3    3    0    0  0.53268470270E+02 -0.67749416456E+01 -0.43524488395E+02  0.69128943643E+02  0.10000000000E+01 0.  0.
<mgrwt>
<rscale>  0 0.12499667E+03</rscale>
<asrwt>0</asrwt>
<pdfrwt beam="1">  1        4 0.42351766E-02 0.12499667E+03</pdfrwt>
<pdfrwt beam="2">  1       -4 0.57642842E-01 0.12499667E+03</pdfrwt>
<totfact> 0.14582228E+03</totfact>
</mgrwt>
</event>
<event>
 5    1  0.1435323E-002  0.1249990E+03  0.7818608E-02  0.1235071E+00
         -4   -1    0    0    0  501 -0.00000000000E+00  0.00000000000E+00  0.17418213823E+02  0.17464451688E+02  0.12700000000E+01 0. -1.
          4   -1    0    0  501    0  0.00000000000E+00 -0.00000000000E+00 -0.22391356608E+03  0.22391716766E+03  0.12700000000E+01 0. -1.
         25    2    1    2    0    0  0.00000000000E+00  0.00000000000E+00 -0.20649535225E+03  0.24138161935E+03  0.12499902262E+03 0.  0.
    9000005    1    3    3    0    0  0.62424966756E+02 -0.26404634557E+01 -0.10548337632E+03  0.12260338984E+03  0.10000000000E+01 0.  0.
    9000005    1    3    3    0    0 -0.62424966756E+02  0.26404634557E+01 -0.10101197594E+03  0.11877822950E+03  0.10000000000E+01 0.  0.
<mgrwt>
<rscale>  0 0.12499902E+03</rscale>
<asrwt>0</asrwt>
<pdfrwt beam="2">  1        4 0.55984612E-01 0.12499902E+03</pdfrwt>
<pdfrwt beam="1">  1       -4 0.43607841E-02 0.12499902E+03</pdfrwt>
<totfact> 0.14789305E+03</totfact>
</mgrwt>
</event>
<event>
 5    1  0.1435323E-002  0.1250006E+03  0.7818608E-02  0.1235068E+00
         -4   -1    0    0    0  501 -0.00000000000E+00  0.00000000000E+00  0.32625944816E+03  0.32626191996E+03  0.12700000000E+01 0.  1.
          4   -1    0    0  501    0  0.00000000000E+00 -0.00000000000E+00 -0.11936746219E+02  0.12004116389E+02  0.12700000000E+01 0.  1.
         25    2    1    2    0    0  0.00000000000E+00  0.00000000000E+00  0.31432270195E+03  0.33826603635E+03  0.12500060156E+03 0.  0.
    9000005    1    3    3    0    0 -0.10069265763E+02 -0.61675049371E+02  0.15636882648E+03  0.16839659060E+03  0.10000000000E+01 0.  0.
    9000005    1    3    3    0    0  0.10069265763E+02  0.61675049371E+02  0.15795387546E+03  0.16986944575E+03  0.10000000000E+01 0.  0.
<mgrwt>
<rscale>  0 0.12500060E+03</rscale>
<asrwt>0</asrwt>
<pdfrwt beam="2">  1        4 0.29929167E-02 0.12500060E+03</pdfrwt>
<pdfrwt beam="1">  1       -4 0.81573595E-01 0.12500060E+03</pdfrwt>
<totfact> 0.11962360E+03</totfact>
</mgrwt>
</event>
<event>
 4    1  0.1435323E-002  0.1251015E+03  0.7818608E-02  0.1234911E+00
          4   -1    0    0  501    0  0.00000000000E+00  0.00000000000E+00  0.20775434744E+02  0.20814216027E+02  0.12700000000E+01 0.  1.
         -4   -1    0    0    0  501 -0.00000000000E+00 -0.00000000000E+00 -0.18811135974E+03  0.18811564678E+03  0.12700000000E+01 0.  1.
    9000005    1    1    2    0    0  0.91164092056E+01  0.53576166650E+02 -0.31974111795E+02  0.63062337213E+02  0.10000000000E+01 0.  0.
    9000005    1    1    2    0    0 -0.91164092056E+01 -0.53576166650E+02 -0.13536181320E+03  0.14586752560E+03  0.10000000000E+01 0.  0.
<mgrwt>
<rscale>  0 0.12510146E+03</rscale>
<asrwt>0</asrwt>
<pdfrwt beam="1">  1        4 0.51992428E-02 0.12510146E+03</pdfrwt>
<pdfrwt beam="2">  1       -4 0.47033218E-01 0.12510146E+03</pdfrwt>
<totfact> 0.15933238E+03</totfact>
</mgrwt>
</event>
<event>
 5    1  0.1435323E-002  0.1250036E+03  0.7818608E-02  0.1235064E+00
          4   -1    0    0  501    0  0.00000000000E+00  0.00000000000E+00  0.12460590142E+03  0.12461237325E+03  0.12700000000E+01 0.  1.
         -4   -1    0    0    0  501 -0.00000000000E+00 -0.00000000000E+00 -0.31330514814E+02  0.31356244330E+02  0.12700000000E+01 0.  1.
         25    2    1    2    0    0  0.00000000000E+00  0.00000000000E+00  0.93275386605E+02  0.15596861758E+03  0.12500364765E+03 0.  0.
    9000005    1    3    3    0    0 -0.25982906669E+02  0.33970003370E+02  0.10349294847E+03  0.11198599444E+03  0.10000000000E+01 0.  0.
    9000005    1    3    3    0    0  0.25982906669E+02 -0.33970003370E+02 -0.10217561868E+02  0.43982623142E+02  0.10000000000E+01 0.  0.
<mgrwt>
<rscale>  0 0.12500365E+03</rscale>
<asrwt>0</asrwt>
<pdfrwt beam="1">  1        4 0.31155500E-01 0.12500365E+03</pdfrwt>
<pdfrwt beam="2">  1       -4 0.78366540E-02 0.12500365E+03</pdfrwt>
<totfact> 0.18247596E+03</totfact>
</mgrwt>
</event>
<event>
 5    1  0.1435323E-002  0.1250034E+03  0.7818608E-02  0.1235064E+00
         -4   -1    0    0    0  501 -0.00000000000E+00  0.00000000000E+00  0.34026241740E+03  0.34026478748E+03  0.12700000000E+01 0. -1.
          4   -1    0    0  501    0  0.00000000000E+00 -0.00000000000E+00 -0.11443193563E+02  0.11513452085E+02  0.12700000000E+01 0. -1.
         25    2    1    2    0    0  0.00000000000E+00  0.00000000000E+00  0.32881922384E+03  0.35177823956E+03  0.12500339140E+03 0.  0.
    9000005    1    3    3    0    0 -0.45997609218E+02  0.40503723673E+02  0.13004352433E+03  0.14376595530E+03  0.10000000000E+01 0.  0.
    9000005    1    3    3    0    0  0.45997609218E+02 -0.40503723673E+02  0.19877569951E+03  0.20801228426E+03  0.10000000000E+01 0.  0.
<mgrwt>
<rscale>  0 0.12500339E+03</rscale>
<asrwt>0</asrwt>
<pdfrwt beam="2">  1        4 0.28698771E-02 0.12500339E+03</pdfrwt>
<pdfrwt beam="1">  1       -4 0.85074679E-01 0.12500339E+03</pdfrwt>
<totfact> 0.11634121E+03</totfact>
</mgrwt>
</event>
<event>
 5    1  0.1435323E-002  0.1249976E+03  0.7818608E-02  0.1235073E+00
          4   -1    0    0  501    0  0.00000000000E+00  0.00000000000E+00  0.59176264968E+03  0.59176401248E+03  0.12700000000E+01 0. -1.
         -4   -1    0    0    0  501 -0.00000000000E+00 -0.00000000000E+00 -0.65383158801E+01  0.66605160872E+01  0.12700000000E+01 0. -1.
         25    2    1    2    0    0  0.00000000000E+00  0.00000000000E+00  0.58522433380E+03  0.59842452856E+03  0.12499758201E+03 0.  0.
    9000005    1    3    3    0    0 -0.34407215154E+02 -0.33808717393E+02  0.48280344177E+03  0.48520825345E+03  0.10000000000E+01 0.  0.
    9000005    1    3    3    0    0  0.34407215154E+02  0.33808717393E+02  0.10242089203E+03  0.11321627511E+03  0.10000000000E+01 0.  0.
<mgrwt>
<rscale>  0 0.12499758E+03</rscale>
<asrwt>0</asrwt>
<pdfrwt beam="1">  1        4 0.14795607E+00 0.12499758E+03</pdfrwt>
<pdfrwt beam="2">  1       -4 0.16500248E-02 0.12499758E+03</pdfrwt>
<totfact> 0.73705526E+02</totfact>
</mgrwt>
</event>
<event>
 5    1  0.1435323E-002  0.1250001E+03  0.7818608E-02  0.1235069E+00
         -4   -1    0    0    0  501 -0.00000000000E+00  0.00000000000E+00  0.60408152025E+02  0.60421500570E+02  0.12700000000E+01 0.  1.
          4   -1    0    0  501    0  0.00000000000E+00 -0.00000000000E+00 -0.64637630498E+02  0.64650105772E+02  0.12700000000E+01 0.  1.
         25    2    1    2    0    0  0.00000000000E+00  0.00000000000E+00 -0.42294784726E+01  0.12507160634E+03  0.12500007290E+03 0.  0.
    9000005    1    3    3    0    0 -0.51052365837E+02 -0.53168154364E+01 -0.37781203623E+02  0.63741916594E+02  0.10000000000E+01 0.  0.
    9000005    1    3    3    0    0  0.51052365837E+02  0.53168154364E+01  0.33551725150E+02  0.61329689747E+02  0.10000000000E+01 0.  0.
<mgrwt>
<rscale>  0 0.12500007E+03</rscale>
<asrwt>0</asrwt>
<pdfrwt beam="2">  1        4 0.16162636E-01 0.12500007E+03</pdfrwt>
<pdfrwt beam="1">  1       -4 0.15105266E-01 0.12500007E+03</pdfrwt>
<totfact> 0.19831139E+03</totfact>
</mgrwt>
</event>
<event>
 5    1  0.1435323E-002  0.1249850E+03  0.7818608E-02  0.1235093E+00
         -4   -1    0    0    0  501 -0.00000000000E+00  0.00000000000E+00  0.69961947459E+02  0.69973473490E+02  0.12700000000E+01 0.  1.
          4   -1    0    0  501    0  0.00000000000E+00 -0.00000000000E+00 -0.55797147628E+02  0.55811599004E+02  0.12700000000E+01 0.  1.
         25    2    1    2    0    0  0.00000000000E+00  0.00000000000E+00  0.14164799831E+02  0.12578507249E+03  0.12498497073E+03 0.  0.
    9000005    1    3    3    0    0  0.19127126361E+01 -0.59031391633E+02 -0.13442939176E+02  0.60581154507E+02  0.10000000000E+01 0.  0.
    9000005    1    3    3    0    0 -0.19127126361E+01  0.59031391633E+02  0.27607739007E+02  0.65203917987E+02  0.10000000000E+01 0.  0.
<mgrwt>
<rscale>  0 0.12498497E+03</rscale>
<asrwt>0</asrwt>
<pdfrwt beam="2">  1        4 0.13952534E-01 0.12498497E+03</pdfrwt>
<pdfrwt beam="1">  1       -4 0.17493734E-01 0.12498497E+03</pdfrwt>
<totfact> 0.19799499E+03</totfact>
</mgrwt>
</event>
<event>
 5    1  0.1435323E-002  0.1250006E+03  0.7818608E-02  0.1235068E+00
          4   -1    0    0  501    0  0.00000000000E+00  0.00000000000E+00  0.48197343529E+02  0.48214072875E+02  0.12700000000E+01 0. -1.
         -4   -1    0    0    0  501 -0.00000000000E+00 -0.00000000000E+00 -0.81011960133E+02  0.81021914224E+02  0.12700000000E+01 0. -1.
         25    2    1    2    0    0  0.00000000000E+00  0.00000000000E+00 -0.32814616604E+02  0.12923598710E+03  0.12500056519E+03 0.  0.
    9000005    1    3    3    0    0  0.52260009329E+02  0.59882376028E+01 -0.51289458156E+02  0.73475003114E+02  0.10000000000E+01 0.  0.
    9000005    1    3    3    0    0 -0.52260009329E+02 -0.59882376028E+01  0.18474841552E+02  0.55760983985E+02  0.10000000000E+01 0.  0.
<mgrwt>
<rscale>  0 0.12500057E+03</rscale>
<asrwt>0</asrwt>
<pdfrwt beam="1">  1        4 0.12052671E-01 0.12500057E+03</pdfrwt>
<pdfrwt beam="2">  1       -4 0.20256325E-01 0.12500057E+03</pdfrwt>
<totfact> 0.19605286E+03</totfact>
</mgrwt>
</event>
<event>
 5    1  0.1435323E-002  0.1249984E+03  0.7818608E-02  0.1235072E+00
          4   -1    0    0  501    0  0.00000000000E+00  0.00000000000E+00  0.66370840700E+02  0.66382990255E+02  0.12700000000E+01 0. -1.
         -4   -1    0    0    0  501 -0.00000000000E+00 -0.00000000000E+00 -0.58828992424E+02  0.58842699204E+02  0.12700000000E+01 0. -1.
         25    2    1    2    0    0  0.00000000000E+00  0.00000000000E+00  0.75418482758E+01  0.12522568946E+03  0.12499837529E+03 0.  0.
    9000005    1    3    3    0    0 -0.40131706045E+02 -0.42403144102E+02 -0.18553405487E+02  0.61268338602E+02  0.10000000000E+01 0.  0.
    9000005    1    3    3    0    0  0.40131706045E+02  0.42403144102E+02  0.26095253763E+02  0.63957350858E+02  0.10000000000E+01 0.  0.
<mgrwt>
<rscale>  0 0.12499838E+03</rscale>
<asrwt>0</asrwt>
<pdfrwt beam="1">  1        4 0.16595942E-01 0.12499838E+03</pdfrwt>
<pdfrwt beam="2">  1       -4 0.14710480E-01 0.12499838E+03</pdfrwt>
<totfact> 0.19823574E+03</totfact>
</mgrwt>
</event>
<event>
 5    1  0.1435323E-002  0.1249984E+03  0.7818608E-02  0.1235072E+00
          4   -1    0    0  501    0  0.00000000000E+00  0.00000000000E+00  0.60640699871E+02  0.60653997237E+02  0.12700000000E+01 0.  1.
         -4   -1    0    0    0  501 -0.00000000000E+00 -0.00000000000E+00 -0.64388052769E+02  0.64400576390E+02  0.12700000000E+01 0.  1.
         25    2    1    2    0    0  0.00000000000E+00  0.00000000000E+00 -0.37473528987E+01  0.12505457363E+03  0.12499841492E+03 0.  0.
    9000005    1    3    3    0    0 -0.82758619337E+01  0.61066289822E+02  0.85025448078E+01  0.62216355660E+02  0.10000000000E+01 0.  0.
    9000005    1    3    3    0    0  0.82758619337E+01 -0.61066289822E+02 -0.12249897706E+02  0.62838217967E+02  0.10000000000E+01 0.  0.
<mgrwt>
<rscale>  0 0.12499841E+03</rscale>
<asrwt>0</asrwt>
<pdfrwt beam="1">  1        4 0.15163403E-01 0.12499841E+03</pdfrwt>
<pdfrwt beam="2">  1       -4 0.16100241E-01 0.12499841E+03</pdfrwt>
<totfact> 0.19832832E+03</totfact>
</mgrwt>
</event>
<event>
 5    1  0.1435323E-002  0.1250004E+03  0.7818608E-02  0.1235069E+00
         -4   -1    0    0    0  501 -0.00000000000E+00  0.00000000000E+00  0.13610547316E+03  0.13611139821E+03  0.12700000000E+01 0.  1.
          4   -1    0    0  501    0  0.00000000000E+00 -0.00000000000E+00 -0.28679746406E+02  0.28707851781E+02  0.12700000000E+01 0.  1.
         25    2    1    2    0    0  0.00000000000E+00  0.00000000000E+00  0.10742572675E+03  0.16481924999E+03  0.12500039360E+03 0.  0.
    9000005    1    3    3    0    0  0.37086242117E+01  0.46746527016E+02 -0.75270932926E+00  0.46910108217E+02  0.10000000000E+01 0.  0.
    9000005    1    3    3    0    0 -0.37086242117E+01 -0.46746527016E+02  0.10817843608E+03  0.11790914178E+03  0.10000000000E+01 0.  0.
<mgrwt>
<rscale>  0 0.12500039E+03</rscale>
<asrwt>0</asrwt>
<pdfrwt beam="2">  1        4 0.71741906E-02 0.12500039E+03</pdfrwt>
<pdfrwt beam="1">  1       -4 0.34030621E-01 0.12500039E+03</pdfrwt>
<totfact> 0.17833121E+03</totfact>
</mgrwt>
</event>
<event>
 5    1  0.1435323E-002  0.1250374E+03  0.7818608E-02  0.1235011E+00
         -4   -1    0    0    0  501 -0.00000000000E+00  0.00000000000E+00  0.15773799804E+03  0.15774311055E+03  0.12700000000E+01 0.  1.
          4   -1    0    0  501    0  0.00000000000E+00 -0.00000000000E+00 -0.24757205547E+02  0.24789758500E+02  0.12700000000E+01 0.  1.
         25    2    1    2    0    0  0.00000000000E+00  0.00000000000E+00  0.13298079250E+03  0.18253286905E+03  0.12503742284E+03 0.  0.
    9000005    1    3    3    0    0 -0.45516862076E+02 -0.42806633590E+02  0.63799930631E+02  0.89306347821E+02  0.10000000000E+01 0.  0.
    9000005    1    3    3    0    0  0.45516862076E+02  0.42806633590E+02  0.69180861865E+02  0.93226521232E+02  0.10000000000E+01 0.  0.
<mgrwt>
<rscale>  0 0.12503742E+03</rscale>
<asrwt>0</asrwt>
<pdfrwt beam="2">  1        4 0.61940096E-02 0.12503742E+03</pdfrwt>
<pdfrwt beam="1">  1       -4 0.39439208E-01 0.12503742E+03</pdfrwt>
<totfact> 0.17031365E+03</totfact>
</mgrwt>
</event>
<event>
 5    1  0.1435323E-002  0.1250019E+03  0.7818608E-02  0.1235066E+00
          4   -1    0    0  501    0  0.00000000000E+00  0.00000000000E+00  0.19891776851E+02  0.19932277498E+02  0.12700000000E+01 0. -1.
         -4   -1    0    0    0  501 -0.00000000000E+00 -0.00000000000E+00 -0.19613895589E+03  0.19614306747E+03  0.12700000000E+01 0. -1.
         25    2    1    2    0    0  0.00000000000E+00  0.00000000000E+00 -0.17624717904E+03  0.21607534497E+03  0.12500194632E+03 0.  0.
    9000005    1    3    3    0    0 -0.50764186366E+02  0.11804105841E+02 -0.14772893809E+03  0.15665624368E+03  0.10000000000E+01 0.  0.
    9000005    1    3    3    0    0  0.50764186366E+02 -0.11804105841E+02 -0.28518240944E+02  0.59419101295E+02  0.10000000000E+01 0.  0.
<mgrwt>
<rscale>  0 0.12500195E+03</rscale>
<asrwt>0</asrwt>
<pdfrwt beam="1">  1        4 0.49785213E-02 0.12500195E+03</pdfrwt>
<pdfrwt beam="2">  1       -4 0.49040310E-01 0.12500195E+03</pdfrwt>
<totfact> 0.15697268E+03</totfact>
</mgrwt>
</event>
<event>
 5    1  0.1435323E-002  0.1249993E+03  0.7818608E-02  0.1235070E+00
          4   -1    0    0  501    0  0.00000000000E+00  0.00000000000E+00  0.52963524758E+01  0.54464896537E+01  0.12700000000E+01 0. -1.
         -4   -1    0    0    0  501 -0.00000000000E+00 -0.00000000000E+00 -0.72706956922E+03  0.72707067840E+03  0.12700000000E+01 0. -1.
         25    2    1    2    0    0  0.00000000000E+00  0.00000000000E+00 -0.72177321674E+03  0.73251716805E+03  0.12499930032E+03 0.  0.
    9000005    1    3    3    0    0  0.39061732669E+02 -0.18114120312E+02 -0.95474206709E+02  0.10473903026E+03  0.10000000000E+01 0.  0.
    9000005    1    3    3    0    0 -0.39061732669E+02  0.18114120312E+02 -0.62629901003E+03  0.62777813779E+03  0.10000000000E+01 0.  0.
<mgrwt>
<rscale>  0 0.12499930E+03</rscale>
<asrwt>0</asrwt>
<pdfrwt beam="1">  1        4 0.13429964E-02 0.12499930E+03</pdfrwt>
<pdfrwt beam="2">  1       -4 0.18178596E+00 0.12499930E+03</pdfrwt>
<totfact> 0.58767201E+02</totfact>
</mgrwt>
</event>
<event>
 4    1  0.1435323E-002  0.1245788E+03  0.7818608E-02  0.1235729E+00
         -4   -1    0    0    0  501 -0.00000000000E+00  0.00000000000E+00  0.25024546614E+03  0.25024868876E+03  0.12700000000E+01 0. -1.
          4   -1    0    0  501    0  0.00000000000E+00 -0.00000000000E+00 -0.15475311671E+02  0.15527336259E+02  0.12700000000E+01 0. -1.
    9000005    1    1    2    0    0 -0.78352476097E+01  0.77999807026E+01 -0.13375593842E+02  0.17382097534E+02  0.10000000000E+01 0.  0.
    9000005    1    1    2    0    0  0.78352476097E+01 -0.77999807026E+01  0.24814574831E+03  0.24839392748E+03  0.10000000000E+01 0.  0.
<mgrwt>
<rscale>  0 0.12457877E+03</rscale>
<asrwt>0</asrwt>
<pdfrwt beam="2">  1        4 0.38757338E-02 0.12457877E+03</pdfrwt>
<pdfrwt beam="1">  1       -4 0.62568273E-01 0.12457877E+03</pdfrwt>
<totfact> 0.14123736E+03</totfact>
</mgrwt>
</event>
<event>
 5    1  0.1435323E-002  0.1250008E+03  0.7818608E-02  0.1235068E+00
          4   -1    0    0  501    0  0.00000000000E+00  0.00000000000E+00  0.24074806067E+02  0.24108280469E+02  0.12700000000E+01 0.  1.
         -4   -1    0    0    0  501 -0.00000000000E+00 -0.00000000000E+00 -0.16210798924E+03  0.16211296393E+03  0.12700000000E+01 0.  1.
         25    2    1    2    0    0  0.00000000000E+00  0.00000000000E+00 -0.13803318317E+03  0.18622124440E+03  0.12500076884E+03 0.  0.
    9000005    1    3    3    0    0 -0.60553377418E+02 -0.36490670445E+01 -0.46656733917E+02  0.76536775649E+02  0.10000000000E+01 0.  0.
    9000005    1    3    3    0    0  0.60553377418E+02  0.36490670445E+01 -0.91376449252E+02  0.10968446875E+03  0.10000000000E+01 0.  0.
<mgrwt>
<rscale>  0 0.12500077E+03</rscale>
<asrwt>0</asrwt>
<pdfrwt beam="1">  1        4 0.60235081E-02 0.12500077E+03</pdfrwt>
<pdfrwt beam="2">  1       -4 0.40531800E-01 0.12500077E+03</pdfrwt>
<totfact> 0.16888749E+03</totfact>
</mgrwt>
</event>
<event>
 5    1  0.1435323E-002  0.1249964E+03  0.7818608E-02  0.1235075E+00
          4   -1    0    0  501    0  0.00000000000E+00  0.00000000000E+00  0.12660460230E+02  0.12723999105E+02  0.12700000000E+01 0.  1.
         -4   -1    0    0    0  501 -0.00000000000E+00 -0.00000000000E+00 -0.30768448568E+03  0.30768710670E+03  0.12700000000E+01 0.  1.
         25    2    1    2    0    0  0.00000000000E+00  0.00000000000E+00 -0.29502402545E+03  0.32041110581E+03  0.12499640447E+03 0.  0.
    9000005    1    3    3    0    0  0.34073650784E+01  0.16518309214E+02 -0.30175234460E+03  0.30222498597E+03  0.10000000000E+01 0.  0.
    9000005    1    3    3    0    0 -0.34073650784E+01 -0.16518309214E+02  0.67283191448E+01  0.18186119833E+02  0.10000000000E+01 0.  0.
<mgrwt>
<rscale>  0 0.12499640E+03</rscale>
<asrwt>0</asrwt>
<pdfrwt beam="1">  1        4 0.31733861E-02 0.12499640E+03</pdfrwt>
<pdfrwt beam="2">  1       -4 0.76929367E-01 0.12499640E+03</pdfrwt>
<totfact> 0.12418705E+03</totfact>
</mgrwt>
</event>
<event>
 5    1  0.1435323E-002  0.1250011E+03  0.7818608E-02  0.1235068E+00
         -4   -1    0    0    0  501 -0.00000000000E+00  0.00000000000E+00  0.71459484585E+02  0.71470769109E+02  0.12700000000E+01 0. -1.
          4   -1    0    0  501    0  0.00000000000E+00 -0.00000000000E+00 -0.54641831657E+02  0.54656588504E+02  0.12700000000E+01 0. -1.
         25    2    1    2    0    0  0.00000000000E+00  0.00000000000E+00  0.16817652927E+02  0.12612735761E+03  0.12500110755E+03 0.  0.
    9000005    1    3    3    0    0 -0.37281936337E+01  0.10885024204E+02  0.70386483997E+02  0.71327696648E+02  0.10000000000E+01 0.  0.
    9000005    1    3    3    0    0  0.37281936337E+01 -0.10885024204E+02 -0.53568831070E+02  0.54799660965E+02  0.10000000000E+01 0.  0.
<mgrwt>
<rscale>  0 0.12500111E+03</rscale>
<asrwt>0</asrwt>
<pdfrwt beam="2">  1        4 0.13663713E-01 0.12500111E+03</pdfrwt>
<pdfrwt beam="1">  1       -4 0.17868126E-01 0.12500111E+03</pdfrwt>
<totfact> 0.19773527E+03</totfact>
</mgrwt>
</event>
<event>
 5    1  0.1435323E-002  0.1250243E+03  0.7818608E-02  0.1235031E+00
          4   -1    0    0  501    0  0.00000000000E+00  0.00000000000E+00  0.12170325570E+03  0.12170988188E+03  0.12700000000E+01 0.  1.
         -4   -1    0    0    0  501 -0.00000000000E+00 -0.00000000000E+00 -0.32088939857E+02  0.32114061736E+02  0.12700000000E+01 0.  1.
         25    2    1    2    0    0  0.00000000000E+00  0.00000000000E+00  0.89614315838E+02  0.15382394361E+03  0.12502431774E+03 0.  0.
    9000005    1    3    3    0    0 -0.24623976504E+02 -0.34425464002E+01 -0.25748779321E+02  0.35807694440E+02  0.10000000000E+01 0.  0.
    9000005    1    3    3    0    0  0.24623976504E+02  0.34425464002E+01  0.11536309516E+03  0.11801624917E+03  0.10000000000E+01 0.  0.
<mgrwt>
<rscale>  0 0.12502432E+03</rscale>
<asrwt>0</asrwt>
<pdfrwt beam="1">  1        4 0.30429782E-01 0.12502432E+03</pdfrwt>
<pdfrwt beam="2">  1       -4 0.80262035E-02 0.12502432E+03</pdfrwt>
<totfact> 0.18341965E+03</totfact>
</mgrwt>
</event>
<event>
 5    1  0.1435323E-002  0.1249985E+03  0.7818608E-02  0.1235072E+00
         -4   -1    0    0    0  501 -0.00000000000E+00  0.00000000000E+00  0.10153533007E+02  0.10232650318E+02  0.12700000000E+01 0.  1.
          4   -1    0    0  501    0  0.00000000000E+00 -0.00000000000E+00 -0.38313565202E+03  0.38313775688E+03  0.12700000000E+01 0.  1.
         25    2    1    2    0    0  0.00000000000E+00  0.00000000000E+00 -0.37298211901E+03  0.39337040720E+03  0.12499846462E+03 0.  0.
    9000005    1    3    3    0    0 -0.31179163305E+02 -0.37681661977E+02 -0.30890523373E+03  0.31275468230E+03  0.10000000000E+01 0.  0.
    9000005    1    3    3    0    0  0.31179163305E+02  0.37681661977E+02 -0.64076885276E+02  0.80615724896E+02  0.10000000000E+01 0.  0.
<mgrwt>
<rscale>  0 0.12499846E+03</rscale>
<asrwt>0</asrwt>
<pdfrwt beam="2">  1        4 0.95794018E-01 0.12499846E+03</pdfrwt>
<pdfrwt beam="1">  1       -4 0.25485373E-02 0.12499846E+03</pdfrwt>
<totfact> 0.10707422E+03</totfact>
</mgrwt>
</event>
<event>
 5    1  0.1435323E-002  0.1249971E+03  0.7818608E-02  0.1235074E+00
         -4   -1    0    0    0  501 -0.00000000000E+00  0.00000000000E+00  0.94076399763E+02  0.94084971661E+02  0.12700000000E+01 0. -1.
          4   -1    0    0  501    0  0.00000000000E+00 -0.00000000000E+00 -0.41499974524E+02  0.41519402518E+02  0.12700000000E+01 0. -1.
         25    2    1    2    0    0  0.00000000000E+00  0.00000000000E+00  0.52576425240E+02  0.13560437418E+03  0.12499706319E+03 0.  0.
    9000005    1    3    3    0    0 -0.52199795690E+02 -0.20157608229E+01  0.63494095397E+02  0.82227623777E+02  0.10000000000E+01 0.  0.
    9000005    1    3    3    0    0  0.52199795690E+02  0.20157608229E+01 -0.10917670158E+02  0.53376750401E+02  0.10000000000E+01 0.  0.
<mgrwt>
<rscale>  0 0.12499706E+03</rscale>
<asrwt>0</asrwt>
<pdfrwt beam="2">  1        4 0.10378494E-01 0.12499706E+03</pdfrwt>
<pdfrwt beam="1">  1       -4 0.23522600E-01 0.12499706E+03</pdfrwt>
<totfact> 0.19268848E+03</totfact>
</mgrwt>
</event>
<event>
 5    1  0.1435323E-002  0.1249973E+03  0.7818608E-02  0.1235074E+00
         -4   -1    0    0    0  501 -0.00000000000E+00  0.00000000000E+00  0.60534321757E+02  0.60547642486E+02  0.12700000000E+01 0.  1.
          4   -1    0    0  501    0  0.00000000000E+00 -0.00000000000E+00 -0.64500044033E+02  0.64512545913E+02  0.12700000000E+01 0.  1.
         25    2    1    2    0    0  0.00000000000E+00  0.00000000000E+00 -0.39657222754E+01  0.12506018840E+03  0.12499729505E+03 0.  0.
    9000005    1    3    3    0    0  0.50501275186E+02  0.35162083957E+02  0.89005714982E+01  0.62184975007E+02  0.10000000000E+01 0.  0.
    9000005    1    3    3    0    0 -0.50501275186E+02 -0.35162083957E+02 -0.12866293774E+02  0.62875213392E+02  0.10000000000E+01 0.  0.
<mgrwt>
<rscale>  0 0.12499730E+03</rscale>
<asrwt>0</asrwt>
<pdfrwt beam="2">  1        4 0.16128239E-01 0.12499730E+03</pdfrwt>
<pdfrwt beam="1">  1       -4 0.15136808E-01 0.12499730E+03</pdfrwt>
<totfact> 0.19833047E+03</totfact>
</mgrwt>
</event>
<event>
 5    1  0.1435323E-002  0.1249883E+03  0.7818608E-02  0.1235088E+00
          4   -1    0    0  501    0  0.00000000000E+00  0.00000000000E+00  0.54347601621E+02  0.54362438337E+02  0.12700000000E+01 0.  1.
         -4   -1    0    0    0  501 -0.00000000000E+00 -0.00000000000E+00 -0.71831631292E+02  0.71842857363E+02  0.12700000000E+01 0.  1.
         25    2    1    2    0    0  0.00000000000E+00  0.00000000000E+00 -0.17484029671E+02  0.12620529570E+03  0.12498834093E+03 0.  0.
    9000005    1    3    3    0    0 -0.30150497358E+01 -0.37723579321E+02 -0.58948999439E+02  0.70058143685E+02  0.10000000000E+01 0.  0.
    9000005    1    3    3    0    0  0.30150497358E+01  0.37723579321E+02  0.41464969768E+02  0.56147152016E+02  0.10000000000E+01 0.  0.
<mgrwt>
<rscale>  0 0.12498834E+03</rscale>
<asrwt>0</asrwt>
<pdfrwt beam="1">  1        4 0.13590158E-01 0.12498834E+03</pdfrwt>
<pdfrwt beam="2">  1       -4 0.17961166E-01 0.12498834E+03</pdfrwt>
<totfact> 0.19775223E+03</totfact>
</mgrwt>
</event>
<event>
 5    1  0.1435323E-002  0.1250009E+03  0.7818608E-02  0.1235068E+00
          4   -1    0    0  501    0  0.00000000000E+00  0.00000000000E+00  0.10102403321E+03  0.10103201564E+03  0.12700000000E+01 0.  1.
         -4   -1    0    0    0  501 -0.00000000000E+00 -0.00000000000E+00 -0.38647170243E+02  0.38668031599E+02  0.12700000000E+01 0.  1.
         25    2    1    2    0    0  0.00000000000E+00  0.00000000000E+00  0.62376862963E+02  0.13970004724E+03  0.12500092066E+03 0.  0.
    9000005    1    3    3    0    0  0.22581521012E+02 -0.54195220008E+02  0.72641121328E+01  0.59167679421E+02  0.10000000000E+01 0.  0.
    9000005    1    3    3    0    0 -0.22581521012E+02  0.54195220008E+02  0.55112750830E+02  0.80532367822E+02  0.10000000000E+01 0.  0.
<mgrwt>
<rscale>  0 0.12500092E+03</rscale>
<asrwt>0</asrwt>
<pdfrwt beam="1">  1        4 0.25259614E-01 0.12500092E+03</pdfrwt>
<pdfrwt beam="2">  1       -4 0.96653981E-02 0.12500092E+03</pdfrwt>
<totfact> 0.19055289E+03</totfact>
</mgrwt>
</event>
<event>
 5    1  0.1435323E-002  0.1249988E+03  0.7818608E-02  0.1235071E+00
          4   -1    0    0  501    0  0.00000000000E+00  0.00000000000E+00  0.46421582575E+02  0.46438951633E+02  0.12700000000E+01 0.  1.
         -4   -1    0    0    0  501 -0.00000000000E+00 -0.00000000000E+00 -0.84107723064E+02  0.84117310817E+02  0.12700000000E+01 0.  1.
         25    2    1    2    0    0  0.00000000000E+00  0.00000000000E+00 -0.37686140489E+02  0.13055626245E+03  0.12499876991E+03 0.  0.
    9000005    1    3    3    0    0 -0.32291405206E+02  0.50400360070E+02 -0.93858038720E-01  0.59866016693E+02  0.10000000000E+01 0.  0.
    9000005    1    3    3    0    0  0.32291405206E+02 -0.50400360070E+02 -0.37592282450E+02  0.70690245757E+02  0.10000000000E+01 0.  0.
<mgrwt>
<rscale>  0 0.12499877E+03</rscale>
<asrwt>0</asrwt>
<pdfrwt beam="1">  1        4 0.11608765E-01 0.12499877E+03</pdfrwt>
<pdfrwt beam="2">  1       -4 0.21030300E-01 0.12499877E+03</pdfrwt>
<totfact> 0.19535086E+03</totfact>
</mgrwt>
</event>
<event>
 5    1  0.1435323E-002  0.1249991E+03  0.7818608E-02  0.1235071E+00
          4   -1    0    0  501    0  0.00000000000E+00  0.00000000000E+00  0.63190370077E+02  0.63203131018E+02  0.12700000000E+01 0.  1.
         -4   -1    0    0    0  501 -0.00000000000E+00 -0.00000000000E+00 -0.61790795599E+02  0.61803845517E+02  0.12700000000E+01 0.  1.
         25    2    1    2    0    0  0.00000000000E+00  0.00000000000E+00  0.13995744785E+01  0.12500697654E+03  0.12499914149E+03 0.  0.
    9000005    1    3    3    0    0 -0.21575894016E+02 -0.31776239273E+01  0.59266072745E+02  0.63159194699E+02  0.10000000000E+01 0.  0.
    9000005    1    3    3    0    0  0.21575894016E+02  0.31776239273E+01 -0.57866498267E+02  0.61847781836E+02  0.10000000000E+01 0.  0.
<mgrwt>
<rscale>  0 0.12499914E+03</rscale>
<asrwt>0</asrwt>
<pdfrwt beam="1">  1        4 0.15800819E-01 0.12499914E+03</pdfrwt>
<pdfrwt beam="2">  1       -4 0.15450925E-01 0.12499914E+03</pdfrwt>
<totfact> 0.19835075E+03</totfact>
</mgrwt>
</event>
<event>
 5    1  0.1435323E-002  0.1250018E+03  0.7818608E-02  0.1235066E+00
          4   -1    0    0  501    0  0.00000000000E+00  0.00000000000E+00  0.15589358274E+02  0.15641003530E+02  0.12700000000E+01 0. -1.
         -4   -1    0    0    0  501 -0.00000000000E+00 -0.00000000000E+00 -0.25011128757E+03  0.25011451191E+03  0.12700000000E+01 0. -1.
         25    2    1    2    0    0  0.00000000000E+00  0.00000000000E+00 -0.23452192929E+03  0.26575551544E+03  0.12500183466E+03 0.  0.
    9000005    1    3    3    0    0  0.30808308404E+02  0.52037620562E+02 -0.15076161594E+03  0.16244116061E+03  0.10000000000E+01 0.  0.
    9000005    1    3    3    0    0 -0.30808308404E+02 -0.52037620562E+02 -0.83760313353E+02  0.10331435483E+03  0.10000000000E+01 0.  0.
<mgrwt>
<rscale>  0 0.12500183E+03</rscale>
<asrwt>0</asrwt>
<pdfrwt beam="1">  1        4 0.39041991E-02 0.12500183E+03</pdfrwt>
<pdfrwt beam="2">  1       -4 0.62534668E-01 0.12500183E+03</pdfrwt>
<totfact> 0.13987593E+03</totfact>
</mgrwt>
</event>
<event>
 5    1  0.1435323E-002  0.1250001E+03  0.7818608E-02  0.1235069E+00
         -4   -1    0    0    0  501 -0.00000000000E+00  0.00000000000E+00  0.11294424950E+03  0.11295138952E+03  0.12700000000E+01 0. -1.
          4   -1    0    0  501    0  0.00000000000E+00 -0.00000000000E+00 -0.34565820112E+02  0.34589143095E+02  0.12700000000E+01 0. -1.
         25    2    1    2    0    0  0.00000000000E+00  0.00000000000E+00  0.78378429384E+02  0.14754053261E+03  0.12500012228E+03 0.  0.
    9000005    1    3    3    0    0  0.54028548929E+02  0.22735977655E+02  0.64757554159E+02  0.87353017120E+02  0.10000000000E+01 0.  0.
    9000005    1    3    3    0    0 -0.54028548929E+02 -0.22735977655E+02  0.13620875225E+02  0.60187515493E+02  0.10000000000E+01 0.  0.
<mgrwt>
<rscale>  0 0.12500012E+03</rscale>
<asrwt>0</asrwt>
<pdfrwt beam="2">  1        4 0.86452630E-02 0.12500012E+03</pdfrwt>
<pdfrwt beam="1">  1       -4 0.28239870E-01 0.12500012E+03</pdfrwt>
<totfact> 0.18660325E+03</totfact>
</mgrwt>
</event>
<event>
 5    1  0.1435323E-002  0.1249887E+03  0.7818608E-02  0.1235087E+00
         -4   -1    0    0    0  501 -0.00000000000E+00  0.00000000000E+00  0.13464380442E+03  0.13464979380E+03  0.12700000000E+01 0. -1.
          4   -1    0    0  501    0  0.00000000000E+00 -0.00000000000E+00 -0.28985929817E+02  0.29013738597E+02  0.12700000000E+01 0. -1.
         25    2    1    2    0    0  0.00000000000E+00  0.00000000000E+00  0.10565787460E+03  0.16366353239E+03  0.12498866096E+03 0.  0.
    9000005    1    3    3    0    0  0.60563192710E+02 -0.23418988450E+01  0.72737247477E+02  0.94684169596E+02  0.10000000000E+01 0.  0.
    9000005    1    3    3    0    0 -0.60563192710E+02  0.23418988450E+01  0.32920627127E+02  0.68979362797E+02  0.10000000000E+01 0.  0.
<mgrwt>
<rscale>  0 0.12498866E+03</rscale>
<asrwt>0</asrwt>
<pdfrwt beam="2">  1        4 0.72507073E-02 0.12498866E+03</pdfrwt>
<pdfrwt beam="1">  1       -4 0.33665175E-01 0.12498866E+03</pdfrwt>
<totfact> 0.17891406E+03</totfact>
</mgrwt>
</event>
<event>
 5    1  0.1435323E-002  0.1250001E+03  0.7818608E-02  0.1235069E+00
          4   -1    0    0  501    0  0.00000000000E+00  0.00000000000E+00  0.30552682877E+02  0.30579066876E+02  0.12700000000E+01 0. -1.
         -4   -1    0    0    0  501 -0.00000000000E+00 -0.00000000000E+00 -0.12776832400E+03  0.12777463565E+03  0.12700000000E+01 0. -1.
         25    2    1    2    0    0  0.00000000000E+00  0.00000000000E+00 -0.97215641119E+02  0.15835370253E+03  0.12500005691E+03 0.  0.
    9000005    1    3    3    0    0 -0.29583215723E+02  0.55043582458E+02 -0.49291127140E+02  0.79596343113E+02  0.10000000000E+01 0.  0.
    9000005    1    3    3    0    0  0.29583215723E+02 -0.55043582458E+02 -0.47924513979E+02  0.78757359417E+02  0.10000000000E+01 0.  0.
<mgrwt>
<rscale>  0 0.12500006E+03</rscale>
<asrwt>0</asrwt>
<pdfrwt beam="1">  1        4 0.76422580E-02 0.12500006E+03</pdfrwt>
<pdfrwt beam="2">  1       -4 0.31946167E-01 0.12500006E+03</pdfrwt>
<totfact> 0.18135484E+03</totfact>
</mgrwt>
</event>
<event>
 5    1  0.1435323E-002  0.1249834E+03  0.7818608E-02  0.1235095E+00
         -4   -1    0    0    0  501 -0.00000000000E+00  0.00000000000E+00  0.97895191885E+02  0.97903429430E+02  0.12700000000E+01 0.  1.
          4   -1    0    0  501    0  0.00000000000E+00 -0.00000000000E+00 -0.39871773139E+02  0.39891994100E+02  0.12700000000E+01 0.  1.
         25    2    1    2    0    0  0.00000000000E+00  0.00000000000E+00  0.58023418746E+02  0.13779542353E+03  0.12498344539E+03 0.  0.
    9000005    1    3    3    0    0  0.24231088528E+02 -0.54149557854E+02  0.73818590440E+01  0.59789732480E+02  0.10000000000E+01 0.  0.
    9000005    1    3    3    0    0 -0.24231088528E+02  0.54149557854E+02  0.50641559702E+02  0.78005691050E+02  0.10000000000E+01 0.  0.
<mgrwt>
<rscale>  0 0.12498345E+03</rscale>
<asrwt>0</asrwt>
<pdfrwt beam="2">  1        4 0.99715007E-02 0.12498345E+03</pdfrwt>
<pdfrwt beam="1">  1       -4 0.24477355E-01 0.12498345E+03</pdfrwt>
<totfact> 0.19161097E+03</totfact>
</mgrwt>
</event>
<event>
 5    1  0.1435323E-002  0.1250015E+03  0.7818608E-02  0.1235067E+00
         -4   -1    0    0    0  501 -0.00000000000E+00  0.00000000000E+00  0.16765545109E+03  0.16766026118E+03  0.12700000000E+01 0.  1.
          4   -1    0    0  501    0  0.00000000000E+00 -0.00000000000E+00 -0.23277367922E+02  0.23311987418E+02  0.12700000000E+01 0.  1.
         25    2    1    2    0    0  0.00000000000E+00  0.00000000000E+00  0.14437808317E+03  0.19097224860E+03  0.12500147534E+03 0.  0.
    9000005    1    3    3    0    0  0.13517953926E+02  0.40268730890E+02  0.14221707263E+03  0.14842843903E+03  0.10000000000E+01 0.  0.
    9000005    1    3    3    0    0 -0.13517953926E+02 -0.40268730890E+02  0.21610105338E+01  0.42543809566E+02  0.10000000000E+01 0.  0.
<mgrwt>
<rscale>  0 0.12500148E+03</rscale>
<asrwt>0</asrwt>
<pdfrwt beam="2">  1        4 0.58242707E-02 0.12500148E+03</pdfrwt>
<pdfrwt beam="1">  1       -4 0.41918791E-01 0.12500148E+03</pdfrwt>
<totfact> 0.16689455E+03</totfact>
</mgrwt>
</event>
<event>
 5    1  0.1435323E-002  0.1250028E+03  0.7818608E-02  0.1235065E+00
         -4   -1    0    0    0  501 -0.00000000000E+00  0.00000000000E+00  0.55809824245E+02  0.55824272340E+02  0.12700000000E+01 0.  1.
          4   -1    0    0  501    0  0.00000000000E+00 -0.00000000000E+00 -0.69966030911E+02  0.69977556269E+02  0.12700000000E+01 0.  1.
         25    2    1    2    0    0  0.00000000000E+00  0.00000000000E+00 -0.14156206666E+02  0.12580182861E+03  0.12500280755E+03 0.  0.
    9000005    1    3    3    0    0 -0.36077744960E+02 -0.29319719337E+02 -0.49108386995E+02  0.67630490880E+02  0.10000000000E+01 0.  0.
    9000005    1    3    3    0    0  0.36077744960E+02  0.29319719337E+02  0.34952180329E+02  0.58171337729E+02  0.10000000000E+01 0.  0.
<mgrwt>
<rscale>  0 0.12500281E+03</rscale>
<asrwt>0</asrwt>
<pdfrwt beam="2">  1        4 0.17494754E-01 0.12500281E+03</pdfrwt>
<pdfrwt beam="1">  1       -4 0.13955703E-01 0.12500281E+03</pdfrwt>
<totfact> 0.19790333E+03</totfact>
</mgrwt>
</event>
<event>
 5    1  0.1435323E-002  0.1250045E+03  0.7818608E-02  0.1235062E+00
          4   -1    0    0  501    0  0.00000000000E+00  0.00000000000E+00  0.97580022988E+02  0.97588287137E+02  0.12700000000E+01 0.  1.
         -4   -1    0    0    0  501 -0.00000000000E+00 -0.00000000000E+00 -0.40014068121E+02  0.40034217209E+02  0.12700000000E+01 0.  1.
         25    2    1    2    0    0  0.00000000000E+00  0.00000000000E+00  0.57565954868E+02  0.13762250435E+03  0.12500445809E+03 0.  0.
    9000005    1    3    3    0    0 -0.16558563777E+02 -0.59101434169E+02  0.15832849282E+02  0.63394358358E+02  0.10000000000E+01 0.  0.
    9000005    1    3    3    0    0  0.16558563777E+02  0.59101434169E+02  0.41733105586E+02  0.74228145989E+02  0.10000000000E+01 0.  0.
<mgrwt>
<rscale>  0 0.12500446E+03</rscale>
<asrwt>0</asrwt>
<pdfrwt beam="1">  1        4 0.24398557E-01 0.12500446E+03</pdfrwt>
<pdfrwt beam="2">  1       -4 0.10007069E-01 0.12500446E+03</pdfrwt>
<totfact> 0.19160647E+03</totfact>
</mgrwt>
</event>
<event>
 5    1  0.1435323E-002  0.1249865E+03  0.7818608E-02  0.1235090E+00
          4   -1    0    0  501    0  0.00000000000E+00  0.00000000000E+00  0.36435352574E+02  0.36457479578E+02  0.12700000000E+01 0. -1.
         -4   -1    0    0    0  501 -0.00000000000E+00 -0.00000000000E+00 -0.10712886241E+03  0.10713639000E+03  0.12700000000E+01 0. -1.
         25    2    1    2    0    0  0.00000000000E+00  0.00000000000E+00 -0.70693509837E+02  0.14359386957E+03  0.12498650746E+03 0.  0.
    9000005    1    3    3    0    0  0.50599673823E+02 -0.98024956760E+01 -0.75932961999E+02  0.91778159877E+02  0.10000000000E+01 0.  0.
    9000005    1    3    3    0    0 -0.50599673823E+02  0.98024956760E+01  0.52394521621E+01  0.51815709697E+02  0.10000000000E+01 0.  0.
<mgrwt>
<rscale>  0 0.12498651E+03</rscale>
<asrwt>0</asrwt>
<pdfrwt beam="1">  1        4 0.91125452E-02 0.12498651E+03</pdfrwt>
<pdfrwt beam="2">  1       -4 0.26785922E-01 0.12498651E+03</pdfrwt>
<totfact> 0.18863901E+03</totfact>
</mgrwt>
</event>
<event>
 5    1  0.1435323E-002  0.1250007E+03  0.7818608E-02  0.1235068E+00
         -4   -1    0    0    0  501 -0.00000000000E+00  0.00000000000E+00  0.79069575574E+01  0.80083005572E+01  0.12700000000E+01 0.  1.
          4   -1    0    0  501    0  0.00000000000E+00 -0.00000000000E+00 -0.49078450625E+03  0.49078614943E+03  0.12700000000E+01 0.  1.
         25    2    1    2    0    0  0.00000000000E+00  0.00000000000E+00 -0.48287754869E+03  0.49879444999E+03  0.12500070524E+03 0.  0.
    9000005    1    3    3    0    0  0.16736541690E+02 -0.11005167032E+02 -0.47764723316E+03  0.47806809648E+03  0.10000000000E+01 0.  0.
    9000005    1    3    3    0    0 -0.16736541690E+02  0.11005167032E+02 -0.52303155325E+01  0.20726353507E+02  0.10000000000E+01 0.  0.
<mgrwt>
<rscale>  0 0.12500071E+03</rscale>
<asrwt>0</asrwt>
<pdfrwt beam="2">  1        4 0.12270890E+00 0.12500071E+03</pdfrwt>
<pdfrwt beam="1">  1       -4 0.19896143E-02 0.12500071E+03</pdfrwt>
<totfact> 0.87797677E+02</totfact>
</mgrwt>
</event>
<event>
 5    1  0.1435323E-002  0.1250001E+03  0.7818608E-02  0.1235069E+00
         -4   -1    0    0    0  501 -0.00000000000E+00  0.00000000000E+00  0.11122007467E+03  0.11122732537E+03  0.12700000000E+01 0. -1.
          4   -1    0    0  501    0  0.00000000000E+00 -0.00000000000E+00 -0.35102003222E+02  0.35124970180E+02  0.12700000000E+01 0. -1.
         25    2    1    2    0    0  0.00000000000E+00  0.00000000000E+00  0.76118071444E+02  0.14635229555E+03  0.12500013445E+03 0.  0.
    9000005    1    3    3    0    0  0.61016618699E+02  0.44745813043E+01  0.52970703562E+02  0.80931730929E+02  0.10000000000E+01 0.  0.
    9000005    1    3    3    0    0 -0.61016618699E+02 -0.44745813043E+01  0.23147367882E+02  0.65420564620E+02  0.10000000000E+01 0.  0.
<mgrwt>
<rscale>  0 0.12500013E+03</rscale>
<asrwt>0</asrwt>
<pdfrwt beam="2">  1        4 0.87792781E-02 0.12500013E+03</pdfrwt>
<pdfrwt beam="1">  1       -4 0.27808796E-01 0.12500013E+03</pdfrwt>
<totfact> 0.18719546E+03</totfact>
</mgrwt>
</event>
<event>
 5    1  0.1435323E-002  0.1250015E+03  0.7818608E-02  0.1235067E+00
         -4   -1    0    0    0  501 -0.00000000000E+00  0.00000000000E+00  0.45900071183E+03  0.45900246879E+03  0.12700000000E+01 0. -1.
          4   -1    0    0  501    0  0.00000000000E+00 -0.00000000000E+00 -0.84613762975E+01  0.85561550271E+01  0.12700000000E+01 0. -1.
         25    2    1    2    0    0  0.00000000000E+00  0.00000000000E+00  0.45053933553E+03  0.46755862382E+03  0.12500149539E+03 0.  0.
    9000005    1    3    3    0    0  0.60337971871E+02  0.13027464526E+02  0.26171871171E+03  0.26890159862E+03  0.10000000000E+01 0.  0.
    9000005    1    3    3    0    0 -0.60337971871E+02 -0.13027464526E+02  0.18882062382E+03  0.19865702520E+03  0.10000000000E+01 0.  0.
<mgrwt>
<rscale>  0 0.12500150E+03</rscale>
<asrwt>0</asrwt>
<pdfrwt beam="2">  1        4 0.21274111E-02 0.12500150E+03</pdfrwt>
<pdfrwt beam="1">  1       -4 0.11476224E+00 0.12500150E+03</pdfrwt>
<totfact> 0.92944705E+02</totfact>
</mgrwt>
</event>
<event>
 5    1  0.1435323E-002  0.1250002E+03  0.7818608E-02  0.1235069E+00
         -4   -1    0    0    0  501 -0.00000000000E+00  0.00000000000E+00  0.34985131125E+03  0.34985361636E+03  0.12700000000E+01 0. -1.
          4   -1    0    0  501    0  0.00000000000E+00 -0.00000000000E+00 -0.11127026380E+02  0.11199268551E+02  0.12700000000E+01 0. -1.
         25    2    1    2    0    0  0.00000000000E+00  0.00000000000E+00  0.33872428487E+03  0.36105288491E+03  0.12500017818E+03 0.  0.
    9000005    1    3    3    0    0 -0.62080337847E+02  0.70435856276E+01  0.17310673057E+03  0.18403945396E+03  0.10000000000E+01 0.  0.
    9000005    1    3    3    0    0  0.62080337847E+02 -0.70435856276E+01  0.16561755430E+03  0.17701343095E+03  0.10000000000E+01 0.  0.
<mgrwt>
<rscale>  0 0.12500018E+03</rscale>
<asrwt>0</asrwt>
<pdfrwt beam="2">  1        4 0.27910750E-02 0.12500018E+03</pdfrwt>
<pdfrwt beam="1">  1       -4 0.87472148E-01 0.12500018E+03</pdfrwt>
<totfact> 0.11418026E+03</totfact>
</mgrwt>
</event>
<event>
 5    1  0.1435323E-002  0.1249994E+03  0.7818608E-02  0.1235070E+00
         -4   -1    0    0    0  501 -0.00000000000E+00  0.00000000000E+00  0.75399407972E+02  0.75410102921E+02  0.12700000000E+01 0. -1.
          4   -1    0    0  501    0  0.00000000000E+00 -0.00000000000E+00 -0.51784817819E+02  0.51800388575E+02  0.12700000000E+01 0. -1.
         25    2    1    2    0    0  0.00000000000E+00  0.00000000000E+00  0.23614590153E+02  0.12721049150E+03  0.12499944111E+03 0.  0.
    9000005    1    3    3    0    0 -0.54872258530E+02 -0.29775863078E+02  0.14621767995E+02  0.64127707565E+02  0.10000000000E+01 0.  0.
    9000005    1    3    3    0    0  0.54872258530E+02  0.29775863078E+02  0.89928221575E+01  0.63082783932E+02  0.10000000000E+01 0.  0.
<mgrwt>
<rscale>  0 0.12499944E+03</rscale>
<asrwt>0</asrwt>
<pdfrwt beam="2">  1        4 0.12949488E-01 0.12499944E+03</pdfrwt>
<pdfrwt beam="1">  1       -4 0.18853135E-01 0.12499944E+03</pdfrwt>
<totfact> 0.19715837E+03</totfact>
</mgrwt>
</event>
<event>
 5    1  0.1435323E-002  0.1250045E+03  0.7818608E-02  0.1235062E+00
         -4   -1    0    0    0  501 -0.00000000000E+00  0.00000000000E+00  0.14999407524E+02  0.15053076963E+02  0.12700000000E+01 0.  1.
          4   -1    0    0  501    0  0.00000000000E+00 -0.00000000000E+00 -0.25992538249E+03  0.25992848509E+03  0.12700000000E+01 0.  1.
         25    2    1    2    0    0  0.00000000000E+00  0.00000000000E+00 -0.24492597497E+03  0.27498156206E+03  0.12500450495E+03 0.  0.
    9000005    1    3    3    0    0 -0.34073965637E+02 -0.50524087978E+02 -0.15292908926E+03  0.16462692654E+03  0.10000000000E+01 0.  0.
    9000005    1    3    3    0    0  0.34073965637E+02  0.50524087978E+02 -0.91996885706E+02  0.11035463552E+03  0.10000000000E+01 0.  0.
<mgrwt>
<rscale>  0 0.12500450E+03</rscale>
<asrwt>0</asrwt>
<pdfrwt beam="2">  1        4 0.64988428E-01 0.12500450E+03</pdfrwt>
<pdfrwt beam="1">  1       -4 0.37569492E-02 0.12500450E+03</pdfrwt>
<totfact> 0.13700981E+03</totfact>
</mgrwt>
</event>
<event>
 5    1  0.1435323E-002  0.1250017E+03  0.7818608E-02  0.1235067E+00
          4   -1    0    0  501    0  0.00000000000E+00  0.00000000000E+00  0.72200745952E+02  0.72211914641E+02  0.12700000000E+01 0.  1.
         -4   -1    0    0    0  501 -0.00000000000E+00 -0.00000000000E+00 -0.54081279245E+02  0.54096189004E+02  0.12700000000E+01 0.  1.
         25    2    1    2    0    0  0.00000000000E+00  0.00000000000E+00  0.18119466707E+02  0.12630810365E+03  0.12500168788E+03 0.  0.
    9000005    1    3    3    0    0  0.23977134125E+01 -0.38512546938E+02  0.58730272000E+02  0.70279514444E+02  0.10000000000E+01 0.  0.
    9000005    1    3    3    0    0 -0.23977134125E+01  0.38512546938E+02 -0.40610805293E+02  0.56028589201E+02  0.10000000000E+01 0.  0.
<mgrwt>
<rscale>  0 0.12500169E+03</rscale>
<asrwt>0</asrwt>
<pdfrwt beam="1">  1        4 0.18053446E-01 0.12500169E+03</pdfrwt>
<pdfrwt beam="2">  1       -4 0.13523580E-01 0.12500169E+03</pdfrwt>
<totfact> 0.19763499E+03</totfact>
</mgrwt>
</event>
<event>
 5    1  0.1435323E-002  0.1250035E+03  0.7818608E-02  0.1235064E+00
          4   -1    0    0  501    0  0.00000000000E+00  0.00000000000E+00  0.21068452763E+02  0.21106695664E+02  0.12700000000E+01 0. -1.
         -4   -1    0    0    0  501 -0.00000000000E+00 -0.00000000000E+00 -0.18520930601E+03  0.18521366022E+03  0.12700000000E+01 0. -1.
         25    2    1    2    0    0  0.00000000000E+00  0.00000000000E+00 -0.16414085325E+03  0.20632035589E+03  0.12500347814E+03 0.  0.
    9000005    1    3    3    0    0  0.55781806071E+02  0.16689322606E+02 -0.11953839713E+03  0.13296831113E+03  0.10000000000E+01 0.  0.
    9000005    1    3    3    0    0 -0.55781806071E+02 -0.16689322606E+02 -0.44602456120E+02  0.73352044753E+02  0.10000000000E+01 0.  0.
<mgrwt>
<rscale>  0 0.12500348E+03</rscale>
<asrwt>0</asrwt>
<pdfrwt beam="1">  1        4 0.52724384E-02 0.12500348E+03</pdfrwt>
<pdfrwt beam="2">  1       -4 0.46307646E-01 0.12500348E+03</pdfrwt>
<totfact> 0.16070764E+03</totfact>
</mgrwt>
</event>
<event>
 5    1  0.1435323E-002  0.1249975E+03  0.7818608E-02  0.1235073E+00
          4   -1    0    0  501    0  0.00000000000E+00  0.00000000000E+00  0.50649273465E+02  0.50665193205E+02  0.12700000000E+01 0.  1.
         -4   -1    0    0    0  501 -0.00000000000E+00 -0.00000000000E+00 -0.77087214821E+02  0.77097675638E+02  0.12700000000E+01 0.  1.
         25    2    1    2    0    0  0.00000000000E+00  0.00000000000E+00 -0.26437941356E+02  0.12776286884E+03  0.12499754362E+03 0.  0.
    9000005    1    3    3    0    0 -0.50406418039E+02 -0.22173305490E+02  0.16974931734E+02  0.57633417071E+02  0.10000000000E+01 0.  0.
    9000005    1    3    3    0    0  0.50406418039E+02  0.22173305490E+02 -0.43412873090E+02  0.70129451772E+02  0.10000000000E+01 0.  0.
<mgrwt>
<rscale>  0 0.12499754E+03</rscale>
<asrwt>0</asrwt>
<pdfrwt beam="1">  1        4 0.12665616E-01 0.12499754E+03</pdfrwt>
<pdfrwt beam="2">  1       -4 0.19275101E-01 0.12499754E+03</pdfrwt>
<totfact> 0.19686575E+03</totfact>
</mgrwt>
</event>
<event>
 5    1  0.1435323E-002  0.1250063E+03  0.7818608E-02  0.1235059E+00
          4   -1    0    0  501    0  0.00000000000E+00  0.00000000000E+00  0.20062854763E+03  0.20063256721E+03  0.12700000000E+01 0. -1.
         -4   -1    0    0    0  501 -0.00000000000E+00 -0.00000000000E+00 -0.19447093579E+02  0.19488518381E+02  0.12700000000E+01 0. -1.
         25    2    1    2    0    0  0.00000000000E+00  0.00000000000E+00  0.18118145405E+03  0.22012108559E+03  0.12500629195E+03 0.  0.
    9000005    1    3    3    0    0  0.86926901040E+00  0.39493630093E+02  0.17586425580E+03  0.18024910239E+03  0.10000000000E+01 0.  0.
    9000005    1    3    3    0    0 -0.86926901040E+00 -0.39493630093E+02  0.53171982536E+01  0.39871983194E+02  0.10000000000E+01 0.  0.
<mgrwt>
<rscale>  0 0.12500629E+03</rscale>
<asrwt>0</asrwt>
<pdfrwt beam="1">  1        4 0.50162816E-01 0.12500629E+03</pdfrwt>
<pdfrwt beam="2">  1       -4 0.48674541E-02 0.12500629E+03</pdfrwt>
<totfact> 0.15544594E+03</totfact>
</mgrwt>
</event>
<event>
 5    1  0.1435323E-002  0.1249995E+03  0.7818608E-02  0.1235070E+00
          4   -1    0    0  501    0  0.00000000000E+00  0.00000000000E+00  0.35813347458E+02  0.35835858524E+02  0.12700000000E+01 0. -1.
         -4   -1    0    0    0  501 -0.00000000000E+00 -0.00000000000E+00 -0.10901118390E+03  0.10901858151E+03  0.12700000000E+01 0. -1.
         25    2    1    2    0    0  0.00000000000E+00  0.00000000000E+00 -0.73197836442E+02  0.14485444004E+03  0.12499954216E+03 0.  0.
    9000005    1    3    3    0    0  0.54402396714E+02  0.24966762965E+02 -0.57401992009E+02  0.82939427945E+02  0.10000000000E+01 0.  0.
    9000005    1    3    3    0    0 -0.54402396714E+02 -0.24966762965E+02 -0.15795844433E+02  0.61915012094E+02  0.10000000000E+01 0.  0.
<mgrwt>
<rscale>  0 0.12499954E+03</rscale>
<asrwt>0</asrwt>
<pdfrwt beam="1">  1        4 0.89570757E-02 0.12499954E+03</pdfrwt>
<pdfrwt beam="2">  1       -4 0.27256534E-01 0.12499954E+03</pdfrwt>
<totfact> 0.18794864E+03</totfact>
</mgrwt>
</event>
<event>
 5    1  0.1435323E-002  0.1249951E+03  0.7818608E-02  0.1235077E+00
         -4   -1    0    0    0  501 -0.00000000000E+00  0.00000000000E+00  0.12702756376E+03  0.12703391223E+03  0.12700000000E+01 0. -1.
          4   -1    0    0  501    0  0.00000000000E+00 -0.00000000000E+00 -0.30728548237E+02  0.30754781364E+02  0.12700000000E+01 0. -1.
         25    2    1    2    0    0  0.00000000000E+00  0.00000000000E+00  0.96299015526E+02  0.15778869359E+03  0.12499508564E+03 0.  0.
    9000005    1    3    3    0    0 -0.45685058334E+02  0.36358442986E+02  0.76260235067E+02  0.96050426255E+02  0.10000000000E+01 0.  0.
    9000005    1    3    3    0    0  0.45685058334E+02 -0.36358442986E+02  0.20038780459E+02  0.61738267336E+02  0.10000000000E+01 0.  0.
<mgrwt>
<rscale>  0 0.12499509E+03</rscale>
<asrwt>0</asrwt>
<pdfrwt beam="2">  1        4 0.76862098E-02 0.12499509E+03</pdfrwt>
<pdfrwt beam="1">  1       -4 0.31760963E-01 0.12499509E+03</pdfrwt>
<totfact> 0.18164396E+03</totfact>
</mgrwt>
</event>
<event>
 5    1  0.1435323E-002  0.1249959E+03  0.7818608E-02  0.1235076E+00
          4   -1    0    0  501    0  0.00000000000E+00  0.00000000000E+00  0.15764178653E+03  0.15764690216E+03  0.12700000000E+01 0.  1.
         -4   -1    0    0    0  501 -0.00000000000E+00 -0.00000000000E+00 -0.24755852783E+02  0.24788407513E+02  0.12700000000E+01 0.  1.
         25    2    1    2    0    0  0.00000000000E+00  0.00000000000E+00  0.13288593375E+03  0.18243530967E+03  0.12499588324E+03 0.  0.
    9000005    1    3    3    0    0 -0.26294083724E+01 -0.63485688849E+01  0.15709584827E+03  0.15724924057E+03  0.10000000000E+01 0.  0.
    9000005    1    3    3    0    0  0.26294083724E+01  0.63485688849E+01 -0.24209914528E+02  0.25186069100E+02  0.10000000000E+01 0.  0.
<mgrwt>
<rscale>  0 0.12499588E+03</rscale>
<asrwt>0</asrwt>
<pdfrwt beam="1">  1        4 0.39415155E-01 0.12499588E+03</pdfrwt>
<pdfrwt beam="2">  1       -4 0.61936721E-02 0.12499588E+03</pdfrwt>
<totfact> 0.17051949E+03</totfact>
</mgrwt>
</event>
<event>
 5    1  0.1435323E-002  0.1250025E+03  0.7818608E-02  0.1235065E+00
          4   -1    0    0  501    0  0.00000000000E+00  0.00000000000E+00  0.48748599353E+03  0.48748764783E+03  0.12700000000E+01 0.  1.
         -4   -1    0    0    0  501 -0.00000000000E+00 -0.00000000000E+00 -0.79613688285E+01  0.80620278853E+01  0.12700000000E+01 0.  1.
         25    2    1    2    0    0  0.00000000000E+00  0.00000000000E+00  0.47952462470E+03  0.49554967571E+03  0.12500246161E+03 0.  0.
    9000005    1    3    3    0    0 -0.51676107235E+02  0.29178822791E+02  0.16212032180E+03  0.17264362861E+03  0.10000000000E+01 0.  0.
    9000005    1    3    3    0    0  0.51676107235E+02 -0.29178822791E+02  0.31740430290E+03  0.32290604711E+03  0.10000000000E+01 0.  0.
<mgrwt>
<rscale>  0 0.12500246E+03</rscale>
<asrwt>0</asrwt>
<pdfrwt beam="1">  1        4 0.12188428E+00 0.12500246E+03</pdfrwt>
<pdfrwt beam="2">  1       -4 0.20031315E-02 0.12500246E+03</pdfrwt>
<totfact> 0.88314136E+02</totfact>
</mgrwt>
</event>
<event>
 5    1  0.1435323E-002  0.1250054E+03  0.7818608E-02  0.1235061E+00
          4   -1    0    0  501    0  0.00000000000E+00  0.00000000000E+00  0.52650113636E+02  0.52665428564E+02  0.12700000000E+01 0.  1.
         -4   -1    0    0    0  501 -0.00000000000E+00 -0.00000000000E+00 -0.74167541563E+02  0.74178414120E+02  0.12700000000E+01 0.  1.
         25    2    1    2    0    0  0.00000000000E+00  0.00000000000E+00 -0.21517427927E+02  0.12684384268E+03  0.12500544277E+03 0.  0.
    9000005    1    3    3    0    0  0.58891314258E+02  0.76927929869E+00 -0.31966117336E+02  0.67019484802E+02  0.10000000000E+01 0.  0.
    9000005    1    3    3    0    0 -0.58891314258E+02 -0.76927929869E+00  0.10448689409E+02  0.59824357882E+02  0.10000000000E+01 0.  0.
<mgrwt>
<rscale>  0 0.12500544E+03</rscale>
<asrwt>0</asrwt>
<pdfrwt beam="1">  1        4 0.13165802E-01 0.12500544E+03</pdfrwt>
<pdfrwt beam="2">  1       -4 0.18545159E-01 0.12500544E+03</pdfrwt>
<totfact> 0.19732877E+03</totfact>
</mgrwt>
</event>
<event>
 5    1  0.1435323E-002  0.1250027E+03  0.7818608E-02  0.1235065E+00
         -4   -1    0    0    0  501 -0.00000000000E+00  0.00000000000E+00  0.80492041524E+02  0.80502059903E+02  0.12700000000E+01 0. -1.
          4   -1    0    0  501    0  0.00000000000E+00 -0.00000000000E+00 -0.48510406702E+02  0.48527028122E+02  0.12700000000E+01 0. -1.
         25    2    1    2    0    0  0.00000000000E+00  0.00000000000E+00  0.31981634822E+02  0.12902908803E+03  0.12500272233E+03 0.  0.
    9000005    1    3    3    0    0  0.16337936884E+02  0.54665361243E+02 -0.10329333892E+02  0.57990732364E+02  0.10000000000E+01 0.  0.
    9000005    1    3    3    0    0 -0.16337936884E+02 -0.54665361243E+02  0.42310968714E+02  0.71038355661E+02  0.10000000000E+01 0.  0.
<mgrwt>
<rscale>  0 0.12500272E+03</rscale>
<asrwt>0</asrwt>
<pdfrwt beam="2">  1        4 0.12130932E-01 0.12500272E+03</pdfrwt>
<pdfrwt beam="1">  1       -4 0.20126340E-01 0.12500272E+03</pdfrwt>
<totfact> 0.19615476E+03</totfact>
</mgrwt>
</event>
<event>
 5    1  0.1435323E-002  0.1250047E+03  0.7818608E-02  0.1235062E+00
         -4   -1    0    0    0  501 -0.00000000000E+00  0.00000000000E+00  0.15447221392E+03  0.15447743452E+03  0.12700000000E+01 0. -1.
          4   -1    0    0  501    0  0.00000000000E+00 -0.00000000000E+00 -0.25268032251E+02  0.25299927942E+02  0.12700000000E+01 0. -1.
         25    2    1    2    0    0  0.00000000000E+00  0.00000000000E+00  0.12920418167E+03  0.17977736246E+03  0.12500471787E+03 0.  0.
    9000005    1    3    3    0    0 -0.34723656987E+02  0.51127143046E+02  0.51278462962E+02  0.80313123923E+02  0.10000000000E+01 0.  0.
    9000005    1    3    3    0    0  0.34723656987E+02 -0.51127143046E+02  0.77925718710E+02  0.99464238534E+02  0.10000000000E+01 0.  0.
<mgrwt>
<rscale>  0 0.12500472E+03</rscale>
<asrwt>0</asrwt>
<pdfrwt beam="2">  1        4 0.63216477E-02 0.12500472E+03</pdfrwt>
<pdfrwt beam="1">  1       -4 0.38622692E-01 0.12500472E+03</pdfrwt>
<totfact> 0.17162977E+03</totfact>
</mgrwt>
</event>
<event>
 5    1  0.1435323E-002  0.1250018E+03  0.7818608E-02  0.1235066E+00
         -4   -1    0    0    0  501 -0.00000000000E+00  0.00000000000E+00  0.48283221760E+02  0.48299921362E+02  0.12700000000E+01 0.  1.
          4   -1    0    0  501    0  0.00000000000E+00 -0.00000000000E+00 -0.80869488401E+02  0.80879460027E+02  0.12700000000E+01 0.  1.
         25    2    1    2    0    0  0.00000000000E+00  0.00000000000E+00 -0.32586266641E+02  0.12917938139E+03  0.12500179120E+03 0.  0.
    9000005    1    3    3    0    0  0.41709308629E+02 -0.32869663868E+02 -0.50337715494E+02  0.73177638868E+02  0.10000000000E+01 0.  0.
    9000005    1    3    3    0    0 -0.41709308629E+02  0.32869663868E+02  0.17751448853E+02  0.56001742522E+02  0.10000000000E+01 0.  0.
<mgrwt>
<rscale>  0 0.12500179E+03</rscale>
<asrwt>0</asrwt>
<pdfrwt beam="2">  1        4 0.20220706E-01 0.12500179E+03</pdfrwt>
<pdfrwt beam="1">  1       -4 0.12074139E-01 0.12500179E+03</pdfrwt>
<totfact> 0.19607782E+03</totfact>
</mgrwt>
</event>
<event>
 5    1  0.1435323E-002  0.1250053E+03  0.7818608E-02  0.1235061E+00
         -4   -1    0    0    0  501 -0.00000000000E+00  0.00000000000E+00  0.80493868415E+02  0.80503886567E+02  0.12700000000E+01 0. -1.
          4   -1    0    0  501    0  0.00000000000E+00 -0.00000000000E+00 -0.48511268483E+02  0.48527889608E+02  0.12700000000E+01 0. -1.
         25    2    1    2    0    0  0.00000000000E+00  0.00000000000E+00  0.31982599932E+02  0.12903177618E+03  0.12500525015E+03 0.  0.
    9000005    1    3    3    0    0  0.51257866388E+02  0.33315856775E+02  0.26018515405E+01  0.61197098058E+02  0.10000000000E+01 0.  0.
    9000005    1    3    3    0    0 -0.51257866388E+02 -0.33315856775E+02  0.29380748392E+02  0.67834678118E+02  0.10000000000E+01 0.  0.
<mgrwt>
<rscale>  0 0.12500525E+03</rscale>
<asrwt>0</asrwt>
<pdfrwt beam="2">  1        4 0.12131147E-01 0.12500525E+03</pdfrwt>
<pdfrwt beam="1">  1       -4 0.20126797E-01 0.12500525E+03</pdfrwt>
<totfact> 0.19614174E+03</totfact>
</mgrwt>
</event>
<event>
 5    1  0.1435323E-002  0.1249986E+03  0.7818608E-02  0.1235072E+00
          4   -1    0    0  501    0  0.00000000000E+00  0.00000000000E+00  0.43320121017E+03  0.43320307177E+03  0.12700000000E+01 0.  1.
         -4   -1    0    0    0  501 -0.00000000000E+00 -0.00000000000E+00 -0.89703582558E+01  0.90598138633E+01  0.12700000000E+01 0.  1.
         25    2    1    2    0    0  0.00000000000E+00  0.00000000000E+00  0.42423085191E+03  0.44226288563E+03  0.12499857717E+03 0.  0.
    9000005    1    3    3    0    0 -0.37184717571E+02  0.43116663506E+02  0.12098428261E+03  0.13371591727E+03  0.10000000000E+01 0.  0.
    9000005    1    3    3    0    0  0.37184717571E+02 -0.43116663506E+02  0.30324656930E+03  0.30854696836E+03  0.10000000000E+01 0.  0.
<mgrwt>
<rscale>  0 0.12499858E+03</rscale>
<asrwt>0</asrwt>
<pdfrwt beam="1">  1        4 0.10831171E+00 0.12499858E+03</pdfrwt>
<pdfrwt beam="2">  1       -4 0.22540043E-02 0.12499858E+03</pdfrwt>
<totfact> 0.97426025E+02</totfact>
</mgrwt>
</event>
<event>
 5    1  0.1435323E-002  0.1249960E+03  0.7818608E-02  0.1235076E+00
         -4   -1    0    0    0  501 -0.00000000000E+00  0.00000000000E+00  0.78277535894E+02  0.78287837661E+02  0.12700000000E+01 0. -1.
          4   -1    0    0  501    0  0.00000000000E+00 -0.00000000000E+00 -0.49877693784E+02  0.49893859714E+02  0.12700000000E+01 0. -1.
         25    2    1    2    0    0  0.00000000000E+00  0.00000000000E+00  0.28399842110E+02  0.12818169738E+03  0.12499598598E+03 0.  0.
    9000005    1    3    3    0    0 -0.50473217283E+02 -0.35885262018E+01  0.51802931912E+02  0.72422143975E+02  0.10000000000E+01 0.  0.
    9000005    1    3    3    0    0  0.50473217283E+02  0.35885262018E+01 -0.23403089802E+02  0.55759553401E+02  0.10000000000E+01 0.  0.
<mgrwt>
<rscale>  0 0.12499599E+03</rscale>
<asrwt>0</asrwt>
<pdfrwt beam="2">  1        4 0.12472732E-01 0.12499599E+03</pdfrwt>
<pdfrwt beam="1">  1       -4 0.19572692E-01 0.12499599E+03</pdfrwt>
<totfact> 0.19664496E+03</totfact>
</mgrwt>
</event>
<event>
 5    1  0.1435323E-002  0.1250024E+03  0.7818608E-02  0.1235065E+00
          4   -1    0    0  501    0  0.00000000000E+00  0.00000000000E+00  0.32638941320E+02  0.32663640190E+02  0.12700000000E+01 0.  1.
         -4   -1    0    0    0  501 -0.00000000000E+00 -0.00000000000E+00 -0.11961198562E+03  0.11961872765E+03  0.12700000000E+01 0.  1.
         25    2    1    2    0    0  0.00000000000E+00  0.00000000000E+00 -0.86973044300E+02  0.15228236784E+03  0.12500243645E+03 0.  0.
    9000005    1    3    3    0    0 -0.47845304541E+02 -0.40058798085E+02 -0.47621674203E+02  0.78502893733E+02  0.10000000000E+01 0.  0.
    9000005    1    3    3    0    0  0.47845304541E+02  0.40058798085E+02 -0.39351370097E+02  0.73779474104E+02  0.10000000000E+01 0.  0.
<mgrwt>
<rscale>  0 0.12500244E+03</rscale>
<asrwt>0</asrwt>
<pdfrwt beam="1">  1        4 0.81636657E-02 0.12500244E+03</pdfrwt>
<pdfrwt beam="2">  1       -4 0.29906925E-01 0.12500244E+03</pdfrwt>
<totfact> 0.18426079E+03</totfact>
</mgrwt>
</event>
<event>
 5    1  0.1435323E-002  0.1249995E+03  0.7818608E-02  0.1235070E+00
         -4   -1    0    0    0  501 -0.00000000000E+00  0.00000000000E+00  0.92245886220E+02  0.92254628201E+02  0.12700000000E+01 0. -1.
          4   -1    0    0  501    0  0.00000000000E+00 -0.00000000000E+00 -0.42325453405E+02  0.42344502665E+02  0.12700000000E+01 0. -1.
         25    2    1    2    0    0  0.00000000000E+00  0.00000000000E+00  0.49920432815E+02  0.13459913087E+03  0.12499950567E+03 0.  0.
    9000005    1    3    3    0    0 -0.23550207701E+01  0.13276580093E+02  0.90666079182E+02  0.91668705762E+02  0.10000000000E+01 0.  0.
    9000005    1    3    3    0    0  0.23550207701E+01 -0.13276580093E+02 -0.40745646367E+02  0.42930425105E+02  0.10000000000E+01 0.  0.
<mgrwt>
<rscale>  0 0.12499951E+03</rscale>
<asrwt>0</asrwt>
<pdfrwt beam="2">  1        4 0.10584837E-01 0.12499951E+03</pdfrwt>
<pdfrwt beam="1">  1       -4 0.23064945E-01 0.12499951E+03</pdfrwt>
<totfact> 0.19320377E+03</totfact>
</mgrwt>
</event>
<event>
 5    1  0.1435323E-002  0.1249997E+03  0.7818608E-02  0.1235070E+00
          4   -1    0    0  501    0  0.00000000000E+00  0.00000000000E+00  0.71733770909E+03  0.71733883332E+03  0.12700000000E+01 0.  1.
         -4   -1    0    0    0  501 -0.00000000000E+00 -0.00000000000E+00 -0.53702620240E+01  0.55183887328E+01  0.12700000000E+01 0.  1.
         25    2    1    2    0    0  0.00000000000E+00  0.00000000000E+00  0.71196744707E+03  0.72285722205E+03  0.12499967114E+03 0.  0.
    9000005    1    3    3    0    0 -0.17547007644E+02 -0.88157128565E+01  0.12907007126E+02  0.23520312570E+02  0.10000000000E+01 0.  0.
    9000005    1    3    3    0    0  0.17547007644E+02  0.88157128565E+01  0.69906043994E+03  0.69933690948E+03  0.10000000000E+01 0.  0.
<mgrwt>
<rscale>  0 0.12499967E+03</rscale>
<asrwt>0</asrwt>
<pdfrwt beam="1">  1        4 0.17935306E+00 0.12499967E+03</pdfrwt>
<pdfrwt beam="2">  1       -4 0.13612220E-02 0.12499967E+03</pdfrwt>
<totfact> 0.59726669E+02</totfact>
</mgrwt>
</event>
<event>
 5    1  0.1435323E-002  0.1249995E+03  0.7818608E-02  0.1235070E+00
         -4   -1    0    0    0  501 -0.00000000000E+00  0.00000000000E+00  0.22432848268E+03  0.22433207760E+03  0.12700000000E+01 0. -1.
          4   -1    0    0  501    0  0.00000000000E+00 -0.00000000000E+00 -0.17386038828E+02  0.17432362035E+02  0.12700000000E+01 0. -1.
         25    2    1    2    0    0  0.00000000000E+00  0.00000000000E+00  0.20694244385E+03  0.24176443963E+03  0.12499947682E+03 0.  0.
    9000005    1    3    3    0    0 -0.28323204642E+00 -0.62385869223E+02  0.11048236059E+03  0.12688352494E+03  0.10000000000E+01 0.  0.
    9000005    1    3    3    0    0  0.28323204642E+00  0.62385869223E+02  0.96460083256E+02  0.11488091469E+03  0.10000000000E+01 0.  0.
<mgrwt>
<rscale>  0 0.12499948E+03</rscale>
<asrwt>0</asrwt>
<pdfrwt beam="2">  1        4 0.43527496E-02 0.12499948E+03</pdfrwt>
<pdfrwt beam="1">  1       -4 0.56088359E-01 0.12499948E+03</pdfrwt>
<totfact> 0.14776035E+03</totfact>
</mgrwt>
</event>
<event>
 5    1  0.1435323E-002  0.1249963E+03  0.7818608E-02  0.1235075E+00
         -4   -1    0    0    0  501 -0.00000000000E+00  0.00000000000E+00  0.28804687382E+02  0.28832670969E+02  0.12700000000E+01 0. -1.
          4   -1    0    0  501    0  0.00000000000E+00 -0.00000000000E+00 -0.13550668534E+03  0.13551263658E+03  0.12700000000E+01 0. -1.
         25    2    1    2    0    0  0.00000000000E+00  0.00000000000E+00 -0.10670199796E+03  0.16434530754E+03  0.12499625492E+03 0.  0.
    9000005    1    3    3    0    0  0.44259035927E+02 -0.20470333470E+02 -0.10473131428E+03  0.11553157579E+03  0.10000000000E+01 0.  0.
    9000005    1    3    3    0    0 -0.44259035927E+02  0.20470333470E+02 -0.19706836758E+01  0.48813731754E+02  0.10000000000E+01 0.  0.
<mgrwt>
<rscale>  0 0.12499625E+03</rscale>
<asrwt>0</asrwt>
<pdfrwt beam="2">  1        4 0.33880912E-01 0.12499625E+03</pdfrwt>
<pdfrwt beam="1">  1       -4 0.72054141E-02 0.12499625E+03</pdfrwt>
<totfact> 0.17856708E+03</totfact>
</mgrwt>
</event>
<event>
 5    1  0.1435323E-002  0.1249999E+03  0.7818608E-02  0.1235069E+00
          4   -1    0    0  501    0  0.00000000000E+00  0.00000000000E+00  0.27378860125E+02  0.27408299505E+02  0.12700000000E+01 0.  1.
         -4   -1    0    0    0  501 -0.00000000000E+00 -0.00000000000E+00 -0.14256474519E+03  0.14257040181E+03  0.12700000000E+01 0.  1.
         25    2    1    2    0    0  0.00000000000E+00  0.00000000000E+00 -0.11518588507E+03  0.16997870131E+03  0.12499988312E+03 0.  0.
    9000005    1    3    3    0    0  0.40767516651E+02 -0.37366356556E+02 -0.97168639660E+02  0.11180777947E+03  0.10000000000E+01 0.  0.
    9000005    1    3    3    0    0 -0.40767516651E+02  0.37366356556E+02 -0.18017245407E+02  0.58170921844E+02  0.10000000000E+01 0.  0.
<mgrwt>
<rscale>  0 0.12499988E+03</rscale>
<asrwt>0</asrwt>
<pdfrwt beam="1">  1        4 0.68491024E-02 0.12499988E+03</pdfrwt>
<pdfrwt beam="2">  1       -4 0.35645571E-01 0.12499988E+03</pdfrwt>
<totfact> 0.17598056E+03</totfact>
</mgrwt>
</event>
<event>
 5    1  0.1435323E-002  0.1250009E+03  0.7818608E-02  0.1235068E+00
         -4   -1    0    0    0  501 -0.00000000000E+00  0.00000000000E+00  0.69376920374E+02  0.69388543583E+02  0.12700000000E+01 0. -1.
          4   -1    0    0  501    0  0.00000000000E+00 -0.00000000000E+00 -0.56282078810E+02  0.56296405704E+02  0.12700000000E+01 0. -1.
         25    2    1    2    0    0  0.00000000000E+00  0.00000000000E+00  0.13094841564E+02  0.12568494929E+03  0.12500092640E+03 0.  0.
    9000005    1    3    3    0    0  0.13285284040E+00 -0.40862680359E+02 -0.40992718479E+02  0.57889370910E+02  0.10000000000E+01 0.  0.
    9000005    1    3    3    0    0 -0.13285284040E+00  0.40862680359E+02  0.54087560043E+02  0.67795578377E+02  0.10000000000E+01 0.  0.
<mgrwt>
<rscale>  0 0.12500093E+03</rscale>
<asrwt>0</asrwt>
<pdfrwt beam="2">  1        4 0.14073763E-01 0.12500093E+03</pdfrwt>
<pdfrwt beam="1">  1       -4 0.17347474E-01 0.12500093E+03</pdfrwt>
<totfact> 0.19797525E+03</totfact>
</mgrwt>
</event>
<event>
 5    1  0.1435323E-002  0.1250057E+03  0.7818608E-02  0.1235060E+00
          4   -1    0    0  501    0  0.00000000000E+00  0.00000000000E+00  0.13141327641E+03  0.13141941301E+03  0.12700000000E+01 0. -1.
         -4   -1    0    0    0  501 -0.00000000000E+00 -0.00000000000E+00 -0.29707240394E+02  0.29734374583E+02  0.12700000000E+01 0. -1.
         25    2    1    2    0    0  0.00000000000E+00  0.00000000000E+00  0.10170603602E+03  0.16115378760E+03  0.12500570185E+03 0.  0.
    9000005    1    3    3    0    0 -0.23055496768E+02  0.33252859114E+02  0.11225193779E+03  0.11932646860E+03  0.10000000000E+01 0.  0.
    9000005    1    3    3    0    0  0.23055496768E+02 -0.33252859114E+02 -0.10545901773E+02  0.41827318999E+02  0.10000000000E+01 0.  0.
<mgrwt>
<rscale>  0 0.12500570E+03</rscale>
<asrwt>0</asrwt>
<pdfrwt beam="1">  1        4 0.32857478E-01 0.12500570E+03</pdfrwt>
<pdfrwt beam="2">  1       -4 0.74309690E-02 0.12500570E+03</pdfrwt>
<totfact> 0.18001205E+03</totfact>
</mgrwt>
</event>
<event>
 5    1  0.1435323E-002  0.1250013E+03  0.7818608E-02  0.1235067E+00
         -4   -1    0    0    0  501 -0.00000000000E+00  0.00000000000E+00  0.92942239254E+02  0.92950915744E+02  0.12700000000E+01 0. -1.
          4   -1    0    0  501    0  0.00000000000E+00 -0.00000000000E+00 -0.42009456249E+02  0.42028648733E+02  0.12700000000E+01 0. -1.
         25    2    1    2    0    0  0.00000000000E+00  0.00000000000E+00  0.50932783005E+02  0.13497956448E+03  0.12500133776E+03 0.  0.
    9000005    1    3    3    0    0  0.36691331687E+02  0.47683404409E+02  0.43707851672E+02  0.74372959971E+02  0.10000000000E+01 0.  0.
    9000005    1    3    3    0    0 -0.36691331687E+02 -0.47683404409E+02  0.72249313331E+01  0.60606604506E+02  0.10000000000E+01 0.  0.
<mgrwt>
<rscale>  0 0.12500134E+03</rscale>
<asrwt>0</asrwt>
<pdfrwt beam="2">  1        4 0.10505848E-01 0.12500134E+03</pdfrwt>
<pdfrwt beam="1">  1       -4 0.23239043E-01 0.12500134E+03</pdfrwt>
<totfact> 0.19299605E+03</totfact>
</mgrwt>
</event>
<event>
 5    1  0.1435323E-002  0.1249976E+03  0.7818608E-02  0.1235073E+00
          4   -1    0    0  501    0  0.00000000000E+00  0.00000000000E+00  0.35033734512E+03  0.35033964704E+03  0.12700000000E+01 0. -1.
         -4   -1    0    0    0  501 -0.00000000000E+00 -0.00000000000E+00 -0.11111036611E+02  0.11183382073E+02  0.12700000000E+01 0. -1.
         25    2    1    2    0    0  0.00000000000E+00  0.00000000000E+00  0.33922630851E+03  0.36152302911E+03  0.12499764875E+03 0.  0.
    9000005    1    3    3    0    0  0.30699064982E+02  0.54426750966E+02  0.17144062010E+03  0.18247627251E+03  0.10000000000E+01 0.  0.
    9000005    1    3    3    0    0 -0.30699064982E+02 -0.54426750966E+02  0.16778568841E+03  0.17904675660E+03  0.10000000000E+01 0.  0.
<mgrwt>
<rscale>  0 0.12499765E+03</rscale>
<asrwt>0</asrwt>
<pdfrwt beam="1">  1        4 0.87593665E-01 0.12499765E+03</pdfrwt>
<pdfrwt beam="2">  1       -4 0.27870902E-02 0.12499765E+03</pdfrwt>
<totfact> 0.11407848E+03</totfact>
</mgrwt>
</event>
<event>
 5    1  0.1435323E-002  0.1250014E+03  0.7818608E-02  0.1235067E+00
          4   -1    0    0  501    0  0.00000000000E+00  0.00000000000E+00  0.13090526642E+03  0.13091142683E+03  0.12700000000E+01 0.  1.
         -4   -1    0    0    0  501 -0.00000000000E+00 -0.00000000000E+00 -0.29820564445E+02  0.29847595612E+02  0.12700000000E+01 0.  1.
         25    2    1    2    0    0  0.00000000000E+00  0.00000000000E+00  0.10108470197E+03  0.16075902245E+03  0.12500138529E+03 0.  0.
    9000005    1    3    3    0    0 -0.37689638217E+02  0.17294423299E+02  0.11066787222E+03  0.11818622528E+03  0.10000000000E+01 0.  0.
    9000005    1    3    3    0    0  0.37689638217E+02 -0.17294423299E+02 -0.95831702449E+01  0.42572797161E+02  0.10000000000E+01 0.  0.
<mgrwt>
<rscale>  0 0.12500139E+03</rscale>
<asrwt>0</asrwt>
<pdfrwt beam="1">  1        4 0.32730465E-01 0.12500139E+03</pdfrwt>
<pdfrwt beam="2">  1       -4 0.74592902E-02 0.12500139E+03</pdfrwt>
<totfact> 0.18021512E+03</totfact>
</mgrwt>
</event>
<event>
 5    1  0.1435323E-002  0.1249998E+03  0.7818608E-02  0.1235070E+00
          4   -1    0    0  501    0  0.00000000000E+00  0.00000000000E+00  0.28632141889E+02  0.28660293947E+02  0.12700000000E+01 0. -1.
         -4   -1    0    0    0  501 -0.00000000000E+00 -0.00000000000E+00 -0.13633026643E+03  0.13633618172E+03  0.12700000000E+01 0. -1.
         25    2    1    2    0    0  0.00000000000E+00  0.00000000000E+00 -0.10769812455E+03  0.16499647567E+03  0.12499980381E+03 0.  0.
    9000005    1    3    3    0    0  0.15069038877E+01 -0.46305753627E+02 -0.10920531336E+03  0.11863091521E+03  0.10000000000E+01 0.  0.
    9000005    1    3    3    0    0 -0.15069038877E+01  0.46305753627E+02  0.15071888121E+01  0.46365560456E+02  0.10000000000E+01 0.  0.
<mgrwt>
<rscale>  0 0.12499980E+03</rscale>
<asrwt>0</asrwt>
<pdfrwt beam="1">  1        4 0.71622943E-02 0.12499980E+03</pdfrwt>
<pdfrwt beam="2">  1       -4 0.34086823E-01 0.12499980E+03</pdfrwt>
<totfact> 0.17825198E+03</totfact>
</mgrwt>
</event>
<event>
 5    1  0.1435323E-002  0.1250004E+03  0.7818608E-02  0.1235069E+00
         -4   -1    0    0    0  501 -0.00000000000E+00  0.00000000000E+00  0.12785029703E+03  0.12785660465E+03  0.12700000000E+01 0.  1.
          4   -1    0    0  501    0  0.00000000000E+00 -0.00000000000E+00 -0.30533241253E+02  0.30559642037E+02  0.12700000000E+01 0.  1.
         25    2    1    2    0    0  0.00000000000E+00  0.00000000000E+00  0.97317055782E+02  0.15841624668E+03  0.12500039147E+03 0.  0.
    9000005    1    3    3    0    0  0.15497288959E+00 -0.25546685225E+02  0.12093631237E+03  0.12360925853E+03  0.10000000000E+01 0.  0.
    9000005    1    3    3    0    0 -0.15497288959E+00  0.25546685225E+02 -0.23619256593E+02  0.34806988157E+02  0.10000000000E+01 0.  0.
<mgrwt>
<rscale>  0 0.12500039E+03</rscale>
<asrwt>0</asrwt>
<pdfrwt beam="2">  1        4 0.76373990E-02 0.12500039E+03</pdfrwt>
<pdfrwt beam="1">  1       -4 0.31966662E-01 0.12500039E+03</pdfrwt>
<totfact> 0.18132379E+03</totfact>
</mgrwt>
</event>
<event>
 5    1  0.1435323E-002  0.1249958E+03  0.7818608E-02  0.1235076E+00
         -4   -1    0    0    0  501 -0.00000000000E+00  0.00000000000E+00  0.24523519191E+02  0.24556381930E+02  0.12700000000E+01 0. -1.
          4   -1    0    0  501    0  0.00000000000E+00 -0.00000000000E+00 -0.15913299911E+03  0.15913806680E+03  0.12700000000E+01 0. -1.
         25    2    1    2    0    0  0.00000000000E+00  0.00000000000E+00 -0.13460947992E+03  0.18369444873E+03  0.12499575357E+03 0.  0.
    9000005    1    3    3    0    0  0.59486930623E-01  0.41358847182E+02  0.15385036917E+01  0.41399574545E+02  0.10000000000E+01 0.  0.
    9000005    1    3    3    0    0 -0.59486930623E-01 -0.41358847182E+02 -0.13614798361E+03  0.14229487419E+03  0.10000000000E+01 0.  0.
<mgrwt>
<rscale>  0 0.12499575E+03</rscale>
<asrwt>0</asrwt>
<pdfrwt beam="2">  1        4 0.39787988E-01 0.12499575E+03</pdfrwt>
<pdfrwt beam="1">  1       -4 0.61356216E-02 0.12499575E+03</pdfrwt>
<totfact> 0.16998129E+03</totfact>
</mgrwt>
</event>
<event>
 5    1  0.1435323E-002  0.1249979E+03  0.7818608E-02  0.1235073E+00
         -4   -1    0    0    0  501 -0.00000000000E+00  0.00000000000E+00  0.29487716161E+02  0.29515052166E+02  0.12700000000E+01 0.  1.
          4   -1    0    0  501    0  0.00000000000E+00 -0.00000000000E+00 -0.13237429428E+03  0.13238038633E+03  0.12700000000E+01 0.  1.
         25    2    1    2    0    0  0.00000000000E+00  0.00000000000E+00 -0.10288657812E+03  0.16189543850E+03  0.12499794018E+03 0.  0.
    9000005    1    3    3    0    0  0.51292455816E+02  0.21622521517E+02 -0.14657490012E+02  0.57569883392E+02  0.10000000000E+01 0.  0.
    9000005    1    3    3    0    0 -0.51292455816E+02 -0.21622521517E+02 -0.88229088106E+02  0.10432555511E+03  0.10000000000E+01 0.  0.
<mgrwt>
<rscale>  0 0.12499794E+03</rscale>
<asrwt>0</asrwt>
<pdfrwt beam="2">  1        4 0.33097751E-01 0.12499794E+03</pdfrwt>
<pdfrwt beam="1">  1       -4 0.73761079E-02 0.12499794E+03</pdfrwt>
<totfact> 0.17969776E+03</totfact>
</mgrwt>
</event>
<event>
 5    1  0.1435323E-002  0.1250037E+03  0.7818608E-02  0.1235064E+00
         -4   -1    0    0    0  501 -0.00000000000E+00  0.00000000000E+00  0.46755151354E+02  0.46772396541E+02  0.12700000000E+01 0. -1.
          4   -1    0    0  501    0  0.00000000000E+00 -0.00000000000E+00 -0.83514378600E+02  0.83524034463E+02  0.12700000000E+01 0. -1.
         25    2    1    2    0    0  0.00000000000E+00  0.00000000000E+00 -0.36759227246E+02  0.13029643100E+03  0.12500367652E+03 0.  0.
    9000005    1    3    3    0    0 -0.59073673004E+02 -0.63332807521E+01 -0.38582493396E+02  0.70847851654E+02  0.10000000000E+01 0.  0.
    9000005    1    3    3    0    0  0.59073673004E+02  0.63332807521E+01  0.18232661509E+01  0.59448579350E+02  0.10000000000E+01 0.  0.
<mgrwt>
<rscale>  0 0.12500368E+03</rscale>
<asrwt>0</asrwt>
<pdfrwt beam="2">  1        4 0.20881957E-01 0.12500368E+03</pdfrwt>
<pdfrwt beam="1">  1       -4 0.11692151E-01 0.12500368E+03</pdfrwt>
<totfact> 0.19546783E+03</totfact>
</mgrwt>
</event>
<event>
 5    1  0.1435323E-002  0.1249993E+03  0.7818608E-02  0.1235070E+00
         -4   -1    0    0    0  501 -0.00000000000E+00  0.00000000000E+00  0.49426930269E+02  0.49443243581E+02  0.12700000000E+01 0.  1.
          4   -1    0    0  501    0  0.00000000000E+00 -0.00000000000E+00 -0.78995509323E+02  0.79005717471E+02  0.12700000000E+01 0.  1.
         25    2    1    2    0    0  0.00000000000E+00  0.00000000000E+00 -0.29568579054E+02  0.12844896105E+03  0.12499933891E+03 0.  0.
    9000005    1    3    3    0    0  0.20561905657E+02 -0.17072924919E+02 -0.72831539710E+02  0.77586789507E+02  0.10000000000E+01 0.  0.
    9000005    1    3    3    0    0 -0.20561905657E+02  0.17072924919E+02  0.43262960656E+02  0.50862171545E+02  0.10000000000E+01 0.  0.
<mgrwt>
<rscale>  0 0.12499934E+03</rscale>
<asrwt>0</asrwt>
<pdfrwt beam="2">  1        4 0.19752192E-01 0.12499934E+03</pdfrwt>
<pdfrwt beam="1">  1       -4 0.12360048E-01 0.12499934E+03</pdfrwt>
<totfact> 0.19648444E+03</totfact>
</mgrwt>
</event>
<event>
 5    1  0.1435323E-002  0.1249992E+03  0.7818608E-02  0.1235071E+00
         -4   -1    0    0    0  501 -0.00000000000E+00  0.00000000000E+00  0.21331846465E+03  0.21332224512E+03  0.12700000000E+01 0.  1.
          4   -1    0    0  501    0  0.00000000000E+00 -0.00000000000E+00 -0.18285624402E+02  0.18329674295E+02  0.12700000000E+01 0.  1.
         25    2    1    2    0    0  0.00000000000E+00  0.00000000000E+00  0.19503284025E+03  0.23165191941E+03  0.12499921196E+03 0.  0.
    9000005    1    3    3    0    0  0.36344042343E+02 -0.18296125414E+02  0.18541416250E+03  0.18982900009E+03  0.10000000000E+01 0.  0.
    9000005    1    3    3    0    0 -0.36344042343E+02  0.18296125414E+02  0.96186777497E+01  0.41822919322E+02  0.10000000000E+01 0.  0.
<mgrwt>
<rscale>  0 0.12499921E+03</rscale>
<asrwt>0</asrwt>
<pdfrwt beam="2">  1        4 0.45773849E-02 0.12499921E+03</pdfrwt>
<pdfrwt beam="1">  1       -4 0.53335595E-01 0.12499921E+03</pdfrwt>
<totfact> 0.15128739E+03</totfact>
</mgrwt>
</event>
<event>
 5    1  0.1435323E-002  0.1250004E+03  0.7818608E-02  0.1235069E+00
         -4   -1    0    0    0  501 -0.00000000000E+00  0.00000000000E+00  0.14202043255E+03  0.14202611084E+03  0.12700000000E+01 0.  1.
          4   -1    0    0  501    0  0.00000000000E+00 -0.00000000000E+00 -0.27484147695E+02  0.27513474417E+02  0.12700000000E+01 0.  1.
         25    2    1    2    0    0  0.00000000000E+00  0.00000000000E+00  0.11453628485E+03  0.16953958526E+03  0.12500044169E+03 0.  0.
    9000005    1    3    3    0    0  0.30302471948E+02 -0.38357825650E+02  0.11007232751E+03  0.12044284901E+03  0.10000000000E+01 0.  0.
    9000005    1    3    3    0    0 -0.30302471948E+02  0.38357825650E+02  0.44639573401E+01  0.49096736245E+02  0.10000000000E+01 0.  0.
<mgrwt>
<rscale>  0 0.12500044E+03</rscale>
<asrwt>0</asrwt>
<pdfrwt beam="2">  1        4 0.68754126E-02 0.12500044E+03</pdfrwt>
<pdfrwt beam="1">  1       -4 0.35509483E-01 0.12500044E+03</pdfrwt>
<totfact> 0.17617653E+03</totfact>
</mgrwt>
</event>
<event>
 5    1  0.1435323E-002  0.1249940E+03  0.7818608E-02  0.1235079E+00
          4   -1    0    0  501    0  0.00000000000E+00  0.00000000000E+00  0.14225187703E+02  0.14281766879E+02  0.12700000000E+01 0. -1.
         -4   -1    0    0    0  501 -0.00000000000E+00 -0.00000000000E+00 -0.27397151650E+03  0.27397446003E+03  0.12700000000E+01 0. -1.
         25    2    1    2    0    0  0.00000000000E+00  0.00000000000E+00 -0.25974632879E+03  0.28825622691E+03  0.12499398799E+03 0.  0.
    9000005    1    3    3    0    0  0.10841088694E+02  0.42591947020E+02 -0.27430008007E+02  0.51817067596E+02  0.10000000000E+01 0.  0.
    9000005    1    3    3    0    0 -0.10841088694E+02 -0.42591947020E+02 -0.23231632079E+03  0.23643915932E+03  0.10000000000E+01 0.  0.
<mgrwt>
<rscale>  0 0.12499399E+03</rscale>
<asrwt>0</asrwt>
<pdfrwt beam="1">  1        4 0.35637382E-02 0.12499399E+03</pdfrwt>
<pdfrwt beam="2">  1       -4 0.68500302E-01 0.12499399E+03</pdfrwt>
<totfact> 0.13308536E+03</totfact>
</mgrwt>
</event>
<event>
 5    1  0.1435323E-002  0.1249987E+03  0.7818608E-02  0.1235071E+00
          4   -1    0    0  501    0  0.00000000000E+00  0.00000000000E+00  0.16801312213E+02  0.16849243071E+02  0.12700000000E+01 0.  1.
         -4   -1    0    0    0  501 -0.00000000000E+00 -0.00000000000E+00 -0.23211117326E+03  0.23211464765E+03  0.12700000000E+01 0.  1.
         25    2    1    2    0    0  0.00000000000E+00  0.00000000000E+00 -0.21530986105E+03  0.24896389072E+03  0.12499873046E+03 0.  0.
    9000005    1    3    3    0    0  0.15239981921E+01  0.42555463216E+02 -0.19875091003E+03  0.20326390299E+03  0.10000000000E+01 0.  0.
    9000005    1    3    3    0    0 -0.15239981921E+01 -0.42555463216E+02 -0.16558951022E+02  0.45699987735E+02  0.10000000000E+01 0.  0.
<mgrwt>
<rscale>  0 0.12499873E+03</rscale>
<asrwt>0</asrwt>
<pdfrwt beam="1">  1        4 0.42067544E-02 0.12499873E+03</pdfrwt>
<pdfrwt beam="2">  1       -4 0.58034209E-01 0.12499873E+03</pdfrwt>
<totfact> 0.14532944E+03</totfact>
</mgrwt>
</event>
<event>
 5    1  0.1435323E-002  0.1250027E+03  0.7818608E-02  0.1235065E+00
          4   -1    0    0  501    0  0.00000000000E+00  0.00000000000E+00  0.10961788652E+03  0.10962524319E+03  0.12700000000E+01 0.  1.
         -4   -1    0    0    0  501 -0.00000000000E+00 -0.00000000000E+00 -0.35616842456E+02  0.35639477641E+02  0.12700000000E+01 0.  1.
         25    2    1    2    0    0  0.00000000000E+00  0.00000000000E+00  0.74001044061E+02  0.14526472083E+03  0.12500273835E+03 0.  0.
    9000005    1    3    3    0    0  0.35175075641E+02 -0.19313398791E+02 -0.18672406447E+02  0.44271346057E+02  0.10000000000E+01 0.  0.
    9000005    1    3    3    0    0 -0.35175075641E+02  0.19313398791E+02  0.92673450508E+02  0.10099337477E+03  0.10000000000E+01 0.  0.
<mgrwt>
<rscale>  0 0.12500274E+03</rscale>
<asrwt>0</asrwt>
<pdfrwt beam="1">  1        4 0.27408220E-01 0.12500274E+03</pdfrwt>
<pdfrwt beam="2">  1       -4 0.89079597E-02 0.12500274E+03</pdfrwt>
<totfact> 0.18772889E+03</totfact>
</mgrwt>
</event>
<event>
 5    1  0.1435323E-002  0.1249989E+03  0.7818608E-02  0.1235071E+00
         -4   -1    0    0    0  501 -0.00000000000E+00  0.00000000000E+00  0.97241807988E+01  0.98067625753E+01  0.12700000000E+01 0. -1.
          4   -1    0    0  501    0  0.00000000000E+00 -0.00000000000E+00 -0.39991575225E+03  0.39991776880E+03  0.12700000000E+01 0. -1.
         25    2    1    2    0    0  0.00000000000E+00  0.00000000000E+00 -0.39019157145E+03  0.40972453137E+03  0.12499891669E+03 0.  0.
    9000005    1    3    3    0    0  0.39149274656E+02  0.12102041253E+02 -0.34974719302E+03  0.35214091516E+03  0.10000000000E+01 0.  0.
    9000005    1    3    3    0    0 -0.39149274656E+02 -0.12102041253E+02 -0.40444378436E+02  0.57583616209E+02  0.10000000000E+01 0.  0.
<mgrwt>
<rscale>  0 0.12499892E+03</rscale>
<asrwt>0</asrwt>
<pdfrwt beam="2">  1        4 0.99989458E-01 0.12499892E+03</pdfrwt>
<pdfrwt beam="1">  1       -4 0.24416213E-02 0.12499892E+03</pdfrwt>
<totfact> 0.10371853E+03</totfact>
</mgrwt>
</event>
<event>
 5    1  0.1435323E-002  0.1249907E+03  0.7818608E-02  0.1235084E+00
          4   -1    0    0  501    0  0.00000000000E+00  0.00000000000E+00  0.19330878132E+02  0.19372551442E+02  0.12700000000E+01 0. -1.
         -4   -1    0    0    0  501 -0.00000000000E+00 -0.00000000000E+00 -0.20178163881E+03  0.20178563542E+03  0.12700000000E+01 0. -1.
         25    2    1    2    0    0  0.00000000000E+00  0.00000000000E+00 -0.18245076068E+03  0.22115818686E+03  0.12499065382E+03 0.  0.
    9000005    1    3    3    0    0  0.32713848003E+02  0.47374464943E+02 -0.48242118789E+02  0.75118824572E+02  0.10000000000E+01 0.  0.
    9000005    1    3    3    0    0 -0.32713848003E+02 -0.47374464943E+02 -0.13420864189E+03  0.14603936229E+03  0.10000000000E+01 0.  0.
<mgrwt>
<rscale>  0 0.12499065E+03</rscale>
<asrwt>0</asrwt>
<pdfrwt beam="1">  1        4 0.48384289E-02 0.12499065E+03</pdfrwt>
<pdfrwt beam="2">  1       -4 0.50451112E-01 0.12499065E+03</pdfrwt>
<totfact> 0.15511826E+03</totfact>
</mgrwt>
</event>
<event>
 5    1  0.1435323E-002  0.1250013E+03  0.7818608E-02  0.1235067E+00
         -4   -1    0    0    0  501 -0.00000000000E+00  0.00000000000E+00  0.90658619604E+02  0.90667514626E+02  0.12700000000E+01 0.  1.
          4   -1    0    0  501    0  0.00000000000E+00 -0.00000000000E+00 -0.43067988473E+02  0.43086709449E+02  0.12700000000E+01 0.  1.
         25    2    1    2    0    0  0.00000000000E+00  0.00000000000E+00  0.47590631131E+02  0.13375422407E+03  0.12500129714E+03 0.  0.
    9000005    1    3    3    0    0  0.51234516857E+01  0.59716808793E+02  0.48651637068E+01  0.60141639714E+02  0.10000000000E+01 0.  0.
    9000005    1    3    3    0    0 -0.51234516857E+01 -0.59716808793E+02  0.42725467424E+02  0.73612584360E+02  0.10000000000E+01 0.  0.
<mgrwt>
<rscale>  0 0.12500130E+03</rscale>
<asrwt>0</asrwt>
<pdfrwt beam="2">  1        4 0.10770449E-01 0.12500130E+03</pdfrwt>
<pdfrwt beam="1">  1       -4 0.22668107E-01 0.12500130E+03</pdfrwt>
<totfact> 0.19364003E+03</totfact>
</mgrwt>
</event>
<event>
 5    1  0.1435323E-002  0.1250051E+03  0.7818608E-02  0.1235061E+00
          4   -1    0    0  501    0  0.00000000000E+00  0.00000000000E+00  0.70364435012E+02  0.70375895125E+02  0.12700000000E+01 0. -1.
         -4   -1    0    0    0  501 -0.00000000000E+00 -0.00000000000E+00 -0.55495796277E+02  0.55510326106E+02  0.12700000000E+01 0. -1.
         25    2    1    2    0    0  0.00000000000E+00  0.00000000000E+00  0.14868638736E+02  0.12588622123E+03  0.12500505701E+03 0.  0.
    9000005    1    3    3    0    0  0.86301371556E+01 -0.47678302269E+02  0.47182358206E+02  0.67637820046E+02  0.10000000000E+01 0.  0.
    9000005    1    3    3    0    0 -0.86301371556E+01  0.47678302269E+02 -0.32313719470E+02  0.58248401185E+02  0.10000000000E+01 0.  0.
<mgrwt>
<rscale>  0 0.12500506E+03</rscale>
<asrwt>0</asrwt>
<pdfrwt beam="1">  1        4 0.17594357E-01 0.12500506E+03</pdfrwt>
<pdfrwt beam="2">  1       -4 0.13877198E-01 0.12500506E+03</pdfrwt>
<totfact> 0.19784729E+03</totfact>
</mgrwt>
</event>
<event>
 5    1  0.1435323E-002  0.1249984E+03  0.7818608E-02  0.1235072E+00
         -4   -1    0    0    0  501 -0.00000000000E+00  0.00000000000E+00  0.60512484344E+02  0.60525809879E+02  0.12700000000E+01 0. -1.
          4   -1    0    0  501    0  0.00000000000E+00 -0.00000000000E+00 -0.64524410054E+02  0.64536907214E+02  0.12700000000E+01 0. -1.
         25    2    1    2    0    0  0.00000000000E+00  0.00000000000E+00 -0.40119257099E+01  0.12506271709E+03  0.12499835062E+03 0.  0.
    9000005    1    3    3    0    0 -0.49647769113E+02 -0.11559669770E+02 -0.38171775109E+02  0.63691532860E+02  0.10000000000E+01 0.  0.
    9000005    1    3    3    0    0  0.49647769113E+02  0.11559669770E+02  0.34159849400E+02  0.61371184233E+02  0.10000000000E+01 0.  0.
<mgrwt>
<rscale>  0 0.12499835E+03</rscale>
<asrwt>0</asrwt>
<pdfrwt beam="2">  1        4 0.16134330E-01 0.12499835E+03</pdfrwt>
<pdfrwt beam="1">  1       -4 0.15131349E-01 0.12499835E+03</pdfrwt>
<totfact> 0.19832420E+03</totfact>
</mgrwt>
</event>
<event>
 5    1  0.1435323E-002  0.1250000E+03  0.7818608E-02  0.1235069E+00
         -4   -1    0    0    0  501 -0.00000000000E+00  0.00000000000E+00  0.17710075248E+02  0.17755553084E+02  0.12700000000E+01 0.  1.
          4   -1    0    0  501    0  0.00000000000E+00 -0.00000000000E+00 -0.22023654977E+03  0.22024021149E+03  0.12700000000E+01 0.  1.
         25    2    1    2    0    0  0.00000000000E+00  0.00000000000E+00 -0.20252647453E+03  0.23799576457E+03  0.12500004428E+03 0.  0.
    9000005    1    3    3    0    0 -0.81912857277E+01  0.35203576226E+02 -0.19832559211E+03  0.20159471577E+03  0.10000000000E+01 0.  0.
    9000005    1    3    3    0    0  0.81912857277E+01 -0.35203576226E+02 -0.42008824192E+01  0.36401048804E+02  0.10000000000E+01 0.  0.
<mgrwt>
<rscale>  0 0.12500004E+03</rscale>
<asrwt>0</asrwt>
<pdfrwt beam="2">  1        4 0.55065271E-01 0.12500004E+03</pdfrwt>
<pdfrwt beam="1">  1       -4 0.44336620E-02 0.12500004E+03</pdfrwt>
<totfact> 0.14905738E+03</totfact>
</mgrwt>
</event>
<event>
 5    1  0.1435323E-002  0.1249998E+03  0.7818608E-02  0.1235070E+00
          4   -1    0    0  501    0  0.00000000000E+00  0.00000000000E+00  0.11395943609E+03  0.11396651251E+03  0.12700000000E+01 0. -1.
         -4   -1    0    0    0  501 -0.00000000000E+00 -0.00000000000E+00 -0.34257555199E+02  0.34281087909E+02  0.12700000000E+01 0. -1.
         25    2    1    2    0    0  0.00000000000E+00  0.00000000000E+00  0.79701880891E+02  0.14824760042E+03  0.12499984485E+03 0.  0.
    9000005    1    3    3    0    0  0.23337054160E+02  0.31865811880E+02  0.97284723412E+02  0.10500174033E+03  0.10000000000E+01 0.  0.
    9000005    1    3    3    0    0 -0.23337054160E+02 -0.31865811880E+02 -0.17582842521E+02  0.43245860088E+02  0.10000000000E+01 0.  0.
<mgrwt>
<rscale>  0 0.12499984E+03</rscale>
<asrwt>0</asrwt>
<pdfrwt beam="1">  1        4 0.28493685E-01 0.12499984E+03</pdfrwt>
<pdfrwt beam="2">  1       -4 0.85682150E-02 0.12499984E+03</pdfrwt>
<totfact> 0.18625351E+03</totfact>
</mgrwt>
</event>
<event>
 5    1  0.1435323E-002  0.1250211E+03  0.7818608E-02  0.1235036E+00
          4   -1    0    0  501    0  0.00000000000E+00  0.00000000000E+00  0.83750666874E+02  0.83760295497E+02  0.12700000000E+01 0. -1.
         -4   -1    0    0    0  501 -0.00000000000E+00 -0.00000000000E+00 -0.46636248153E+02  0.46653537291E+02  0.12700000000E+01 0. -1.
         25    2    1    2    0    0  0.00000000000E+00  0.00000000000E+00  0.37114418721E+02  0.13041383279E+03  0.12502114903E+03 0.  0.
    9000005    1    3    3    0    0  0.44421890404E+02  0.41629472846E+02  0.33318739943E+02  0.69407894276E+02  0.10000000000E+01 0.  0.
    9000005    1    3    3    0    0 -0.44421890404E+02 -0.41629472846E+02  0.37956787786E+01  0.61005938513E+02  0.10000000000E+01 0.  0.
<mgrwt>
<rscale>  0 0.12502115E+03</rscale>
<asrwt>0</asrwt>
<pdfrwt beam="1">  1        4 0.20941031E-01 0.12502115E+03</pdfrwt>
<pdfrwt beam="2">  1       -4 0.11662427E-01 0.12502115E+03</pdfrwt>
<totfact> 0.19532518E+03</totfact>
</mgrwt>
</event>
<event>
 5    1  0.1435323E-002  0.1249541E+03  0.7818608E-02  0.1235141E+00
         -4   -1    0    0    0  501 -0.00000000000E+00  0.00000000000E+00  0.20618881433E+03  0.20619272552E+03  0.12700000000E+01 0. -1.
          4   -1    0    0  501    0  0.00000000000E+00 -0.00000000000E+00 -0.18905712025E+02  0.18948320432E+02  0.12700000000E+01 0. -1.
         25    2    1    2    0    0  0.00000000000E+00  0.00000000000E+00  0.18728310231E+03  0.22514104595E+03  0.12495411222E+03 0.  0.
    9000005    1    3    3    0    0  0.37418293271E+02 -0.40258479116E+02  0.40146028555E+02  0.68070385784E+02  0.10000000000E+01 0.  0.
    9000005    1    3    3    0    0 -0.37418293271E+02  0.40258479116E+02  0.14713707375E+03  0.15707066017E+03  0.10000000000E+01 0.  0.
<mgrwt>
<rscale>  0 0.12495411E+03</rscale>
<asrwt>0</asrwt>
<pdfrwt beam="2">  1        4 0.47322430E-02 0.12495411E+03</pdfrwt>
<pdfrwt beam="1">  1       -4 0.51553018E-01 0.12495411E+03</pdfrwt>
<totfact> 0.15378770E+03</totfact>
</mgrwt>
</event>
<event>
 5    1  0.1435323E-002  0.1249983E+03  0.7818608E-02  0.1235072E+00
          4   -1    0    0  501    0  0.00000000000E+00  0.00000000000E+00  0.12413647569E+03  0.12414297200E+03  0.12700000000E+01 0.  1.
         -4   -1    0    0    0  501 -0.00000000000E+00 -0.00000000000E+00 -0.31446409441E+02  0.31472044210E+02  0.12700000000E+01 0.  1.
         25    2    1    2    0    0  0.00000000000E+00  0.00000000000E+00  0.92690066251E+02  0.15561501621E+03  0.12499833954E+03 0.  0.
    9000005    1    3    3    0    0 -0.74289464031E+01  0.61916845784E+02  0.41324806041E+02  0.74817274949E+02  0.10000000000E+01 0.  0.
    9000005    1    3    3    0    0  0.74289464031E+01 -0.61916845784E+02  0.51365260211E+02  0.80797741262E+02  0.10000000000E+01 0.  0.
<mgrwt>
<rscale>  0 0.12499834E+03</rscale>
<asrwt>0</asrwt>
<pdfrwt beam="1">  1        4 0.31038135E-01 0.12499834E+03</pdfrwt>
<pdfrwt beam="2">  1       -4 0.78656188E-02 0.12499834E+03</pdfrwt>
<totfact> 0.18266797E+03</totfact>
</mgrwt>
</event>
<event>
 5    1  0.1435323E-002  0.1249961E+03  0.7818608E-02  0.1235075E+00
         -4   -1    0    0    0  501 -0.00000000000E+00  0.00000000000E+00  0.13526702017E+03  0.13527298195E+03  0.12700000000E+01 0. -1.
          4   -1    0    0  501    0  0.00000000000E+00 -0.00000000000E+00 -0.28855716124E+02  0.28883650272E+02  0.12700000000E+01 0. -1.
         25    2    1    2    0    0  0.00000000000E+00  0.00000000000E+00  0.10641130405E+03  0.16415663222E+03  0.12499613704E+03 0.  0.
    9000005    1    3    3    0    0 -0.60640132470E+02  0.12806645875E+02  0.63693329572E+02  0.88876746545E+02  0.10000000000E+01 0.  0.
    9000005    1    3    3    0    0  0.60640132470E+02 -0.12806645875E+02  0.42717974477E+02  0.75279885680E+02  0.10000000000E+01 0.  0.
<mgrwt>
<rscale>  0 0.12499614E+03</rscale>
<asrwt>0</asrwt>
<pdfrwt beam="2">  1        4 0.72181661E-02 0.12499614E+03</pdfrwt>
<pdfrwt beam="1">  1       -4 0.33820992E-01 0.12499614E+03</pdfrwt>
<totfact> 0.17865477E+03</totfact>
</mgrwt>
</event>
<event>
 5    1  0.1435323E-002  0.1250001E+03  0.7818608E-02  0.1235069E+00
         -4   -1    0    0    0  501 -0.00000000000E+00  0.00000000000E+00  0.16414817680E+03  0.16415308966E+03  0.12700000000E+01 0. -1.
          4   -1    0    0  501    0  0.00000000000E+00 -0.00000000000E+00 -0.23774931774E+02  0.23808827793E+02  0.12700000000E+01 0. -1.
         25    2    1    2    0    0  0.00000000000E+00  0.00000000000E+00  0.14037324502E+03  0.18796191745E+03  0.12500013798E+03 0.  0.
    9000005    1    3    3    0    0 -0.19172950607E+02 -0.47234372523E+02  0.12453991063E+03  0.13457294424E+03  0.10000000000E+01 0.  0.
    9000005    1    3    3    0    0  0.19172950607E+02  0.47234372523E+02  0.15833334394E+02  0.53388973212E+02  0.10000000000E+01 0.  0.
<mgrwt>
<rscale>  0 0.12500014E+03</rscale>
<asrwt>0</asrwt>
<pdfrwt beam="2">  1        4 0.59485842E-02 0.12500014E+03</pdfrwt>
<pdfrwt beam="1">  1       -4 0.41041895E-01 0.12500014E+03</pdfrwt>
<totfact> 0.16815637E+03</totfact>
</mgrwt>
</event>
<event>
 5    1  0.1435323E-002  0.1249934E+03  0.7818608E-02  0.1235080E+00
         -4   -1    0    0    0  501 -0.00000000000E+00  0.00000000000E+00  0.93675745398E+02  0.93684353954E+02  0.12700000000E+01 0.  1.
          4   -1    0    0  501    0  0.00000000000E+00 -0.00000000000E+00 -0.41675071238E+02  0.41694417644E+02  0.12700000000E+01 0.  1.
         25    2    1    2    0    0  0.00000000000E+00  0.00000000000E+00  0.52000674160E+02  0.13537877160E+03  0.12499336657E+03 0.  0.
    9000005    1    3    3    0    0  0.93401252827E+01 -0.59418772698E+02  0.76514470846E+01  0.60641348367E+02  0.10000000000E+01 0.  0.
    9000005    1    3    3    0    0 -0.93401252827E+01  0.59418772698E+02  0.44349227075E+02  0.74737423232E+02  0.10000000000E+01 0.  0.
<mgrwt>
<rscale>  0 0.12499337E+03</rscale>
<asrwt>0</asrwt>
<pdfrwt beam="2">  1        4 0.10422262E-01 0.12499337E+03</pdfrwt>
<pdfrwt beam="1">  1       -4 0.23422431E-01 0.12499337E+03</pdfrwt>
<totfact> 0.19282300E+03</totfact>
</mgrwt>
</event>
<event>
 5    1  0.1435323E-002  0.1250015E+03  0.7818608E-02  0.1235067E+00
         -4   -1    0    0    0  501 -0.00000000000E+00  0.00000000000E+00  0.32863778597E+02  0.32888308617E+02  0.12700000000E+01 0.  1.
          4   -1    0    0  501    0  0.00000000000E+00 -0.00000000000E+00 -0.11879241483E+03  0.11879920336E+03  0.12700000000E+01 0.  1.
         25    2    1    2    0    0  0.00000000000E+00  0.00000000000E+00 -0.85928636228E+02  0.15168751198E+03  0.12500148306E+03 0.  0.
    9000005    1    3    3    0    0  0.48820444372E+02 -0.33702217526E+02 -0.19121024411E+02  0.62336897817E+02  0.10000000000E+01 0.  0.
    9000005    1    3    3    0    0 -0.48820444372E+02  0.33702217526E+02 -0.66807611818E+02  0.89350614165E+02  0.10000000000E+01 0.  0.
<mgrwt>
<rscale>  0 0.12500148E+03</rscale>
<asrwt>0</asrwt>
<pdfrwt beam="2">  1        4 0.29702017E-01 0.12500148E+03</pdfrwt>
<pdfrwt beam="1">  1       -4 0.82198598E-02 0.12500148E+03</pdfrwt>
<totfact> 0.18455479E+03</totfact>
</mgrwt>
</event>
<event>
 5    1  0.1435323E-002  0.1250053E+03  0.7818608E-02  0.1235061E+00
         -4   -1    0    0    0  501 -0.00000000000E+00  0.00000000000E+00  0.67046648962E+02  0.67058676075E+02  0.12700000000E+01 0. -1.
          4   -1    0    0  501    0  0.00000000000E+00 -0.00000000000E+00 -0.58242485516E+02  0.58256330292E+02  0.12700000000E+01 0. -1.
         25    2    1    2    0    0  0.00000000000E+00  0.00000000000E+00  0.88041634455E+01  0.12531500637E+03  0.12500534999E+03 0.  0.
    9000005    1    3    3    0    0 -0.24582555591E+02 -0.41991294954E+02 -0.34912580846E+02  0.59895402099E+02  0.10000000000E+01 0.  0.
    9000005    1    3    3    0    0  0.24582555591E+02  0.41991294954E+02  0.43716744291E+02  0.65419604269E+02  0.10000000000E+01 0.  0.
<mgrwt>
<rscale>  0 0.12500535E+03</rscale>
<asrwt>0</asrwt>
<pdfrwt beam="2">  1        4 0.14563855E-01 0.12500535E+03</pdfrwt>
<pdfrwt beam="1">  1       -4 0.16764896E-01 0.12500535E+03</pdfrwt>
<totfact> 0.19815501E+03</totfact>
</mgrwt>
</event>
<event>
 5    1  0.1435323E-002  0.1249927E+03  0.7818608E-02  0.1235081E+00
         -4   -1    0    0    0  501 -0.00000000000E+00  0.00000000000E+00  0.33695711430E+03  0.33695950762E+03  0.12700000000E+01 0.  1.
          4   -1    0    0  501    0  0.00000000000E+00 -0.00000000000E+00 -0.11554139898E+02  0.11623727835E+02  0.12700000000E+01 0.  1.
         25    2    1    2    0    0  0.00000000000E+00  0.00000000000E+00  0.32540297440E+03  0.34858323546E+03  0.12499270496E+03 0.  0.
    9000005    1    3    3    0    0 -0.51969703262E+02 -0.24536798218E+02  0.23112104000E+03  0.23816137314E+03  0.10000000000E+01 0.  0.
    9000005    1    3    3    0    0  0.51969703262E+02  0.24536798218E+02  0.94281934406E+02  0.11042186232E+03  0.10000000000E+01 0.  0.
<mgrwt>
<rscale>  0 0.12499270E+03</rscale>
<asrwt>0</asrwt>
<pdfrwt beam="2">  1        4 0.28975326E-02 0.12499270E+03</pdfrwt>
<pdfrwt beam="1">  1       -4 0.84248278E-01 0.12499270E+03</pdfrwt>
<totfact> 0.11713136E+03</totfact>
</mgrwt>
</event>
<event>
 5    1  0.1435323E-002  0.1250177E+03  0.7818608E-02  0.1235042E+00
          4   -1    0    0  501    0  0.00000000000E+00  0.00000000000E+00  0.26912920010E+03  0.26913219660E+03  0.12700000000E+01 0. -1.
         -4   -1    0    0    0  501 -0.00000000000E+00 -0.00000000000E+00 -0.14487647907E+02  0.14543206038E+02  0.12700000000E+01 0. -1.
         25    2    1    2    0    0  0.00000000000E+00  0.00000000000E+00  0.25464155220E+03  0.28367540264E+03  0.12501765459E+03 0.  0.
    9000005    1    3    3    0    0  0.58724416640E+02  0.15417571615E+02  0.16098396766E+03  0.17205550403E+03  0.10000000000E+01 0.  0.
    9000005    1    3    3    0    0 -0.58724416640E+02 -0.15417571615E+02  0.93657584539E+02  0.11161989861E+03  0.10000000000E+01 0.  0.
<mgrwt>
<rscale>  0 0.12501765E+03</rscale>
<asrwt>0</asrwt>
<pdfrwt beam="1">  1        4 0.67289619E-01 0.12501765E+03</pdfrwt>
<pdfrwt beam="2">  1       -4 0.36292313E-02 0.12501765E+03</pdfrwt>
<totfact> 0.13435799E+03</totfact>
</mgrwt>
</event>
<event>
 5    1  0.1435323E-002  0.1250027E+03  0.7818608E-02  0.1235065E+00
         -4   -1    0    0    0  501 -0.00000000000E+00  0.00000000000E+00  0.72484631145E+03  0.72484742403E+03  0.12700000000E+01 0.  1.
          4   -1    0    0  501    0  0.00000000000E+00 -0.00000000000E+00 -0.53133565672E+01  0.54630264515E+01  0.12700000000E+01 0.  1.
         25    2    1    2    0    0  0.00000000000E+00  0.00000000000E+00  0.71953295489E+03  0.73031045049E+03  0.12500272365E+03 0.  0.
    9000005    1    3    3    0    0 -0.28773387348E+01  0.51838532520E+02  0.56298540699E+03  0.56537516838E+03  0.10000000000E+01 0.  0.
    9000005    1    3    3    0    0  0.28773387348E+01 -0.51838532520E+02  0.15654754789E+03  0.16493528211E+03  0.10000000000E+01 0.  0.
<mgrwt>
<rscale>  0 0.12500272E+03</rscale>
<asrwt>0</asrwt>
<pdfrwt beam="2">  1        4 0.13471868E-02 0.12500272E+03</pdfrwt>
<pdfrwt beam="1">  1       -4 0.18123044E+00 0.12500272E+03</pdfrwt>
<totfact> 0.58980351E+02</totfact>
</mgrwt>
</event>
<event>
 5    1  0.1435323E-002  0.1250034E+03  0.7818608E-02  0.1235064E+00
         -4   -1    0    0    0  501 -0.00000000000E+00  0.00000000000E+00  0.75487032136E+01  0.76547906703E+01  0.12700000000E+01 0.  1.
          4   -1    0    0  501    0  0.00000000000E+00 -0.00000000000E+00 -0.51378285098E+03  0.51378442061E+03  0.12700000000E+01 0.  1.
         25    2    1    2    0    0  0.00000000000E+00  0.00000000000E+00 -0.50623414777E+03  0.52143921128E+03  0.12500335474E+03 0.  0.
    9000005    1    3    3    0    0 -0.33192279169E+01 -0.43542025914E+01 -0.51280093139E+03  0.51283113360E+03  0.10000000000E+01 0.  0.
    9000005    1    3    3    0    0  0.33192279169E+01  0.43542025914E+01  0.65667836245E+01  0.86080776798E+01  0.10000000000E+01 0.  0.
<mgrwt>
<rscale>  0 0.12500335E+03</rscale>
<asrwt>0</asrwt>
<pdfrwt beam="2">  1        4 0.12845905E+00 0.12500335E+03</pdfrwt>
<pdfrwt beam="1">  1       -4 0.19006347E-02 0.12500335E+03</pdfrwt>
<totfact> 0.84288413E+02</totfact>
</mgrwt>
</event>
<event>
 5    1  0.1435323E-002  0.1250004E+03  0.7818608E-02  0.1235069E+00
          4   -1    0    0  501    0  0.00000000000E+00  0.00000000000E+00  0.73569333455E+01  0.74657463291E+01  0.12700000000E+01 0.  1.
         -4   -1    0    0    0  501 -0.00000000000E+00 -0.00000000000E+00 -0.52695740138E+03  0.52695893176E+03  0.12700000000E+01 0.  1.
         25    2    1    2    0    0  0.00000000000E+00  0.00000000000E+00 -0.51960046803E+03  0.53442467809E+03  0.12500036071E+03 0.  0.
    9000005    1    3    3    0    0 -0.13879682434E+02  0.34615287561E+02 -0.45415831892E+02  0.58774667195E+02  0.10000000000E+01 0.  0.
    9000005    1    3    3    0    0  0.13879682434E+02 -0.34615287561E+02 -0.47418463614E+03  0.47565001090E+03  0.10000000000E+01 0.  0.
<mgrwt>
<rscale>  0 0.12500036E+03</rscale>
<asrwt>0</asrwt>
<pdfrwt beam="1">  1        4 0.18530280E-02 0.12500036E+03</pdfrwt>
<pdfrwt beam="2">  1       -4 0.13175302E+00 0.12500036E+03</pdfrwt>
<totfact> 0.82379205E+02</totfact>
</mgrwt>
</event>
<event>
 5    1  0.1435323E-002  0.1249998E+03  0.7818608E-02  0.1235070E+00
          4   -1    0    0  501    0  0.00000000000E+00  0.00000000000E+00  0.12543104547E+02  0.12607234894E+02  0.12700000000E+01 0.  1.
         -4   -1    0    0    0  501 -0.00000000000E+00 -0.00000000000E+00 -0.31056561323E+03  0.31056820993E+03  0.12700000000E+01 0.  1.
         25    2    1    2    0    0  0.00000000000E+00  0.00000000000E+00 -0.29802250868E+03  0.32317544483E+03  0.12499980983E+03 0.  0.
    9000005    1    3    3    0    0 -0.41980405309E+02  0.28893567582E+02 -0.24251745649E+03  0.24781628150E+03  0.10000000000E+01 0.  0.
    9000005    1    3    3    0    0  0.41980405309E+02 -0.28893567582E+02 -0.55505052195E+02  0.75359163323E+02  0.10000000000E+01 0.  0.
<mgrwt>
<rscale>  0 0.12499981E+03</rscale>
<asrwt>0</asrwt>
<pdfrwt beam="1">  1        4 0.31441180E-02 0.12499981E+03</pdfrwt>
<pdfrwt beam="2">  1       -4 0.77649719E-01 0.12499981E+03</pdfrwt>
<totfact> 0.12345565E+03</totfact>
</mgrwt>
</event>
<event>
 5    1  0.1435323E-002  0.1249959E+03  0.7818608E-02  0.1235076E+00
         -4   -1    0    0    0  501 -0.00000000000E+00  0.00000000000E+00  0.19465584383E+03  0.19465998674E+03  0.12700000000E+01 0.  1.
          4   -1    0    0  501    0  0.00000000000E+00 -0.00000000000E+00 -0.20041698404E+02  0.20081896696E+02  0.12700000000E+01 0.  1.
         25    2    1    2    0    0  0.00000000000E+00  0.00000000000E+00  0.17461414542E+03  0.21474188343E+03  0.12499590681E+03 0.  0.
    9000005    1    3    3    0    0  0.30324913191E+01  0.61177054079E+02  0.66045152800E+02  0.90082130069E+02  0.10000000000E+01 0.  0.
    9000005    1    3    3    0    0 -0.30324913191E+01 -0.61177054079E+02  0.10856899262E+03  0.12465975336E+03  0.10000000000E+01 0.  0.
<mgrwt>
<rscale>  0 0.12499591E+03</rscale>
<asrwt>0</asrwt>
<pdfrwt beam="2">  1        4 0.50159673E-02 0.12499591E+03</pdfrwt>
<pdfrwt beam="1">  1       -4 0.48669503E-01 0.12499591E+03</pdfrwt>
<totfact> 0.15749779E+03</totfact>
</mgrwt>
</event>
<event>
 5    1  0.1435323E-002  0.1250061E+03  0.7818608E-02  0.1235060E+00
          4   -1    0    0  501    0  0.00000000000E+00  0.00000000000E+00  0.40380800367E+02  0.40400766556E+02  0.12700000000E+01 0. -1.
         -4   -1    0    0    0  501 -0.00000000000E+00 -0.00000000000E+00 -0.96696710012E+02  0.96705049647E+02  0.12700000000E+01 0. -1.
         25    2    1    2    0    0  0.00000000000E+00  0.00000000000E+00 -0.56315909645E+02  0.13710581620E+03  0.12500609248E+03 0.  0.
    9000005    1    3    3    0    0  0.43193357653E+02  0.13108201480E+02  0.19247615217E+02  0.49081175443E+02  0.10000000000E+01 0.  0.
    9000005    1    3    3    0    0 -0.43193357653E+02 -0.13108201480E+02 -0.75563524862E+02  0.88024640760E+02  0.10000000000E+01 0.  0.
<mgrwt>
<rscale>  0 0.12500609E+03</rscale>
<asrwt>0</asrwt>
<pdfrwt beam="1">  1        4 0.10098739E-01 0.12500609E+03</pdfrwt>
<pdfrwt beam="2">  1       -4 0.24177715E-01 0.12500609E+03</pdfrwt>
<totfact> 0.19186670E+03</totfact>
</mgrwt>
</event>
<event>
 5    1  0.1435323E-002  0.1249983E+03  0.7818608E-02  0.1235072E+00
         -4   -1    0    0    0  501 -0.00000000000E+00  0.00000000000E+00  0.67741292195E+02  0.67753196001E+02  0.12700000000E+01 0.  1.
          4   -1    0    0  501    0  0.00000000000E+00 -0.00000000000E+00 -0.57638741436E+02  0.57652731196E+02  0.12700000000E+01 0.  1.
         25    2    1    2    0    0  0.00000000000E+00  0.00000000000E+00  0.10102550759E+02  0.12540592720E+03  0.12499834017E+03 0.  0.
    9000005    1    3    3    0    0 -0.18664259706E+02  0.48965340859E+02 -0.29106578832E+02  0.59951247920E+02  0.10000000000E+01 0.  0.
    9000005    1    3    3    0    0  0.18664259706E+02 -0.48965340859E+02  0.39209129591E+02  0.65454679276E+02  0.10000000000E+01 0.  0.
<mgrwt>
<rscale>  0 0.12499834E+03</rscale>
<asrwt>0</asrwt>
<pdfrwt beam="2">  1        4 0.14412922E-01 0.12499834E+03</pdfrwt>
<pdfrwt beam="1">  1       -4 0.16938560E-01 0.12499834E+03</pdfrwt>
<totfact> 0.19813826E+03</totfact>
</mgrwt>
</event>
<event>
 5    1  0.1435323E-002  0.1249915E+03  0.7818608E-02  0.1235083E+00
         -4   -1    0    0    0  501 -0.00000000000E+00  0.00000000000E+00  0.80837165255E+02  0.80847140868E+02  0.12700000000E+01 0.  1.
          4   -1    0    0  501    0  0.00000000000E+00 -0.00000000000E+00 -0.48294553301E+02  0.48311248985E+02  0.12700000000E+01 0.  1.
         25    2    1    2    0    0  0.00000000000E+00  0.00000000000E+00  0.32542611954E+02  0.12915838985E+03  0.12499147202E+03 0.  0.
    9000005    1    3    3    0    0 -0.31971625781E+02 -0.33740291217E+02  0.59426297166E+02  0.75452481081E+02  0.10000000000E+01 0.  0.
    9000005    1    3    3    0    0  0.31971625781E+02  0.33740291217E+02 -0.26883685211E+02  0.53705908772E+02  0.10000000000E+01 0.  0.
<mgrwt>
<rscale>  0 0.12499147E+03</rscale>
<asrwt>0</asrwt>
<pdfrwt beam="2">  1        4 0.12076972E-01 0.12499147E+03</pdfrwt>
<pdfrwt beam="1">  1       -4 0.20212625E-01 0.12499147E+03</pdfrwt>
<totfact> 0.19613639E+03</totfact>
</mgrwt>
</event>
<event>
 5    1  0.1435323E-002  0.1250040E+03  0.7818608E-02  0.1235063E+00
          4   -1    0    0  501    0  0.00000000000E+00  0.00000000000E+00  0.42560560858E+02  0.42579504935E+02  0.12700000000E+01 0. -1.
         -4   -1    0    0    0  501 -0.00000000000E+00 -0.00000000000E+00 -0.91743059633E+02  0.91751849522E+02  0.12700000000E+01 0. -1.
         25    2    1    2    0    0  0.00000000000E+00  0.00000000000E+00 -0.49182498775E+02  0.13433135446E+03  0.12500397836E+03 0.  0.
    9000005    1    3    3    0    0 -0.48088723645E+02 -0.16693681215E+02  0.14367039502E+02  0.52901948531E+02  0.10000000000E+01 0.  0.
    9000005    1    3    3    0    0  0.48088723645E+02  0.16693681215E+02 -0.63549538277E+02  0.81429405927E+02  0.10000000000E+01 0.  0.
<mgrwt>
<rscale>  0 0.12500398E+03</rscale>
<asrwt>0</asrwt>
<pdfrwt beam="1">  1        4 0.10643607E-01 0.12500398E+03</pdfrwt>
<pdfrwt beam="2">  1       -4 0.22939231E-01 0.12500398E+03</pdfrwt>
<totfact> 0.19332422E+03</totfact>
</mgrwt>
</event>
<event>
 5    1  0.1435323E-002  0.1250029E+03  0.7818608E-02  0.1235065E+00
          4   -1    0    0  501    0  0.00000000000E+00  0.00000000000E+00  0.27757853425E+03  0.27758143954E+03  0.12700000000E+01 0. -1.
         -4   -1    0    0    0  501 -0.00000000000E+00 -0.00000000000E+00 -0.14041617736E+02  0.14098933600E+02  0.12700000000E+01 0. -1.
         25    2    1    2    0    0  0.00000000000E+00  0.00000000000E+00  0.26353691651E+03  0.29168037314E+03  0.12500293480E+03 0.  0.
    9000005    1    3    3    0    0 -0.29278671349E+01 -0.60682540493E+02  0.16594206569E+03  0.17671647431E+03  0.10000000000E+01 0.  0.
    9000005    1    3    3    0    0  0.29278671349E+01  0.60682540493E+02  0.97594850820E+02  0.11496389883E+03  0.10000000000E+01 0.  0.
<mgrwt>
<rscale>  0 0.12500293E+03</rscale>
<asrwt>0</asrwt>
<pdfrwt beam="1">  1        4 0.69402162E-01 0.12500293E+03</pdfrwt>
<pdfrwt beam="2">  1       -4 0.35179320E-02 0.12500293E+03</pdfrwt>
<totfact> 0.13206586E+03</totfact>
</mgrwt>
</event>
<event>
 5    1  0.1435323E-002  0.1250022E+03  0.7818608E-02  0.1235066E+00
          4   -1    0    0  501    0  0.00000000000E+00  0.00000000000E+00  0.31509571041E+02  0.31535154466E+02  0.12700000000E+01 0. -1.
         -4   -1    0    0    0  501 -0.00000000000E+00 -0.00000000000E+00 -0.12389545798E+03  0.12390196693E+03  0.12700000000E+01 0. -1.
         25    2    1    2    0    0  0.00000000000E+00  0.00000000000E+00 -0.92385886941E+02  0.15543712139E+03  0.12500218639E+03 0.  0.
    9000005    1    3    3    0    0  0.38511861244E+02 -0.18112608429E+02 -0.10309680174E+03  0.11154004021E+03  0.10000000000E+01 0.  0.
    9000005    1    3    3    0    0 -0.38511861244E+02  0.18112608429E+02  0.10710914801E+02  0.43897081184E+02  0.10000000000E+01 0.  0.
<mgrwt>
<rscale>  0 0.12500219E+03</rscale>
<asrwt>0</asrwt>
<pdfrwt beam="1">  1        4 0.78814046E-02 0.12500219E+03</pdfrwt>
<pdfrwt beam="2">  1       -4 0.30977875E-01 0.12500219E+03</pdfrwt>
<totfact> 0.18273699E+03</totfact>
</mgrwt>
</event>
<event>
 5    1  0.1435323E-002  0.1249985E+03  0.7818608E-02  0.1235072E+00
         -4   -1    0    0    0  501 -0.00000000000E+00  0.00000000000E+00  0.52772580959E+02  0.52787860357E+02  0.12700000000E+01 0.  1.
          4   -1    0    0  501    0  0.00000000000E+00 -0.00000000000E+00 -0.73987267045E+02  0.73998166090E+02  0.12700000000E+01 0.  1.
         25    2    1    2    0    0  0.00000000000E+00  0.00000000000E+00 -0.21214686085E+02  0.12678602645E+03  0.12499853438E+03 0.  0.
    9000005    1    3    3    0    0  0.10671826823E+02 -0.59051315353E+02 -0.28298454415E+02  0.66353208324E+02  0.10000000000E+01 0.  0.
    9000005    1    3    3    0    0 -0.10671826823E+02  0.59051315353E+02  0.70837683295E+01  0.60432818124E+02  0.10000000000E+01 0.  0.
<mgrwt>
<rscale>  0 0.12499853E+03</rscale>
<asrwt>0</asrwt>
<pdfrwt beam="2">  1        4 0.18500089E-01 0.12499853E+03</pdfrwt>
<pdfrwt beam="1">  1       -4 0.13196418E-01 0.12499853E+03</pdfrwt>
<totfact> 0.19739180E+03</totfact>
</mgrwt>
</event>
<event>
 5    1  0.1435323E-002  0.1249978E+03  0.7818608E-02  0.1235073E+00
         -4   -1    0    0    0  501 -0.00000000000E+00  0.00000000000E+00  0.99493950273E+02  0.99502055460E+02  0.12700000000E+01 0. -1.
          4   -1    0    0  501    0  0.00000000000E+00 -0.00000000000E+00 -0.39239791142E+02  0.39260337605E+02  0.12700000000E+01 0. -1.
         25    2    1    2    0    0  0.00000000000E+00  0.00000000000E+00  0.60254159130E+02  0.13876239307E+03  0.12499775213E+03 0.  0.
    9000005    1    3    3    0    0  0.55736650999E+02  0.11097499676E+02  0.58976953220E+02  0.81908545188E+02  0.10000000000E+01 0.  0.
    9000005    1    3    3    0    0 -0.55736650999E+02 -0.11097499676E+02  0.12772059102E+01  0.56853847878E+02  0.10000000000E+01 0.  0.
<mgrwt>
<rscale>  0 0.12499775E+03</rscale>
<asrwt>0</asrwt>
<pdfrwt beam="2">  1        4 0.98135293E-02 0.12499775E+03</pdfrwt>
<pdfrwt beam="1">  1       -4 0.24877069E-01 0.12499775E+03</pdfrwt>
<totfact> 0.19104838E+03</totfact>
</mgrwt>
</event>
<event>
 5    1  0.1435323E-002  0.1249906E+03  0.7818608E-02  0.1235084E+00
          4   -1    0    0  501    0  0.00000000000E+00  0.00000000000E+00  0.38002763170E+01  0.40068691126E+01  0.12700000000E+01 0. -1.
         -4   -1    0    0    0  501 -0.00000000000E+00 -0.00000000000E+00 -0.10003289196E+04  0.10003297257E+04  0.12700000000E+01 0. -1.
         25    2    1    2    0    0  0.00000000000E+00  0.00000000000E+00 -0.99652864325E+03  0.10043365949E+04  0.12499063551E+03 0.  0.
    9000005    1    3    3    0    0 -0.89988286771E+01 -0.29715682276E+02 -0.62527243105E+02  0.69818742620E+02  0.10000000000E+01 0.  0.
    9000005    1    3    3    0    0  0.89988286771E+01  0.29715682276E+02 -0.93400140014E+03  0.93451785224E+03  0.10000000000E+01 0.  0.
<mgrwt>
<rscale>  0 0.12499064E+03</rscale>
<asrwt>0</asrwt>
<pdfrwt beam="1">  1        4 0.97599737E-03 0.12499064E+03</pdfrwt>
<pdfrwt beam="2">  1       -4 0.25010728E+00 0.12499064E+03</pdfrwt>
<totfact> 0.36826317E+02</totfact>
</mgrwt>
</event>
<event>
 5    1  0.1435323E-002  0.1249820E+03  0.7818608E-02  0.1235097E+00
          4   -1    0    0  501    0  0.00000000000E+00  0.00000000000E+00  0.12817745518E+02  0.12880508537E+02  0.12700000000E+01 0. -1.
         -4   -1    0    0    0  501 -0.00000000000E+00 -0.00000000000E+00 -0.30385714949E+03  0.30385980352E+03  0.12700000000E+01 0. -1.
         25    2    1    2    0    0  0.00000000000E+00  0.00000000000E+00 -0.29103940398E+03  0.31674031206E+03  0.12498196117E+03 0.  0.
    9000005    1    3    3    0    0 -0.17924353901E+02 -0.22663121532E+02 -0.51186909510E+01  0.29361548621E+02  0.10000000000E+01 0.  0.
    9000005    1    3    3    0    0  0.17924353901E+02  0.22663121532E+02 -0.28592071302E+03  0.28737876344E+03  0.10000000000E+01 0.  0.
<mgrwt>
<rscale>  0 0.12498196E+03</rscale>
<asrwt>0</asrwt>
<pdfrwt beam="1">  1        4 0.32126145E-02 0.12498196E+03</pdfrwt>
<pdfrwt beam="2">  1       -4 0.75972441E-01 0.12498196E+03</pdfrwt>
<totfact> 0.12519686E+03</totfact>
</mgrwt>
</event>
<event>
 5    1  0.1435323E-002  0.1250006E+03  0.7818608E-02  0.1235068E+00
         -4   -1    0    0    0  501 -0.00000000000E+00  0.00000000000E+00  0.94464584865E+02  0.94473121541E+02  0.12700000000E+01 0. -1.
          4   -1    0    0  501    0  0.00000000000E+00 -0.00000000000E+00 -0.41331729416E+02  0.41351236457E+02  0.12700000000E+01 0. -1.
         25    2    1    2    0    0  0.00000000000E+00  0.00000000000E+00  0.53132855449E+02  0.13582435800E+03  0.12500062359E+03 0.  0.
    9000005    1    3    3    0    0 -0.52579301442E+02  0.49207539648E+01 -0.97408202062E+01  0.53709220233E+02  0.10000000000E+01 0.  0.
    9000005    1    3    3    0    0  0.52579301442E+02 -0.49207539648E+01  0.62873675656E+02  0.82115137765E+02  0.10000000000E+01 0.  0.
<mgrwt>
<rscale>  0 0.12500062E+03</rscale>
<asrwt>0</asrwt>
<pdfrwt beam="2">  1        4 0.10336438E-01 0.12500062E+03</pdfrwt>
<pdfrwt beam="1">  1       -4 0.23619651E-01 0.12500062E+03</pdfrwt>
<totfact> 0.19255765E+03</totfact>
</mgrwt>
</event>
<event>
 5    1  0.1435323E-002  0.1249995E+03  0.7818608E-02  0.1235070E+00
          4   -1    0    0  501    0  0.00000000000E+00  0.00000000000E+00  0.69431257921E+03  0.69431374072E+03  0.12700000000E+01 0. -1.
         -4   -1    0    0    0  501 -0.00000000000E+00 -0.00000000000E+00 -0.55531662858E+01  0.56965389315E+01  0.12700000000E+01 0. -1.
         25    2    1    2    0    0  0.00000000000E+00  0.00000000000E+00  0.68875941293E+03  0.70001027965E+03  0.12499945089E+03 0.  0.
    9000005    1    3    3    0    0 -0.42991651409E+01  0.56156162293E+02  0.49601942138E+03  0.49920763593E+03  0.10000000000E+01 0.  0.
    9000005    1    3    3    0    0  0.42991651409E+01 -0.56156162293E+02  0.19273999155E+03  0.20080264373E+03  0.10000000000E+01 0.  0.
<mgrwt>
<rscale>  0 0.12499945E+03</rscale>
<asrwt>0</asrwt>
<pdfrwt beam="1">  1        4 0.17359619E+00 0.12499945E+03</pdfrwt>
<pdfrwt beam="2">  1       -4 0.14063585E-02 0.12499945E+03</pdfrwt>
<totfact> 0.62065555E+02</totfact>
</mgrwt>
</event>
<event>
 4    1  0.1435323E-002  0.1248143E+03  0.7818608E-02  0.1235360E+00
         -4   -1    0    0    0  501 -0.00000000000E+00  0.00000000000E+00  0.70190976776E+02  0.70202465204E+02  0.12700000000E+01 0. -1.
          4   -1    0    0  501    0  0.00000000000E+00 -0.00000000000E+00 -0.55463199806E+02  0.55477738173E+02  0.12700000000E+01 0. -1.
    9000005    1    1    2    0    0 -0.16296146117E+02 -0.60230920795E+02  0.67913237562E+01  0.62773005953E+02  0.10000000000E+01 0.  0.
    9000005    1    1    2    0    0  0.16296146117E+02  0.60230920795E+02  0.79364532131E+01  0.62907197423E+02  0.10000000000E+01 0.  0.
<mgrwt>
<rscale>  0 0.12481429E+03</rscale>
<asrwt>0</asrwt>
<pdfrwt beam="2">  1        4 0.13869053E-01 0.12481429E+03</pdfrwt>
<pdfrwt beam="1">  1       -4 0.17550997E-01 0.12481429E+03</pdfrwt>
<totfact> 0.19884469E+03</totfact>
</mgrwt>
</event>
<event>
 5    1  0.1435323E-002  0.1250030E+03  0.7818608E-02  0.1235065E+00
          4   -1    0    0  501    0  0.00000000000E+00  0.00000000000E+00  0.21755591443E+03  0.21755962126E+03  0.12700000000E+01 0.  1.
         -4   -1    0    0    0  501 -0.00000000000E+00 -0.00000000000E+00 -0.17929695707E+02  0.17974617886E+02  0.12700000000E+01 0.  1.
         25    2    1    2    0    0  0.00000000000E+00  0.00000000000E+00  0.19962621873E+03  0.23553423915E+03  0.12500300240E+03 0.  0.
    9000005    1    3    3    0    0  0.74810147235E+01 -0.54458594277E+02  0.43799406511E+02  0.70292902079E+02  0.10000000000E+01 0.  0.
    9000005    1    3    3    0    0 -0.74810147235E+01  0.54458594277E+02  0.15582681222E+03  0.16524133707E+03  0.10000000000E+01 0.  0.
<mgrwt>
<rscale>  0 0.12500300E+03</rscale>
<asrwt>0</asrwt>
<pdfrwt beam="1">  1        4 0.54395057E-01 0.12500300E+03</pdfrwt>
<pdfrwt beam="2">  1       -4 0.44885026E-02 0.12500300E+03</pdfrwt>
<totfact> 0.14990520E+03</totfact>
</mgrwt>
</event>
<event>
 5    1  0.1435323E-002  0.1249982E+03  0.7818608E-02  0.1235072E+00
          4   -1    0    0  501    0  0.00000000000E+00  0.00000000000E+00  0.61546935387E+01  0.62843577679E+01  0.12700000000E+01 0.  1.
         -4   -1    0    0    0  501 -0.00000000000E+00 -0.00000000000E+00 -0.62791442964E+03  0.62791571397E+03  0.12700000000E+01 0.  1.
         25    2    1    2    0    0  0.00000000000E+00  0.00000000000E+00 -0.62175973610E+03  0.63420007174E+03  0.12499824621E+03 0.  0.
    9000005    1    3    3    0    0 -0.11348236164E+02  0.44856294300E+02 -0.52399043704E+03  0.52603027262E+03  0.10000000000E+01 0.  0.
    9000005    1    3    3    0    0  0.11348236164E+02 -0.44856294300E+02 -0.97769299060E+02  0.10816979912E+03  0.10000000000E+01 0.  0.
<mgrwt>
<rscale>  0 0.12499825E+03</rscale>
<asrwt>0</asrwt>
<pdfrwt beam="1">  1        4 0.15550441E-02 0.12499825E+03</pdfrwt>
<pdfrwt beam="2">  1       -4 0.15699476E+00 0.12499825E+03</pdfrwt>
<totfact> 0.69351111E+02</totfact>
</mgrwt>
</event>
<event>
 5    1  0.1435323E-002  0.1250016E+03  0.7818608E-02  0.1235067E+00
         -4   -1    0    0    0  501 -0.00000000000E+00  0.00000000000E+00  0.11400916125E+03  0.11401623459E+03  0.12700000000E+01 0. -1.
          4   -1    0    0  501    0  0.00000000000E+00 -0.00000000000E+00 -0.34243587877E+02  0.34267130179E+02  0.12700000000E+01 0. -1.
         25    2    1    2    0    0  0.00000000000E+00  0.00000000000E+00  0.79765573377E+02  0.14828336477E+03  0.12500163827E+03 0.  0.
    9000005    1    3    3    0    0 -0.58149851844E+01  0.61883463993E+02  0.47568306384E+02  0.78275928232E+02  0.10000000000E+01 0.  0.
    9000005    1    3    3    0    0  0.58149851844E+01 -0.61883463993E+02  0.32197266993E+02  0.70007436535E+02  0.10000000000E+01 0.  0.
<mgrwt>
<rscale>  0 0.12500164E+03</rscale>
<asrwt>0</asrwt>
<pdfrwt beam="2">  1        4 0.85647240E-02 0.12500164E+03</pdfrwt>
<pdfrwt beam="1">  1       -4 0.28506117E-01 0.12500164E+03</pdfrwt>
<totfact> 0.18622801E+03</totfact>
</mgrwt>
</event>
<event>
 4    1  0.1435323E-002  0.1250720E+03  0.7818608E-02  0.1234957E+00
         -4   -1    0    0    0  501 -0.00000000000E+00  0.00000000000E+00  0.16004640630E+03  0.16005144507E+03  0.12700000000E+01 0. -1.
          4   -1    0    0  501    0  0.00000000000E+00 -0.00000000000E+00 -0.24413167712E+02  0.24446178796E+02  0.12700000000E+01 0. -1.
    9000005    1    1    2    0    0 -0.34668258092E+02 -0.23425981942E+02  0.13636001645E+03  0.14263841992E+03  0.10000000000E+01 0.  0.
    9000005    1    1    2    0    0  0.34668258092E+02  0.23425981942E+02 -0.72677786917E+00  0.41859203948E+02  0.10000000000E+01 0.  0.
<mgrwt>
<rscale>  0 0.12507197E+03</rscale>
<asrwt>0</asrwt>
<pdfrwt beam="2">  1        4 0.61080483E-02 0.12507197E+03</pdfrwt>
<pdfrwt beam="1">  1       -4 0.40016357E-01 0.12507197E+03</pdfrwt>
<totfact> 0.16933950E+03</totfact>
</mgrwt>
</event>
<event>
 5    1  0.1435323E-002  0.1249985E+03  0.7818608E-02  0.1235072E+00
         -4   -1    0    0    0  501 -0.00000000000E+00  0.00000000000E+00  0.44206397879E+03  0.44206580307E+03  0.12700000000E+01 0.  1.
          4   -1    0    0  501    0  0.00000000000E+00 -0.00000000000E+00 -0.87886900731E+01  0.88799759685E+01  0.12700000000E+01 0.  1.
         25    2    1    2    0    0  0.00000000000E+00  0.00000000000E+00  0.43327528872E+03  0.45094577904E+03  0.12499847927E+03 0.  0.
    9000005    1    3    3    0    0 -0.38391778876E+02 -0.22052305857E+02  0.57537453846E+02  0.72607103468E+02  0.10000000000E+01 0.  0.
    9000005    1    3    3    0    0  0.38391778876E+02  0.22052305857E+02  0.37573783487E+03  0.37833867557E+03  0.10000000000E+01 0.  0.
<mgrwt>
<rscale>  0 0.12499848E+03</rscale>
<asrwt>0</asrwt>
<pdfrwt beam="2">  1        4 0.22088114E-02 0.12499848E+03</pdfrwt>
<pdfrwt beam="1">  1       -4 0.11052763E+00 0.12499848E+03</pdfrwt>
<totfact> 0.95850711E+02</totfact>
</mgrwt>
</event>
<event>
 5    1  0.1435323E-002  0.1250027E+03  0.7818608E-02  0.1235065E+00
          4   -1    0    0  501    0  0.00000000000E+00  0.00000000000E+00  0.14467916256E+03  0.14468473651E+03  0.12700000000E+01 0.  1.
         -4   -1    0    0    0  501 -0.00000000000E+00 -0.00000000000E+00 -0.26979513024E+02  0.27009387683E+02  0.12700000000E+01 0.  1.
         25    2    1    2    0    0  0.00000000000E+00  0.00000000000E+00  0.11769964954E+03  0.17169412420E+03  0.12500265910E+03 0.  0.
    9000005    1    3    3    0    0  0.17167202496E+02 -0.42416729945E+02  0.11730975224E+03  0.12592247532E+03  0.10000000000E+01 0.  0.
    9000005    1    3    3    0    0 -0.17167202496E+02  0.42416729945E+02  0.38989729889E+00  0.45771648874E+02  0.10000000000E+01 0.  0.
<mgrwt>
<rscale>  0 0.12500266E+03</rscale>
<asrwt>0</asrwt>
<pdfrwt beam="1">  1        4 0.36174221E-01 0.12500266E+03</pdfrwt>
<pdfrwt beam="2">  1       -4 0.67493095E-02 0.12500266E+03</pdfrwt>
<totfact> 0.17519823E+03</totfact>
</mgrwt>
</event>
<event>
 5    1  0.1435323E-002  0.1249994E+03  0.7818608E-02  0.1235070E+00
         -4   -1    0    0    0  501 -0.00000000000E+00  0.00000000000E+00  0.11177046851E+03  0.11177768351E+03  0.12700000000E+01 0. -1.
          4   -1    0    0  501    0  0.00000000000E+00 -0.00000000000E+00 -0.34928649096E+02  0.34951729966E+02  0.12700000000E+01 0. -1.
         25    2    1    2    0    0  0.00000000000E+00  0.00000000000E+00  0.76841819410E+02  0.14672941347E+03  0.12499942227E+03 0.  0.
    9000005    1    3    3    0    0 -0.72768043269E+01 -0.56165089078E+02  0.69427747237E+02  0.89602908428E+02  0.10000000000E+01 0.  0.
    9000005    1    3    3    0    0  0.72768043269E+01  0.56165089078E+02  0.74140721727E+01  0.57126505044E+02  0.10000000000E+01 0.  0.
<mgrwt>
<rscale>  0 0.12499942E+03</rscale>
<asrwt>0</asrwt>
<pdfrwt beam="2">  1        4 0.87359493E-02 0.12499942E+03</pdfrwt>
<pdfrwt beam="1">  1       -4 0.27946404E-01 0.12499942E+03</pdfrwt>
<totfact> 0.18701025E+03</totfact>
</mgrwt>
</event>
<event>
 5    1  0.1435323E-002  0.1249963E+03  0.7818608E-02  0.1235075E+00
          4   -1    0    0  501    0  0.00000000000E+00  0.00000000000E+00  0.23206764167E+03  0.23207111671E+03  0.12700000000E+01 0.  1.
         -4   -1    0    0    0  501 -0.00000000000E+00 -0.00000000000E+00 -0.16803808603E+02  0.16851732361E+02  0.12700000000E+01 0.  1.
         25    2    1    2    0    0  0.00000000000E+00  0.00000000000E+00  0.21526383307E+03  0.24892284907E+03  0.12499626779E+03 0.  0.
    9000005    1    3    3    0    0 -0.32480735340E+02  0.16836350217E+02  0.20852074519E+03  0.21170820020E+03  0.10000000000E+01 0.  0.
    9000005    1    3    3    0    0  0.32480735340E+02 -0.16836350217E+02  0.67430878848E+01  0.37214648878E+02  0.10000000000E+01 0.  0.
<mgrwt>
<rscale>  0 0.12499627E+03</rscale>
<asrwt>0</asrwt>
<pdfrwt beam="1">  1        4 0.58023335E-01 0.12499627E+03</pdfrwt>
<pdfrwt beam="2">  1       -4 0.42073770E-02 0.12499627E+03</pdfrwt>
<totfact> 0.14535136E+03</totfact>
</mgrwt>
</event>
<event>
 5    1  0.1435323E-002  0.1250033E+03  0.7818608E-02  0.1235064E+00
          4   -1    0    0  501    0  0.00000000000E+00  0.00000000000E+00  0.10323844935E+02  0.10401666898E+02  0.12700000000E+01 0. -1.
         -4   -1    0    0    0  501 -0.00000000000E+00 -0.00000000000E+00 -0.37689210355E+03  0.37689424328E+03  0.12700000000E+01 0. -1.
         25    2    1    2    0    0  0.00000000000E+00  0.00000000000E+00 -0.36656825861E+03  0.38729591018E+03  0.12500333522E+03 0.  0.
    9000005    1    3    3    0    0  0.48363732201E+02 -0.39572450855E+02 -0.18125482341E+03  0.19172725542E+03  0.10000000000E+01 0.  0.
    9000005    1    3    3    0    0 -0.48363732201E+02  0.39572450855E+02 -0.18531343520E+03  0.19556865476E+03  0.10000000000E+01 0.  0.
<mgrwt>
<rscale>  0 0.12500334E+03</rscale>
<asrwt>0</asrwt>
<pdfrwt beam="1">  1        4 0.25909577E-02 0.12500334E+03</pdfrwt>
<pdfrwt beam="2">  1       -4 0.94232975E-01 0.12500334E+03</pdfrwt>
<totfact> 0.10834828E+03</totfact>
</mgrwt>
</event>
<event>
 5    1  0.1435323E-002  0.1250020E+03  0.7818608E-02  0.1235066E+00
         -4   -1    0    0    0  501 -0.00000000000E+00  0.00000000000E+00  0.10435972851E+02  0.10512964822E+02  0.12700000000E+01 0.  1.
          4   -1    0    0  501    0  0.00000000000E+00 -0.00000000000E+00 -0.37286422075E+03  0.37286638360E+03  0.12700000000E+01 0.  1.
         25    2    1    2    0    0  0.00000000000E+00  0.00000000000E+00 -0.36242824790E+03  0.38337934842E+03  0.12500195966E+03 0.  0.
    9000005    1    3    3    0    0 -0.46522645282E+02 -0.39395787205E+02 -0.13905137679E+03  0.15183105730E+03  0.10000000000E+01 0.  0.
    9000005    1    3    3    0    0  0.46522645282E+02  0.39395787205E+02 -0.22337687111E+03  0.23154829112E+03  0.10000000000E+01 0.  0.
<mgrwt>
<rscale>  0 0.12500196E+03</rscale>
<asrwt>0</asrwt>
<pdfrwt beam="2">  1        4 0.93225905E-01 0.12500196E+03</pdfrwt>
<pdfrwt beam="1">  1       -4 0.26188888E-02 0.12500196E+03</pdfrwt>
<totfact> 0.10919277E+03</totfact>
</mgrwt>
</event>
<event>
 5    1  0.1435323E-002  0.1249989E+03  0.7818608E-02  0.1235071E+00
         -4   -1    0    0    0  501 -0.00000000000E+00  0.00000000000E+00  0.13037822601E+03  0.13038441133E+03  0.12700000000E+01 0. -1.
          4   -1    0    0  501    0  0.00000000000E+00 -0.00000000000E+00 -0.29940009839E+02  0.29966933263E+02  0.12700000000E+01 0. -1.
         25    2    1    2    0    0  0.00000000000E+00  0.00000000000E+00  0.10043821618E+03  0.16035134460E+03  0.12499887378E+03 0.  0.
    9000005    1    3    3    0    0 -0.54428469453E+02  0.21985786744E+02  0.77713031230E+02  0.97396859953E+02  0.10000000000E+01 0.  0.
    9000005    1    3    3    0    0  0.54428469453E+02 -0.21985786744E+02  0.22725184945E+02  0.62954484642E+02  0.10000000000E+01 0.  0.
<mgrwt>
<rscale>  0 0.12499887E+03</rscale>
<asrwt>0</asrwt>
<pdfrwt beam="2">  1        4 0.74891412E-02 0.12499887E+03</pdfrwt>
<pdfrwt beam="1">  1       -4 0.32598695E-01 0.12499887E+03</pdfrwt>
<totfact> 0.18041704E+03</totfact>
</mgrwt>
</event>
<event>
 5    1  0.1435323E-002  0.1249992E+03  0.7818608E-02  0.1235071E+00
          4   -1    0    0  501    0  0.00000000000E+00  0.00000000000E+00  0.84730925197E+02  0.84740442438E+02  0.12700000000E+01 0. -1.
         -4   -1    0    0    0  501 -0.00000000000E+00 -0.00000000000E+00 -0.46080340469E+02  0.46097838102E+02  0.12700000000E+01 0. -1.
         25    2    1    2    0    0  0.00000000000E+00  0.00000000000E+00  0.38650584728E+02  0.13083828054E+03  0.12499915182E+03 0.  0.
    9000005    1    3    3    0    0  0.12958324807E+02  0.61121367634E+02  0.18061746133E+02  0.65045879475E+02  0.10000000000E+01 0.  0.
    9000005    1    3    3    0    0 -0.12958324807E+02 -0.61121367634E+02  0.20588838594E+02  0.65792401066E+02  0.10000000000E+01 0.  0.
<mgrwt>
<rscale>  0 0.12499915E+03</rscale>
<asrwt>0</asrwt>
<pdfrwt beam="1">  1        4 0.21186108E-01 0.12499915E+03</pdfrwt>
<pdfrwt beam="2">  1       -4 0.11523462E-01 0.12499915E+03</pdfrwt>
<totfact> 0.19519810E+03</totfact>
</mgrwt>
</event>
<event>
 5    1  0.1435323E-002  0.1249972E+03  0.7818608E-02  0.1235074E+00
         -4   -1    0    0    0  501 -0.00000000000E+00  0.00000000000E+00  0.68154973280E+02  0.68166804845E+02  0.12700000000E+01 0.  1.
          4   -1    0    0  501    0  0.00000000000E+00 -0.00000000000E+00 -0.57287831827E+02  0.57301907258E+02  0.12700000000E+01 0.  1.
         25    2    1    2    0    0  0.00000000000E+00  0.00000000000E+00  0.10867141453E+02  0.12546871210E+03  0.12499721178E+03 0.  0.
    9000005    1    3    3    0    0  0.32494868063E+02 -0.28438844740E+02  0.50774650293E+02  0.66661454027E+02  0.10000000000E+01 0.  0.
    9000005    1    3    3    0    0 -0.32494868063E+02  0.28438844740E+02 -0.39907508840E+02  0.58807258076E+02  0.10000000000E+01 0.  0.
<mgrwt>
<rscale>  0 0.12499721E+03</rscale>
<asrwt>0</asrwt>
<pdfrwt beam="2">  1        4 0.14325196E-01 0.12499721E+03</pdfrwt>
<pdfrwt beam="1">  1       -4 0.17041982E-01 0.12499721E+03</pdfrwt>
<totfact> 0.19810950E+03</totfact>
</mgrwt>
</event>
<event>
 5    1  0.1435323E-002  0.1250008E+03  0.7818608E-02  0.1235068E+00
         -4   -1    0    0    0  501 -0.00000000000E+00  0.00000000000E+00  0.14086024766E+02  0.14143160669E+02  0.12700000000E+01 0.  1.
          4   -1    0    0  501    0  0.00000000000E+00 -0.00000000000E+00 -0.27669767257E+03  0.27670058711E+03  0.12700000000E+01 0.  1.
         25    2    1    2    0    0  0.00000000000E+00  0.00000000000E+00 -0.26261164781E+03  0.29084374778E+03  0.12500083223E+03 0.  0.
    9000005    1    3    3    0    0  0.55822169840E+02  0.21582543707E+02 -0.17314703011E+03  0.18320156898E+03  0.10000000000E+01 0.  0.
    9000005    1    3    3    0    0 -0.55822169840E+02 -0.21582543707E+02 -0.89464617696E+02  0.10764217881E+03  0.10000000000E+01 0.  0.
<mgrwt>
<rscale>  0 0.12500083E+03</rscale>
<asrwt>0</asrwt>
<pdfrwt beam="2">  1        4 0.69181907E-01 0.12500083E+03</pdfrwt>
<pdfrwt beam="1">  1       -4 0.35290134E-02 0.12500083E+03</pdfrwt>
<totfact> 0.13231363E+03</totfact>
</mgrwt>
</event>
<event>
 5    1  0.1435323E-002  0.1249994E+03  0.7818608E-02  0.1235070E+00
          4   -1    0    0  501    0  0.00000000000E+00  0.00000000000E+00  0.60444046727E+02  0.60457387347E+02  0.12700000000E+01 0.  1.
         -4   -1    0    0    0  501 -0.00000000000E+00 -0.00000000000E+00 -0.64598577909E+02  0.64611060724E+02  0.12700000000E+01 0.  1.
         25    2    1    2    0    0  0.00000000000E+00  0.00000000000E+00 -0.41545311814E+01  0.12506844807E+03  0.12499942629E+03 0.  0.
    9000005    1    3    3    0    0 -0.27457337116E+02 -0.56107929816E+02 -0.28491004714E+00  0.62474685462E+02  0.10000000000E+01 0.  0.
    9000005    1    3    3    0    0  0.27457337116E+02  0.56107929816E+02 -0.38696211343E+01  0.62593762609E+02  0.10000000000E+01 0.  0.
<mgrwt>
<rscale>  0 0.12499943E+03</rscale>
<asrwt>0</asrwt>
<pdfrwt beam="1">  1        4 0.15114240E-01 0.12499943E+03</pdfrwt>
<pdfrwt beam="2">  1       -4 0.16152872E-01 0.12499943E+03</pdfrwt>
<totfact> 0.19831610E+03</totfact>
</mgrwt>
</event>
<event>
 5    1  0.1435323E-002  0.1250009E+03  0.7818608E-02  0.1235068E+00
         -4   -1    0    0    0  501 -0.00000000000E+00  0.00000000000E+00  0.84932189368E+02  0.84941684060E+02  0.12700000000E+01 0.  1.
          4   -1    0    0  501    0  0.00000000000E+00 -0.00000000000E+00 -0.45972431347E+02  0.45989970036E+02  0.12700000000E+01 0.  1.
         25    2    1    2    0    0  0.00000000000E+00  0.00000000000E+00  0.38959758021E+02  0.13093165410E+03  0.12500094119E+03 0.  0.
    9000005    1    3    3    0    0  0.35625204594E+02 -0.13958021035E+02  0.71233932780E+02  0.80865658551E+02  0.10000000000E+01 0.  0.
    9000005    1    3    3    0    0 -0.35625204594E+02  0.13958021035E+02 -0.32274174759E+02  0.50065995545E+02  0.10000000000E+01 0.  0.
<mgrwt>
<rscale>  0 0.12500094E+03</rscale>
<asrwt>0</asrwt>
<pdfrwt beam="2">  1        4 0.11496487E-01 0.12500094E+03</pdfrwt>
<pdfrwt beam="1">  1       -4 0.21236426E-01 0.12500094E+03</pdfrwt>
<totfact> 0.19513999E+03</totfact>
</mgrwt>
</event>
<event>
 5    1  0.1435323E-002  0.1250176E+03  0.7818608E-02  0.1235042E+00
          4   -1    0    0  501    0  0.00000000000E+00  0.00000000000E+00  0.12926658585E+03  0.12927282436E+03  0.12700000000E+01 0. -1.
         -4   -1    0    0    0  501 -0.00000000000E+00 -0.00000000000E+00 -0.30206753049E+02  0.30233438934E+02  0.12700000000E+01 0. -1.
         25    2    1    2    0    0  0.00000000000E+00  0.00000000000E+00  0.99059832802E+02  0.15950626329E+03  0.12501758898E+03 0.  0.
    9000005    1    3    3    0    0 -0.17484554277E+02  0.11270948423E+02 -0.25666452035E+02  0.33053149271E+02  0.10000000000E+01 0.  0.
    9000005    1    3    3    0    0  0.17484554277E+02 -0.11270948423E+02  0.12472628484E+03  0.12645311402E+03  0.10000000000E+01 0.  0.
<mgrwt>
<rscale>  0 0.12501759E+03</rscale>
<asrwt>0</asrwt>
<pdfrwt beam="1">  1        4 0.32320761E-01 0.12501759E+03</pdfrwt>
<pdfrwt beam="2">  1       -4 0.75558040E-02 0.12501759E+03</pdfrwt>
<totfact> 0.18073625E+03</totfact>
</mgrwt>
</event>
<event>
 5    1  0.1435323E-002  0.1249919E+03  0.7818608E-02  0.1235082E+00
         -4   -1    0    0    0  501 -0.00000000000E+00  0.00000000000E+00  0.35591418466E+03  0.35591645050E+03  0.12700000000E+01 0.  1.
          4   -1    0    0  501    0  0.00000000000E+00 -0.00000000000E+00 -0.10934788927E+02  0.11008292732E+02  0.12700000000E+01 0.  1.
         25    2    1    2    0    0  0.00000000000E+00  0.00000000000E+00  0.34497939573E+03  0.36692474324E+03  0.12499193463E+03 0.  0.
    9000005    1    3    3    0    0  0.34558144241E+02 -0.66586450594E+01  0.20911502561E+02  0.40949894099E+02  0.10000000000E+01 0.  0.
    9000005    1    3    3    0    0 -0.34558144241E+02  0.66586450594E+01  0.32406789317E+03  0.32597484914E+03  0.10000000000E+01 0.  0.
<mgrwt>
<rscale>  0 0.12499193E+03</rscale>
<asrwt>0</asrwt>
<pdfrwt beam="2">  1        4 0.27431683E-02 0.12499193E+03</pdfrwt>
<pdfrwt beam="1">  1       -4 0.88988021E-01 0.12499193E+03</pdfrwt>
<totfact> 0.11285891E+03</totfact>
</mgrwt>
</event>
<event>
 5    1  0.1435323E-002  0.1250001E+03  0.7818608E-02  0.1235069E+00
         -4   -1    0    0    0  501 -0.00000000000E+00  0.00000000000E+00  0.39529483415E+02  0.39549879381E+02  0.12700000000E+01 0.  1.
          4   -1    0    0  501    0  0.00000000000E+00 -0.00000000000E+00 -0.98768881585E+02  0.98777046269E+02  0.12700000000E+01 0.  1.
         25    2    1    2    0    0  0.00000000000E+00  0.00000000000E+00 -0.59239398170E+02  0.13832692565E+03  0.12500012826E+03 0.  0.
    9000005    1    3    3    0    0  0.27810435680E+02 -0.33342877130E+02  0.20117537266E+02  0.47863170534E+02  0.10000000000E+01 0.  0.
    9000005    1    3    3    0    0 -0.27810435680E+02  0.33342877130E+02 -0.79356935435E+02  0.90463755116E+02  0.10000000000E+01 0.  0.
<mgrwt>
<rscale>  0 0.12500013E+03</rscale>
<asrwt>0</asrwt>
<pdfrwt beam="2">  1        4 0.24695790E-01 0.12500013E+03</pdfrwt>
<pdfrwt beam="1">  1       -4 0.98859411E-02 0.12500013E+03</pdfrwt>
<totfact> 0.19126206E+03</totfact>
</mgrwt>
</event>
<event>
 5    1  0.1435323E-002  0.1250006E+03  0.7818608E-02  0.1235068E+00
          4   -1    0    0  501    0  0.00000000000E+00  0.00000000000E+00  0.13430078664E+02  0.13489993066E+02  0.12700000000E+01 0.  1.
         -4   -1    0    0    0  501 -0.00000000000E+00 -0.00000000000E+00 -0.29015237261E+03  0.29015515200E+03  0.12700000000E+01 0.  1.
         25    2    1    2    0    0  0.00000000000E+00  0.00000000000E+00 -0.27672229395E+03  0.30364514507E+03  0.12500058462E+03 0.  0.
    9000005    1    3    3    0    0  0.24569331864E+02 -0.28220295761E+02 -0.16776208619E+02  0.41018024535E+02  0.10000000000E+01 0.  0.
    9000005    1    3    3    0    0 -0.24569331864E+02  0.28220295761E+02 -0.25994608533E+03  0.26262712053E+03  0.10000000000E+01 0.  0.
<mgrwt>
<rscale>  0 0.12500058E+03</rscale>
<asrwt>0</asrwt>
<pdfrwt beam="1">  1        4 0.33653573E-02 0.12500058E+03</pdfrwt>
<pdfrwt beam="2">  1       -4 0.72545909E-01 0.12500058E+03</pdfrwt>
<totfact> 0.12869335E+03</totfact>
</mgrwt>
</event>
<event>
 5    1  0.1435323E-002  0.1249967E+03  0.7818608E-02  0.1235074E+00
          4   -1    0    0  501    0  0.00000000000E+00  0.00000000000E+00  0.90406993852E+02  0.90415913629E+02  0.12700000000E+01 0. -1.
         -4   -1    0    0    0  501 -0.00000000000E+00 -0.00000000000E+00 -0.43184706967E+02  0.43203377366E+02  0.12700000000E+01 0. -1.
         25    2    1    2    0    0  0.00000000000E+00  0.00000000000E+00  0.47222286886E+02  0.13361929099E+03  0.12499668215E+03 0.  0.
    9000005    1    3    3    0    0 -0.32362808144E+02  0.21759607294E+02 -0.28585551041E+02  0.48362853399E+02  0.10000000000E+01 0.  0.
    9000005    1    3    3    0    0  0.32362808144E+02 -0.21759607294E+02  0.75807837926E+02  0.85256437596E+02  0.10000000000E+01 0.  0.
<mgrwt>
<rscale>  0 0.12499668E+03</rscale>
<asrwt>0</asrwt>
<pdfrwt beam="1">  1        4 0.22605197E-01 0.12499668E+03</pdfrwt>
<pdfrwt beam="2">  1       -4 0.10799626E-01 0.12499668E+03</pdfrwt>
<totfact> 0.19373203E+03</totfact>
</mgrwt>
</event>
<event>
 5    1  0.1435323E-002  0.1250027E+03  0.7818608E-02  0.1235065E+00
          4   -1    0    0  501    0  0.00000000000E+00  0.00000000000E+00  0.34841457868E+02  0.34864596461E+02  0.12700000000E+01 0.  1.
         -4   -1    0    0    0  501 -0.00000000000E+00 -0.00000000000E+00 -0.11205587305E+03  0.11206306967E+03  0.12700000000E+01 0.  1.
         25    2    1    2    0    0  0.00000000000E+00  0.00000000000E+00 -0.77214415178E+02  0.14692766613E+03  0.12500269263E+03 0.  0.
    9000005    1    3    3    0    0 -0.28434171536E+02 -0.29839893092E+02 -0.93819512638E+02  0.10247937491E+03  0.10000000000E+01 0.  0.
    9000005    1    3    3    0    0  0.28434171536E+02  0.29839893092E+02  0.16605097460E+02  0.44448291220E+02  0.10000000000E+01 0.  0.
<mgrwt>
<rscale>  0 0.12500269E+03</rscale>
<asrwt>0</asrwt>
<pdfrwt beam="1">  1        4 0.87141566E-02 0.12500269E+03</pdfrwt>
<pdfrwt beam="2">  1       -4 0.28017759E-01 0.12500269E+03</pdfrwt>
<totfact> 0.18689715E+03</totfact>
</mgrwt>
</event>
<event>
 5    1  0.1435323E-002  0.1249922E+03  0.7818608E-02  0.1235081E+00
          4   -1    0    0  501    0  0.00000000000E+00  0.00000000000E+00  0.13749132547E+03  0.13749719080E+03  0.12700000000E+01 0.  1.
         -4   -1    0    0    0  501 -0.00000000000E+00 -0.00000000000E+00 -0.28386682597E+02  0.28415077844E+02  0.12700000000E+01 0.  1.
         25    2    1    2    0    0  0.00000000000E+00  0.00000000000E+00  0.10910464287E+03  0.16591226865E+03  0.12499223093E+03 0.  0.
    9000005    1    3    3    0    0  0.56085356238E+02  0.27542243090E+02  0.53505364586E+02  0.82267650861E+02  0.10000000000E+01 0.  0.
    9000005    1    3    3    0    0 -0.56085356238E+02 -0.27542243090E+02  0.55599278285E+02  0.83644617786E+02  0.10000000000E+01 0.  0.
<mgrwt>
<rscale>  0 0.12499223E+03</rscale>
<asrwt>0</asrwt>
<pdfrwt beam="1">  1        4 0.34377113E-01 0.12499223E+03</pdfrwt>
<pdfrwt beam="2">  1       -4 0.71009533E-02 0.12499223E+03</pdfrwt>
<totfact> 0.17786222E+03</totfact>
</mgrwt>
</event>
<event>
 5    1  0.1435323E-002  0.1249996E+03  0.7818608E-02  0.1235070E+00
          4   -1    0    0  501    0  0.00000000000E+00  0.00000000000E+00  0.21187533027E+03  0.21187913648E+03  0.12700000000E+01 0.  1.
         -4   -1    0    0    0  501 -0.00000000000E+00 -0.00000000000E+00 -0.18410589601E+02  0.18454341209E+02  0.12700000000E+01 0.  1.
         25    2    1    2    0    0  0.00000000000E+00  0.00000000000E+00  0.19346474066E+03  0.23033347769E+03  0.12499962025E+03 0.  0.
    9000005    1    3    3    0    0 -0.62225484406E+02 -0.57332937256E+01  0.97814224231E+02  0.11607542388E+03  0.10000000000E+01 0.  0.
    9000005    1    3    3    0    0  0.62225484406E+02  0.57332937256E+01  0.95650516433E+02  0.11425805381E+03  0.10000000000E+01 0.  0.
<mgrwt>
<rscale>  0 0.12499962E+03</rscale>
<asrwt>0</asrwt>
<pdfrwt beam="1">  1        4 0.52974776E-01 0.12499962E+03</pdfrwt>
<pdfrwt beam="2">  1       -4 0.46085923E-02 0.12499962E+03</pdfrwt>
<totfact> 0.15175536E+03</totfact>
</mgrwt>
</event>
<event>
 5    1  0.1435323E-002  0.1249968E+03  0.7818608E-02  0.1235074E+00
         -4   -1    0    0    0  501 -0.00000000000E+00  0.00000000000E+00  0.50423747430E+02  0.50439738350E+02  0.12700000000E+01 0.  1.
          4   -1    0    0  501    0  0.00000000000E+00 -0.00000000000E+00 -0.77430991256E+02  0.77441405636E+02  0.12700000000E+01 0.  1.
         25    2    1    2    0    0  0.00000000000E+00  0.00000000000E+00 -0.27007243826E+02  0.12788114399E+03  0.12499678303E+03 0.  0.
    9000005    1    3    3    0    0 -0.29823885687E+02 -0.21061194899E+01  0.42636558383E+02  0.52084316329E+02  0.10000000000E+01 0.  0.
    9000005    1    3    3    0    0  0.29823885687E+02  0.21061194899E+01 -0.69643802209E+02  0.75796827657E+02  0.10000000000E+01 0.  0.
<mgrwt>
<rscale>  0 0.12499678E+03</rscale>
<asrwt>0</asrwt>
<pdfrwt beam="2">  1        4 0.19361048E-01 0.12499678E+03</pdfrwt>
<pdfrwt beam="1">  1       -4 0.12609238E-01 0.12499678E+03</pdfrwt>
<totfact> 0.19680481E+03</totfact>
</mgrwt>
</event>
<event>
 5    1  0.1435323E-002  0.1249985E+03  0.7818608E-02  0.1235072E+00
         -4   -1    0    0    0  501 -0.00000000000E+00  0.00000000000E+00  0.40012361056E+03  0.40012562605E+03  0.12700000000E+01 0. -1.
          4   -1    0    0  501    0  0.00000000000E+00 -0.00000000000E+00 -0.97190286776E+01  0.98016538623E+01  0.12700000000E+01 0. -1.
         25    2    1    2    0    0  0.00000000000E+00  0.00000000000E+00  0.39040458188E+03  0.40992727991E+03  0.12499854906E+03 0.  0.
    9000005    1    3    3    0    0  0.99829638534E+01  0.42533040089E+02  0.48671124271E+02  0.65410988407E+02  0.10000000000E+01 0.  0.
    9000005    1    3    3    0    0 -0.99829638534E+01 -0.42533040089E+02  0.34173345761E+03  0.34451629151E+03  0.10000000000E+01 0.  0.
<mgrwt>
<rscale>  0 0.12499855E+03</rscale>
<asrwt>0</asrwt>
<pdfrwt beam="2">  1        4 0.24403374E-02 0.12499855E+03</pdfrwt>
<pdfrwt beam="1">  1       -4 0.10004148E+00 0.12499855E+03</pdfrwt>
<totfact> 0.10367831E+03</totfact>
</mgrwt>
</event>
<event>
 5    1  0.1435323E-002  0.1249976E+03  0.7818608E-02  0.1235073E+00
         -4   -1    0    0    0  501 -0.00000000000E+00  0.00000000000E+00  0.25458294125E+03  0.25458610896E+03  0.12700000000E+01 0. -1.
          4   -1    0    0  501    0  0.00000000000E+00 -0.00000000000E+00 -0.15313573029E+02  0.15366145220E+02  0.12700000000E+01 0. -1.
         25    2    1    2    0    0  0.00000000000E+00  0.00000000000E+00  0.23926936822E+03  0.26995225418E+03  0.12499755585E+03 0.  0.
    9000005    1    3    3    0    0  0.29861599218E+02 -0.12309164783E+02  0.23516876934E+03  0.23737855993E+03  0.10000000000E+01 0.  0.
    9000005    1    3    3    0    0 -0.29861599218E+02  0.12309164783E+02  0.41005988831E+01  0.32573694244E+02  0.10000000000E+01 0.  0.
<mgrwt>
<rscale>  0 0.12499756E+03</rscale>
<asrwt>0</asrwt>
<pdfrwt beam="2">  1        4 0.38353607E-02 0.12499756E+03</pdfrwt>
<pdfrwt beam="1">  1       -4 0.63652703E-01 0.12499756E+03</pdfrwt>
<totfact> 0.13857833E+03</totfact>
</mgrwt>
</event>
<event>
 5    1  0.1435323E-002  0.1249664E+03  0.7818608E-02  0.1235122E+00
         -4   -1    0    0    0  501 -0.00000000000E+00  0.00000000000E+00  0.31879615429E+03  0.31879868396E+03  0.12700000000E+01 0.  1.
          4   -1    0    0  501    0  0.00000000000E+00 -0.00000000000E+00 -0.12211033995E+02  0.12276899089E+02  0.12700000000E+01 0.  1.
         25    2    1    2    0    0  0.00000000000E+00  0.00000000000E+00  0.30658512030E+03  0.33107558305E+03  0.12496641829E+03 0.  0.
    9000005    1    3    3    0    0 -0.34299118275E+02 -0.44635348915E+02  0.22508891459E+03  0.23202319574E+03  0.10000000000E+01 0.  0.
    9000005    1    3    3    0    0  0.34299118275E+02  0.44635348915E+02  0.81496205707E+02  0.99052387310E+02  0.10000000000E+01 0.  0.
<mgrwt>
<rscale>  0 0.12496642E+03</rscale>
<asrwt>0</asrwt>
<pdfrwt beam="2">  1        4 0.30613081E-02 0.12496642E+03</pdfrwt>
<pdfrwt beam="1">  1       -4 0.79707582E-01 0.12496642E+03</pdfrwt>
<totfact> 0.12152055E+03</totfact>
</mgrwt>
</event>
<event>
 5    1  0.1435323E-002  0.1249978E+03  0.7818608E-02  0.1235073E+00
         -4   -1    0    0    0  501 -0.00000000000E+00  0.00000000000E+00  0.48983876415E+02  0.49000337230E+02  0.12700000000E+01 0.  1.
          4   -1    0    0  501    0  0.00000000000E+00 -0.00000000000E+00 -0.79707919047E+02  0.79718035969E+02  0.12700000000E+01 0.  1.
         25    2    1    2    0    0  0.00000000000E+00  0.00000000000E+00 -0.30724042632E+02  0.12871837320E+03  0.12499781119E+03 0.  0.
    9000005    1    3    3    0    0  0.43668703698E+02 -0.16603956961E+02  0.27375908316E+02  0.54157985797E+02  0.10000000000E+01 0.  0.
    9000005    1    3    3    0    0 -0.43668703698E+02  0.16603956961E+02 -0.58099950948E+02  0.74560387402E+02  0.10000000000E+01 0.  0.
<mgrwt>
<rscale>  0 0.12499781E+03</rscale>
<asrwt>0</asrwt>
<pdfrwt beam="2">  1        4 0.19930302E-01 0.12499781E+03</pdfrwt>
<pdfrwt beam="1">  1       -4 0.12249291E-01 0.12499781E+03</pdfrwt>
<totfact> 0.19634540E+03</totfact>
</mgrwt>
</event>
<event>
 5    1  0.1435323E-002  0.1250032E+03  0.7818608E-02  0.1235064E+00
          4   -1    0    0  501    0  0.00000000000E+00  0.00000000000E+00  0.46798791012E+02  0.46816020123E+02  0.12700000000E+01 0.  1.
         -4   -1    0    0    0  501 -0.00000000000E+00 -0.00000000000E+00 -0.83435844331E+02  0.83445509281E+02  0.12700000000E+01 0.  1.
         25    2    1    2    0    0  0.00000000000E+00  0.00000000000E+00 -0.36637053319E+02  0.13026152940E+03  0.12500316943E+03 0.  0.
    9000005    1    3    3    0    0 -0.50361663923E+02 -0.32444789451E+02  0.21989550355E+00  0.59916691411E+02  0.10000000000E+01 0.  0.
    9000005    1    3    3    0    0  0.50361663923E+02  0.32444789451E+02 -0.36856948823E+02  0.70344837992E+02  0.10000000000E+01 0.  0.
<mgrwt>
<rscale>  0 0.12500317E+03</rscale>
<asrwt>0</asrwt>
<pdfrwt beam="1">  1        4 0.11703060E-01 0.12500317E+03</pdfrwt>
<pdfrwt beam="2">  1       -4 0.20862323E-01 0.12500317E+03</pdfrwt>
<totfact> 0.19548887E+03</totfact>
</mgrwt>
</event>
<event>
 5    1  0.1435323E-002  0.1250037E+03  0.7818608E-02  0.1235064E+00
         -4   -1    0    0    0  501 -0.00000000000E+00  0.00000000000E+00  0.22992838809E+03  0.22993189546E+03  0.12700000000E+01 0.  1.
          4   -1    0    0  501    0  0.00000000000E+00 -0.00000000000E+00 -0.16962613029E+02  0.17010089382E+02  0.12700000000E+01 0.  1.
         25    2    1    2    0    0  0.00000000000E+00  0.00000000000E+00  0.21296577506E+03  0.24694198484E+03  0.12500369007E+03 0.  0.
    9000005    1    3    3    0    0 -0.11231301635E+02 -0.51244482512E+02  0.39393927111E+02  0.65612655926E+02  0.10000000000E+01 0.  0.
    9000005    1    3    3    0    0  0.11231301635E+02  0.51244482512E+02  0.17357184795E+03  0.18132932892E+03  0.10000000000E+01 0.  0.
<mgrwt>
<rscale>  0 0.12500369E+03</rscale>
<asrwt>0</asrwt>
<pdfrwt beam="2">  1        4 0.42470262E-02 0.12500369E+03</pdfrwt>
<pdfrwt beam="1">  1       -4 0.57488470E-01 0.12500369E+03</pdfrwt>
<totfact> 0.14599010E+03</totfact>
</mgrwt>
</event>
<event>
 5    1  0.1435323E-002  0.1250005E+03  0.7818608E-02  0.1235068E+00
          4   -1    0    0  501    0  0.00000000000E+00  0.00000000000E+00  0.12242341008E+03  0.12242999729E+03  0.12700000000E+01 0. -1.
         -4   -1    0    0    0  501 -0.00000000000E+00 -0.00000000000E+00 -0.31887886544E+02  0.31913166691E+02  0.12700000000E+01 0. -1.
         25    2    1    2    0    0  0.00000000000E+00  0.00000000000E+00  0.90535523536E+02  0.15434316398E+03  0.12500052498E+03 0.  0.
    9000005    1    3    3    0    0  0.58472463347E+02  0.59298610501E+01  0.19043247960E+02  0.61788651991E+02  0.10000000000E+01 0.  0.
    9000005    1    3    3    0    0 -0.58472463347E+02 -0.59298610501E+01  0.71492275577E+02  0.92554511987E+02  0.10000000000E+01 0.  0.
<mgrwt>
<rscale>  0 0.12500052E+03</rscale>
<asrwt>0</asrwt>
<pdfrwt beam="1">  1        4 0.30609836E-01 0.12500052E+03</pdfrwt>
<pdfrwt beam="2">  1       -4 0.79759551E-02 0.12500052E+03</pdfrwt>
<totfact> 0.18327045E+03</totfact>
</mgrwt>
</event>
<event>
 5    1  0.1435323E-002  0.1250042E+03  0.7818608E-02  0.1235063E+00
         -4   -1    0    0    0  501 -0.00000000000E+00  0.00000000000E+00  0.16640378742E+02  0.16688771814E+02  0.12700000000E+01 0.  1.
          4   -1    0    0  501    0  0.00000000000E+00 -0.00000000000E+00 -0.23437007669E+03  0.23437351759E+03  0.12700000000E+01 0.  1.
         25    2    1    2    0    0  0.00000000000E+00  0.00000000000E+00 -0.21772969795E+03  0.25106228940E+03  0.12500420710E+03 0.  0.
    9000005    1    3    3    0    0  0.27332797291E+01  0.28511224609E+02  0.26917208919E+01  0.28785519070E+02  0.10000000000E+01 0.  0.
    9000005    1    3    3    0    0 -0.27332797291E+01 -0.28511224609E+02 -0.22042141884E+03  0.22227677033E+03  0.10000000000E+01 0.  0.
<mgrwt>
<rscale>  0 0.12500421E+03</rscale>
<asrwt>0</asrwt>
<pdfrwt beam="2">  1        4 0.58598988E-01 0.12500421E+03</pdfrwt>
<pdfrwt beam="1">  1       -4 0.41665747E-02 0.12500421E+03</pdfrwt>
<totfact> 0.14461318E+03</totfact>
</mgrwt>
</event>
<event>
 5    1  0.1435323E-002  0.1250015E+03  0.7818608E-02  0.1235067E+00
          4   -1    0    0  501    0  0.00000000000E+00  0.00000000000E+00  0.22723095711E+03  0.22723450611E+03  0.12700000000E+01 0. -1.
         -4   -1    0    0    0  501 -0.00000000000E+00 -0.00000000000E+00 -0.17163934541E+02  0.17210855555E+02  0.12700000000E+01 0. -1.
         25    2    1    2    0    0  0.00000000000E+00  0.00000000000E+00  0.21006702257E+03  0.24444536167E+03  0.12500152347E+03 0.  0.
    9000005    1    3    3    0    0  0.43618760025E+02 -0.23283803433E+02  0.17977025101E+03  0.18644858507E+03  0.10000000000E+01 0.  0.
    9000005    1    3    3    0    0 -0.43618760025E+02  0.23283803433E+02  0.30296771560E+02  0.57996776594E+02  0.10000000000E+01 0.  0.
<mgrwt>
<rscale>  0 0.12500152E+03</rscale>
<asrwt>0</asrwt>
<pdfrwt beam="1">  1        4 0.56814049E-01 0.12500152E+03</pdfrwt>
<pdfrwt beam="2">  1       -4 0.42972923E-02 0.12500152E+03</pdfrwt>
<totfact> 0.14684007E+03</totfact>
</mgrwt>
</event>
<event>
 5    1  0.1435323E-002  0.1250062E+03  0.7818608E-02  0.1235060E+00
         -4   -1    0    0    0  501 -0.00000000000E+00  0.00000000000E+00  0.12611814386E+03  0.12612453810E+03  0.12700000000E+01 0.  1.
          4   -1    0    0  501    0  0.00000000000E+00 -0.00000000000E+00 -0.30955818724E+02  0.30981859416E+02  0.12700000000E+01 0.  1.
         25    2    1    2    0    0  0.00000000000E+00  0.00000000000E+00  0.95162325139E+02  0.15710639752E+03  0.12500620791E+03 0.  0.
    9000005    1    3    3    0    0 -0.49107223663E+02 -0.36354778437E+02  0.31077048473E+02  0.68556343783E+02  0.10000000000E+01 0.  0.
    9000005    1    3    3    0    0  0.49107223663E+02  0.36354778437E+02  0.64085276666E+02  0.88550053735E+02  0.10000000000E+01 0.  0.
<mgrwt>
<rscale>  0 0.12500621E+03</rscale>
<asrwt>0</asrwt>
<pdfrwt beam="2">  1        4 0.77430091E-02 0.12500621E+03</pdfrwt>
<pdfrwt beam="1">  1       -4 0.31533590E-01 0.12500621E+03</pdfrwt>
<totfact> 0.18192162E+03</totfact>
</mgrwt>
</event>
<event>
 5    1  0.1435323E-002  0.1250042E+03  0.7818608E-02  0.1235063E+00
         -4   -1    0    0    0  501 -0.00000000000E+00  0.00000000000E+00  0.80310908804E+02  0.80320949776E+02  0.12700000000E+01 0. -1.
          4   -1    0    0  501    0  0.00000000000E+00 -0.00000000000E+00 -0.48620981652E+02  0.48637565285E+02  0.12700000000E+01 0. -1.
         25    2    1    2    0    0  0.00000000000E+00  0.00000000000E+00  0.31689927151E+02  0.12895851506E+03  0.12500418843E+03 0.  0.
    9000005    1    3    3    0    0 -0.38297530023E+02  0.43496766985E+02 -0.82794344041E+01  0.58550991264E+02  0.10000000000E+01 0.  0.
    9000005    1    3    3    0    0  0.38297530023E+02 -0.43496766985E+02  0.39969361555E+02  0.70407523796E+02  0.10000000000E+01 0.  0.
<mgrwt>
<rscale>  0 0.12500419E+03</rscale>
<asrwt>0</asrwt>
<pdfrwt beam="2">  1        4 0.12158574E-01 0.12500419E+03</pdfrwt>
<pdfrwt beam="1">  1       -4 0.20081055E-01 0.12500419E+03</pdfrwt>
<totfact> 0.19618621E+03</totfact>
</mgrwt>
</event>
<event>
 5    1  0.1435323E-002  0.1250217E+03  0.7818608E-02  0.1235035E+00
         -4   -1    0    0    0  501 -0.00000000000E+00  0.00000000000E+00  0.19410092543E+02  0.19451596143E+02  0.12700000000E+01 0.  1.
          4   -1    0    0  501    0  0.00000000000E+00 -0.00000000000E+00 -0.20105983730E+03  0.20106384825E+03  0.12700000000E+01 0.  1.
         25    2    1    2    0    0  0.00000000000E+00  0.00000000000E+00 -0.18164974476E+03  0.22051544440E+03  0.12502172390E+03 0.  0.
    9000005    1    3    3    0    0 -0.10994546500E+02 -0.51267875993E+02 -0.30820535450E+02  0.60829109537E+02  0.10000000000E+01 0.  0.
    9000005    1    3    3    0    0  0.10994546500E+02  0.51267875993E+02 -0.15082920931E+03  0.15968633486E+03  0.10000000000E+01 0.  0.
<mgrwt>
<rscale>  0 0.12502172E+03</rscale>
<asrwt>0</asrwt>
<pdfrwt beam="2">  1        4 0.50270642E-01 0.12502172E+03</pdfrwt>
<pdfrwt beam="1">  1       -4 0.48582131E-02 0.12502172E+03</pdfrwt>
<totfact> 0.15524461E+03</totfact>
</mgrwt>
</event>
<event>
 5    1  0.1435323E-002  0.1249962E+03  0.7818608E-02  0.1235075E+00
         -4   -1    0    0    0  501 -0.00000000000E+00  0.00000000000E+00  0.66159708575E+02  0.66171896896E+02  0.12700000000E+01 0. -1.
          4   -1    0    0  501    0  0.00000000000E+00 -0.00000000000E+00 -0.59014669265E+02  0.59028332930E+02  0.12700000000E+01 0. -1.
         25    2    1    2    0    0  0.00000000000E+00  0.00000000000E+00  0.71450393104E+01  0.12520022983E+03  0.12499618379E+03 0.  0.
    9000005    1    3    3    0    0 -0.79128740215E+01  0.32015336046E+01 -0.58432880478E+02  0.59061534975E+02  0.10000000000E+01 0.  0.
    9000005    1    3    3    0    0  0.79128740215E+01 -0.32015336046E+01  0.65577919788E+02  0.66138694850E+02  0.10000000000E+01 0.  0.
<mgrwt>
<rscale>  0 0.12499618E+03</rscale>
<asrwt>0</asrwt>
<pdfrwt beam="2">  1        4 0.14756899E-01 0.12499618E+03</pdfrwt>
<pdfrwt beam="1">  1       -4 0.16543159E-01 0.12499618E+03</pdfrwt>
<totfact> 0.19825971E+03</totfact>
</mgrwt>
</event>
<event>
 5    1  0.1435323E-002  0.1250032E+03  0.7818608E-02  0.1235064E+00
          4   -1    0    0  501    0  0.00000000000E+00  0.00000000000E+00  0.20273091513E+03  0.20273489302E+03  0.12700000000E+01 0. -1.
         -4   -1    0    0    0  501 -0.00000000000E+00 -0.00000000000E+00 -0.19244036050E+02  0.19285897010E+02  0.12700000000E+01 0. -1.
         25    2    1    2    0    0  0.00000000000E+00  0.00000000000E+00  0.18348687908E+03  0.22202079003E+03  0.12500318561E+03 0.  0.
    9000005    1    3    3    0    0  0.20221361070E+02 -0.49910032223E+02  0.35422353988E+02  0.64464392668E+02  0.10000000000E+01 0.  0.
    9000005    1    3    3    0    0 -0.20221361070E+02  0.49910032223E+02  0.14806452509E+03  0.15755639736E+03  0.10000000000E+01 0.  0.
<mgrwt>
<rscale>  0 0.12500319E+03</rscale>
<asrwt>0</asrwt>
<pdfrwt beam="1">  1        4 0.50688458E-01 0.12500319E+03</pdfrwt>
<pdfrwt beam="2">  1       -4 0.48167389E-02 0.12500319E+03</pdfrwt>
<totfact> 0.15475543E+03</totfact>
</mgrwt>
</event>
<event>
 5    1  0.1435323E-002  0.1250013E+03  0.7818608E-02  0.1235067E+00
          4   -1    0    0  501    0  0.00000000000E+00  0.00000000000E+00  0.10807609902E+03  0.10808356064E+03  0.12700000000E+01 0. -1.
         -4   -1    0    0    0  501 -0.00000000000E+00 -0.00000000000E+00 -0.36124385850E+02  0.36146703212E+02  0.12700000000E+01 0. -1.
         25    2    1    2    0    0  0.00000000000E+00  0.00000000000E+00  0.71951713173E+02  0.14423026385E+03  0.12500127992E+03 0.  0.
    9000005    1    3    3    0    0  0.22008015720E+00  0.47875628514E+02 -0.10367428869E+02  0.48995998023E+02  0.10000000000E+01 0.  0.
    9000005    1    3    3    0    0 -0.22008015720E+00 -0.47875628514E+02  0.82319142042E+02  0.95234265826E+02  0.10000000000E+01 0.  0.
<mgrwt>
<rscale>  0 0.12500128E+03</rscale>
<asrwt>0</asrwt>
<pdfrwt beam="1">  1        4 0.27022747E-01 0.12500128E+03</pdfrwt>
<pdfrwt beam="2">  1       -4 0.90348189E-02 0.12500128E+03</pdfrwt>
<totfact> 0.18825418E+03</totfact>
</mgrwt>
</event>
<event>
 5    1  0.1435323E-002  0.1249997E+03  0.7818608E-02  0.1235070E+00
          4   -1    0    0  501    0  0.00000000000E+00  0.00000000000E+00  0.23048169128E+03  0.23048519023E+03  0.12700000000E+01 0.  1.
         -4   -1    0    0    0  501 -0.00000000000E+00 -0.00000000000E+00 -0.16920691544E+02  0.16968285191E+02  0.12700000000E+01 0.  1.
         25    2    1    2    0    0  0.00000000000E+00  0.00000000000E+00  0.21356099973E+03  0.24745347542E+03  0.12499968756E+03 0.  0.
    9000005    1    3    3    0    0 -0.61074227551E+02  0.12299622430E+02  0.11645612367E+03  0.13207713929E+03  0.10000000000E+01 0.  0.
    9000005    1    3    3    0    0  0.61074227551E+02 -0.12299622430E+02  0.97104876061E+02  0.11537633613E+03  0.10000000000E+01 0.  0.
<mgrwt>
<rscale>  0 0.12499969E+03</rscale>
<asrwt>0</asrwt>
<pdfrwt beam="1">  1        4 0.57626808E-01 0.12499969E+03</pdfrwt>
<pdfrwt beam="2">  1       -4 0.42365596E-02 0.12499969E+03</pdfrwt>
<totfact> 0.14583181E+03</totfact>
</mgrwt>
</event>
<event>
 5    1  0.1435323E-002  0.1249999E+03  0.7818608E-02  0.1235069E+00
         -4   -1    0    0    0  501 -0.00000000000E+00  0.00000000000E+00  0.44007262317E+02  0.44025583887E+02  0.12700000000E+01 0.  1.
          4   -1    0    0  501    0  0.00000000000E+00 -0.00000000000E+00 -0.88722339247E+02  0.88731428375E+02  0.12700000000E+01 0.  1.
         25    2    1    2    0    0  0.00000000000E+00  0.00000000000E+00 -0.44715076931E+02  0.13275701226E+03  0.12499994480E+03 0.  0.
    9000005    1    3    3    0    0 -0.58276430674E+02 -0.22376974412E+02 -0.25431122476E+02  0.67413747458E+02  0.10000000000E+01 0.  0.
    9000005    1    3    3    0    0  0.58276430674E+02  0.22376974412E+02 -0.19283954455E+02  0.65343264805E+02  0.10000000000E+01 0.  0.
<mgrwt>
<rscale>  0 0.12499994E+03</rscale>
<asrwt>0</asrwt>
<pdfrwt beam="2">  1        4 0.22184011E-01 0.12499994E+03</pdfrwt>
<pdfrwt beam="1">  1       -4 0.11005242E-01 0.12499994E+03</pdfrwt>
<totfact> 0.19417303E+03</totfact>
</mgrwt>
</event>
<event>
 4    1  0.1435323E-002  0.1250621E+03  0.7818608E-02  0.1234972E+00
          4   -1    0    0  501    0  0.00000000000E+00  0.00000000000E+00  0.11203441271E+02  0.11275193848E+02  0.12700000000E+01 0. -1.
         -4   -1    0    0    0  501 -0.00000000000E+00 -0.00000000000E+00 -0.34782456324E+03  0.34782688179E+03  0.12700000000E+01 0. -1.
    9000005    1    1    2    0    0  0.21254375175E+02  0.56419725123E+02 -0.12076355459E+03  0.13498062811E+03  0.10000000000E+01 0.  0.
    9000005    1    1    2    0    0 -0.21254375175E+02 -0.56419725123E+02 -0.21585756738E+03  0.22412144753E+03  0.10000000000E+01 0.  0.
<mgrwt>
<rscale>  0 0.12506207E+03</rscale>
<asrwt>0</asrwt>
<pdfrwt beam="1">  1        4 0.28101204E-02 0.12506207E+03</pdfrwt>
<pdfrwt beam="2">  1       -4 0.86965364E-01 0.12506207E+03</pdfrwt>
<totfact> 0.11446983E+03</totfact>
</mgrwt>
</event>
<event>
 5    1  0.1435323E-002  0.1250008E+03  0.7818608E-02  0.1235068E+00
         -4   -1    0    0    0  501 -0.00000000000E+00  0.00000000000E+00  0.26758006798E+02  0.26788128486E+02  0.12700000000E+01 0. -1.
          4   -1    0    0  501    0  0.00000000000E+00 -0.00000000000E+00 -0.14587123946E+03  0.14587676786E+03  0.12700000000E+01 0. -1.
         25    2    1    2    0    0  0.00000000000E+00  0.00000000000E+00 -0.11911323266E+03  0.17266489635E+03  0.12500081694E+03 0.  0.
    9000005    1    3    3    0    0 -0.81292362456E+01  0.26787341136E+02  0.17619629364E+02  0.33092256889E+02  0.10000000000E+01 0.  0.
    9000005    1    3    3    0    0  0.81292362456E+01 -0.26787341136E+02 -0.13673286203E+03  0.13957263946E+03  0.10000000000E+01 0.  0.
<mgrwt>
<rscale>  0 0.12500082E+03</rscale>
<asrwt>0</asrwt>
<pdfrwt beam="2">  1        4 0.36472264E-01 0.12500082E+03</pdfrwt>
<pdfrwt beam="1">  1       -4 0.66939584E-02 0.12500082E+03</pdfrwt>
<totfact> 0.17477184E+03</totfact>
</mgrwt>
</event>
<event>
 5    1  0.1435323E-002  0.1250019E+03  0.7818608E-02  0.1235066E+00
         -4   -1    0    0    0  501 -0.00000000000E+00  0.00000000000E+00  0.32575491046E+02  0.32600237988E+02  0.12700000000E+01 0.  1.
          4   -1    0    0  501    0  0.00000000000E+00 -0.00000000000E+00 -0.11984380170E+03  0.11985053069E+03  0.12700000000E+01 0.  1.
         25    2    1    2    0    0  0.00000000000E+00  0.00000000000E+00 -0.87268310654E+02  0.15245076867E+03  0.12500191529E+03 0.  0.
    9000005    1    3    3    0    0 -0.48541089387E+02 -0.38993273007E+02 -0.37105430409E+02  0.72488107056E+02  0.10000000000E+01 0.  0.
    9000005    1    3    3    0    0  0.48541089387E+02  0.38993273007E+02 -0.50162880245E+02  0.79962661619E+02  0.10000000000E+01 0.  0.
<mgrwt>
<rscale>  0 0.12500192E+03</rscale>
<asrwt>0</asrwt>
<pdfrwt beam="2">  1        4 0.29964884E-01 0.12500192E+03</pdfrwt>
<pdfrwt beam="1">  1       -4 0.81478075E-02 0.12500192E+03</pdfrwt>
<totfact> 0.18418109E+03</totfact>
</mgrwt>
</event>
<event>
 5    1  0.1435323E-002  0.1249940E+03  0.7818608E-02  0.1235079E+00
         -4   -1    0    0    0  501 -0.00000000000E+00  0.00000000000E+00  0.32730504602E+02  0.32755134429E+02  0.12700000000E+01 0.  1.
          4   -1    0    0  501    0  0.00000000000E+00 -0.00000000000E+00 -0.11926154554E+03  0.11926830738E+03  0.12700000000E+01 0.  1.
         25    2    1    2    0    0  0.00000000000E+00  0.00000000000E+00 -0.86531040942E+02  0.15202344181E+03  0.12499402311E+03 0.  0.
    9000005    1    3    3    0    0 -0.36912631562E+02 -0.49040315871E+02 -0.57521118697E+02  0.84125941574E+02  0.10000000000E+01 0.  0.
    9000005    1    3    3    0    0  0.36912631562E+02  0.49040315871E+02 -0.29009922245E+02  0.67897500235E+02  0.10000000000E+01 0.  0.
<mgrwt>
<rscale>  0 0.12499402E+03</rscale>
<asrwt>0</asrwt>
<pdfrwt beam="2">  1        4 0.29819309E-01 0.12499402E+03</pdfrwt>
<pdfrwt beam="1">  1       -4 0.81865504E-02 0.12499402E+03</pdfrwt>
<totfact> 0.18442298E+03</totfact>
</mgrwt>
</event>
<event>
 5    1  0.1435323E-002  0.1249979E+03  0.7818608E-02  0.1235073E+00
         -4   -1    0    0    0  501 -0.00000000000E+00  0.00000000000E+00  0.99709091956E+02  0.99717179657E+02  0.12700000000E+01 0. -1.
          4   -1    0    0  501    0  0.00000000000E+00 -0.00000000000E+00 -0.39155170579E+02  0.39175761423E+02  0.12700000000E+01 0. -1.
         25    2    1    2    0    0  0.00000000000E+00  0.00000000000E+00  0.60553921378E+02  0.13889294108E+03  0.12499788673E+03 0.  0.
    9000005    1    3    3    0    0 -0.20015452744E+01  0.60600570313E+02  0.13473680099E+02  0.62120651648E+02  0.10000000000E+01 0.  0.
    9000005    1    3    3    0    0  0.20015452744E+01 -0.60600570313E+02  0.47080241279E+02  0.76772289432E+02  0.10000000000E+01 0.  0.
<mgrwt>
<rscale>  0 0.12499789E+03</rscale>
<asrwt>0</asrwt>
<pdfrwt beam="2">  1        4 0.97923775E-02 0.12499789E+03</pdfrwt>
<pdfrwt beam="1">  1       -4 0.24930858E-01 0.12499789E+03</pdfrwt>
<totfact> 0.19098063E+03</totfact>
</mgrwt>
</event>
<event>
 5    1  0.1435323E-002  0.1250003E+03  0.7818608E-02  0.1235069E+00
          4   -1    0    0  501    0  0.00000000000E+00  0.00000000000E+00  0.46011201230E+02  0.46028725146E+02  0.12700000000E+01 0.  1.
         -4   -1    0    0    0  501 -0.00000000000E+00 -0.00000000000E+00 -0.84859714744E+02  0.84869217543E+02  0.12700000000E+01 0.  1.
         25    2    1    2    0    0  0.00000000000E+00  0.00000000000E+00 -0.38848513514E+02  0.13089794269E+03  0.12500025759E+03 0.  0.
    9000005    1    3    3    0    0 -0.41070873523E+02 -0.11601234136E+02  0.28378865879E+02  0.51261733428E+02  0.10000000000E+01 0.  0.
    9000005    1    3    3    0    0  0.41070873523E+02  0.11601234136E+02 -0.67227379394E+02  0.79636209262E+02  0.10000000000E+01 0.  0.
<mgrwt>
<rscale>  0 0.12500026E+03</rscale>
<asrwt>0</asrwt>
<pdfrwt beam="1">  1        4 0.11506179E-01 0.12500026E+03</pdfrwt>
<pdfrwt beam="2">  1       -4 0.21218307E-01 0.12500026E+03</pdfrwt>
<totfact> 0.19516114E+03</totfact>
</mgrwt>
</event>
<event>
 5    1  0.1435323E-002  0.1249987E+03  0.7818608E-02  0.1235071E+00
          4   -1    0    0  501    0  0.00000000000E+00  0.00000000000E+00  0.14046580089E+03  0.14047154203E+03  0.12700000000E+01 0.  1.
         -4   -1    0    0    0  501 -0.00000000000E+00 -0.00000000000E+00 -0.27787859269E+02  0.27816865797E+02  0.12700000000E+01 0.  1.
         25    2    1    2    0    0  0.00000000000E+00  0.00000000000E+00  0.11267794162E+03  0.16828840783E+03  0.12499867872E+03 0.  0.
    9000005    1    3    3    0    0 -0.28415633155E+02 -0.40854019338E+02  0.10722686576E+03  0.11821632647E+03  0.10000000000E+01 0.  0.
    9000005    1    3    3    0    0  0.28415633155E+02  0.40854019338E+02  0.54510758678E+01  0.50072081360E+02  0.10000000000E+01 0.  0.
<mgrwt>
<rscale>  0 0.12499868E+03</rscale>
<asrwt>0</asrwt>
<pdfrwt beam="1">  1        4 0.35120793E-01 0.12499868E+03</pdfrwt>
<pdfrwt beam="2">  1       -4 0.69513085E-02 0.12499868E+03</pdfrwt>
<totfact> 0.17675067E+03</totfact>
</mgrwt>
</event>
<event>
 5    1  0.1435323E-002  0.1249982E+03  0.7818608E-02  0.1235072E+00
          4   -1    0    0  501    0  0.00000000000E+00  0.00000000000E+00  0.51205444343E+02  0.51221191223E+02  0.12700000000E+01 0.  1.
         -4   -1    0    0    0  501 -0.00000000000E+00 -0.00000000000E+00 -0.76250913937E+02  0.76261489471E+02  0.12700000000E+01 0.  1.
         25    2    1    2    0    0  0.00000000000E+00  0.00000000000E+00 -0.25045469595E+02  0.12748268069E+03  0.12499823331E+03 0.  0.
    9000005    1    3    3    0    0  0.61099840600E+02  0.50862223826E+01 -0.24849292272E+02  0.66163037308E+02  0.10000000000E+01 0.  0.
    9000005    1    3    3    0    0 -0.61099840600E+02 -0.50862223826E+01 -0.19617732282E+00  0.61319643386E+02  0.10000000000E+01 0.  0.
<mgrwt>
<rscale>  0 0.12499823E+03</rscale>
<asrwt>0</asrwt>
<pdfrwt beam="1">  1        4 0.12804651E-01 0.12499823E+03</pdfrwt>
<pdfrwt beam="2">  1       -4 0.19066019E-01 0.12499823E+03</pdfrwt>
<totfact> 0.19701542E+03</totfact>
</mgrwt>
</event>
<event>
 5    1  0.1435323E-002  0.1250215E+03  0.7818608E-02  0.1235036E+00
          4   -1    0    0  501    0  0.00000000000E+00  0.00000000000E+00  0.54695030458E+02  0.54709772956E+02  0.12700000000E+01 0.  1.
         -4   -1    0    0    0  501 -0.00000000000E+00 -0.00000000000E+00 -0.71413306442E+02  0.71424598263E+02  0.12700000000E+01 0.  1.
         25    2    1    2    0    0  0.00000000000E+00  0.00000000000E+00 -0.16718275983E+02  0.12613437122E+03  0.12502151355E+03 0.  0.
    9000005    1    3    3    0    0 -0.29011985961E+02 -0.45823145493E+02 -0.39702354597E+02  0.67221521500E+02  0.10000000000E+01 0.  0.
    9000005    1    3    3    0    0  0.29011985961E+02  0.45823145493E+02  0.22984078613E+02  0.58912849718E+02  0.10000000000E+01 0.  0.
<mgrwt>
<rscale>  0 0.12502151E+03</rscale>
<asrwt>0</asrwt>
<pdfrwt beam="1">  1        4 0.13677012E-01 0.12502151E+03</pdfrwt>
<pdfrwt beam="2">  1       -4 0.17856581E-01 0.12502151E+03</pdfrwt>
<totfact> 0.19763713E+03</totfact>
</mgrwt>
</event>
<event>
 5    1  0.1435323E-002  0.1250023E+03  0.7818608E-02  0.1235066E+00
         -4   -1    0    0    0  501 -0.00000000000E+00  0.00000000000E+00  0.20533013623E+02  0.20572251905E+02  0.12700000000E+01 0.  1.
          4   -1    0    0  501    0  0.00000000000E+00 -0.00000000000E+00 -0.19002639124E+03  0.19003063507E+03  0.12700000000E+01 0.  1.
         25    2    1    2    0    0  0.00000000000E+00  0.00000000000E+00 -0.16949337761E+03  0.21060288698E+03  0.12500228377E+03 0.  0.
    9000005    1    3    3    0    0 -0.44816676900E+02 -0.36333909813E+02 -0.12520644941E+03  0.13786349229E+03  0.10000000000E+01 0.  0.
    9000005    1    3    3    0    0  0.44816676900E+02  0.36333909813E+02 -0.44286928199E+02  0.72739394691E+02  0.10000000000E+01 0.  0.
<mgrwt>
<rscale>  0 0.12500228E+03</rscale>
<asrwt>0</asrwt>
<pdfrwt beam="2">  1        4 0.47512028E-01 0.12500228E+03</pdfrwt>
<pdfrwt beam="1">  1       -4 0.51386892E-02 0.12500228E+03</pdfrwt>
<totfact> 0.15905271E+03</totfact>
</mgrwt>
</event>
<event>
 5    1  0.1435323E-002  0.1249993E+03  0.7818608E-02  0.1235070E+00
         -4   -1    0    0    0  501 -0.00000000000E+00  0.00000000000E+00  0.65875921857E+03  0.65876044277E+03  0.12700000000E+01 0.  1.
          4   -1    0    0  501    0  0.00000000000E+00 -0.00000000000E+00 -0.58603976072E+01  0.59964289468E+01  0.12700000000E+01 0.  1.
         25    2    1    2    0    0  0.00000000000E+00  0.00000000000E+00  0.65289882096E+03  0.66475687171E+03  0.12499931229E+03 0.  0.
    9000005    1    3    3    0    0 -0.23359173873E+02 -0.19232224418E+02  0.35667498748E+02  0.46783543336E+02  0.10000000000E+01 0.  0.
    9000005    1    3    3    0    0  0.23359173873E+02  0.19232224418E+02  0.61723132222E+03  0.61797332838E+03  0.10000000000E+01 0.  0.
<mgrwt>
<rscale>  0 0.12499931E+03</rscale>
<asrwt>0</asrwt>
<pdfrwt beam="2">  1        4 0.14822561E-02 0.12499931E+03</pdfrwt>
<pdfrwt beam="1">  1       -4 0.16470699E+00 0.12499931E+03</pdfrwt>
<totfact> 0.65848453E+02</totfact>
</mgrwt>
</event>
<event>
 5    1  0.1435323E-002  0.1249984E+03  0.7818608E-02  0.1235072E+00
          4   -1    0    0  501    0  0.00000000000E+00  0.00000000000E+00  0.21496718908E+02  0.21534201258E+02  0.12700000000E+01 0.  1.
         -4   -1    0    0    0  501 -0.00000000000E+00 -0.00000000000E+00 -0.18151125841E+03  0.18151570133E+03  0.12700000000E+01 0.  1.
         25    2    1    2    0    0  0.00000000000E+00  0.00000000000E+00 -0.16001453950E+03  0.20304990258E+03  0.12499844035E+03 0.  0.
    9000005    1    3    3    0    0 -0.30979789043E+02  0.21144919898E+02  0.11860451497E+01  0.37540134120E+02  0.10000000000E+01 0.  0.
    9000005    1    3    3    0    0  0.30979789043E+02 -0.21144919898E+02 -0.16120058465E+03  0.16550976846E+03  0.10000000000E+01 0.  0.
<mgrwt>
<rscale>  0 0.12499844E+03</rscale>
<asrwt>0</asrwt>
<pdfrwt beam="1">  1        4 0.53794209E-02 0.12499844E+03</pdfrwt>
<pdfrwt beam="2">  1       -4 0.45383051E-01 0.12499844E+03</pdfrwt>
<totfact> 0.16201227E+03</totfact>
</mgrwt>
</event>
<event>
 5    1  0.1435323E-002  0.1249983E+03  0.7818608E-02  0.1235072E+00
          4   -1    0    0  501    0  0.00000000000E+00  0.00000000000E+00  0.60553320559E+01  0.61870789802E+01  0.12700000000E+01 0. -1.
         -4   -1    0    0    0  501 -0.00000000000E+00 -0.00000000000E+00 -0.63800104671E+03  0.63800231074E+03  0.12700000000E+01 0. -1.
         25    2    1    2    0    0  0.00000000000E+00  0.00000000000E+00 -0.63194571466E+03  0.64418938972E+03  0.12499833420E+03 0.  0.
    9000005    1    3    3    0    0 -0.82539743570E+01 -0.32444661279E+01 -0.63476653762E+03  0.63482927779E+03  0.10000000000E+01 0.  0.
    9000005    1    3    3    0    0  0.82539743570E+01  0.32444661279E+01  0.28208229645E+01  0.93601119298E+01  0.10000000000E+01 0.  0.
<mgrwt>
<rscale>  0 0.12499833E+03</rscale>
<asrwt>0</asrwt>
<pdfrwt beam="1">  1        4 0.15304616E-02 0.12499833E+03</pdfrwt>
<pdfrwt beam="2">  1       -4 0.15951666E+00 0.12499833E+03</pdfrwt>
<totfact> 0.68182406E+02</totfact>
</mgrwt>
</event>
<event>
 5    1  0.1435323E-002  0.1249947E+03  0.7818608E-02  0.1235078E+00
         -4   -1    0    0    0  501 -0.00000000000E+00  0.00000000000E+00  0.63903584703E+02  0.63916203250E+02  0.12700000000E+01 0. -1.
          4   -1    0    0  501    0  0.00000000000E+00 -0.00000000000E+00 -0.61096813335E+02  0.61110011452E+02  0.12700000000E+01 0. -1.
         25    2    1    2    0    0  0.00000000000E+00  0.00000000000E+00  0.28067713681E+01  0.12502621470E+03  0.12499470548E+03 0.  0.
    9000005    1    3    3    0    0  0.22326076339E+02  0.50241224488E+02  0.31114152304E+02  0.63180098104E+02  0.10000000000E+01 0.  0.
    9000005    1    3    3    0    0 -0.22326076339E+02 -0.50241224488E+02 -0.28307380936E+02  0.61846116598E+02  0.10000000000E+01 0.  0.
<mgrwt>
<rscale>  0 0.12499471E+03</rscale>
<asrwt>0</asrwt>
<pdfrwt beam="2">  1        4 0.15277430E-01 0.12499471E+03</pdfrwt>
<pdfrwt beam="1">  1       -4 0.15979123E-01 0.12499471E+03</pdfrwt>
<totfact> 0.19836091E+03</totfact>
</mgrwt>
</event>
<event>
 5    1  0.1435323E-002  0.1250003E+03  0.7818608E-02  0.1235069E+00
         -4   -1    0    0    0  501 -0.00000000000E+00  0.00000000000E+00  0.24088392390E+03  0.24088727176E+03  0.12700000000E+01 0.  1.
          4   -1    0    0  501    0  0.00000000000E+00 -0.00000000000E+00 -0.16188056019E+02  0.16237797193E+02  0.12700000000E+01 0.  1.
         25    2    1    2    0    0  0.00000000000E+00  0.00000000000E+00  0.22469586788E+03  0.25712506895E+03  0.12500027215E+03 0.  0.
    9000005    1    3    3    0    0 -0.59523243581E+02  0.10609767366E+02  0.79844576224E+02  0.10015857448E+03  0.10000000000E+01 0.  0.
    9000005    1    3    3    0    0  0.59523243581E+02 -0.10609767366E+02  0.14485129166E+03  0.15696649447E+03  0.10000000000E+01 0.  0.
<mgrwt>
<rscale>  0 0.12500027E+03</rscale>
<asrwt>0</asrwt>
<pdfrwt beam="2">  1        4 0.40536502E-02 0.12500027E+03</pdfrwt>
<pdfrwt beam="1">  1       -4 0.60227616E-01 0.12500027E+03</pdfrwt>
<totfact> 0.14263847E+03</totfact>
</mgrwt>
</event>
<event>
 5    1  0.1435323E-002  0.1249995E+03  0.7818608E-02  0.1235070E+00
         -4   -1    0    0    0  501 -0.00000000000E+00  0.00000000000E+00  0.33077726703E+03  0.33077970507E+03  0.12700000000E+01 0.  1.
          4   -1    0    0  501    0  0.00000000000E+00 -0.00000000000E+00 -0.11772577700E+02  0.11840881965E+02  0.12700000000E+01 0.  1.
         25    2    1    2    0    0  0.00000000000E+00  0.00000000000E+00  0.31900468933E+03  0.34262058703E+03  0.12499949937E+03 0.  0.
    9000005    1    3    3    0    0  0.57528267350E+02  0.12940847083E+02  0.21622475801E+03  0.22412298643E+03  0.10000000000E+01 0.  0.
    9000005    1    3    3    0    0 -0.57528267350E+02 -0.12940847083E+02  0.10277993132E+03  0.11849760061E+03  0.10000000000E+01 0.  0.
<mgrwt>
<rscale>  0 0.12499950E+03</rscale>
<asrwt>0</asrwt>
<pdfrwt beam="2">  1        4 0.29519872E-02 0.12499950E+03</pdfrwt>
<pdfrwt beam="1">  1       -4 0.82703160E-01 0.12499950E+03</pdfrwt>
<totfact> 0.11855494E+03</totfact>
</mgrwt>
</event>
<event>
 5    1  0.1435323E-002  0.1250027E+03  0.7818608E-02  0.1235065E+00
         -4   -1    0    0    0  501 -0.00000000000E+00  0.00000000000E+00  0.71094826036E+02  0.71106168432E+02  0.12700000000E+01 0. -1.
          4   -1    0    0  501    0  0.00000000000E+00 -0.00000000000E+00 -0.54923513976E+02  0.54938195160E+02  0.12700000000E+01 0. -1.
         25    2    1    2    0    0  0.00000000000E+00  0.00000000000E+00  0.16171312060E+02  0.12604436359E+03  0.12500268101E+03 0.  0.
    9000005    1    3    3    0    0  0.32510028633E+02 -0.52959658594E+02  0.14758214558E+02  0.63878261538E+02  0.10000000000E+01 0.  0.
    9000005    1    3    3    0    0 -0.32510028633E+02  0.52959658594E+02  0.14130975016E+01  0.62166102055E+02  0.10000000000E+01 0.  0.
<mgrwt>
<rscale>  0 0.12500268E+03</rscale>
<asrwt>0</asrwt>
<pdfrwt beam="2">  1        4 0.13734132E-01 0.12500268E+03</pdfrwt>
<pdfrwt beam="1">  1       -4 0.17776959E-01 0.12500268E+03</pdfrwt>
<totfact> 0.19777283E+03</totfact>
</mgrwt>
</event>
<event>
 5    1  0.1435323E-002  0.1249532E+03  0.7818608E-02  0.1235143E+00
          4   -1    0    0  501    0  0.00000000000E+00  0.00000000000E+00  0.38374738478E+02  0.38395747854E+02  0.12700000000E+01 0. -1.
         -4   -1    0    0    0  501 -0.00000000000E+00 -0.00000000000E+00 -0.10166314001E+03  0.10167107227E+03  0.12700000000E+01 0. -1.
         25    2    1    2    0    0  0.00000000000E+00  0.00000000000E+00 -0.63288401535E+02  0.14006682013E+03  0.12495316055E+03 0.  0.
    9000005    1    3    3    0    0  0.61097500696E+02  0.11363961521E+02 -0.38758410497E+02  0.73247925547E+02  0.10000000000E+01 0.  0.
    9000005    1    3    3    0    0 -0.61097500696E+02 -0.11363961521E+02 -0.24529991037E+02  0.66818894581E+02  0.10000000000E+01 0.  0.
<mgrwt>
<rscale>  0 0.12495316E+03</rscale>
<asrwt>0</asrwt>
<pdfrwt beam="1">  1        4 0.95973025E-02 0.12495316E+03</pdfrwt>
<pdfrwt beam="2">  1       -4 0.25419402E-01 0.12495316E+03</pdfrwt>
<totfact> 0.19057731E+03</totfact>
</mgrwt>
</event>
<event>
 5    1  0.1435323E-002  0.1250101E+03  0.7818608E-02  0.1235053E+00
         -4   -1    0    0    0  501 -0.00000000000E+00  0.00000000000E+00  0.40220152108E+03  0.40220352616E+03  0.12700000000E+01 0.  1.
          4   -1    0    0  501    0  0.00000000000E+00 -0.00000000000E+00 -0.96701962956E+01  0.97532351759E+01  0.12700000000E+01 0.  1.
         25    2    1    2    0    0  0.00000000000E+00  0.00000000000E+00  0.39253132478E+03  0.41195676134E+03  0.12501012870E+03 0.  0.
    9000005    1    3    3    0    0 -0.28302856240E+02 -0.23940864837E+02  0.30456062686E+02  0.47987377870E+02  0.10000000000E+01 0.  0.
    9000005    1    3    3    0    0  0.28302856240E+02  0.23940864837E+02  0.36207526209E+03  0.36396938347E+03  0.10000000000E+01 0.  0.
<mgrwt>
<rscale>  0 0.12501013E+03</rscale>
<asrwt>0</asrwt>
<pdfrwt beam="2">  1        4 0.24281797E-02 0.12501013E+03</pdfrwt>
<pdfrwt beam="1">  1       -4 0.10056101E+00 0.12501013E+03</pdfrwt>
<totfact> 0.10324055E+03</totfact>
</mgrwt>
</event>
<event>
 5    1  0.1435323E-002  0.1249996E+03  0.7818608E-02  0.1235070E+00
          4   -1    0    0  501    0  0.00000000000E+00  0.00000000000E+00  0.29592675650E+02  0.29619914789E+02  0.12700000000E+01 0. -1.
         -4   -1    0    0    0  501 -0.00000000000E+00 -0.00000000000E+00 -0.13190863275E+03  0.13191474631E+03  0.12700000000E+01 0. -1.
         25    2    1    2    0    0  0.00000000000E+00  0.00000000000E+00 -0.10231595710E+03  0.16153466110E+03  0.12499956664E+03 0.  0.
    9000005    1    3    3    0    0 -0.22527812675E+02 -0.54977332655E+02 -0.76190028988E+02  0.96622616229E+02  0.10000000000E+01 0.  0.
    9000005    1    3    3    0    0  0.22527812675E+02  0.54977332655E+02 -0.26125928114E+02  0.64912044873E+02  0.10000000000E+01 0.  0.
<mgrwt>
<rscale>  0 0.12499957E+03</rscale>
<asrwt>0</asrwt>
<pdfrwt beam="1">  1        4 0.74023383E-02 0.12499957E+03</pdfrwt>
<pdfrwt beam="2">  1       -4 0.32981326E-01 0.12499957E+03</pdfrwt>
<totfact> 0.17985951E+03</totfact>
</mgrwt>
</event>
<event>
 5    1  0.1435323E-002  0.1250001E+03  0.7818608E-02  0.1235069E+00
         -4   -1    0    0    0  501 -0.00000000000E+00  0.00000000000E+00  0.13828807939E+02  0.13887002161E+02  0.12700000000E+01 0.  1.
          4   -1    0    0  501    0  0.00000000000E+00 -0.00000000000E+00 -0.28181981704E+03  0.28182267860E+03  0.12700000000E+01 0.  1.
         25    2    1    2    0    0  0.00000000000E+00  0.00000000000E+00 -0.26799100910E+03  0.29570968076E+03  0.12500013736E+03 0.  0.
    9000005    1    3    3    0    0  0.67789363522E+01 -0.13508536069E+02 -0.27744250674E+03  0.27785568030E+03  0.10000000000E+01 0.  0.
    9000005    1    3    3    0    0 -0.67789363522E+01  0.13508536069E+02  0.94514976484E+01  0.17854000465E+02  0.10000000000E+01 0.  0.
<mgrwt>
<rscale>  0 0.12500014E+03</rscale>
<asrwt>0</asrwt>
<pdfrwt beam="2">  1        4 0.70462568E-01 0.12500014E+03</pdfrwt>
<pdfrwt beam="1">  1       -4 0.34648349E-02 0.12500014E+03</pdfrwt>
<totfact> 0.13092118E+03</totfact>
</mgrwt>
</event>
<event>
 5    1  0.1435323E-002  0.1250005E+03  0.7818608E-02  0.1235068E+00
          4   -1    0    0  501    0  0.00000000000E+00  0.00000000000E+00  0.14959911510E+02  0.15013722136E+02  0.12700000000E+01 0. -1.
         -4   -1    0    0    0  501 -0.00000000000E+00 -0.00000000000E+00 -0.26059263605E+03  0.26059573071E+03  0.12700000000E+01 0. -1.
         25    2    1    2    0    0  0.00000000000E+00  0.00000000000E+00 -0.24563272454E+03  0.27560945284E+03  0.12500054053E+03 0.  0.
    9000005    1    3    3    0    0  0.10172258785E+02 -0.61383809186E+02 -0.13564195745E+03  0.14923534267E+03  0.10000000000E+01 0.  0.
    9000005    1    3    3    0    0 -0.10172258785E+02  0.61383809186E+02 -0.10999076709E+03  0.12637411018E+03  0.10000000000E+01 0.  0.
<mgrwt>
<rscale>  0 0.12500054E+03</rscale>
<asrwt>0</asrwt>
<pdfrwt beam="1">  1        4 0.37470919E-02 0.12500054E+03</pdfrwt>
<pdfrwt beam="2">  1       -4 0.65155258E-01 0.12500054E+03</pdfrwt>
<totfact> 0.13683107E+03</totfact>
</mgrwt>
</event>
<event>
 5    1  0.1435323E-002  0.1249966E+03  0.7818608E-02  0.1235075E+00
         -4   -1    0    0    0  501 -0.00000000000E+00  0.00000000000E+00  0.68772461485E+01  0.69935266201E+01  0.12700000000E+01 0.  1.
          4   -1    0    0  501    0  0.00000000000E+00 -0.00000000000E+00 -0.56308729235E+03  0.56308872455E+03  0.12700000000E+01 0.  1.
         25    2    1    2    0    0  0.00000000000E+00  0.00000000000E+00 -0.55621004621E+03  0.57008225117E+03  0.12499663033E+03 0.  0.
    9000005    1    3    3    0    0  0.40090418489E+02  0.35199256492E+02 -0.42650992612E+03  0.42983478965E+03  0.10000000000E+01 0.  0.
    9000005    1    3    3    0    0 -0.40090418489E+02 -0.35199256492E+02 -0.12970012008E+03  0.14024746152E+03  0.10000000000E+01 0.  0.
<mgrwt>
<rscale>  0 0.12499663E+03</rscale>
<asrwt>0</asrwt>
<pdfrwt beam="2">  1        4 0.14078638E+00 0.12499663E+03</pdfrwt>
<pdfrwt beam="1">  1       -4 0.17340275E-02 0.12499663E+03</pdfrwt>
<totfact> 0.77406979E+02</totfact>
</mgrwt>
</event>
<event>
 5    1  0.1435323E-002  0.1250024E+03  0.7818608E-02  0.1235066E+00
          4   -1    0    0  501    0  0.00000000000E+00  0.00000000000E+00  0.50232456865E+02  0.50248508661E+02  0.12700000000E+01 0. -1.
         -4   -1    0    0    0  501 -0.00000000000E+00 -0.00000000000E+00 -0.77732760416E+02  0.77743134371E+02  0.12700000000E+01 0. -1.
         25    2    1    2    0    0  0.00000000000E+00  0.00000000000E+00 -0.27500303551E+02  0.12799164303E+03  0.12500237594E+03 0.  0.
    9000005    1    3    3    0    0  0.23775607695E+02 -0.57471518127E+02 -0.75098552105E+01  0.62655030464E+02  0.10000000000E+01 0.  0.
    9000005    1    3    3    0    0 -0.23775607695E+02  0.57471518127E+02 -0.19990448341E+02  0.65336612569E+02  0.10000000000E+01 0.  0.
<mgrwt>
<rscale>  0 0.12500238E+03</rscale>
<asrwt>0</asrwt>
<pdfrwt beam="1">  1        4 0.12561418E-01 0.12500238E+03</pdfrwt>
<pdfrwt beam="2">  1       -4 0.19436493E-01 0.12500238E+03</pdfrwt>
<totfact> 0.19671898E+03</totfact>
</mgrwt>
</event>
<event>
 5    1  0.1435323E-002  0.1250017E+03  0.7818608E-02  0.1235067E+00
         -4   -1    0    0    0  501 -0.00000000000E+00  0.00000000000E+00  0.47836069837E+03  0.47836238423E+03  0.12700000000E+01 0.  1.
          4   -1    0    0  501    0  0.00000000000E+00 -0.00000000000E+00 -0.81150393106E+01  0.82138153749E+01  0.12700000000E+01 0.  1.
         25    2    1    2    0    0  0.00000000000E+00  0.00000000000E+00  0.47024565906E+03  0.48657619961E+03  0.12500167261E+03 0.  0.
    9000005    1    3    3    0    0  0.52223112161E+02 -0.29485732431E+02  0.16673194790E+03  0.17719256280E+03  0.10000000000E+01 0.  0.
    9000005    1    3    3    0    0 -0.52223112161E+02  0.29485732431E+02  0.30351371116E+03  0.30938363681E+03  0.10000000000E+01 0.  0.
<mgrwt>
<rscale>  0 0.12500167E+03</rscale>
<asrwt>0</asrwt>
<pdfrwt beam="2">  1        4 0.20413177E-02 0.12500167E+03</pdfrwt>
<pdfrwt beam="1">  1       -4 0.11960273E+00 0.12500167E+03</pdfrwt>
<totfact> 0.89777429E+02</totfact>
</mgrwt>
</event>
<event>
 5    1  0.1435323E-002  0.1250006E+03  0.7818608E-02  0.1235068E+00
          4   -1    0    0  501    0  0.00000000000E+00  0.00000000000E+00  0.86955022097E+02  0.86964295938E+02  0.12700000000E+01 0.  1.
         -4   -1    0    0    0  501 -0.00000000000E+00 -0.00000000000E+00 -0.44902424664E+02  0.44920381128E+02  0.12700000000E+01 0.  1.
         25    2    1    2    0    0  0.00000000000E+00  0.00000000000E+00  0.42052597433E+02  0.13188467707E+03  0.12500058837E+03 0.  0.
    9000005    1    3    3    0    0  0.10659443854E+02  0.61532395652E+02  0.23484258754E+02  0.66726080862E+02  0.10000000000E+01 0.  0.
    9000005    1    3    3    0    0 -0.10659443854E+02 -0.61532395652E+02  0.18568338679E+02  0.65158596204E+02  0.10000000000E+01 0.  0.
<mgrwt>
<rscale>  0 0.12500059E+03</rscale>
<asrwt>0</asrwt>
<pdfrwt beam="1">  1        4 0.21742159E-01 0.12500059E+03</pdfrwt>
<pdfrwt beam="2">  1       -4 0.11229010E-01 0.12500059E+03</pdfrwt>
<totfact> 0.19463322E+03</totfact>
</mgrwt>
</event>
<event>
 5    1  0.1435323E-002  0.1250057E+03  0.7818608E-02  0.1235060E+00
         -4   -1    0    0    0  501 -0.00000000000E+00  0.00000000000E+00  0.40627635444E+01  0.42566357158E+01  0.12700000000E+01 0. -1.
          4   -1    0    0  501    0  0.00000000000E+00 -0.00000000000E+00 -0.93896090176E+03  0.93896176064E+03  0.12700000000E+01 0. -1.
         25    2    1    2    0    0  0.00000000000E+00  0.00000000000E+00 -0.93489813822E+03  0.94321839635E+03  0.12500565737E+03 0.  0.
    9000005    1    3    3    0    0  0.18859155321E+02 -0.21705564901E+02 -0.88612079909E+03  0.88658776772E+03  0.10000000000E+01 0.  0.
    9000005    1    3    3    0    0 -0.18859155321E+02  0.21705564901E+02 -0.48777339123E+02  0.56630628630E+02  0.10000000000E+01 0.  0.
<mgrwt>
<rscale>  0 0.12500566E+03</rscale>
<asrwt>0</asrwt>
<pdfrwt beam="2">  1        4 0.23476384E+00 0.12500566E+03</pdfrwt>
<pdfrwt beam="1">  1       -4 0.10400355E-02 0.12500566E+03</pdfrwt>
<totfact> 0.41059852E+02</totfact>
</mgrwt>
</event>
<event>
 4    1  0.1435323E-002  0.1244872E+03  0.7818608E-02  0.1235873E+00
         -4   -1    0    0    0  501 -0.00000000000E+00  0.00000000000E+00  0.22099624545E+03  0.22099989458E+03  0.12700000000E+01 0. -1.
          4   -1    0    0  501    0  0.00000000000E+00 -0.00000000000E+00 -0.17504108152E+02  0.17550119721E+02  0.12700000000E+01 0. -1.
    9000005    1    1    2    0    0 -0.87134676521E+01 -0.55105626513E+02  0.15459843458E+03  0.16436006379E+03  0.10000000000E+01 0.  0.
    9000005    1    1    2    0    0  0.87134676521E+01  0.55105626513E+02  0.48893702716E+02  0.74189950514E+02  0.10000000000E+01 0.  0.
<mgrwt>
<rscale>  0 0.12448719E+03</rscale>
<asrwt>0</asrwt>
<pdfrwt beam="2">  1        4 0.43822346E-02 0.12448719E+03</pdfrwt>
<pdfrwt beam="1">  1       -4 0.55255269E-01 0.12448719E+03</pdfrwt>
<totfact> 0.15063729E+03</totfact>
</mgrwt>
</event>
<event>
 5    1  0.1435323E-002  0.1250010E+03  0.7818608E-02  0.1235068E+00
         -4   -1    0    0    0  501 -0.00000000000E+00  0.00000000000E+00  0.16063296141E+03  0.16063798178E+03  0.12700000000E+01 0.  1.
          4   -1    0    0  501    0  0.00000000000E+00 -0.00000000000E+00 -0.24296272315E+02  0.24329442008E+02  0.12700000000E+01 0.  1.
         25    2    1    2    0    0  0.00000000000E+00  0.00000000000E+00  0.13633668910E+03  0.18496742379E+03  0.12500102028E+03 0.  0.
    9000005    1    3    3    0    0 -0.25608117538E+02  0.51768291609E+02  0.32853293049E+02  0.66453521834E+02  0.10000000000E+01 0.  0.
    9000005    1    3    3    0    0  0.25608117538E+02 -0.51768291609E+02  0.10348339605E+03  0.11851390196E+03  0.10000000000E+01 0.  0.
<mgrwt>
<rscale>  0 0.12500102E+03</rscale>
<asrwt>0</asrwt>
<pdfrwt beam="2">  1        4 0.60788420E-02 0.12500102E+03</pdfrwt>
<pdfrwt beam="1">  1       -4 0.40163013E-01 0.12500102E+03</pdfrwt>
<totfact> 0.16941809E+03</totfact>
</mgrwt>
</event>
<event>
 5    1  0.1435323E-002  0.1250032E+03  0.7818608E-02  0.1235064E+00
          4   -1    0    0  501    0  0.00000000000E+00  0.00000000000E+00  0.60805535297E+02  0.60818796624E+02  0.12700000000E+01 0.  1.
         -4   -1    0    0    0  501 -0.00000000000E+00 -0.00000000000E+00 -0.64218454310E+02  0.64231010999E+02  0.12700000000E+01 0.  1.
         25    2    1    2    0    0  0.00000000000E+00  0.00000000000E+00 -0.34129190126E+01  0.12504980762E+03  0.12500322544E+03 0.  0.
    9000005    1    3    3    0    0 -0.40445642316E+01  0.62280625049E+02  0.14911102274E+01  0.62437634212E+02  0.10000000000E+01 0.  0.
    9000005    1    3    3    0    0  0.40445642316E+01 -0.62280625049E+02 -0.49040292400E+01  0.62612173410E+02  0.10000000000E+01 0.  0.
<mgrwt>
<rscale>  0 0.12500323E+03</rscale>
<asrwt>0</asrwt>
<pdfrwt beam="1">  1        4 0.15204611E-01 0.12500323E+03</pdfrwt>
<pdfrwt beam="2">  1       -4 0.16057841E-01 0.12500323E+03</pdfrwt>
<totfact> 0.19830858E+03</totfact>
</mgrwt>
</event>
<event>
 4    1  0.1435323E-002  0.1250656E+03  0.7818608E-02  0.1234967E+00
         -4   -1    0    0    0  501 -0.00000000000E+00  0.00000000000E+00  0.40022339436E+02  0.40042484363E+02  0.12700000000E+01 0. -1.
          4   -1    0    0  501    0  0.00000000000E+00 -0.00000000000E+00 -0.97655365776E+02  0.97663623549E+02  0.12700000000E+01 0. -1.
    9000005    1    1    2    0    0  0.58311600408E+02 -0.12652688962E+02 -0.82462702768E+01  0.60243956158E+02  0.10000000000E+01 0.  0.
    9000005    1    1    2    0    0 -0.58311600408E+02  0.12652688962E+02 -0.49386756062E+02  0.77462151754E+02  0.10000000000E+01 0.  0.
<mgrwt>
<rscale>  0 0.12506561E+03</rscale>
<asrwt>0</asrwt>
<pdfrwt beam="2">  1        4 0.24417391E-01 0.12506561E+03</pdfrwt>
<pdfrwt beam="1">  1       -4 0.10009135E-01 0.12506561E+03</pdfrwt>
<totfact> 0.19129027E+03</totfact>
</mgrwt>
</event>
<event>
 5    1  0.1435323E-002  0.1249994E+03  0.7818608E-02  0.1235070E+00
          4   -1    0    0  501    0  0.00000000000E+00  0.00000000000E+00  0.14186084286E+03  0.14186652754E+03  0.12700000000E+01 0. -1.
         -4   -1    0    0    0  501 -0.00000000000E+00 -0.00000000000E+00 -0.27514625563E+02  0.27543919835E+02  0.12700000000E+01 0. -1.
         25    2    1    2    0    0  0.00000000000E+00  0.00000000000E+00  0.11434621730E+03  0.16941044738E+03  0.12499936908E+03 0.  0.
    9000005    1    3    3    0    0 -0.47222073962E+02 -0.23843107714E+02  0.12084641124E+02  0.54272061006E+02  0.10000000000E+01 0.  0.
    9000005    1    3    3    0    0  0.47222073962E+02  0.23843107714E+02  0.10226157617E+03  0.11513838637E+03  0.10000000000E+01 0.  0.
<mgrwt>
<rscale>  0 0.12499937E+03</rscale>
<asrwt>0</asrwt>
<pdfrwt beam="1">  1        4 0.35469583E-01 0.12499937E+03</pdfrwt>
<pdfrwt beam="2">  1       -4 0.68830288E-02 0.12499937E+03</pdfrwt>
<totfact> 0.17623929E+03</totfact>
</mgrwt>
</event>
<event>
 5    1  0.1435323E-002  0.1250002E+03  0.7818608E-02  0.1235069E+00
          4   -1    0    0  501    0  0.00000000000E+00  0.00000000000E+00  0.77660499765E+01  0.78692078533E+01  0.12700000000E+01 0.  1.
         -4   -1    0    0    0  501 -0.00000000000E+00 -0.00000000000E+00 -0.49956997853E+03  0.49957159281E+03  0.12700000000E+01 0.  1.
         25    2    1    2    0    0  0.00000000000E+00  0.00000000000E+00 -0.49180392855E+03  0.50744080067E+03  0.12500024817E+03 0.  0.
    9000005    1    3    3    0    0 -0.20528629668E+02 -0.57995575435E+02 -0.29043732368E+03  0.29688339528E+03  0.10000000000E+01 0.  0.
    9000005    1    3    3    0    0  0.20528629668E+02  0.57995575435E+02 -0.20136660487E+03  0.21055740538E+03  0.10000000000E+01 0.  0.
<mgrwt>
<rscale>  0 0.12500025E+03</rscale>
<asrwt>0</asrwt>
<pdfrwt beam="1">  1        4 0.19546107E-02 0.12500025E+03</pdfrwt>
<pdfrwt beam="2">  1       -4 0.12490548E+00 0.12500025E+03</pdfrwt>
<totfact> 0.86435034E+02</totfact>
</mgrwt>
</event>
<event>
 5    1  0.1435323E-002  0.1249968E+03  0.7818608E-02  0.1235074E+00
          4   -1    0    0  501    0  0.00000000000E+00  0.00000000000E+00  0.35235571135E+03  0.35235800008E+03  0.12700000000E+01 0. -1.
         -4   -1    0    0    0  501 -0.00000000000E+00 -0.00000000000E+00 -0.11046831538E+02  0.11119594734E+02  0.12700000000E+01 0. -1.
         25    2    1    2    0    0  0.00000000000E+00  0.00000000000E+00  0.34130887982E+03  0.36347759482E+03  0.12499684194E+03 0.  0.
    9000005    1    3    3    0    0  0.26714455705E+02 -0.56213355343E+02  0.18696178029E+03  0.19705154339E+03  0.10000000000E+01 0.  0.
    9000005    1    3    3    0    0 -0.26714455705E+02  0.56213355343E+02  0.15434709953E+03  0.16642605143E+03  0.10000000000E+01 0.  0.
<mgrwt>
<rscale>  0 0.12499684E+03</rscale>
<asrwt>0</asrwt>
<pdfrwt beam="1">  1        4 0.88098303E-01 0.12499684E+03</pdfrwt>
<pdfrwt beam="2">  1       -4 0.27710896E-02 0.12499684E+03</pdfrwt>
<totfact> 0.11363166E+03</totfact>
</mgrwt>
</event>
<event>
 5    1  0.1435323E-002  0.1249990E+03  0.7818608E-02  0.1235071E+00
          4   -1    0    0  501    0  0.00000000000E+00  0.00000000000E+00  0.29164618300E+03  0.29164894815E+03  0.12700000000E+01 0. -1.
         -4   -1    0    0    0  501 -0.00000000000E+00 -0.00000000000E+00 -0.13360641310E+02  0.13420865703E+02  0.12700000000E+01 0. -1.
         25    2    1    2    0    0  0.00000000000E+00  0.00000000000E+00  0.27828554169E+03  0.30506981385E+03  0.12499899444E+03 0.  0.
    9000005    1    3    3    0    0 -0.51948396581E+02  0.24480114768E+02  0.78999713697E+02  0.97672241147E+02  0.10000000000E+01 0.  0.
    9000005    1    3    3    0    0  0.51948396581E+02 -0.24480114768E+02  0.19928582799E+03  0.20739757270E+03  0.10000000000E+01 0.  0.
<mgrwt>
<rscale>  0 0.12499899E+03</rscale>
<asrwt>0</asrwt>
<pdfrwt beam="1">  1        4 0.72919421E-01 0.12499899E+03</pdfrwt>
<pdfrwt beam="2">  1       -4 0.33480340E-02 0.12499899E+03</pdfrwt>
<totfact> 0.12830441E+03</totfact>
</mgrwt>
</event>
<event>
 5    1  0.1435323E-002  0.1249999E+03  0.7818608E-02  0.1235069E+00
         -4   -1    0    0    0  501 -0.00000000000E+00  0.00000000000E+00  0.10605456112E+03  0.10606216495E+03  0.12700000000E+01 0. -1.
          4   -1    0    0  501    0  0.00000000000E+00 -0.00000000000E+00 -0.36812542020E+02  0.36834442442E+02  0.12700000000E+01 0. -1.
         25    2    1    2    0    0  0.00000000000E+00  0.00000000000E+00  0.69242019101E+02  0.14289660740E+03  0.12499993278E+03 0.  0.
    9000005    1    3    3    0    0  0.53297204758E+02  0.39752465640E+01 -0.24017745018E+01  0.53508533348E+02  0.10000000000E+01 0.  0.
    9000005    1    3    3    0    0 -0.53297204758E+02 -0.39752465640E+01  0.71643793603E+02  0.89388074049E+02  0.10000000000E+01 0.  0.
<mgrwt>
<rscale>  0 0.12499993E+03</rscale>
<asrwt>0</asrwt>
<pdfrwt beam="2">  1        4 0.92068236E-02 0.12499993E+03</pdfrwt>
<pdfrwt beam="1">  1       -4 0.26517328E-01 0.12499993E+03</pdfrwt>
<totfact> 0.18893153E+03</totfact>
</mgrwt>
</event>
<event>
 5    1  0.1435323E-002  0.1250018E+03  0.7818608E-02  0.1235067E+00
         -4   -1    0    0    0  501 -0.00000000000E+00  0.00000000000E+00  0.82838957594E+02  0.82848692176E+02  0.12700000000E+01 0. -1.
          4   -1    0    0  501    0  0.00000000000E+00 -0.00000000000E+00 -0.47135017815E+02  0.47152124071E+02  0.12700000000E+01 0. -1.
         25    2    1    2    0    0  0.00000000000E+00  0.00000000000E+00  0.35703939779E+02  0.13000081625E+03  0.12500176362E+03 0.  0.
    9000005    1    3    3    0    0  0.59450754052E+01  0.39547482493E+02  0.67793380868E+02  0.78716515311E+02  0.10000000000E+01 0.  0.
    9000005    1    3    3    0    0 -0.59450754052E+01 -0.39547482493E+02 -0.32089441089E+02  0.51284300936E+02  0.10000000000E+01 0.  0.
<mgrwt>
<rscale>  0 0.12500176E+03</rscale>
<asrwt>0</asrwt>
<pdfrwt beam="2">  1        4 0.11787110E-01 0.12500176E+03</pdfrwt>
<pdfrwt beam="1">  1       -4 0.20713094E-01 0.12500176E+03</pdfrwt>
<totfact> 0.19563533E+03</totfact>
</mgrwt>
</event>
<event>
 5    1  0.1435323E-002  0.1250006E+03  0.7818608E-02  0.1235068E+00
         -4   -1    0    0    0  501 -0.00000000000E+00  0.00000000000E+00  0.13454901422E+02  0.13514705779E+02  0.12700000000E+01 0. -1.
          4   -1    0    0  501    0  0.00000000000E+00 -0.00000000000E+00 -0.28961956972E+03  0.28962235422E+03  0.12700000000E+01 0. -1.
         25    2    1    2    0    0  0.00000000000E+00  0.00000000000E+00 -0.27616466829E+03  0.30313706000E+03  0.12500061252E+03 0.  0.
    9000005    1    3    3    0    0  0.35725641299E+02  0.74744444200E+01 -0.26109651663E+03  0.26363721240E+03  0.10000000000E+01 0.  0.
    9000005    1    3    3    0    0 -0.35725641299E+02 -0.74744444200E+01 -0.15068151664E+02  0.39499847597E+02  0.10000000000E+01 0.  0.
<mgrwt>
<rscale>  0 0.12500061E+03</rscale>
<asrwt>0</asrwt>
<pdfrwt beam="2">  1        4 0.72412696E-01 0.12500061E+03</pdfrwt>
<pdfrwt beam="1">  1       -4 0.33715499E-02 0.12500061E+03</pdfrwt>
<totfact> 0.12883409E+03</totfact>
</mgrwt>
</event>
<event>
 5    1  0.1435323E-002  0.1250006E+03  0.7818608E-02  0.1235068E+00
          4   -1    0    0  501    0  0.00000000000E+00  0.00000000000E+00  0.52927593597E+02  0.52942828258E+02  0.12700000000E+01 0.  1.
         -4   -1    0    0    0  501 -0.00000000000E+00 -0.00000000000E+00 -0.73773073230E+02  0.73784003915E+02  0.12700000000E+01 0.  1.
         25    2    1    2    0    0  0.00000000000E+00  0.00000000000E+00 -0.20845479633E+02  0.12672683217E+03  0.12500062388E+03 0.  0.
    9000005    1    3    3    0    0  0.40407519581E+02  0.22124046881E+02  0.32386538235E+02  0.56321656118E+02  0.10000000000E+01 0.  0.
    9000005    1    3    3    0    0 -0.40407519581E+02 -0.22124046881E+02 -0.53232017868E+02  0.70405176055E+02  0.10000000000E+01 0.  0.
<mgrwt>
<rscale>  0 0.12500062E+03</rscale>
<asrwt>0</asrwt>
<pdfrwt beam="1">  1        4 0.13235169E-01 0.12500062E+03</pdfrwt>
<pdfrwt beam="2">  1       -4 0.18446539E-01 0.12500062E+03</pdfrwt>
<totfact> 0.19741406E+03</totfact>
</mgrwt>
</event>
<event>
 5    1  0.1435323E-002  0.1249993E+03  0.7818608E-02  0.1235070E+00
          4   -1    0    0  501    0  0.00000000000E+00  0.00000000000E+00  0.30317001202E+02  0.30343590128E+02  0.12700000000E+01 0.  1.
         -4   -1    0    0    0  501 -0.00000000000E+00 -0.00000000000E+00 -0.12875926726E+03  0.12876553035E+03  0.12700000000E+01 0.  1.
         25    2    1    2    0    0  0.00000000000E+00  0.00000000000E+00 -0.98442266063E+02  0.15910912048E+03  0.12499932989E+03 0.  0.
    9000005    1    3    3    0    0  0.70780608239E+01 -0.32981269641E+02  0.17739422013E+02  0.38125453250E+02  0.10000000000E+01 0.  0.
    9000005    1    3    3    0    0 -0.70780608239E+01  0.32981269641E+02 -0.11618168808E+03  0.12098366723E+03  0.10000000000E+01 0.  0.
<mgrwt>
<rscale>  0 0.12499933E+03</rscale>
<asrwt>0</asrwt>
<pdfrwt beam="1">  1        4 0.75833571E-02 0.12499933E+03</pdfrwt>
<pdfrwt beam="2">  1       -4 0.32193922E-01 0.12499933E+03</pdfrwt>
<totfact> 0.18100043E+03</totfact>
</mgrwt>
</event>
<event>
 5    1  0.1435323E-002  0.1250019E+03  0.7818608E-02  0.1235066E+00
          4   -1    0    0  501    0  0.00000000000E+00  0.00000000000E+00  0.88916634734E+02  0.88925704003E+02  0.12700000000E+01 0. -1.
         -4   -1    0    0    0  501 -0.00000000000E+00 -0.00000000000E+00 -0.43912448970E+02  0.43930810083E+02  0.12700000000E+01 0. -1.
         25    2    1    2    0    0  0.00000000000E+00  0.00000000000E+00  0.45004185763E+02  0.13285651409E+03  0.12500190638E+03 0.  0.
    9000005    1    3    3    0    0 -0.56414116056E+02  0.21850051811E+02  0.39151406117E+02  0.72068091799E+02  0.10000000000E+01 0.  0.
    9000005    1    3    3    0    0  0.56414116056E+02 -0.21850051811E+02  0.58527796467E+01  0.60788422287E+02  0.10000000000E+01 0.  0.
<mgrwt>
<rscale>  0 0.12500191E+03</rscale>
<asrwt>0</asrwt>
<pdfrwt beam="1">  1        4 0.22232587E-01 0.12500191E+03</pdfrwt>
<pdfrwt beam="2">  1       -4 0.10981541E-01 0.12500191E+03</pdfrwt>
<totfact> 0.19411145E+03</totfact>
</mgrwt>
</event>
<event>
 5    1  0.1435323E-002  0.1250016E+03  0.7818608E-02  0.1235067E+00
         -4   -1    0    0    0  501 -0.00000000000E+00  0.00000000000E+00  0.99955215902E+01  0.10075879707E+02  0.12700000000E+01 0.  1.
          4   -1    0    0  501    0  0.00000000000E+00 -0.00000000000E+00 -0.38916371705E+03  0.38916578931E+03  0.12700000000E+01 0.  1.
         25    2    1    2    0    0  0.00000000000E+00  0.00000000000E+00 -0.37916819546E+03  0.39924166902E+03  0.12500155931E+03 0.  0.
    9000005    1    3    3    0    0  0.12195110004E+02 -0.24420649385E+02 -0.36913258278E+03  0.37014180052E+03  0.10000000000E+01 0.  0.
    9000005    1    3    3    0    0 -0.12195110004E+02  0.24420649385E+02 -0.10035612679E+02  0.29099868492E+02  0.10000000000E+01 0.  0.
<mgrwt>
<rscale>  0 0.12500156E+03</rscale>
<asrwt>0</asrwt>
<pdfrwt beam="2">  1        4 0.97301183E-01 0.12500156E+03</pdfrwt>
<pdfrwt beam="1">  1       -4 0.25091855E-02 0.12500156E+03</pdfrwt>
<totfact> 0.10584465E+03</totfact>
</mgrwt>
</event>
<event>
 5    1  0.1435323E-002  0.1249966E+03  0.7818608E-02  0.1235075E+00
          4   -1    0    0  501    0  0.00000000000E+00  0.00000000000E+00  0.22203432095E+02  0.22239723397E+02  0.12700000000E+01 0. -1.
         -4   -1    0    0    0  501 -0.00000000000E+00 -0.00000000000E+00 -0.17573822307E+03  0.17574281194E+03  0.12700000000E+01 0. -1.
         25    2    1    2    0    0  0.00000000000E+00  0.00000000000E+00 -0.15353479098E+03  0.19798253534E+03  0.12499660899E+03 0.  0.
    9000005    1    3    3    0    0 -0.55284641048E+02  0.23930254981E+02 -0.10308066847E+03  0.11939712246E+03  0.10000000000E+01 0.  0.
    9000005    1    3    3    0    0  0.55284641048E+02 -0.23930254981E+02 -0.50454122510E+02  0.78585412880E+02  0.10000000000E+01 0.  0.
<mgrwt>
<rscale>  0 0.12499661E+03</rscale>
<asrwt>0</asrwt>
<pdfrwt beam="1">  1        4 0.55559686E-02 0.12499661E+03</pdfrwt>
<pdfrwt beam="2">  1       -4 0.43939662E-01 0.12499661E+03</pdfrwt>
<totfact> 0.16404430E+03</totfact>
</mgrwt>
</event>
<event>
 5    1  0.1435323E-002  0.1249978E+03  0.7818608E-02  0.1235073E+00
          4   -1    0    0  501    0  0.00000000000E+00  0.00000000000E+00  0.28720080482E+03  0.28720361277E+03  0.12700000000E+01 0. -1.
         -4   -1    0    0    0  501 -0.00000000000E+00 -0.00000000000E+00 -0.13568110515E+02  0.13627418059E+02  0.12700000000E+01 0. -1.
         25    2    1    2    0    0  0.00000000000E+00  0.00000000000E+00  0.27363269431E+03  0.30083103083E+03  0.12499783086E+03 0.  0.
    9000005    1    3    3    0    0 -0.32204882081E+02 -0.22386676195E+02  0.25390117871E+03  0.25691462833E+03  0.10000000000E+01 0.  0.
    9000005    1    3    3    0    0  0.32204882081E+02  0.22386676195E+02  0.19731515597E+02  0.43916402501E+02  0.10000000000E+01 0.  0.
<mgrwt>
<rscale>  0 0.12499783E+03</rscale>
<asrwt>0</asrwt>
<pdfrwt beam="1">  1        4 0.71807968E-01 0.12499783E+03</pdfrwt>
<pdfrwt beam="2">  1       -4 0.33997919E-02 0.12499783E+03</pdfrwt>
<totfact> 0.12948440E+03</totfact>
</mgrwt>
</event>
<event>
 5    1  0.1435323E-002  0.1249988E+03  0.7818608E-02  0.1235071E+00
         -4   -1    0    0    0  501 -0.00000000000E+00  0.00000000000E+00  0.31254104865E+03  0.31254362894E+03  0.12700000000E+01 0.  1.
          4   -1    0    0  501    0  0.00000000000E+00 -0.00000000000E+00 -0.12463225315E+02  0.12527764575E+02  0.12700000000E+01 0.  1.
         25    2    1    2    0    0  0.00000000000E+00  0.00000000000E+00  0.30007782333E+03  0.32507139351E+03  0.12499884329E+03 0.  0.
    9000005    1    3    3    0    0  0.49353373799E+02 -0.39191704570E+01  0.50872575806E+02  0.70993903763E+02  0.10000000000E+01 0.  0.
    9000005    1    3    3    0    0 -0.49353373799E+02  0.39191704570E+01  0.24920524753E+03  0.25407748975E+03  0.10000000000E+01 0.  0.
<mgrwt>
<rscale>  0 0.12499884E+03</rscale>
<asrwt>0</asrwt>
<pdfrwt beam="2">  1        4 0.31241961E-02 0.12499884E+03</pdfrwt>
<pdfrwt beam="1">  1       -4 0.78143655E-01 0.12499884E+03</pdfrwt>
<totfact> 0.12296702E+03</totfact>
</mgrwt>
</event>
<event>
 5    1  0.1435323E-002  0.1249964E+03  0.7818608E-02  0.1235075E+00
          4   -1    0    0  501    0  0.00000000000E+00  0.00000000000E+00  0.83386238809E+02  0.83395909509E+02  0.12700000000E+01 0. -1.
         -4   -1    0    0    0  501 -0.00000000000E+00 -0.00000000000E+00 -0.46821563360E+02  0.46838784095E+02  0.12700000000E+01 0. -1.
         25    2    1    2    0    0  0.00000000000E+00  0.00000000000E+00  0.36564675449E+02  0.13023469360E+03  0.12499639966E+03 0.  0.
    9000005    1    3    3    0    0  0.37616843293E+02 -0.12432377317E+02 -0.32069229764E+02  0.50980647336E+02  0.10000000000E+01 0.  0.
    9000005    1    3    3    0    0 -0.37616843293E+02  0.12432377317E+02  0.68633905213E+02  0.79254046268E+02  0.10000000000E+01 0.  0.
<mgrwt>
<rscale>  0 0.12499640E+03</rscale>
<asrwt>0</asrwt>
<pdfrwt beam="1">  1        4 0.20849921E-01 0.12499640E+03</pdfrwt>
<pdfrwt beam="2">  1       -4 0.11708752E-01 0.12499640E+03</pdfrwt>
<totfact> 0.19553417E+03</totfact>
</mgrwt>
</event>
<event>
 5    1  0.1435323E-002  0.1250015E+03  0.7818608E-02  0.1235067E+00
          4   -1    0    0  501    0  0.00000000000E+00  0.00000000000E+00  0.51038687432E+01  0.52595034127E+01  0.12700000000E+01 0.  1.
         -4   -1    0    0    0  501 -0.00000000000E+00 -0.00000000000E+00 -0.75371892493E+03  0.75371999489E+03  0.12700000000E+01 0.  1.
         25    2    1    2    0    0  0.00000000000E+00  0.00000000000E+00 -0.74861505619E+03  0.75897949831E+03  0.12500150597E+03 0.  0.
    9000005    1    3    3    0    0 -0.15401670114E+02  0.14464190248E+02 -0.17211474311E+02  0.27270113490E+02  0.10000000000E+01 0.  0.
    9000005    1    3    3    0    0  0.15401670114E+02 -0.14464190248E+02 -0.73140358188E+03  0.73170938481E+03  0.10000000000E+01 0.  0.
<mgrwt>
<rscale>  0 0.12500151E+03</rscale>
<asrwt>0</asrwt>
<pdfrwt beam="1">  1        4 0.12955578E-02 0.12500151E+03</pdfrwt>
<pdfrwt beam="2">  1       -4 0.18844895E+00 0.12500151E+03</pdfrwt>
<totfact> 0.56217559E+02</totfact>
</mgrwt>
</event>
<event>
 5    1  0.1435323E-002  0.1249994E+03  0.7818608E-02  0.1235070E+00
         -4   -1    0    0    0  501 -0.00000000000E+00  0.00000000000E+00  0.92230189822E+02  0.92238933290E+02  0.12700000000E+01 0. -1.
          4   -1    0    0  501    0  0.00000000000E+00 -0.00000000000E+00 -0.42332579117E+02  0.42351625172E+02  0.12700000000E+01 0. -1.
         25    2    1    2    0    0  0.00000000000E+00  0.00000000000E+00  0.49897610705E+02  0.13459055846E+03  0.12499938749E+03 0.  0.
    9000005    1    3    3    0    0  0.15890410065E+02 -0.46697598388E+02  0.66259894714E+02  0.82610801199E+02  0.10000000000E+01 0.  0.
    9000005    1    3    3    0    0 -0.15890410065E+02  0.46697598388E+02 -0.16362284009E+02  0.51979757264E+02  0.10000000000E+01 0.  0.
<mgrwt>
<rscale>  0 0.12499939E+03</rscale>
<asrwt>0</asrwt>
<pdfrwt beam="2">  1        4 0.10586619E-01 0.12499939E+03</pdfrwt>
<pdfrwt beam="1">  1       -4 0.23061021E-01 0.12499939E+03</pdfrwt>
<totfact> 0.19320881E+03</totfact>
</mgrwt>
</event>
<event>
 5    1  0.1435323E-002  0.1250008E+03  0.7818608E-02  0.1235068E+00
         -4   -1    0    0    0  501 -0.00000000000E+00  0.00000000000E+00  0.51633356690E+01  0.53172300337E+01  0.12700000000E+01 0.  1.
          4   -1    0    0  501    0  0.00000000000E+00 -0.00000000000E+00 -0.74528285024E+03  0.74528393231E+03  0.12700000000E+01 0.  1.
         25    2    1    2    0    0  0.00000000000E+00  0.00000000000E+00 -0.74011951457E+03  0.75060116234E+03  0.12500083626E+03 0.  0.
    9000005    1    3    3    0    0  0.22050313186E+02  0.50699372627E+02 -0.54498926365E+03  0.54778731291E+03  0.10000000000E+01 0.  0.
    9000005    1    3    3    0    0 -0.22050313186E+02 -0.50699372627E+02 -0.19513025092E+03  0.20281384943E+03  0.10000000000E+01 0.  0.
<mgrwt>
<rscale>  0 0.12500084E+03</rscale>
<asrwt>0</asrwt>
<pdfrwt beam="2">  1        4 0.18633972E+00 0.12500084E+03</pdfrwt>
<pdfrwt beam="1">  1       -4 0.13102085E-02 0.12500084E+03</pdfrwt>
<totfact> 0.57011947E+02</totfact>
</mgrwt>
</event>
<event>
 5    1  0.1435323E-002  0.1250013E+03  0.7818608E-02  0.1235067E+00
         -4   -1    0    0    0  501 -0.00000000000E+00  0.00000000000E+00  0.59616845126E+02  0.59630370809E+02  0.12700000000E+01 0. -1.
          4   -1    0    0  501    0  0.00000000000E+00 -0.00000000000E+00 -0.65496875700E+02  0.65509187344E+02  0.12700000000E+01 0. -1.
         25    2    1    2    0    0  0.00000000000E+00  0.00000000000E+00 -0.58800305740E+01  0.12513955815E+03  0.12500133701E+03 0.  0.
    9000005    1    3    3    0    0  0.47265030445E+02  0.34724216523E+02  0.18661129409E+02  0.61554789147E+02  0.10000000000E+01 0.  0.
    9000005    1    3    3    0    0 -0.47265030445E+02 -0.34724216523E+02 -0.24541159984E+02  0.63584769005E+02  0.10000000000E+01 0.  0.
<mgrwt>
<rscale>  0 0.12500134E+03</rscale>
<asrwt>0</asrwt>
<pdfrwt beam="2">  1        4 0.16377449E-01 0.12500134E+03</pdfrwt>
<pdfrwt beam="1">  1       -4 0.14907441E-01 0.12500134E+03</pdfrwt>
<totfact> 0.19826868E+03</totfact>
</mgrwt>
</event>
<event>
 5    1  0.1435323E-002  0.1249990E+03  0.7818608E-02  0.1235071E+00
         -4   -1    0    0    0  501 -0.00000000000E+00  0.00000000000E+00  0.10104848623E+03  0.10105646674E+03  0.12700000000E+01 0.  1.
          4   -1    0    0  501    0  0.00000000000E+00 -0.00000000000E+00 -0.38636626095E+02  0.38657493141E+02  0.12700000000E+01 0.  1.
         25    2    1    2    0    0  0.00000000000E+00  0.00000000000E+00  0.62411860137E+02  0.13971395988E+03  0.12499900119E+03 0.  0.
    9000005    1    3    3    0    0 -0.22087900889E+02 -0.51010427287E+02 -0.70785147864E+00  0.55600720422E+02  0.10000000000E+01 0.  0.
    9000005    1    3    3    0    0  0.22087900889E+02  0.51010427287E+02  0.63119711616E+02  0.84113239458E+02  0.10000000000E+01 0.  0.
<mgrwt>
<rscale>  0 0.12499900E+03</rscale>
<asrwt>0</asrwt>
<pdfrwt beam="2">  1        4 0.96627626E-02 0.12499900E+03</pdfrwt>
<pdfrwt beam="1">  1       -4 0.25265727E-01 0.12499900E+03</pdfrwt>
<totfact> 0.19055429E+03</totfact>
</mgrwt>
</event>
<event>
 5    1  0.1435323E-002  0.1249999E+03  0.7818608E-02  0.1235069E+00
         -4   -1    0    0    0  501 -0.00000000000E+00  0.00000000000E+00  0.28419274397E+02  0.28447637112E+02  0.12700000000E+01 0. -1.
          4   -1    0    0  501    0  0.00000000000E+00 -0.00000000000E+00 -0.13735057425E+03  0.13735644560E+03  0.12700000000E+01 0. -1.
         25    2    1    2    0    0  0.00000000000E+00  0.00000000000E+00 -0.10893129985E+03  0.16580408271E+03  0.12499986302E+03 0.  0.
    9000005    1    3    3    0    0  0.24225327561E+02  0.56866282509E+02 -0.66666021686E+02  0.90917539723E+02  0.10000000000E+01 0.  0.
    9000005    1    3    3    0    0 -0.24225327561E+02 -0.56866282509E+02 -0.42265278169E+02  0.74886542986E+02  0.10000000000E+01 0.  0.
<mgrwt>
<rscale>  0 0.12499986E+03</rscale>
<asrwt>0</asrwt>
<pdfrwt beam="2">  1        4 0.34341921E-01 0.12499986E+03</pdfrwt>
<pdfrwt beam="1">  1       -4 0.71090982E-02 0.12499986E+03</pdfrwt>
<totfact> 0.17788035E+03</totfact>
</mgrwt>
</event>
<event>
 5    1  0.1435323E-002  0.1250008E+03  0.7818608E-02  0.1235068E+00
         -4   -1    0    0    0  501 -0.00000000000E+00  0.00000000000E+00  0.11955595696E+02  0.12022860244E+02  0.12700000000E+01 0.  1.
          4   -1    0    0  501    0  0.00000000000E+00 -0.00000000000E+00 -0.32574912063E+03  0.32575159630E+03  0.12700000000E+01 0.  1.
         25    2    1    2    0    0  0.00000000000E+00  0.00000000000E+00 -0.31379352493E+03  0.33777445654E+03  0.12500082880E+03 0.  0.
    9000005    1    3    3    0    0  0.22473058088E+02 -0.39785268008E+02 -0.41700421520E+02  0.61869467795E+02  0.10000000000E+01 0.  0.
    9000005    1    3    3    0    0 -0.22473058088E+02  0.39785268008E+02 -0.27209310341E+03  0.27590498874E+03  0.10000000000E+01 0.  0.
<mgrwt>
<rscale>  0 0.12500083E+03</rscale>
<asrwt>0</asrwt>
<pdfrwt beam="2">  1        4 0.81445968E-01 0.12500083E+03</pdfrwt>
<pdfrwt beam="1">  1       -4 0.29976175E-02 0.12500083E+03</pdfrwt>
<totfact> 0.11974491E+03</totfact>
</mgrwt>
</event>
<event>
 5    1  0.1435323E-002  0.1250001E+03  0.7818608E-02  0.1235069E+00
         -4   -1    0    0    0  501 -0.00000000000E+00  0.00000000000E+00  0.15749639882E+03  0.15750151917E+03  0.12700000000E+01 0. -1.
          4   -1    0    0  501    0  0.00000000000E+00 -0.00000000000E+00 -0.24780414082E+02  0.24812936587E+02  0.12700000000E+01 0. -1.
         25    2    1    2    0    0  0.00000000000E+00  0.00000000000E+00  0.13271598474E+03  0.18231445576E+03  0.12500011269E+03 0.  0.
    9000005    1    3    3    0    0  0.20888465577E+02 -0.58896139739E+02  0.66965990184E+02  0.91599820478E+02  0.10000000000E+01 0.  0.
    9000005    1    3    3    0    0 -0.20888465577E+02  0.58896139739E+02  0.65749994551E+02  0.90714635279E+02  0.10000000000E+01 0.  0.
<mgrwt>
<rscale>  0 0.12500011E+03</rscale>
<asrwt>0</asrwt>
<pdfrwt beam="2">  1        4 0.61998090E-02 0.12500011E+03</pdfrwt>
<pdfrwt beam="1">  1       -4 0.39378804E-01 0.12500011E+03</pdfrwt>
<totfact> 0.17055458E+03</totfact>
</mgrwt>
</event>
<event>
 5    1  0.1435323E-002  0.1249963E+03  0.7818608E-02  0.1235075E+00
          4   -1    0    0  501    0  0.00000000000E+00  0.00000000000E+00  0.62031642810E+02  0.62044642071E+02  0.12700000000E+01 0. -1.
         -4   -1    0    0    0  501 -0.00000000000E+00 -0.00000000000E+00 -0.62942179340E+02  0.62954990589E+02  0.12700000000E+01 0. -1.
         25    2    1    2    0    0  0.00000000000E+00  0.00000000000E+00 -0.91053653023E+00  0.12499963266E+03  0.12499631630E+03 0.  0.
    9000005    1    3    3    0    0 -0.35008351277E+02  0.35929405990E+02 -0.37719011746E+02  0.62771257125E+02  0.10000000000E+01 0.  0.
    9000005    1    3    3    0    0  0.35008351277E+02 -0.35929405990E+02  0.36808475216E+02  0.62228375535E+02  0.10000000000E+01 0.  0.
<mgrwt>
<rscale>  0 0.12499632E+03</rscale>
<asrwt>0</asrwt>
<pdfrwt beam="1">  1        4 0.15511137E-01 0.12499632E+03</pdfrwt>
<pdfrwt beam="2">  1       -4 0.15738771E-01 0.12499632E+03</pdfrwt>
<totfact> 0.19836785E+03</totfact>
</mgrwt>
</event>
<event>
 5    1  0.1435323E-002  0.1250101E+03  0.7818608E-02  0.1235054E+00
          4   -1    0    0  501    0  0.00000000000E+00  0.00000000000E+00  0.86413585975E+03  0.86413679300E+03  0.12700000000E+01 0.  1.
         -4   -1    0    0    0  501 -0.00000000000E+00 -0.00000000000E+00 -0.44310005055E+01  0.46094105350E+01  0.12700000000E+01 0.  1.
         25    2    1    2    0    0  0.00000000000E+00  0.00000000000E+00  0.85970485925E+03  0.86874620353E+03  0.12501008414E+03 0.  0.
    9000005    1    3    3    0    0 -0.33872185569E+02  0.27532211169E+02  0.74068083260E+03  0.74196660531E+03  0.10000000000E+01 0.  0.
    9000005    1    3    3    0    0  0.33872185569E+02 -0.27532211169E+02  0.11902402664E+03  0.12677959822E+03  0.10000000000E+01 0.  0.
<mgrwt>
<rscale>  0 0.12501008E+03</rscale>
<asrwt>0</asrwt>
<pdfrwt beam="1">  1        4 0.21605634E+00 0.12501008E+03</pdfrwt>
<pdfrwt beam="2">  1       -4 0.11301683E-02 0.12501008E+03</pdfrwt>
<totfact> 0.46703212E+02</totfact>
</mgrwt>
</event>
<event>
 4    1  0.1435323E-002  0.1250865E+03  0.7818608E-02  0.1234934E+00
         -4   -1    0    0    0  501 -0.00000000000E+00  0.00000000000E+00  0.54988596316E+01  0.56436120745E+01  0.12700000000E+01 0. -1.
          4   -1    0    0  501    0  0.00000000000E+00 -0.00000000000E+00 -0.70197087477E+03  0.70197202360E+03  0.12700000000E+01 0. -1.
    9000005    1    1    2    0    0  0.51703408786E+02  0.34470511662E+02 -0.30855766136E+03  0.31475433125E+03  0.10000000000E+01 0.  0.
    9000005    1    1    2    0    0 -0.51703408786E+02 -0.34470511662E+02 -0.38791435377E+03  0.39286130443E+03  0.10000000000E+01 0.  0.
<mgrwt>
<rscale>  0 0.12508645E+03</rscale>
<asrwt>0</asrwt>
<pdfrwt beam="2">  1        4 0.17551065E+00 0.12508645E+03</pdfrwt>
<pdfrwt beam="1">  1       -4 0.13929550E-02 0.12508645E+03</pdfrwt>
<totfact> 0.61156147E+02</totfact>
</mgrwt>
</event>
<event>
 5    1  0.1435323E-002  0.1249970E+03  0.7818608E-02  0.1235074E+00
          4   -1    0    0  501    0  0.00000000000E+00  0.00000000000E+00  0.12968702649E+03  0.12969324478E+03  0.12700000000E+01 0. -1.
         -4   -1    0    0    0  501 -0.00000000000E+00 -0.00000000000E+00 -0.30098825078E+02  0.30125606568E+02  0.12700000000E+01 0. -1.
         25    2    1    2    0    0  0.00000000000E+00  0.00000000000E+00  0.99588201417E+02  0.15981885135E+03  0.12499702150E+03 0.  0.
    9000005    1    3    3    0    0 -0.20753117203E+02  0.58919564479E+02  0.47632998023E+02  0.78562773962E+02  0.10000000000E+01 0.  0.
    9000005    1    3    3    0    0  0.20753117203E+02 -0.58919564479E+02  0.51955203394E+02  0.81256077383E+02  0.10000000000E+01 0.  0.
<mgrwt>
<rscale>  0 0.12499702E+03</rscale>
<asrwt>0</asrwt>
<pdfrwt beam="1">  1        4 0.32425881E-01 0.12499702E+03</pdfrwt>
<pdfrwt beam="2">  1       -4 0.75288314E-02 0.12499702E+03</pdfrwt>
<totfact> 0.18067533E+03</totfact>
</mgrwt>
</event>
<event>
 5    1  0.1435323E-002  0.1249747E+03  0.7818608E-02  0.1235109E+00
         -4   -1    0    0    0  501 -0.00000000000E+00  0.00000000000E+00  0.10954537225E+03  0.10955273379E+03  0.12700000000E+01 0.  1.
          4   -1    0    0  501    0  0.00000000000E+00 -0.00000000000E+00 -0.35624455790E+02  0.35647086141E+02  0.12700000000E+01 0.  1.
         25    2    1    2    0    0  0.00000000000E+00  0.00000000000E+00  0.73920916462E+02  0.14519981993E+03  0.12497474072E+03 0.  0.
    9000005    1    3    3    0    0  0.24121638854E+00  0.61334832857E+02  0.50788302995E+02  0.79639636037E+02  0.10000000000E+01 0.  0.
    9000005    1    3    3    0    0 -0.24121638854E+00 -0.61334832857E+02  0.23132613467E+02  0.65560183898E+02  0.10000000000E+01 0.  0.
<mgrwt>
<rscale>  0 0.12497474E+03</rscale>
<asrwt>0</asrwt>
<pdfrwt beam="2">  1        4 0.89098630E-02 0.12497474E+03</pdfrwt>
<pdfrwt beam="1">  1       -4 0.27390092E-01 0.12497474E+03</pdfrwt>
<totfact> 0.18788393E+03</totfact>
</mgrwt>
</event>
<event>
 5    1  0.1435323E-002  0.1250042E+03  0.7818608E-02  0.1235063E+00
          4   -1    0    0  501    0  0.00000000000E+00  0.00000000000E+00  0.11071761050E+03  0.11072489411E+03  0.12700000000E+01 0.  1.
         -4   -1    0    0    0  501 -0.00000000000E+00 -0.00000000000E+00 -0.35263678019E+02  0.35286539749E+02  0.12700000000E+01 0.  1.
         25    2    1    2    0    0  0.00000000000E+00  0.00000000000E+00  0.75453932483E+02  0.14601143386E+03  0.12500417149E+03 0.  0.
    9000005    1    3    3    0    0 -0.61940034031E+02  0.40330581570E+01  0.29249339063E+02  0.68624756535E+02  0.10000000000E+01 0.  0.
    9000005    1    3    3    0    0  0.61940034031E+02 -0.40330581570E+01  0.46204593420E+02  0.77386677322E+02  0.10000000000E+01 0.  0.
<mgrwt>
<rscale>  0 0.12500417E+03</rscale>
<asrwt>0</asrwt>
<pdfrwt beam="1">  1        4 0.27683170E-01 0.12500417E+03</pdfrwt>
<pdfrwt beam="2">  1       -4 0.88196878E-02 0.12500417E+03</pdfrwt>
<totfact> 0.18734834E+03</totfact>
</mgrwt>
</event>
<event>
 5    1  0.1435323E-002  0.1250021E+03  0.7818608E-02  0.1235066E+00
         -4   -1    0    0    0  501 -0.00000000000E+00  0.00000000000E+00  0.10621735439E+02  0.10697390510E+02  0.12700000000E+01 0. -1.
          4   -1    0    0  501    0  0.00000000000E+00 -0.00000000000E+00 -0.36639067527E+03  0.36639287633E+03  0.12700000000E+01 0. -1.
         25    2    1    2    0    0  0.00000000000E+00  0.00000000000E+00 -0.35576893983E+03  0.37709026684E+03  0.12500212317E+03 0.  0.
    9000005    1    3    3    0    0  0.13701328637E+02 -0.58203940306E+02 -0.23268149963E+03  0.24024384559E+03  0.10000000000E+01 0.  0.
    9000005    1    3    3    0    0 -0.13701328637E+02  0.58203940306E+02 -0.12308744020E+03  0.13684642125E+03  0.10000000000E+01 0.  0.
<mgrwt>
<rscale>  0 0.12500212E+03</rscale>
<asrwt>0</asrwt>
<pdfrwt beam="2">  1        4 0.91607359E-01 0.12500212E+03</pdfrwt>
<pdfrwt beam="1">  1       -4 0.26651671E-02 0.12500212E+03</pdfrwt>
<totfact> 0.11056308E+03</totfact>
</mgrwt>
</event>
<event>
 5    1  0.1435323E-002  0.1249978E+03  0.7818608E-02  0.1235073E+00
         -4   -1    0    0    0  501 -0.00000000000E+00  0.00000000000E+00  0.20983047490E+03  0.20983431820E+03  0.12700000000E+01 0. -1.
          4   -1    0    0  501    0  0.00000000000E+00 -0.00000000000E+00 -0.18589894667E+02  0.18633225264E+02  0.12700000000E+01 0. -1.
         25    2    1    2    0    0  0.00000000000E+00  0.00000000000E+00  0.19124058023E+03  0.22846754347E+03  0.12499783554E+03 0.  0.
    9000005    1    3    3    0    0 -0.43687961294E+02  0.54770461241E+01  0.14567747071E+02  0.46388093850E+02  0.10000000000E+01 0.  0.
    9000005    1    3    3    0    0  0.43687961294E+02 -0.54770461241E+01  0.17667283316E+03  0.18207944962E+03  0.10000000000E+01 0.  0.
<mgrwt>
<rscale>  0 0.12499784E+03</rscale>
<asrwt>0</asrwt>
<pdfrwt beam="2">  1        4 0.46533705E-02 0.12499784E+03</pdfrwt>
<pdfrwt beam="1">  1       -4 0.52463515E-01 0.12499784E+03</pdfrwt>
<totfact> 0.15242985E+03</totfact>
</mgrwt>
</event>
<event>
 5    1  0.1435323E-002  0.1250009E+03  0.7818608E-02  0.1235068E+00
          4   -1    0    0  501    0  0.00000000000E+00  0.00000000000E+00  0.80704076170E+02  0.80714068232E+02  0.12700000000E+01 0. -1.
         -4   -1    0    0    0  501 -0.00000000000E+00 -0.00000000000E+00 -0.48381508310E+02  0.48398173998E+02  0.12700000000E+01 0. -1.
         25    2    1    2    0    0  0.00000000000E+00  0.00000000000E+00  0.32322567860E+02  0.12911224223E+03  0.12500089080E+03 0.  0.
    9000005    1    3    3    0    0 -0.36164672165E+02 -0.24054817587E+02 -0.30247443878E+02  0.52937941243E+02  0.10000000000E+01 0.  0.
    9000005    1    3    3    0    0  0.36164672165E+02  0.24054817587E+02  0.62570011738E+02  0.76174300987E+02  0.10000000000E+01 0.  0.
<mgrwt>
<rscale>  0 0.12500089E+03</rscale>
<asrwt>0</asrwt>
<pdfrwt beam="1">  1        4 0.20179351E-01 0.12500089E+03</pdfrwt>
<pdfrwt beam="2">  1       -4 0.12098709E-01 0.12500089E+03</pdfrwt>
<totfact> 0.19611821E+03</totfact>
</mgrwt>
</event>
<event>
 5    1  0.1435323E-002  0.1250067E+03  0.7818608E-02  0.1235059E+00
          4   -1    0    0  501    0  0.00000000000E+00  0.00000000000E+00  0.58219199831E+01  0.59588297752E+01  0.12700000000E+01 0. -1.
         -4   -1    0    0    0  501 -0.00000000000E+00 -0.00000000000E+00 -0.66309126377E+03  0.66309247996E+03  0.12700000000E+01 0. -1.
         25    2    1    2    0    0  0.00000000000E+00  0.00000000000E+00 -0.65726934378E+03  0.66905130974E+03  0.12500665896E+03 0.  0.
    9000005    1    3    3    0    0  0.52440633474E+02  0.29871434368E+02 -0.24178111010E+03  0.24920158071E+03  0.10000000000E+01 0.  0.
    9000005    1    3    3    0    0 -0.52440633474E+02 -0.29871434368E+02 -0.41548823369E+03  0.41984972902E+03  0.10000000000E+01 0.  0.
<mgrwt>
<rscale>  0 0.12500666E+03</rscale>
<asrwt>0</asrwt>
<pdfrwt beam="1">  1        4 0.14727480E-02 0.12500666E+03</pdfrwt>
<pdfrwt beam="2">  1       -4 0.16578983E+00 0.12500666E+03</pdfrwt>
<totfact> 0.65362860E+02</totfact>
</mgrwt>
</event>
<event>
 5    1  0.1435323E-002  0.1250033E+03  0.7818608E-02  0.1235064E+00
         -4   -1    0    0    0  501 -0.00000000000E+00  0.00000000000E+00  0.26545928719E+03  0.26546232512E+03  0.12700000000E+01 0. -1.
          4   -1    0    0  501    0  0.00000000000E+00 -0.00000000000E+00 -0.14685315493E+02  0.14740128599E+02  0.12700000000E+01 0. -1.
         25    2    1    2    0    0  0.00000000000E+00  0.00000000000E+00  0.25077397170E+03  0.28020245372E+03  0.12500332070E+03 0.  0.
    9000005    1    3    3    0    0 -0.12440987695E+02 -0.45495250933E+02  0.33486808251E+02  0.57852937342E+02  0.10000000000E+01 0.  0.
    9000005    1    3    3    0    0  0.12440987695E+02  0.45495250933E+02  0.21728716345E+03  0.22234951638E+03  0.10000000000E+01 0.  0.
<mgrwt>
<rscale>  0 0.12500332E+03</rscale>
<asrwt>0</asrwt>
<pdfrwt beam="2">  1        4 0.36785604E-02 0.12500332E+03</pdfrwt>
<pdfrwt beam="1">  1       -4 0.66372050E-01 0.12500332E+03</pdfrwt>
<totfact> 0.13543608E+03</totfact>
</mgrwt>
</event>
<event>
 5    1  0.1435323E-002  0.1250150E+03  0.7818608E-02  0.1235046E+00
         -4   -1    0    0    0  501 -0.00000000000E+00  0.00000000000E+00  0.11843371957E+03  0.11844052867E+03  0.12700000000E+01 0.  1.
          4   -1    0    0  501    0  0.00000000000E+00 -0.00000000000E+00 -0.32970489923E+02  0.32994940608E+02  0.12700000000E+01 0.  1.
         25    2    1    2    0    0  0.00000000000E+00  0.00000000000E+00  0.85463229650E+02  0.15143546928E+03  0.12501495004E+03 0.  0.
    9000005    1    3    3    0    0  0.23730598002E+02 -0.37661523917E+02  0.95874098816E+02  0.10570891395E+03  0.10000000000E+01 0.  0.
    9000005    1    3    3    0    0 -0.23730598002E+02  0.37661523917E+02 -0.10410869165E+02  0.45726555327E+02  0.10000000000E+01 0.  0.
<mgrwt>
<rscale>  0 0.12501495E+03</rscale>
<asrwt>0</asrwt>
<pdfrwt beam="2">  1        4 0.82465300E-02 0.12501495E+03</pdfrwt>
<pdfrwt beam="1">  1       -4 0.29612337E-01 0.12501495E+03</pdfrwt>
<totfact> 0.18462001E+03</totfact>
</mgrwt>
</event>
<event>
 5    1  0.1435323E-002  0.1249966E+03  0.7818608E-02  0.1235075E+00
          4   -1    0    0  501    0  0.00000000000E+00  0.00000000000E+00  0.43383100698E+02  0.43401685752E+02  0.12700000000E+01 0. -1.
         -4   -1    0    0    0  501 -0.00000000000E+00 -0.00000000000E+00 -0.89993539997E+02  0.90002500749E+02  0.12700000000E+01 0. -1.
         25    2    1    2    0    0  0.00000000000E+00  0.00000000000E+00 -0.46610439299E+02  0.13340418650E+03  0.12499657565E+03 0.  0.
    9000005    1    3    3    0    0 -0.58436319042E+02  0.17951048956E+02 -0.94722249171E+01  0.61868946869E+02  0.10000000000E+01 0.  0.
    9000005    1    3    3    0    0  0.58436319042E+02 -0.17951048956E+02 -0.37138214382E+02  0.71535239633E+02  0.10000000000E+01 0.  0.
<mgrwt>
<rscale>  0 0.12499658E+03</rscale>
<asrwt>0</asrwt>
<pdfrwt beam="1">  1        4 0.10849219E-01 0.12499658E+03</pdfrwt>
<pdfrwt beam="2">  1       -4 0.22501828E-01 0.12499658E+03</pdfrwt>
<totfact> 0.19384603E+03</totfact>
</mgrwt>
</event>
<event>
 5    1  0.1435323E-002  0.1250013E+03  0.7818608E-02  0.1235067E+00
         -4   -1    0    0    0  501 -0.00000000000E+00  0.00000000000E+00  0.68054966786E+03  0.68055085286E+03  0.12700000000E+01 0.  1.
          4   -1    0    0  501    0  0.00000000000E+00 -0.00000000000E+00 -0.56685132571E+01  0.58090397267E+01  0.12700000000E+01 0.  1.
         25    2    1    2    0    0  0.00000000000E+00  0.00000000000E+00  0.67488115460E+03  0.68635989258E+03  0.12500131723E+03 0.  0.
    9000005    1    3    3    0    0  0.55822894060E+02  0.37823959595E+01  0.49028183679E+03  0.49346507628E+03  0.10000000000E+01 0.  0.
    9000005    1    3    3    0    0 -0.55822894060E+02 -0.37823959595E+01  0.18459931781E+03  0.19289481630E+03  0.10000000000E+01 0.  0.
<mgrwt>
<rscale>  0 0.12500132E+03</rscale>
<asrwt>0</asrwt>
<pdfrwt beam="2">  1        4 0.14348423E-02 0.12500132E+03</pdfrwt>
<pdfrwt beam="1">  1       -4 0.17015513E+00 0.12500132E+03</pdfrwt>
<totfact> 0.63497289E+02</totfact>
</mgrwt>
</event>
<event>
 5    1  0.1435323E-002  0.1249703E+03  0.7818608E-02  0.1235116E+00
          4   -1    0    0  501    0  0.00000000000E+00  0.00000000000E+00  0.27663733456E+02  0.27692869998E+02  0.12700000000E+01 0.  1.
         -4   -1    0    0    0  501 -0.00000000000E+00 -0.00000000000E+00 -0.14103125638E+03  0.14103697450E+03  0.12700000000E+01 0.  1.
         25    2    1    2    0    0  0.00000000000E+00  0.00000000000E+00 -0.11336752292E+03  0.16872984449E+03  0.12497025714E+03 0.  0.
    9000005    1    3    3    0    0  0.16537316364E+02  0.53547482617E+02 -0.93968120845E+02  0.10941582821E+03  0.10000000000E+01 0.  0.
    9000005    1    3    3    0    0 -0.16537316364E+02 -0.53547482617E+02 -0.19399402074E+02  0.59314016286E+02  0.10000000000E+01 0.  0.
<mgrwt>
<rscale>  0 0.12497026E+03</rscale>
<asrwt>0</asrwt>
<pdfrwt beam="1">  1        4 0.69202906E-02 0.12497026E+03</pdfrwt>
<pdfrwt beam="2">  1       -4 0.35262169E-01 0.12497026E+03</pdfrwt>
<totfact> 0.17666686E+03</totfact>
</mgrwt>
</event>
<event>
 5    1  0.1435323E-002  0.1250007E+03  0.7818608E-02  0.1235068E+00
          4   -1    0    0  501    0  0.00000000000E+00  0.00000000000E+00  0.22716926211E+03  0.22717281208E+03  0.12700000000E+01 0.  1.
         -4   -1    0    0    0  501 -0.00000000000E+00 -0.00000000000E+00 -0.17168378883E+02  0.17215287784E+02  0.12700000000E+01 0.  1.
         25    2    1    2    0    0  0.00000000000E+00  0.00000000000E+00  0.21000088323E+03  0.24438809987E+03  0.12500068959E+03 0.  0.
    9000005    1    3    3    0    0 -0.54989977507E+02  0.19367753365E+02  0.61009279517E+02  0.84392770329E+02  0.10000000000E+01 0.  0.
    9000005    1    3    3    0    0  0.54989977507E+02 -0.19367753365E+02  0.14899160371E+03  0.15999532954E+03  0.10000000000E+01 0.  0.
<mgrwt>
<rscale>  0 0.12500069E+03</rscale>
<asrwt>0</asrwt>
<pdfrwt beam="1">  1        4 0.56798623E-01 0.12500069E+03</pdfrwt>
<pdfrwt beam="2">  1       -4 0.42984021E-02 0.12500069E+03</pdfrwt>
<totfact> 0.14686231E+03</totfact>
</mgrwt>
</event>
<event>
 5    1  0.1435323E-002  0.1249990E+03  0.7818608E-02  0.1235071E+00
          4   -1    0    0  501    0  0.00000000000E+00  0.00000000000E+00  0.25904334491E+02  0.25935447662E+02  0.12700000000E+01 0. -1.
         -4   -1    0    0    0  501 -0.00000000000E+00 -0.00000000000E+00 -0.15066858585E+03  0.15067393823E+03  0.12700000000E+01 0. -1.
         25    2    1    2    0    0  0.00000000000E+00  0.00000000000E+00 -0.12476425136E+03  0.17660938589E+03  0.12499902707E+03 0.  0.
    9000005    1    3    3    0    0  0.48230468981E+02 -0.85993395659E+01 -0.11719523048E+03  0.12702696102E+03  0.10000000000E+01 0.  0.
    9000005    1    3    3    0    0 -0.48230468981E+02  0.85993395659E+01 -0.75690208806E+01  0.49582424872E+02  0.10000000000E+01 0.  0.
<mgrwt>
<rscale>  0 0.12499903E+03</rscale>
<asrwt>0</asrwt>
<pdfrwt beam="1">  1        4 0.64806422E-02 0.12499903E+03</pdfrwt>
<pdfrwt beam="2">  1       -4 0.37671702E-01 0.12499903E+03</pdfrwt>
<totfact> 0.17303382E+03</totfact>
</mgrwt>
</event>
<event>
 5    1  0.1435323E-002  0.1249850E+03  0.7818608E-02  0.1235093E+00
          4   -1    0    0  501    0  0.00000000000E+00  0.00000000000E+00  0.67256569875E+01  0.68445132708E+01  0.12700000000E+01 0.  1.
         -4   -1    0    0    0  501 -0.00000000000E+00 -0.00000000000E+00 -0.57545320267E+03  0.57545460408E+03  0.12700000000E+01 0.  1.
         25    2    1    2    0    0  0.00000000000E+00  0.00000000000E+00 -0.56872754568E+03  0.58229911736E+03  0.12498496252E+03 0.  0.
    9000005    1    3    3    0    0  0.28780588556E+02 -0.39162330778E+02 -0.10139677319E+03  0.11244694768E+03  0.10000000000E+01 0.  0.
    9000005    1    3    3    0    0 -0.28780588556E+02  0.39162330778E+02 -0.46733077249E+03  0.46985216967E+03  0.10000000000E+01 0.  0.
<mgrwt>
<rscale>  0 0.12498496E+03</rscale>
<asrwt>0</asrwt>
<pdfrwt beam="1">  1        4 0.16964484E-02 0.12498496E+03</pdfrwt>
<pdfrwt beam="2">  1       -4 0.14387817E+00 0.12498496E+03</pdfrwt>
<totfact> 0.75802068E+02</totfact>
</mgrwt>
</event>
<event>
 5    1  0.1435323E-002  0.1249994E+03  0.7818608E-02  0.1235070E+00
         -4   -1    0    0    0  501 -0.00000000000E+00  0.00000000000E+00  0.85456329090E+02  0.85465765553E+02  0.12700000000E+01 0. -1.
          4   -1    0    0  501    0  0.00000000000E+00 -0.00000000000E+00 -0.45689235193E+02  0.45706882551E+02  0.12700000000E+01 0. -1.
         25    2    1    2    0    0  0.00000000000E+00  0.00000000000E+00  0.39767093897E+02  0.13117264810E+03  0.12499936741E+03 0.  0.
    9000005    1    3    3    0    0 -0.59313837738E+02  0.68962323441E+01  0.54744831128E+00  0.59724275361E+02  0.10000000000E+01 0.  0.
    9000005    1    3    3    0    0  0.59313837738E+02 -0.68962323441E+01  0.39219645586E+02  0.71448372743E+02  0.10000000000E+01 0.  0.
<mgrwt>
<rscale>  0 0.12499937E+03</rscale>
<asrwt>0</asrwt>
<pdfrwt beam="2">  1        4 0.11425694E-01 0.12499937E+03</pdfrwt>
<pdfrwt beam="1">  1       -4 0.21367468E-01 0.12499937E+03</pdfrwt>
<totfact> 0.19501836E+03</totfact>
</mgrwt>
</event>
<event>
 5    1  0.1435323E-002  0.1250115E+03  0.7818608E-02  0.1235051E+00
          4   -1    0    0  501    0  0.00000000000E+00  0.00000000000E+00  0.87810991144E+02  0.87820174594E+02  0.12700000000E+01 0.  1.
         -4   -1    0    0    0  501 -0.00000000000E+00 -0.00000000000E+00 -0.44472338292E+02  0.44490468341E+02  0.12700000000E+01 0.  1.
         25    2    1    2    0    0  0.00000000000E+00  0.00000000000E+00  0.43338652852E+02  0.13231064293E+03  0.12501146908E+03 0.  0.
    9000005    1    3    3    0    0 -0.59577602893E+02  0.32335779360E+01  0.41357052503E+02  0.72604081045E+02  0.10000000000E+01 0.  0.
    9000005    1    3    3    0    0  0.59577602893E+02 -0.32335779360E+01  0.19816003491E+01  0.59706561889E+02  0.10000000000E+01 0.  0.
<mgrwt>
<rscale>  0 0.12501147E+03</rscale>
<asrwt>0</asrwt>
<pdfrwt beam="1">  1        4 0.21956162E-01 0.12501147E+03</pdfrwt>
<pdfrwt beam="2">  1       -4 0.11121499E-01 0.12501147E+03</pdfrwt>
<totfact> 0.19435746E+03</totfact>
</mgrwt>
</event>
<event>
 5    1  0.1435323E-002  0.1250038E+03  0.7818608E-02  0.1235063E+00
         -4   -1    0    0    0  501 -0.00000000000E+00  0.00000000000E+00  0.17778621115E+03  0.17779074716E+03  0.12700000000E+01 0. -1.
          4   -1    0    0  501    0  0.00000000000E+00 -0.00000000000E+00 -0.21949787238E+02  0.21986497216E+02  0.12700000000E+01 0. -1.
         25    2    1    2    0    0  0.00000000000E+00  0.00000000000E+00  0.15583642391E+03  0.19977724437E+03  0.12500382535E+03 0.  0.
    9000005    1    3    3    0    0  0.55320640383E+02  0.21944571877E+02  0.10839054776E+03  0.12365859586E+03  0.10000000000E+01 0.  0.
    9000005    1    3    3    0    0 -0.55320640383E+02 -0.21944571877E+02  0.47445876152E+02  0.76118648511E+02  0.10000000000E+01 0.  0.
<mgrwt>
<rscale>  0 0.12500383E+03</rscale>
<asrwt>0</asrwt>
<pdfrwt beam="2">  1        4 0.54926026E-02 0.12500383E+03</pdfrwt>
<pdfrwt beam="1">  1       -4 0.44451708E-01 0.12500383E+03</pdfrwt>
<totfact> 0.16329520E+03</totfact>
</mgrwt>
</event>
<event>
 5    1  0.1435323E-002  0.1249995E+03  0.7818608E-02  0.1235070E+00
          4   -1    0    0  501    0  0.00000000000E+00  0.00000000000E+00  0.68995582007E+02  0.69007269447E+02  0.12700000000E+01 0. -1.
         -4   -1    0    0    0  501 -0.00000000000E+00 -0.00000000000E+00 -0.56591893243E+02  0.56606141724E+02  0.12700000000E+01 0. -1.
         25    2    1    2    0    0  0.00000000000E+00  0.00000000000E+00  0.12403688764E+02  0.12561341117E+03  0.12499951028E+03 0.  0.
    9000005    1    3    3    0    0  0.38863176756E+02 -0.48635169841E+02  0.74441402915E+00  0.62267811952E+02  0.10000000000E+01 0.  0.
    9000005    1    3    3    0    0 -0.38863176756E+02  0.48635169841E+02  0.11659274735E+02  0.63345599219E+02  0.10000000000E+01 0.  0.
<mgrwt>
<rscale>  0 0.12499951E+03</rscale>
<asrwt>0</asrwt>
<pdfrwt beam="1">  1        4 0.17252137E-01 0.12499951E+03</pdfrwt>
<pdfrwt beam="2">  1       -4 0.14151215E-01 0.12499951E+03</pdfrwt>
<totfact> 0.19802052E+03</totfact>
</mgrwt>
</event>
<event>
 5    1  0.1435323E-002  0.1250003E+03  0.7818608E-02  0.1235069E+00
         -4   -1    0    0    0  501 -0.00000000000E+00  0.00000000000E+00  0.23366918104E+02  0.23401405122E+02  0.12700000000E+01 0.  1.
          4   -1    0    0  501    0  0.00000000000E+00 -0.00000000000E+00 -0.16701080724E+03  0.16701563590E+03  0.12700000000E+01 0.  1.
         25    2    1    2    0    0  0.00000000000E+00  0.00000000000E+00 -0.14364388914E+03  0.19041704102E+03  0.12500033050E+03 0.  0.
    9000005    1    3    3    0    0  0.46448259778E+02 -0.41791163473E+02 -0.73577729859E+02  0.96533022910E+02  0.10000000000E+01 0.  0.
    9000005    1    3    3    0    0 -0.46448259778E+02  0.41791163473E+02 -0.70066159278E+02  0.93884018112E+02  0.10000000000E+01 0.  0.
<mgrwt>
<rscale>  0 0.12500033E+03</rscale>
<asrwt>0</asrwt>
<pdfrwt beam="2">  1        4 0.41757613E-01 0.12500033E+03</pdfrwt>
<pdfrwt beam="1">  1       -4 0.58466445E-02 0.12500033E+03</pdfrwt>
<totfact> 0.16712961E+03</totfact>
</mgrwt>
</event>
<event>
 5    1  0.1435323E-002  0.1249993E+03  0.7818608E-02  0.1235070E+00
          4   -1    0    0  501    0  0.00000000000E+00  0.00000000000E+00  0.79628143302E+02  0.79638270359E+02  0.12700000000E+01 0. -1.
         -4   -1    0    0    0  501 -0.00000000000E+00 -0.00000000000E+00 -0.49034099572E+02  0.49050543533E+02  0.12700000000E+01 0. -1.
         25    2    1    2    0    0  0.00000000000E+00  0.00000000000E+00  0.30594043730E+02  0.12868881389E+03  0.12499926123E+03 0.  0.
    9000005    1    3    3    0    0  0.23097543499E+02 -0.25320618632E+01  0.75020485266E+02  0.78542861308E+02  0.10000000000E+01 0.  0.
    9000005    1    3    3    0    0 -0.23097543499E+02  0.25320618632E+01 -0.44426441536E+02  0.50145952583E+02  0.10000000000E+01 0.  0.
<mgrwt>
<rscale>  0 0.12499926E+03</rscale>
<asrwt>0</asrwt>
<pdfrwt beam="1">  1        4 0.19910357E-01 0.12499926E+03</pdfrwt>
<pdfrwt beam="2">  1       -4 0.12261846E-01 0.12499926E+03</pdfrwt>
<totfact> 0.19635476E+03</totfact>
</mgrwt>
</event>
<event>
 5    1  0.1435323E-002  0.1250028E+03  0.7818608E-02  0.1235065E+00
         -4   -1    0    0    0  501 -0.00000000000E+00  0.00000000000E+00  0.45668135283E+02  0.45685790792E+02  0.12700000000E+01 0. -1.
          4   -1    0    0  501    0  0.00000000000E+00 -0.00000000000E+00 -0.85500445841E+02  0.85509877435E+02  0.12700000000E+01 0. -1.
         25    2    1    2    0    0  0.00000000000E+00  0.00000000000E+00 -0.39832310558E+02  0.13119566823E+03  0.12500276156E+03 0.  0.
    9000005    1    3    3    0    0  0.76538382801E+01 -0.87616282061E+01 -0.84359028668E+02  0.85163331822E+02  0.10000000000E+01 0.  0.
    9000005    1    3    3    0    0 -0.76538382801E+01  0.87616282061E+01  0.44526718110E+02  0.46032336405E+02  0.10000000000E+01 0.  0.
<mgrwt>
<rscale>  0 0.12500276E+03</rscale>
<asrwt>0</asrwt>
<pdfrwt beam="2">  1        4 0.21378497E-01 0.12500276E+03</pdfrwt>
<pdfrwt beam="1">  1       -4 0.11420420E-01 0.12500276E+03</pdfrwt>
<totfact> 0.19499061E+03</totfact>
</mgrwt>
</event>
<event>
 5    1  0.1435323E-002  0.1250024E+03  0.7818608E-02  0.1235065E+00
         -4   -1    0    0    0  501 -0.00000000000E+00  0.00000000000E+00  0.14464320172E+02  0.14519967563E+02  0.12700000000E+01 0.  1.
          4   -1    0    0  501    0  0.00000000000E+00 -0.00000000000E+00 -0.26949595547E+03  0.26949894789E+03  0.12700000000E+01 0.  1.
         25    2    1    2    0    0  0.00000000000E+00  0.00000000000E+00 -0.25503163530E+03  0.28401891546E+03  0.12500243731E+03 0.  0.
    9000005    1    3    3    0    0 -0.50758962169E+02 -0.24283550787E+02 -0.18929203237E+03  0.19748072462E+03  0.10000000000E+01 0.  0.
    9000005    1    3    3    0    0  0.50758962169E+02  0.24283550787E+02 -0.65739602932E+02  0.86538190834E+02  0.10000000000E+01 0.  0.
<mgrwt>
<rscale>  0 0.12500244E+03</rscale>
<asrwt>0</asrwt>
<pdfrwt beam="2">  1        4 0.67381303E-01 0.12500244E+03</pdfrwt>
<pdfrwt beam="1">  1       -4 0.36234109E-02 0.12500244E+03</pdfrwt>
<totfact> 0.13430330E+03</totfact>
</mgrwt>
</event>
<event>
 5    1  0.1435323E-002  0.1250011E+03  0.7818608E-02  0.1235068E+00
          4   -1    0    0  501    0  0.00000000000E+00  0.00000000000E+00  0.29983533713E+02  0.30010418089E+02  0.12700000000E+01 0. -1.
         -4   -1    0    0    0  501 -0.00000000000E+00 -0.00000000000E+00 -0.13019372086E+03  0.13019991495E+03  0.12700000000E+01 0. -1.
         25    2    1    2    0    0  0.00000000000E+00  0.00000000000E+00 -0.10021018715E+03  0.16021033304E+03  0.12500107681E+03 0.  0.
    9000005    1    3    3    0    0 -0.86475677741E+01 -0.18721643366E+02  0.25503071107E+02  0.32812908963E+02  0.10000000000E+01 0.  0.
    9000005    1    3    3    0    0  0.86475677741E+01  0.18721643366E+02 -0.12571325826E+03  0.12739742407E+03  0.10000000000E+01 0.  0.
<mgrwt>
<rscale>  0 0.12500108E+03</rscale>
<asrwt>0</asrwt>
<pdfrwt beam="1">  1        4 0.75000186E-02 0.12500108E+03</pdfrwt>
<pdfrwt beam="2">  1       -4 0.32552564E-01 0.12500108E+03</pdfrwt>
<totfact> 0.18047409E+03</totfact>
</mgrwt>
</event>
<event>
 5    1  0.1435323E-002  0.1249865E+03  0.7818608E-02  0.1235090E+00
         -4   -1    0    0    0  501 -0.00000000000E+00  0.00000000000E+00  0.11342528228E+02  0.11413406442E+02  0.12700000000E+01 0. -1.
          4   -1    0    0  501    0  0.00000000000E+00 -0.00000000000E+00 -0.34317074849E+03  0.34317309848E+03  0.12700000000E+01 0. -1.
         25    2    1    2    0    0  0.00000000000E+00  0.00000000000E+00 -0.33182822026E+03  0.35458650492E+03  0.12498648611E+03 0.  0.
    9000005    1    3    3    0    0  0.21894885592E+02  0.48463572678E+02 -0.72840593256E+02  0.90193436112E+02  0.10000000000E+01 0.  0.
    9000005    1    3    3    0    0 -0.21894885592E+02 -0.48463572678E+02 -0.25898762701E+03  0.26439306881E+03  0.10000000000E+01 0.  0.
<mgrwt>
<rscale>  0 0.12498649E+03</rscale>
<asrwt>0</asrwt>
<pdfrwt beam="2">  1        4 0.85801806E-01 0.12498649E+03</pdfrwt>
<pdfrwt beam="1">  1       -4 0.28447867E-02 0.12498649E+03</pdfrwt>
<totfact> 0.11572259E+03</totfact>
</mgrwt>
</event>
<event>
 5    1  0.1435323E-002  0.1249986E+03  0.7818608E-02  0.1235071E+00
          4   -1    0    0  501    0  0.00000000000E+00  0.00000000000E+00  0.18473002418E+02  0.18516606555E+02  0.12700000000E+01 0.  1.
         -4   -1    0    0    0  501 -0.00000000000E+00 -0.00000000000E+00 -0.21115778956E+03  0.21116160871E+03  0.12700000000E+01 0.  1.
         25    2    1    2    0    0  0.00000000000E+00  0.00000000000E+00 -0.19268478715E+03  0.22967821527E+03  0.12499862147E+03 0.  0.
    9000005    1    3    3    0    0  0.33815100236E+02  0.79861150835E+00 -0.19289253211E+03  0.19583826931E+03  0.10000000000E+01 0.  0.
    9000005    1    3    3    0    0 -0.33815100236E+02 -0.79861150835E+00  0.20774496067E+00  0.33839945955E+02  0.10000000000E+01 0.  0.
<mgrwt>
<rscale>  0 0.12499862E+03</rscale>
<asrwt>0</asrwt>
<pdfrwt beam="1">  1        4 0.46241792E-02 0.12499862E+03</pdfrwt>
<pdfrwt beam="2">  1       -4 0.52795368E-01 0.12499862E+03</pdfrwt>
<totfact> 0.15199300E+03</totfact>
</mgrwt>
</event>
<event>
 5    1  0.1435323E-002  0.1250010E+03  0.7818608E-02  0.1235068E+00
         -4   -1    0    0    0  501 -0.00000000000E+00  0.00000000000E+00  0.43388817127E+02  0.43407399735E+02  0.12700000000E+01 0.  1.
          4   -1    0    0  501    0  0.00000000000E+00 -0.00000000000E+00 -0.89988095778E+02  0.89997057072E+02  0.12700000000E+01 0.  1.
         25    2    1    2    0    0  0.00000000000E+00  0.00000000000E+00 -0.46599278650E+02  0.13340445681E+03  0.12500102530E+03 0.  0.
    9000005    1    3    3    0    0 -0.40057887703E+02  0.16983376663E+01  0.27858228788E+02  0.48832362520E+02  0.10000000000E+01 0.  0.
    9000005    1    3    3    0    0  0.40057887703E+02 -0.16983376663E+01 -0.74457507438E+02  0.84572094287E+02  0.10000000000E+01 0.  0.
<mgrwt>
<rscale>  0 0.12500103E+03</rscale>
<asrwt>0</asrwt>
<pdfrwt beam="2">  1        4 0.22500467E-01 0.12500103E+03</pdfrwt>
<pdfrwt beam="1">  1       -4 0.10850647E-01 0.12500103E+03</pdfrwt>
<totfact> 0.19382576E+03</totfact>
</mgrwt>
</event>
<event>
 5    1  0.1435323E-002  0.1249971E+03  0.7818608E-02  0.1235074E+00
          4   -1    0    0  501    0  0.00000000000E+00  0.00000000000E+00  0.82579836916E+03  0.82579934573E+03  0.12700000000E+01 0.  1.
         -4   -1    0    0    0  501 -0.00000000000E+00 -0.00000000000E+00 -0.46438033743E+01  0.48143337835E+01  0.12700000000E+01 0.  1.
         25    2    1    2    0    0  0.00000000000E+00  0.00000000000E+00  0.82115456578E+03  0.83061367951E+03  0.12499705470E+03 0.  0.
    9000005    1    3    3    0    0 -0.56763693002E+01 -0.42236123660E+02  0.71429057630E+03  0.71556141505E+03  0.10000000000E+01 0.  0.
    9000005    1    3    3    0    0  0.56763693002E+01  0.42236123660E+02  0.10686398948E+03  0.11505226446E+03  0.10000000000E+01 0.  0.
<mgrwt>
<rscale>  0 0.12499705E+03</rscale>
<asrwt>0</asrwt>
<pdfrwt beam="1">  1        4 0.20647115E+00 0.12499705E+03</pdfrwt>
<pdfrwt beam="2">  1       -4 0.11823885E-02 0.12499705E+03</pdfrwt>
<totfact> 0.49842833E+02</totfact>
</mgrwt>
</event>
<event>
 5    1  0.1435323E-002  0.1249868E+03  0.7818608E-02  0.1235090E+00
          4   -1    0    0  501    0  0.00000000000E+00  0.00000000000E+00  0.43992074457E+02  0.44010402350E+02  0.12700000000E+01 0. -1.
         -4   -1    0    0    0  501 -0.00000000000E+00 -0.00000000000E+00 -0.88734351199E+02  0.88743439097E+02  0.12700000000E+01 0. -1.
         25    2    1    2    0    0  0.00000000000E+00  0.00000000000E+00 -0.44742276742E+02  0.13275384145E+03  0.12498684367E+03 0.  0.
    9000005    1    3    3    0    0  0.11507551992E+02 -0.32598565914E+02 -0.77657034287E+02  0.85010030154E+02  0.10000000000E+01 0.  0.
    9000005    1    3    3    0    0 -0.11507551992E+02  0.32598565914E+02  0.32914757545E+02  0.47743811293E+02  0.10000000000E+01 0.  0.
<mgrwt>
<rscale>  0 0.12498684E+03</rscale>
<asrwt>0</asrwt>
<pdfrwt beam="1">  1        4 0.11001446E-01 0.12498684E+03</pdfrwt>
<pdfrwt beam="2">  1       -4 0.22187015E-01 0.12498684E+03</pdfrwt>
<totfact> 0.19423409E+03</totfact>
</mgrwt>
</event>
<event>
 5    1  0.1435323E-002  0.1250007E+03  0.7818608E-02  0.1235068E+00
         -4   -1    0    0    0  501 -0.00000000000E+00  0.00000000000E+00  0.47647870855E+01  0.49311353632E+01  0.12700000000E+01 0. -1.
          4   -1    0    0  501    0  0.00000000000E+00 -0.00000000000E+00 -0.80559283515E+03  0.80559383621E+03  0.12700000000E+01 0. -1.
         25    2    1    2    0    0  0.00000000000E+00  0.00000000000E+00 -0.80082804806E+03  0.81052497157E+03  0.12500066793E+03 0.  0.
    9000005    1    3    3    0    0 -0.61886320722E+02 -0.82772675743E+01 -0.41739943611E+03  0.42204468853E+03  0.10000000000E+01 0.  0.
    9000005    1    3    3    0    0  0.61886320722E+02  0.82772675743E+01 -0.38342861195E+03  0.38848028304E+03  0.10000000000E+01 0.  0.
<mgrwt>
<rscale>  0 0.12500067E+03</rscale>
<asrwt>0</asrwt>
<pdfrwt beam="2">  1        4 0.20141867E+00 0.12500067E+03</pdfrwt>
<pdfrwt beam="1">  1       -4 0.12121182E-02 0.12500067E+03</pdfrwt>
<totfact> 0.51555932E+02</totfact>
</mgrwt>
</event>
<event>
 5    1  0.1435323E-002  0.1249956E+03  0.7818608E-02  0.1235076E+00
         -4   -1    0    0    0  501 -0.00000000000E+00  0.00000000000E+00  0.19061403177E+02  0.19103664336E+02  0.12700000000E+01 0. -1.
          4   -1    0    0  501    0  0.00000000000E+00 -0.00000000000E+00 -0.20464436664E+03  0.20464830734E+03  0.12700000000E+01 0. -1.
         25    2    1    2    0    0  0.00000000000E+00  0.00000000000E+00 -0.18558296347E+03  0.22375197168E+03  0.12499563393E+03 0.  0.
    9000005    1    3    3    0    0  0.24542910155E+02 -0.24069020290E+02 -0.18620724468E+03  0.18935630475E+03  0.10000000000E+01 0.  0.
    9000005    1    3    3    0    0 -0.24542910155E+02  0.24069020290E+02  0.62428121476E+00  0.34395666931E+02  0.10000000000E+01 0.  0.
<mgrwt>
<rscale>  0 0.12499563E+03</rscale>
<asrwt>0</asrwt>
<pdfrwt beam="2">  1        4 0.51166860E-01 0.12499563E+03</pdfrwt>
<pdfrwt beam="1">  1       -4 0.47711267E-02 0.12499563E+03</pdfrwt>
<totfact> 0.15414720E+03</totfact>
</mgrwt>
</event>
<event>
 5    1  0.1435323E-002  0.1250023E+03  0.7818608E-02  0.1235066E+00
         -4   -1    0    0    0  501 -0.00000000000E+00  0.00000000000E+00  0.15896943625E+02  0.15947592816E+02  0.12700000000E+01 0.  1.
          4   -1    0    0  501    0  0.00000000000E+00 -0.00000000000E+00 -0.24528928656E+03  0.24529257429E+03  0.12700000000E+01 0.  1.
         25    2    1    2    0    0  0.00000000000E+00  0.00000000000E+00 -0.22939234294E+03  0.26124016711E+03  0.12500231163E+03 0.  0.
    9000005    1    3    3    0    0 -0.49082817137E+02  0.37434590397E+02 -0.13505756953E+03  0.14849922082E+03  0.10000000000E+01 0.  0.
    9000005    1    3    3    0    0  0.49082817137E+02 -0.37434590397E+02 -0.94334773406E+02  0.11274094629E+03  0.10000000000E+01 0.  0.
<mgrwt>
<rscale>  0 0.12500231E+03</rscale>
<asrwt>0</asrwt>
<pdfrwt beam="2">  1        4 0.61329052E-01 0.12500231E+03</pdfrwt>
<pdfrwt beam="1">  1       -4 0.39809788E-02 0.12500231E+03</pdfrwt>
<totfact> 0.14130665E+03</totfact>
</mgrwt>
</event>
<event>
 5    1  0.1435323E-002  0.1250004E+03  0.7818608E-02  0.1235069E+00
          4   -1    0    0  501    0  0.00000000000E+00  0.00000000000E+00  0.16207592938E+02  0.16257274337E+02  0.12700000000E+01 0. -1.
         -4   -1    0    0    0  501 -0.00000000000E+00 -0.00000000000E+00 -0.24059490174E+03  0.24059825362E+03  0.12700000000E+01 0. -1.
         25    2    1    2    0    0  0.00000000000E+00  0.00000000000E+00 -0.22438730881E+03  0.25685552796E+03  0.12500039156E+03 0.  0.
    9000005    1    3    3    0    0 -0.27939775913E+02 -0.43090474996E+02 -0.18536014547E+03  0.19234553190E+03  0.10000000000E+01 0.  0.
    9000005    1    3    3    0    0  0.27939775913E+02  0.43090474996E+02 -0.39027163340E+02  0.64509996061E+02  0.10000000000E+01 0.  0.
<mgrwt>
<rscale>  0 0.12500039E+03</rscale>
<asrwt>0</asrwt>
<pdfrwt beam="1">  1        4 0.40585282E-02 0.12500039E+03</pdfrwt>
<pdfrwt beam="2">  1       -4 0.60155343E-01 0.12500039E+03</pdfrwt>
<totfact> 0.14272556E+03</totfact>
</mgrwt>
</event>
<event>
 5    1  0.1435323E-002  0.1250025E+03  0.7818608E-02  0.1235065E+00
         -4   -1    0    0    0  501 -0.00000000000E+00  0.00000000000E+00  0.45821968656E+02  0.45839564914E+02  0.12700000000E+01 0. -1.
          4   -1    0    0  501    0  0.00000000000E+00 -0.00000000000E+00 -0.85213125235E+02  0.85222588627E+02  0.12700000000E+01 0. -1.
         25    2    1    2    0    0  0.00000000000E+00  0.00000000000E+00 -0.39391156579E+02  0.13106215354E+03  0.12500249947E+03 0.  0.
    9000005    1    3    3    0    0 -0.29341789583E+02  0.15739769338E+02 -0.75143274393E+02  0.82196062201E+02  0.10000000000E+01 0.  0.
    9000005    1    3    3    0    0  0.29341789583E+02 -0.15739769338E+02  0.35752117814E+02  0.48866091341E+02  0.10000000000E+01 0.  0.
<mgrwt>
<rscale>  0 0.12500250E+03</rscale>
<asrwt>0</asrwt>
<pdfrwt beam="2">  1        4 0.21306664E-01 0.12500250E+03</pdfrwt>
<pdfrwt beam="1">  1       -4 0.11458875E-01 0.12500250E+03</pdfrwt>
<totfact> 0.19506313E+03</totfact>
</mgrwt>
</event>
<event>
 5    1  0.1435323E-002  0.1250025E+03  0.7818608E-02  0.1235065E+00
          4   -1    0    0  501    0  0.00000000000E+00  0.00000000000E+00  0.32641963901E+03  0.32642210960E+03  0.12700000000E+01 0. -1.
         -4   -1    0    0    0  501 -0.00000000000E+00 -0.00000000000E+00 -0.11931223386E+02  0.11998624566E+02  0.12700000000E+01 0. -1.
         25    2    1    2    0    0  0.00000000000E+00  0.00000000000E+00  0.31448841563E+03  0.33842073416E+03  0.12500251897E+03 0.  0.
    9000005    1    3    3    0    0  0.56491083194E+02  0.19235018381E+01  0.85082039848E+02  0.10215133795E+03  0.10000000000E+01 0.  0.
    9000005    1    3    3    0    0 -0.56491083194E+02 -0.19235018381E+01  0.22940637578E+03  0.23626939622E+03  0.10000000000E+01 0.  0.
<mgrwt>
<rscale>  0 0.12500252E+03</rscale>
<asrwt>0</asrwt>
<pdfrwt beam="1">  1        4 0.81613638E-01 0.12500252E+03</pdfrwt>
<pdfrwt beam="2">  1       -4 0.29915400E-02 0.12500252E+03</pdfrwt>
<totfact> 0.11958005E+03</totfact>
</mgrwt>
</event>
<event>
 5    1  0.1435323E-002  0.1249948E+03  0.7818608E-02  0.1235077E+00
         -4   -1    0    0    0  501 -0.00000000000E+00  0.00000000000E+00  0.14082044517E+02  0.14139196504E+02  0.12700000000E+01 0. -1.
          4   -1    0    0  501    0  0.00000000000E+00 -0.00000000000E+00 -0.27674881017E+03  0.27675172417E+03  0.12700000000E+01 0. -1.
         25    2    1    2    0    0  0.00000000000E+00  0.00000000000E+00 -0.26266676566E+03  0.29089092068E+03  0.12499479170E+03 0.  0.
    9000005    1    3    3    0    0 -0.41248421465E+02 -0.32533568523E+02 -0.52583084679E+02  0.74336035330E+02  0.10000000000E+01 0.  0.
    9000005    1    3    3    0    0  0.41248421465E+02  0.32533568523E+02 -0.21008368098E+03  0.21655488535E+03  0.10000000000E+01 0.  0.
<mgrwt>
<rscale>  0 0.12499479E+03</rscale>
<asrwt>0</asrwt>
<pdfrwt beam="2">  1        4 0.69194693E-01 0.12499479E+03</pdfrwt>
<pdfrwt beam="1">  1       -4 0.35280203E-02 0.12499479E+03</pdfrwt>
<totfact> 0.13231832E+03</totfact>
</mgrwt>
</event>
<event>
 5    1  0.1435323E-002  0.1250014E+03  0.7818608E-02  0.1235067E+00
          4   -1    0    0  501    0  0.00000000000E+00  0.00000000000E+00  0.34778632544E+03  0.34778864424E+03  0.12700000000E+01 0. -1.
         -4   -1    0    0    0  501 -0.00000000000E+00 -0.00000000000E+00 -0.11193739561E+02  0.11265553931E+02  0.12700000000E+01 0. -1.
         25    2    1    2    0    0  0.00000000000E+00  0.00000000000E+00  0.33659258588E+03  0.35905419817E+03  0.12500139342E+03 0.  0.
    9000005    1    3    3    0    0 -0.54200464910E+02 -0.22020226492E+02  0.23140788528E+03  0.23869057405E+03  0.10000000000E+01 0.  0.
    9000005    1    3    3    0    0  0.54200464910E+02  0.22020226492E+02  0.10518470060E+03  0.12036362412E+03  0.10000000000E+01 0.  0.
<mgrwt>
<rscale>  0 0.12500139E+03</rscale>
<asrwt>0</asrwt>
<pdfrwt beam="1">  1        4 0.86955843E-01 0.12500139E+03</pdfrwt>
<pdfrwt beam="2">  1       -4 0.28077017E-02 0.12500139E+03</pdfrwt>
<totfact> 0.11463948E+03</totfact>
</mgrwt>
</event>
<event>
 5    1  0.1435323E-002  0.1250003E+03  0.7818608E-02  0.1235069E+00
         -4   -1    0    0    0  501 -0.00000000000E+00  0.00000000000E+00  0.24131933591E+02  0.24165328859E+02  0.12700000000E+01 0.  1.
          4   -1    0    0  501    0  0.00000000000E+00 -0.00000000000E+00 -0.16172357860E+03  0.16172856512E+03  0.12700000000E+01 0.  1.
         25    2    1    2    0    0  0.00000000000E+00  0.00000000000E+00 -0.13759164501E+03  0.18589389398E+03  0.12500031617E+03 0.  0.
    9000005    1    3    3    0    0  0.14355776001E+02  0.58862331156E+01  0.21229228111E+02  0.26313801912E+02  0.10000000000E+01 0.  0.
    9000005    1    3    3    0    0 -0.14355776001E+02 -0.58862331156E+01 -0.15882087312E+03  0.15958009207E+03  0.10000000000E+01 0.  0.
<mgrwt>
<rscale>  0 0.12500032E+03</rscale>
<asrwt>0</asrwt>
<pdfrwt beam="2">  1        4 0.40435689E-01 0.12500032E+03</pdfrwt>
<pdfrwt beam="1">  1       -4 0.60377816E-02 0.12500032E+03</pdfrwt>
<totfact> 0.16902779E+03</totfact>
</mgrwt>
</event>
<event>
 5    1  0.1435323E-002  0.1249956E+03  0.7818608E-02  0.1235076E+00
         -4   -1    0    0    0  501 -0.00000000000E+00  0.00000000000E+00  0.23003770728E+02  0.23038801351E+02  0.12700000000E+01 0. -1.
          4   -1    0    0  501    0  0.00000000000E+00 -0.00000000000E+00 -0.16963054698E+03  0.16963530107E+03  0.12700000000E+01 0. -1.
         25    2    1    2    0    0  0.00000000000E+00  0.00000000000E+00 -0.14662677625E+03  0.19267410242E+03  0.12499559284E+03 0.  0.
    9000005    1    3    3    0    0  0.38980382469E+02  0.48230809885E+02 -0.61443912875E+02  0.87304270623E+02  0.10000000000E+01 0.  0.
    9000005    1    3    3    0    0 -0.38980382469E+02 -0.48230809885E+02 -0.85182863374E+02  0.10536983179E+03  0.10000000000E+01 0.  0.
<mgrwt>
<rscale>  0 0.12499559E+03</rscale>
<asrwt>0</asrwt>
<pdfrwt beam="2">  1        4 0.42412606E-01 0.12499559E+03</pdfrwt>
<pdfrwt beam="1">  1       -4 0.57559163E-02 0.12499559E+03</pdfrwt>
<totfact> 0.16621342E+03</totfact>
</mgrwt>
</event>
<event>
 5    1  0.1435323E-002  0.1250156E+03  0.7818608E-02  0.1235045E+00
         -4   -1    0    0    0  501 -0.00000000000E+00  0.00000000000E+00  0.65930056823E+02  0.65942287591E+02  0.12700000000E+01 0. -1.
          4   -1    0    0  501    0  0.00000000000E+00 -0.00000000000E+00 -0.59238639457E+02  0.59252251474E+02  0.12700000000E+01 0. -1.
         25    2    1    2    0    0  0.00000000000E+00  0.00000000000E+00  0.66914173664E+01  0.12519453906E+03  0.12501558921E+03 0.  0.
    9000005    1    3    3    0    0  0.29595653033E+02 -0.24411200893E+02  0.52756125693E+02  0.65238165253E+02  0.10000000000E+01 0.  0.
    9000005    1    3    3    0    0 -0.29595653033E+02  0.24411200893E+02 -0.46064708326E+02  0.59956373812E+02  0.10000000000E+01 0.  0.
<mgrwt>
<rscale>  0 0.12501559E+03</rscale>
<asrwt>0</asrwt>
<pdfrwt beam="2">  1        4 0.14812890E-01 0.12501559E+03</pdfrwt>
<pdfrwt beam="1">  1       -4 0.16485745E-01 0.12501559E+03</pdfrwt>
<totfact> 0.19817279E+03</totfact>
</mgrwt>
</event>
<event>
 5    1  0.1435323E-002  0.1249960E+03  0.7818608E-02  0.1235076E+00
         -4   -1    0    0    0  501 -0.00000000000E+00  0.00000000000E+00  0.60721523821E+02  0.60734803492E+02  0.12700000000E+01 0.  1.
          4   -1    0    0  501    0  0.00000000000E+00 -0.00000000000E+00 -0.64299876555E+02  0.64312417347E+02  0.12700000000E+01 0.  1.
         25    2    1    2    0    0  0.00000000000E+00  0.00000000000E+00 -0.35783527335E+01  0.12504722084E+03  0.12499601126E+03 0.  0.
    9000005    1    3    3    0    0  0.31594914382E+01  0.51663217723E+02 -0.36816807801E+02  0.63525961530E+02  0.10000000000E+01 0.  0.
    9000005    1    3    3    0    0 -0.31594914382E+01 -0.51663217723E+02  0.33238455067E+02  0.61521259308E+02  0.10000000000E+01 0.  0.
<mgrwt>
<rscale>  0 0.12499601E+03</rscale>
<asrwt>0</asrwt>
<pdfrwt beam="2">  1        4 0.16078197E-01 0.12499601E+03</pdfrwt>
<pdfrwt beam="1">  1       -4 0.15183609E-01 0.12499601E+03</pdfrwt>
<totfact> 0.19834346E+03</totfact>
</mgrwt>
</event>
<event>
 5    1  0.1435323E-002  0.1250047E+03  0.7818608E-02  0.1235062E+00
          4   -1    0    0  501    0  0.00000000000E+00  0.00000000000E+00  0.18341472544E+02  0.18385388630E+02  0.12700000000E+01 0. -1.
         -4   -1    0    0    0  501 -0.00000000000E+00 -0.00000000000E+00 -0.21268905118E+03  0.21269284283E+03  0.12700000000E+01 0. -1.
         25    2    1    2    0    0  0.00000000000E+00  0.00000000000E+00 -0.19434757864E+03  0.23107823146E+03  0.12500467085E+03 0.  0.
    9000005    1    3    3    0    0  0.47123337005E+02  0.15253202671E+02 -0.26727697658E+02  0.56290664451E+02  0.10000000000E+01 0.  0.
    9000005    1    3    3    0    0 -0.47123337005E+02 -0.15253202671E+02 -0.16761988098E+03  0.17478756701E+03  0.10000000000E+01 0.  0.
<mgrwt>
<rscale>  0 0.12500467E+03</rscale>
<asrwt>0</asrwt>
<pdfrwt beam="1">  1        4 0.45913323E-02 0.12500467E+03</pdfrwt>
<pdfrwt beam="2">  1       -4 0.53178219E-01 0.12500467E+03</pdfrwt>
<totfact> 0.15147231E+03</totfact>
</mgrwt>
</event>
<event>
 5    1  0.1435323E-002  0.1249680E+03  0.7818608E-02  0.1235119E+00
          4   -1    0    0  501    0  0.00000000000E+00  0.00000000000E+00  0.45069980758E+02  0.45087870492E+02  0.12700000000E+01 0.  1.
         -4   -1    0    0    0  501 -0.00000000000E+00 -0.00000000000E+00 -0.86586628786E+02  0.86595942079E+02  0.12700000000E+01 0.  1.
         25    2    1    2    0    0  0.00000000000E+00  0.00000000000E+00 -0.41516648029E+02  0.13168381257E+03  0.12496797362E+03 0.  0.
    9000005    1    3    3    0    0 -0.26104489921E+00  0.23718315876E+02 -0.81662536189E+02  0.85043497514E+02  0.10000000000E+01 0.  0.
    9000005    1    3    3    0    0  0.26104489921E+00 -0.23718315876E+02  0.40145888161E+02  0.46640315058E+02  0.10000000000E+01 0.  0.
<mgrwt>
<rscale>  0 0.12496797E+03</rscale>
<asrwt>0</asrwt>
<pdfrwt beam="1">  1        4 0.11270896E-01 0.12496797E+03</pdfrwt>
<pdfrwt beam="2">  1       -4 0.21650057E-01 0.12496797E+03</pdfrwt>
<totfact> 0.19488846E+03</totfact>
</mgrwt>
</event>
<event>
 5    1  0.1435323E-002  0.1250001E+03  0.7818608E-02  0.1235069E+00
          4   -1    0    0  501    0  0.00000000000E+00  0.00000000000E+00  0.15082825569E+02  0.15136199230E+02  0.12700000000E+01 0. -1.
         -4   -1    0    0    0  501 -0.00000000000E+00 -0.00000000000E+00 -0.25847471071E+03  0.25847783072E+03  0.12700000000E+01 0. -1.
         25    2    1    2    0    0  0.00000000000E+00  0.00000000000E+00 -0.24339188514E+03  0.27361402995E+03  0.12500011054E+03 0.  0.
    9000005    1    3    3    0    0  0.25541368228E+02 -0.54923934312E+02 -0.88050970105E+02  0.10687831112E+03  0.10000000000E+01 0.  0.
    9000005    1    3    3    0    0 -0.25541368228E+02  0.54923934312E+02 -0.15534091503E+03  0.16673571883E+03  0.10000000000E+01 0.  0.
<mgrwt>
<rscale>  0 0.12500011E+03</rscale>
<asrwt>0</asrwt>
<pdfrwt beam="1">  1        4 0.37777689E-02 0.12500011E+03</pdfrwt>
<pdfrwt beam="2">  1       -4 0.64625725E-01 0.12500011E+03</pdfrwt>
<totfact> 0.13744153E+03</totfact>
</mgrwt>
</event>
<event>
 5    1  0.1435323E-002  0.1250007E+03  0.7818608E-02  0.1235068E+00
         -4   -1    0    0    0  501 -0.00000000000E+00  0.00000000000E+00  0.17559161123E+03  0.17559620393E+03  0.12700000000E+01 0.  1.
          4   -1    0    0  501    0  0.00000000000E+00 -0.00000000000E+00 -0.22223453298E+02  0.22259711959E+02  0.12700000000E+01 0.  1.
         25    2    1    2    0    0  0.00000000000E+00  0.00000000000E+00  0.15336815794E+03  0.19785591589E+03  0.12500068634E+03 0.  0.
    9000005    1    3    3    0    0 -0.48203924247E+02  0.36854376011E+02  0.10034365458E+03  0.11726769529E+03  0.10000000000E+01 0.  0.
    9000005    1    3    3    0    0  0.48203924247E+02 -0.36854376011E+02  0.53024503359E+02  0.80588220606E+02  0.10000000000E+01 0.  0.
<mgrwt>
<rscale>  0 0.12500069E+03</rscale>
<asrwt>0</asrwt>
<pdfrwt beam="2">  1        4 0.55609699E-02 0.12500069E+03</pdfrwt>
<pdfrwt beam="1">  1       -4 0.43903008E-01 0.12500069E+03</pdfrwt>
<totfact> 0.16407994E+03</totfact>
</mgrwt>
</event>
<event>
 5    1  0.1435323E-002  0.1250109E+03  0.7818608E-02  0.1235052E+00
         -4   -1    0    0    0  501 -0.00000000000E+00  0.00000000000E+00  0.11545506790E+03  0.11546205265E+03  0.12700000000E+01 0. -1.
          4   -1    0    0  501    0  0.00000000000E+00 -0.00000000000E+00 -0.33819489913E+02  0.33843327230E+02  0.12700000000E+01 0. -1.
         25    2    1    2    0    0  0.00000000000E+00  0.00000000000E+00  0.81635577983E+02  0.14930537988E+03  0.12501091500E+03 0.  0.
    9000005    1    3    3    0    0 -0.36643440991E+02  0.29913812359E+02 -0.79655657648E+01  0.47979455765E+02  0.10000000000E+01 0.  0.
    9000005    1    3    3    0    0  0.36643440991E+02 -0.29913812359E+02  0.89601143748E+02  0.10132592412E+03  0.10000000000E+01 0.  0.
<mgrwt>
<rscale>  0 0.12501092E+03</rscale>
<asrwt>0</asrwt>
<pdfrwt beam="2">  1        4 0.84587254E-02 0.12501092E+03</pdfrwt>
<pdfrwt beam="1">  1       -4 0.28867619E-01 0.12501092E+03</pdfrwt>
<totfact> 0.18568271E+03</totfact>
</mgrwt>
</event>
<event>
 4    1  0.1435323E-002  0.1247574E+03  0.7818608E-02  0.1235449E+00
          4   -1    0    0  501    0  0.00000000000E+00  0.00000000000E+00  0.50365901653E+03  0.50366061771E+03  0.12700000000E+01 0. -1.
         -4   -1    0    0    0  501 -0.00000000000E+00 -0.00000000000E+00 -0.76718526286E+01  0.77762602036E+01  0.12700000000E+01 0. -1.
    9000005    1    1    2    0    0  0.69417732998E+01  0.58368663327E+02  0.16249135849E+03  0.17279910492E+03  0.10000000000E+01 0.  0.
    9000005    1    1    2    0    0 -0.69417732998E+01 -0.58368663327E+02  0.33349580541E+03  0.33863777300E+03  0.10000000000E+01 0.  0.
<mgrwt>
<rscale>  0 0.12475742E+03</rscale>
<asrwt>0</asrwt>
<pdfrwt beam="1">  1        4 0.12592800E+00 0.12475742E+03</pdfrwt>
<pdfrwt beam="2">  1       -4 0.19312143E-02 0.12475742E+03</pdfrwt>
<totfact> 0.86289711E+02</totfact>
</mgrwt>
</event>
<event>
 5    1  0.1435323E-002  0.1249892E+03  0.7818608E-02  0.1235086E+00
          4   -1    0    0  501    0  0.00000000000E+00  0.00000000000E+00  0.15450299117E+02  0.15502407645E+02  0.12700000000E+01 0. -1.
         -4   -1    0    0    0  501 -0.00000000000E+00 -0.00000000000E+00 -0.25230396922E+03  0.25230716554E+03  0.12700000000E+01 0. -1.
         25    2    1    2    0    0  0.00000000000E+00  0.00000000000E+00 -0.23685367011E+03  0.26780957319E+03  0.12498922533E+03 0.  0.
    9000005    1    3    3    0    0 -0.40709521843E+02 -0.88642235559E+00 -0.16869986300E+02  0.44086816068E+02  0.10000000000E+01 0.  0.
    9000005    1    3    3    0    0  0.40709521843E+02  0.88642235559E+00 -0.21998368381E+03  0.22372275712E+03  0.10000000000E+01 0.  0.
<mgrwt>
<rscale>  0 0.12498923E+03</rscale>
<asrwt>0</asrwt>
<pdfrwt beam="1">  1        4 0.38694887E-02 0.12498923E+03</pdfrwt>
<pdfrwt beam="2">  1       -4 0.63082892E-01 0.12498923E+03</pdfrwt>
<totfact> 0.13927212E+03</totfact>
</mgrwt>
</event>
<event>
 5    1  0.1435323E-002  0.1250026E+03  0.7818608E-02  0.1235065E+00
          4   -1    0    0  501    0  0.00000000000E+00  0.00000000000E+00  0.18556979574E+02  0.18600386849E+02  0.12700000000E+01 0. -1.
         -4   -1    0    0    0  501 -0.00000000000E+00 -0.00000000000E+00 -0.21021776281E+03  0.21022159903E+03  0.12700000000E+01 0. -1.
         25    2    1    2    0    0  0.00000000000E+00  0.00000000000E+00 -0.19166078323E+03  0.22882198588E+03  0.12500258155E+03 0.  0.
    9000005    1    3    3    0    0  0.53900951241E+02 -0.21789301759E+02 -0.53874509392E+02  0.79268839894E+02  0.10000000000E+01 0.  0.
    9000005    1    3    3    0    0 -0.53900951241E+02  0.21789301759E+02 -0.13778627384E+03  0.14955314599E+03  0.10000000000E+01 0.  0.
<mgrwt>
<rscale>  0 0.12500258E+03</rscale>
<asrwt>0</asrwt>
<pdfrwt beam="1">  1        4 0.46451510E-02 0.12500258E+03</pdfrwt>
<pdfrwt beam="2">  1       -4 0.52560339E-01 0.12500258E+03</pdfrwt>
<totfact> 0.15228591E+03</totfact>
</mgrwt>
</event>
<event>
 5    1  0.1435323E-002  0.1249937E+03  0.7818608E-02  0.1235079E+00
         -4   -1    0    0    0  501 -0.00000000000E+00  0.00000000000E+00  0.58820404178E+03  0.58820541282E+03  0.12700000000E+01 0.  1.
          4   -1    0    0  501    0  0.00000000000E+00 -0.00000000000E+00 -0.65781889339E+01  0.66996619057E+01  0.12700000000E+01 0.  1.
         25    2    1    2    0    0  0.00000000000E+00  0.00000000000E+00  0.58162585285E+03  0.59490507473E+03  0.12499366076E+03 0.  0.
    9000005    1    3    3    0    0 -0.47364139367E+02  0.12794759462E+02  0.47501079656E+03  0.47753881980E+03  0.10000000000E+01 0.  0.
    9000005    1    3    3    0    0  0.47364139367E+02 -0.12794759462E+02  0.10661505629E+03  0.11736625493E+03  0.10000000000E+01 0.  0.
<mgrwt>
<rscale>  0 0.12499366E+03</rscale>
<asrwt>0</asrwt>
<pdfrwt beam="2">  1        4 0.16599024E-02 0.12499366E+03</pdfrwt>
<pdfrwt beam="1">  1       -4 0.14706640E+00 0.12499366E+03</pdfrwt>
<totfact> 0.74158316E+02</totfact>
</mgrwt>
</event>
<event>
 5    1  0.1435323E-002  0.1250022E+03  0.7818608E-02  0.1235066E+00
          4   -1    0    0  501    0  0.00000000000E+00  0.00000000000E+00  0.21107521937E+02  0.21145694179E+02  0.12700000000E+01 0.  1.
         -4   -1    0    0    0  501 -0.00000000000E+00 -0.00000000000E+00 -0.18486340454E+03  0.18486776690E+03  0.12700000000E+01 0.  1.
         25    2    1    2    0    0  0.00000000000E+00  0.00000000000E+00 -0.16375588261E+03  0.20601346108E+03  0.12500222821E+03 0.  0.
    9000005    1    3    3    0    0  0.21273314509E+02 -0.43402943541E+02 -0.16596150058E+02  0.51115571159E+02  0.10000000000E+01 0.  0.
    9000005    1    3    3    0    0 -0.21273314509E+02  0.43402943541E+02 -0.14715973255E+03  0.15489788992E+03  0.10000000000E+01 0.  0.
<mgrwt>
<rscale>  0 0.12500223E+03</rscale>
<asrwt>0</asrwt>
<pdfrwt beam="1">  1        4 0.52821979E-02 0.12500223E+03</pdfrwt>
<pdfrwt beam="2">  1       -4 0.46221163E-01 0.12500223E+03</pdfrwt>
<totfact> 0.16083225E+03</totfact>
</mgrwt>
</event>
<event>
 5    1  0.1435323E-002  0.1250037E+03  0.7818608E-02  0.1235064E+00
         -4   -1    0    0    0  501 -0.00000000000E+00  0.00000000000E+00  0.89212822391E+02  0.89221861553E+02  0.12700000000E+01 0. -1.
          4   -1    0    0  501    0  0.00000000000E+00 -0.00000000000E+00 -0.43767854348E+02  0.43786276095E+02  0.12700000000E+01 0. -1.
         25    2    1    2    0    0  0.00000000000E+00  0.00000000000E+00  0.45444968043E+02  0.13300813765E+03  0.12500367819E+03 0.  0.
    9000005    1    3    3    0    0  0.23094599703E+02  0.51994299998E+02  0.50237832565E+02  0.75905254025E+02  0.10000000000E+01 0.  0.
    9000005    1    3    3    0    0 -0.23094599703E+02 -0.51994299998E+02 -0.47928645218E+01  0.57102883623E+02  0.10000000000E+01 0.  0.
<mgrwt>
<rscale>  0 0.12500368E+03</rscale>
<asrwt>0</asrwt>
<pdfrwt beam="2">  1        4 0.10945396E-01 0.12500368E+03</pdfrwt>
<pdfrwt beam="1">  1       -4 0.22306638E-01 0.12500368E+03</pdfrwt>
<totfact> 0.19402319E+03</totfact>
</mgrwt>
</event>
<event>
 5    1  0.1435323E-002  0.1250040E+03  0.7818608E-02  0.1235063E+00
         -4   -1    0    0    0  501 -0.00000000000E+00  0.00000000000E+00  0.18717795212E+02  0.18760830408E+02  0.12700000000E+01 0.  1.
          4   -1    0    0  501    0  0.00000000000E+00 -0.00000000000E+00 -0.20842046942E+03  0.20842433873E+03  0.12700000000E+01 0.  1.
         25    2    1    2    0    0  0.00000000000E+00  0.00000000000E+00 -0.18970267421E+03  0.22718516913E+03  0.12500398583E+03 0.  0.
    9000005    1    3    3    0    0 -0.17028848995E+02  0.50573895634E+02 -0.35741795778E+02  0.64235321928E+02  0.10000000000E+01 0.  0.
    9000005    1    3    3    0    0  0.17028848995E+02 -0.50573895634E+02 -0.15396087843E+03  0.16294984721E+03  0.10000000000E+01 0.  0.
<mgrwt>
<rscale>  0 0.12500399E+03</rscale>
<asrwt>0</asrwt>
<pdfrwt beam="2">  1        4 0.52110973E-01 0.12500399E+03</pdfrwt>
<pdfrwt beam="1">  1       -4 0.46853125E-02 0.12500399E+03</pdfrwt>
<totfact> 0.15287012E+03</totfact>
</mgrwt>
</event>
<event>
 5    1  0.1435323E-002  0.1250011E+03  0.7818608E-02  0.1235068E+00
         -4   -1    0    0    0  501 -0.00000000000E+00  0.00000000000E+00  0.89487514968E+03  0.89487605086E+03  0.12700000000E+01 0. -1.
          4   -1    0    0  501    0  0.00000000000E+00 -0.00000000000E+00 -0.42719143998E+01  0.44566975036E+01  0.12700000000E+01 0. -1.
         25    2    1    2    0    0  0.00000000000E+00  0.00000000000E+00  0.89060323528E+03  0.89933274837E+03  0.12500107839E+03 0.  0.
    9000005    1    3    3    0    0 -0.54854903635E+02 -0.26490970706E+01  0.23075782393E+03  0.23720508315E+03  0.10000000000E+01 0.  0.
    9000005    1    3    3    0    0  0.54854903635E+02  0.26490970706E+01  0.65984541135E+03  0.66212766522E+03  0.10000000000E+01 0.  0.
<mgrwt>
<rscale>  0 0.12500108E+03</rscale>
<asrwt>0</asrwt>
<pdfrwt beam="2">  1        4 0.10911893E-02 0.12500108E+03</pdfrwt>
<pdfrwt beam="1">  1       -4 0.22374197E+00 0.12500108E+03</pdfrwt>
<totfact> 0.44324564E+02</totfact>
</mgrwt>
</event>
<event>
 5    1  0.1435323E-002  0.1250027E+03  0.7818608E-02  0.1235065E+00
         -4   -1    0    0    0  501 -0.00000000000E+00  0.00000000000E+00  0.10814144797E+02  0.10888463055E+02  0.12700000000E+01 0.  1.
          4   -1    0    0  501    0  0.00000000000E+00 -0.00000000000E+00 -0.35991996835E+03  0.35992220898E+03  0.12700000000E+01 0.  1.
         25    2    1    2    0    0  0.00000000000E+00  0.00000000000E+00 -0.34910582355E+03  0.37081067204E+03  0.12500271380E+03 0.  0.
    9000005    1    3    3    0    0  0.19096252821E+02 -0.32400148267E+02 -0.32260624068E+03  0.32479258459E+03  0.10000000000E+01 0.  0.
    9000005    1    3    3    0    0 -0.19096252821E+02  0.32400148267E+02 -0.26499582872E+02  0.46018087443E+02  0.10000000000E+01 0.  0.
<mgrwt>
<rscale>  0 0.12500271E+03</rscale>
<asrwt>0</asrwt>
<pdfrwt beam="2">  1        4 0.89989522E-01 0.12500271E+03</pdfrwt>
<pdfrwt beam="1">  1       -4 0.27131073E-02 0.12500271E+03</pdfrwt>
<totfact> 0.11195557E+03</totfact>
</mgrwt>
</event>
<event>
 5    1  0.1435323E-002  0.1249933E+03  0.7818608E-02  0.1235080E+00
          4   -1    0    0  501    0  0.00000000000E+00  0.00000000000E+00  0.28067578656E+03  0.28067865979E+03  0.12700000000E+01 0.  1.
         -4   -1    0    0    0  501 -0.00000000000E+00 -0.00000000000E+00 -0.13883891772E+02  0.13941856072E+02  0.12700000000E+01 0.  1.
         25    2    1    2    0    0  0.00000000000E+00  0.00000000000E+00  0.26679189479E+03  0.29462051586E+03  0.12499333279E+03 0.  0.
    9000005    1    3    3    0    0 -0.43778921958E+02  0.42024351434E+02  0.16853107286E+03  0.17912666647E+03  0.10000000000E+01 0.  0.
    9000005    1    3    3    0    0  0.43778921958E+02 -0.42024351434E+02  0.98260821926E+02  0.11549384939E+03  0.10000000000E+01 0.  0.
<mgrwt>
<rscale>  0 0.12499333E+03</rscale>
<asrwt>0</asrwt>
<pdfrwt beam="1">  1        4 0.70176548E-01 0.12499333E+03</pdfrwt>
<pdfrwt beam="2">  1       -4 0.34785778E-02 0.12499333E+03</pdfrwt>
<totfact> 0.13125182E+03</totfact>
</mgrwt>
</event>
<event>
 5    1  0.1435323E-002  0.1250018E+03  0.7818608E-02  0.1235066E+00
          4   -1    0    0  501    0  0.00000000000E+00  0.00000000000E+00  0.96611111580E+01  0.97442274608E+01  0.12700000000E+01 0. -1.
         -4   -1    0    0    0  501 -0.00000000000E+00 -0.00000000000E+00 -0.40252315980E+03  0.40252516328E+03  0.12700000000E+01 0. -1.
         25    2    1    2    0    0  0.00000000000E+00  0.00000000000E+00 -0.39286204864E+03  0.41226939074E+03  0.12500184511E+03 0.  0.
    9000005    1    3    3    0    0 -0.80181020321E+01  0.19385934003E+02 -0.22831506304E+01  0.21126220063E+02  0.10000000000E+01 0.  0.
    9000005    1    3    3    0    0  0.80181020321E+01 -0.19385934003E+02 -0.39057889801E+03  0.39114317068E+03  0.10000000000E+01 0.  0.
<mgrwt>
<rscale>  0 0.12500185E+03</rscale>
<asrwt>0</asrwt>
<pdfrwt beam="1">  1        4 0.24259191E-02 0.12500185E+03</pdfrwt>
<pdfrwt beam="2">  1       -4 0.10064137E+00 0.12500185E+03</pdfrwt>
<totfact> 0.10319703E+03</totfact>
</mgrwt>
</event>
<event>
 5    1  0.1435323E-002  0.1249982E+03  0.7818608E-02  0.1235072E+00
          4   -1    0    0  501    0  0.00000000000E+00  0.00000000000E+00  0.20871763985E+02  0.20910366612E+02  0.12700000000E+01 0.  1.
         -4   -1    0    0    0  501 -0.00000000000E+00 -0.00000000000E+00 -0.18693569376E+03  0.18694000776E+03  0.12700000000E+01 0.  1.
         25    2    1    2    0    0  0.00000000000E+00  0.00000000000E+00 -0.16606392977E+03  0.20785037437E+03  0.12499819741E+03 0.  0.
    9000005    1    3    3    0    0  0.24438318726E+02  0.10558562310E+02  0.10979141247E+02  0.28814166702E+02  0.10000000000E+01 0.  0.
    9000005    1    3    3    0    0 -0.24438318726E+02 -0.10558562310E+02 -0.17704307102E+03  0.17903620767E+03  0.10000000000E+01 0.  0.
<mgrwt>
<rscale>  0 0.12499820E+03</rscale>
<asrwt>0</asrwt>
<pdfrwt beam="1">  1        4 0.52233061E-02 0.12499820E+03</pdfrwt>
<pdfrwt beam="2">  1       -4 0.46739283E-01 0.12499820E+03</pdfrwt>
<totfact> 0.16013121E+03</totfact>
</mgrwt>
</event>
<event>
 5    1  0.1435323E-002  0.1250008E+03  0.7818608E-02  0.1235068E+00
         -4   -1    0    0    0  501 -0.00000000000E+00  0.00000000000E+00  0.68082391387E+01  0.69256783183E+01  0.12700000000E+01 0. -1.
          4   -1    0    0  501    0  0.00000000000E+00 -0.00000000000E+00 -0.56873613160E+03  0.56873754957E+03  0.12700000000E+01 0. -1.
         25    2    1    2    0    0  0.00000000000E+00  0.00000000000E+00 -0.56192789247E+03  0.57566322789E+03  0.12500078245E+03 0.  0.
    9000005    1    3    3    0    0 -0.18576253248E+01 -0.50568132910E+01  0.57594593357E+01  0.79494342155E+01  0.10000000000E+01 0.  0.
    9000005    1    3    3    0    0  0.18576253248E+01  0.50568132910E+01 -0.56768735180E+03  0.56771379367E+03  0.10000000000E+01 0.  0.
<mgrwt>
<rscale>  0 0.12500078E+03</rscale>
<asrwt>0</asrwt>
<pdfrwt beam="2">  1        4 0.14219873E+00 0.12500078E+03</pdfrwt>
<pdfrwt beam="1">  1       -4 0.17169189E-02 0.12500078E+03</pdfrwt>
<totfact> 0.76651665E+02</totfact>
</mgrwt>
</event>
<event>
 5    1  0.1435323E-002  0.1249877E+03  0.7818608E-02  0.1235089E+00
          4   -1    0    0  501    0  0.00000000000E+00  0.00000000000E+00  0.14554590232E+03  0.14555144307E+03  0.12700000000E+01 0.  1.
         -4   -1    0    0    0  501 -0.00000000000E+00 -0.00000000000E+00 -0.26812246713E+02  0.26842307535E+02  0.12700000000E+01 0.  1.
         25    2    1    2    0    0  0.00000000000E+00  0.00000000000E+00  0.11873365560E+03  0.17239375061E+03  0.12498769650E+03 0.  0.
    9000005    1    3    3    0    0 -0.31017999376E+02  0.33866923632E+02  0.11781008511E+03  0.12644880765E+03  0.10000000000E+01 0.  0.
    9000005    1    3    3    0    0  0.31017999376E+02 -0.33866923632E+02  0.92357049474E+00  0.45944942964E+02  0.10000000000E+01 0.  0.
<mgrwt>
<rscale>  0 0.12498770E+03</rscale>
<asrwt>0</asrwt>
<pdfrwt beam="1">  1        4 0.36390925E-01 0.12498770E+03</pdfrwt>
<pdfrwt beam="2">  1       -4 0.67075120E-02 0.12498770E+03</pdfrwt>
<totfact> 0.17494611E+03</totfact>
</mgrwt>
</event>
<event>
 5    1  0.1435323E-002  0.1249985E+03  0.7818608E-02  0.1235072E+00
         -4   -1    0    0    0  501 -0.00000000000E+00  0.00000000000E+00  0.38194009569E+03  0.38194220714E+03  0.12700000000E+01 0. -1.
          4   -1    0    0  501    0  0.00000000000E+00 -0.00000000000E+00 -0.10185574570E+02  0.10264444910E+02  0.12700000000E+01 0. -1.
         25    2    1    2    0    0  0.00000000000E+00  0.00000000000E+00  0.37175452112E+03  0.39220665205E+03  0.12499853575E+03 0.  0.
    9000005    1    3    3    0    0  0.19364908469E+02  0.41696349420E+01  0.37184391130E+03  0.37237250155E+03  0.10000000000E+01 0.  0.
    9000005    1    3    3    0    0 -0.19364908469E+02 -0.41696349420E+01 -0.89390183501E-01  0.19834150503E+02  0.10000000000E+01 0.  0.
<mgrwt>
<rscale>  0 0.12499854E+03</rscale>
<asrwt>0</asrwt>
<pdfrwt beam="2">  1        4 0.25565164E-02 0.12499854E+03</pdfrwt>
<pdfrwt beam="1">  1       -4 0.95495146E-01 0.12499854E+03</pdfrwt>
<totfact> 0.10731868E+03</totfact>
</mgrwt>
</event>
<event>
 5    1  0.1435323E-002  0.1250026E+03  0.7818608E-02  0.1235065E+00
         -4   -1    0    0    0  501 -0.00000000000E+00  0.00000000000E+00  0.22327839335E+03  0.22328200518E+03  0.12700000000E+01 0. -1.
          4   -1    0    0  501    0  0.00000000000E+00 -0.00000000000E+00 -0.17468885091E+02  0.17514989190E+02  0.12700000000E+01 0. -1.
         25    2    1    2    0    0  0.00000000000E+00  0.00000000000E+00  0.20580950826E+03  0.24079699437E+03  0.12500255520E+03 0.  0.
    9000005    1    3    3    0    0 -0.15202825681E+02 -0.14963096411E+01 -0.13826233417E+02  0.20628368373E+02  0.10000000000E+01 0.  0.
    9000005    1    3    3    0    0  0.15202825681E+02  0.14963096411E+01  0.21963574168E+03  0.22016862600E+03  0.10000000000E+01 0.  0.
<mgrwt>
<rscale>  0 0.12500256E+03</rscale>
<asrwt>0</asrwt>
<pdfrwt beam="2">  1        4 0.43734358E-02 0.12500256E+03</pdfrwt>
<pdfrwt beam="1">  1       -4 0.55825812E-01 0.12500256E+03</pdfrwt>
<totfact> 0.14808162E+03</totfact>
</mgrwt>
</event>
<event>
 5    1  0.1435323E-002  0.1249988E+03  0.7818608E-02  0.1235071E+00
          4   -1    0    0  501    0  0.00000000000E+00  0.00000000000E+00  0.45803831920E+03  0.45804007986E+03  0.12700000000E+01 0.  1.
         -4   -1    0    0    0  501 -0.00000000000E+00 -0.00000000000E+00 -0.84789862798E+01  0.85735703375E+01  0.12700000000E+01 0.  1.
         25    2    1    2    0    0  0.00000000000E+00  0.00000000000E+00  0.44955933292E+03  0.46661365020E+03  0.12499881892E+03 0.  0.
    9000005    1    3    3    0    0 -0.18515700350E+02  0.18719880336E+02  0.43633953490E+03  0.43713436698E+03  0.10000000000E+01 0.  0.
    9000005    1    3    3    0    0  0.18515700350E+02 -0.18719880336E+02  0.13219798026E+02  0.29479283219E+02  0.10000000000E+01 0.  0.
<mgrwt>
<rscale>  0 0.12499882E+03</rscale>
<asrwt>0</asrwt>
<pdfrwt beam="1">  1        4 0.11452161E+00 0.12499882E+03</pdfrwt>
<pdfrwt beam="2">  1       -4 0.21317899E-02 0.12499882E+03</pdfrwt>
<totfact> 0.93111419E+02</totfact>
</mgrwt>
</event>
<event>
 5    1  0.1435323E-002  0.1249989E+03  0.7818608E-02  0.1235071E+00
         -4   -1    0    0    0  501 -0.00000000000E+00  0.00000000000E+00  0.47160243474E+01  0.48840337474E+01  0.12700000000E+01 0.  1.
          4   -1    0    0  501    0  0.00000000000E+00 -0.00000000000E+00 -0.81361463691E+03  0.81361562810E+03  0.12700000000E+01 0.  1.
         25    2    1    2    0    0  0.00000000000E+00  0.00000000000E+00 -0.80889861256E+03  0.81849966185E+03  0.12499892417E+03 0.  0.
    9000005    1    3    3    0    0  0.89911439888E+01  0.19319616639E+02 -0.19777235694E+02  0.29089986404E+02  0.10000000000E+01 0.  0.
    9000005    1    3    3    0    0 -0.89911439888E+01 -0.19319616639E+02 -0.78912137687E+03  0.78940967544E+03  0.10000000000E+01 0.  0.
<mgrwt>
<rscale>  0 0.12499892E+03</rscale>
<asrwt>0</asrwt>
<pdfrwt beam="2">  1        4 0.20342431E+00 0.12499892E+03</pdfrwt>
<pdfrwt beam="1">  1       -4 0.12001339E-02 0.12499892E+03</pdfrwt>
<totfact> 0.50869828E+02</totfact>
</mgrwt>
</event>
<event>
 5    1  0.1435323E-002  0.1250014E+03  0.7818608E-02  0.1235067E+00
          4   -1    0    0  501    0  0.00000000000E+00  0.00000000000E+00  0.35007407433E+03  0.35007637798E+03  0.12700000000E+01 0. -1.
         -4   -1    0    0    0  501 -0.00000000000E+00 -0.00000000000E+00 -0.11120110835E+02  0.11192397642E+02  0.12700000000E+01 0. -1.
         25    2    1    2    0    0  0.00000000000E+00  0.00000000000E+00  0.33895396350E+03  0.36126877562E+03  0.12500135547E+03 0.  0.
    9000005    1    3    3    0    0  0.44665771556E+02  0.38041128657E+02  0.23167675125E+03  0.23899220842E+03  0.10000000000E+01 0.  0.
    9000005    1    3    3    0    0 -0.44665771556E+02 -0.38041128657E+02  0.10727721225E+03  0.12227656720E+03  0.10000000000E+01 0.  0.
<mgrwt>
<rscale>  0 0.12500136E+03</rscale>
<asrwt>0</asrwt>
<pdfrwt beam="1">  1        4 0.87527845E-01 0.12500136E+03</pdfrwt>
<pdfrwt beam="2">  1       -4 0.27893514E-02 0.12500136E+03</pdfrwt>
<totfact> 0.11412741E+03</totfact>
</mgrwt>
</event>
<event>
 5    1  0.1435323E-002  0.1249980E+03  0.7818608E-02  0.1235072E+00
          4   -1    0    0  501    0  0.00000000000E+00  0.00000000000E+00  0.15836370632E+02  0.15887212934E+02  0.12700000000E+01 0. -1.
         -4   -1    0    0    0  501 -0.00000000000E+00 -0.00000000000E+00 -0.24620763735E+03  0.24621091282E+03  0.12700000000E+01 0. -1.
         25    2    1    2    0    0  0.00000000000E+00  0.00000000000E+00 -0.23037126672E+03  0.26209812575E+03  0.12499802795E+03 0.  0.
    9000005    1    3    3    0    0 -0.58687308739E+02  0.13034443120E+02 -0.15095650390E+03  0.16248988579E+03  0.10000000000E+01 0.  0.
    9000005    1    3    3    0    0  0.58687308739E+02 -0.13034443120E+02 -0.79414762820E+02  0.99608239961E+02  0.10000000000E+01 0.  0.
<mgrwt>
<rscale>  0 0.12499803E+03</rscale>
<asrwt>0</asrwt>
<pdfrwt beam="1">  1        4 0.39658582E-02 0.12499803E+03</pdfrwt>
<pdfrwt beam="2">  1       -4 0.61558662E-01 0.12499803E+03</pdfrwt>
<totfact> 0.14104665E+03</totfact>
</mgrwt>
</event>
<event>
 5    1  0.1435323E-002  0.1249979E+03  0.7818608E-02  0.1235073E+00
          4   -1    0    0  501    0  0.00000000000E+00  0.00000000000E+00  0.38358236527E+03  0.38358446768E+03  0.12700000000E+01 0. -1.
         -4   -1    0    0    0  501 -0.00000000000E+00 -0.00000000000E+00 -0.10141529635E+02  0.10220739862E+02  0.12700000000E+01 0. -1.
         25    2    1    2    0    0  0.00000000000E+00  0.00000000000E+00  0.37344083564E+03  0.39380520755E+03  0.12499793506E+03 0.  0.
    9000005    1    3    3    0    0  0.24443696469E+02  0.26752672263E+02  0.26325903508E+02  0.44802376787E+02  0.10000000000E+01 0.  0.
    9000005    1    3    3    0    0 -0.24443696469E+02 -0.26752672263E+02  0.34711493213E+03  0.34900283076E+03  0.10000000000E+01 0.  0.
<mgrwt>
<rscale>  0 0.12499794E+03</rscale>
<asrwt>0</asrwt>
<pdfrwt beam="1">  1        4 0.95905748E-01 0.12499794E+03</pdfrwt>
<pdfrwt beam="2">  1       -4 0.25455467E-02 0.12499794E+03</pdfrwt>
<totfact> 0.10698428E+03</totfact>
</mgrwt>
</event>
<event>
 5    1  0.1435323E-002  0.1249999E+03  0.7818608E-02  0.1235069E+00
          4   -1    0    0  501    0  0.00000000000E+00  0.00000000000E+00  0.11434335187E+02  0.11504647807E+02  0.12700000000E+01 0.  1.
         -4   -1    0    0    0  501 -0.00000000000E+00 -0.00000000000E+00 -0.34050562769E+03  0.34050799607E+03  0.12700000000E+01 0.  1.
         25    2    1    2    0    0  0.00000000000E+00  0.00000000000E+00 -0.32907129251E+03  0.35201264388E+03  0.12499994360E+03 0.  0.
    9000005    1    3    3    0    0  0.59154043121E+02 -0.15823919220E+02 -0.19966918907E+03  0.20885014316E+03  0.10000000000E+01 0.  0.
    9000005    1    3    3    0    0 -0.59154043121E+02  0.15823919220E+02 -0.12940210344E+03  0.14316250072E+03  0.10000000000E+01 0.  0.
<mgrwt>
<rscale>  0 0.12499994E+03</rscale>
<asrwt>0</asrwt>
<pdfrwt beam="1">  1        4 0.28676701E-02 0.12499994E+03</pdfrwt>
<pdfrwt beam="2">  1       -4 0.85135458E-01 0.12499994E+03</pdfrwt>
<totfact> 0.11629481E+03</totfact>
</mgrwt>
</event>
<event>
 5    1  0.1435323E-002  0.1250020E+03  0.7818608E-02  0.1235066E+00
          4   -1    0    0  501    0  0.00000000000E+00  0.00000000000E+00  0.78534322349E+02  0.78544590437E+02  0.12700000000E+01 0. -1.
         -4   -1    0    0    0  501 -0.00000000000E+00 -0.00000000000E+00 -0.49719342444E+02  0.49735559844E+02  0.12700000000E+01 0. -1.
         25    2    1    2    0    0  0.00000000000E+00  0.00000000000E+00  0.28814979906E+02  0.12828015028E+03  0.12500197554E+03 0.  0.
    9000005    1    3    3    0    0  0.31008210664E+02 -0.37287470125E+02 -0.26040734136E+02  0.55054376677E+02  0.10000000000E+01 0.  0.
    9000005    1    3    3    0    0 -0.31008210664E+02  0.37287470125E+02  0.54855714042E+02  0.73225773604E+02  0.10000000000E+01 0.  0.
<mgrwt>
<rscale>  0 0.12500198E+03</rscale>
<asrwt>0</asrwt>
<pdfrwt beam="1">  1        4 0.19636891E-01 0.12500198E+03</pdfrwt>
<pdfrwt beam="2">  1       -4 0.12433146E-01 0.12500198E+03</pdfrwt>
<totfact> 0.19656398E+03</totfact>
</mgrwt>
</event>
<event>
 5    1  0.1435323E-002  0.1249996E+03  0.7818608E-02  0.1235070E+00
         -4   -1    0    0    0  501 -0.00000000000E+00  0.00000000000E+00  0.13081526866E+02  0.13143030288E+02  0.12700000000E+01 0.  1.
          4   -1    0    0  501    0  0.00000000000E+00 -0.00000000000E+00 -0.29784300869E+03  0.29784571631E+03  0.12700000000E+01 0.  1.
         25    2    1    2    0    0  0.00000000000E+00  0.00000000000E+00 -0.28476148182E+03  0.31098874660E+03  0.12499959592E+03 0.  0.
    9000005    1    3    3    0    0  0.42476441045E+02  0.48015917331E+01 -0.28970930433E+02  0.51648989701E+02  0.10000000000E+01 0.  0.
    9000005    1    3    3    0    0 -0.42476441045E+02 -0.48015917331E+01 -0.25579055139E+03  0.25933975690E+03  0.10000000000E+01 0.  0.
<mgrwt>
<rscale>  0 0.12499960E+03</rscale>
<asrwt>0</asrwt>
<pdfrwt beam="2">  1        4 0.74468756E-01 0.12499960E+03</pdfrwt>
<pdfrwt beam="1">  1       -4 0.32784091E-02 0.12499960E+03</pdfrwt>
<totfact> 0.12668690E+03</totfact>
</mgrwt>
</event>
<event>
 5    1  0.1435323E-002  0.1250090E+03  0.7818608E-02  0.1235055E+00
          4   -1    0    0  501    0  0.00000000000E+00  0.00000000000E+00  0.24979675340E+02  0.25011938751E+02  0.12700000000E+01 0. -1.
         -4   -1    0    0    0  501 -0.00000000000E+00 -0.00000000000E+00 -0.15626375235E+03  0.15626891309E+03  0.12700000000E+01 0. -1.
         25    2    1    2    0    0  0.00000000000E+00  0.00000000000E+00 -0.13128407701E+03  0.18128085184E+03  0.12500895315E+03 0.  0.
    9000005    1    3    3    0    0 -0.37190900777E+02 -0.13390833942E+02 -0.13584052229E+03  0.14147835534E+03  0.10000000000E+01 0.  0.
    9000005    1    3    3    0    0  0.37190900777E+02  0.13390833942E+02  0.45564452775E+01  0.39802496502E+02  0.10000000000E+01 0.  0.
<mgrwt>
<rscale>  0 0.12500895E+03</rscale>
<asrwt>0</asrwt>
<pdfrwt beam="1">  1        4 0.62495973E-02 0.12500895E+03</pdfrwt>
<pdfrwt beam="2">  1       -4 0.39070613E-01 0.12500895E+03</pdfrwt>
<totfact> 0.17096369E+03</totfact>
</mgrwt>
</event>
<event>
 5    1  0.1435323E-002  0.1250010E+03  0.7818608E-02  0.1235068E+00
         -4   -1    0    0    0  501 -0.00000000000E+00  0.00000000000E+00  0.48545497940E+02  0.48562107350E+02  0.12700000000E+01 0. -1.
          4   -1    0    0  501    0  0.00000000000E+00 -0.00000000000E+00 -0.80431596551E+02  0.80441622459E+02  0.12700000000E+01 0. -1.
         25    2    1    2    0    0  0.00000000000E+00  0.00000000000E+00 -0.31886098611E+02  0.12900372981E+03  0.12500095608E+03 0.  0.
    9000005    1    3    3    0    0  0.10008972879E+02 -0.55698647697E+02 -0.43302160538E+02  0.71264268751E+02  0.10000000000E+01 0.  0.
    9000005    1    3    3    0    0 -0.10008972879E+02  0.55698647697E+02  0.11416061928E+02  0.57739461058E+02  0.10000000000E+01 0.  0.
<mgrwt>
<rscale>  0 0.12500096E+03</rscale>
<asrwt>0</asrwt>
<pdfrwt beam="2">  1        4 0.20111228E-01 0.12500096E+03</pdfrwt>
<pdfrwt beam="1">  1       -4 0.12139704E-01 0.12500096E+03</pdfrwt>
<totfact> 0.19617656E+03</totfact>
</mgrwt>
</event>
<event>
 5    1  0.1435323E-002  0.1249994E+03  0.7818608E-02  0.1235070E+00
          4   -1    0    0  501    0  0.00000000000E+00  0.00000000000E+00  0.17988807537E+03  0.17989255838E+03  0.12700000000E+01 0.  1.
         -4   -1    0    0    0  501 -0.00000000000E+00 -0.00000000000E+00 -0.21691366191E+02  0.21728512771E+02  0.12700000000E+01 0.  1.
         25    2    1    2    0    0  0.00000000000E+00  0.00000000000E+00  0.15819670918E+03  0.20162107115E+03  0.12499943015E+03 0.  0.
    9000005    1    3    3    0    0 -0.66706522813E+01 -0.94814630663E+01  0.17814635381E+03  0.17852596204E+03  0.10000000000E+01 0.  0.
    9000005    1    3    3    0    0  0.66706522813E+01  0.94814630663E+01 -0.19949644638E+02  0.23095109112E+02  0.10000000000E+01 0.  0.
<mgrwt>
<rscale>  0 0.12499943E+03</rscale>
<asrwt>0</asrwt>
<pdfrwt beam="1">  1        4 0.44977222E-01 0.12499943E+03</pdfrwt>
<pdfrwt beam="2">  1       -4 0.54280453E-02 0.12499943E+03</pdfrwt>
<totfact> 0.16257550E+03</totfact>
</mgrwt>
</event>
<event>
 5    1  0.1435323E-002  0.1250067E+03  0.7818608E-02  0.1235059E+00
          4   -1    0    0  501    0  0.00000000000E+00  0.00000000000E+00  0.59899591821E+03  0.59899726455E+03  0.12700000000E+01 0.  1.
         -4   -1    0    0    0  501 -0.00000000000E+00 -0.00000000000E+00 -0.64588404548E+01  0.65825162378E+01  0.12700000000E+01 0.  1.
         25    2    1    2    0    0  0.00000000000E+00  0.00000000000E+00  0.59253707776E+03  0.60557978079E+03  0.12500672933E+03 0.  0.
    9000005    1    3    3    0    0 -0.46361475755E+02  0.26125543706E+02  0.45500897371E+03  0.45811144564E+03  0.10000000000E+01 0.  0.
    9000005    1    3    3    0    0  0.46361475755E+02 -0.26125543706E+02  0.13752810405E+03  0.14746833515E+03  0.10000000000E+01 0.  0.
<mgrwt>
<rscale>  0 0.12500673E+03</rscale>
<asrwt>0</asrwt>
<pdfrwt beam="1">  1        4 0.14976460E+00 0.12500673E+03</pdfrwt>
<pdfrwt beam="2">  1       -4 0.16303379E-02 0.12500673E+03</pdfrwt>
<totfact> 0.72794191E+02</totfact>
</mgrwt>
</event>
<event>
 5    1  0.1435323E-002  0.1250322E+03  0.7818608E-02  0.1235019E+00
         -4   -1    0    0    0  501 -0.00000000000E+00  0.00000000000E+00  0.12743573126E+03  0.12744205939E+03  0.12700000000E+01 0.  1.
          4   -1    0    0  501    0  0.00000000000E+00 -0.00000000000E+00 -0.30648279455E+02  0.30674581228E+02  0.12700000000E+01 0.  1.
         25    2    1    2    0    0  0.00000000000E+00  0.00000000000E+00  0.96787451802E+02  0.15811664062E+03  0.12503224070E+03 0.  0.
    9000005    1    3    3    0    0  0.12562242510E+02 -0.41621553841E+02 -0.84024968463E+01  0.44291823561E+02  0.10000000000E+01 0.  0.
    9000005    1    3    3    0    0 -0.12562242510E+02  0.41621553841E+02  0.10518994865E+03  0.11382481706E+03  0.10000000000E+01 0.  0.
<mgrwt>
<rscale>  0 0.12503224E+03</rscale>
<asrwt>0</asrwt>
<pdfrwt beam="2">  1        4 0.76661487E-02 0.12503224E+03</pdfrwt>
<pdfrwt beam="1">  1       -4 0.31863011E-01 0.12503224E+03</pdfrwt>
<totfact> 0.18133155E+03</totfact>
</mgrwt>
</event>
<event>
 5    1  0.1435323E-002  0.1249990E+03  0.7818608E-02  0.1235071E+00
          4   -1    0    0  501    0  0.00000000000E+00  0.00000000000E+00  0.15344829029E+02  0.15397294500E+02  0.12700000000E+01 0. -1.
         -4   -1    0    0    0  501 -0.00000000000E+00 -0.00000000000E+00 -0.25407205210E+03  0.25407522618E+03  0.12700000000E+01 0. -1.
         25    2    1    2    0    0  0.00000000000E+00  0.00000000000E+00 -0.23872722307E+03  0.26947252068E+03  0.12499900946E+03 0.  0.
    9000005    1    3    3    0    0  0.36107729055E+02  0.47773171064E+02 -0.15787607837E+03  0.16885467152E+03  0.10000000000E+01 0.  0.
    9000005    1    3    3    0    0 -0.36107729055E+02 -0.47773171064E+02 -0.80851144695E+02  0.10061784916E+03  0.10000000000E+01 0.  0.
<mgrwt>
<rscale>  0 0.12499901E+03</rscale>
<asrwt>0</asrwt>
<pdfrwt beam="1">  1        4 0.38431630E-02 0.12499901E+03</pdfrwt>
<pdfrwt beam="2">  1       -4 0.63524954E-01 0.12499901E+03</pdfrwt>
<totfact> 0.13872265E+03</totfact>
</mgrwt>
</event>
<event>
 5    1  0.1435323E-002  0.1250196E+03  0.7818608E-02  0.1235039E+00
         -4   -1    0    0    0  501 -0.00000000000E+00  0.00000000000E+00  0.44284332647E+02  0.44302539634E+02  0.12700000000E+01 0. -1.
          4   -1    0    0  501    0  0.00000000000E+00 -0.00000000000E+00 -0.88195164997E+02  0.88204308448E+02  0.12700000000E+01 0. -1.
         25    2    1    2    0    0  0.00000000000E+00  0.00000000000E+00 -0.43910832349E+02  0.13250684808E+03  0.12501961282E+03 0.  0.
    9000005    1    3    3    0    0 -0.12796216312E+02  0.37888008226E+02 -0.72865729231E+02  0.83124357535E+02  0.10000000000E+01 0.  0.
    9000005    1    3    3    0    0  0.12796216312E+02 -0.37888008226E+02  0.28954896881E+02  0.49382490547E+02  0.10000000000E+01 0.  0.
<mgrwt>
<rscale>  0 0.12501961E+03</rscale>
<asrwt>0</asrwt>
<pdfrwt beam="2">  1        4 0.22052210E-01 0.12501961E+03</pdfrwt>
<pdfrwt beam="1">  1       -4 0.11074502E-01 0.12501961E+03</pdfrwt>
<totfact> 0.19421646E+03</totfact>
</mgrwt>
</event>
<event>
 5    1  0.1435323E-002  0.1250127E+03  0.7818608E-02  0.1235049E+00
         -4   -1    0    0    0  501 -0.00000000000E+00  0.00000000000E+00  0.50434246557E+02  0.50450234150E+02  0.12700000000E+01 0. -1.
          4   -1    0    0  501    0  0.00000000000E+00 -0.00000000000E+00 -0.77434557597E+02  0.77444971497E+02  0.12700000000E+01 0. -1.
         25    2    1    2    0    0  0.00000000000E+00  0.00000000000E+00 -0.27000311040E+02  0.12789520565E+03  0.12501266668E+03 0.  0.
    9000005    1    3    3    0    0 -0.24823493662E+02  0.15626449835E+02  0.42959761752E+02  0.52028193336E+02  0.10000000000E+01 0.  0.
    9000005    1    3    3    0    0  0.24823493662E+02 -0.15626449835E+02 -0.69960072792E+02  0.75867012311E+02  0.10000000000E+01 0.  0.
<mgrwt>
<rscale>  0 0.12501267E+03</rscale>
<asrwt>0</asrwt>
<pdfrwt beam="2">  1        4 0.19361939E-01 0.12501267E+03</pdfrwt>
<pdfrwt beam="1">  1       -4 0.12611862E-01 0.12501267E+03</pdfrwt>
<totfact> 0.19672421E+03</totfact>
</mgrwt>
</event>
<event>
 5    1  0.1435323E-002  0.1249985E+03  0.7818608E-02  0.1235072E+00
          4   -1    0    0  501    0  0.00000000000E+00  0.00000000000E+00  0.67861682759E+02  0.67873565450E+02  0.12700000000E+01 0.  1.
         -4   -1    0    0    0  501 -0.00000000000E+00 -0.00000000000E+00 -0.57536664853E+02  0.57550679426E+02  0.12700000000E+01 0.  1.
         25    2    1    2    0    0  0.00000000000E+00  0.00000000000E+00  0.10325017907E+02  0.12542424488E+03  0.12499854082E+03 0.  0.
    9000005    1    3    3    0    0  0.28135193704E+02  0.14942759449E+02 -0.48781942638E+02  0.58271374724E+02  0.10000000000E+01 0.  0.
    9000005    1    3    3    0    0 -0.28135193704E+02 -0.14942759449E+02  0.59106960545E+02  0.67152870152E+02  0.10000000000E+01 0.  0.
<mgrwt>
<rscale>  0 0.12499854E+03</rscale>
<asrwt>0</asrwt>
<pdfrwt beam="1">  1        4 0.16968658E-01 0.12499854E+03</pdfrwt>
<pdfrwt beam="2">  1       -4 0.14387403E-01 0.12499854E+03</pdfrwt>
<totfact> 0.19812741E+03</totfact>
</mgrwt>
</event>
<event>
 5    1  0.1435323E-002  0.1250030E+03  0.7818608E-02  0.1235065E+00
          4   -1    0    0  501    0  0.00000000000E+00  0.00000000000E+00  0.86829382967E+02  0.86838670225E+02  0.12700000000E+01 0. -1.
         -4   -1    0    0    0  501 -0.00000000000E+00 -0.00000000000E+00 -0.44969147201E+02  0.44987077033E+02  0.12700000000E+01 0. -1.
         25    2    1    2    0    0  0.00000000000E+00  0.00000000000E+00  0.41860235766E+02  0.13182574726E+03  0.12500299317E+03 0.  0.
    9000005    1    3    3    0    0  0.19423740981E+02 -0.21450087456E+02  0.79343315817E+02  0.84461528109E+02  0.10000000000E+01 0.  0.
    9000005    1    3    3    0    0 -0.19423740981E+02  0.21450087456E+02 -0.37483080051E+02  0.47364219150E+02  0.10000000000E+01 0.  0.
<mgrwt>
<rscale>  0 0.12500299E+03</rscale>
<asrwt>0</asrwt>
<pdfrwt beam="1">  1        4 0.21710748E-01 0.12500299E+03</pdfrwt>
<pdfrwt beam="2">  1       -4 0.11245689E-01 0.12500299E+03</pdfrwt>
<totfact> 0.19465365E+03</totfact>
</mgrwt>
</event>
<event>
 5    1  0.1435323E-002  0.1249961E+03  0.7818608E-02  0.1235075E+00
          4   -1    0    0  501    0  0.00000000000E+00  0.00000000000E+00  0.15526396978E+03  0.15526916375E+03  0.12700000000E+01 0.  1.
         -4   -1    0    0    0  501 -0.00000000000E+00 -0.00000000000E+00 -0.25135543886E+02  0.25167607483E+02  0.12700000000E+01 0.  1.
         25    2    1    2    0    0  0.00000000000E+00  0.00000000000E+00  0.13012842589E+03  0.18043677123E+03  0.12499608469E+03 0.  0.
    9000005    1    3    3    0    0 -0.21440022578E+01 -0.30603760678E+02  0.14365188629E+03  0.14689469476E+03  0.10000000000E+01 0.  0.
    9000005    1    3    3    0    0  0.21440022578E+01  0.30603760678E+02 -0.13523460395E+02  0.33542076477E+02  0.10000000000E+01 0.  0.
<mgrwt>
<rscale>  0 0.12499608E+03</rscale>
<asrwt>0</asrwt>
<pdfrwt beam="1">  1        4 0.38820649E-01 0.12499608E+03</pdfrwt>
<pdfrwt beam="2">  1       -4 0.62885433E-02 0.12499608E+03</pdfrwt>
<totfact> 0.17137881E+03</totfact>
</mgrwt>
</event>
<event>
 5    1  0.1435323E-002  0.1249984E+03  0.7818608E-02  0.1235072E+00
          4   -1    0    0  501    0  0.00000000000E+00  0.00000000000E+00  0.22417228336E+02  0.22453174080E+02  0.12700000000E+01 0.  1.
         -4   -1    0    0    0  501 -0.00000000000E+00 -0.00000000000E+00 -0.17406971585E+03  0.17407434870E+03  0.12700000000E+01 0.  1.
         25    2    1    2    0    0  0.00000000000E+00  0.00000000000E+00 -0.15165248751E+03  0.19652752278E+03  0.12499836095E+03 0.  0.
    9000005    1    3    3    0    0  0.46166204452E+02  0.37169294505E+02 -0.44686639506E+02  0.74234564981E+02  0.10000000000E+01 0.  0.
    9000005    1    3    3    0    0 -0.46166204452E+02 -0.37169294505E+02 -0.10696584800E+03  0.12229295780E+03  0.10000000000E+01 0.  0.
<mgrwt>
<rscale>  0 0.12499836E+03</rscale>
<asrwt>0</asrwt>
<pdfrwt beam="1">  1        4 0.56093799E-02 0.12499836E+03</pdfrwt>
<pdfrwt beam="2">  1       -4 0.43522497E-01 0.12499836E+03</pdfrwt>
<totfact> 0.16462660E+03</totfact>
</mgrwt>
</event>
<event>
 5    1  0.1435323E-002  0.1250013E+03  0.7818608E-02  0.1235067E+00
         -4   -1    0    0    0  501 -0.00000000000E+00  0.00000000000E+00  0.20045057362E+02  0.20085248932E+02  0.12700000000E+01 0. -1.
          4   -1    0    0  501    0  0.00000000000E+00 -0.00000000000E+00 -0.19464022662E+03  0.19464436986E+03  0.12700000000E+01 0. -1.
         25    2    1    2    0    0  0.00000000000E+00  0.00000000000E+00 -0.17459516926E+03  0.21472961879E+03  0.12500134423E+03 0.  0.
    9000005    1    3    3    0    0  0.51031899571E+02  0.34667869680E+02 -0.70186693841E+02  0.93452062333E+02  0.10000000000E+01 0.  0.
    9000005    1    3    3    0    0 -0.51031899571E+02 -0.34667869680E+02 -0.10440847542E+03  0.12127755646E+03  0.10000000000E+01 0.  0.
<mgrwt>
<rscale>  0 0.12500134E+03</rscale>
<asrwt>0</asrwt>
<pdfrwt beam="2">  1        4 0.48665593E-01 0.12500134E+03</pdfrwt>
<pdfrwt beam="1">  1       -4 0.50168068E-02 0.12500134E+03</pdfrwt>
<totfact> 0.15748266E+03</totfact>
</mgrwt>
</event>
<event>
 5    1  0.1435323E-002  0.1249945E+03  0.7818608E-02  0.1235078E+00
         -4   -1    0    0    0  501 -0.00000000000E+00  0.00000000000E+00  0.29447178915E+03  0.29447452777E+03  0.12700000000E+01 0. -1.
          4   -1    0    0  501    0  0.00000000000E+00 -0.00000000000E+00 -0.13230909903E+02  0.13291722118E+02  0.12700000000E+01 0. -1.
         25    2    1    2    0    0  0.00000000000E+00  0.00000000000E+00  0.28124087925E+03  0.30776624989E+03  0.12499452952E+03 0.  0.
    9000005    1    3    3    0    0  0.23141029959E+01 -0.14906769919E+01  0.29433451166E+03  0.29434908178E+03  0.10000000000E+01 0.  0.
    9000005    1    3    3    0    0 -0.23141029959E+01  0.14906769919E+01 -0.13093632407E+02  0.13417168113E+02  0.10000000000E+01 0.  0.
<mgrwt>
<rscale>  0 0.12499453E+03</rscale>
<asrwt>0</asrwt>
<pdfrwt beam="2">  1        4 0.33156713E-02 0.12499453E+03</pdfrwt>
<pdfrwt beam="1">  1       -4 0.73625892E-01 0.12499453E+03</pdfrwt>
<totfact> 0.12757748E+03</totfact>
</mgrwt>
</event>
<event>
 5    1  0.1435323E-002  0.1249996E+03  0.7818608E-02  0.1235070E+00
         -4   -1    0    0    0  501 -0.00000000000E+00  0.00000000000E+00  0.42997568305E+01  0.44833925549E+01  0.12700000000E+01 0. -1.
          4   -1    0    0  501    0  0.00000000000E+00 -0.00000000000E+00 -0.88929698505E+03  0.88929789189E+03  0.12700000000E+01 0. -1.
         25    2    1    2    0    0  0.00000000000E+00  0.00000000000E+00 -0.88499722822E+03  0.89378128444E+03  0.12499956187E+03 0.  0.
    9000005    1    3    3    0    0 -0.21674965559E+01 -0.58763282052E+02 -0.29125697829E+03  0.29713540476E+03  0.10000000000E+01 0.  0.
    9000005    1    3    3    0    0  0.21674965559E+01  0.58763282052E+02 -0.59374024993E+03  0.59664587968E+03  0.10000000000E+01 0.  0.
<mgrwt>
<rscale>  0 0.12499956E+03</rscale>
<asrwt>0</asrwt>
<pdfrwt beam="2">  1        4 0.22234670E+00 0.12499956E+03</pdfrwt>
<pdfrwt beam="1">  1       -4 0.10980101E-02 0.12499956E+03</pdfrwt>
<totfact> 0.44752019E+02</totfact>
</mgrwt>
</event>
<event>
 5    1  0.1435323E-002  0.1249995E+03  0.7818608E-02  0.1235070E+00
         -4   -1    0    0    0  501 -0.00000000000E+00  0.00000000000E+00  0.87651157028E+02  0.87660357222E+02  0.12700000000E+01 0.  1.
          4   -1    0    0  501    0  0.00000000000E+00 -0.00000000000E+00 -0.44544905816E+02  0.44563006341E+02  0.12700000000E+01 0.  1.
         25    2    1    2    0    0  0.00000000000E+00  0.00000000000E+00  0.43106251212E+02  0.13222336356E+03  0.12499947591E+03 0.  0.
    9000005    1    3    3    0    0  0.12589580397E+02  0.50253031037E+02  0.58520664289E+02  0.78163500509E+02  0.10000000000E+01 0.  0.
    9000005    1    3    3    0    0 -0.12589580397E+02 -0.50253031037E+02 -0.15414413077E+02  0.54059863054E+02  0.10000000000E+01 0.  0.
<mgrwt>
<rscale>  0 0.12499948E+03</rscale>
<asrwt>0</asrwt>
<pdfrwt beam="2">  1        4 0.11139639E-01 0.12499948E+03</pdfrwt>
<pdfrwt beam="1">  1       -4 0.21916202E-01 0.12499948E+03</pdfrwt>
<totfact> 0.19445821E+03</totfact>
</mgrwt>
</event>
<event>
 5    1  0.1435323E-002  0.1250000E+03  0.7818608E-02  0.1235069E+00
         -4   -1    0    0    0  501 -0.00000000000E+00  0.00000000000E+00  0.49494979409E+03  0.49495142344E+03  0.12700000000E+01 0.  1.
          4   -1    0    0  501    0  0.00000000000E+00 -0.00000000000E+00 -0.78394700618E+01  0.79416743102E+01  0.12700000000E+01 0.  1.
         25    2    1    2    0    0  0.00000000000E+00  0.00000000000E+00  0.48711032403E+03  0.50289309775E+03  0.12499999998E+03 0.  0.
    9000005    1    3    3    0    0 -0.41805599729E+02 -0.21498939578E+01  0.43022733653E+03  0.43226021250E+03  0.10000000000E+01 0.  0.
    9000005    1    3    3    0    0  0.41805599729E+02  0.21498939578E+01  0.56882987499E+02  0.70632885255E+02  0.10000000000E+01 0.  0.
<mgrwt>
<rscale>  0 0.12500000E+03</rscale>
<asrwt>0</asrwt>
<pdfrwt beam="2">  1        4 0.19728467E-02 0.12500000E+03</pdfrwt>
<pdfrwt beam="1">  1       -4 0.12375043E+00 0.12500000E+03</pdfrwt>
<totfact> 0.87148641E+02</totfact>
</mgrwt>
</event>
<event>
 5    1  0.1435323E-002  0.1250031E+03  0.7818608E-02  0.1235064E+00
          4   -1    0    0  501    0  0.00000000000E+00  0.00000000000E+00  0.75234818164E+01  0.76299199630E+01  0.12700000000E+01 0.  1.
         -4   -1    0    0    0  501 -0.00000000000E+00 -0.00000000000E+00 -0.51547901881E+03  0.51548058327E+03  0.12700000000E+01 0.  1.
         25    2    1    2    0    0  0.00000000000E+00  0.00000000000E+00 -0.50795553699E+03  0.52311050324E+03  0.12500308410E+03 0.  0.
    9000005    1    3    3    0    0 -0.42319013772E+02 -0.37352509534E+02 -0.14174027360E+03  0.15256937457E+03  0.10000000000E+01 0.  0.
    9000005    1    3    3    0    0  0.42319013772E+02  0.37352509534E+02 -0.36621526339E+03  0.37054112867E+03  0.10000000000E+01 0.  0.
<mgrwt>
<rscale>  0 0.12500308E+03</rscale>
<asrwt>0</asrwt>
<pdfrwt beam="1">  1        4 0.18943725E-02 0.12500308E+03</pdfrwt>
<pdfrwt beam="2">  1       -4 0.12888314E+00 0.12500308E+03</pdfrwt>
<totfact> 0.84038746E+02</totfact>
</mgrwt>
</event>
<event>
 5    1  0.1435323E-002  0.1250009E+03  0.7818608E-02  0.1235068E+00
         -4   -1    0    0    0  501 -0.00000000000E+00  0.00000000000E+00  0.46114008249E+02  0.46131493112E+02  0.12700000000E+01 0.  1.
          4   -1    0    0  501    0  0.00000000000E+00 -0.00000000000E+00 -0.84671411858E+02  0.84680935788E+02  0.12700000000E+01 0.  1.
         25    2    1    2    0    0  0.00000000000E+00  0.00000000000E+00 -0.38557403609E+02  0.13081242890E+03  0.12500087272E+03 0.  0.
    9000005    1    3    3    0    0  0.20455827637E+02 -0.84578417986E+01  0.41879148312E+02  0.47379732329E+02  0.10000000000E+01 0.  0.
    9000005    1    3    3    0    0 -0.20455827637E+02  0.84578417986E+01 -0.80436551921E+02  0.83432696571E+02  0.10000000000E+01 0.  0.
<mgrwt>
<rscale>  0 0.12500087E+03</rscale>
<asrwt>0</asrwt>
<pdfrwt beam="2">  1        4 0.21171229E-01 0.12500087E+03</pdfrwt>
<pdfrwt beam="1">  1       -4 0.11531878E-01 0.12500087E+03</pdfrwt>
<totfact> 0.19520409E+03</totfact>
</mgrwt>
</event>
<event>
 5    1  0.1435323E-002  0.1250074E+03  0.7818608E-02  0.1235058E+00
          4   -1    0    0  501    0  0.00000000000E+00  0.00000000000E+00  0.32238452391E+03  0.32238702541E+03  0.12700000000E+01 0. -1.
         -4   -1    0    0    0  501 -0.00000000000E+00 -0.00000000000E+00 -0.12082348997E+02  0.12148911774E+02  0.12700000000E+01 0. -1.
         25    2    1    2    0    0  0.00000000000E+00  0.00000000000E+00  0.31030217491E+03  0.33453593719E+03  0.12500741384E+03 0.  0.
    9000005    1    3    3    0    0 -0.17660289120E+02 -0.25804588427E+02  0.29995786658E+03  0.30158495373E+03  0.10000000000E+01 0.  0.
    9000005    1    3    3    0    0  0.17660289120E+02  0.25804588427E+02  0.10344308329E+02  0.32950983453E+02  0.10000000000E+01 0.  0.
<mgrwt>
<rscale>  0 0.12500741E+03</rscale>
<asrwt>0</asrwt>
<pdfrwt beam="1">  1        4 0.80604768E-01 0.12500741E+03</pdfrwt>
<pdfrwt beam="2">  1       -4 0.30292201E-02 0.12500741E+03</pdfrwt>
<totfact> 0.12053453E+03</totfact>
</mgrwt>
</event>
<event>
 5    1  0.1435323E-002  0.1249981E+03  0.7818608E-02  0.1235072E+00
         -4   -1    0    0    0  501 -0.00000000000E+00  0.00000000000E+00  0.14666701838E+03  0.14667251679E+03  0.12700000000E+01 0. -1.
          4   -1    0    0  501    0  0.00000000000E+00 -0.00000000000E+00 -0.26611495980E+02  0.26641783316E+02  0.12700000000E+01 0. -1.
         25    2    1    2    0    0  0.00000000000E+00  0.00000000000E+00  0.12005552240E+03  0.17331430011E+03  0.12499807263E+03 0.  0.
    9000005    1    3    3    0    0  0.19080249066E+02  0.44601739095E+02  0.54088361763E+01  0.48822397969E+02  0.10000000000E+01 0.  0.
    9000005    1    3    3    0    0 -0.19080249066E+02 -0.44601739095E+02  0.11464668623E+03  0.12449190214E+03  0.10000000000E+01 0.  0.
<mgrwt>
<rscale>  0 0.12499807E+03</rscale>
<asrwt>0</asrwt>
<pdfrwt beam="2">  1        4 0.66573474E-02 0.12499807E+03</pdfrwt>
<pdfrwt beam="1">  1       -4 0.36671227E-01 0.12499807E+03</pdfrwt>
<totfact> 0.17449366E+03</totfact>
</mgrwt>
</event>
<event>
 5    1  0.1435323E-002  0.1250006E+03  0.7818608E-02  0.1235068E+00
          4   -1    0    0  501    0  0.00000000000E+00  0.00000000000E+00  0.17965441050E+02  0.18010274071E+02  0.12700000000E+01 0. -1.
         -4   -1    0    0    0  501 -0.00000000000E+00 -0.00000000000E+00 -0.21711577136E+03  0.21711948570E+03  0.12700000000E+01 0. -1.
         25    2    1    2    0    0  0.00000000000E+00  0.00000000000E+00 -0.19915033031E+03  0.23512975978E+03  0.12500059948E+03 0.  0.
    9000005    1    3    3    0    0 -0.23883217186E+02  0.32668259215E+02 -0.10000564530E+02  0.41696936509E+02  0.10000000000E+01 0.  0.
    9000005    1    3    3    0    0  0.23883217186E+02 -0.32668259215E+02 -0.18914976578E+03  0.19343282327E+03  0.10000000000E+01 0.  0.
<mgrwt>
<rscale>  0 0.12500060E+03</rscale>
<asrwt>0</asrwt>
<pdfrwt beam="1">  1        4 0.44974294E-02 0.12500060E+03</pdfrwt>
<pdfrwt beam="2">  1       -4 0.54285003E-01 0.12500060E+03</pdfrwt>
<totfact> 0.15005524E+03</totfact>
</mgrwt>
</event>
<event>
 5    1  0.1435323E-002  0.1250016E+03  0.7818608E-02  0.1235067E+00
          4   -1    0    0  501    0  0.00000000000E+00  0.00000000000E+00  0.36198042688E+02  0.36220314665E+02  0.12700000000E+01 0. -1.
         -4   -1    0    0    0  501 -0.00000000000E+00 -0.00000000000E+00 -0.10785690341E+03  0.10786438019E+03  0.12700000000E+01 0. -1.
         25    2    1    2    0    0  0.00000000000E+00  0.00000000000E+00 -0.71658860721E+02  0.14408469485E+03  0.12500162787E+03 0.  0.
    9000005    1    3    3    0    0 -0.42093183055E+02  0.20154534215E+02 -0.83735151318E+02  0.95867705070E+02  0.10000000000E+01 0.  0.
    9000005    1    3    3    0    0  0.42093183055E+02 -0.20154534215E+02  0.12076290597E+02  0.48216989782E+02  0.10000000000E+01 0.  0.
<mgrwt>
<rscale>  0 0.12500163E+03</rscale>
<asrwt>0</asrwt>
<pdfrwt beam="1">  1        4 0.90532295E-02 0.12500163E+03</pdfrwt>
<pdfrwt beam="2">  1       -4 0.26967944E-01 0.12500163E+03</pdfrwt>
<totfact> 0.18832574E+03</totfact>
</mgrwt>
</event>
<event>
 5    1  0.1435323E-002  0.1250096E+03  0.7818608E-02  0.1235054E+00
         -4   -1    0    0    0  501 -0.00000000000E+00  0.00000000000E+00  0.59740791410E+03  0.59740926402E+03  0.12700000000E+01 0. -1.
          4   -1    0    0  501    0  0.00000000000E+00 -0.00000000000E+00 -0.64766457489E+01  0.65999878907E+01  0.12700000000E+01 0. -1.
         25    2    1    2    0    0  0.00000000000E+00  0.00000000000E+00  0.59093126835E+03  0.60400925191E+03  0.12500964951E+03 0.  0.
    9000005    1    3    3    0    0  0.39533549349E+02  0.46632193495E+02  0.35816430890E+03  0.36334575154E+03  0.10000000000E+01 0.  0.
    9000005    1    3    3    0    0 -0.39533549349E+02 -0.46632193495E+02  0.23276695945E+03  0.24066350037E+03  0.10000000000E+01 0.  0.
<mgrwt>
<rscale>  0 0.12500965E+03</rscale>
<asrwt>0</asrwt>
<pdfrwt beam="2">  1        4 0.16347480E-02 0.12500965E+03</pdfrwt>
<pdfrwt beam="1">  1       -4 0.14936756E+00 0.12500965E+03</pdfrwt>
<totfact> 0.72984804E+02</totfact>
</mgrwt>
</event>
<event>
 5    1  0.1435323E-002  0.1250021E+03  0.7818608E-02  0.1235066E+00
          4   -1    0    0  501    0  0.00000000000E+00  0.00000000000E+00  0.51700028495E+02  0.51715624780E+02  0.12700000000E+01 0.  1.
         -4   -1    0    0    0  501 -0.00000000000E+00 -0.00000000000E+00 -0.75526233275E+02  0.75536910267E+02  0.12700000000E+01 0.  1.
         25    2    1    2    0    0  0.00000000000E+00  0.00000000000E+00 -0.23826204780E+02  0.12725253505E+03  0.12500207855E+03 0.  0.
    9000005    1    3    3    0    0 -0.58884346956E+02 -0.18141740185E+02 -0.12901577963E+01  0.61637274116E+02  0.10000000000E+01 0.  0.
    9000005    1    3    3    0    0  0.58884346956E+02  0.18141740185E+02 -0.22536046984E+02  0.65615260930E+02  0.10000000000E+01 0.  0.
<mgrwt>
<rscale>  0 0.12500208E+03</rscale>
<asrwt>0</asrwt>
<pdfrwt beam="1">  1        4 0.12928291E-01 0.12500208E+03</pdfrwt>
<pdfrwt beam="2">  1       -4 0.18884842E-01 0.12500208E+03</pdfrwt>
<totfact> 0.19712340E+03</totfact>
</mgrwt>
</event>
<event>
 5    1  0.1435323E-002  0.1250001E+03  0.7818608E-02  0.1235069E+00
         -4   -1    0    0    0  501 -0.00000000000E+00  0.00000000000E+00  0.90524095192E+01  0.91410621978E+01  0.12700000000E+01 0. -1.
          4   -1    0    0  501    0  0.00000000000E+00 -0.00000000000E+00 -0.42932357841E+03  0.42932545682E+03  0.12700000000E+01 0. -1.
         25    2    1    2    0    0  0.00000000000E+00  0.00000000000E+00 -0.42027116889E+03  0.43846651902E+03  0.12500013162E+03 0.  0.
    9000005    1    3    3    0    0  0.47576395637E+01  0.59546692800E+02 -0.14575997763E+03  0.15752909204E+03  0.10000000000E+01 0.  0.
    9000005    1    3    3    0    0 -0.47576395637E+01 -0.59546692800E+02 -0.27451119126E+03  0.28093742699E+03  0.10000000000E+01 0.  0.
<mgrwt>
<rscale>  0 0.12500013E+03</rscale>
<asrwt>0</asrwt>
<pdfrwt beam="2">  1        4 0.10734214E+00 0.12500013E+03</pdfrwt>
<pdfrwt beam="1">  1       -4 0.22744202E-02 0.12500013E+03</pdfrwt>
<totfact> 0.98124928E+02</totfact>
</mgrwt>
</event>
<event>
 5    1  0.1435323E-002  0.1250015E+03  0.7818608E-02  0.1235067E+00
         -4   -1    0    0    0  501 -0.00000000000E+00  0.00000000000E+00  0.70369644328E+02  0.70381103593E+02  0.12700000000E+01 0.  1.
          4   -1    0    0  501    0  0.00000000000E+00 -0.00000000000E+00 -0.55488538682E+02  0.55503070411E+02  0.12700000000E+01 0.  1.
         25    2    1    2    0    0  0.00000000000E+00  0.00000000000E+00  0.14881105646E+02  0.12588417400E+03  0.12500151183E+03 0.  0.
    9000005    1    3    3    0    0  0.62486443602E+02  0.75372074206E-01  0.83317734557E+01  0.63047440582E+02  0.10000000000E+01 0.  0.
    9000005    1    3    3    0    0 -0.62486443602E+02 -0.75372074206E-01  0.65493321905E+01  0.62836733422E+02  0.10000000000E+01 0.  0.
<mgrwt>
<rscale>  0 0.12500151E+03</rscale>
<asrwt>0</asrwt>
<pdfrwt beam="2">  1        4 0.13875384E-01 0.12500151E+03</pdfrwt>
<pdfrwt beam="1">  1       -4 0.17595660E-01 0.12500151E+03</pdfrwt>
<totfact> 0.19786481E+03</totfact>
</mgrwt>
</event>
<event>
 5    1  0.1435323E-002  0.1250002E+03  0.7818608E-02  0.1235069E+00
         -4   -1    0    0    0  501 -0.00000000000E+00  0.00000000000E+00  0.34030028156E+02  0.34053718098E+02  0.12700000000E+01 0. -1.
          4   -1    0    0  501    0  0.00000000000E+00 -0.00000000000E+00 -0.11472159498E+03  0.11472862440E+03  0.12700000000E+01 0. -1.
         25    2    1    2    0    0  0.00000000000E+00  0.00000000000E+00 -0.80691566828E+02  0.14878234249E+03  0.12500022592E+03 0.  0.
    9000005    1    3    3    0    0 -0.36206541806E+02  0.50786740574E+02 -0.35727122725E+02  0.71886257281E+02  0.10000000000E+01 0.  0.
    9000005    1    3    3    0    0  0.36206541806E+02 -0.50786740574E+02 -0.44964444103E+02  0.76896085213E+02  0.10000000000E+01 0.  0.
<mgrwt>
<rscale>  0 0.12500023E+03</rscale>
<asrwt>0</asrwt>
<pdfrwt beam="2">  1        4 0.28684238E-01 0.12500023E+03</pdfrwt>
<pdfrwt beam="1">  1       -4 0.85113472E-02 0.12500023E+03</pdfrwt>
<totfact> 0.18598718E+03</totfact>
</mgrwt>
</event>
<event>
 5    1  0.1435323E-002  0.1250032E+03  0.7818608E-02  0.1235064E+00
         -4   -1    0    0    0  501 -0.00000000000E+00  0.00000000000E+00  0.24719796757E+02  0.24752398908E+02  0.12700000000E+01 0.  1.
          4   -1    0    0  501    0  0.00000000000E+00 -0.00000000000E+00 -0.15788980852E+03  0.15789491611E+03  0.12700000000E+01 0.  1.
         25    2    1    2    0    0  0.00000000000E+00  0.00000000000E+00 -0.13317001176E+03  0.18264731502E+03  0.12500315856E+03 0.  0.
    9000005    1    3    3    0    0 -0.47260734198E+02 -0.40888476265E+02 -0.66505988129E+02  0.91266044865E+02  0.10000000000E+01 0.  0.
    9000005    1    3    3    0    0  0.47260734198E+02  0.40888476265E+02 -0.66664023630E+02  0.91381270153E+02  0.10000000000E+01 0.  0.
<mgrwt>
<rscale>  0 0.12500316E+03</rscale>
<asrwt>0</asrwt>
<pdfrwt beam="2">  1        4 0.39477163E-01 0.12500316E+03</pdfrwt>
<pdfrwt beam="1">  1       -4 0.61846634E-02 0.12500316E+03</pdfrwt>
<totfact> 0.17039988E+03</totfact>
</mgrwt>
</event>
<event>
 5    1  0.1435323E-002  0.1250002E+03  0.7818608E-02  0.1235069E+00
          4   -1    0    0  501    0  0.00000000000E+00  0.00000000000E+00  0.57329781107E+03  0.57329921775E+03  0.12700000000E+01 0. -1.
         -4   -1    0    0    0  501 -0.00000000000E+00 -0.00000000000E+00 -0.67530608261E+01  0.68714431178E+01  0.12700000000E+01 0. -1.
         25    2    1    2    0    0  0.00000000000E+00  0.00000000000E+00  0.56654475024E+03  0.58017066087E+03  0.12500016683E+03 0.  0.
    9000005    1    3    3    0    0  0.79601660830E+01 -0.49739537816E+02  0.45493205827E+03  0.45771340761E+03  0.10000000000E+01 0.  0.
    9000005    1    3    3    0    0 -0.79601660830E+01  0.49739537816E+02  0.11161269197E+03  0.12245725326E+03  0.10000000000E+01 0.  0.
<mgrwt>
<rscale>  0 0.12500017E+03</rscale>
<asrwt>0</asrwt>
<pdfrwt beam="1">  1        4 0.14333945E+00 0.12500017E+03</pdfrwt>
<pdfrwt beam="2">  1       -4 0.17032385E-02 0.12500017E+03</pdfrwt>
<totfact> 0.76055613E+02</totfact>
</mgrwt>
</event>
<event>
 5    1  0.1435323E-002  0.1250004E+03  0.7818608E-02  0.1235069E+00
         -4   -1    0    0    0  501 -0.00000000000E+00  0.00000000000E+00  0.54758251713E+02  0.54772977194E+02  0.12700000000E+01 0. -1.
          4   -1    0    0  501    0  0.00000000000E+00 -0.00000000000E+00 -0.71306731699E+02  0.71318040394E+02  0.12700000000E+01 0. -1.
         25    2    1    2    0    0  0.00000000000E+00  0.00000000000E+00 -0.16548479986E+02  0.12609101759E+03  0.12500037011E+03 0.  0.
    9000005    1    3    3    0    0  0.54523811777E+02 -0.21386542664E+02  0.13711407202E+02  0.60160061047E+02  0.10000000000E+01 0.  0.
    9000005    1    3    3    0    0 -0.54523811777E+02  0.21386542664E+02 -0.30259887188E+02  0.65930956541E+02  0.10000000000E+01 0.  0.
<mgrwt>
<rscale>  0 0.12500037E+03</rscale>
<asrwt>0</asrwt>
<pdfrwt beam="2">  1        4 0.17829937E-01 0.12500037E+03</pdfrwt>
<pdfrwt beam="1">  1       -4 0.13692817E-01 0.12500037E+03</pdfrwt>
<totfact> 0.19775831E+03</totfact>
</mgrwt>
</event>
<event>
 5    1  0.1435323E-002  0.1250028E+03  0.7818608E-02  0.1235065E+00
          4   -1    0    0  501    0  0.00000000000E+00  0.00000000000E+00  0.38273521543E+03  0.38273732250E+03  0.12700000000E+01 0.  1.
         -4   -1    0    0    0  501 -0.00000000000E+00 -0.00000000000E+00 -0.10164946201E+02  0.10243975365E+02  0.12700000000E+01 0.  1.
         25    2    1    2    0    0  0.00000000000E+00  0.00000000000E+00  0.37257026923E+03  0.39298129786E+03  0.12500277979E+03 0.  0.
    9000005    1    3    3    0    0  0.59891203041E+02  0.17133274514E+02  0.20197837576E+03  0.21136879990E+03  0.10000000000E+01 0.  0.
    9000005    1    3    3    0    0 -0.59891203041E+02 -0.17133274514E+02  0.17059189347E+03  0.18161249796E+03  0.10000000000E+01 0.  0.
<mgrwt>
<rscale>  0 0.12500278E+03</rscale>
<asrwt>0</asrwt>
<pdfrwt beam="1">  1        4 0.95693943E-01 0.12500278E+03</pdfrwt>
<pdfrwt beam="2">  1       -4 0.25513787E-02 0.12500278E+03</pdfrwt>
<totfact> 0.10714537E+03</totfact>
</mgrwt>
</event>
<event>
 5    1  0.1435323E-002  0.1249993E+03  0.7818608E-02  0.1235070E+00
         -4   -1    0    0    0  501 -0.00000000000E+00  0.00000000000E+00  0.33078075834E+03  0.33078319635E+03  0.12700000000E+01 0. -1.
          4   -1    0    0  501    0  0.00000000000E+00 -0.00000000000E+00 -0.11772416509E+02  0.11840721703E+02  0.12700000000E+01 0. -1.
         25    2    1    2    0    0  0.00000000000E+00  0.00000000000E+00  0.31900834183E+03  0.34262391805E+03  0.12499930826E+03 0.  0.
    9000005    1    3    3    0    0 -0.37354754128E+02 -0.11228506126E+02  0.29333014053E+03  0.29591388671E+03  0.10000000000E+01 0.  0.
    9000005    1    3    3    0    0  0.37354754128E+02  0.11228506126E+02  0.25678201299E+02  0.46710031339E+02  0.10000000000E+01 0.  0.
<mgrwt>
<rscale>  0 0.12499931E+03</rscale>
<asrwt>0</asrwt>
<pdfrwt beam="2">  1        4 0.29519471E-02 0.12499931E+03</pdfrwt>
<pdfrwt beam="1">  1       -4 0.82704032E-01 0.12499931E+03</pdfrwt>
<totfact> 0.11855465E+03</totfact>
</mgrwt>
</event>
<event>
 5    1  0.1435323E-002  0.1249919E+03  0.7818608E-02  0.1235082E+00
          4   -1    0    0  501    0  0.00000000000E+00  0.00000000000E+00  0.10510471269E+04  0.10510478942E+04  0.12700000000E+01 0.  1.
         -4   -1    0    0    0  501 -0.00000000000E+00 -0.00000000000E+00 -0.36067476845E+01  0.38238107772E+01  0.12700000000E+01 0.  1.
         25    2    1    2    0    0  0.00000000000E+00  0.00000000000E+00  0.10474403792E+04  0.10548717049E+04  0.12499186339E+03 0.  0.
    9000005    1    3    3    0    0  0.29237909541E+02 -0.45852335119E+02  0.78349434018E+03  0.78537995460E+03  0.10000000000E+01 0.  0.
    9000005    1    3    3    0    0 -0.29237909541E+02  0.45852335119E+02  0.26394603902E+03  0.26949175035E+03  0.10000000000E+01 0.  0.
<mgrwt>
<rscale>  0 0.12499186E+03</rscale>
<asrwt>0</asrwt>
<pdfrwt beam="1">  1        4 0.26278891E+00 0.12499186E+03</pdfrwt>
<pdfrwt beam="2">  1       -4 0.92891606E-03 0.12499186E+03</pdfrwt>
<totfact> 0.33547564E+02</totfact>
</mgrwt>
</event>
<event>
 5    1  0.1435323E-002  0.1250029E+03  0.7818608E-02  0.1235065E+00
          4   -1    0    0  501    0  0.00000000000E+00  0.00000000000E+00  0.28937981828E+03  0.28938260509E+03  0.12700000000E+01 0.  1.
         -4   -1    0    0    0  501 -0.00000000000E+00 -0.00000000000E+00 -0.13466586687E+02  0.13526339379E+02  0.12700000000E+01 0.  1.
         25    2    1    2    0    0  0.00000000000E+00  0.00000000000E+00  0.27591323159E+03  0.30290894447E+03  0.12500286905E+03 0.  0.
    9000005    1    3    3    0    0 -0.81280527930E+01  0.59205879990E+02  0.18224434935E+03  0.19179521459E+03  0.10000000000E+01 0.  0.
    9000005    1    3    3    0    0  0.81280527930E+01 -0.59205879990E+02  0.93668882240E+02  0.11111372988E+03  0.10000000000E+01 0.  0.
<mgrwt>
<rscale>  0 0.12500287E+03</rscale>
<asrwt>0</asrwt>
<pdfrwt beam="1">  1        4 0.72352772E-01 0.12500287E+03</pdfrwt>
<pdfrwt beam="2">  1       -4 0.33744641E-02 0.12500287E+03</pdfrwt>
<totfact> 0.12889070E+03</totfact>
</mgrwt>
</event>
<event>
 5    1  0.1435323E-002  0.1249781E+03  0.7818608E-02  0.1235103E+00
         -4   -1    0    0    0  501 -0.00000000000E+00  0.00000000000E+00  0.28096250574E+02  0.28124939046E+02  0.12700000000E+01 0.  1.
          4   -1    0    0  501    0  0.00000000000E+00 -0.00000000000E+00 -0.13887980160E+03  0.13888560830E+03  0.12700000000E+01 0.  1.
         25    2    1    2    0    0  0.00000000000E+00  0.00000000000E+00 -0.11078355103E+03  0.16701054735E+03  0.12497810907E+03 0.  0.
    9000005    1    3    3    0    0  0.52507884884E+02 -0.26760385984E+02 -0.83124349341E+02  0.10190119571E+03  0.10000000000E+01 0.  0.
    9000005    1    3    3    0    0 -0.52507884884E+02  0.26760385984E+02 -0.27659201687E+02  0.65109351640E+02  0.10000000000E+01 0.  0.
<mgrwt>
<rscale>  0 0.12497811E+03</rscale>
<asrwt>0</asrwt>
<pdfrwt beam="2">  1        4 0.34724260E-01 0.12497811E+03</pdfrwt>
<pdfrwt beam="1">  1       -4 0.70283749E-02 0.12497811E+03</pdfrwt>
<totfact> 0.17741750E+03</totfact>
</mgrwt>
</event>
<event>
 5    1  0.1435323E-002  0.1250013E+03  0.7818608E-02  0.1235067E+00
          4   -1    0    0  501    0  0.00000000000E+00  0.00000000000E+00  0.25016599525E+02  0.25048815377E+02  0.12700000000E+01 0. -1.
         -4   -1    0    0    0  501 -0.00000000000E+00 -0.00000000000E+00 -0.15601424050E+03  0.15601940949E+03  0.12700000000E+01 0. -1.
         25    2    1    2    0    0  0.00000000000E+00  0.00000000000E+00 -0.13099764098E+03  0.18106822487E+03  0.12500128046E+03 0.  0.
    9000005    1    3    3    0    0  0.42342452037E+02 -0.42770665107E+02 -0.89871919295E+02  0.10816734681E+03  0.10000000000E+01 0.  0.
    9000005    1    3    3    0    0 -0.42342452037E+02  0.42770665107E+02 -0.41125721680E+02  0.72900878060E+02  0.10000000000E+01 0.  0.
<mgrwt>
<rscale>  0 0.12500128E+03</rscale>
<asrwt>0</asrwt>
<pdfrwt beam="1">  1        4 0.62588234E-02 0.12500128E+03</pdfrwt>
<pdfrwt beam="2">  1       -4 0.39008230E-01 0.12500128E+03</pdfrwt>
<totfact> 0.17108569E+03</totfact>
</mgrwt>
</event>
<event>
 5    1  0.1435323E-002  0.1250001E+03  0.7818608E-02  0.1235069E+00
          4   -1    0    0  501    0  0.00000000000E+00  0.00000000000E+00  0.83871288571E+02  0.83880903349E+02  0.12700000000E+01 0.  1.
         -4   -1    0    0    0  501 -0.00000000000E+00 -0.00000000000E+00 -0.46553464786E+02  0.46570784657E+02  0.12700000000E+01 0.  1.
         25    2    1    2    0    0  0.00000000000E+00  0.00000000000E+00  0.37317823785E+02  0.13045168801E+03  0.12500009173E+03 0.  0.
    9000005    1    3    3    0    0 -0.21345108542E+02  0.37148421213E+02 -0.28818435700E+02  0.51644177730E+02  0.10000000000E+01 0.  0.
    9000005    1    3    3    0    0  0.21345108542E+02 -0.37148421213E+02  0.66136259485E+02  0.78807510276E+02  0.10000000000E+01 0.  0.
<mgrwt>
<rscale>  0 0.12500009E+03</rscale>
<asrwt>0</asrwt>
<pdfrwt beam="1">  1        4 0.20971189E-01 0.12500009E+03</pdfrwt>
<pdfrwt beam="2">  1       -4 0.11641733E-01 0.12500009E+03</pdfrwt>
<totfact> 0.19540089E+03</totfact>
</mgrwt>
</event>
<event>
 5    1  0.1435323E-002  0.1250086E+03  0.7818608E-02  0.1235056E+00
         -4   -1    0    0    0  501 -0.00000000000E+00  0.00000000000E+00  0.37250858063E+02  0.37272500941E+02  0.12700000000E+01 0. -1.
          4   -1    0    0  501    0  0.00000000000E+00 -0.00000000000E+00 -0.10482189899E+03  0.10482959223E+03  0.12700000000E+01 0. -1.
         25    2    1    2    0    0  0.00000000000E+00  0.00000000000E+00 -0.67571040925E+02  0.14210209317E+03  0.12500863695E+03 0.  0.
    9000005    1    3    3    0    0  0.93918166178E+01  0.61065805053E+02 -0.44482405844E+02  0.76137528170E+02  0.10000000000E+01 0.  0.
    9000005    1    3    3    0    0 -0.93918166178E+01 -0.61065805053E+02 -0.23088635081E+02  0.65964565003E+02  0.10000000000E+01 0.  0.
<mgrwt>
<rscale>  0 0.12500864E+03</rscale>
<asrwt>0</asrwt>
<pdfrwt beam="2">  1        4 0.26209141E-01 0.12500864E+03</pdfrwt>
<pdfrwt beam="1">  1       -4 0.93163818E-02 0.12500864E+03</pdfrwt>
<totfact> 0.18929503E+03</totfact>
</mgrwt>
</event>
<event>
 5    1  0.1435323E-002  0.1250057E+03  0.7818608E-02  0.1235060E+00
         -4   -1    0    0    0  501 -0.00000000000E+00  0.00000000000E+00  0.16033297186E+03  0.16033800163E+03  0.12700000000E+01 0. -1.
          4   -1    0    0  501    0  0.00000000000E+00 -0.00000000000E+00 -0.24343608583E+02  0.24376713865E+02  0.12700000000E+01 0. -1.
         25    2    1    2    0    0  0.00000000000E+00  0.00000000000E+00  0.13598936328E+03  0.18471471550E+03  0.12500567665E+03 0.  0.
    9000005    1    3    3    0    0 -0.58323833101E+02  0.22396852674E+02  0.70243567553E+02  0.94013016651E+02  0.10000000000E+01 0.  0.
    9000005    1    3    3    0    0  0.58323833101E+02 -0.22396852674E+02  0.65745795729E+02  0.90701698844E+02  0.10000000000E+01 0.  0.
<mgrwt>
<rscale>  0 0.12500568E+03</rscale>
<asrwt>0</asrwt>
<pdfrwt beam="2">  1        4 0.60906691E-02 0.12500568E+03</pdfrwt>
<pdfrwt beam="1">  1       -4 0.40088010E-01 0.12500568E+03</pdfrwt>
<totfact> 0.16950727E+03</totfact>
</mgrwt>
</event>
<event>
 5    1  0.1435323E-002  0.1249979E+03  0.7818608E-02  0.1235073E+00
          4   -1    0    0  501    0  0.00000000000E+00  0.00000000000E+00  0.51875437363E+02  0.51890980928E+02  0.12700000000E+01 0. -1.
         -4   -1    0    0    0  501 -0.00000000000E+00 -0.00000000000E+00 -0.75265906011E+02  0.75276619927E+02  0.12700000000E+01 0. -1.
         25    2    1    2    0    0  0.00000000000E+00  0.00000000000E+00 -0.23390468647E+02  0.12716760085E+03  0.12499793872E+03 0.  0.
    9000005    1    3    3    0    0 -0.10391141052E+02 -0.35840691936E+02  0.39300570932E+02  0.54203928699E+02  0.10000000000E+01 0.  0.
    9000005    1    3    3    0    0  0.10391141052E+02  0.35840691936E+02 -0.62691039579E+02  0.72963672155E+02  0.10000000000E+01 0.  0.
<mgrwt>
<rscale>  0 0.12499794E+03</rscale>
<asrwt>0</asrwt>
<pdfrwt beam="1">  1        4 0.12972142E-01 0.12499794E+03</pdfrwt>
<pdfrwt beam="2">  1       -4 0.18819759E-01 0.12499794E+03</pdfrwt>
<totfact> 0.19718857E+03</totfact>
</mgrwt>
</event>
<event>
 5    1  0.1435323E-002  0.1250228E+03  0.7818608E-02  0.1235034E+00
         -4   -1    0    0    0  501 -0.00000000000E+00  0.00000000000E+00  0.23871341464E+02  0.23905100780E+02  0.12700000000E+01 0.  1.
          4   -1    0    0  501    0  0.00000000000E+00 -0.00000000000E+00 -0.16354554108E+03  0.16355047205E+03  0.12700000000E+01 0.  1.
         25    2    1    2    0    0  0.00000000000E+00  0.00000000000E+00 -0.13967419962E+03  0.18745557283E+03  0.12502283690E+03 0.  0.
    9000005    1    3    3    0    0  0.45793657761E+02 -0.41433028294E+02 -0.55383717940E+02  0.82958490449E+02  0.10000000000E+01 0.  0.
    9000005    1    3    3    0    0 -0.45793657761E+02  0.41433028294E+02 -0.84290481679E+02  0.10449708238E+03  0.10000000000E+01 0.  0.
<mgrwt>
<rscale>  0 0.12502284E+03</rscale>
<asrwt>0</asrwt>
<pdfrwt beam="2">  1        4 0.40891218E-01 0.12502284E+03</pdfrwt>
<pdfrwt beam="1">  1       -4 0.59726721E-02 0.12502284E+03</pdfrwt>
<totfact> 0.16828077E+03</totfact>
</mgrwt>
</event>
<event>
 5    1  0.1435323E-002  0.1250101E+03  0.7818608E-02  0.1235054E+00
         -4   -1    0    0    0  501 -0.00000000000E+00  0.00000000000E+00  0.58769565529E+03  0.58769702751E+03  0.12700000000E+01 0. -1.
          4   -1    0    0  501    0  0.00000000000E+00 -0.00000000000E+00 -0.65857441757E+01  0.67070803147E+01  0.12700000000E+01 0. -1.
         25    2    1    2    0    0  0.00000000000E+00  0.00000000000E+00  0.58110991111E+03  0.59440410783E+03  0.12501005802E+03 0.  0.
    9000005    1    3    3    0    0 -0.35486020642E+00 -0.57352420318E+02  0.40861058280E+03  0.41261729777E+03  0.10000000000E+01 0.  0.
    9000005    1    3    3    0    0  0.35486020642E+00  0.57352420318E+02  0.17249932831E+03  0.18178681005E+03  0.10000000000E+01 0.  0.
<mgrwt>
<rscale>  0 0.12501006E+03</rscale>
<asrwt>0</asrwt>
<pdfrwt beam="2">  1        4 0.16617748E-02 0.12501006E+03</pdfrwt>
<pdfrwt beam="1">  1       -4 0.14693923E+00 0.12501006E+03</pdfrwt>
<totfact> 0.74194625E+02</totfact>
</mgrwt>
</event>
<event>
 5    1  0.1435323E-002  0.1250154E+03  0.7818608E-02  0.1235045E+00
          4   -1    0    0  501    0  0.00000000000E+00  0.00000000000E+00  0.36657524676E+02  0.36679517654E+02  0.12700000000E+01 0.  1.
         -4   -1    0    0    0  501 -0.00000000000E+00 -0.00000000000E+00 -0.10652914595E+03  0.10653671591E+03  0.12700000000E+01 0.  1.
         25    2    1    2    0    0  0.00000000000E+00  0.00000000000E+00 -0.69871621278E+02  0.14321623357E+03  0.12501538344E+03 0.  0.
    9000005    1    3    3    0    0  0.39236826798E+02  0.22809068945E+02  0.14290255948E+02  0.47591949092E+02  0.10000000000E+01 0.  0.
    9000005    1    3    3    0    0 -0.39236826798E+02 -0.22809068945E+02 -0.84161877226E+02  0.95624284476E+02  0.10000000000E+01 0.  0.
<mgrwt>
<rscale>  0 0.12501538E+03</rscale>
<asrwt>0</asrwt>
<pdfrwt beam="1">  1        4 0.91680768E-02 0.12501538E+03</pdfrwt>
<pdfrwt beam="2">  1       -4 0.26635981E-01 0.12501538E+03</pdfrwt>
<totfact> 0.18870229E+03</totfact>
</mgrwt>
</event>
<event>
 5    1  0.1435323E-002  0.1249993E+03  0.7818608E-02  0.1235070E+00
          4   -1    0    0  501    0  0.00000000000E+00  0.00000000000E+00  0.26485154883E+03  0.26485459372E+03  0.12700000000E+01 0.  1.
         -4   -1    0    0    0  501 -0.00000000000E+00 -0.00000000000E+00 -0.14718196652E+02  0.14772887758E+02  0.12700000000E+01 0.  1.
         25    2    1    2    0    0  0.00000000000E+00  0.00000000000E+00  0.25013335217E+03  0.27962748148E+03  0.12499933811E+03 0.  0.
    9000005    1    3    3    0    0 -0.21041007527E+02  0.13841649537E+02 -0.28730248486E+01  0.25368672244E+02  0.10000000000E+01 0.  0.
    9000005    1    3    3    0    0  0.21041007527E+02 -0.13841649537E+02  0.25300637702E+03  0.25425880923E+03  0.10000000000E+01 0.  0.
<mgrwt>
<rscale>  0 0.12499934E+03</rscale>
<asrwt>0</asrwt>
<pdfrwt beam="1">  1        4 0.66220104E-01 0.12499934E+03</pdfrwt>
<pdfrwt beam="2">  1       -4 0.36867662E-02 0.12499934E+03</pdfrwt>
<totfact> 0.13562082E+03</totfact>
</mgrwt>
</event>
<event>
 4    1  0.1435323E-002  0.1248487E+03  0.7818608E-02  0.1235306E+00
          4   -1    0    0  501    0  0.00000000000E+00  0.00000000000E+00  0.22856549395E+02  0.22891805308E+02  0.12700000000E+01 0. -1.
         -4   -1    0    0    0  501 -0.00000000000E+00 -0.00000000000E+00 -0.17032041174E+03  0.17032514657E+03  0.12700000000E+01 0. -1.
    9000005    1    1    2    0    0 -0.35037676416E+02  0.39660077327E+02 -0.12494911723E+03  0.13569761383E+03  0.10000000000E+01 0.  0.
    9000005    1    1    2    0    0  0.35037676416E+02 -0.39660077327E+02 -0.22514745113E+02  0.57519338051E+02  0.10000000000E+01 0.  0.
<mgrwt>
<rscale>  0 0.12484871E+03</rscale>
<asrwt>0</asrwt>
<pdfrwt beam="1">  1        4 0.57191367E-02 0.12484871E+03</pdfrwt>
<pdfrwt beam="2">  1       -4 0.42585098E-01 0.12484871E+03</pdfrwt>
<totfact> 0.16655535E+03</totfact>
</mgrwt>
</event>
<event>
 5    1  0.1435323E-002  0.1249996E+03  0.7818608E-02  0.1235070E+00
         -4   -1    0    0    0  501 -0.00000000000E+00  0.00000000000E+00  0.78595768033E+03  0.78595870640E+03  0.12700000000E+01 0.  1.
          4   -1    0    0  501    0  0.00000000000E+00 -0.00000000000E+00 -0.48878457631E+01  0.50501421964E+01  0.12700000000E+01 0.  1.
         25    2    1    2    0    0  0.00000000000E+00  0.00000000000E+00  0.78106983457E+03  0.79100884860E+03  0.12499964837E+03 0.  0.
    9000005    1    3    3    0    0  0.86525013131E+01 -0.46015112370E+02  0.65244224030E+03  0.65412088583E+03  0.10000000000E+01 0.  0.
    9000005    1    3    3    0    0 -0.86525013131E+01  0.46015112370E+02  0.12862759427E+03  0.13688796277E+03  0.10000000000E+01 0.  0.
<mgrwt>
<rscale>  0 0.12499965E+03</rscale>
<asrwt>0</asrwt>
<pdfrwt beam="2">  1        4 0.12423768E-02 0.12499965E+03</pdfrwt>
<pdfrwt beam="1">  1       -4 0.19650982E+00 0.12499965E+03</pdfrwt>
<totfact> 0.53278684E+02</totfact>
</mgrwt>
</event>
<event>
 5    1  0.1435323E-002  0.1250028E+03  0.7818608E-02  0.1235065E+00
         -4   -1    0    0    0  501 -0.00000000000E+00  0.00000000000E+00  0.29486213621E+02  0.29513551018E+02  0.12700000000E+01 0. -1.
          4   -1    0    0  501    0  0.00000000000E+00 -0.00000000000E+00 -0.13239133054E+03  0.13239742181E+03  0.12700000000E+01 0. -1.
         25    2    1    2    0    0  0.00000000000E+00  0.00000000000E+00 -0.10290511692E+03  0.16191097283E+03  0.12500280010E+03 0.  0.
    9000005    1    3    3    0    0  0.51803147999E+02  0.33029328903E+02 -0.66273075349E+02  0.90374903744E+02  0.10000000000E+01 0.  0.
    9000005    1    3    3    0    0 -0.51803147999E+02 -0.33029328903E+02 -0.36632041567E+02  0.71536069083E+02  0.10000000000E+01 0.  0.
<mgrwt>
<rscale>  0 0.12500280E+03</rscale>
<asrwt>0</asrwt>
<pdfrwt beam="2">  1        4 0.33102010E-01 0.12500280E+03</pdfrwt>
<pdfrwt beam="1">  1       -4 0.73757323E-02 0.12500280E+03</pdfrwt>
<totfact> 0.17967021E+03</totfact>
</mgrwt>
</event>
<event>
 4    1  0.1435323E-002  0.1251147E+03  0.7818608E-02  0.1234890E+00
         -4   -1    0    0    0  501 -0.00000000000E+00  0.00000000000E+00  0.36107553150E+02  0.36129880909E+02  0.12700000000E+01 0. -1.
          4   -1    0    0  501    0  0.00000000000E+00 -0.00000000000E+00 -0.10832284293E+03  0.10833028755E+03  0.12700000000E+01 0. -1.
    9000005    1    1    2    0    0  0.50426463710E+02  0.15393612160E+02  0.27506770411E+01  0.52804902820E+02  0.10000000000E+01 0.  0.
    9000005    1    1    2    0    0 -0.50426463710E+02 -0.15393612160E+02 -0.74965966821E+02  0.91655265637E+02  0.10000000000E+01 0.  0.
<mgrwt>
<rscale>  0 0.12511472E+03</rscale>
<asrwt>0</asrwt>
<pdfrwt beam="2">  1        4 0.27084432E-01 0.12511472E+03</pdfrwt>
<pdfrwt beam="1">  1       -4 0.90306101E-02 0.12511472E+03</pdfrwt>
<totfact> 0.18764236E+03</totfact>
</mgrwt>
</event>
<event>
 5    1  0.1435323E-002  0.1250005E+03  0.7818608E-02  0.1235069E+00
          4   -1    0    0  501    0  0.00000000000E+00  0.00000000000E+00  0.42307822338E+03  0.42308012952E+03  0.12700000000E+01 0.  1.
         -4   -1    0    0    0  501 -0.00000000000E+00 -0.00000000000E+00 -0.91873871168E+01  0.92747497020E+01  0.12700000000E+01 0.  1.
         25    2    1    2    0    0  0.00000000000E+00  0.00000000000E+00  0.41389083626E+03  0.43235487922E+03  0.12500046899E+03 0.  0.
    9000005    1    3    3    0    0  0.33330240654E+02 -0.48796008668E+02  0.13662620772E+03  0.14886126440E+03  0.10000000000E+01 0.  0.
    9000005    1    3    3    0    0 -0.33330240654E+02  0.48796008668E+02  0.27726462854E+03  0.28349361482E+03  0.10000000000E+01 0.  0.
<mgrwt>
<rscale>  0 0.12500047E+03</rscale>
<asrwt>0</asrwt>
<pdfrwt beam="1">  1        4 0.10578072E+00 0.12500047E+03</pdfrwt>
<pdfrwt beam="2">  1       -4 0.23080053E-02 0.12500047E+03</pdfrwt>
<totfact> 0.99272244E+02</totfact>
</mgrwt>
</event>
<event>
 5    1  0.1435323E-002  0.1250003E+03  0.7818608E-02  0.1235069E+00
         -4   -1    0    0    0  501 -0.00000000000E+00  0.00000000000E+00  0.17543935287E+03  0.17544394955E+03  0.12700000000E+01 0.  1.
          4   -1    0    0  501    0  0.00000000000E+00 -0.00000000000E+00 -0.22242631614E+02  0.22278859062E+02  0.12700000000E+01 0.  1.
         25    2    1    2    0    0  0.00000000000E+00  0.00000000000E+00  0.15319672125E+03  0.19772280861E+03  0.12500029457E+03 0.  0.
    9000005    1    3    3    0    0  0.25123479929E+02  0.53631877329E+02  0.45053833456E+02  0.74420530895E+02  0.10000000000E+01 0.  0.
    9000005    1    3    3    0    0 -0.25123479929E+02 -0.53631877329E+02  0.10814288780E+03  0.12330227772E+03  0.10000000000E+01 0.  0.
<mgrwt>
<rscale>  0 0.12500029E+03</rscale>
<asrwt>0</asrwt>
<pdfrwt beam="2">  1        4 0.55657610E-02 0.12500029E+03</pdfrwt>
<pdfrwt beam="1">  1       -4 0.43864940E-01 0.12500029E+03</pdfrwt>
<totfact> 0.16413519E+03</totfact>
</mgrwt>
</event>
<event>
 5    1  0.1435323E-002  0.1249984E+03  0.7818608E-02  0.1235072E+00
          4   -1    0    0  501    0  0.00000000000E+00  0.00000000000E+00  0.44784968360E+02  0.44802971899E+02  0.12700000000E+01 0.  1.
         -4   -1    0    0    0  501 -0.00000000000E+00 -0.00000000000E+00 -0.87179946429E+02  0.87189196345E+02  0.12700000000E+01 0.  1.
         25    2    1    2    0    0  0.00000000000E+00  0.00000000000E+00 -0.42394978069E+02  0.13199216824E+03  0.12499839324E+03 0.  0.
    9000005    1    3    3    0    0 -0.57560342360E+02  0.17178448975E+02 -0.39391050127E+02  0.71839731012E+02  0.10000000000E+01 0.  0.
    9000005    1    3    3    0    0  0.57560342360E+02 -0.17178448975E+02 -0.30039279425E+01  0.60152437232E+02  0.10000000000E+01 0.  0.
<mgrwt>
<rscale>  0 0.12499839E+03</rscale>
<asrwt>0</asrwt>
<pdfrwt beam="1">  1        4 0.11199649E-01 0.12499839E+03</pdfrwt>
<pdfrwt beam="2">  1       -4 0.21798393E-01 0.12499839E+03</pdfrwt>
<totfact> 0.19458601E+03</totfact>
</mgrwt>
</event>
<event>
 5    1  0.1435323E-002  0.1249986E+03  0.7818608E-02  0.1235072E+00
         -4   -1    0    0    0  501 -0.00000000000E+00  0.00000000000E+00  0.34783062679E+01  0.37029062226E+01  0.12700000000E+01 0.  1.
          4   -1    0    0  501    0  0.00000000000E+00 -0.00000000000E+00 -0.10876581293E+04  0.10876588708E+04  0.12700000000E+01 0.  1.
         25    2    1    2    0    0  0.00000000000E+00  0.00000000000E+00 -0.10841798231E+04  0.10913617770E+04  0.12499855831E+03 0.  0.
    9000005    1    3    3    0    0  0.34002649140E+02 -0.23680284131E+02 -0.95051236778E+03  0.95141562806E+03  0.10000000000E+01 0.  0.
    9000005    1    3    3    0    0 -0.34002649140E+02  0.23680284131E+02 -0.13366745528E+03  0.13994614895E+03  0.10000000000E+01 0.  0.
<mgrwt>
<rscale>  0 0.12499856E+03</rscale>
<asrwt>0</asrwt>
<pdfrwt beam="2">  1        4 0.27194157E+00 0.12499856E+03</pdfrwt>
<pdfrwt beam="1">  1       -4 0.89774797E-03 0.12499856E+03</pdfrwt>
<totfact> 0.31300340E+02</totfact>
</mgrwt>
</event>
<event>
 5    1  0.1435323E-002  0.1250026E+03  0.7818608E-02  0.1235065E+00
          4   -1    0    0  501    0  0.00000000000E+00  0.00000000000E+00  0.50564225908E+01  0.52134738339E+01  0.12700000000E+01 0.  1.
         -4   -1    0    0    0  501 -0.00000000000E+00 -0.00000000000E+00 -0.76059277923E+03  0.76059383952E+03  0.12700000000E+01 0.  1.
         25    2    1    2    0    0  0.00000000000E+00  0.00000000000E+00 -0.75553635664E+03  0.76580731335E+03  0.12500261991E+03 0.  0.
    9000005    1    3    3    0    0 -0.22140754573E+02  0.45270311709E+02 -0.60417728250E+03  0.60627617702E+03  0.10000000000E+01 0.  0.
    9000005    1    3    3    0    0  0.22140754573E+02 -0.45270311709E+02 -0.15135907414E+03  0.15953113633E+03  0.10000000000E+01 0.  0.
<mgrwt>
<rscale>  0 0.12500262E+03</rscale>
<asrwt>0</asrwt>
<pdfrwt beam="1">  1        4 0.12838722E-02 0.12500262E+03</pdfrwt>
<pdfrwt beam="2">  1       -4 0.19016757E+00 0.12500262E+03</pdfrwt>
<totfact> 0.55577894E+02</totfact>
</mgrwt>
</event>
<event>
 5    1  0.1435323E-002  0.1250004E+03  0.7818608E-02  0.1235069E+00
         -4   -1    0    0    0  501 -0.00000000000E+00  0.00000000000E+00  0.36314671314E+01  0.38471357562E+01  0.12700000000E+01 0.  1.
          4   -1    0    0  501    0  0.00000000000E+00 -0.00000000000E+00 -0.10444382657E+04  0.10444390379E+04  0.12700000000E+01 0.  1.
         25    2    1    2    0    0  0.00000000000E+00  0.00000000000E+00 -0.10408067986E+04  0.10482861736E+04  0.12500043920E+03 0.  0.
    9000005    1    3    3    0    0 -0.14960476362E+02  0.19839100838E+01 -0.11838740525E+02  0.19206965648E+02  0.10000000000E+01 0.  0.
    9000005    1    3    3    0    0  0.14960476362E+02 -0.19839100838E+01 -0.10289680581E+04  0.10290792080E+04  0.10000000000E+01 0.  0.
<mgrwt>
<rscale>  0 0.12500044E+03</rscale>
<asrwt>0</asrwt>
<pdfrwt beam="2">  1        4 0.26113562E+00 0.12500044E+03</pdfrwt>
<pdfrwt beam="1">  1       -4 0.93492545E-03 0.12500044E+03</pdfrwt>
<totfact> 0.33956527E+02</totfact>
</mgrwt>
</event>
<event>
 5    1  0.1435323E-002  0.1249909E+03  0.7818608E-02  0.1235083E+00
         -4   -1    0    0    0  501 -0.00000000000E+00  0.00000000000E+00  0.16249251370E+02  0.16298805787E+02  0.12700000000E+01 0. -1.
          4   -1    0    0  501    0  0.00000000000E+00 -0.00000000000E+00 -0.23994369096E+03  0.23994705193E+03  0.12700000000E+01 0. -1.
         25    2    1    2    0    0  0.00000000000E+00  0.00000000000E+00 -0.22369443959E+03  0.25624585772E+03  0.12499094885E+03 0.  0.
    9000005    1    3    3    0    0 -0.62085033155E+01  0.40661170063E+02 -0.15408783259E+02  0.43935257662E+02  0.10000000000E+01 0.  0.
    9000005    1    3    3    0    0  0.62085033155E+01 -0.40661170063E+02 -0.20828565633E+03  0.21231060005E+03  0.10000000000E+01 0.  0.
<mgrwt>
<rscale>  0 0.12499095E+03</rscale>
<asrwt>0</asrwt>
<pdfrwt beam="2">  1        4 0.59992526E-01 0.12499095E+03</pdfrwt>
<pdfrwt beam="1">  1       -4 0.40689280E-02 0.12499095E+03</pdfrwt>
<totfact> 0.14295475E+03</totfact>
</mgrwt>
</event>
<event>
 5    1  0.1435323E-002  0.1250019E+03  0.7818608E-02  0.1235066E+00
          4   -1    0    0  501    0  0.00000000000E+00  0.00000000000E+00  0.16760379778E+02  0.16808427360E+02  0.12700000000E+01 0. -1.
         -4   -1    0    0    0  501 -0.00000000000E+00 -0.00000000000E+00 -0.23268820507E+03  0.23269167084E+03  0.12700000000E+01 0. -1.
         25    2    1    2    0    0  0.00000000000E+00  0.00000000000E+00 -0.21592782529E+03  0.24950009820E+03  0.12500189305E+03 0.  0.
    9000005    1    3    3    0    0 -0.39017838582E+02  0.39216278450E+02 -0.49941213535E+02  0.74534777335E+02  0.10000000000E+01 0.  0.
    9000005    1    3    3    0    0  0.39017838582E+02 -0.39216278450E+02 -0.16598661175E+03  0.17496532086E+03  0.10000000000E+01 0.  0.
<mgrwt>
<rscale>  0 0.12500189E+03</rscale>
<asrwt>0</asrwt>
<pdfrwt beam="1">  1        4 0.41965348E-02 0.12500189E+03</pdfrwt>
<pdfrwt beam="2">  1       -4 0.58178480E-01 0.12500189E+03</pdfrwt>
<totfact> 0.14514001E+03</totfact>
</mgrwt>
</event>
<event>
 5    1  0.1435323E-002  0.1250019E+03  0.7818608E-02  0.1235066E+00
          4   -1    0    0  501    0  0.00000000000E+00  0.00000000000E+00  0.14870027527E+02  0.14924162243E+02  0.12700000000E+01 0.  1.
         -4   -1    0    0    0  501 -0.00000000000E+00 -0.00000000000E+00 -0.26216769900E+03  0.26217077507E+03  0.12700000000E+01 0.  1.
         25    2    1    2    0    0  0.00000000000E+00  0.00000000000E+00 -0.24729767147E+03  0.27709493731E+03  0.12500186385E+03 0.  0.
    9000005    1    3    3    0    0 -0.32306182046E+02 -0.43721635186E+02 -0.19197637508E+03  0.19952744015E+03  0.10000000000E+01 0.  0.
    9000005    1    3    3    0    0  0.32306182046E+02  0.43721635186E+02 -0.55321296389E+02  0.77567497162E+02  0.10000000000E+01 0.  0.
<mgrwt>
<rscale>  0 0.12500186E+03</rscale>
<asrwt>0</asrwt>
<pdfrwt beam="1">  1        4 0.37246591E-02 0.12500186E+03</pdfrwt>
<pdfrwt beam="2">  1       -4 0.65549061E-01 0.12500186E+03</pdfrwt>
<totfact> 0.13637617E+03</totfact>
</mgrwt>
</event>
<event>
 5    1  0.1435323E-002  0.1250069E+03  0.7818608E-02  0.1235059E+00
         -4   -1    0    0    0  501 -0.00000000000E+00  0.00000000000E+00  0.58523453087E+01  0.59885595607E+01  0.12700000000E+01 0.  1.
          4   -1    0    0  501    0  0.00000000000E+00 -0.00000000000E+00 -0.65972463383E+03  0.65972585623E+03  0.12700000000E+01 0.  1.
         25    2    1    2    0    0  0.00000000000E+00  0.00000000000E+00 -0.65387228852E+03  0.66571441579E+03  0.12500685461E+03 0.  0.
    9000005    1    3    3    0    0  0.39320017061E+02 -0.45195430822E+02 -0.23212151526E+03  0.23972919838E+03  0.10000000000E+01 0.  0.
    9000005    1    3    3    0    0 -0.39320017061E+02  0.45195430822E+02 -0.42175077326E+03  0.42598521741E+03  0.10000000000E+01 0.  0.
<mgrwt>
<rscale>  0 0.12500685E+03</rscale>
<asrwt>0</asrwt>
<pdfrwt beam="2">  1        4 0.16494809E+00 0.12500685E+03</pdfrwt>
<pdfrwt beam="1">  1       -4 0.14802682E-02 0.12500685E+03</pdfrwt>
<totfact> 0.65731129E+02</totfact>
</mgrwt>
</event>
<event>
 5    1  0.1435323E-002  0.1250183E+03  0.7818608E-02  0.1235041E+00
          4   -1    0    0  501    0  0.00000000000E+00  0.00000000000E+00  0.25148142358E+03  0.25148463035E+03  0.12700000000E+01 0.  1.
         -4   -1    0    0    0  501 -0.00000000000E+00 -0.00000000000E+00 -0.15508234536E+02  0.15560149049E+02  0.12700000000E+01 0.  1.
         25    2    1    2    0    0  0.00000000000E+00  0.00000000000E+00  0.23597318904E+03  0.26704477940E+03  0.12501827171E+03 0.  0.
    9000005    1    3    3    0    0 -0.40695531956E+02 -0.76636159109E+01  0.21798309018E+03  0.22188394475E+03  0.10000000000E+01 0.  0.
    9000005    1    3    3    0    0  0.40695531956E+02  0.76636159109E+01  0.17990098857E+02  0.45160834657E+02  0.10000000000E+01 0.  0.
<mgrwt>
<rscale>  0 0.12501827E+03</rscale>
<asrwt>0</asrwt>
<pdfrwt beam="1">  1        4 0.62877247E-01 0.12501827E+03</pdfrwt>
<pdfrwt beam="2">  1       -4 0.38839488E-02 0.12501827E+03</pdfrwt>
<totfact> 0.13941844E+03</totfact>
</mgrwt>
</event>
<event>
 5    1  0.1435323E-002  0.1250095E+03  0.7818608E-02  0.1235054E+00
          4   -1    0    0  501    0  0.00000000000E+00  0.00000000000E+00  0.36611418180E+02  0.36633438838E+02  0.12700000000E+01 0. -1.
         -4   -1    0    0    0  501 -0.00000000000E+00 -0.00000000000E+00 -0.10665316429E+03  0.10666072545E+03  0.12700000000E+01 0. -1.
         25    2    1    2    0    0  0.00000000000E+00  0.00000000000E+00 -0.70041746111E+02  0.14329416429E+03  0.12500948492E+03 0.  0.
    9000005    1    3    3    0    0 -0.55714288981E+02  0.25455901971E+02 -0.20807268091E+02  0.64699515819E+02  0.10000000000E+01 0.  0.
    9000005    1    3    3    0    0  0.55714288981E+02 -0.25455901971E+02 -0.49234478019E+02  0.78594648467E+02  0.10000000000E+01 0.  0.
<mgrwt>
<rscale>  0 0.12500948E+03</rscale>
<asrwt>0</asrwt>
<pdfrwt beam="1">  1        4 0.91565525E-02 0.12500948E+03</pdfrwt>
<pdfrwt beam="2">  1       -4 0.26666988E-01 0.12500948E+03</pdfrwt>
<totfact> 0.18868895E+03</totfact>
</mgrwt>
</event>
<event>
 5    1  0.1435323E-002  0.1249973E+03  0.7818608E-02  0.1235074E+00
         -4   -1    0    0    0  501 -0.00000000000E+00  0.00000000000E+00  0.14678265590E+03  0.14678814998E+03  0.12700000000E+01 0. -1.
          4   -1    0    0  501    0  0.00000000000E+00 -0.00000000000E+00 -0.26590178462E+02  0.26620490052E+02  0.12700000000E+01 0. -1.
         25    2    1    2    0    0  0.00000000000E+00  0.00000000000E+00  0.12019247744E+03  0.17340864003E+03  0.12499729919E+03 0.  0.
    9000005    1    3    3    0    0 -0.13147695149E+02 -0.48177031346E+02  0.11221130617E+03  0.12282615955E+03  0.10000000000E+01 0.  0.
    9000005    1    3    3    0    0  0.13147695149E+02  0.48177031346E+02  0.79811712740E+01  0.50582480484E+02  0.10000000000E+01 0.  0.
<mgrwt>
<rscale>  0 0.12499730E+03</rscale>
<asrwt>0</asrwt>
<pdfrwt beam="2">  1        4 0.66520203E-02 0.12499730E+03</pdfrwt>
<pdfrwt beam="1">  1       -4 0.36700140E-01 0.12499730E+03</pdfrwt>
<totfact> 0.17445483E+03</totfact>
</mgrwt>
</event>
<event>
 5    1  0.1435323E-002  0.1250005E+03  0.7818608E-02  0.1235069E+00
         -4   -1    0    0    0  501 -0.00000000000E+00  0.00000000000E+00  0.15906967025E+02  0.15957584402E+02  0.12700000000E+01 0.  1.
          4   -1    0    0  501    0  0.00000000000E+00 -0.00000000000E+00 -0.24512794597E+03  0.24513123587E+03  0.12700000000E+01 0.  1.
         25    2    1    2    0    0  0.00000000000E+00  0.00000000000E+00 -0.22922097895E+03  0.26108882027E+03  0.12500045951E+03 0.  0.
    9000005    1    3    3    0    0  0.17288822395E+02 -0.59349279445E+02 -0.95462839740E+02  0.11373387412E+03  0.10000000000E+01 0.  0.
    9000005    1    3    3    0    0 -0.17288822395E+02  0.59349279445E+02 -0.13375813921E+03  0.14735494615E+03  0.10000000000E+01 0.  0.
<mgrwt>
<rscale>  0 0.12500046E+03</rscale>
<asrwt>0</asrwt>
<pdfrwt beam="2">  1        4 0.61288713E-01 0.12500046E+03</pdfrwt>
<pdfrwt beam="1">  1       -4 0.39834809E-02 0.12500046E+03</pdfrwt>
<totfact> 0.14136107E+03</totfact>
</mgrwt>
</event>
<event>
 5    1  0.1435323E-002  0.1249988E+03  0.7818608E-02  0.1235071E+00
          4   -1    0    0  501    0  0.00000000000E+00  0.00000000000E+00  0.20757074967E+02  0.20795890487E+02  0.12700000000E+01 0. -1.
         -4   -1    0    0    0  501 -0.00000000000E+00 -0.00000000000E+00 -0.18796861986E+03  0.18797291016E+03  0.12700000000E+01 0. -1.
         25    2    1    2    0    0  0.00000000000E+00  0.00000000000E+00 -0.16721154490E+03  0.20876880065E+03  0.12499884550E+03 0.  0.
    9000005    1    3    3    0    0 -0.22131137966E+02  0.35173570075E+02 -0.16155458837E+03  0.16681682266E+03  0.10000000000E+01 0.  0.
    9000005    1    3    3    0    0  0.22131137966E+02 -0.35173570075E+02 -0.56569565247E+01  0.41951977982E+02  0.10000000000E+01 0.  0.
<mgrwt>
<rscale>  0 0.12499885E+03</rscale>
<asrwt>0</asrwt>
<pdfrwt beam="1">  1        4 0.51946575E-02 0.12499885E+03</pdfrwt>
<pdfrwt beam="2">  1       -4 0.46997538E-01 0.12499885E+03</pdfrwt>
<totfact> 0.15977271E+03</totfact>
</mgrwt>
</event>
<event>
 5    1  0.1435323E-002  0.1249821E+03  0.7818608E-02  0.1235097E+00
          4   -1    0    0  501    0  0.00000000000E+00  0.00000000000E+00  0.49507582904E+03  0.49507745798E+03  0.12700000000E+01 0.  1.
         -4   -1    0    0    0  501 -0.00000000000E+00 -0.00000000000E+00 -0.78351681763E+01  0.79374278171E+01  0.12700000000E+01 0.  1.
         25    2    1    2    0    0  0.00000000000E+00  0.00000000000E+00  0.48724066086E+03  0.50301488580E+03  0.12498205365E+03 0.  0.
    9000005    1    3    3    0    0  0.52658467926E+02 -0.12878094933E+02  0.36866921544E+03  0.37263487489E+03  0.10000000000E+01 0.  0.
    9000005    1    3    3    0    0 -0.52658467926E+02  0.12878094933E+02  0.11857144542E+03  0.13038001090E+03  0.10000000000E+01 0.  0.
<mgrwt>
<rscale>  0 0.12498205E+03</rscale>
<asrwt>0</asrwt>
<pdfrwt beam="1">  1        4 0.12378193E+00 0.12498205E+03</pdfrwt>
<pdfrwt beam="2">  1       -4 0.19717783E-02 0.12498205E+03</pdfrwt>
<totfact> 0.87164903E+02</totfact>
</mgrwt>
</event>
<event>
 5    1  0.1435323E-002  0.1249978E+03  0.7818608E-02  0.1235073E+00
         -4   -1    0    0    0  501 -0.00000000000E+00  0.00000000000E+00  0.11045404964E+03  0.11046135063E+03  0.12700000000E+01 0. -1.
          4   -1    0    0  501    0  0.00000000000E+00 -0.00000000000E+00 -0.35344269119E+02  0.35367078754E+02  0.12700000000E+01 0. -1.
         25    2    1    2    0    0  0.00000000000E+00  0.00000000000E+00  0.75109780524E+02  0.14582842938E+03  0.12499780672E+03 0.  0.
    9000005    1    3    3    0    0 -0.51011182202E+02 -0.12720734267E+02  0.76965408827E+02  0.93212831444E+02  0.10000000000E+01 0.  0.
    9000005    1    3    3    0    0  0.51011182202E+02  0.12720734267E+02 -0.18556283032E+01  0.52615597938E+02  0.10000000000E+01 0.  0.
<mgrwt>
<rscale>  0 0.12499781E+03</rscale>
<asrwt>0</asrwt>
<pdfrwt beam="2">  1        4 0.88398311E-02 0.12499781E+03</pdfrwt>
<pdfrwt beam="1">  1       -4 0.27617276E-01 0.12499781E+03</pdfrwt>
<totfact> 0.18746775E+03</totfact>
</mgrwt>
</event>
<event>
 5    1  0.1435323E-002  0.1250083E+03  0.7818608E-02  0.1235056E+00
          4   -1    0    0  501    0  0.00000000000E+00  0.00000000000E+00  0.33276275244E+01  0.35617418409E+01  0.12700000000E+01 0.  1.
         -4   -1    0    0    0  501 -0.00000000000E+00 -0.00000000000E+00 -0.11339100108E+04  0.11339107220E+04  0.12700000000E+01 0.  1.
         25    2    1    2    0    0  0.00000000000E+00  0.00000000000E+00 -0.11305823833E+04  0.11374724638E+04  0.12500832232E+03 0.  0.
    9000005    1    3    3    0    0 -0.45731192199E+02 -0.33178241976E+01 -0.95170304307E+03  0.95280744754E+03  0.10000000000E+01 0.  0.
    9000005    1    3    3    0    0  0.45731192199E+02  0.33178241976E+01 -0.17887934019E+03  0.18466501630E+03  0.10000000000E+01 0.  0.
<mgrwt>
<rscale>  0 0.12500832E+03</rscale>
<asrwt>0</asrwt>
<pdfrwt beam="1">  1        4 0.86126396E-03 0.12500832E+03</pdfrwt>
<pdfrwt beam="2">  1       -4 0.28350558E+00 0.12500832E+03</pdfrwt>
<totfact> 0.28603842E+02</totfact>
</mgrwt>
</event>
<event>
 5    1  0.1435323E-002  0.1249450E+03  0.7818608E-02  0.1235155E+00
         -4   -1    0    0    0  501 -0.00000000000E+00  0.00000000000E+00  0.42259406827E+02  0.42278485845E+02  0.12700000000E+01 0. -1.
          4   -1    0    0  501    0  0.00000000000E+00 -0.00000000000E+00 -0.92309356027E+02  0.92318091998E+02  0.12700000000E+01 0. -1.
         25    2    1    2    0    0  0.00000000000E+00  0.00000000000E+00 -0.50049949200E+02  0.13459657784E+03  0.12494495329E+03 0.  0.
    9000005    1    3    3    0    0  0.48122354592E+01  0.57759774612E+02  0.64965527983E-01  0.57968555217E+02  0.10000000000E+01 0.  0.
    9000005    1    3    3    0    0 -0.48122354592E+01 -0.57759774612E+02 -0.50114914728E+02  0.76628022626E+02  0.10000000000E+01 0.  0.
<mgrwt>
<rscale>  0 0.12494495E+03</rscale>
<asrwt>0</asrwt>
<pdfrwt beam="2">  1        4 0.23080816E-01 0.12494495E+03</pdfrwt>
<pdfrwt beam="1">  1       -4 0.10568329E-01 0.12494495E+03</pdfrwt>
<totfact> 0.19345125E+03</totfact>
</mgrwt>
</event>
<event>
 5    1  0.1435323E-002  0.1250016E+03  0.7818608E-02  0.1235067E+00
          4   -1    0    0  501    0  0.00000000000E+00  0.00000000000E+00  0.65808732244E+02  0.65820985556E+02  0.12700000000E+01 0. -1.
         -4   -1    0    0    0  501 -0.00000000000E+00 -0.00000000000E+00 -0.59334535912E+02  0.59348125934E+02  0.12700000000E+01 0. -1.
         25    2    1    2    0    0  0.00000000000E+00  0.00000000000E+00  0.64741963317E+01  0.12516911149E+03  0.12500156500E+03 0.  0.
    9000005    1    3    3    0    0 -0.21304034438E+02  0.51032895472E+02 -0.25907402864E+02  0.61077097400E+02  0.10000000000E+01 0.  0.
    9000005    1    3    3    0    0  0.21304034438E+02 -0.51032895472E+02  0.32381599196E+02  0.64092014090E+02  0.10000000000E+01 0.  0.
<mgrwt>
<rscale>  0 0.12500157E+03</rscale>
<asrwt>0</asrwt>
<pdfrwt beam="1">  1        4 0.16455413E-01 0.12500157E+03</pdfrwt>
<pdfrwt beam="2">  1       -4 0.14836864E-01 0.12500157E+03</pdfrwt>
<totfact> 0.19825161E+03</totfact>
</mgrwt>
</event>
<event>
 5    1  0.1435323E-002  0.1249994E+03  0.7818608E-02  0.1235070E+00
         -4   -1    0    0    0  501 -0.00000000000E+00  0.00000000000E+00  0.32980169691E+02  0.33004613206E+02  0.12700000000E+01 0.  1.
          4   -1    0    0  501    0  0.00000000000E+00 -0.00000000000E+00 -0.11836951540E+03  0.11837632819E+03  0.12700000000E+01 0.  1.
         25    2    1    2    0    0  0.00000000000E+00  0.00000000000E+00 -0.85389345711E+02  0.15138094140E+03  0.12499939623E+03 0.  0.
    9000005    1    3    3    0    0 -0.10889412557E+02 -0.61194074752E+02 -0.50535546657E+02  0.80113267106E+02  0.10000000000E+01 0.  0.
    9000005    1    3    3    0    0  0.10889412557E+02  0.61194074752E+02 -0.34853799054E+02  0.71267674292E+02  0.10000000000E+01 0.  0.
<mgrwt>
<rscale>  0 0.12499940E+03</rscale>
<asrwt>0</asrwt>
<pdfrwt beam="2">  1        4 0.29596285E-01 0.12499940E+03</pdfrwt>
<pdfrwt beam="1">  1       -4 0.82489497E-02 0.12499940E+03</pdfrwt>
<totfact> 0.18471347E+03</totfact>
</mgrwt>
</event>
<event>
 5    1  0.1435323E-002  0.1250081E+03  0.7818608E-02  0.1235057E+00
         -4   -1    0    0    0  501 -0.00000000000E+00  0.00000000000E+00  0.17751260750E+03  0.17751715050E+03  0.12700000000E+01 0.  1.
          4   -1    0    0  501    0  0.00000000000E+00 -0.00000000000E+00 -0.21985181089E+02  0.22021832066E+02  0.12700000000E+01 0.  1.
         25    2    1    2    0    0  0.00000000000E+00  0.00000000000E+00  0.15552742641E+03  0.19953898257E+03  0.12500810053E+03 0.  0.
    9000005    1    3    3    0    0 -0.29806797975E+02  0.48001833171E+02  0.12038980397E+03  0.13299370697E+03  0.10000000000E+01 0.  0.
    9000005    1    3    3    0    0  0.29806797975E+02 -0.48001833171E+02  0.35137622438E+02  0.66545275594E+02  0.10000000000E+01 0.  0.
<mgrwt>
<rscale>  0 0.12500810E+03</rscale>
<asrwt>0</asrwt>
<pdfrwt beam="2">  1        4 0.55014445E-02 0.12500810E+03</pdfrwt>
<pdfrwt beam="1">  1       -4 0.44383301E-01 0.12500810E+03</pdfrwt>
<totfact> 0.16337457E+03</totfact>
</mgrwt>
</event>
<event>
 5    1  0.1435323E-002  0.1250022E+03  0.7818608E-02  0.1235066E+00
          4   -1    0    0  501    0  0.00000000000E+00  0.00000000000E+00  0.17138394642E+03  0.17138865188E+03  0.12700000000E+01 0.  1.
         -4   -1    0    0    0  501 -0.00000000000E+00 -0.00000000000E+00 -0.22770473652E+02  0.22805862631E+02  0.12700000000E+01 0.  1.
         25    2    1    2    0    0  0.00000000000E+00  0.00000000000E+00  0.14861347277E+03  0.19419451451E+03  0.12500218068E+03 0.  0.
    9000005    1    3    3    0    0  0.23900972769E+02 -0.25114076327E+02  0.15508147564E+03  0.15891267229E+03  0.10000000000E+01 0.  0.
    9000005    1    3    3    0    0 -0.23900972769E+02  0.25114076327E+02 -0.64680028661E+01  0.35281842215E+02  0.10000000000E+01 0.  0.
<mgrwt>
<rscale>  0 0.12500218E+03</rscale>
<asrwt>0</asrwt>
<pdfrwt beam="1">  1        4 0.42850998E-01 0.12500218E+03</pdfrwt>
<pdfrwt beam="2">  1       -4 0.56976303E-02 0.12500218E+03</pdfrwt>
<totfact> 0.16556336E+03</totfact>
</mgrwt>
</event>
<event>
 5    1  0.1435323E-002  0.1250002E+03  0.7818608E-02  0.1235069E+00
          4   -1    0    0  501    0  0.00000000000E+00  0.00000000000E+00  0.29852263429E+03  0.29852533575E+03  0.12700000000E+01 0. -1.
         -4   -1    0    0    0  501 -0.00000000000E+00 -0.00000000000E+00 -0.13051740334E+02  0.13113383459E+02  0.12700000000E+01 0. -1.
         25    2    1    2    0    0  0.00000000000E+00  0.00000000000E+00  0.28547089396E+03  0.31163871921E+03  0.12500024005E+03 0.  0.
    9000005    1    3    3    0    0  0.35155241158E+02 -0.48509499125E+02  0.98402844662E+02  0.11520929790E+03  0.10000000000E+01 0.  0.
    9000005    1    3    3    0    0 -0.35155241158E+02  0.48509499125E+02  0.18706804930E+03  0.19642942131E+03  0.10000000000E+01 0.  0.
<mgrwt>
<rscale>  0 0.12500024E+03</rscale>
<asrwt>0</asrwt>
<pdfrwt beam="1">  1        4 0.74638703E-01 0.12500024E+03</pdfrwt>
<pdfrwt beam="2">  1       -4 0.32709781E-02 0.12500024E+03</pdfrwt>
<totfact> 0.12650947E+03</totfact>
</mgrwt>
</event>
<event>
 5    1  0.1435323E-002  0.1249999E+03  0.7818608E-02  0.1235069E+00
          4   -1    0    0  501    0  0.00000000000E+00  0.00000000000E+00  0.49878797265E+03  0.49878958947E+03  0.12700000000E+01 0.  1.
         -4   -1    0    0    0  501 -0.00000000000E+00 -0.00000000000E+00 -0.77783453085E+01  0.78813422549E+01  0.12700000000E+01 0.  1.
         25    2    1    2    0    0  0.00000000000E+00  0.00000000000E+00  0.49100962734E+03  0.50667093172E+03  0.12499991564E+03 0.  0.
    9000005    1    3    3    0    0  0.47832540196E+02 -0.17947278390E+02  0.99629205665E+02  0.11196890338E+03  0.10000000000E+01 0.  0.
    9000005    1    3    3    0    0 -0.47832540196E+02  0.17947278390E+02  0.39138042168E+03  0.39470202834E+03  0.10000000000E+01 0.  0.
<mgrwt>
<rscale>  0 0.12499992E+03</rscale>
<asrwt>0</asrwt>
<pdfrwt beam="1">  1        4 0.12471006E+00 0.12499992E+03</pdfrwt>
<pdfrwt beam="2">  1       -4 0.19576631E-02 0.12499992E+03</pdfrwt>
<totfact> 0.86555737E+02</totfact>
</mgrwt>
</event>
<event>
 5    1  0.1435323E-002  0.1249990E+03  0.7818608E-02  0.1235071E+00
         -4   -1    0    0    0  501 -0.00000000000E+00  0.00000000000E+00  0.18577072422E+03  0.18577506528E+03  0.12700000000E+01 0.  1.
          4   -1    0    0  501    0  0.00000000000E+00 -0.00000000000E+00 -0.21003164109E+02  0.21041525672E+02  0.12700000000E+01 0.  1.
         25    2    1    2    0    0  0.00000000000E+00  0.00000000000E+00  0.16476756011E+03  0.20681659095E+03  0.12499901370E+03 0.  0.
    9000005    1    3    3    0    0  0.18380754693E+02  0.57150495334E+02  0.53670993698E+02  0.80533265329E+02  0.10000000000E+01 0.  0.
    9000005    1    3    3    0    0 -0.18380754693E+02 -0.57150495334E+02  0.11109656642E+03  0.12628332562E+03  0.10000000000E+01 0.  0.
<mgrwt>
<rscale>  0 0.12499901E+03</rscale>
<asrwt>0</asrwt>
<pdfrwt beam="2">  1        4 0.52561289E-02 0.12499901E+03</pdfrwt>
<pdfrwt beam="1">  1       -4 0.46448019E-01 0.12499901E+03</pdfrwt>
<totfact> 0.16053051E+03</totfact>
</mgrwt>
</event>
<event>
 5    1  0.1435323E-002  0.1249970E+03  0.7818608E-02  0.1235074E+00
          4   -1    0    0  501    0  0.00000000000E+00  0.00000000000E+00  0.18131640129E+02  0.18176063208E+02  0.12700000000E+01 0. -1.
         -4   -1    0    0    0  501 -0.00000000000E+00 -0.00000000000E+00 -0.21511800697E+03  0.21512175581E+03  0.12700000000E+01 0. -1.
         25    2    1    2    0    0  0.00000000000E+00  0.00000000000E+00 -0.19698636685E+03  0.23329781902E+03  0.12499697451E+03 0.  0.
    9000005    1    3    3    0    0  0.20124727165E+02  0.40206308819E+02 -0.17491316776E+02  0.48254513519E+02  0.10000000000E+01 0.  0.
    9000005    1    3    3    0    0 -0.20124727165E+02 -0.40206308819E+02 -0.17949505007E+03  0.18504330550E+03  0.10000000000E+01 0.  0.
<mgrwt>
<rscale>  0 0.12499697E+03</rscale>
<asrwt>0</asrwt>
<pdfrwt beam="1">  1        4 0.45389322E-02 0.12499697E+03</pdfrwt>
<pdfrwt beam="2">  1       -4 0.53785515E-01 0.12499697E+03</pdfrwt>
<totfact> 0.15071237E+03</totfact>
</mgrwt>
</event>
<event>
 5    1  0.1435323E-002  0.1250018E+03  0.7818608E-02  0.1235066E+00
         -4   -1    0    0    0  501 -0.00000000000E+00  0.00000000000E+00  0.28351537536E+03  0.28351821981E+03  0.12700000000E+01 0.  1.
          4   -1    0    0  501    0  0.00000000000E+00 -0.00000000000E+00 -0.13746127983E+02  0.13804670750E+02  0.12700000000E+01 0.  1.
         25    2    1    2    0    0  0.00000000000E+00  0.00000000000E+00  0.26976924738E+03  0.29732289056E+03  0.12500181767E+03 0.  0.
    9000005    1    3    3    0    0  0.27563264574E+02 -0.29077788357E+02  0.24895858842E+03  0.25216389527E+03  0.10000000000E+01 0.  0.
    9000005    1    3    3    0    0 -0.27563264574E+02  0.29077788357E+02  0.20810658961E+02  0.45158995296E+02  0.10000000000E+01 0.  0.
<mgrwt>
<rscale>  0 0.12500182E+03</rscale>
<asrwt>0</asrwt>
<pdfrwt beam="2">  1        4 0.34442054E-02 0.12500182E+03</pdfrwt>
<pdfrwt beam="1">  1       -4 0.70886518E-01 0.12500182E+03</pdfrwt>
<totfact> 0.13045877E+03</totfact>
</mgrwt>
</event>
<event>
 5    1  0.1435323E-002  0.1250001E+03  0.7818608E-02  0.1235069E+00
         -4   -1    0    0    0  501 -0.00000000000E+00  0.00000000000E+00  0.80905485903E+03  0.80905585581E+03  0.12700000000E+01 0.  1.
          4   -1    0    0  501    0  0.00000000000E+00 -0.00000000000E+00 -0.47436400300E+01  0.49107047085E+01  0.12700000000E+01 0.  1.
         25    2    1    2    0    0  0.00000000000E+00  0.00000000000E+00  0.80431121900E+03  0.81396656052E+03  0.12500009853E+03 0.  0.
    9000005    1    3    3    0    0 -0.48288710660E+02 -0.11324400864E+02  0.15460593067E+03  0.16237005706E+03  0.10000000000E+01 0.  0.
    9000005    1    3    3    0    0  0.48288710660E+02  0.11324400864E+02  0.64970528833E+03  0.65159650346E+03  0.10000000000E+01 0.  0.
<mgrwt>
<rscale>  0 0.12500010E+03</rscale>
<asrwt>0</asrwt>
<pdfrwt beam="2">  1        4 0.12069169E-02 0.12500010E+03</pdfrwt>
<pdfrwt beam="1">  1       -4 0.20228485E+00 0.12500010E+03</pdfrwt>
<totfact> 0.51258355E+02</totfact>
</mgrwt>
</event>
<event>
 5    1  0.1435323E-002  0.1249973E+03  0.7818608E-02  0.1235073E+00
         -4   -1    0    0    0  501 -0.00000000000E+00  0.00000000000E+00  0.11755623556E+02  0.11824025760E+02  0.12700000000E+01 0.  1.
          4   -1    0    0  501    0  0.00000000000E+00 -0.00000000000E+00 -0.33123992765E+03  0.33124236228E+03  0.12700000000E+01 0.  1.
         25    2    1    2    0    0  0.00000000000E+00  0.00000000000E+00 -0.31948430409E+03  0.34306638804E+03  0.12499730413E+03 0.  0.
    9000005    1    3    3    0    0 -0.38453953293E+02 -0.34261321190E+02 -0.62607814947E+02  0.81075786435E+02  0.10000000000E+01 0.  0.
    9000005    1    3    3    0    0  0.38453953293E+02  0.34261321190E+02 -0.25687648914E+03  0.26199060160E+03  0.10000000000E+01 0.  0.
<mgrwt>
<rscale>  0 0.12499730E+03</rscale>
<asrwt>0</asrwt>
<pdfrwt beam="2">  1        4 0.82818806E-01 0.12499730E+03</pdfrwt>
<pdfrwt beam="1">  1       -4 0.29477616E-02 0.12499730E+03</pdfrwt>
<totfact> 0.11845202E+03</totfact>
</mgrwt>
</event>
<event>
 5    1  0.1435323E-002  0.1249994E+03  0.7818608E-02  0.1235070E+00
         -4   -1    0    0    0  501 -0.00000000000E+00  0.00000000000E+00  0.48782596731E+02  0.48799125442E+02  0.12700000000E+01 0.  1.
          4   -1    0    0  501    0  0.00000000000E+00 -0.00000000000E+00 -0.80038776712E+02  0.80048851819E+02  0.12700000000E+01 0.  1.
         25    2    1    2    0    0  0.00000000000E+00  0.00000000000E+00 -0.31256179980E+02  0.12884797726E+03  0.12499940983E+03 0.  0.
    9000005    1    3    3    0    0  0.57428515676E+02 -0.15330729735E+02 -0.35513161317E+02  0.69247745910E+02  0.10000000000E+01 0.  0.
    9000005    1    3    3    0    0 -0.57428515676E+02  0.15330729735E+02  0.42569813369E+01  0.59600231350E+02  0.10000000000E+01 0.  0.
<mgrwt>
<rscale>  0 0.12499941E+03</rscale>
<asrwt>0</asrwt>
<pdfrwt beam="2">  1        4 0.20013019E-01 0.12499941E+03</pdfrwt>
<pdfrwt beam="1">  1       -4 0.12198975E-01 0.12499941E+03</pdfrwt>
<totfact> 0.19626790E+03</totfact>
</mgrwt>
</event>
<event>
 5    1  0.1435323E-002  0.1249959E+03  0.7818608E-02  0.1235076E+00
          4   -1    0    0  501    0  0.00000000000E+00  0.00000000000E+00  0.17029761496E+02  0.17077051169E+02  0.12700000000E+01 0.  1.
         -4   -1    0    0    0  501 -0.00000000000E+00 -0.00000000000E+00 -0.22899576510E+03  0.22899928676E+03  0.12700000000E+01 0.  1.
         25    2    1    2    0    0  0.00000000000E+00  0.00000000000E+00 -0.21196600361E+03  0.24607633792E+03  0.12499590954E+03 0.  0.
    9000005    1    3    3    0    0 -0.21772391523E+02 -0.27157214805E+02 -0.20815407348E+03  0.21104660541E+03  0.10000000000E+01 0.  0.
    9000005    1    3    3    0    0  0.21772391523E+02  0.27157214805E+02 -0.38119301235E+01  0.35029732512E+02  0.10000000000E+01 0.  0.
<mgrwt>
<rscale>  0 0.12499591E+03</rscale>
<asrwt>0</asrwt>
<pdfrwt beam="1">  1        4 0.42637925E-02 0.12499591E+03</pdfrwt>
<pdfrwt beam="2">  1       -4 0.57255283E-01 0.12499591E+03</pdfrwt>
<totfact> 0.14630764E+03</totfact>
</mgrwt>
</event>
<event>
 5    1  0.1435323E-002  0.1249982E+03  0.7818608E-02  0.1235072E+00
         -4   -1    0    0    0  501 -0.00000000000E+00  0.00000000000E+00  0.70266584237E+03  0.70266699007E+03  0.12700000000E+01 0. -1.
          4   -1    0    0  501    0  0.00000000000E+00 -0.00000000000E+00 -0.54853228353E+01  0.56304233062E+01  0.12700000000E+01 0. -1.
         25    2    1    2    0    0  0.00000000000E+00  0.00000000000E+00  0.69718051953E+03  0.70829741337E+03  0.12499819589E+03 0.  0.
    9000005    1    3    3    0    0 -0.55696272800E+02  0.27744398939E+02  0.31588600687E+03  0.32195775471E+03  0.10000000000E+01 0.  0.
    9000005    1    3    3    0    0  0.55696272800E+02 -0.27744398939E+02  0.38129451266E+03  0.38633965867E+03  0.10000000000E+01 0.  0.
<mgrwt>
<rscale>  0 0.12499820E+03</rscale>
<asrwt>0</asrwt>
<pdfrwt beam="2">  1        4 0.13896121E-02 0.12499820E+03</pdfrwt>
<pdfrwt beam="1">  1       -4 0.17568470E+00 0.12499820E+03</pdfrwt>
<totfact> 0.61207885E+02</totfact>
</mgrwt>
</event>
<event>
 5    1  0.1435323E-002  0.1250023E+03  0.7818608E-02  0.1235066E+00
          4   -1    0    0  501    0  0.00000000000E+00  0.00000000000E+00  0.68813906589E+02  0.68825624880E+02  0.12700000000E+01 0. -1.
         -4   -1    0    0    0  501 -0.00000000000E+00 -0.00000000000E+00 -0.56743889960E+02  0.56758100283E+02  0.12700000000E+01 0. -1.
         25    2    1    2    0    0  0.00000000000E+00  0.00000000000E+00  0.12070016629E+02  0.12558372516E+03  0.12500234688E+03 0.  0.
    9000005    1    3    3    0    0 -0.24008761591E+02 -0.57402249456E+02  0.18057313572E+00  0.62229185134E+02  0.10000000000E+01 0.  0.
    9000005    1    3    3    0    0  0.24008761591E+02  0.57402249456E+02  0.11889443494E+02  0.63354540029E+02  0.10000000000E+01 0.  0.
<mgrwt>
<rscale>  0 0.12500235E+03</rscale>
<asrwt>0</asrwt>
<pdfrwt beam="1">  1        4 0.17206718E-01 0.12500235E+03</pdfrwt>
<pdfrwt beam="2">  1       -4 0.14189214E-01 0.12500235E+03</pdfrwt>
<totfact> 0.19802344E+03</totfact>
</mgrwt>
</event>
<event>
 5    1  0.1435323E-002  0.1250010E+03  0.7818608E-02  0.1235068E+00
         -4   -1    0    0    0  501 -0.00000000000E+00  0.00000000000E+00  0.54265741493E+01  0.55732043743E+01  0.12700000000E+01 0.  1.
          4   -1    0    0  501    0  0.00000000000E+00 -0.00000000000E+00 -0.71010599281E+03  0.71010712848E+03  0.12700000000E+01 0.  1.
         25    2    1    2    0    0  0.00000000000E+00  0.00000000000E+00 -0.70467941866E+03  0.71568033286E+03  0.12500102302E+03 0.  0.
    9000005    1    3    3    0    0  0.48432244479E+02 -0.26962127364E+02 -0.18712703461E+03  0.19516702001E+03  0.10000000000E+01 0.  0.
    9000005    1    3    3    0    0 -0.48432244479E+02  0.26962127364E+02 -0.51755238405E+03  0.52051331285E+03  0.10000000000E+01 0.  0.
<mgrwt>
<rscale>  0 0.12500102E+03</rscale>
<asrwt>0</asrwt>
<pdfrwt beam="2">  1        4 0.17754466E+00 0.12500102E+03</pdfrwt>
<pdfrwt beam="1">  1       -4 0.13751167E-02 0.12500102E+03</pdfrwt>
<totfact> 0.60449192E+02</totfact>
</mgrwt>
</event>
<event>
 5    1  0.1435323E-002  0.1249989E+03  0.7818608E-02  0.1235071E+00
         -4   -1    0    0    0  501 -0.00000000000E+00  0.00000000000E+00  0.37333114295E+03  0.37333330309E+03  0.12700000000E+01 0.  1.
          4   -1    0    0  501    0  0.00000000000E+00 -0.00000000000E+00 -0.10422308075E+02  0.10499400250E+02  0.12700000000E+01 0.  1.
         25    2    1    2    0    0  0.00000000000E+00  0.00000000000E+00  0.36290883488E+03  0.38383270334E+03  0.12499888689E+03 0.  0.
    9000005    1    3    3    0    0  0.21239816946E+00  0.16612595964E+02 -0.35315161729E+01  0.17014554479E+02  0.10000000000E+01 0.  0.
    9000005    1    3    3    0    0 -0.21239816946E+00 -0.16612595964E+02  0.36644035105E+03  0.36681814886E+03  0.10000000000E+01 0.  0.
<mgrwt>
<rscale>  0 0.12499889E+03</rscale>
<asrwt>0</asrwt>
<pdfrwt beam="2">  1        4 0.26154836E-02 0.12499889E+03</pdfrwt>
<pdfrwt beam="1">  1       -4 0.93342691E-01 0.12499889E+03</pdfrwt>
<totfact> 0.10910253E+03</totfact>
</mgrwt>
</event>
<event>
 5    1  0.1435323E-002  0.1249974E+03  0.7818608E-02  0.1235073E+00
         -4   -1    0    0    0  501 -0.00000000000E+00  0.00000000000E+00  0.80605553837E+01  0.81599909984E+01  0.12700000000E+01 0. -1.
          4   -1    0    0  501    0  0.00000000000E+00 -0.00000000000E+00 -0.48152217282E+03  0.48152384761E+03  0.12700000000E+01 0. -1.
         25    2    1    2    0    0  0.00000000000E+00  0.00000000000E+00 -0.47346161743E+03  0.48968383861E+03  0.12499743441E+03 0.  0.
    9000005    1    3    3    0    0 -0.26074357600E+02  0.18316503725E+02 -0.44732325795E+03  0.44845787265E+03  0.10000000000E+01 0.  0.
    9000005    1    3    3    0    0  0.26074357600E+02 -0.18316503725E+02 -0.26138359481E+02  0.41225965959E+02  0.10000000000E+01 0.  0.
<mgrwt>
<rscale>  0 0.12499743E+03</rscale>
<asrwt>0</asrwt>
<pdfrwt beam="2">  1        4 0.12039309E+00 0.12499743E+03</pdfrwt>
<pdfrwt beam="1">  1       -4 0.20277793E-02 0.12499743E+03</pdfrwt>
<totfact> 0.89275886E+02</totfact>
</mgrwt>
</event>
<event>
 5    1  0.1435323E-002  0.1250014E+03  0.7818608E-02  0.1235067E+00
         -4   -1    0    0    0  501 -0.00000000000E+00  0.00000000000E+00  0.11492525402E+03  0.11493227098E+03  0.12700000000E+01 0.  1.
          4   -1    0    0  501    0  0.00000000000E+00 -0.00000000000E+00 -0.33970297387E+02  0.33994028955E+02  0.12700000000E+01 0.  1.
         25    2    1    2    0    0  0.00000000000E+00  0.00000000000E+00  0.80954956635E+02  0.14892629993E+03  0.12500135122E+03 0.  0.
    9000005    1    3    3    0    0  0.24776094121E+02 -0.36836985141E+01 -0.27733645224E+02  0.37384215279E+02  0.10000000000E+01 0.  0.
    9000005    1    3    3    0    0 -0.24776094121E+02  0.36836985141E+01  0.10868860186E+03  0.11154208465E+03  0.10000000000E+01 0.  0.
<mgrwt>
<rscale>  0 0.12500135E+03</rscale>
<asrwt>0</asrwt>
<pdfrwt beam="2">  1        4 0.84964180E-02 0.12500135E+03</pdfrwt>
<pdfrwt beam="1">  1       -4 0.28735157E-01 0.12500135E+03</pdfrwt>
<totfact> 0.18591116E+03</totfact>
</mgrwt>
</event>
<event>
 5    1  0.1435323E-002  0.1249988E+03  0.7818608E-02  0.1235071E+00
         -4   -1    0    0    0  501 -0.00000000000E+00  0.00000000000E+00  0.10807555296E+03  0.10808301461E+03  0.12700000000E+01 0.  1.
          4   -1    0    0  501    0  0.00000000000E+00 -0.00000000000E+00 -0.36123106864E+02  0.36145425015E+02  0.12700000000E+01 0.  1.
         25    2    1    2    0    0  0.00000000000E+00  0.00000000000E+00  0.71952446093E+02  0.14422843962E+03  0.12499875318E+03 0.  0.
    9000005    1    3    3    0    0 -0.50543884187E+01  0.50143697392E+02  0.78609518694E+02  0.93383048032E+02  0.10000000000E+01 0.  0.
    9000005    1    3    3    0    0  0.50543884187E+01 -0.50143697392E+02 -0.66570726014E+01  0.50845391591E+02  0.10000000000E+01 0.  0.
<mgrwt>
<rscale>  0 0.12499875E+03</rscale>
<asrwt>0</asrwt>
<pdfrwt beam="2">  1        4 0.90344992E-02 0.12499875E+03</pdfrwt>
<pdfrwt beam="1">  1       -4 0.27022611E-01 0.12499875E+03</pdfrwt>
<totfact> 0.18826618E+03</totfact>
</mgrwt>
</event>
<event>
 5    1  0.1435323E-002  0.1250046E+03  0.7818608E-02  0.1235062E+00
          4   -1    0    0  501    0  0.00000000000E+00  0.00000000000E+00  0.13190844172E+03  0.13191455529E+03  0.12700000000E+01 0.  1.
         -4   -1    0    0    0  501 -0.00000000000E+00 -0.00000000000E+00 -0.29595093360E+02  0.29622330276E+02  0.12700000000E+01 0.  1.
         25    2    1    2    0    0  0.00000000000E+00  0.00000000000E+00  0.10231334836E+03  0.16153688557E+03  0.12500457650E+03 0.  0.
    9000005    1    3    3    0    0  0.21900764048E+02  0.12547713608E+02 -0.22721566713E+02  0.33975846959E+02  0.10000000000E+01 0.  0.
    9000005    1    3    3    0    0 -0.21900764048E+02 -0.12547713608E+02  0.12503491508E+03  0.12756103861E+03  0.10000000000E+01 0.  0.
<mgrwt>
<rscale>  0 0.12500458E+03</rscale>
<asrwt>0</asrwt>
<pdfrwt beam="1">  1        4 0.32981279E-01 0.12500458E+03</pdfrwt>
<pdfrwt beam="2">  1       -4 0.74029423E-02 0.12500458E+03</pdfrwt>
<totfact> 0.17983753E+03</totfact>
</mgrwt>
</event>
<event>
 5    1  0.1435323E-002  0.1249962E+03  0.7818608E-02  0.1235075E+00
          4   -1    0    0  501    0  0.00000000000E+00  0.00000000000E+00  0.75507542716E+01  0.76568133104E+01  0.12700000000E+01 0.  1.
         -4   -1    0    0    0  501 -0.00000000000E+00 -0.00000000000E+00 -0.51358642256E+03  0.51358799279E+03  0.12700000000E+01 0.  1.
         25    2    1    2    0    0  0.00000000000E+00  0.00000000000E+00 -0.50603566829E+03  0.52124480610E+03  0.12499620117E+03 0.  0.
    9000005    1    3    3    0    0  0.24534332521E+02  0.56086527860E+02 -0.30533212978E+03  0.31141024639E+03  0.10000000000E+01 0.  0.
    9000005    1    3    3    0    0 -0.24534332521E+02 -0.56086527860E+02 -0.20070353851E+03  0.20983455971E+03  0.10000000000E+01 0.  0.
<mgrwt>
<rscale>  0 0.12499620E+03</rscale>
<asrwt>0</asrwt>
<pdfrwt beam="1">  1        4 0.19011440E-02 0.12499620E+03</pdfrwt>
<pdfrwt beam="2">  1       -4 0.12840994E+00 0.12499620E+03</pdfrwt>
<totfact> 0.84331260E+02</totfact>
</mgrwt>
</event>
<event>
 5    1  0.1435323E-002  0.1250022E+03  0.7818608E-02  0.1235066E+00
          4   -1    0    0  501    0  0.00000000000E+00  0.00000000000E+00  0.20907431985E+03  0.20907817705E+03  0.12700000000E+01 0. -1.
         -4   -1    0    0    0  501 -0.00000000000E+00 -0.00000000000E+00 -0.18658576216E+02  0.18701747683E+02  0.12700000000E+01 0. -1.
         25    2    1    2    0    0  0.00000000000E+00  0.00000000000E+00  0.19041574363E+03  0.22777992474E+03  0.12500215474E+03 0.  0.
    9000005    1    3    3    0    0  0.29520585765E+01  0.74418502250E+01  0.20814491957E+03  0.20830123218E+03  0.10000000000E+01 0.  0.
    9000005    1    3    3    0    0 -0.29520585765E+01 -0.74418502250E+01 -0.17729175934E+02  0.19478692561E+02  0.10000000000E+01 0.  0.
<mgrwt>
<rscale>  0 0.12500215E+03</rscale>
<asrwt>0</asrwt>
<pdfrwt beam="1">  1        4 0.52274458E-01 0.12500215E+03</pdfrwt>
<pdfrwt beam="2">  1       -4 0.46705227E-02 0.12500215E+03</pdfrwt>
<totfact> 0.15266207E+03</totfact>
</mgrwt>
</event>
<event>
 5    1  0.1435323E-002  0.1249990E+03  0.7818608E-02  0.1235071E+00
         -4   -1    0    0    0  501 -0.00000000000E+00  0.00000000000E+00  0.19685528833E+03  0.19685938496E+03  0.12700000000E+01 0. -1.
          4   -1    0    0  501    0  0.00000000000E+00 -0.00000000000E+00 -0.19818304887E+02  0.19858955375E+02  0.12700000000E+01 0. -1.
         25    2    1    2    0    0  0.00000000000E+00  0.00000000000E+00  0.17703698345E+03  0.21671834033E+03  0.12499898211E+03 0.  0.
    9000005    1    3    3    0    0 -0.30798532071E+02  0.51701282151E+02  0.11771649795E+03  0.13221099063E+03  0.10000000000E+01 0.  0.
    9000005    1    3    3    0    0  0.30798532071E+02 -0.51701282151E+02  0.59320485497E+02  0.84507349700E+02  0.10000000000E+01 0.  0.
<mgrwt>
<rscale>  0 0.12499898E+03</rscale>
<asrwt>0</asrwt>
<pdfrwt beam="2">  1        4 0.49601697E-02 0.12499898E+03</pdfrwt>
<pdfrwt beam="1">  1       -4 0.49219415E-01 0.12499898E+03</pdfrwt>
<totfact> 0.15674169E+03</totfact>
</mgrwt>
</event>
<event>
 5    1  0.1435323E-002  0.1250062E+03  0.7818608E-02  0.1235060E+00
          4   -1    0    0  501    0  0.00000000000E+00  0.00000000000E+00  0.41761732516E+03  0.41761925623E+03  0.12700000000E+01 0.  1.
         -4   -1    0    0    0  501 -0.00000000000E+00 -0.00000000000E+00 -0.93095157775E+01  0.93957428664E+01  0.12700000000E+01 0.  1.
         25    2    1    2    0    0  0.00000000000E+00  0.00000000000E+00  0.40830780938E+03  0.42701499909E+03  0.12500616885E+03 0.  0.
    9000005    1    3    3    0    0  0.47403813753E+02  0.40722785646E+02  0.20555708126E+03  0.21484920406E+03  0.10000000000E+01 0.  0.
    9000005    1    3    3    0    0 -0.47403813753E+02 -0.40722785646E+02  0.20275072812E+03  0.21216579503E+03  0.10000000000E+01 0.  0.
<mgrwt>
<rscale>  0 0.12500617E+03</rscale>
<asrwt>0</asrwt>
<pdfrwt beam="1">  1        4 0.10441535E+00 0.12500617E+03</pdfrwt>
<pdfrwt beam="2">  1       -4 0.23383987E-02 0.12500617E+03</pdfrwt>
<totfact> 0.10028027E+03</totfact>
</mgrwt>
</event>
<event>
 5    1  0.1435323E-002  0.1249906E+03  0.7818608E-02  0.1235084E+00
          4   -1    0    0  501    0  0.00000000000E+00  0.00000000000E+00  0.16883085912E+03  0.16883563573E+03  0.12700000000E+01 0. -1.
         -4   -1    0    0    0  501 -0.00000000000E+00 -0.00000000000E+00 -0.23111039314E+02  0.23145907590E+02  0.12700000000E+01 0. -1.
         25    2    1    2    0    0  0.00000000000E+00  0.00000000000E+00  0.14571981981E+03  0.19198154332E+03  0.12499058801E+03 0.  0.
    9000005    1    3    3    0    0  0.52106339934E+02 -0.27470068390E+02  0.10489456362E+03  0.12030604638E+03  0.10000000000E+01 0.  0.
    9000005    1    3    3    0    0 -0.52106339934E+02  0.27470068390E+02  0.40825256193E+02  0.71675496942E+02  0.10000000000E+01 0.  0.
<mgrwt>
<rscale>  0 0.12499059E+03</rscale>
<asrwt>0</asrwt>
<pdfrwt beam="1">  1        4 0.42212670E-01 0.12499059E+03</pdfrwt>
<pdfrwt beam="2">  1       -4 0.57827155E-02 0.12499059E+03</pdfrwt>
<totfact> 0.16651856E+03</totfact>
</mgrwt>
</event>
<event>
 5    1  0.1435323E-002  0.1250004E+03  0.7818608E-02  0.1235069E+00
         -4   -1    0    0    0  501 -0.00000000000E+00  0.00000000000E+00  0.50492888536E+03  0.50493048251E+03  0.12700000000E+01 0.  1.
          4   -1    0    0  501    0  0.00000000000E+00 -0.00000000000E+00 -0.76825414055E+01  0.77868056638E+01  0.12700000000E+01 0.  1.
         25    2    1    2    0    0  0.00000000000E+00  0.00000000000E+00  0.49724634395E+03  0.51271728817E+03  0.12500036408E+03 0.  0.
    9000005    1    3    3    0    0 -0.58489987101E+00  0.50559812446E+02  0.39925406811E+03  0.40244434105E+03  0.10000000000E+01 0.  0.
    9000005    1    3    3    0    0  0.58489987101E+00 -0.50559812446E+02  0.97992275845E+02  0.11027294713E+03  0.10000000000E+01 0.  0.
<mgrwt>
<rscale>  0 0.12500036E+03</rscale>
<asrwt>0</asrwt>
<pdfrwt beam="2">  1        4 0.19338680E-02 0.12500036E+03</pdfrwt>
<pdfrwt beam="1">  1       -4 0.12624545E+00 0.12500036E+03</pdfrwt>
<totfact> 0.85618269E+02</totfact>
</mgrwt>
</event>
<event>
 5    1  0.1435323E-002  0.1250011E+03  0.7818608E-02  0.1235068E+00
          4   -1    0    0  501    0  0.00000000000E+00  0.00000000000E+00  0.82739313331E+02  0.82749059635E+02  0.12700000000E+01 0. -1.
         -4   -1    0    0    0  501 -0.00000000000E+00 -0.00000000000E+00 -0.47191316276E+02  0.47208402132E+02  0.12700000000E+01 0. -1.
         25    2    1    2    0    0  0.00000000000E+00  0.00000000000E+00  0.35547997055E+02  0.12995746177E+03  0.12500112709E+03 0.  0.
    9000005    1    3    3    0    0  0.15025095932E+02 -0.52479958340E+02 -0.13852924768E+02  0.56327640282E+02  0.10000000000E+01 0.  0.
    9000005    1    3    3    0    0 -0.15025095932E+02  0.52479958340E+02  0.49400921823E+02  0.73629821486E+02  0.10000000000E+01 0.  0.
<mgrwt>
<rscale>  0 0.12500113E+03</rscale>
<asrwt>0</asrwt>
<pdfrwt beam="1">  1        4 0.20688182E-01 0.12500113E+03</pdfrwt>
<pdfrwt beam="2">  1       -4 0.11801183E-01 0.12500113E+03</pdfrwt>
<totfact> 0.19566155E+03</totfact>
</mgrwt>
</event>
<event>
 5    1  0.1435323E-002  0.1249967E+03  0.7818608E-02  0.1235074E+00
         -4   -1    0    0    0  501 -0.00000000000E+00  0.00000000000E+00  0.23414996925E+01  0.26637418812E+01  0.12700000000E+01 0.  1.
          4   -1    0    0  501    0  0.00000000000E+00 -0.00000000000E+00 -0.15604585190E+04  0.15604590358E+04  0.12700000000E+01 0.  1.
         25    2    1    2    0    0  0.00000000000E+00  0.00000000000E+00 -0.15581170193E+04  0.15631227777E+04  0.12499668900E+03 0.  0.
    9000005    1    3    3    0    0 -0.58190216192E+02  0.22598844938E+02 -0.74317455267E+03  0.74579234697E+03  0.10000000000E+01 0.  0.
    9000005    1    3    3    0    0  0.58190216192E+02 -0.22598844938E+02 -0.81494246661E+03  0.81733043069E+03  0.10000000000E+01 0.  0.
<mgrwt>
<rscale>  0 0.12499669E+03</rscale>
<asrwt>0</asrwt>
<pdfrwt beam="2">  1        4 0.39015164E+00 0.12499669E+03</pdfrwt>
<pdfrwt beam="1">  1       -4 0.62572515E-03 0.12499669E+03</pdfrwt>
<totfact> 0.10537632E+02</totfact>
</mgrwt>
</event>
<event>
 5    1  0.1435323E-002  0.1249987E+03  0.7818608E-02  0.1235071E+00
          4   -1    0    0  501    0  0.00000000000E+00  0.00000000000E+00  0.43702720786E+03  0.43702905316E+03  0.12700000000E+01 0. -1.
         -4   -1    0    0    0  501 -0.00000000000E+00 -0.00000000000E+00 -0.88910543774E+01  0.89812999027E+01  0.12700000000E+01 0. -1.
         25    2    1    2    0    0  0.00000000000E+00  0.00000000000E+00  0.42813615348E+03  0.44601035306E+03  0.12499867649E+03 0.  0.
    9000005    1    3    3    0    0 -0.57840710218E+02  0.23605221869E+02  0.21961076254E+03  0.22832573504E+03  0.10000000000E+01 0.  0.
    9000005    1    3    3    0    0  0.57840710218E+02 -0.23605221869E+02  0.20852539094E+03  0.21768461802E+03  0.10000000000E+01 0.  0.
<mgrwt>
<rscale>  0 0.12499868E+03</rscale>
<asrwt>0</asrwt>
<pdfrwt beam="1">  1        4 0.10926832E+00 0.12499868E+03</pdfrwt>
<pdfrwt beam="2">  1       -4 0.22342749E-02 0.12499868E+03</pdfrwt>
<totfact> 0.96740604E+02</totfact>
</mgrwt>
</event>
<event>
 5    1  0.1435323E-002  0.1250151E+03  0.7818608E-02  0.1235046E+00
         -4   -1    0    0    0  501 -0.00000000000E+00  0.00000000000E+00  0.40830782890E+02  0.40850529145E+02  0.12700000000E+01 0.  1.
          4   -1    0    0  501    0  0.00000000000E+00 -0.00000000000E+00 -0.95645205199E+02  0.95653636510E+02  0.12700000000E+01 0.  1.
         25    2    1    2    0    0  0.00000000000E+00  0.00000000000E+00 -0.54814422309E+02  0.13650416565E+03  0.12501506448E+03 0.  0.
    9000005    1    3    3    0    0  0.40619768202E+02  0.45138652054E+02 -0.43555847500E+02  0.74736706707E+02  0.10000000000E+01 0.  0.
    9000005    1    3    3    0    0 -0.40619768202E+02 -0.45138652054E+02 -0.11258574809E+02  0.61767458947E+02  0.10000000000E+01 0.  0.
<mgrwt>
<rscale>  0 0.12501506E+03</rscale>
<asrwt>0</asrwt>
<pdfrwt beam="2">  1        4 0.23914823E-01 0.12501506E+03</pdfrwt>
<pdfrwt beam="1">  1       -4 0.10211218E-01 0.12501506E+03</pdfrwt>
<totfact> 0.19213885E+03</totfact>
</mgrwt>
</event>
<event>
 5    1  0.1435323E-002  0.1250029E+03  0.7818608E-02  0.1235065E+00
          4   -1    0    0  501    0  0.00000000000E+00  0.00000000000E+00  0.10654727300E+03  0.10655484167E+03  0.12700000000E+01 0. -1.
         -4   -1    0    0    0  501 -0.00000000000E+00 -0.00000000000E+00 -0.36643947509E+02  0.36665948631E+02  0.12700000000E+01 0. -1.
         25    2    1    2    0    0  0.00000000000E+00  0.00000000000E+00  0.69903325492E+02  0.14322079030E+03  0.12500287941E+03 0.  0.
    9000005    1    3    3    0    0 -0.27342193164E+02  0.81604472655E+01 -0.28750256793E+02  0.40518707929E+02  0.10000000000E+01 0.  0.
    9000005    1    3    3    0    0  0.27342193164E+02 -0.81604472655E+01  0.98653582285E+02  0.10270208238E+03  0.10000000000E+01 0.  0.
<mgrwt>
<rscale>  0 0.12500288E+03</rscale>
<asrwt>0</asrwt>
<pdfrwt beam="1">  1        4 0.26640514E-01 0.12500288E+03</pdfrwt>
<pdfrwt beam="2">  1       -4 0.91646832E-02 0.12500288E+03</pdfrwt>
<totfact> 0.18875499E+03</totfact>
</mgrwt>
</event>
<event>
 5    1  0.1435323E-002  0.1250043E+03  0.7818608E-02  0.1235063E+00
          4   -1    0    0  501    0  0.00000000000E+00  0.00000000000E+00  0.16870890371E+03  0.16871368377E+03  0.12700000000E+01 0.  1.
         -4   -1    0    0    0  501 -0.00000000000E+00 -0.00000000000E+00 -0.23132840052E+02  0.23167675517E+02  0.12700000000E+01 0.  1.
         25    2    1    2    0    0  0.00000000000E+00  0.00000000000E+00  0.14557606366E+03  0.19188135929E+03  0.12500426285E+03 0.  0.
    9000005    1    3    3    0    0 -0.41342598629E+02  0.16762258471E+02  0.56095677332E+01  0.44973892656E+02  0.10000000000E+01 0.  0.
    9000005    1    3    3    0    0  0.41342598629E+02 -0.16762258471E+02  0.13996649592E+03  0.14690746663E+03  0.10000000000E+01 0.  0.
<mgrwt>
<rscale>  0 0.12500426E+03</rscale>
<asrwt>0</asrwt>
<pdfrwt beam="1">  1        4 0.42182178E-01 0.12500426E+03</pdfrwt>
<pdfrwt beam="2">  1       -4 0.57881620E-02 0.12500426E+03</pdfrwt>
<totfact> 0.16650727E+03</totfact>
</mgrwt>
</event>
<event>
 5    1  0.1435323E-002  0.1250014E+03  0.7818608E-02  0.1235067E+00
          4   -1    0    0  501    0  0.00000000000E+00  0.00000000000E+00  0.65364609288E+02  0.65376945840E+02  0.12700000000E+01 0.  1.
         -4   -1    0    0    0  501 -0.00000000000E+00 -0.00000000000E+00 -0.59737539954E+02  0.59751038315E+02  0.12700000000E+01 0.  1.
         25    2    1    2    0    0  0.00000000000E+00  0.00000000000E+00  0.56270693346E+01  0.12512798416E+03  0.12500139403E+03 0.  0.
    9000005    1    3    3    0    0 -0.41188930115E+02  0.46457034505E+02 -0.43037366867E+01  0.62243924751E+02  0.10000000000E+01 0.  0.
    9000005    1    3    3    0    0  0.41188930115E+02 -0.46457034505E+02  0.99308060213E+01  0.62884059404E+02  0.10000000000E+01 0.  0.
<mgrwt>
<rscale>  0 0.12500139E+03</rscale>
<asrwt>0</asrwt>
<pdfrwt beam="1">  1        4 0.16344382E-01 0.12500139E+03</pdfrwt>
<pdfrwt beam="2">  1       -4 0.14937614E-01 0.12500139E+03</pdfrwt>
<totfact> 0.19827469E+03</totfact>
</mgrwt>
</event>
<event>
 5    1  0.1435323E-002  0.1250025E+03  0.7818608E-02  0.1235065E+00
          4   -1    0    0  501    0  0.00000000000E+00  0.00000000000E+00  0.48164259822E+01  0.49810500140E+01  0.12700000000E+01 0.  1.
         -4   -1    0    0    0  501 -0.00000000000E+00 -0.00000000000E+00 -0.79726562710E+03  0.79726663862E+03  0.12700000000E+01 0.  1.
         25    2    1    2    0    0  0.00000000000E+00  0.00000000000E+00 -0.79244920112E+03  0.80224768863E+03  0.12500247024E+03 0.  0.
    9000005    1    3    3    0    0 -0.22505788838E+02 -0.13143216323E+01 -0.77029064765E+03  0.77062112599E+03  0.10000000000E+01 0.  0.
    9000005    1    3    3    0    0  0.22505788838E+02  0.13143216323E+01 -0.22158553469E+02  0.31626562640E+02  0.10000000000E+01 0.  0.
<mgrwt>
<rscale>  0 0.12500247E+03</rscale>
<asrwt>0</asrwt>
<pdfrwt beam="1">  1        4 0.12248137E-02 0.12500247E+03</pdfrwt>
<pdfrwt beam="2">  1       -4 0.19933667E+00 0.12500247E+03</pdfrwt>
<totfact> 0.52277375E+02</totfact>
</mgrwt>
</event>
<event>
 5    1  0.1435323E-002  0.1250021E+03  0.7818608E-02  0.1235066E+00
         -4   -1    0    0    0  501 -0.00000000000E+00  0.00000000000E+00  0.77909837222E+02  0.77920187602E+02  0.12700000000E+01 0. -1.
          4   -1    0    0  501    0  0.00000000000E+00 -0.00000000000E+00 -0.50118013314E+02  0.50134101753E+02  0.12700000000E+01 0. -1.
         25    2    1    2    0    0  0.00000000000E+00  0.00000000000E+00  0.27791823908E+02  0.12805428936E+03  0.12500206217E+03 0.  0.
    9000005    1    3    3    0    0 -0.58747154963E+02  0.21011959624E+02  0.10252638991E+02  0.63236439414E+02  0.10000000000E+01 0.  0.
    9000005    1    3    3    0    0  0.58747154963E+02 -0.21011959624E+02  0.17539184918E+02  0.64817849941E+02  0.10000000000E+01 0.  0.
<mgrwt>
<rscale>  0 0.12500206E+03</rscale>
<asrwt>0</asrwt>
<pdfrwt beam="2">  1        4 0.12532808E-01 0.12500206E+03</pdfrwt>
<pdfrwt beam="1">  1       -4 0.19480764E-01 0.12500206E+03</pdfrwt>
<totfact> 0.19668634E+03</totfact>
</mgrwt>
</event>
<event>
 5    1  0.1435323E-002  0.1249964E+03  0.7818608E-02  0.1235075E+00
          4   -1    0    0  501    0  0.00000000000E+00  0.00000000000E+00  0.46398873798E+01  0.48105566099E+01  0.12700000000E+01 0.  1.
         -4   -1    0    0    0  501 -0.00000000000E+00 -0.00000000000E+00 -0.82646166770E+03  0.82646264348E+03  0.12700000000E+01 0.  1.
         25    2    1    2    0    0  0.00000000000E+00  0.00000000000E+00 -0.82182178032E+03  0.83127320009E+03  0.12499637830E+03 0.  0.
    9000005    1    3    3    0    0  0.30380563546E+02 -0.12439457349E+02 -0.57294266699E+02  0.66040531018E+02  0.10000000000E+01 0.  0.
    9000005    1    3    3    0    0 -0.30380563546E+02  0.12439457349E+02 -0.76452751362E+03  0.76523266908E+03  0.10000000000E+01 0.  0.
<mgrwt>
<rscale>  0 0.12499638E+03</rscale>
<asrwt>0</asrwt>
<pdfrwt beam="1">  1        4 0.11814303E-02 0.12499638E+03</pdfrwt>
<pdfrwt beam="2">  1       -4 0.20663638E+00 0.12499638E+03</pdfrwt>
<totfact> 0.49788336E+02</totfact>
</mgrwt>
</event>
<event>
 5    1  0.1435323E-002  0.1249970E+03  0.7818608E-02  0.1235074E+00
          4   -1    0    0  501    0  0.00000000000E+00  0.00000000000E+00  0.70583918102E+01  0.71717358391E+01  0.12700000000E+01 0. -1.
         -4   -1    0    0    0  501 -0.00000000000E+00 -0.00000000000E+00 -0.54887050939E+03  0.54887197868E+03  0.12700000000E+01 0. -1.
         25    2    1    2    0    0  0.00000000000E+00  0.00000000000E+00 -0.54181211758E+03  0.55604371451E+03  0.12499696675E+03 0.  0.
    9000005    1    3    3    0    0  0.21398372234E+02 -0.51965216962E+02 -0.39247080209E+03  0.39647522571E+03  0.10000000000E+01 0.  0.
    9000005    1    3    3    0    0 -0.21398372234E+02  0.51965216962E+02 -0.14934131549E+03  0.15956848881E+03  0.10000000000E+01 0.  0.
<mgrwt>
<rscale>  0 0.12499697E+03</rscale>
<asrwt>0</asrwt>
<pdfrwt beam="1">  1        4 0.17789515E-02 0.12499697E+03</pdfrwt>
<pdfrwt beam="2">  1       -4 0.13723184E+00 0.12499697E+03</pdfrwt>
<totfact> 0.79332199E+02</totfact>
</mgrwt>
</event>
<event>
 5    1  0.1435323E-002  0.1250063E+03  0.7818608E-02  0.1235059E+00
         -4   -1    0    0    0  501 -0.00000000000E+00  0.00000000000E+00  0.41191083512E+03  0.41191279294E+03  0.12700000000E+01 0. -1.
          4   -1    0    0  501    0  0.00000000000E+00 -0.00000000000E+00 -0.94396881329E+01  0.95247368492E+01  0.12700000000E+01 0. -1.
         25    2    1    2    0    0  0.00000000000E+00  0.00000000000E+00  0.40247114699E+03  0.42143752979E+03  0.12500626928E+03 0.  0.
    9000005    1    3    3    0    0  0.32273720655E+02  0.51915600384E+02  0.15743171439E+03  0.16888625552E+03  0.10000000000E+01 0.  0.
    9000005    1    3    3    0    0 -0.32273720655E+02 -0.51915600384E+02  0.24503943259E+03  0.25255127427E+03  0.10000000000E+01 0.  0.
<mgrwt>
<rscale>  0 0.12500627E+03</rscale>
<asrwt>0</asrwt>
<pdfrwt beam="2">  1        4 0.23707978E-02 0.12500627E+03</pdfrwt>
<pdfrwt beam="1">  1       -4 0.10298859E+00 0.12500627E+03</pdfrwt>
<totfact> 0.10136430E+03</totfact>
</mgrwt>
</event>
<event>
 5    1  0.1435323E-002  0.1250005E+03  0.7818608E-02  0.1235069E+00
         -4   -1    0    0    0  501 -0.00000000000E+00  0.00000000000E+00  0.34243415569E+03  0.34243651073E+03  0.12700000000E+01 0.  1.
          4   -1    0    0  501    0  0.00000000000E+00 -0.00000000000E+00 -0.11369641859E+02  0.11440352093E+02  0.12700000000E+01 0.  1.
         25    2    1    2    0    0  0.00000000000E+00  0.00000000000E+00  0.33106451383E+03  0.35387686282E+03  0.12500048690E+03 0.  0.
    9000005    1    3    3    0    0 -0.44471405397E+02 -0.21583334143E+01  0.28967479924E+03  0.29307823805E+03  0.10000000000E+01 0.  0.
    9000005    1    3    3    0    0  0.44471405397E+02  0.21583334143E+01  0.41389714584E+02  0.60798624775E+02  0.10000000000E+01 0.  0.
<mgrwt>
<rscale>  0 0.12500049E+03</rscale>
<asrwt>0</asrwt>
<pdfrwt beam="2">  1        4 0.28515436E-02 0.12500049E+03</pdfrwt>
<pdfrwt beam="1">  1       -4 0.85617673E-01 0.12500049E+03</pdfrwt>
<totfact> 0.11585267E+03</totfact>
</mgrwt>
</event>
<event>
 5    1  0.1435323E-002  0.1250002E+03  0.7818608E-02  0.1235069E+00
          4   -1    0    0  501    0  0.00000000000E+00  0.00000000000E+00  0.44467983795E+02  0.44486115618E+02  0.12700000000E+01 0.  1.
         -4   -1    0    0    0  501 -0.00000000000E+00 -0.00000000000E+00 -0.87803681327E+02  0.87812865541E+02  0.12700000000E+01 0.  1.
         25    2    1    2    0    0  0.00000000000E+00  0.00000000000E+00 -0.43335697532E+02  0.13229898116E+03  0.12500015094E+03 0.  0.
    9000005    1    3    3    0    0  0.52219782721E+02  0.29592641815E+02 -0.32558290083E+01  0.60118471201E+02  0.10000000000E+01 0.  0.
    9000005    1    3    3    0    0 -0.52219782721E+02 -0.29592641815E+02 -0.40079868524E+02  0.72180509959E+02  0.10000000000E+01 0.  0.
<mgrwt>
<rscale>  0 0.12500015E+03</rscale>
<asrwt>0</asrwt>
<pdfrwt beam="1">  1        4 0.11120411E-01 0.12500015E+03</pdfrwt>
<pdfrwt beam="2">  1       -4 0.21954335E-01 0.12500015E+03</pdfrwt>
<totfact> 0.19441499E+03</totfact>
</mgrwt>
</event>
<event>
 5    1  0.1435323E-002  0.1249987E+03  0.7818608E-02  0.1235071E+00
          4   -1    0    0  501    0  0.00000000000E+00  0.00000000000E+00  0.11199250655E+02  0.11271029910E+02  0.12700000000E+01 0. -1.
         -4   -1    0    0    0  501 -0.00000000000E+00 -0.00000000000E+00 -0.34760106292E+03  0.34760338296E+03  0.12700000000E+01 0. -1.
         25    2    1    2    0    0  0.00000000000E+00  0.00000000000E+00 -0.33640181227E+03  0.35887441287E+03  0.12499865965E+03 0.  0.
    9000005    1    3    3    0    0  0.38247097236E+02  0.17774901452E+02 -0.30059159485E+03  0.30353763269E+03  0.10000000000E+01 0.  0.
    9000005    1    3    3    0    0 -0.38247097236E+02 -0.17774901452E+02 -0.35810217423E+02  0.55336780178E+02  0.10000000000E+01 0.  0.
<mgrwt>
<rscale>  0 0.12499866E+03</rscale>
<asrwt>0</asrwt>
<pdfrwt beam="1">  1        4 0.28090762E-02 0.12499866E+03</pdfrwt>
<pdfrwt beam="2">  1       -4 0.86909493E-01 0.12499866E+03</pdfrwt>
<totfact> 0.11468839E+03</totfact>
</mgrwt>
</event>
<event>
 5    1  0.1435323E-002  0.1250061E+03  0.7818608E-02  0.1235060E+00
          4   -1    0    0  501    0  0.00000000000E+00  0.00000000000E+00  0.16570066612E+03  0.16570553296E+03  0.12700000000E+01 0.  1.
         -4   -1    0    0    0  501 -0.00000000000E+00 -0.00000000000E+00 -0.23554119298E+02  0.23588332623E+02  0.12700000000E+01 0.  1.
         25    2    1    2    0    0  0.00000000000E+00  0.00000000000E+00  0.14214654682E+03  0.18929386558E+03  0.12500610694E+03 0.  0.
    9000005    1    3    3    0    0  0.42347478160E+02  0.35165746377E+02  0.26262621108E+02  0.60997244956E+02  0.10000000000E+01 0.  0.
    9000005    1    3    3    0    0 -0.42347478160E+02 -0.35165746377E+02  0.11588392571E+03  0.12829662062E+03  0.10000000000E+01 0.  0.
<mgrwt>
<rscale>  0 0.12500611E+03</rscale>
<asrwt>0</asrwt>
<pdfrwt beam="1">  1        4 0.41430051E-01 0.12500611E+03</pdfrwt>
<pdfrwt beam="2">  1       -4 0.58934149E-02 0.12500611E+03</pdfrwt>
<totfact> 0.16757533E+03</totfact>
</mgrwt>
</event>
<event>
 5    1  0.1435323E-002  0.1249989E+03  0.7818608E-02  0.1235071E+00
          4   -1    0    0  501    0  0.00000000000E+00  0.00000000000E+00  0.84084225776E+02  0.84093816208E+02  0.12700000000E+01 0.  1.
         -4   -1    0    0    0  501 -0.00000000000E+00 -0.00000000000E+00 -0.46434647173E+02  0.46452011346E+02  0.12700000000E+01 0.  1.
         25    2    1    2    0    0  0.00000000000E+00  0.00000000000E+00  0.37649578603E+02  0.13054582755E+03  0.12499888929E+03 0.  0.
    9000005    1    3    3    0    0 -0.27519794820E+01  0.52613204138E+02  0.53923557342E+02  0.75395442018E+02  0.10000000000E+01 0.  0.
    9000005    1    3    3    0    0  0.27519794820E+01 -0.52613204138E+02 -0.16273978739E+02  0.55150385535E+02  0.10000000000E+01 0.  0.
<mgrwt>
<rscale>  0 0.12499889E+03</rscale>
<asrwt>0</asrwt>
<pdfrwt beam="1">  1        4 0.21024426E-01 0.12499889E+03</pdfrwt>
<pdfrwt beam="2">  1       -4 0.11612031E-01 0.12499889E+03</pdfrwt>
<totfact> 0.19535591E+03</totfact>
</mgrwt>
</event>
<event>
 5    1  0.1435323E-002  0.1250006E+03  0.7818608E-02  0.1235068E+00
          4   -1    0    0  501    0  0.00000000000E+00  0.00000000000E+00  0.57128028068E+01  0.58522658783E+01  0.12700000000E+01 0.  1.
         -4   -1    0    0    0  501 -0.00000000000E+00 -0.00000000000E+00 -0.67539239081E+03  0.67539358486E+03  0.12700000000E+01 0.  1.
         25    2    1    2    0    0  0.00000000000E+00  0.00000000000E+00 -0.66967958800E+03  0.68124585073E+03  0.12500063421E+03 0.  0.
    9000005    1    3    3    0    0  0.84811916317E+01 -0.46887726734E+02 -0.11447751004E+03  0.12400197513E+03  0.10000000000E+01 0.  0.
    9000005    1    3    3    0    0 -0.84811916317E+01  0.46887726734E+02 -0.55520207796E+03  0.55724387561E+03  0.10000000000E+01 0.  0.
<mgrwt>
<rscale>  0 0.12500063E+03</rscale>
<asrwt>0</asrwt>
<pdfrwt beam="1">  1        4 0.14457851E-02 0.12500063E+03</pdfrwt>
<pdfrwt beam="2">  1       -4 0.16886541E+00 0.12500063E+03</pdfrwt>
<totfact> 0.64045300E+02</totfact>
</mgrwt>
</event>
<event>
 5    1  0.1435323E-002  0.1250006E+03  0.7818608E-02  0.1235068E+00
          4   -1    0    0  501    0  0.00000000000E+00  0.00000000000E+00  0.29170113192E+03  0.29170389656E+03  0.12700000000E+01 0.  1.
         -4   -1    0    0    0  501 -0.00000000000E+00 -0.00000000000E+00 -0.13358454934E+02  0.13418689139E+02  0.12700000000E+01 0.  1.
         25    2    1    2    0    0  0.00000000000E+00  0.00000000000E+00  0.27834267699E+03  0.30512258570E+03  0.12500058587E+03 0.  0.
    9000005    1    3    3    0    0  0.29941023955E+02 -0.48513584690E+02  0.20165508794E+03  0.20956098708E+03  0.10000000000E+01 0.  0.
    9000005    1    3    3    0    0 -0.29941023955E+02  0.48513584690E+02  0.76687589053E+02  0.95561598615E+02  0.10000000000E+01 0.  0.
<mgrwt>
<rscale>  0 0.12500059E+03</rscale>
<asrwt>0</asrwt>
<pdfrwt beam="1">  1        4 0.72933160E-01 0.12500059E+03</pdfrwt>
<pdfrwt beam="2">  1       -4 0.33474885E-02 0.12500059E+03</pdfrwt>
<totfact> 0.12828519E+03</totfact>
</mgrwt>
</event>
<event>
 5    1  0.1435323E-002  0.1249939E+03  0.7818608E-02  0.1235079E+00
         -4   -1    0    0    0  501 -0.00000000000E+00  0.00000000000E+00  0.15946147923E+03  0.15946653648E+03  0.12700000000E+01 0.  1.
          4   -1    0    0  501    0  0.00000000000E+00 -0.00000000000E+00 -0.24472224290E+02  0.24505155819E+02  0.12700000000E+01 0.  1.
         25    2    1    2    0    0  0.00000000000E+00  0.00000000000E+00  0.13498925494E+03  0.18397169230E+03  0.12499393833E+03 0.  0.
    9000005    1    3    3    0    0  0.16462755680E+02 -0.40227128238E+02  0.13357418604E+03  0.14047173148E+03  0.10000000000E+01 0.  0.
    9000005    1    3    3    0    0 -0.16462755680E+02  0.40227128238E+02  0.14150688989E+01  0.43499960815E+02  0.10000000000E+01 0.  0.
<mgrwt>
<rscale>  0 0.12499394E+03</rscale>
<asrwt>0</asrwt>
<pdfrwt beam="2">  1        4 0.61228047E-02 0.12499394E+03</pdfrwt>
<pdfrwt beam="1">  1       -4 0.39870118E-01 0.12499394E+03</pdfrwt>
<totfact> 0.16987003E+03</totfact>
</mgrwt>
</event>
<event>
 5    1  0.1435323E-002  0.1249980E+03  0.7818608E-02  0.1235072E+00
          4   -1    0    0  501    0  0.00000000000E+00  0.00000000000E+00  0.90715444984E+01  0.91600119861E+01  0.12700000000E+01 0. -1.
         -4   -1    0    0    0  501 -0.00000000000E+00 -0.00000000000E+00 -0.42841209729E+03  0.42841397971E+03  0.12700000000E+01 0. -1.
         25    2    1    2    0    0  0.00000000000E+00  0.00000000000E+00 -0.41934055279E+03  0.43757399169E+03  0.12499799593E+03 0.  0.
    9000005    1    3    3    0    0  0.57497072399E+02  0.20848200455E+02 -0.16476309451E+03  0.17575106859E+03  0.10000000000E+01 0.  0.
    9000005    1    3    3    0    0 -0.57497072399E+02 -0.20848200455E+02 -0.25457745829E+03  0.26182292311E+03  0.10000000000E+01 0.  0.
<mgrwt>
<rscale>  0 0.12499800E+03</rscale>
<asrwt>0</asrwt>
<pdfrwt beam="1">  1        4 0.22791813E-02 0.12499800E+03</pdfrwt>
<pdfrwt beam="2">  1       -4 0.10711425E+00 0.12499800E+03</pdfrwt>
<totfact> 0.98296017E+02</totfact>
</mgrwt>
</event>
<event>
 5    1  0.1435323E-002  0.1249996E+03  0.7818608E-02  0.1235070E+00
         -4   -1    0    0    0  501 -0.00000000000E+00  0.00000000000E+00  0.33546887141E+02  0.33570918022E+02  0.12700000000E+01 0.  1.
          4   -1    0    0  501    0  0.00000000000E+00 -0.00000000000E+00 -0.11637162065E+03  0.11637855040E+03  0.12700000000E+01 0.  1.
         25    2    1    2    0    0  0.00000000000E+00  0.00000000000E+00 -0.82824733509E+02  0.14994946842E+03  0.12499962639E+03 0.  0.
    9000005    1    3    3    0    0  0.41129579698E+02 -0.22030602237E+02  0.84574590129E+01  0.47429087847E+02  0.10000000000E+01 0.  0.
    9000005    1    3    3    0    0 -0.41129579698E+02  0.22030602237E+02 -0.91282192522E+02  0.10252038057E+03  0.10000000000E+01 0.  0.
<mgrwt>
<rscale>  0 0.12499963E+03</rscale>
<asrwt>0</asrwt>
<pdfrwt beam="2">  1        4 0.29096774E-01 0.12499963E+03</pdfrwt>
<pdfrwt beam="1">  1       -4 0.83905921E-02 0.12499963E+03</pdfrwt>
<totfact> 0.18541427E+03</totfact>
</mgrwt>
</event>
<event>
 5    1  0.1435323E-002  0.1249995E+03  0.7818608E-02  0.1235070E+00
         -4   -1    0    0    0  501 -0.00000000000E+00  0.00000000000E+00  0.66979736854E+01  0.68173126296E+01  0.12700000000E+01 0.  1.
          4   -1    0    0  501    0  0.00000000000E+00 -0.00000000000E+00 -0.57792417800E+03  0.57792557342E+03  0.12700000000E+01 0.  1.
         25    2    1    2    0    0  0.00000000000E+00  0.00000000000E+00 -0.57122620431E+03  0.58474288605E+03  0.12499946518E+03 0.  0.
    9000005    1    3    3    0    0 -0.35517407100E+02 -0.28929972604E+02 -0.86770115895E+02  0.98124831386E+02  0.10000000000E+01 0.  0.
    9000005    1    3    3    0    0  0.35517407100E+02  0.28929972604E+02 -0.48445608842E+03  0.48661805467E+03  0.10000000000E+01 0.  0.
<mgrwt>
<rscale>  0 0.12499947E+03</rscale>
<asrwt>0</asrwt>
<pdfrwt beam="2">  1        4 0.14449597E+00 0.12499947E+03</pdfrwt>
<pdfrwt beam="1">  1       -4 0.16895872E-02 0.12499947E+03</pdfrwt>
<totfact> 0.75457733E+02</totfact>
</mgrwt>
</event>
<event>
 5    1  0.1435323E-002  0.1250067E+03  0.7818608E-02  0.1235059E+00
         -4   -1    0    0    0  501 -0.00000000000E+00  0.00000000000E+00  0.19828171376E+02  0.19868801677E+02  0.12700000000E+01 0. -1.
          4   -1    0    0  501    0  0.00000000000E+00 -0.00000000000E+00 -0.19678183662E+03  0.19678593478E+03  0.12700000000E+01 0. -1.
         25    2    1    2    0    0  0.00000000000E+00  0.00000000000E+00 -0.17695366525E+03  0.21665473645E+03  0.12500670055E+03 0.  0.
    9000005    1    3    3    0    0 -0.51562071211E+02  0.33894119062E+02 -0.71301173332E+02  0.94299076417E+02  0.10000000000E+01 0.  0.
    9000005    1    3    3    0    0  0.51562071211E+02 -0.33894119062E+02 -0.10565249192E+03  0.12235566004E+03  0.10000000000E+01 0.  0.
<mgrwt>
<rscale>  0 0.12500670E+03</rscale>
<asrwt>0</asrwt>
<pdfrwt beam="2">  1        4 0.49201044E-01 0.12500670E+03</pdfrwt>
<pdfrwt beam="1">  1       -4 0.49626345E-02 0.12500670E+03</pdfrwt>
<totfact> 0.15673765E+03</totfact>
</mgrwt>
</event>
<event>
 5    1  0.1435323E-002  0.1250347E+03  0.7818608E-02  0.1235015E+00
          4   -1    0    0  501    0  0.00000000000E+00  0.00000000000E+00  0.94862817652E+01  0.95709164518E+01  0.12700000000E+01 0.  1.
         -4   -1    0    0    0  501 -0.00000000000E+00 -0.00000000000E+00 -0.41009177418E+03  0.41009374068E+03  0.12700000000E+01 0.  1.
         25    2    1    2    0    0  0.00000000000E+00  0.00000000000E+00 -0.40060549241E+03  0.41966465714E+03  0.12503465079E+03 0.  0.
    9000005    1    3    3    0    0 -0.41814135203E+02 -0.31022839861E+02 -0.84200018652E+02  0.99002432480E+02  0.10000000000E+01 0.  0.
    9000005    1    3    3    0    0  0.41814135203E+02  0.31022839861E+02 -0.31640547376E+03  0.32066222466E+03  0.10000000000E+01 0.  0.
<mgrwt>
<rscale>  0 0.12503465E+03</rscale>
<asrwt>0</asrwt>
<pdfrwt beam="1">  1        4 0.23823970E-02 0.12503465E+03</pdfrwt>
<pdfrwt beam="2">  1       -4 0.10253371E+00 0.12503465E+03</pdfrwt>
<totfact> 0.10164722E+03</totfact>
</mgrwt>
</event>
<event>
 5    1  0.1435323E-002  0.1250067E+03  0.7818608E-02  0.1235059E+00
         -4   -1    0    0    0  501 -0.00000000000E+00  0.00000000000E+00  0.33184761289E+03  0.33185004306E+03  0.12700000000E+01 0.  1.
          4   -1    0    0  501    0  0.00000000000E+00 -0.00000000000E+00 -0.11735748718E+02  0.11804266092E+02  0.12700000000E+01 0.  1.
         25    2    1    2    0    0  0.00000000000E+00  0.00000000000E+00  0.32011186417E+03  0.34365430915E+03  0.12500671429E+03 0.  0.
    9000005    1    3    3    0    0 -0.18862899438E+02 -0.15060531604E+02  0.15825567873E+01  0.24210185323E+02  0.10000000000E+01 0.  0.
    9000005    1    3    3    0    0  0.18862899438E+02  0.15060531604E+02  0.31852930738E+03  0.31944412383E+03  0.10000000000E+01 0.  0.
<mgrwt>
<rscale>  0 0.12500671E+03</rscale>
<asrwt>0</asrwt>
<pdfrwt beam="2">  1        4 0.29428055E-02 0.12500671E+03</pdfrwt>
<pdfrwt beam="1">  1       -4 0.82970775E-01 0.12500671E+03</pdfrwt>
<totfact> 0.11828318E+03</totfact>
</mgrwt>
</event>
<event>
 5    1  0.1435323E-002  0.1250021E+03  0.7818608E-02  0.1235066E+00
         -4   -1    0    0    0  501 -0.00000000000E+00  0.00000000000E+00  0.80598377398E+02  0.80608382562E+02  0.12700000000E+01 0. -1.
          4   -1    0    0  501    0  0.00000000000E+00 -0.00000000000E+00 -0.48445905470E+02  0.48462549013E+02  0.12700000000E+01 0. -1.
         25    2    1    2    0    0  0.00000000000E+00  0.00000000000E+00  0.32152471928E+02  0.12907093157E+03  0.12500209569E+03 0.  0.
    9000005    1    3    3    0    0  0.16648273170E+02 -0.58397571238E+02  0.31319545920E+02  0.68332680927E+02  0.10000000000E+01 0.  0.
    9000005    1    3    3    0    0 -0.16648273170E+02  0.58397571238E+02  0.83292600834E+00  0.60738250648E+02  0.10000000000E+01 0.  0.
<mgrwt>
<rscale>  0 0.12500210E+03</rscale>
<asrwt>0</asrwt>
<pdfrwt beam="2">  1        4 0.12114808E-01 0.12500210E+03</pdfrwt>
<pdfrwt beam="1">  1       -4 0.20152925E-01 0.12500210E+03</pdfrwt>
<totfact> 0.19613502E+03</totfact>
</mgrwt>
</event>
<event>
 5    1  0.1435323E-002  0.1250023E+03  0.7818608E-02  0.1235066E+00
          4   -1    0    0  501    0  0.00000000000E+00  0.00000000000E+00  0.17039690068E+03  0.17040163339E+03  0.12700000000E+01 0. -1.
         -4   -1    0    0    0  501 -0.00000000000E+00 -0.00000000000E+00 -0.22902607794E+02  0.22937792914E+02  0.12700000000E+01 0. -1.
         25    2    1    2    0    0  0.00000000000E+00  0.00000000000E+00  0.14749429288E+03  0.19333942630E+03  0.12500226929E+03 0.  0.
    9000005    1    3    3    0    0  0.78785030295E+00 -0.18251989109E+02 -0.18687785383E+02  0.26153185982E+02  0.10000000000E+01 0.  0.
    9000005    1    3    3    0    0 -0.78785030295E+00  0.18251989109E+02  0.16618207827E+03  0.16718624032E+03  0.10000000000E+01 0.  0.
<mgrwt>
<rscale>  0 0.12500227E+03</rscale>
<asrwt>0</asrwt>
<pdfrwt beam="1">  1        4 0.42604214E-01 0.12500227E+03</pdfrwt>
<pdfrwt beam="2">  1       -4 0.57306418E-02 0.12500227E+03</pdfrwt>
<totfact> 0.16591390E+03</totfact>
</mgrwt>
</event>
<event>
 5    1  0.1435323E-002  0.1249975E+03  0.7818608E-02  0.1235073E+00
         -4   -1    0    0    0  501 -0.00000000000E+00  0.00000000000E+00  0.17859862035E+03  0.17860313573E+03  0.12700000000E+01 0. -1.
          4   -1    0    0  501    0  0.00000000000E+00 -0.00000000000E+00 -0.21847571222E+02  0.21884452661E+02  0.12700000000E+01 0. -1.
         25    2    1    2    0    0  0.00000000000E+00  0.00000000000E+00  0.15675104913E+03  0.20048758839E+03  0.12499752675E+03 0.  0.
    9000005    1    3    3    0    0 -0.67957243103E+01  0.36385902958E+02 -0.23801981237E+01  0.37105001631E+02  0.10000000000E+01 0.  0.
    9000005    1    3    3    0    0  0.67957243103E+01 -0.36385902958E+02  0.15913124726E+03  0.16338258676E+03  0.10000000000E+01 0.  0.
<mgrwt>
<rscale>  0 0.12499753E+03</rscale>
<asrwt>0</asrwt>
<pdfrwt beam="2">  1        4 0.54670675E-02 0.12499753E+03</pdfrwt>
<pdfrwt beam="1">  1       -4 0.44654829E-01 0.12499753E+03</pdfrwt>
<totfact> 0.16303468E+03</totfact>
</mgrwt>
</event>
<event>
 5    1  0.1435323E-002  0.1249844E+03  0.7818608E-02  0.1235094E+00
         -4   -1    0    0    0  501 -0.00000000000E+00  0.00000000000E+00  0.81792908989E+02  0.81802768052E+02  0.12700000000E+01 0. -1.
          4   -1    0    0  501    0  0.00000000000E+00 -0.00000000000E+00 -0.47724697547E+02  0.47741592516E+02  0.12700000000E+01 0. -1.
         25    2    1    2    0    0  0.00000000000E+00  0.00000000000E+00  0.34068211442E+02  0.12954436057E+03  0.12498439232E+03 0.  0.
    9000005    1    3    3    0    0  0.51878177921E+02  0.25403766524E+02 -0.76589854877E+01  0.58278270022E+02  0.10000000000E+01 0.  0.
    9000005    1    3    3    0    0 -0.51878177921E+02 -0.25403766524E+02  0.41727196930E+02  0.71266090546E+02  0.10000000000E+01 0.  0.
<mgrwt>
<rscale>  0 0.12498439E+03</rscale>
<asrwt>0</asrwt>
<pdfrwt beam="2">  1        4 0.11934519E-01 0.12498439E+03</pdfrwt>
<pdfrwt beam="1">  1       -4 0.20451571E-01 0.12498439E+03</pdfrwt>
<totfact> 0.19596047E+03</totfact>
</mgrwt>
</event>
<event>
 5    1  0.1435323E-002  0.1250003E+03  0.7818608E-02  0.1235069E+00
         -4   -1    0    0    0  501 -0.00000000000E+00  0.00000000000E+00  0.94642017639E+03  0.94642102850E+03  0.12700000000E+01 0. -1.
          4   -1    0    0  501    0  0.00000000000E+00 -0.00000000000E+00 -0.40288441451E+01  0.42242733275E+01  0.12700000000E+01 0. -1.
         25    2    1    2    0    0  0.00000000000E+00  0.00000000000E+00  0.94239133225E+03  0.95064530182E+03  0.12500026715E+03 0.  0.
    9000005    1    3    3    0    0 -0.27685029885E+02 -0.10186587067E+02  0.52219110858E+02  0.59983855950E+02  0.10000000000E+01 0.  0.
    9000005    1    3    3    0    0  0.27685029885E+02  0.10186587067E+02  0.89017222139E+03  0.89066144587E+03  0.10000000000E+01 0.  0.
<mgrwt>
<rscale>  0 0.12500027E+03</rscale>
<asrwt>0</asrwt>
<pdfrwt beam="2">  1        4 0.10317464E-02 0.12500027E+03</pdfrwt>
<pdfrwt beam="1">  1       -4 0.23662954E+00 0.12500027E+03</pdfrwt>
<totfact> 0.40530660E+02</totfact>
</mgrwt>
</event>
<event>
 5    1  0.1435323E-002  0.1250040E+03  0.7818608E-02  0.1235063E+00
          4   -1    0    0  501    0  0.00000000000E+00  0.00000000000E+00  0.20630754348E+02  0.20669807086E+02  0.12700000000E+01 0. -1.
         -4   -1    0    0    0  501 -0.00000000000E+00 -0.00000000000E+00 -0.18913312160E+03  0.18913738548E+03  0.12700000000E+01 0. -1.
         25    2    1    2    0    0  0.00000000000E+00  0.00000000000E+00 -0.16850236725E+03  0.20980719256E+03  0.12500404106E+03 0.  0.
    9000005    1    3    3    0    0 -0.57277150780E+02  0.24996571168E+02 -0.84176144543E+02  0.10484333017E+03  0.10000000000E+01 0.  0.
    9000005    1    3    3    0    0  0.57277150780E+02 -0.24996571168E+02 -0.84326222705E+02  0.10496386239E+03  0.10000000000E+01 0.  0.
<mgrwt>
<rscale>  0 0.12500404E+03</rscale>
<asrwt>0</asrwt>
<pdfrwt beam="1">  1        4 0.51631037E-02 0.12500404E+03</pdfrwt>
<pdfrwt beam="2">  1       -4 0.47288690E-01 0.12500404E+03</pdfrwt>
<totfact> 0.15935249E+03</totfact>
</mgrwt>
</event>
<event>
 5    1  0.1435323E-002  0.1249998E+03  0.7818608E-02  0.1235070E+00
         -4   -1    0    0    0  501 -0.00000000000E+00  0.00000000000E+00  0.10265285561E+03  0.10266071140E+03  0.12700000000E+01 0.  1.
          4   -1    0    0  501    0  0.00000000000E+00 -0.00000000000E+00 -0.38032964730E+02  0.38054162796E+02  0.12700000000E+01 0.  1.
         25    2    1    2    0    0  0.00000000000E+00  0.00000000000E+00  0.64619890882E+02  0.14071487420E+03  0.12499978209E+03 0.  0.
    9000005    1    3    3    0    0  0.71321680520E+01 -0.60362252176E+02  0.48652958653E+02  0.77862569278E+02  0.10000000000E+01 0.  0.
    9000005    1    3    3    0    0 -0.71321680520E+01  0.60362252176E+02  0.15966932229E+02  0.62852304919E+02  0.10000000000E+01 0.  0.
<mgrwt>
<rscale>  0 0.12499978E+03</rscale>
<asrwt>0</asrwt>
<pdfrwt beam="2">  1        4 0.95118731E-02 0.12499978E+03</pdfrwt>
<pdfrwt beam="1">  1       -4 0.25666845E-01 0.12499978E+03</pdfrwt>
<totfact> 0.19003927E+03</totfact>
</mgrwt>
</event>
<event>
 5    1  0.1435323E-002  0.1249986E+03  0.7818608E-02  0.1235072E+00
          4   -1    0    0  501    0  0.00000000000E+00  0.00000000000E+00  0.28294520540E+03  0.28294805559E+03  0.12700000000E+01 0.  1.
         -4   -1    0    0    0  501 -0.00000000000E+00 -0.00000000000E+00 -0.13773224875E+02  0.13831652955E+02  0.12700000000E+01 0.  1.
         25    2    1    2    0    0  0.00000000000E+00  0.00000000000E+00  0.26917198053E+03  0.29677970854E+03  0.12499856119E+03 0.  0.
    9000005    1    3    3    0    0 -0.20539066079E+02  0.58628626509E+02  0.15068746242E+03  0.16299349807E+03  0.10000000000E+01 0.  0.
    9000005    1    3    3    0    0  0.20539066079E+02 -0.58628626509E+02  0.11848451811E+03  0.13378621047E+03  0.10000000000E+01 0.  0.
<mgrwt>
<rscale>  0 0.12499856E+03</rscale>
<asrwt>0</asrwt>
<pdfrwt beam="1">  1        4 0.70743956E-01 0.12499856E+03</pdfrwt>
<pdfrwt beam="2">  1       -4 0.34509662E-02 0.12499856E+03</pdfrwt>
<totfact> 0.13062224E+03</totfact>
</mgrwt>
</event>
<event>
 5    1  0.1435323E-002  0.1250011E+03  0.7818608E-02  0.1235068E+00
         -4   -1    0    0    0  501 -0.00000000000E+00  0.00000000000E+00  0.34442013613E+02  0.34465420376E+02  0.12700000000E+01 0.  1.
          4   -1    0    0  501    0  0.00000000000E+00 -0.00000000000E+00 -0.11335169309E+03  0.11335880745E+03  0.12700000000E+01 0.  1.
         25    2    1    2    0    0  0.00000000000E+00  0.00000000000E+00 -0.78909679477E+02  0.14782422782E+03  0.12500105926E+03 0.  0.
    9000005    1    3    3    0    0 -0.39080120502E+02  0.24921967024E+02 -0.89024091324E+02  0.10037255150E+03  0.10000000000E+01 0.  0.
    9000005    1    3    3    0    0  0.39080120502E+02 -0.24921967024E+02  0.10114411848E+02  0.47451676323E+02  0.10000000000E+01 0.  0.
<mgrwt>
<rscale>  0 0.12500106E+03</rscale>
<asrwt>0</asrwt>
<pdfrwt beam="2">  1        4 0.28341738E-01 0.12500106E+03</pdfrwt>
<pdfrwt beam="1">  1       -4 0.86143188E-02 0.12500106E+03</pdfrwt>
<totfact> 0.18645824E+03</totfact>
</mgrwt>
</event>
<event>
 5    1  0.1435323E-002  0.1250007E+03  0.7818608E-02  0.1235068E+00
         -4   -1    0    0    0  501 -0.00000000000E+00  0.00000000000E+00  0.11292058193E+03  0.11292772344E+03  0.12700000000E+01 0. -1.
          4   -1    0    0  501    0  0.00000000000E+00 -0.00000000000E+00 -0.34573377012E+02  0.34596694900E+02  0.12700000000E+01 0. -1.
         25    2    1    2    0    0  0.00000000000E+00  0.00000000000E+00  0.78347204913E+02  0.14752441834E+03  0.12500067796E+03 0.  0.
    9000005    1    3    3    0    0 -0.15876097720E+02 -0.57588626206E+02  0.60832305277E+02  0.85264703790E+02  0.10000000000E+01 0.  0.
    9000005    1    3    3    0    0  0.15876097720E+02  0.57588626206E+02  0.17514899636E+02  0.62259714554E+02  0.10000000000E+01 0.  0.
<mgrwt>
<rscale>  0 0.12500068E+03</rscale>
<asrwt>0</asrwt>
<pdfrwt beam="2">  1        4 0.86471517E-02 0.12500068E+03</pdfrwt>
<pdfrwt beam="1">  1       -4 0.28233953E-01 0.12500068E+03</pdfrwt>
<totfact> 0.18660884E+03</totfact>
</mgrwt>
</event>
<event>
 5    1  0.1435323E-002  0.1249972E+03  0.7818608E-02  0.1235074E+00
          4   -1    0    0  501    0  0.00000000000E+00  0.00000000000E+00  0.85823804193E+02  0.85833200256E+02  0.12700000000E+01 0.  1.
         -4   -1    0    0    0  501 -0.00000000000E+00 -0.00000000000E+00 -0.45491941428E+02  0.45509665291E+02  0.12700000000E+01 0.  1.
         25    2    1    2    0    0  0.00000000000E+00  0.00000000000E+00  0.40331862765E+02  0.13134286555E+03  0.12499715667E+03 0.  0.
    9000005    1    3    3    0    0  0.55184876063E+02 -0.41019039678E+01  0.50672139654E+02  0.75039069153E+02  0.10000000000E+01 0.  0.
    9000005    1    3    3    0    0 -0.55184876063E+02  0.41019039678E+01 -0.10340276889E+02  0.56303796394E+02  0.10000000000E+01 0.  0.
<mgrwt>
<rscale>  0 0.12499716E+03</rscale>
<asrwt>0</asrwt>
<pdfrwt beam="1">  1        4 0.21459341E-01 0.12499716E+03</pdfrwt>
<pdfrwt beam="2">  1       -4 0.11376375E-01 0.12499716E+03</pdfrwt>
<totfact> 0.19493754E+03</totfact>
</mgrwt>
</event>
<event>
 5    1  0.1435323E-002  0.1250010E+03  0.7818608E-02  0.1235068E+00
          4   -1    0    0  501    0  0.00000000000E+00  0.00000000000E+00  0.16932867713E+02  0.16980427232E+02  0.12700000000E+01 0.  1.
         -4   -1    0    0    0  501 -0.00000000000E+00 -0.00000000000E+00 -0.23032137040E+03  0.23032487179E+03  0.12700000000E+01 0.  1.
         25    2    1    2    0    0  0.00000000000E+00  0.00000000000E+00 -0.21338850269E+03  0.24730529902E+03  0.12500103137E+03 0.  0.
    9000005    1    3    3    0    0  0.18891285080E+02  0.18043787850E+01  0.11104001773E+02  0.22009890734E+02  0.10000000000E+01 0.  0.
    9000005    1    3    3    0    0 -0.18891285080E+02 -0.18043787850E+01 -0.22449250446E+03  0.22529540828E+03  0.10000000000E+01 0.  0.
<mgrwt>
<rscale>  0 0.12500103E+03</rscale>
<asrwt>0</asrwt>
<pdfrwt beam="1">  1        4 0.42396003E-02 0.12500103E+03</pdfrwt>
<pdfrwt beam="2">  1       -4 0.57586715E-01 0.12500103E+03</pdfrwt>
<totfact> 0.14587703E+03</totfact>
</mgrwt>
</event>
<event>
 5    1  0.1435323E-002  0.1249939E+03  0.7818608E-02  0.1235079E+00
         -4   -1    0    0    0  501 -0.00000000000E+00  0.00000000000E+00  0.83839217345E+02  0.83848835800E+02  0.12700000000E+01 0. -1.
          4   -1    0    0  501    0  0.00000000000E+00 -0.00000000000E+00 -0.46566684913E+02  0.46583999869E+02  0.12700000000E+01 0. -1.
         25    2    1    2    0    0  0.00000000000E+00  0.00000000000E+00  0.37272532432E+02  0.13043283567E+03  0.12499393164E+03 0.  0.
    9000005    1    3    3    0    0 -0.23319478822E+02  0.26494598497E+02  0.72446647415E+02  0.80593291059E+02  0.10000000000E+01 0.  0.
    9000005    1    3    3    0    0  0.23319478822E+02 -0.26494598497E+02 -0.35174114983E+02  0.49839544610E+02  0.10000000000E+01 0.  0.
<mgrwt>
<rscale>  0 0.12499393E+03</rscale>
<asrwt>0</asrwt>
<pdfrwt beam="2">  1        4 0.11645038E-01 0.12499393E+03</pdfrwt>
<pdfrwt beam="1">  1       -4 0.20963171E-01 0.12499393E+03</pdfrwt>
<totfact> 0.19543910E+03</totfact>
</mgrwt>
</event>
<event>
 5    1  0.1435323E-002  0.1249963E+03  0.7818608E-02  0.1235075E+00
          4   -1    0    0  501    0  0.00000000000E+00  0.00000000000E+00  0.22342387581E+02  0.22378453540E+02  0.12700000000E+01 0.  1.
         -4   -1    0    0    0  501 -0.00000000000E+00 -0.00000000000E+00 -0.17464622306E+03  0.17465084062E+03  0.12700000000E+01 0.  1.
         25    2    1    2    0    0  0.00000000000E+00  0.00000000000E+00 -0.15230383548E+03  0.19702929416E+03  0.12499633777E+03 0.  0.
    9000005    1    3    3    0    0  0.27470914971E+02 -0.55949568569E+02 -0.83204028705E+02  0.10396593570E+03  0.10000000000E+01 0.  0.
    9000005    1    3    3    0    0 -0.27470914971E+02  0.55949568569E+02 -0.69099806773E+02  0.93063358463E+02  0.10000000000E+01 0.  0.
<mgrwt>
<rscale>  0 0.12499634E+03</rscale>
<asrwt>0</asrwt>
<pdfrwt beam="1">  1        4 0.55906828E-02 0.12499634E+03</pdfrwt>
<pdfrwt beam="2">  1       -4 0.43666637E-01 0.12499634E+03</pdfrwt>
<totfact> 0.16443081E+03</totfact>
</mgrwt>
</event>
<event>
 5    1  0.1435323E-002  0.1250013E+03  0.7818608E-02  0.1235067E+00
         -4   -1    0    0    0  501 -0.00000000000E+00  0.00000000000E+00  0.19497754976E+02  0.19539072371E+02  0.12700000000E+01 0.  1.
          4   -1    0    0  501    0  0.00000000000E+00 -0.00000000000E+00 -0.20009249598E+03  0.20009652632E+03  0.12700000000E+01 0.  1.
         25    2    1    2    0    0  0.00000000000E+00  0.00000000000E+00 -0.18059474100E+03  0.21963559869E+03  0.12500134294E+03 0.  0.
    9000005    1    3    3    0    0  0.13428762796E+02  0.48834226478E+02 -0.15462183746E+03  0.16270840779E+03  0.10000000000E+01 0.  0.
    9000005    1    3    3    0    0 -0.13428762796E+02 -0.48834226478E+02 -0.25972903543E+02  0.56927190905E+02  0.10000000000E+01 0.  0.
<mgrwt>
<rscale>  0 0.12500134E+03</rscale>
<asrwt>0</asrwt>
<pdfrwt beam="2">  1        4 0.50028786E-01 0.12500134E+03</pdfrwt>
<pdfrwt beam="1">  1       -4 0.48801078E-02 0.12500134E+03</pdfrwt>
<totfact> 0.15564382E+03</totfact>
</mgrwt>
</event>
<event>
 5    1  0.1435323E-002  0.1250018E+03  0.7818608E-02  0.1235066E+00
         -4   -1    0    0    0  501 -0.00000000000E+00  0.00000000000E+00  0.39705733961E+03  0.39705937067E+03  0.12700000000E+01 0. -1.
          4   -1    0    0  501    0  0.00000000000E+00 -0.00000000000E+00 -0.97952323002E+01  0.98772200449E+01  0.12700000000E+01 0. -1.
         25    2    1    2    0    0  0.00000000000E+00  0.00000000000E+00  0.38726210731E+03  0.40693659071E+03  0.12500179641E+03 0.  0.
    9000005    1    3    3    0    0 -0.48970730842E+02  0.18735580341E+02  0.82935942581E+02  0.98125047881E+02  0.10000000000E+01 0.  0.
    9000005    1    3    3    0    0  0.48970730842E+02 -0.18735580341E+02  0.30432616473E+03  0.30881154283E+03  0.10000000000E+01 0.  0.
<mgrwt>
<rscale>  0 0.12500180E+03</rscale>
<asrwt>0</asrwt>
<pdfrwt beam="2">  1        4 0.24593104E-02 0.12500180E+03</pdfrwt>
<pdfrwt beam="1">  1       -4 0.99274840E-01 0.12500180E+03</pdfrwt>
<totfact> 0.10427271E+03</totfact>
</mgrwt>
</event>
<event>
 5    1  0.1435323E-002  0.1250003E+03  0.7818608E-02  0.1235069E+00
          4   -1    0    0  501    0  0.00000000000E+00  0.00000000000E+00  0.81514665073E+01  0.82498064353E+01  0.12700000000E+01 0.  1.
         -4   -1    0    0    0  501 -0.00000000000E+00 -0.00000000000E+00 -0.47623804973E+03  0.47623974310E+03  0.12700000000E+01 0.  1.
         25    2    1    2    0    0  0.00000000000E+00  0.00000000000E+00 -0.46808658322E+03  0.48448954954E+03  0.12500029687E+03 0.  0.
    9000005    1    3    3    0    0 -0.38618732853E+02  0.12989915376E+02 -0.41769439742E+03  0.41967815533E+03  0.10000000000E+01 0.  0.
    9000005    1    3    3    0    0  0.38618732853E+02 -0.12989915376E+02 -0.50392185802E+02  0.64811394203E+02  0.10000000000E+01 0.  0.
<mgrwt>
<rscale>  0 0.12500030E+03</rscale>
<asrwt>0</asrwt>
<pdfrwt beam="1">  1        4 0.20503724E-02 0.12500030E+03</pdfrwt>
<pdfrwt beam="2">  1       -4 0.11907192E+00 0.12500030E+03</pdfrwt>
<totfact> 0.90125256E+02</totfact>
</mgrwt>
</event>
<event>
 5    1  0.1435323E-002  0.1249941E+03  0.7818608E-02  0.1235078E+00
          4   -1    0    0  501    0  0.00000000000E+00  0.00000000000E+00  0.11028948414E+04  0.11028955726E+04  0.12700000000E+01 0.  1.
         -4   -1    0    0    0  501 -0.00000000000E+00 -0.00000000000E+00 -0.34268691998E+01  0.36546316521E+01  0.12700000000E+01 0.  1.
         25    2    1    2    0    0  0.00000000000E+00  0.00000000000E+00  0.10994679722E+04  0.11065502042E+04  0.12499413051E+03 0.  0.
    9000005    1    3    3    0    0  0.60235876733E+02  0.14358933678E+02  0.47548457628E+03  0.47950090939E+03  0.10000000000E+01 0.  0.
    9000005    1    3    3    0    0 -0.60235876733E+02 -0.14358933678E+02  0.62398339588E+03  0.62704929484E+03  0.10000000000E+01 0.  0.
<mgrwt>
<rscale>  0 0.12499413E+03</rscale>
<asrwt>0</asrwt>
<pdfrwt beam="1">  1        4 0.27575235E+00 0.12499413E+03</pdfrwt>
<pdfrwt beam="2">  1       -4 0.88527876E-03 0.12499413E+03</pdfrwt>
<totfact> 0.30399407E+02</totfact>
</mgrwt>
</event>
<event>
 5    1  0.1435323E-002  0.1249997E+03  0.7818608E-02  0.1235070E+00
          4   -1    0    0  501    0  0.00000000000E+00  0.00000000000E+00  0.71938398780E+02  0.71949608192E+02  0.12700000000E+01 0.  1.
         -4   -1    0    0    0  501 -0.00000000000E+00 -0.00000000000E+00 -0.54276839517E+02  0.54291695570E+02  0.12700000000E+01 0.  1.
         25    2    1    2    0    0  0.00000000000E+00  0.00000000000E+00  0.17661559263E+02  0.12624130376E+03  0.12499974440E+03 0.  0.
    9000005    1    3    3    0    0  0.12470329518E+02  0.34537285908E+02  0.59898830781E+02  0.70265234399E+02  0.10000000000E+01 0.  0.
    9000005    1    3    3    0    0 -0.12470329518E+02 -0.34537285908E+02 -0.42237271518E+02  0.55976069364E+02  0.10000000000E+01 0.  0.
<mgrwt>
<rscale>  0 0.12499974E+03</rscale>
<asrwt>0</asrwt>
<pdfrwt beam="1">  1        4 0.17987858E-01 0.12499974E+03</pdfrwt>
<pdfrwt beam="2">  1       -4 0.13572468E-01 0.12499974E+03</pdfrwt>
<totfact> 0.19768004E+03</totfact>
</mgrwt>
</event>
<event>
 5    1  0.1435323E-002  0.1250004E+03  0.7818608E-02  0.1235069E+00
          4   -1    0    0  501    0  0.00000000000E+00  0.00000000000E+00  0.70162664960E+02  0.70174158023E+02  0.12700000000E+01 0. -1.
         -4   -1    0    0    0  501 -0.00000000000E+00 -0.00000000000E+00 -0.55651290873E+02  0.55665780115E+02  0.12700000000E+01 0. -1.
         25    2    1    2    0    0  0.00000000000E+00  0.00000000000E+00  0.14511374087E+02  0.12583993814E+03  0.12500044021E+03 0.  0.
    9000005    1    3    3    0    0  0.26637983412E+02  0.49305312920E+02 -0.20582903098E+02  0.59709730717E+02  0.10000000000E+01 0.  0.
    9000005    1    3    3    0    0 -0.26637983412E+02 -0.49305312920E+02  0.35094277185E+02  0.66130207421E+02  0.10000000000E+01 0.  0.
<mgrwt>
<rscale>  0 0.12500044E+03</rscale>
<asrwt>0</asrwt>
<pdfrwt beam="1">  1        4 0.17543914E-01 0.12500044E+03</pdfrwt>
<pdfrwt beam="2">  1       -4 0.13916071E-01 0.12500044E+03</pdfrwt>
<totfact> 0.19789368E+03</totfact>
</mgrwt>
</event>
<event>
 5    1  0.1435323E-002  0.1250232E+03  0.7818608E-02  0.1235033E+00
         -4   -1    0    0    0  501 -0.00000000000E+00  0.00000000000E+00  0.14260627391E+03  0.14261192888E+03  0.12700000000E+01 0. -1.
          4   -1    0    0  501    0  0.00000000000E+00 -0.00000000000E+00 -0.27381090698E+02  0.27410527682E+02  0.12700000000E+01 0. -1.
         25    2    1    2    0    0  0.00000000000E+00  0.00000000000E+00  0.11522518321E+03  0.17002245656E+03  0.12502316941E+03 0.  0.
    9000005    1    3    3    0    0  0.25744484960E+02 -0.34133991878E+02 -0.43916107326E+01  0.42990628656E+02  0.10000000000E+01 0.  0.
    9000005    1    3    3    0    0 -0.25744484960E+02  0.34133991878E+02  0.11961679395E+03  0.12703182791E+03  0.10000000000E+01 0.  0.
<mgrwt>
<rscale>  0 0.12502317E+03</rscale>
<asrwt>0</asrwt>
<pdfrwt beam="2">  1        4 0.68496592E-02 0.12502317E+03</pdfrwt>
<pdfrwt beam="1">  1       -4 0.35655955E-01 0.12502317E+03</pdfrwt>
<totfact> 0.17586574E+03</totfact>
</mgrwt>
</event>
<event>
 5    1  0.1435323E-002  0.1249866E+03  0.7818608E-02  0.1235090E+00
          4   -1    0    0  501    0  0.00000000000E+00  0.00000000000E+00  0.15673008017E+02  0.15724378534E+02  0.12700000000E+01 0. -1.
         -4   -1    0    0    0  501 -0.00000000000E+00 -0.00000000000E+00 -0.24872020058E+03  0.24872344296E+03  0.12700000000E+01 0. -1.
         25    2    1    2    0    0  0.00000000000E+00  0.00000000000E+00 -0.23304719256E+03  0.26444782149E+03  0.12498662460E+03 0.  0.
    9000005    1    3    3    0    0  0.39779558322E+02 -0.32547252077E+02 -0.41340081634E+02  0.65967713524E+02  0.10000000000E+01 0.  0.
    9000005    1    3    3    0    0 -0.39779558322E+02  0.32547252077E+02 -0.19170711093E+03  0.19848010797E+03  0.10000000000E+01 0.  0.
<mgrwt>
<rscale>  0 0.12498662E+03</rscale>
<asrwt>0</asrwt>
<pdfrwt beam="1">  1        4 0.39250794E-02 0.12498662E+03</pdfrwt>
<pdfrwt beam="2">  1       -4 0.62186864E-01 0.12498662E+03</pdfrwt>
<totfact> 0.14033745E+03</totfact>
</mgrwt>
</event>
<event>
 5    1  0.1435323E-002  0.1249996E+03  0.7818608E-02  0.1235070E+00
         -4   -1    0    0    0  501 -0.00000000000E+00  0.00000000000E+00  0.71020388337E+02  0.71031742619E+02  0.12700000000E+01 0. -1.
          4   -1    0    0  501    0  0.00000000000E+00 -0.00000000000E+00 -0.54978355447E+02  0.54993021990E+02  0.12700000000E+01 0. -1.
         25    2    1    2    0    0  0.00000000000E+00  0.00000000000E+00  0.16042032891E+02  0.12602476461E+03  0.12499957790E+03 0.  0.
    9000005    1    3    3    0    0  0.48582773698E+02  0.36651819809E+02 -0.62933797367E+01  0.61190264128E+02  0.10000000000E+01 0.  0.
    9000005    1    3    3    0    0 -0.48582773698E+02 -0.36651819809E+02  0.22335412627E+02  0.64834500482E+02  0.10000000000E+01 0.  0.
<mgrwt>
<rscale>  0 0.12499958E+03</rscale>
<asrwt>0</asrwt>
<pdfrwt beam="2">  1        4 0.13747842E-01 0.12499958E+03</pdfrwt>
<pdfrwt beam="1">  1       -4 0.17758350E-01 0.12499958E+03</pdfrwt>
<totfact> 0.19779777E+03</totfact>
</mgrwt>
</event>
<event>
 5    1  0.1435323E-002  0.1250062E+03  0.7818608E-02  0.1235060E+00
         -4   -1    0    0    0  501 -0.00000000000E+00  0.00000000000E+00  0.78662685826E+02  0.78672937160E+02  0.12700000000E+01 0.  1.
          4   -1    0    0  501    0  0.00000000000E+00 -0.00000000000E+00 -0.49641539776E+02  0.49657782586E+02  0.12700000000E+01 0.  1.
         25    2    1    2    0    0  0.00000000000E+00  0.00000000000E+00  0.29021146050E+02  0.12833071975E+03  0.12500618670E+03 0.  0.
    9000005    1    3    3    0    0  0.24923848576E+02  0.34149205113E+02 -0.32738120595E+02  0.53480379372E+02  0.10000000000E+01 0.  0.
    9000005    1    3    3    0    0 -0.24923848576E+02 -0.34149205113E+02  0.61759266644E+02  0.74850340374E+02  0.10000000000E+01 0.  0.
<mgrwt>
<rscale>  0 0.12500619E+03</rscale>
<asrwt>0</asrwt>
<pdfrwt beam="2">  1        4 0.12413697E-01 0.12500619E+03</pdfrwt>
<pdfrwt beam="1">  1       -4 0.19668983E-01 0.12500619E+03</pdfrwt>
<totfact> 0.19651721E+03</totfact>
</mgrwt>
</event>
<event>
 5    1  0.1435323E-002  0.1249968E+03  0.7818608E-02  0.1235074E+00
         -4   -1    0    0    0  501 -0.00000000000E+00  0.00000000000E+00  0.14043160511E+03  0.14043734765E+03  0.12700000000E+01 0. -1.
          4   -1    0    0  501    0  0.00000000000E+00 -0.00000000000E+00 -0.27793780550E+02  0.27822780904E+02  0.12700000000E+01 0. -1.
         25    2    1    2    0    0  0.00000000000E+00  0.00000000000E+00  0.11263782456E+03  0.16826012855E+03  0.12499676531E+03 0.  0.
    9000005    1    3    3    0    0  0.53752057630E+02 -0.31341379469E+01  0.13624723649E+02  0.55549433973E+02  0.10000000000E+01 0.  0.
    9000005    1    3    3    0    0 -0.53752057630E+02  0.31341379469E+01  0.99013100916E+02  0.11271069458E+03  0.10000000000E+01 0.  0.
<mgrwt>
<rscale>  0 0.12499677E+03</rscale>
<asrwt>0</asrwt>
<pdfrwt beam="2">  1        4 0.69527882E-02 0.12499677E+03</pdfrwt>
<pdfrwt beam="1">  1       -4 0.35112243E-01 0.12499677E+03</pdfrwt>
<totfact> 0.17677137E+03</totfact>
</mgrwt>
</event>
<event>
 5    1  0.1435323E-002  0.1249973E+03  0.7818608E-02  0.1235073E+00
         -4   -1    0    0    0  501 -0.00000000000E+00  0.00000000000E+00  0.47384758987E+02  0.47401775117E+02  0.12700000000E+01 0. -1.
          4   -1    0    0  501    0  0.00000000000E+00 -0.00000000000E+00 -0.82396593333E+02  0.82406380171E+02  0.12700000000E+01 0. -1.
         25    2    1    2    0    0  0.00000000000E+00  0.00000000000E+00 -0.35011834346E+02  0.12980815529E+03  0.12499731451E+03 0.  0.
    9000005    1    3    3    0    0  0.27740471585E+02  0.49988000832E+02 -0.43710976521E+02  0.71972101952E+02  0.10000000000E+01 0.  0.
    9000005    1    3    3    0    0 -0.27740471585E+02 -0.49988000832E+02  0.86991421748E+01  0.57836053336E+02  0.10000000000E+01 0.  0.
<mgrwt>
<rscale>  0 0.12499731E+03</rscale>
<asrwt>0</asrwt>
<pdfrwt beam="2">  1        4 0.20602499E-01 0.12499731E+03</pdfrwt>
<pdfrwt beam="1">  1       -4 0.11849540E-01 0.12499731E+03</pdfrwt>
<totfact> 0.19575928E+03</totfact>
</mgrwt>
</event>
<event>
 5    1  0.1435323E-002  0.1250008E+03  0.7818608E-02  0.1235068E+00
          4   -1    0    0  501    0  0.00000000000E+00  0.00000000000E+00  0.18459796640E+03  0.18460233503E+03  0.12700000000E+01 0. -1.
         -4   -1    0    0    0  501 -0.00000000000E+00 -0.00000000000E+00 -0.21137441166E+02  0.21175559474E+02  0.12700000000E+01 0. -1.
         25    2    1    2    0    0  0.00000000000E+00  0.00000000000E+00  0.16346052523E+03  0.20577789450E+03  0.12500079422E+03 0.  0.
    9000005    1    3    3    0    0  0.45351198011E+02 -0.37977827808E+02  0.48549659451E+02  0.76531797306E+02  0.10000000000E+01 0.  0.
    9000005    1    3    3    0    0 -0.45351198011E+02  0.37977827808E+02  0.11491086578E+03  0.12924609720E+03  0.10000000000E+01 0.  0.
<mgrwt>
<rscale>  0 0.12500079E+03</rscale>
<asrwt>0</asrwt>
<pdfrwt beam="1">  1        4 0.46154802E-01 0.12500079E+03</pdfrwt>
<pdfrwt beam="2">  1       -4 0.52896712E-02 0.12500079E+03</pdfrwt>
<totfact> 0.16092975E+03</totfact>
</mgrwt>
</event>
<event>
 5    1  0.1435323E-002  0.1250005E+03  0.7818608E-02  0.1235069E+00
          4   -1    0    0  501    0  0.00000000000E+00  0.00000000000E+00  0.10036927722E+03  0.10037731172E+03  0.12700000000E+01 0.  1.
         -4   -1    0    0    0  501 -0.00000000000E+00 -0.00000000000E+00 -0.38899115740E+02  0.38919842052E+02  0.12700000000E+01 0.  1.
         25    2    1    2    0    0  0.00000000000E+00  0.00000000000E+00  0.61470161476E+02  0.13929715378E+03  0.12500046519E+03 0.  0.
    9000005    1    3    3    0    0 -0.14894123713E+02  0.25773376969E+02  0.91966582987E+02  0.96669303649E+02  0.10000000000E+01 0.  0.
    9000005    1    3    3    0    0  0.14894123713E+02 -0.25773376969E+02 -0.30496421511E+02  0.42627850128E+02  0.10000000000E+01 0.  0.
<mgrwt>
<rscale>  0 0.12500047E+03</rscale>
<asrwt>0</asrwt>
<pdfrwt beam="1">  1        4 0.25095914E-01 0.12500047E+03</pdfrwt>
<pdfrwt beam="2">  1       -4 0.97283741E-02 0.12500047E+03</pdfrwt>
<totfact> 0.19076149E+03</totfact>
</mgrwt>
</event>
<event>
 5    1  0.1435323E-002  0.1250005E+03  0.7818608E-02  0.1235069E+00
         -4   -1    0    0    0  501 -0.00000000000E+00  0.00000000000E+00  0.46190762161E+03  0.46190936752E+03  0.12700000000E+01 0. -1.
          4   -1    0    0  501    0  0.00000000000E+00 -0.00000000000E+00 -0.84073910259E+01  0.85027715401E+01  0.12700000000E+01 0. -1.
         25    2    1    2    0    0  0.00000000000E+00  0.00000000000E+00  0.45350023058E+03  0.47041213906E+03  0.12500048573E+03 0.  0.
    9000005    1    3    3    0    0 -0.13487028519E+02  0.43735474584E+02  0.38688159633E+03  0.38958062227E+03  0.10000000000E+01 0.  0.
    9000005    1    3    3    0    0  0.13487028519E+02 -0.43735474584E+02  0.66618634257E+02  0.80831516784E+02  0.10000000000E+01 0.  0.
<mgrwt>
<rscale>  0 0.12500049E+03</rscale>
<asrwt>0</asrwt>
<pdfrwt beam="2">  1        4 0.21139886E-02 0.12500049E+03</pdfrwt>
<pdfrwt beam="1">  1       -4 0.11548905E+00 0.12500049E+03</pdfrwt>
<totfact> 0.92463240E+02</totfact>
</mgrwt>
</event>
<event>
 5    1  0.1435323E-002  0.1249694E+03  0.7818608E-02  0.1235117E+00
         -4   -1    0    0    0  501 -0.00000000000E+00  0.00000000000E+00  0.67162092222E+03  0.67162212298E+03  0.12700000000E+01 0.  1.
          4   -1    0    0  501    0  0.00000000000E+00 -0.00000000000E+00 -0.57427228637E+01  0.58814765059E+01  0.12700000000E+01 0.  1.
         25    2    1    2    0    0  0.00000000000E+00  0.00000000000E+00  0.66587819936E+03  0.67750359948E+03  0.12496939996E+03 0.  0.
    9000005    1    3    3    0    0 -0.66471430821E+01 -0.53140948516E+02  0.15851015790E+03  0.16731591400E+03  0.10000000000E+01 0.  0.
    9000005    1    3    3    0    0  0.66471430821E+01  0.53140948516E+02  0.50736804146E+03  0.51018768548E+03  0.10000000000E+01 0.  0.
<mgrwt>
<rscale>  0 0.12496940E+03</rscale>
<asrwt>0</asrwt>
<pdfrwt beam="2">  1        4 0.14531754E-02 0.12496940E+03</pdfrwt>
<pdfrwt beam="1">  1       -4 0.16792268E+00 0.12496940E+03</pdfrwt>
<totfact> 0.64494408E+02</totfact>
</mgrwt>
</event>
<event>
 5    1  0.1435323E-002  0.1250002E+03  0.7818608E-02  0.1235069E+00
          4   -1    0    0  501    0  0.00000000000E+00  0.00000000000E+00  0.55134565210E+03  0.55134711479E+03  0.12700000000E+01 0.  1.
         -4   -1    0    0    0  501 -0.00000000000E+00 -0.00000000000E+00 -0.70265603757E+01  0.71404097020E+01  0.12700000000E+01 0.  1.
         25    2    1    2    0    0  0.00000000000E+00  0.00000000000E+00  0.54431909172E+03  0.55848752449E+03  0.12500016560E+03 0.  0.
    9000005    1    3    3    0    0 -0.40666598084E+01  0.61209113649E+02  0.32543195529E+03  0.33116468840E+03  0.10000000000E+01 0.  0.
    9000005    1    3    3    0    0  0.40666598084E+01 -0.61209113649E+02  0.21888713643E+03  0.22732283609E+03  0.10000000000E+01 0.  0.
<mgrwt>
<rscale>  0 0.12500017E+03</rscale>
<asrwt>0</asrwt>
<pdfrwt beam="1">  1        4 0.13785083E+00 0.12500017E+03</pdfrwt>
<pdfrwt beam="2">  1       -4 0.17710540E-02 0.12500017E+03</pdfrwt>
<totfact> 0.78986575E+02</totfact>
</mgrwt>
</event>
<event>
 5    1  0.1435323E-002  0.1250030E+03  0.7818608E-02  0.1235065E+00
         -4   -1    0    0    0  501 -0.00000000000E+00  0.00000000000E+00  0.76502983650E+02  0.76513524343E+02  0.12700000000E+01 0.  1.
          4   -1    0    0  501    0  0.00000000000E+00 -0.00000000000E+00 -0.51040623499E+02  0.51056421214E+02  0.12700000000E+01 0.  1.
         25    2    1    2    0    0  0.00000000000E+00  0.00000000000E+00  0.25462360151E+02  0.12756994556E+03  0.12500303686E+03 0.  0.
    9000005    1    3    3    0    0  0.82892584192E+01 -0.86668320958E+01 -0.49860256802E+02  0.51292016846E+02  0.10000000000E+01 0.  0.
    9000005    1    3    3    0    0 -0.82892584192E+01  0.86668320958E+01  0.75322616954E+02  0.76277928711E+02  0.10000000000E+01 0.  0.
<mgrwt>
<rscale>  0 0.12500304E+03</rscale>
<asrwt>0</asrwt>
<pdfrwt beam="2">  1        4 0.12763448E-01 0.12500304E+03</pdfrwt>
<pdfrwt beam="1">  1       -4 0.19129038E-01 0.12500304E+03</pdfrwt>
<totfact> 0.19694571E+03</totfact>
</mgrwt>
</event>
<event>
 5    1  0.1435323E-002  0.1250091E+03  0.7818608E-02  0.1235055E+00
          4   -1    0    0  501    0  0.00000000000E+00  0.00000000000E+00  0.97018916099E+02  0.97027228040E+02  0.12700000000E+01 0.  1.
         -4   -1    0    0    0  501 -0.00000000000E+00 -0.00000000000E+00 -0.40248547254E+02  0.40268579018E+02  0.12700000000E+01 0.  1.
         25    2    1    2    0    0  0.00000000000E+00  0.00000000000E+00  0.56770368845E+02  0.13729580706E+03  0.12500905510E+03 0.  0.
    9000005    1    3    3    0    0 -0.16114270092E+02 -0.55614807107E+02  0.54215703632E+02  0.79328550916E+02  0.10000000000E+01 0.  0.
    9000005    1    3    3    0    0  0.16114270092E+02  0.55614807107E+02  0.25546652126E+01  0.57967256141E+02  0.10000000000E+01 0.  0.
<mgrwt>
<rscale>  0 0.12500906E+03</rscale>
<asrwt>0</asrwt>
<pdfrwt beam="1">  1        4 0.24258272E-01 0.12500906E+03</pdfrwt>
<pdfrwt beam="2">  1       -4 0.10065680E-01 0.12500906E+03</pdfrwt>
<totfact> 0.19175500E+03</totfact>
</mgrwt>
</event>
<event>
 5    1  0.1435323E-002  0.1250054E+03  0.7818608E-02  0.1235061E+00
          4   -1    0    0  501    0  0.00000000000E+00  0.00000000000E+00  0.37757839460E+01  0.39836471238E+01  0.12700000000E+01 0.  1.
         -4   -1    0    0    0  501 -0.00000000000E+00 -0.00000000000E+00 -0.10067184672E+04  0.10067192683E+04  0.12700000000E+01 0.  1.
         25    2    1    2    0    0  0.00000000000E+00  0.00000000000E+00 -0.10029426833E+04  0.10107029154E+04  0.12500542904E+03 0.  0.
    9000005    1    3    3    0    0  0.46511559248E+01 -0.37714145433E+02 -0.90261813391E+03  0.90341822301E+03  0.10000000000E+01 0.  0.
    9000005    1    3    3    0    0 -0.46511559248E+01  0.37714145433E+02 -0.10032454938E+03  0.10728469241E+03  0.10000000000E+01 0.  0.
<mgrwt>
<rscale>  0 0.12500543E+03</rscale>
<asrwt>0</asrwt>
<pdfrwt beam="1">  1        4 0.97003246E-03 0.12500543E+03</pdfrwt>
<pdfrwt beam="2">  1       -4 0.25170481E+00 0.12500543E+03</pdfrwt>
<totfact> 0.36389593E+02</totfact>
</mgrwt>
</event>
<event>
 5    1  0.1435323E-002  0.1249779E+03  0.7818608E-02  0.1235104E+00
          4   -1    0    0  501    0  0.00000000000E+00  0.00000000000E+00  0.59469024345E+02  0.59482583641E+02  0.12700000000E+01 0.  1.
         -4   -1    0    0    0  501 -0.00000000000E+00 -0.00000000000E+00 -0.65635094673E+02  0.65647380395E+02  0.12700000000E+01 0.  1.
         25    2    1    2    0    0  0.00000000000E+00  0.00000000000E+00 -0.61660703271E+01  0.12512996404E+03  0.12497794796E+03 0.  0.
    9000005    1    3    3    0    0  0.56068993961E+02  0.21242438489E+02  0.14513853842E+02  0.61697854340E+02  0.10000000000E+01 0.  0.
    9000005    1    3    3    0    0 -0.56068993961E+02 -0.21242438489E+02 -0.20679924169E+02  0.63432109696E+02  0.10000000000E+01 0.  0.
<mgrwt>
<rscale>  0 0.12497795E+03</rscale>
<asrwt>0</asrwt>
<pdfrwt beam="1">  1        4 0.14870487E-01 0.12497795E+03</pdfrwt>
<pdfrwt beam="2">  1       -4 0.16412004E-01 0.12497795E+03</pdfrwt>
<totfact> 0.19838243E+03</totfact>
</mgrwt>
</event>
<event>
 5    1  0.1435323E-002  0.1249946E+03  0.7818608E-02  0.1235078E+00
         -4   -1    0    0    0  501 -0.00000000000E+00  0.00000000000E+00  0.91079338067E+02  0.91088192004E+02  0.12700000000E+01 0. -1.
          4   -1    0    0  501    0  0.00000000000E+00 -0.00000000000E+00 -0.42864352729E+02  0.42883162604E+02  0.12700000000E+01 0. -1.
         25    2    1    2    0    0  0.00000000000E+00  0.00000000000E+00  0.48214985337E+02  0.13397135461E+03  0.12499455606E+03 0.  0.
    9000005    1    3    3    0    0 -0.13690179434E+02  0.60876653631E+02  0.27745644712E+02  0.68295012780E+02  0.10000000000E+01 0.  0.
    9000005    1    3    3    0    0  0.13690179434E+02 -0.60876653631E+02  0.20469340626E+02  0.65676341828E+02  0.10000000000E+01 0.  0.
<mgrwt>
<rscale>  0 0.12499456E+03</rscale>
<asrwt>0</asrwt>
<pdfrwt beam="2">  1        4 0.10719546E-01 0.12499456E+03</pdfrwt>
<pdfrwt beam="1">  1       -4 0.22773292E-01 0.12499456E+03</pdfrwt>
<totfact> 0.19355611E+03</totfact>
</mgrwt>
</event>
<event>
 5    1  0.1435323E-002  0.1249994E+03  0.7818608E-02  0.1235070E+00
          4   -1    0    0  501    0  0.00000000000E+00  0.00000000000E+00  0.28200769484E+03  0.28201055450E+03  0.12700000000E+01 0. -1.
         -4   -1    0    0    0  501 -0.00000000000E+00 -0.00000000000E+00 -0.13819392151E+02  0.13877625857E+02  0.12700000000E+01 0. -1.
         25    2    1    2    0    0  0.00000000000E+00  0.00000000000E+00  0.26818830269E+03  0.29588818036E+03  0.12499939830E+03 0.  0.
    9000005    1    3    3    0    0  0.38968571508E+01  0.13935521502E+02  0.27799905014E+03  0.27837718322E+03  0.10000000000E+01 0.  0.
    9000005    1    3    3    0    0 -0.38968571508E+01 -0.13935521502E+02 -0.98107474548E+01  0.17510997139E+02  0.10000000000E+01 0.  0.
<mgrwt>
<rscale>  0 0.12499940E+03</rscale>
<asrwt>0</asrwt>
<pdfrwt beam="1">  1        4 0.70509561E-01 0.12499940E+03</pdfrwt>
<pdfrwt beam="2">  1       -4 0.34624847E-02 0.12499940E+03</pdfrwt>
<totfact> 0.13087265E+03</totfact>
</mgrwt>
</event>
<event>
 5    1  0.1435323E-002  0.1250015E+03  0.7818608E-02  0.1235067E+00
          4   -1    0    0  501    0  0.00000000000E+00  0.00000000000E+00  0.69265262249E+02  0.69276904192E+02  0.12700000000E+01 0. -1.
         -4   -1    0    0    0  501 -0.00000000000E+00 -0.00000000000E+00 -0.56373335475E+02  0.56387639182E+02  0.12700000000E+01 0. -1.
         25    2    1    2    0    0  0.00000000000E+00  0.00000000000E+00  0.12891926775E+02  0.12566454337E+03  0.12500150273E+03 0.  0.
    9000005    1    3    3    0    0  0.25281338903E+02  0.52699055389E+02 -0.15784843841E+02  0.60551612949E+02  0.10000000000E+01 0.  0.
    9000005    1    3    3    0    0 -0.25281338903E+02 -0.52699055389E+02  0.28676770616E+02  0.65112930425E+02  0.10000000000E+01 0.  0.
<mgrwt>
<rscale>  0 0.12500150E+03</rscale>
<asrwt>0</asrwt>
<pdfrwt beam="1">  1        4 0.17319559E-01 0.12500150E+03</pdfrwt>
<pdfrwt beam="2">  1       -4 0.14096577E-01 0.12500150E+03</pdfrwt>
<totfact> 0.19798362E+03</totfact>
</mgrwt>
</event>
<event>
 5    1  0.1435323E-002  0.1250003E+03  0.7818608E-02  0.1235069E+00
         -4   -1    0    0    0  501 -0.00000000000E+00  0.00000000000E+00  0.63321742117E+02  0.63334476588E+02  0.12700000000E+01 0.  1.
          4   -1    0    0  501    0  0.00000000000E+00 -0.00000000000E+00 -0.61663749473E+02  0.61676826273E+02  0.12700000000E+01 0.  1.
         25    2    1    2    0    0  0.00000000000E+00  0.00000000000E+00  0.16579926435E+01  0.12501130286E+03  0.12500030761E+03 0.  0.
    9000005    1    3    3    0    0 -0.47999621160E+02  0.78954035040E+01 -0.38404139551E+02  0.61985312476E+02  0.10000000000E+01 0.  0.
    9000005    1    3    3    0    0  0.47999621160E+02 -0.78954035040E+01  0.40062132195E+02  0.63025990385E+02  0.10000000000E+01 0.  0.
<mgrwt>
<rscale>  0 0.12500031E+03</rscale>
<asrwt>0</asrwt>
<pdfrwt beam="2">  1        4 0.15419164E-01 0.12500031E+03</pdfrwt>
<pdfrwt beam="1">  1       -4 0.15833662E-01 0.12500031E+03</pdfrwt>
<totfact> 0.19834300E+03</totfact>
</mgrwt>
</event>
<event>
 5    1  0.1435323E-002  0.1250027E+03  0.7818608E-02  0.1235065E+00
          4   -1    0    0  501    0  0.00000000000E+00  0.00000000000E+00  0.93742646836E+01  0.94599016040E+01  0.12700000000E+01 0.  1.
         -4   -1    0    0    0  501 -0.00000000000E+00 -0.00000000000E+00 -0.41473590310E+03  0.41473784758E+03  0.12700000000E+01 0.  1.
         25    2    1    2    0    0  0.00000000000E+00  0.00000000000E+00 -0.40536163841E+03  0.42419774919E+03  0.12500269004E+03 0.  0.
    9000005    1    3    3    0    0 -0.34244558486E+02  0.18647259739E+02 -0.36953568746E+02  0.53730590214E+02  0.10000000000E+01 0.  0.
    9000005    1    3    3    0    0  0.34244558486E+02 -0.18647259739E+02 -0.36840806967E+03  0.37046715897E+03  0.10000000000E+01 0.  0.
<mgrwt>
<rscale>  0 0.12500269E+03</rscale>
<asrwt>0</asrwt>
<pdfrwt beam="1">  1        4 0.23545152E-02 0.12500269E+03</pdfrwt>
<pdfrwt beam="2">  1       -4 0.10369486E+00 0.12500269E+03</pdfrwt>
<totfact> 0.10083368E+03</totfact>
</mgrwt>
</event>
<event>
 5    1  0.1435323E-002  0.1250024E+03  0.7818608E-02  0.1235066E+00
          4   -1    0    0  501    0  0.00000000000E+00  0.00000000000E+00  0.28935562475E+02  0.28963419614E+02  0.12700000000E+01 0. -1.
         -4   -1    0    0    0  501 -0.00000000000E+00 -0.00000000000E+00 -0.13490757455E+03  0.13491355222E+03  0.12700000000E+01 0. -1.
         25    2    1    2    0    0  0.00000000000E+00  0.00000000000E+00 -0.10597201208E+03  0.16387697183E+03  0.12500237819E+03 0.  0.
    9000005    1    3    3    0    0  0.60674110676E+01  0.28721077097E+02 -0.12531284738E+03  0.12870906520E+03  0.10000000000E+01 0.  0.
    9000005    1    3    3    0    0 -0.60674110676E+01 -0.28721077097E+02  0.19340835300E+02  0.35167906631E+02  0.10000000000E+01 0.  0.
<mgrwt>
<rscale>  0 0.12500238E+03</rscale>
<asrwt>0</asrwt>
<pdfrwt beam="1">  1        4 0.72381203E-02 0.12500238E+03</pdfrwt>
<pdfrwt beam="2">  1       -4 0.33731121E-01 0.12500238E+03</pdfrwt>
<totfact> 0.17875823E+03</totfact>
</mgrwt>
</event>
<event>
 5    1  0.1435323E-002  0.1249990E+03  0.7818608E-02  0.1235071E+00
         -4   -1    0    0    0  501 -0.00000000000E+00  0.00000000000E+00  0.11169174651E+03  0.11169896660E+03  0.12700000000E+01 0. -1.
          4   -1    0    0  501    0  0.00000000000E+00 -0.00000000000E+00 -0.34953064346E+02  0.34976129105E+02  0.12700000000E+01 0. -1.
         25    2    1    2    0    0  0.00000000000E+00  0.00000000000E+00  0.76738682168E+02  0.14667509570E+03  0.12499903343E+03 0.  0.
    9000005    1    3    3    0    0 -0.18933614237E+02  0.36658582796E+02  0.93442855915E+02  0.10215136202E+03  0.10000000000E+01 0.  0.
    9000005    1    3    3    0    0  0.18933614237E+02 -0.36658582796E+02 -0.16704173747E+02  0.44523733685E+02  0.10000000000E+01 0.  0.
<mgrwt>
<rscale>  0 0.12499903E+03</rscale>
<asrwt>0</asrwt>
<pdfrwt beam="2">  1        4 0.87420517E-02 0.12499903E+03</pdfrwt>
<pdfrwt beam="1">  1       -4 0.27926722E-01 0.12499903E+03</pdfrwt>
<totfact> 0.18703905E+03</totfact>
</mgrwt>
</event>
<event>
 5    1  0.1435323E-002  0.1250016E+03  0.7818608E-02  0.1235067E+00
         -4   -1    0    0    0  501 -0.00000000000E+00  0.00000000000E+00  0.71309533497E+02  0.71320841747E+02  0.12700000000E+01 0.  1.
          4   -1    0    0  501    0  0.00000000000E+00 -0.00000000000E+00 -0.54757171896E+02  0.54771897667E+02  0.12700000000E+01 0.  1.
         25    2    1    2    0    0  0.00000000000E+00  0.00000000000E+00  0.16552361601E+02  0.12609273941E+03  0.12500159302E+03 0.  0.
    9000005    1    3    3    0    0  0.20227074500E+02 -0.58072626587E+02 -0.29468112018E+01  0.61573112621E+02  0.10000000000E+01 0.  0.
    9000005    1    3    3    0    0 -0.20227074500E+02  0.58072626587E+02  0.19499172803E+02  0.64519626793E+02  0.10000000000E+01 0.  0.
<mgrwt>
<rscale>  0 0.12500159E+03</rscale>
<asrwt>0</asrwt>
<pdfrwt beam="2">  1        4 0.13692547E-01 0.12500159E+03</pdfrwt>
<pdfrwt beam="1">  1       -4 0.17830638E-01 0.12500159E+03</pdfrwt>
<totfact> 0.19775172E+03</totfact>
</mgrwt>
</event>
<event>
 5    1  0.1435323E-002  0.1250014E+03  0.7818608E-02  0.1235067E+00
         -4   -1    0    0    0  501 -0.00000000000E+00  0.00000000000E+00  0.10896389158E+03  0.10897129241E+03  0.12700000000E+01 0. -1.
          4   -1    0    0  501    0  0.00000000000E+00 -0.00000000000E+00 -0.35829957444E+02  0.35852458080E+02  0.12700000000E+01 0. -1.
         25    2    1    2    0    0  0.00000000000E+00  0.00000000000E+00  0.73133934139E+02  0.14482375049E+03  0.12500138552E+03 0.  0.
    9000005    1    3    3    0    0  0.80396349096E+01 -0.31564487933E+02  0.98357092162E+02  0.10361500956E+03  0.10000000000E+01 0.  0.
    9000005    1    3    3    0    0 -0.80396349096E+01  0.31564487933E+02 -0.25223158023E+02  0.41208740925E+02  0.10000000000E+01 0.  0.
<mgrwt>
<rscale>  0 0.12500139E+03</rscale>
<asrwt>0</asrwt>
<pdfrwt beam="2">  1        4 0.89612271E-02 0.12500139E+03</pdfrwt>
<pdfrwt beam="1">  1       -4 0.27244710E-01 0.12500139E+03</pdfrwt>
<totfact> 0.18795597E+03</totfact>
</mgrwt>
</event>
<event>
 5    1  0.1435323E-002  0.1249965E+03  0.7818608E-02  0.1235075E+00
         -4   -1    0    0    0  501 -0.00000000000E+00  0.00000000000E+00  0.28223656523E+03  0.28223942257E+03  0.12700000000E+01 0.  1.
          4   -1    0    0  501    0  0.00000000000E+00 -0.00000000000E+00 -0.13807499801E+02  0.13865783453E+02  0.12700000000E+01 0.  1.
         25    2    1    2    0    0  0.00000000000E+00  0.00000000000E+00  0.26842906543E+03  0.29610520602E+03  0.12499651942E+03 0.  0.
    9000005    1    3    3    0    0  0.12670101204E+02 -0.26386406684E+02  0.26500437707E+03  0.26661787972E+03  0.10000000000E+01 0.  0.
    9000005    1    3    3    0    0 -0.12670101204E+02  0.26386406684E+02  0.34246883643E+01  0.29487326305E+02  0.10000000000E+01 0.  0.
<mgrwt>
<rscale>  0 0.12499652E+03</rscale>
<asrwt>0</asrwt>
<pdfrwt beam="2">  1        4 0.34595177E-02 0.12499652E+03</pdfrwt>
<pdfrwt beam="1">  1       -4 0.70566782E-01 0.12499652E+03</pdfrwt>
<totfact> 0.13081965E+03</totfact>
</mgrwt>
</event>
<event>
 5    1  0.1435323E-002  0.1250004E+03  0.7818608E-02  0.1235069E+00
         -4   -1    0    0    0  501 -0.00000000000E+00  0.00000000000E+00  0.39048585477E+02  0.39069232495E+02  0.12700000000E+01 0. -1.
          4   -1    0    0  501    0  0.00000000000E+00 -0.00000000000E+00 -0.99985092460E+02  0.99993157837E+02  0.12700000000E+01 0. -1.
         25    2    1    2    0    0  0.00000000000E+00  0.00000000000E+00 -0.60936506984E+02  0.13906239033E+03  0.12500036209E+03 0.  0.
    9000005    1    3    3    0    0  0.13265437691E+02  0.48888397590E+02  0.10244010483E+02  0.51691266253E+02  0.10000000000E+01 0.  0.
    9000005    1    3    3    0    0 -0.13265437691E+02 -0.48888397590E+02 -0.71180517466E+02  0.87371124079E+02  0.10000000000E+01 0.  0.
<mgrwt>
<rscale>  0 0.12500036E+03</rscale>
<asrwt>0</asrwt>
<pdfrwt beam="2">  1        4 0.24999862E-01 0.12500036E+03</pdfrwt>
<pdfrwt beam="1">  1       -4 0.97657356E-02 0.12500036E+03</pdfrwt>
<totfact> 0.19088251E+03</totfact>
</mgrwt>
</event>
<event>
 5    1  0.1435323E-002  0.1250064E+03  0.7818608E-02  0.1235059E+00
         -4   -1    0    0    0  501 -0.00000000000E+00  0.00000000000E+00  0.21523619176E+03  0.21523993854E+03  0.12700000000E+01 0. -1.
          4   -1    0    0  501    0  0.00000000000E+00 -0.00000000000E+00 -0.18124402356E+02  0.18168843132E+02  0.12700000000E+01 0. -1.
         25    2    1    2    0    0  0.00000000000E+00  0.00000000000E+00  0.19711178941E+03  0.23340878168E+03  0.12500640720E+03 0.  0.
    9000005    1    3    3    0    0 -0.18363072410E+02 -0.47371573021E+02  0.30605564772E+02  0.59320898121E+02  0.10000000000E+01 0.  0.
    9000005    1    3    3    0    0  0.18363072410E+02  0.47371573021E+02  0.16650622464E+03  0.17408788356E+03  0.10000000000E+01 0.  0.
<mgrwt>
<rscale>  0 0.12500641E+03</rscale>
<asrwt>0</asrwt>
<pdfrwt beam="2">  1        4 0.45371242E-02 0.12500641E+03</pdfrwt>
<pdfrwt beam="1">  1       -4 0.53815070E-01 0.12500641E+03</pdfrwt>
<totfact> 0.15064044E+03</totfact>
</mgrwt>
</event>
<event>
 5    1  0.1435323E-002  0.1249908E+03  0.7818608E-02  0.1235084E+00
         -4   -1    0    0    0  501 -0.00000000000E+00  0.00000000000E+00  0.20738310585E+02  0.20777161162E+02  0.12700000000E+01 0. -1.
          4   -1    0    0  501    0  0.00000000000E+00 -0.00000000000E+00 -0.18811421159E+03  0.18811849857E+03  0.12700000000E+01 0. -1.
         25    2    1    2    0    0  0.00000000000E+00  0.00000000000E+00 -0.16737590101E+03  0.20889565973E+03  0.12499081732E+03 0.  0.
    9000005    1    3    3    0    0 -0.17599054148E+02 -0.49456499215E+02 -0.14033953935E+03  0.14983944182E+03  0.10000000000E+01 0.  0.
    9000005    1    3    3    0    0  0.17599054148E+02  0.49456499215E+02 -0.27036361658E+02  0.59056217904E+02  0.10000000000E+01 0.  0.
<mgrwt>
<rscale>  0 0.12499082E+03</rscale>
<asrwt>0</asrwt>
<pdfrwt beam="2">  1        4 0.47033940E-01 0.12499082E+03</pdfrwt>
<pdfrwt beam="1">  1       -4 0.51899704E-02 0.12499082E+03</pdfrwt>
<totfact> 0.15975325E+03</totfact>
</mgrwt>
</event>
<event>
 5    1  0.1435323E-002  0.1250074E+03  0.7818608E-02  0.1235058E+00
         -4   -1    0    0    0  501 -0.00000000000E+00  0.00000000000E+00  0.91977491313E+02  0.91986258801E+02  0.12700000000E+01 0. -1.
          4   -1    0    0  501    0  0.00000000000E+00 -0.00000000000E+00 -0.42454367687E+02  0.42473359129E+02  0.12700000000E+01 0. -1.
         25    2    1    2    0    0  0.00000000000E+00  0.00000000000E+00  0.49523123626E+02  0.13445961793E+03  0.12500739610E+03 0.  0.
    9000005    1    3    3    0    0 -0.56782919631E+02 -0.16831958499E+01 -0.32576828051E+01  0.56909978100E+02  0.10000000000E+01 0.  0.
    9000005    1    3    3    0    0  0.56782919631E+02  0.16831958499E+01  0.52780806431E+02  0.77549639830E+02  0.10000000000E+01 0.  0.
<mgrwt>
<rscale>  0 0.12500740E+03</rscale>
<asrwt>0</asrwt>
<pdfrwt beam="2">  1        4 0.10617062E-01 0.12500740E+03</pdfrwt>
<pdfrwt beam="1">  1       -4 0.22997843E-01 0.12500740E+03</pdfrwt>
<totfact> 0.19324144E+03</totfact>
</mgrwt>
</event>
<event>
 5    1  0.1435323E-002  0.1250044E+03  0.7818608E-02  0.1235062E+00
         -4   -1    0    0    0  501 -0.00000000000E+00  0.00000000000E+00  0.16341433378E+03  0.16341926871E+03  0.12700000000E+01 0.  1.
          4   -1    0    0  501    0  0.00000000000E+00 -0.00000000000E+00 -0.23883473650E+02  0.23917215841E+02  0.12700000000E+01 0.  1.
         25    2    1    2    0    0  0.00000000000E+00  0.00000000000E+00  0.13953086013E+03  0.18733648455E+03  0.12500438998E+03 0.  0.
    9000005    1    3    3    0    0  0.25197447839E+02 -0.27724733326E+02 -0.51957823265E+01  0.37836072333E+02  0.10000000000E+01 0.  0.
    9000005    1    3    3    0    0 -0.25197447839E+02  0.27724733326E+02  0.14472664246E+03  0.14950041222E+03  0.10000000000E+01 0.  0.
<mgrwt>
<rscale>  0 0.12500439E+03</rscale>
<asrwt>0</asrwt>
<pdfrwt beam="2">  1        4 0.59757031E-02 0.12500439E+03</pdfrwt>
<pdfrwt beam="1">  1       -4 0.40858418E-01 0.12500439E+03</pdfrwt>
<totfact> 0.16840278E+03</totfact>
</mgrwt>
</event>
<event>
 5    1  0.1435323E-002  0.1250008E+03  0.7818608E-02  0.1235068E+00
         -4   -1    0    0    0  501 -0.00000000000E+00  0.00000000000E+00  0.11400045808E+03  0.11400753195E+03  0.12700000000E+01 0.  1.
          4   -1    0    0  501    0  0.00000000000E+00 -0.00000000000E+00 -0.34245746264E+02  0.34269287083E+02  0.12700000000E+01 0.  1.
         25    2    1    2    0    0  0.00000000000E+00  0.00000000000E+00  0.79754711814E+02  0.14827681904E+03  0.12500080403E+03 0.  0.
    9000005    1    3    3    0    0  0.37148327590E+02 -0.43279959010E+02  0.70169726187E+02  0.90431983103E+02  0.10000000000E+01 0.  0.
    9000005    1    3    3    0    0 -0.37148327590E+02  0.43279959010E+02  0.95849856267E+01  0.57844835933E+02  0.10000000000E+01 0.  0.
<mgrwt>
<rscale>  0 0.12500080E+03</rscale>
<asrwt>0</asrwt>
<pdfrwt beam="2">  1        4 0.85652635E-02 0.12500080E+03</pdfrwt>
<pdfrwt beam="1">  1       -4 0.28503941E-01 0.12500080E+03</pdfrwt>
<totfact> 0.18623487E+03</totfact>
</mgrwt>
</event>
<event>
 5    1  0.1435323E-002  0.1249996E+03  0.7818608E-02  0.1235070E+00
          4   -1    0    0  501    0  0.00000000000E+00  0.00000000000E+00  0.70332455378E+02  0.70343920700E+02  0.12700000000E+01 0.  1.
         -4   -1    0    0    0  501 -0.00000000000E+00 -0.00000000000E+00 -0.55516156029E+02  0.55530680531E+02  0.12700000000E+01 0.  1.
         25    2    1    2    0    0  0.00000000000E+00  0.00000000000E+00  0.14816299349E+02  0.12587460123E+03  0.12499957003E+03 0.  0.
    9000005    1    3    3    0    0  0.33990066843E+01  0.62399222940E+02  0.74915373959E+01  0.62947115919E+02  0.10000000000E+01 0.  0.
    9000005    1    3    3    0    0 -0.33990066843E+01 -0.62399222940E+02  0.73247619530E+01  0.62927485312E+02  0.10000000000E+01 0.  0.
<mgrwt>
<rscale>  0 0.12499957E+03</rscale>
<asrwt>0</asrwt>
<pdfrwt beam="1">  1        4 0.17586362E-01 0.12499957E+03</pdfrwt>
<pdfrwt beam="2">  1       -4 0.13882288E-01 0.12499957E+03</pdfrwt>
<totfact> 0.19787897E+03</totfact>
</mgrwt>
</event>
<event>
 5    1  0.1435323E-002  0.1249834E+03  0.7818608E-02  0.1235095E+00
          4   -1    0    0  501    0  0.00000000000E+00  0.00000000000E+00  0.74153256513E+02  0.74164131165E+02  0.12700000000E+01 0. -1.
         -4   -1    0    0    0  501 -0.00000000000E+00 -0.00000000000E+00 -0.52641673040E+02  0.52656990424E+02  0.12700000000E+01 0. -1.
         25    2    1    2    0    0  0.00000000000E+00  0.00000000000E+00  0.21511583473E+02  0.12682112159E+03  0.12498339353E+03 0.  0.
    9000005    1    3    3    0    0 -0.61234031445E+02  0.33853112887E+01 -0.13844604951E+01  0.61351313518E+02  0.10000000000E+01 0.  0.
    9000005    1    3    3    0    0  0.61234031445E+02 -0.33853112887E+01  0.22896043968E+02  0.65469808071E+02  0.10000000000E+01 0.  0.
<mgrwt>
<rscale>  0 0.12498339E+03</rscale>
<asrwt>0</asrwt>
<pdfrwt beam="1">  1        4 0.18541588E-01 0.12498339E+03</pdfrwt>
<pdfrwt beam="2">  1       -4 0.13163692E-01 0.12498339E+03</pdfrwt>
<totfact> 0.19744280E+03</totfact>
</mgrwt>
</event>
<event>
 5    1  0.1435323E-002  0.1249997E+03  0.7818608E-02  0.1235070E+00
         -4   -1    0    0    0  501 -0.00000000000E+00  0.00000000000E+00  0.29063754981E+02  0.29091489368E+02  0.12700000000E+01 0.  1.
          4   -1    0    0  501    0  0.00000000000E+00 -0.00000000000E+00 -0.13430721719E+03  0.13431322157E+03  0.12700000000E+01 0.  1.
         25    2    1    2    0    0  0.00000000000E+00  0.00000000000E+00 -0.10524346220E+03  0.16340471094E+03  0.12499965288E+03 0.  0.
    9000005    1    3    3    0    0 -0.43774082357E+02 -0.10027994414E+01  0.56649975128E+01  0.44161839746E+02  0.10000000000E+01 0.  0.
    9000005    1    3    3    0    0  0.43774082357E+02  0.10027994414E+01 -0.11090845972E+03  0.11924287119E+03  0.10000000000E+01 0.  0.
<mgrwt>
<rscale>  0 0.12499965E+03</rscale>
<asrwt>0</asrwt>
<pdfrwt beam="2">  1        4 0.33581020E-01 0.12499965E+03</pdfrwt>
<pdfrwt beam="1">  1       -4 0.72701565E-02 0.12499965E+03</pdfrwt>
<totfact> 0.17898836E+03</totfact>
</mgrwt>
</event>
<event>
 5    1  0.1435323E-002  0.1250022E+03  0.7818608E-02  0.1235066E+00
          4   -1    0    0  501    0  0.00000000000E+00  0.00000000000E+00  0.15192753523E+02  0.15245742344E+02  0.12700000000E+01 0. -1.
         -4   -1    0    0    0  501 -0.00000000000E+00 -0.00000000000E+00 -0.25661966582E+03  0.25662280839E+03  0.12700000000E+01 0. -1.
         25    2    1    2    0    0  0.00000000000E+00  0.00000000000E+00 -0.24142691230E+03  0.27186855073E+03  0.12500221957E+03 0.  0.
    9000005    1    3    3    0    0  0.58706047942E+02 -0.59939693084E+01 -0.75978940566E+02  0.96208768532E+02  0.10000000000E+01 0.  0.
    9000005    1    3    3    0    0 -0.58706047942E+02  0.59939693084E+01 -0.16544797173E+03  0.17565978220E+03  0.10000000000E+01 0.  0.
<mgrwt>
<rscale>  0 0.12500222E+03</rscale>
<asrwt>0</asrwt>
<pdfrwt beam="1">  1        4 0.38052056E-02 0.12500222E+03</pdfrwt>
<pdfrwt beam="2">  1       -4 0.64161919E-01 0.12500222E+03</pdfrwt>
<totfact> 0.13797109E+03</totfact>
</mgrwt>
</event>
<event>
 5    1  0.1435323E-002  0.1250002E+03  0.7818608E-02  0.1235069E+00
         -4   -1    0    0    0  501 -0.00000000000E+00  0.00000000000E+00  0.12261699425E+02  0.12327293814E+02  0.12700000000E+01 0.  1.
          4   -1    0    0  501    0  0.00000000000E+00 -0.00000000000E+00 -0.31765768169E+03  0.31766022042E+03  0.12700000000E+01 0.  1.
         25    2    1    2    0    0  0.00000000000E+00  0.00000000000E+00 -0.30539598227E+03  0.32998751424E+03  0.12500021427E+03 0.  0.
    9000005    1    3    3    0    0 -0.50574119858E+01  0.48213721702E+02 -0.25680240055E+03  0.26134003387E+03  0.10000000000E+01 0.  0.
    9000005    1    3    3    0    0  0.50574119858E+01 -0.48213721702E+02 -0.48593581724E+02  0.68647480370E+02  0.10000000000E+01 0.  0.
<mgrwt>
<rscale>  0 0.12500021E+03</rscale>
<asrwt>0</asrwt>
<pdfrwt beam="2">  1        4 0.79422910E-01 0.12500021E+03</pdfrwt>
<pdfrwt beam="1">  1       -4 0.30739425E-02 0.12500021E+03</pdfrwt>
<totfact> 0.12170297E+03</totfact>
</mgrwt>
</event>
<event>
 5    1  0.1435323E-002  0.1250007E+03  0.7818608E-02  0.1235068E+00
         -4   -1    0    0    0  501 -0.00000000000E+00  0.00000000000E+00  0.41003301831E+02  0.41022965044E+02  0.12700000000E+01 0. -1.
          4   -1    0    0  501    0  0.00000000000E+00 -0.00000000000E+00 -0.95221020421E+02  0.95229489288E+02  0.12700000000E+01 0. -1.
         25    2    1    2    0    0  0.00000000000E+00  0.00000000000E+00 -0.54217718590E+02  0.13625245433E+03  0.12500068121E+03 0.  0.
    9000005    1    3    3    0    0  0.25867201397E+02 -0.14689890991E+02  0.32796170903E+02  0.44288755134E+02  0.10000000000E+01 0.  0.
    9000005    1    3    3    0    0 -0.25867201397E+02  0.14689890991E+02 -0.87013889494E+02  0.91963699198E+02  0.10000000000E+01 0.  0.
<mgrwt>
<rscale>  0 0.12500068E+03</rscale>
<asrwt>0</asrwt>
<pdfrwt beam="2">  1        4 0.23808771E-01 0.12500068E+03</pdfrwt>
<pdfrwt beam="1">  1       -4 0.10254342E-01 0.12500068E+03</pdfrwt>
<totfact> 0.19233429E+03</totfact>
</mgrwt>
</event>
<event>
 5    1  0.1435323E-002  0.1250046E+03  0.7818608E-02  0.1235062E+00
          4   -1    0    0  501    0  0.00000000000E+00  0.00000000000E+00  0.87233102916E+01  0.88152732484E+01  0.12700000000E+01 0. -1.
         -4   -1    0    0    0  501 -0.00000000000E+00 -0.00000000000E+00 -0.44538645490E+03  0.44538826557E+03  0.12700000000E+01 0. -1.
         25    2    1    2    0    0  0.00000000000E+00  0.00000000000E+00 -0.43666314461E+03  0.45420353882E+03  0.12500461118E+03 0.  0.
    9000005    1    3    3    0    0  0.53773373869E+02 -0.51973155636E+01 -0.10418256505E+03  0.11736095895E+03  0.10000000000E+01 0.  0.
    9000005    1    3    3    0    0 -0.53773373869E+02  0.51973155636E+01 -0.33248057956E+03  0.33684257987E+03  0.10000000000E+01 0.  0.
<mgrwt>
<rscale>  0 0.12500461E+03</rscale>
<asrwt>0</asrwt>
<pdfrwt beam="1">  1        4 0.21925508E-02 0.12500461E+03</pdfrwt>
<pdfrwt beam="2">  1       -4 0.11135826E+00 0.12500461E+03</pdfrwt>
<totfact> 0.95257208E+02</totfact>
</mgrwt>
</event>
<event>
 5    1  0.1435323E-002  0.1250008E+03  0.7818608E-02  0.1235068E+00
         -4   -1    0    0    0  501 -0.00000000000E+00  0.00000000000E+00  0.85900539159E+02  0.85909926829E+02  0.12700000000E+01 0.  1.
          4   -1    0    0  501    0  0.00000000000E+00 -0.00000000000E+00 -0.45453976138E+02  0.45471714799E+02  0.12700000000E+01 0.  1.
         25    2    1    2    0    0  0.00000000000E+00  0.00000000000E+00  0.40446563021E+02  0.13138164163E+03  0.12500084518E+03 0.  0.
    9000005    1    3    3    0    0  0.45517636837E+02 -0.42541801318E+02  0.25333862619E+02  0.67264141396E+02  0.10000000000E+01 0.  0.
    9000005    1    3    3    0    0 -0.45517636837E+02  0.42541801318E+02  0.15112700402E+02  0.64117500232E+02  0.10000000000E+01 0.  0.
<mgrwt>
<rscale>  0 0.12500085E+03</rscale>
<asrwt>0</asrwt>
<pdfrwt beam="2">  1        4 0.11366885E-01 0.12500085E+03</pdfrwt>
<pdfrwt beam="1">  1       -4 0.21478525E-01 0.12500085E+03</pdfrwt>
<totfact> 0.19490007E+03</totfact>
</mgrwt>
</event>
<event>
 5    1  0.1435323E-002  0.1250034E+03  0.7818608E-02  0.1235064E+00
          4   -1    0    0  501    0  0.00000000000E+00  0.00000000000E+00  0.16043752538E+03  0.16044255187E+03  0.12700000000E+01 0. -1.
         -4   -1    0    0    0  501 -0.00000000000E+00 -0.00000000000E+00 -0.24326820518E+02  0.24359948615E+02  0.12700000000E+01 0. -1.
         25    2    1    2    0    0  0.00000000000E+00  0.00000000000E+00  0.13611070486E+03  0.18480250048E+03  0.12500336078E+03 0.  0.
    9000005    1    3    3    0    0 -0.22489943268E+02  0.42583992582E+02  0.12693621621E+03  0.13576817358E+03  0.10000000000E+01 0.  0.
    9000005    1    3    3    0    0  0.22489943268E+02 -0.42583992582E+02  0.91744886510E+01  0.49034326899E+02  0.10000000000E+01 0.  0.
<mgrwt>
<rscale>  0 0.12500336E+03</rscale>
<asrwt>0</asrwt>
<pdfrwt beam="1">  1        4 0.40114150E-01 0.12500336E+03</pdfrwt>
<pdfrwt beam="2">  1       -4 0.60864746E-02 0.12500336E+03</pdfrwt>
<totfact> 0.16947902E+03</totfact>
</mgrwt>
</event>
<event>
 5    1  0.1435323E-002  0.1250002E+03  0.7818608E-02  0.1235069E+00
         -4   -1    0    0    0  501 -0.00000000000E+00  0.00000000000E+00  0.64247611823E+01  0.65490805652E+01  0.12700000000E+01 0. -1.
          4   -1    0    0  501    0  0.00000000000E+00 -0.00000000000E+00 -0.60205014877E+03  0.60205148827E+03  0.12700000000E+01 0. -1.
         25    2    1    2    0    0  0.00000000000E+00  0.00000000000E+00 -0.59562538758E+03  0.60860056884E+03  0.12500020021E+03 0.  0.
    9000005    1    3    3    0    0 -0.56577003225E+00  0.53589505386E+02 -0.45430549585E+03  0.45745670696E+03  0.10000000000E+01 0.  0.
    9000005    1    3    3    0    0  0.56577003225E+00 -0.53589505386E+02 -0.14131989174E+03  0.15114386188E+03  0.10000000000E+01 0.  0.
<mgrwt>
<rscale>  0 0.12500020E+03</rscale>
<asrwt>0</asrwt>
<pdfrwt beam="2">  1        4 0.15052805E+00 0.12500020E+03</pdfrwt>
<pdfrwt beam="1">  1       -4 0.16218997E-02 0.12500020E+03</pdfrwt>
<totfact> 0.72431012E+02</totfact>
</mgrwt>
</event>
<event>
 5    1  0.1435323E-002  0.1249458E+03  0.7818608E-02  0.1235154E+00
         -4   -1    0    0    0  501 -0.00000000000E+00  0.00000000000E+00  0.37690064899E+01  0.39772238963E+01  0.12700000000E+01 0.  1.
          4   -1    0    0  501    0  0.00000000000E+00 -0.00000000000E+00 -0.10074720102E+04  0.10074728107E+04  0.12700000000E+01 0.  1.
         25    2    1    2    0    0  0.00000000000E+00  0.00000000000E+00 -0.10037030037E+04  0.10114500346E+04  0.12494579931E+03 0.  0.
    9000005    1    3    3    0    0  0.47089603387E+02 -0.40471364634E+02 -0.44664956271E+03  0.45094588808E+03  0.10000000000E+01 0.  0.
    9000005    1    3    3    0    0 -0.47089603387E+02  0.40471364634E+02 -0.55705344099E+03  0.56050414648E+03  0.10000000000E+01 0.  0.
<mgrwt>
<rscale>  0 0.12494580E+03</rscale>
<asrwt>0</asrwt>
<pdfrwt beam="2">  1        4 0.25189323E+00 0.12494580E+03</pdfrwt>
<pdfrwt beam="1">  1       -4 0.96838231E-03 0.12494580E+03</pdfrwt>
<totfact> 0.36389093E+02</totfact>
</mgrwt>
</event>
<event>
 5    1  0.1435323E-002  0.1249957E+03  0.7818608E-02  0.1235076E+00
          4   -1    0    0  501    0  0.00000000000E+00  0.00000000000E+00  0.17290912914E+03  0.17291379309E+03  0.12700000000E+01 0.  1.
         -4   -1    0    0    0  501 -0.00000000000E+00 -0.00000000000E+00 -0.22566961823E+02  0.22602669443E+02  0.12700000000E+01 0.  1.
         25    2    1    2    0    0  0.00000000000E+00  0.00000000000E+00  0.15034216732E+03  0.19551646253E+03  0.12499567931E+03 0.  0.
    9000005    1    3    3    0    0  0.49071579911E+02 -0.27889455860E+02  0.33224699794E+02  0.65503605851E+02  0.10000000000E+01 0.  0.
    9000005    1    3    3    0    0 -0.49071579911E+02  0.27889455860E+02  0.11711746752E+03  0.13001285668E+03  0.10000000000E+01 0.  0.
<mgrwt>
<rscale>  0 0.12499568E+03</rscale>
<asrwt>0</asrwt>
<pdfrwt beam="1">  1        4 0.43232327E-01 0.12499568E+03</pdfrwt>
<pdfrwt beam="2">  1       -4 0.56467871E-02 0.12499568E+03</pdfrwt>
<totfact> 0.16504807E+03</totfact>
</mgrwt>
</event>
<event>
 5    1  0.1435323E-002  0.1249997E+03  0.7818608E-02  0.1235070E+00
          4   -1    0    0  501    0  0.00000000000E+00  0.00000000000E+00  0.41119450324E+03  0.41119646448E+03  0.12700000000E+01 0. -1.
         -4   -1    0    0    0  501 -0.00000000000E+00 -0.00000000000E+00 -0.94552711575E+01  0.95401809554E+01  0.12700000000E+01 0. -1.
         25    2    1    2    0    0  0.00000000000E+00  0.00000000000E+00  0.40173923209E+03  0.42073664543E+03  0.12499965685E+03 0.  0.
    9000005    1    3    3    0    0  0.43668129191E+02 -0.37538436189E+02  0.11916835110E+03  0.13235609394E+03  0.10000000000E+01 0.  0.
    9000005    1    3    3    0    0 -0.43668129191E+02  0.37538436189E+02  0.28257088099E+03  0.28838055149E+03  0.10000000000E+01 0.  0.
<mgrwt>
<rscale>  0 0.12499966E+03</rscale>
<asrwt>0</asrwt>
<pdfrwt beam="1">  1        4 0.10280947E+00 0.12499966E+03</pdfrwt>
<pdfrwt beam="2">  1       -4 0.23746770E-02 0.12499966E+03</pdfrwt>
<totfact> 0.10151714E+03</totfact>
</mgrwt>
</event>
<event>
 5    1  0.1435323E-002  0.1250002E+03  0.7818608E-02  0.1235069E+00
         -4   -1    0    0    0  501 -0.00000000000E+00  0.00000000000E+00  0.35832203647E+02  0.35854702875E+02  0.12700000000E+01 0.  1.
          4   -1    0    0  501    0  0.00000000000E+00 -0.00000000000E+00 -0.10895499711E+03  0.10896239854E+03  0.12700000000E+01 0.  1.
         25    2    1    2    0    0  0.00000000000E+00  0.00000000000E+00 -0.73122793462E+02  0.14481710141E+03  0.12500019975E+03 0.  0.
    9000005    1    3    3    0    0 -0.46531521736E+02  0.23967578066E+02  0.29926083625E+01  0.52436466492E+02  0.10000000000E+01 0.  0.
    9000005    1    3    3    0    0  0.46531521736E+02 -0.23967578066E+02 -0.76115401825E+02  0.92380634920E+02  0.10000000000E+01 0.  0.
<mgrwt>
<rscale>  0 0.12500020E+03</rscale>
<asrwt>0</asrwt>
<pdfrwt beam="2">  1        4 0.27242486E-01 0.12500020E+03</pdfrwt>
<pdfrwt beam="1">  1       -4 0.89617887E-02 0.12500020E+03</pdfrwt>
<totfact> 0.18796450E+03</totfact>
</mgrwt>
</event>
<event>
 5    1  0.1435323E-002  0.1250021E+03  0.7818608E-02  0.1235066E+00
         -4   -1    0    0    0  501 -0.00000000000E+00  0.00000000000E+00  0.55616139777E+02  0.55630638174E+02  0.12700000000E+01 0.  1.
          4   -1    0    0  501    0  0.00000000000E+00 -0.00000000000E+00 -0.70208919070E+02  0.70220404562E+02  0.12700000000E+01 0.  1.
         25    2    1    2    0    0  0.00000000000E+00  0.00000000000E+00 -0.14592779293E+02  0.12585104274E+03  0.12500214298E+03 0.  0.
    9000005    1    3    3    0    0  0.52448292650E+02 -0.32352112678E+02  0.31617101308E+01  0.61712875541E+02  0.10000000000E+01 0.  0.
    9000005    1    3    3    0    0 -0.52448292650E+02  0.32352112678E+02 -0.17754489423E+02  0.64138167196E+02  0.10000000000E+01 0.  0.
<mgrwt>
<rscale>  0 0.12500214E+03</rscale>
<asrwt>0</asrwt>
<pdfrwt beam="2">  1        4 0.17555478E-01 0.12500214E+03</pdfrwt>
<pdfrwt beam="1">  1       -4 0.13907283E-01 0.12500214E+03</pdfrwt>
<totfact> 0.19787980E+03</totfact>
</mgrwt>
</event>
<event>
 4    1  0.1435323E-002  0.1250773E+03  0.7818608E-02  0.1234948E+00
          4   -1    0    0  501    0  0.00000000000E+00  0.00000000000E+00  0.23815314588E+03  0.23815653212E+03  0.12700000000E+01 0.  1.
         -4   -1    0    0    0  501 -0.00000000000E+00 -0.00000000000E+00 -0.16394503732E+02  0.16443620423E+02  0.12700000000E+01 0.  1.
    9000005    1    1    2    0    0 -0.38883611401E+02  0.20500762744E+02  0.20140645561E+03  0.20614988933E+03  0.10000000000E+01 0.  0.
    9000005    1    1    2    0    0  0.38883611401E+02 -0.20500762744E+02  0.20352186532E+02  0.48450263212E+02  0.10000000000E+01 0.  0.
<mgrwt>
<rscale>  0 0.12507735E+03</rscale>
<asrwt>0</asrwt>
<pdfrwt beam="1">  1        4 0.59544849E-01 0.12507735E+03</pdfrwt>
<pdfrwt beam="2">  1       -4 0.41051888E-02 0.12507735E+03</pdfrwt>
<totfact> 0.14320720E+03</totfact>
</mgrwt>
</event>
<event>
 5    1  0.1435323E-002  0.1250009E+03  0.7818608E-02  0.1235068E+00
          4   -1    0    0  501    0  0.00000000000E+00  0.00000000000E+00  0.54436451165E+02  0.54451263671E+02  0.12700000000E+01 0.  1.
         -4   -1    0    0    0  501 -0.00000000000E+00 -0.00000000000E+00 -0.71728822826E+02  0.71740064984E+02  0.12700000000E+01 0.  1.
         25    2    1    2    0    0  0.00000000000E+00  0.00000000000E+00 -0.17292371661E+02  0.12619132866E+03  0.12500090124E+03 0.  0.
    9000005    1    3    3    0    0  0.42818126883E+02  0.16999241745E+02 -0.51273183710E+02  0.68936968148E+02  0.10000000000E+01 0.  0.
    9000005    1    3    3    0    0 -0.42818126883E+02 -0.16999241745E+02  0.33980812049E+02  0.57254360508E+02  0.10000000000E+01 0.  0.
<mgrwt>
<rscale>  0 0.12500090E+03</rscale>
<asrwt>0</asrwt>
<pdfrwt beam="1">  1        4 0.13612370E-01 0.12500090E+03</pdfrwt>
<pdfrwt beam="2">  1       -4 0.17935462E-01 0.12500090E+03</pdfrwt>
<totfact> 0.19770168E+03</totfact>
</mgrwt>
</event>
<event>
 5    1  0.1435323E-002  0.1250004E+03  0.7818608E-02  0.1235069E+00
          4   -1    0    0  501    0  0.00000000000E+00  0.00000000000E+00  0.14573990136E+03  0.14574543475E+03  0.12700000000E+01 0. -1.
         -4   -1    0    0    0  501 -0.00000000000E+00 -0.00000000000E+00 -0.26781948112E+02  0.26812042903E+02  0.12700000000E+01 0. -1.
         25    2    1    2    0    0  0.00000000000E+00  0.00000000000E+00  0.11895795325E+03  0.17255747765E+03  0.12500035380E+03 0.  0.
    9000005    1    3    3    0    0 -0.61823440053E+02  0.20209687632E+01  0.47205329353E+02  0.77817512001E+02  0.10000000000E+01 0.  0.
    9000005    1    3    3    0    0  0.61823440053E+02 -0.20209687632E+01  0.71752623899E+02  0.94739965649E+02  0.10000000000E+01 0.  0.
<mgrwt>
<rscale>  0 0.12500035E+03</rscale>
<asrwt>0</asrwt>
<pdfrwt beam="1">  1        4 0.36439428E-01 0.12500035E+03</pdfrwt>
<pdfrwt beam="2">  1       -4 0.66999407E-02 0.12500035E+03</pdfrwt>
<totfact> 0.17482164E+03</totfact>
</mgrwt>
</event>
<event>
 5    1  0.1435323E-002  0.1250049E+03  0.7818608E-02  0.1235062E+00
          4   -1    0    0  501    0  0.00000000000E+00  0.00000000000E+00  0.23297875945E+02  0.23332465012E+02  0.12700000000E+01 0. -1.
         -4   -1    0    0    0  501 -0.00000000000E+00 -0.00000000000E+00 -0.16751735609E+03  0.16752217014E+03  0.12700000000E+01 0. -1.
         25    2    1    2    0    0  0.00000000000E+00  0.00000000000E+00 -0.14421948014E+03  0.19085463516E+03  0.12500493314E+03 0.  0.
    9000005    1    3    3    0    0  0.27092018259E+02 -0.50760343893E+02 -0.34868640467E+02  0.67286046499E+02  0.10000000000E+01 0.  0.
    9000005    1    3    3    0    0 -0.27092018259E+02  0.50760343893E+02 -0.10935083967E+03  0.12356858866E+03  0.10000000000E+01 0.  0.
<mgrwt>
<rscale>  0 0.12500493E+03</rscale>
<asrwt>0</asrwt>
<pdfrwt beam="1">  1        4 0.58293949E-02 0.12500493E+03</pdfrwt>
<pdfrwt beam="2">  1       -4 0.41884261E-01 0.12500493E+03</pdfrwt>
<totfact> 0.16693001E+03</totfact>
</mgrwt>
</event>
<event>
 5    1  0.1435323E-002  0.1249936E+03  0.7818608E-02  0.1235079E+00
         -4   -1    0    0    0  501 -0.00000000000E+00  0.00000000000E+00  0.31596530538E+02  0.31622043610E+02  0.12700000000E+01 0.  1.
          4   -1    0    0  501    0  0.00000000000E+00 -0.00000000000E+00 -0.12353770449E+03  0.12354423229E+03  0.12700000000E+01 0.  1.
         25    2    1    2    0    0  0.00000000000E+00  0.00000000000E+00 -0.91941173953E+02  0.15516627590E+03  0.12499357466E+03 0.  0.
    9000005    1    3    3    0    0 -0.44112325016E+02  0.89274286029E+01 -0.99785443302E+02  0.10947022835E+03  0.10000000000E+01 0.  0.
    9000005    1    3    3    0    0  0.44112325016E+02 -0.89274286029E+01  0.78442693489E+01  0.45696047546E+02  0.10000000000E+01 0.  0.
<mgrwt>
<rscale>  0 0.12499357E+03</rscale>
<asrwt>0</asrwt>
<pdfrwt beam="2">  1        4 0.30888430E-01 0.12499357E+03</pdfrwt>
<pdfrwt beam="1">  1       -4 0.79031381E-02 0.12499357E+03</pdfrwt>
<totfact> 0.18290371E+03</totfact>
</mgrwt>
</event>
<event>
 5    1  0.1435323E-002  0.1250002E+03  0.7818608E-02  0.1235069E+00
          4   -1    0    0  501    0  0.00000000000E+00  0.00000000000E+00  0.10251587285E+03  0.10252373913E+03  0.12700000000E+01 0.  1.
         -4   -1    0    0    0  501 -0.00000000000E+00 -0.00000000000E+00 -0.38084054352E+02  0.38105223997E+02  0.12700000000E+01 0.  1.
         25    2    1    2    0    0  0.00000000000E+00  0.00000000000E+00  0.64431818498E+02  0.14062896313E+03  0.12500018415E+03 0.  0.
    9000005    1    3    3    0    0  0.41854229620E+02  0.46400917791E+02  0.31469818235E+02  0.69972645860E+02  0.10000000000E+01 0.  0.
    9000005    1    3    3    0    0 -0.41854229620E+02 -0.46400917791E+02  0.32962000263E+02  0.70656317271E+02  0.10000000000E+01 0.  0.
<mgrwt>
<rscale>  0 0.12500018E+03</rscale>
<asrwt>0</asrwt>
<pdfrwt beam="1">  1        4 0.25632598E-01 0.12500018E+03</pdfrwt>
<pdfrwt beam="2">  1       -4 0.95246431E-02 0.12500018E+03</pdfrwt>
<totfact> 0.19008130E+03</totfact>
</mgrwt>
</event>
<event>
 5    1  0.1435323E-002  0.1249972E+03  0.7818608E-02  0.1235074E+00
         -4   -1    0    0    0  501 -0.00000000000E+00  0.00000000000E+00  0.62141344969E+02  0.62154321286E+02  0.12700000000E+01 0.  1.
          4   -1    0    0  501    0  0.00000000000E+00 -0.00000000000E+00 -0.62831940500E+02  0.62844774222E+02  0.12700000000E+01 0.  1.
         25    2    1    2    0    0  0.00000000000E+00  0.00000000000E+00 -0.69059553144E+00  0.12499909551E+03  0.12499718779E+03 0.  0.
    9000005    1    3    3    0    0 -0.49675179645E+01  0.58694154216E+02 -0.21211719482E+02  0.62614830649E+02  0.10000000000E+01 0.  0.
    9000005    1    3    3    0    0  0.49675179645E+01 -0.58694154216E+02  0.20521123951E+02  0.62384264859E+02  0.10000000000E+01 0.  0.
<mgrwt>
<rscale>  0 0.12499719E+03</rscale>
<asrwt>0</asrwt>
<pdfrwt beam="2">  1        4 0.15711211E-01 0.12499719E+03</pdfrwt>
<pdfrwt beam="1">  1       -4 0.15538562E-01 0.12499719E+03</pdfrwt>
<totfact> 0.19836410E+03</totfact>
</mgrwt>
</event>
<event>
 5    1  0.1435323E-002  0.1249987E+03  0.7818608E-02  0.1235071E+00
          4   -1    0    0  501    0  0.00000000000E+00  0.00000000000E+00  0.19516644564E+03  0.19517057771E+03  0.12700000000E+01 0. -1.
         -4   -1    0    0    0  501 -0.00000000000E+00 -0.00000000000E+00 -0.19990064657E+02  0.20030366571E+02  0.12700000000E+01 0. -1.
         25    2    1    2    0    0  0.00000000000E+00  0.00000000000E+00  0.17517638098E+03  0.21520094428E+03  0.12499872785E+03 0.  0.
    9000005    1    3    3    0    0  0.11663431355E+02  0.60310747673E+02  0.67827071036E+02  0.91514662657E+02  0.10000000000E+01 0.  0.
    9000005    1    3    3    0    0 -0.11663431355E+02 -0.60310747673E+02  0.10734930995E+03  0.12368628162E+03  0.10000000000E+01 0.  0.
<mgrwt>
<rscale>  0 0.12499873E+03</rscale>
<asrwt>0</asrwt>
<pdfrwt beam="1">  1        4 0.48797166E-01 0.12499873E+03</pdfrwt>
<pdfrwt beam="2">  1       -4 0.50030704E-02 0.12499873E+03</pdfrwt>
<totfact> 0.15731401E+03</totfact>
</mgrwt>
</event>
<event>
 5    1  0.1435323E-002  0.1249994E+03  0.7818608E-02  0.1235070E+00
          4   -1    0    0  501    0  0.00000000000E+00  0.00000000000E+00  0.28416135163E+02  0.28444501008E+02  0.12700000000E+01 0. -1.
         -4   -1    0    0    0  501 -0.00000000000E+00 -0.00000000000E+00 -0.13736465589E+03  0.13737052663E+03  0.12700000000E+01 0. -1.
         25    2    1    2    0    0  0.00000000000E+00  0.00000000000E+00 -0.10894852073E+03  0.16581502764E+03  0.12499937289E+03 0.  0.
    9000005    1    3    3    0    0 -0.34386601347E+02  0.12642158296E+02  0.12681918199E+02  0.38782645188E+02  0.10000000000E+01 0.  0.
    9000005    1    3    3    0    0  0.34386601347E+02 -0.12642158296E+02 -0.12163043893E+03  0.12703238245E+03  0.10000000000E+01 0.  0.
<mgrwt>
<rscale>  0 0.12499937E+03</rscale>
<asrwt>0</asrwt>
<pdfrwt beam="1">  1        4 0.71083137E-02 0.12499937E+03</pdfrwt>
<pdfrwt beam="2">  1       -4 0.34345442E-01 0.12499937E+03</pdfrwt>
<totfact> 0.17787735E+03</totfact>
</mgrwt>
</event>
<event>
 5    1  0.1435323E-002  0.1249976E+03  0.7818608E-02  0.1235073E+00
          4   -1    0    0  501    0  0.00000000000E+00  0.00000000000E+00  0.16130728422E+03  0.16131228361E+03  0.12700000000E+01 0.  1.
         -4   -1    0    0    0  501 -0.00000000000E+00 -0.00000000000E+00 -0.24193238883E+02  0.24226549643E+02  0.12700000000E+01 0.  1.
         25    2    1    2    0    0  0.00000000000E+00  0.00000000000E+00  0.13711404534E+03  0.18553883325E+03  0.12499758884E+03 0.  0.
    9000005    1    3    3    0    0  0.14588957218E+02 -0.87500995645E+01  0.15781133810E+03  0.15872876345E+03  0.10000000000E+01 0.  0.
    9000005    1    3    3    0    0 -0.14588957218E+02  0.87500995645E+01 -0.20697292759E+02  0.26810069799E+02  0.10000000000E+01 0.  0.
<mgrwt>
<rscale>  0 0.12499759E+03</rscale>
<asrwt>0</asrwt>
<pdfrwt beam="1">  1        4 0.40331609E-01 0.12499759E+03</pdfrwt>
<pdfrwt beam="2">  1       -4 0.60530986E-02 0.12499759E+03</pdfrwt>
<totfact> 0.16918894E+03</totfact>
</mgrwt>
</event>
<event>
 5    1  0.1435323E-002  0.1249954E+03  0.7818608E-02  0.1235076E+00
         -4   -1    0    0    0  501 -0.00000000000E+00  0.00000000000E+00  0.55575847706E+03  0.55575992813E+03  0.12700000000E+01 0. -1.
          4   -1    0    0  501    0  0.00000000000E+00 -0.00000000000E+00 -0.69693234863E+01  0.70840927335E+01  0.12700000000E+01 0. -1.
         25    2    1    2    0    0  0.00000000000E+00  0.00000000000E+00  0.54878915357E+03  0.56284402087E+03  0.12499542692E+03 0.  0.
    9000005    1    3    3    0    0  0.25676786416E+02 -0.18376623501E+02  0.31572239594E+02  0.44663228330E+02  0.10000000000E+01 0.  0.
    9000005    1    3    3    0    0 -0.25676786416E+02  0.18376623501E+02  0.51721691398E+03  0.51818079254E+03  0.10000000000E+01 0.  0.
<mgrwt>
<rscale>  0 0.12499543E+03</rscale>
<asrwt>0</asrwt>
<pdfrwt beam="2">  1        4 0.17568582E-02 0.12499543E+03</pdfrwt>
<pdfrwt beam="1">  1       -4 0.13895416E+00 0.12499543E+03</pdfrwt>
<totfact> 0.78394045E+02</totfact>
</mgrwt>
</event>
<event>
 5    1  0.1435323E-002  0.1249974E+03  0.7818608E-02  0.1235073E+00
         -4   -1    0    0    0  501 -0.00000000000E+00  0.00000000000E+00  0.78722089047E+03  0.78722191489E+03  0.12700000000E+01 0.  1.
          4   -1    0    0  501    0  0.00000000000E+00 -0.00000000000E+00 -0.48795571006E+01  0.50421203375E+01  0.12700000000E+01 0.  1.
         25    2    1    2    0    0  0.00000000000E+00  0.00000000000E+00  0.78234133337E+03  0.79226403523E+03  0.12499735848E+03 0.  0.
    9000005    1    3    3    0    0  0.48990078927E+02 -0.38387647843E+02  0.35562809755E+03  0.36103460098E+03  0.10000000000E+01 0.  0.
    9000005    1    3    3    0    0 -0.48990078927E+02  0.38387647843E+02  0.42671323582E+03  0.43122943425E+03  0.10000000000E+01 0.  0.
<mgrwt>
<rscale>  0 0.12499736E+03</rscale>
<asrwt>0</asrwt>
<pdfrwt beam="2">  1        4 0.12403380E-02 0.12499736E+03</pdfrwt>
<pdfrwt beam="1">  1       -4 0.19682563E+00 0.12499736E+03</pdfrwt>
<totfact> 0.53169062E+02</totfact>
</mgrwt>
</event>
<event>
 5    1  0.1435323E-002  0.1249997E+03  0.7818608E-02  0.1235070E+00
          4   -1    0    0  501    0  0.00000000000E+00  0.00000000000E+00  0.16492335414E+03  0.16492824392E+03  0.12700000000E+01 0.  1.
         -4   -1    0    0    0  501 -0.00000000000E+00 -0.00000000000E+00 -0.23662861156E+02  0.23696917481E+02  0.12700000000E+01 0.  1.
         25    2    1    2    0    0  0.00000000000E+00  0.00000000000E+00  0.14126049299E+03  0.18862516140E+03  0.12499969854E+03 0.  0.
    9000005    1    3    3    0    0  0.21918341181E+02  0.58337565072E+02  0.63625800633E+02  0.89066984258E+02  0.10000000000E+01 0.  0.
    9000005    1    3    3    0    0 -0.21918341181E+02 -0.58337565072E+02  0.77634692354E+02  0.99558177141E+02  0.10000000000E+01 0.  0.
<mgrwt>
<rscale>  0 0.12499970E+03</rscale>
<asrwt>0</asrwt>
<pdfrwt beam="1">  1        4 0.41235706E-01 0.12499970E+03</pdfrwt>
<pdfrwt beam="2">  1       -4 0.59205837E-02 0.12499970E+03</pdfrwt>
<totfact> 0.16787991E+03</totfact>
</mgrwt>
</event>
<event>
 5    1  0.1435323E-002  0.1250156E+03  0.7818608E-02  0.1235045E+00
          4   -1    0    0  501    0  0.00000000000E+00  0.00000000000E+00  0.80487967417E+03  0.80488067612E+03  0.12700000000E+01 0. -1.
         -4   -1    0    0    0  501 -0.00000000000E+00 -0.00000000000E+00 -0.47703369496E+01  0.49364982136E+01  0.12700000000E+01 0. -1.
         25    2    1    2    0    0  0.00000000000E+00  0.00000000000E+00  0.80010933722E+03  0.80981717433E+03  0.12501561638E+03 0.  0.
    9000005    1    3    3    0    0 -0.25969274926E+02 -0.56067955622E+02  0.33921669684E+03  0.34479992214E+03  0.10000000000E+01 0.  0.
    9000005    1    3    3    0    0  0.25969274926E+02  0.56067955622E+02  0.46089264038E+03  0.46501725220E+03  0.10000000000E+01 0.  0.
<mgrwt>
<rscale>  0 0.12501562E+03</rscale>
<asrwt>0</asrwt>
<pdfrwt beam="1">  1        4 0.20124077E+00 0.12501562E+03</pdfrwt>
<pdfrwt beam="2">  1       -4 0.12134799E-02 0.12501562E+03</pdfrwt>
<totfact> 0.51599858E+02</totfact>
</mgrwt>
</event>
<event>
 5    1  0.1435323E-002  0.1250001E+03  0.7818608E-02  0.1235069E+00
         -4   -1    0    0    0  501 -0.00000000000E+00  0.00000000000E+00  0.13095352376E+03  0.13095968190E+03  0.12700000000E+01 0. -1.
          4   -1    0    0  501    0  0.00000000000E+00 -0.00000000000E+00 -0.29808929464E+02  0.29835971173E+02  0.12700000000E+01 0. -1.
         25    2    1    2    0    0  0.00000000000E+00  0.00000000000E+00  0.10114459429E+03  0.16079565308E+03  0.12500005237E+03 0.  0.
    9000005    1    3    3    0    0  0.50727758164E+02  0.35947790563E+02  0.42466752213E+02  0.75299230661E+02  0.10000000000E+01 0.  0.
    9000005    1    3    3    0    0 -0.50727758164E+02 -0.35947790563E+02  0.58677842079E+02  0.85496422415E+02  0.10000000000E+01 0.  0.
<mgrwt>
<rscale>  0 0.12500005E+03</rscale>
<asrwt>0</asrwt>
<pdfrwt beam="2">  1        4 0.74563824E-02 0.12500005E+03</pdfrwt>
<pdfrwt beam="1">  1       -4 0.32742531E-01 0.12500005E+03</pdfrwt>
<totfact> 0.18020352E+03</totfact>
</mgrwt>
</event>
<event>
 5    1  0.1435323E-002  0.1249945E+03  0.7818608E-02  0.1235078E+00
          4   -1    0    0  501    0  0.00000000000E+00  0.00000000000E+00  0.71270573697E+02  0.71281888128E+02  0.12700000000E+01 0. -1.
         -4   -1    0    0    0  501 -0.00000000000E+00 -0.00000000000E+00 -0.54780919463E+02  0.54795638853E+02  0.12700000000E+01 0. -1.
         25    2    1    2    0    0  0.00000000000E+00  0.00000000000E+00  0.16489654234E+02  0.12607752698E+03  0.12499453633E+03 0.  0.
    9000005    1    3    3    0    0 -0.45537609228E+02 -0.14801188741E+01 -0.34893045032E+02  0.57396769924E+02  0.10000000000E+01 0.  0.
    9000005    1    3    3    0    0  0.45537609228E+02  0.14801188741E+01  0.51382699266E+02  0.68680757057E+02  0.10000000000E+01 0.  0.
<mgrwt>
<rscale>  0 0.12499454E+03</rscale>
<asrwt>0</asrwt>
<pdfrwt beam="1">  1        4 0.17820898E-01 0.12499454E+03</pdfrwt>
<pdfrwt beam="2">  1       -4 0.13698484E-01 0.12499454E+03</pdfrwt>
<totfact> 0.19779259E+03</totfact>
</mgrwt>
</event>
<event>
 5    1  0.1435323E-002  0.1249988E+03  0.7818608E-02  0.1235071E+00
         -4   -1    0    0    0  501 -0.00000000000E+00  0.00000000000E+00  0.61705726903E+03  0.61705857596E+03  0.12700000000E+01 0. -1.
          4   -1    0    0  501    0  0.00000000000E+00 -0.00000000000E+00 -0.62653072692E+01  0.63927283047E+01  0.12700000000E+01 0. -1.
         25    2    1    2    0    0  0.00000000000E+00  0.00000000000E+00  0.61079196176E+03  0.62345130426E+03  0.12499883293E+03 0.  0.
    9000005    1    3    3    0    0 -0.12019965163E+01 -0.58663900517E+02  0.19815798709E+03  0.20666515397E+03  0.10000000000E+01 0.  0.
    9000005    1    3    3    0    0  0.12019965163E+01  0.58663900517E+02  0.41263397467E+03  0.41678615029E+03  0.10000000000E+01 0.  0.
<mgrwt>
<rscale>  0 0.12499883E+03</rscale>
<asrwt>0</asrwt>
<pdfrwt beam="2">  1        4 0.15824179E-02 0.12499883E+03</pdfrwt>
<pdfrwt beam="1">  1       -4 0.15428040E+00 0.12499883E+03</pdfrwt>
<totfact> 0.70630083E+02</totfact>
</mgrwt>
</event>
<event>
 5    1  0.1435323E-002  0.1250005E+03  0.7818608E-02  0.1235069E+00
          4   -1    0    0  501    0  0.00000000000E+00  0.00000000000E+00  0.27466242185E+03  0.27466535798E+03  0.12700000000E+01 0.  1.
         -4   -1    0    0    0  501 -0.00000000000E+00 -0.00000000000E+00 -0.14190744328E+02  0.14247460286E+02  0.12700000000E+01 0.  1.
         25    2    1    2    0    0  0.00000000000E+00  0.00000000000E+00  0.26047167752E+03  0.28891281827E+03  0.12500048708E+03 0.  0.
    9000005    1    3    3    0    0  0.12624876047E+02 -0.58881777794E+02  0.91641444880E+02  0.10966132258E+03  0.10000000000E+01 0.  0.
    9000005    1    3    3    0    0 -0.12624876047E+02  0.58881777794E+02  0.16883023264E+03  0.17925149568E+03  0.10000000000E+01 0.  0.
<mgrwt>
<rscale>  0 0.12500049E+03</rscale>
<asrwt>0</asrwt>
<pdfrwt beam="1">  1        4 0.68673060E-01 0.12500049E+03</pdfrwt>
<pdfrwt beam="2">  1       -4 0.35551427E-02 0.12500049E+03</pdfrwt>
<totfact> 0.13287436E+03</totfact>
</mgrwt>
</event>
<event>
 5    1  0.1435323E-002  0.1249986E+03  0.7818608E-02  0.1235072E+00
          4   -1    0    0  501    0  0.00000000000E+00  0.00000000000E+00  0.64151497591E+01  0.65396518586E+01  0.12700000000E+01 0.  1.
         -4   -1    0    0    0  501 -0.00000000000E+00 -0.00000000000E+00 -0.60291913856E+03  0.60292047613E+03  0.12700000000E+01 0.  1.
         25    2    1    2    0    0  0.00000000000E+00  0.00000000000E+00 -0.59650398880E+03  0.60946012799E+03  0.12499855582E+03 0.  0.
    9000005    1    3    3    0    0  0.11344219225E+02  0.54579568054E+02 -0.16055758200E+03  0.16996281269E+03  0.10000000000E+01 0.  0.
    9000005    1    3    3    0    0 -0.11344219225E+02 -0.54579568054E+02 -0.43594640680E+03  0.43949731530E+03  0.10000000000E+01 0.  0.
<mgrwt>
<rscale>  0 0.12499856E+03</rscale>
<asrwt>0</asrwt>
<pdfrwt beam="1">  1        4 0.16195194E-02 0.12499856E+03</pdfrwt>
<pdfrwt beam="2">  1       -4 0.15074532E+00 0.12499856E+03</pdfrwt>
<totfact> 0.72327736E+02</totfact>
</mgrwt>
</event>
<event>
 5    1  0.1435323E-002  0.1249956E+03  0.7818608E-02  0.1235076E+00
          4   -1    0    0  501    0  0.00000000000E+00  0.00000000000E+00  0.54110593109E+03  0.54110742146E+03  0.12700000000E+01 0. -1.
         -4   -1    0    0    0  501 -0.00000000000E+00 -0.00000000000E+00 -0.71611365006E+01  0.72728794834E+01  0.12700000000E+01 0. -1.
         25    2    1    2    0    0  0.00000000000E+00  0.00000000000E+00  0.53394479459E+03  0.54838030094E+03  0.12499564311E+03 0.  0.
    9000005    1    3    3    0    0  0.39138531252E+01 -0.61960152458E+02  0.29817981003E+03  0.30457606251E+03  0.10000000000E+01 0.  0.
    9000005    1    3    3    0    0 -0.39138531252E+01  0.61960152458E+02  0.23576498455E+03  0.24380423844E+03  0.10000000000E+01 0.  0.
<mgrwt>
<rscale>  0 0.12499564E+03</rscale>
<asrwt>0</asrwt>
<pdfrwt beam="1">  1        4 0.13529064E+00 0.12499564E+03</pdfrwt>
<pdfrwt beam="2">  1       -4 0.18044383E-02 0.12499564E+03</pdfrwt>
<totfact> 0.80400794E+02</totfact>
</mgrwt>
</event>
<event>
 5    1  0.1435323E-002  0.1250007E+03  0.7818608E-02  0.1235068E+00
          4   -1    0    0  501    0  0.00000000000E+00  0.00000000000E+00  0.46988917547E+02  0.47006076971E+02  0.12700000000E+01 0.  1.
         -4   -1    0    0    0  501 -0.00000000000E+00 -0.00000000000E+00 -0.83095023164E+02  0.83104727751E+02  0.12700000000E+01 0.  1.
         25    2    1    2    0    0  0.00000000000E+00  0.00000000000E+00 -0.36106105617E+02  0.13011080472E+03  0.12500068257E+03 0.  0.
    9000005    1    3    3    0    0 -0.13441808877E+02  0.77113583931E+01  0.44962330420E+02  0.47568460464E+02  0.10000000000E+01 0.  0.
    9000005    1    3    3    0    0  0.13441808877E+02 -0.77113583931E+01 -0.81068436037E+02  0.82542344258E+02  0.10000000000E+01 0.  0.
<mgrwt>
<rscale>  0 0.12500068E+03</rscale>
<asrwt>0</asrwt>
<pdfrwt beam="1">  1        4 0.11750588E-01 0.12500068E+03</pdfrwt>
<pdfrwt beam="2">  1       -4 0.20777114E-01 0.12500068E+03</pdfrwt>
<totfact> 0.19558116E+03</totfact>
</mgrwt>
</event>
<event>
 5    1  0.1435323E-002  0.1250028E+03  0.7818608E-02  0.1235065E+00
          4   -1    0    0  501    0  0.00000000000E+00  0.00000000000E+00  0.26018415066E+03  0.26018725018E+03  0.12700000000E+01 0.  1.
         -4   -1    0    0    0  501 -0.00000000000E+00 -0.00000000000E+00 -0.14984034073E+02  0.15037758380E+02  0.12700000000E+01 0.  1.
         25    2    1    2    0    0  0.00000000000E+00  0.00000000000E+00  0.24520011659E+03  0.27522500856E+03  0.12500283261E+03 0.  0.
    9000005    1    3    3    0    0  0.11080541473E+02  0.60122282980E+02  0.15113458174E+03  0.16303413479E+03  0.10000000000E+01 0.  0.
    9000005    1    3    3    0    0 -0.11080541473E+02 -0.60122282980E+02  0.94065534852E+02  0.11219087377E+03  0.10000000000E+01 0.  0.
<mgrwt>
<rscale>  0 0.12500283E+03</rscale>
<asrwt>0</asrwt>
<pdfrwt beam="1">  1        4 0.65053139E-01 0.12500283E+03</pdfrwt>
<pdfrwt beam="2">  1       -4 0.37531116E-02 0.12500283E+03</pdfrwt>
<totfact> 0.13694087E+03</totfact>
</mgrwt>
</event>
<event>
 5    1  0.1435323E-002  0.1249990E+03  0.7818608E-02  0.1235071E+00
          4   -1    0    0  501    0  0.00000000000E+00  0.00000000000E+00  0.11166148641E+03  0.11166870845E+03  0.12700000000E+01 0.  1.
         -4   -1    0    0    0  501 -0.00000000000E+00 -0.00000000000E+00 -0.34962507050E+02  0.34985565584E+02  0.12700000000E+01 0.  1.
         25    2    1    2    0    0  0.00000000000E+00  0.00000000000E+00  0.76698979358E+02  0.14665427403E+03  0.12499897063E+03 0.  0.
    9000005    1    3    3    0    0  0.18202242632E+02  0.42237867802E+02  0.87985145104E+02  0.99286176642E+02  0.10000000000E+01 0.  0.
    9000005    1    3    3    0    0 -0.18202242632E+02 -0.42237867802E+02 -0.11286165746E+02  0.47368097392E+02  0.10000000000E+01 0.  0.
<mgrwt>
<rscale>  0 0.12499897E+03</rscale>
<asrwt>0</asrwt>
<pdfrwt beam="1">  1        4 0.27919156E-01 0.12499897E+03</pdfrwt>
<pdfrwt beam="2">  1       -4 0.87444120E-02 0.12499897E+03</pdfrwt>
<totfact> 0.18704971E+03</totfact>
</mgrwt>
</event>
<event>
 5    1  0.1435323E-002  0.1250060E+03  0.7818608E-02  0.1235060E+00
          4   -1    0    0  501    0  0.00000000000E+00  0.00000000000E+00  0.30409615530E+02  0.30436123548E+02  0.12700000000E+01 0. -1.
         -4   -1    0    0    0  501 -0.00000000000E+00 -0.00000000000E+00 -0.12838106915E+03  0.12838735068E+03  0.12700000000E+01 0. -1.
         25    2    1    2    0    0  0.00000000000E+00  0.00000000000E+00 -0.97971453619E+02  0.15882347423E+03  0.12500596083E+03 0.  0.
    9000005    1    3    3    0    0  0.53010962280E+02  0.29931182009E+02 -0.66935033651E+02  0.90483901929E+02  0.10000000000E+01 0.  0.
    9000005    1    3    3    0    0 -0.53010962280E+02 -0.29931182009E+02 -0.31036419967E+02  0.68339572304E+02  0.10000000000E+01 0.  0.
<mgrwt>
<rscale>  0 0.12500596E+03</rscale>
<asrwt>0</asrwt>
<pdfrwt beam="1">  1        4 0.76065029E-02 0.12500596E+03</pdfrwt>
<pdfrwt beam="2">  1       -4 0.32099365E-01 0.12500596E+03</pdfrwt>
<totfact> 0.18110755E+03</totfact>
</mgrwt>
</event>
<event>
 5    1  0.1435323E-002  0.1250024E+03  0.7818608E-02  0.1235066E+00
          4   -1    0    0  501    0  0.00000000000E+00  0.00000000000E+00  0.13661937955E+03  0.13662528231E+03  0.12700000000E+01 0.  1.
         -4   -1    0    0    0  501 -0.00000000000E+00 -0.00000000000E+00 -0.28572665425E+02  0.28600876026E+02  0.12700000000E+01 0.  1.
         25    2    1    2    0    0  0.00000000000E+00  0.00000000000E+00  0.10804671412E+03  0.16522615834E+03  0.12500236385E+03 0.  0.
    9000005    1    3    3    0    0  0.55204294286E+02 -0.29275736508E+02  0.52830168537E+02  0.81832814710E+02  0.10000000000E+01 0.  0.
    9000005    1    3    3    0    0 -0.55204294286E+02  0.29275736508E+02  0.55216545585E+02  0.83393343631E+02  0.10000000000E+01 0.  0.
<mgrwt>
<rscale>  0 0.12500236E+03</rscale>
<asrwt>0</asrwt>
<pdfrwt beam="1">  1        4 0.34159108E-01 0.12500236E+03</pdfrwt>
<pdfrwt beam="2">  1       -4 0.71474307E-02 0.12500236E+03</pdfrwt>
<totfact> 0.17813564E+03</totfact>
</mgrwt>
</event>
<event>
 5    1  0.1435323E-002  0.1250005E+03  0.7818608E-02  0.1235069E+00
         -4   -1    0    0    0  501 -0.00000000000E+00  0.00000000000E+00  0.50924652843E+02  0.50940486523E+02  0.12700000000E+01 0. -1.
          4   -1    0    0  501    0  0.00000000000E+00 -0.00000000000E+00 -0.76674027279E+02  0.76684544461E+02  0.12700000000E+01 0. -1.
         25    2    1    2    0    0  0.00000000000E+00  0.00000000000E+00 -0.25749374435E+02  0.12762503098E+03  0.12500047300E+03 0.  0.
    9000005    1    3    3    0    0 -0.26227429862E+02  0.54466773500E+01  0.44770801117E+02  0.52182075505E+02  0.10000000000E+01 0.  0.
    9000005    1    3    3    0    0  0.26227429862E+02 -0.54466773500E+01 -0.70520175553E+02  0.75442955478E+02  0.10000000000E+01 0.  0.
<mgrwt>
<rscale>  0 0.12500047E+03</rscale>
<asrwt>0</asrwt>
<pdfrwt beam="2">  1        4 0.19171801E-01 0.12500047E+03</pdfrwt>
<pdfrwt beam="1">  1       -4 0.12734457E-01 0.12500047E+03</pdfrwt>
<totfact> 0.19692744E+03</totfact>
</mgrwt>
</event>
<event>
 5    1  0.1435323E-002  0.1250003E+03  0.7818608E-02  0.1235069E+00
          4   -1    0    0  501    0  0.00000000000E+00  0.00000000000E+00  0.45048068741E+02  0.45065967173E+02  0.12700000000E+01 0.  1.
         -4   -1    0    0    0  501 -0.00000000000E+00 -0.00000000000E+00 -0.86673632887E+02  0.86682936832E+02  0.12700000000E+01 0.  1.
         25    2    1    2    0    0  0.00000000000E+00  0.00000000000E+00 -0.41625564146E+02  0.13174890401E+03  0.12500034446E+03 0.  0.
    9000005    1    3    3    0    0 -0.32371525754E+02 -0.51558628850E+02 -0.35683494404E+02  0.70572796894E+02  0.10000000000E+01 0.  0.
    9000005    1    3    3    0    0  0.32371525754E+02  0.51558628850E+02 -0.59420697423E+01  0.61176107112E+02  0.10000000000E+01 0.  0.
<mgrwt>
<rscale>  0 0.12500034E+03</rscale>
<asrwt>0</asrwt>
<pdfrwt beam="1">  1        4 0.11265418E-01 0.12500034E+03</pdfrwt>
<pdfrwt beam="2">  1       -4 0.21671808E-01 0.12500034E+03</pdfrwt>
<totfact> 0.19470660E+03</totfact>
</mgrwt>
</event>
<event>
 5    1  0.1435323E-002  0.1250003E+03  0.7818608E-02  0.1235069E+00
          4   -1    0    0  501    0  0.00000000000E+00  0.00000000000E+00  0.53398348329E+03  0.53398499354E+03  0.12700000000E+01 0.  1.
         -4   -1    0    0    0  501 -0.00000000000E+00 -0.00000000000E+00 -0.72586796444E+01  0.73689436271E+01  0.12700000000E+01 0.  1.
         25    2    1    2    0    0  0.00000000000E+00  0.00000000000E+00  0.52672480365E+03  0.54135393717E+03  0.12500026605E+03 0.  0.
    9000005    1    3    3    0    0  0.40547845031E+02 -0.25099590394E+02  0.88451354689E+02  0.10049258341E+03  0.10000000000E+01 0.  0.
    9000005    1    3    3    0    0 -0.40547845031E+02  0.25099590394E+02  0.43827344896E+03  0.44086135375E+03  0.10000000000E+01 0.  0.
<mgrwt>
<rscale>  0 0.12500027E+03</rscale>
<asrwt>0</asrwt>
<pdfrwt beam="1">  1        4 0.13350985E+00 0.12500027E+03</pdfrwt>
<pdfrwt beam="2">  1       -4 0.18286416E-02 0.12500027E+03</pdfrwt>
<totfact> 0.81383908E+02</totfact>
</mgrwt>
</event>
<event>
 5    1  0.1435323E-002  0.1249987E+03  0.7818608E-02  0.1235071E+00
          4   -1    0    0  501    0  0.00000000000E+00  0.00000000000E+00  0.17295366626E+02  0.17341932036E+02  0.12700000000E+01 0.  1.
         -4   -1    0    0    0  501 -0.00000000000E+00 -0.00000000000E+00 -0.22549848243E+03  0.22550205871E+03  0.12700000000E+01 0.  1.
         25    2    1    2    0    0  0.00000000000E+00  0.00000000000E+00 -0.20820311581E+03  0.24284399074E+03  0.12499866562E+03 0.  0.
    9000005    1    3    3    0    0  0.14895909723E+02 -0.32851311129E+02 -0.20324141704E+03  0.20641988850E+03  0.10000000000E+01 0.  0.
    9000005    1    3    3    0    0 -0.14895909723E+02  0.32851311129E+02 -0.49616987720E+01  0.36424102241E+02  0.10000000000E+01 0.  0.
<mgrwt>
<rscale>  0 0.12499867E+03</rscale>
<asrwt>0</asrwt>
<pdfrwt beam="1">  1        4 0.43301101E-02 0.12499867E+03</pdfrwt>
<pdfrwt beam="2">  1       -4 0.56380879E-01 0.12499867E+03</pdfrwt>
<totfact> 0.14739426E+03</totfact>
</mgrwt>
</event>
<event>
 5    1  0.1435323E-002  0.1250000E+03  0.7818608E-02  0.1235069E+00
         -4   -1    0    0    0  501 -0.00000000000E+00  0.00000000000E+00  0.11599712553E+02  0.11669028722E+02  0.12700000000E+01 0. -1.
          4   -1    0    0  501    0  0.00000000000E+00 -0.00000000000E+00 -0.33568053381E+03  0.33568293623E+03  0.12700000000E+01 0. -1.
         25    2    1    2    0    0  0.00000000000E+00  0.00000000000E+00 -0.32408082125E+03  0.34735196495E+03  0.12500003541E+03 0.  0.
    9000005    1    3    3    0    0  0.20297138220E+01 -0.84863213868E+01 -0.33399303911E+03  0.33410849669E+03  0.10000000000E+01 0.  0.
    9000005    1    3    3    0    0 -0.20297138220E+01  0.84863213868E+01  0.99122178525E+01  0.13243468263E+02  0.10000000000E+01 0.  0.
<mgrwt>
<rscale>  0 0.12500004E+03</rscale>
<asrwt>0</asrwt>
<pdfrwt beam="2">  1        4 0.83929066E-01 0.12500004E+03</pdfrwt>
<pdfrwt beam="1">  1       -4 0.29088941E-02 0.12500004E+03</pdfrwt>
<totfact> 0.11740730E+03</totfact>
</mgrwt>
</event>
<event>
 5    1  0.1435323E-002  0.1250023E+03  0.7818608E-02  0.1235066E+00
          4   -1    0    0  501    0  0.00000000000E+00  0.00000000000E+00  0.95197245231E+03  0.95197329945E+03  0.12700000000E+01 0. -1.
         -4   -1    0    0    0  501 -0.00000000000E+00 -0.00000000000E+00 -0.40043427887E+01  0.42009119450E+01  0.12700000000E+01 0. -1.
         25    2    1    2    0    0  0.00000000000E+00  0.00000000000E+00  0.94796810952E+03  0.95617421139E+03  0.12500234341E+03 0.  0.
    9000005    1    3    3    0    0 -0.55483420777E+02 -0.12890076310E+02  0.27734737121E+03  0.28313800233E+03  0.10000000000E+01 0.  0.
    9000005    1    3    3    0    0  0.55483420777E+02  0.12890076310E+02  0.67062073831E+03  0.67303620906E+03  0.10000000000E+01 0.  0.
<mgrwt>
<rscale>  0 0.12500234E+03</rscale>
<asrwt>0</asrwt>
<pdfrwt beam="1">  1        4 0.23801783E+00 0.12500234E+03</pdfrwt>
<pdfrwt beam="2">  1       -4 0.10257626E-02 0.12500234E+03</pdfrwt>
<totfact> 0.40134614E+02</totfact>
</mgrwt>
</event>
<event>
 5    1  0.1435323E-002  0.1249841E+03  0.7818608E-02  0.1235094E+00
          4   -1    0    0  501    0  0.00000000000E+00  0.00000000000E+00  0.10195541510E+04  0.10195549420E+04  0.12700000000E+01 0.  1.
         -4   -1    0    0    0  501 -0.00000000000E+00 -0.00000000000E+00 -0.37242694276E+01  0.39348548601E+01  0.12700000000E+01 0.  1.
         25    2    1    2    0    0  0.00000000000E+00  0.00000000000E+00  0.10158298815E+04  0.10234897968E+04  0.12498406277E+03 0.  0.
    9000005    1    3    3    0    0  0.25687194131E+02  0.45057658353E+01  0.42934712395E+02  0.50244635501E+02  0.10000000000E+01 0.  0.
    9000005    1    3    3    0    0 -0.25687194131E+02 -0.45057658353E+01  0.97289516915E+03  0.97324516131E+03  0.10000000000E+01 0.  0.
<mgrwt>
<rscale>  0 0.12498406E+03</rscale>
<asrwt>0</asrwt>
<pdfrwt beam="1">  1        4 0.25491501E+00 0.12498406E+03</pdfrwt>
<pdfrwt beam="2">  1       -4 0.95748923E-03 0.12498406E+03</pdfrwt>
<totfact> 0.35564399E+02</totfact>
</mgrwt>
</event>
<event>
 5    1  0.1435323E-002  0.1250001E+03  0.7818608E-02  0.1235069E+00
          4   -1    0    0  501    0  0.00000000000E+00  0.00000000000E+00  0.11866276098E+03  0.11866955694E+03  0.12700000000E+01 0.  1.
         -4   -1    0    0    0  501 -0.00000000000E+00 -0.00000000000E+00 -0.32898962270E+02  0.32923466076E+02  0.12700000000E+01 0.  1.
         25    2    1    2    0    0  0.00000000000E+00  0.00000000000E+00  0.85763798713E+02  0.15159302302E+03  0.12500006183E+03 0.  0.
    9000005    1    3    3    0    0  0.26575168961E+02 -0.22580195051E+02  0.10577115044E+03  0.11137612437E+03  0.10000000000E+01 0.  0.
    9000005    1    3    3    0    0 -0.26575168961E+02  0.22580195051E+02 -0.20007351725E+02  0.40216898649E+02  0.10000000000E+01 0.  0.
<mgrwt>
<rscale>  0 0.12500006E+03</rscale>
<asrwt>0</asrwt>
<pdfrwt beam="1">  1        4 0.29669602E-01 0.12500006E+03</pdfrwt>
<pdfrwt beam="2">  1       -4 0.82286531E-02 0.12500006E+03</pdfrwt>
<totfact> 0.18460702E+03</totfact>
</mgrwt>
</event>
<event>
 5    1  0.1435323E-002  0.1250014E+03  0.7818608E-02  0.1235067E+00
          4   -1    0    0  501    0  0.00000000000E+00  0.00000000000E+00  0.10382458413E+03  0.10383235127E+03  0.12700000000E+01 0.  1.
         -4   -1    0    0    0  501 -0.00000000000E+00 -0.00000000000E+00 -0.37604523157E+02  0.37625962604E+02  0.12700000000E+01 0.  1.
         25    2    1    2    0    0  0.00000000000E+00  0.00000000000E+00  0.66220060972E+02  0.14145831387E+03  0.12500143234E+03 0.  0.
    9000005    1    3    3    0    0 -0.31876837210E+02  0.17473511459E+02  0.90634142619E+02  0.97657586298E+02  0.10000000000E+01 0.  0.
    9000005    1    3    3    0    0  0.31876837210E+02 -0.17473511459E+02 -0.24414081646E+02  0.43800727572E+02  0.10000000000E+01 0.  0.
<mgrwt>
<rscale>  0 0.12500143E+03</rscale>
<asrwt>0</asrwt>
<pdfrwt beam="1">  1        4 0.25959797E-01 0.12500143E+03</pdfrwt>
<pdfrwt beam="2">  1       -4 0.94047817E-02 0.12500143E+03</pdfrwt>
<totfact> 0.18965351E+03</totfact>
</mgrwt>
</event>
<event>
 5    1  0.1435323E-002  0.1249982E+03  0.7818608E-02  0.1235072E+00
         -4   -1    0    0    0  501 -0.00000000000E+00  0.00000000000E+00  0.67106851834E+03  0.67106972008E+03  0.12700000000E+01 0. -1.
          4   -1    0    0  501    0  0.00000000000E+00 -0.00000000000E+00 -0.57502745506E+01  0.58888502619E+01  0.12700000000E+01 0. -1.
         25    2    1    2    0    0  0.00000000000E+00  0.00000000000E+00  0.66531824379E+03  0.67695857034E+03  0.12499816174E+03 0.  0.
    9000005    1    3    3    0    0  0.43276757463E+02 -0.32103539480E+02  0.16125945015E+03  0.17002683684E+03  0.10000000000E+01 0.  0.
    9000005    1    3    3    0    0 -0.43276757463E+02  0.32103539480E+02  0.50405879364E+03  0.50693173350E+03  0.10000000000E+01 0.  0.
<mgrwt>
<rscale>  0 0.12499816E+03</rscale>
<asrwt>0</asrwt>
<pdfrwt beam="2">  1        4 0.14550409E-02 0.12499816E+03</pdfrwt>
<pdfrwt beam="1">  1       -4 0.16778459E+00 0.12499816E+03</pdfrwt>
<totfact> 0.64511513E+02</totfact>
</mgrwt>
</event>
<event>
 5    1  0.1435323E-002  0.1250000E+03  0.7818608E-02  0.1235069E+00
         -4   -1    0    0    0  501 -0.00000000000E+00  0.00000000000E+00  0.75266457541E+02  0.75277171379E+02  0.12700000000E+01 0.  1.
          4   -1    0    0  501    0  0.00000000000E+00 -0.00000000000E+00 -0.51876749645E+02  0.51892292816E+02  0.12700000000E+01 0.  1.
         25    2    1    2    0    0  0.00000000000E+00  0.00000000000E+00  0.23389707896E+02  0.12716946420E+03  0.12499997675E+03 0.  0.
    9000005    1    3    3    0    0 -0.26259708436E+02 -0.41541150996E+02  0.50965437966E+02  0.70807594087E+02  0.10000000000E+01 0.  0.
    9000005    1    3    3    0    0  0.26259708436E+02  0.41541150996E+02 -0.27575730070E+02  0.56361870109E+02  0.10000000000E+01 0.  0.
<mgrwt>
<rscale>  0 0.12499998E+03</rscale>
<asrwt>0</asrwt>
<pdfrwt beam="2">  1        4 0.12972470E-01 0.12499998E+03</pdfrwt>
<pdfrwt beam="1">  1       -4 0.18819896E-01 0.12499998E+03</pdfrwt>
<totfact> 0.19717817E+03</totfact>
</mgrwt>
</event>
<event>
 5    1  0.1435323E-002  0.1250011E+03  0.7818608E-02  0.1235068E+00
          4   -1    0    0  501    0  0.00000000000E+00  0.00000000000E+00  0.55775515438E+01  0.57203130355E+01  0.12700000000E+01 0. -1.
         -4   -1    0    0    0  501 -0.00000000000E+00 -0.00000000000E+00 -0.69137102177E+03  0.69137218822E+03  0.12700000000E+01 0. -1.
         25    2    1    2    0    0  0.00000000000E+00  0.00000000000E+00 -0.68579347022E+03  0.69709250125E+03  0.12500108600E+03 0.  0.
    9000005    1    3    3    0    0  0.57683047575E+02  0.16425638341E+02 -0.24499723533E+03  0.25223358399E+03  0.10000000000E+01 0.  0.
    9000005    1    3    3    0    0 -0.57683047575E+02 -0.16425638341E+02 -0.44079623490E+03  0.44485891727E+03  0.10000000000E+01 0.  0.
<mgrwt>
<rscale>  0 0.12500109E+03</rscale>
<asrwt>0</asrwt>
<pdfrwt beam="1">  1        4 0.14123812E-02 0.12500109E+03</pdfrwt>
<pdfrwt beam="2">  1       -4 0.17286046E+00 0.12500109E+03</pdfrwt>
<totfact> 0.62367198E+02</totfact>
</mgrwt>
</event>
<event>
 5    1  0.1435323E-002  0.1250019E+03  0.7818608E-02  0.1235066E+00
          4   -1    0    0  501    0  0.00000000000E+00  0.00000000000E+00  0.13099224271E+02  0.13160644988E+02  0.12700000000E+01 0.  1.
         -4   -1    0    0    0  501 -0.00000000000E+00 -0.00000000000E+00 -0.29745369582E+03  0.29745640699E+03  0.12700000000E+01 0.  1.
         25    2    1    2    0    0  0.00000000000E+00  0.00000000000E+00 -0.28435447155E+03  0.31061705198E+03  0.12500194993E+03 0.  0.
    9000005    1    3    3    0    0  0.60583648743E+02  0.15235322223E+02 -0.14639302665E+03  0.15916787298E+03  0.10000000000E+01 0.  0.
    9000005    1    3    3    0    0 -0.60583648743E+02 -0.15235322223E+02 -0.13796144490E+03  0.15144917899E+03  0.10000000000E+01 0.  0.
<mgrwt>
<rscale>  0 0.12500195E+03</rscale>
<asrwt>0</asrwt>
<pdfrwt beam="1">  1        4 0.32828235E-02 0.12500195E+03</pdfrwt>
<pdfrwt beam="2">  1       -4 0.74371418E-01 0.12500195E+03</pdfrwt>
<totfact> 0.12678061E+03</totfact>
</mgrwt>
</event>
<event>
 5    1  0.1435323E-002  0.1250049E+03  0.7818608E-02  0.1235062E+00
          4   -1    0    0  501    0  0.00000000000E+00  0.00000000000E+00  0.18509050354E+03  0.18509486055E+03  0.12700000000E+01 0. -1.
         -4   -1    0    0    0  501 -0.00000000000E+00 -0.00000000000E+00 -0.21082476777E+02  0.21120694285E+02  0.12700000000E+01 0. -1.
         25    2    1    2    0    0  0.00000000000E+00  0.00000000000E+00  0.16400802676E+03  0.20621555483E+03  0.12500488875E+03 0.  0.
    9000005    1    3    3    0    0  0.57002204517E+02  0.34074592155E+01  0.40117804553E+02  0.69794701377E+02  0.10000000000E+01 0.  0.
    9000005    1    3    3    0    0 -0.57002204517E+02 -0.34074592155E+01  0.12389022221E+03  0.13642085345E+03  0.10000000000E+01 0.  0.
<mgrwt>
<rscale>  0 0.12500489E+03</rscale>
<asrwt>0</asrwt>
<pdfrwt beam="1">  1        4 0.46277947E-01 0.12500489E+03</pdfrwt>
<pdfrwt beam="2">  1       -4 0.52759411E-02 0.12500489E+03</pdfrwt>
<totfact> 0.16074334E+03</totfact>
</mgrwt>
</event>
<event>
 5    1  0.1435323E-002  0.1249982E+03  0.7818608E-02  0.1235072E+00
         -4   -1    0    0    0  501 -0.00000000000E+00  0.00000000000E+00  0.61897575461E+02  0.61910602872E+02  0.12700000000E+01 0. -1.
          4   -1    0    0  501    0  0.00000000000E+00 -0.00000000000E+00 -0.63080447332E+02  0.63093230505E+02  0.12700000000E+01 0. -1.
         25    2    1    2    0    0  0.00000000000E+00  0.00000000000E+00 -0.11828718705E+01  0.12500383338E+03  0.12499823668E+03 0.  0.
    9000005    1    3    3    0    0  0.25763947198E+02 -0.54274112102E+01 -0.57267618347E+02  0.63038225537E+02  0.10000000000E+01 0.  0.
    9000005    1    3    3    0    0 -0.25763947198E+02  0.54274112102E+01  0.56084746477E+02  0.61965607840E+02  0.10000000000E+01 0.  0.
<mgrwt>
<rscale>  0 0.12499824E+03</rscale>
<asrwt>0</asrwt>
<pdfrwt beam="2">  1        4 0.15773338E-01 0.12499824E+03</pdfrwt>
<pdfrwt beam="1">  1       -4 0.15477620E-01 0.12499824E+03</pdfrwt>
<totfact> 0.19835666E+03</totfact>
</mgrwt>
</event>
<event>
 5    1  0.1435323E-002  0.1250104E+03  0.7818608E-02  0.1235053E+00
          4   -1    0    0  501    0  0.00000000000E+00  0.00000000000E+00  0.70756661735E+01  0.71887378447E+01  0.12700000000E+01 0.  1.
         -4   -1    0    0    0  501 -0.00000000000E+00 -0.00000000000E+00 -0.54766921523E+03  0.54767068774E+03  0.12700000000E+01 0.  1.
         25    2    1    2    0    0  0.00000000000E+00  0.00000000000E+00 -0.54059354906E+03  0.55485942559E+03  0.12501038709E+03 0.  0.
    9000005    1    3    3    0    0  0.19283449950E+01  0.39078325372E+02 -0.53987751704E+02  0.66682166749E+02  0.10000000000E+01 0.  0.
    9000005    1    3    3    0    0 -0.19283449950E+01 -0.39078325372E+02 -0.48660579735E+03  0.48817725884E+03  0.10000000000E+01 0.  0.
<mgrwt>
<rscale>  0 0.12501039E+03</rscale>
<asrwt>0</asrwt>
<pdfrwt beam="1">  1        4 0.17832364E-02 0.12501039E+03</pdfrwt>
<pdfrwt beam="2">  1       -4 0.13693148E+00 0.12501039E+03</pdfrwt>
<totfact> 0.79473420E+02</totfact>
</mgrwt>
</event>
<event>
 5    1  0.1435323E-002  0.1250021E+03  0.7818608E-02  0.1235066E+00
          4   -1    0    0  501    0  0.00000000000E+00  0.00000000000E+00  0.43757629832E+03  0.43757814131E+03  0.12700000000E+01 0. -1.
         -4   -1    0    0    0  501 -0.00000000000E+00 -0.00000000000E+00 -0.88802760463E+01  0.89706300034E+01  0.12700000000E+01 0. -1.
         25    2    1    2    0    0  0.00000000000E+00  0.00000000000E+00  0.42869602227E+03  0.44654877131E+03  0.12500210257E+03 0.  0.
    9000005    1    3    3    0    0  0.37811834946E+01  0.41173778559E+02  0.46950741970E+02  0.62569557781E+02  0.10000000000E+01 0.  0.
    9000005    1    3    3    0    0 -0.37811834946E+01 -0.41173778559E+02  0.38174528030E+03  0.38397921353E+03  0.10000000000E+01 0.  0.
<mgrwt>
<rscale>  0 0.12500210E+03</rscale>
<asrwt>0</asrwt>
<pdfrwt beam="1">  1        4 0.10940560E+00 0.12500210E+03</pdfrwt>
<pdfrwt beam="2">  1       -4 0.22315937E-02 0.12500210E+03</pdfrwt>
<totfact> 0.96635291E+02</totfact>
</mgrwt>
</event>
<event>
 5    1  0.1435323E-002  0.1250061E+03  0.7818608E-02  0.1235060E+00
         -4   -1    0    0    0  501 -0.00000000000E+00  0.00000000000E+00  0.29964015296E+02  0.29990917169E+02  0.12700000000E+01 0. -1.
          4   -1    0    0  501    0  0.00000000000E+00 -0.00000000000E+00 -0.13028903381E+03  0.13029522337E+03  0.12700000000E+01 0. -1.
         25    2    1    2    0    0  0.00000000000E+00  0.00000000000E+00 -0.10032501852E+03  0.16028614054E+03  0.12500614988E+03 0.  0.
    9000005    1    3    3    0    0 -0.22542070197E+02  0.17395752601E+02  0.21169803655E+02  0.35495319750E+02  0.10000000000E+01 0.  0.
    9000005    1    3    3    0    0  0.22542070197E+02 -0.17395752601E+02 -0.12149482217E+03  0.12479082079E+03  0.10000000000E+01 0.  0.
<mgrwt>
<rscale>  0 0.12500615E+03</rscale>
<asrwt>0</asrwt>
<pdfrwt beam="2">  1        4 0.32576393E-01 0.12500615E+03</pdfrwt>
<pdfrwt beam="1">  1       -4 0.74951406E-02 0.12500615E+03</pdfrwt>
<totfact> 0.18041718E+03</totfact>
</mgrwt>
</event>
<event>
 5    1  0.1435323E-002  0.1249980E+03  0.7818608E-02  0.1235072E+00
         -4   -1    0    0    0  501 -0.00000000000E+00  0.00000000000E+00  0.52507366117E+02  0.52522722669E+02  0.12700000000E+01 0. -1.
          4   -1    0    0  501    0  0.00000000000E+00 -0.00000000000E+00 -0.74360275730E+02  0.74371120111E+02  0.12700000000E+01 0. -1.
         25    2    1    2    0    0  0.00000000000E+00  0.00000000000E+00 -0.21852909613E+02  0.12689384278E+03  0.12499799069E+03 0.  0.
    9000005    1    3    3    0    0  0.12162146680E+02  0.53857736706E+02 -0.40637236701E+02  0.68563537114E+02  0.10000000000E+01 0.  0.
    9000005    1    3    3    0    0 -0.12162146680E+02 -0.53857736706E+02  0.18784327088E+02  0.58330305666E+02  0.10000000000E+01 0.  0.
<mgrwt>
<rscale>  0 0.12499799E+03</rscale>
<asrwt>0</asrwt>
<pdfrwt beam="2">  1        4 0.18593344E-01 0.12499799E+03</pdfrwt>
<pdfrwt beam="1">  1       -4 0.13130117E-01 0.12499799E+03</pdfrwt>
<totfact> 0.19733622E+03</totfact>
</mgrwt>
</event>
