<event>
 5    1  0.1438401E-002  0.1249920E+03  0.7818608E-02  0.1235082E+00
         -4   -1    0    0    0  501 -0.00000000000E+00  0.00000000000E+00  0.14141320146E+02  0.14198233534E+02  0.12700000000E+01 0.  1.
          4   -1    0    0  501    0  0.00000000000E+00 -0.00000000000E+00 -0.27558121194E+03  0.27558413829E+03  0.12700000000E+01 0.  1.
         25    2    1    2    0    0  0.00000000000E+00  0.00000000000E+00 -0.26143989179E+03  0.28978237182E+03  0.12499202373E+03 0.  0.
    9000005    1    3    3    0    0 -0.13939443120E+02 -0.13665143311E+02 -0.26834248779E+03  0.26905340543E+03  0.10000000000E+01 0.  0.
    9000005    1    3    3    0    0  0.13939443120E+02  0.13665143311E+02  0.69025959991E+01  0.20728966393E+02  0.10000000000E+01 0.  0.
<mgrwt>
<rscale>  0 0.12499202E+03</rscale>
<asrwt>0</asrwt>
<pdfrwt beam="2">  1        4 0.68902766E-01 0.12499202E+03</pdfrwt>
<pdfrwt beam="1">  1       -4 0.35428109E-02 0.12499202E+03</pdfrwt>
<totfact> 0.13264762E+03</totfact>
</mgrwt>
</event>
<event>
 5    1  0.1438401E-002  0.1249984E+03  0.7818608E-02  0.1235072E+00
         -4   -1    0    0    0  501 -0.00000000000E+00  0.00000000000E+00  0.26780316633E+03  0.26780617767E+03  0.12700000000E+01 0. -1.
          4   -1    0    0  501    0  0.00000000000E+00 -0.00000000000E+00 -0.14555157614E+02  0.14610459034E+02  0.12700000000E+01 0. -1.
         25    2    1    2    0    0  0.00000000000E+00  0.00000000000E+00  0.25324800872E+03  0.28241663670E+03  0.12499841106E+03 0.  0.
    9000005    1    3    3    0    0 -0.63936358787E+01  0.47057372252E+02  0.34851747013E+02  0.58914506982E+02  0.10000000000E+01 0.  0.
    9000005    1    3    3    0    0  0.63936358787E+01 -0.47057372252E+02  0.21839626170E+03  0.22350212972E+03  0.10000000000E+01 0.  0.
<mgrwt>
<rscale>  0 0.12499841E+03</rscale>
<asrwt>0</asrwt>
<pdfrwt beam="2">  1        4 0.36460784E-02 0.12499841E+03</pdfrwt>
<pdfrwt beam="1">  1       -4 0.66958082E-01 0.12499841E+03</pdfrwt>
<totfact> 0.13479068E+03</totfact>
</mgrwt>
</event>
<event>
 5    1  0.1438401E-002  0.1249972E+03  0.7818608E-02  0.1235074E+00
         -4   -1    0    0    0  501 -0.00000000000E+00  0.00000000000E+00  0.60609277487E+01  0.61925556255E+01  0.12700000000E+01 0.  1.
          4   -1    0    0  501    0  0.00000000000E+00 -0.00000000000E+00 -0.63741289981E+03  0.63741416500E+03  0.12700000000E+01 0.  1.
         25    2    1    2    0    0  0.00000000000E+00  0.00000000000E+00 -0.63135197206E+03  0.64360672062E+03  0.12499719281E+03 0.  0.
    9000005    1    3    3    0    0 -0.41087418643E+02 -0.45842541266E+02 -0.26037308428E+03  0.26755346677E+03  0.10000000000E+01 0.  0.
    9000005    1    3    3    0    0  0.41087418643E+02  0.45842541266E+02 -0.37097888778E+03  0.37605325386E+03  0.10000000000E+01 0.  0.
<mgrwt>
<rscale>  0 0.12499719E+03</rscale>
<asrwt>0</asrwt>
<pdfrwt beam="2">  1        4 0.15936961E+00 0.12499719E+03</pdfrwt>
<pdfrwt beam="1">  1       -4 0.15318457E-02 0.12499719E+03</pdfrwt>
<totfact> 0.68251676E+02</totfact>
</mgrwt>
</event>
<event>
 5    1  0.1438401E-002  0.1250029E+03  0.7818608E-02  0.1235065E+00
          4   -1    0    0  501    0  0.00000000000E+00  0.00000000000E+00  0.13010071258E+02  0.13071910884E+02  0.12700000000E+01 0.  1.
         -4   -1    0    0    0  501 -0.00000000000E+00 -0.00000000000E+00 -0.29948717867E+03  0.29948987143E+03  0.12700000000E+01 0.  1.
         25    2    1    2    0    0  0.00000000000E+00  0.00000000000E+00 -0.28647710741E+03  0.31256178231E+03  0.12500293873E+03 0.  0.
    9000005    1    3    3    0    0  0.11801768769E+02 -0.34477303267E+02 -0.27018257433E+03  0.27263086703E+03  0.10000000000E+01 0.  0.
    9000005    1    3    3    0    0 -0.11801768769E+02  0.34477303267E+02 -0.16294533080E+02  0.39930915278E+02  0.10000000000E+01 0.  0.
<mgrwt>
<rscale>  0 0.12500294E+03</rscale>
<asrwt>0</asrwt>
<pdfrwt beam="1">  1        4 0.32605853E-02 0.12500294E+03</pdfrwt>
<pdfrwt beam="2">  1       -4 0.74879839E-01 0.12500294E+03</pdfrwt>
<totfact> 0.12625304E+03</totfact>
</mgrwt>
</event>
<event>
 5    1  0.1438401E-002  0.1249988E+03  0.7818608E-02  0.1235071E+00
         -4   -1    0    0    0  501 -0.00000000000E+00  0.00000000000E+00  0.77969845865E+02  0.77980188280E+02  0.12700000000E+01 0.  1.
          4   -1    0    0  501    0  0.00000000000E+00 -0.00000000000E+00 -0.50076843818E+02  0.50092945479E+02  0.12700000000E+01 0.  1.
         25    2    1    2    0    0  0.00000000000E+00  0.00000000000E+00  0.27893002046E+02  0.12807313376E+03  0.12499883211E+03 0.  0.
    9000005    1    3    3    0    0  0.95006837866E+00 -0.61486993577E+02  0.25338592743E+02  0.66517646465E+02  0.10000000000E+01 0.  0.
    9000005    1    3    3    0    0 -0.95006837866E+00  0.61486993577E+02  0.25544093030E+01  0.61555487294E+02  0.10000000000E+01 0.  0.
<mgrwt>
<rscale>  0 0.12499883E+03</rscale>
<asrwt>0</asrwt>
<pdfrwt beam="2">  1        4 0.12522517E-01 0.12499883E+03</pdfrwt>
<pdfrwt beam="1">  1       -4 0.19495767E-01 0.12499883E+03</pdfrwt>
<totfact> 0.19669092E+03</totfact>
</mgrwt>
</event>
<event>
 5    1  0.1438401E-002  0.1249996E+03  0.7818608E-02  0.1235070E+00
         -4   -1    0    0    0  501 -0.00000000000E+00  0.00000000000E+00  0.54456988637E+01  0.55918276184E+01  0.12700000000E+01 0. -1.
          4   -1    0    0  501    0  0.00000000000E+00 -0.00000000000E+00 -0.70766082536E+03  0.70766196495E+03  0.12700000000E+01 0. -1.
         25    2    1    2    0    0  0.00000000000E+00  0.00000000000E+00 -0.70221512649E+03  0.71325379257E+03  0.12499955498E+03 0.  0.
    9000005    1    3    3    0    0  0.58259057564E+02  0.22365006138E+02 -0.33225953681E+03  0.33807057117E+03  0.10000000000E+01 0.  0.
    9000005    1    3    3    0    0 -0.58259057564E+02 -0.22365006138E+02 -0.36995558968E+03  0.37518322140E+03  0.10000000000E+01 0.  0.
<mgrwt>
<rscale>  0 0.12499955E+03</rscale>
<asrwt>0</asrwt>
<pdfrwt beam="2">  1        4 0.17693331E+00 0.12499955E+03</pdfrwt>
<pdfrwt beam="1">  1       -4 0.13798357E-02 0.12499955E+03</pdfrwt>
<totfact> 0.60698213E+02</totfact>
</mgrwt>
</event>
<event>
 5    1  0.1438401E-002  0.1249749E+03  0.7818608E-02  0.1235109E+00
         -4   -1    0    0    0  501 -0.00000000000E+00  0.00000000000E+00  0.14206056593E+03  0.14206624262E+03  0.12700000000E+01 0.  1.
          4   -1    0    0  501    0  0.00000000000E+00 -0.00000000000E+00 -0.27465135771E+02  0.27494482772E+02  0.12700000000E+01 0.  1.
         25    2    1    2    0    0  0.00000000000E+00  0.00000000000E+00  0.11459543016E+03  0.16956072539E+03  0.12497490541E+03 0.  0.
    9000005    1    3    3    0    0 -0.35419369799E+02  0.41453904057E+02  0.98689377100E+02  0.11275438382E+03  0.10000000000E+01 0.  0.
    9000005    1    3    3    0    0  0.35419369799E+02 -0.41453904057E+02  0.15906053056E+02  0.56806341568E+02  0.10000000000E+01 0.  0.
<mgrwt>
<rscale>  0 0.12497491E+03</rscale>
<asrwt>0</asrwt>
<pdfrwt beam="2">  1        4 0.68706620E-02 0.12497491E+03</pdfrwt>
<pdfrwt beam="1">  1       -4 0.35519519E-01 0.12497491E+03</pdfrwt>
<totfact> 0.17627145E+03</totfact>
</mgrwt>
</event>
<event>
 5    1  0.1438401E-002  0.1250040E+03  0.7818608E-02  0.1235063E+00
          4   -1    0    0  501    0  0.00000000000E+00  0.00000000000E+00  0.18589249714E+03  0.18589683535E+03  0.12700000000E+01 0. -1.
         -4   -1    0    0    0  501 -0.00000000000E+00 -0.00000000000E+00 -0.20991065476E+02  0.21029449108E+02  0.12700000000E+01 0. -1.
         25    2    1    2    0    0  0.00000000000E+00  0.00000000000E+00  0.16490143167E+03  0.20692628446E+03  0.12500402007E+03 0.  0.
    9000005    1    3    3    0    0  0.56968828959E+02 -0.18022568769E+02  0.11275961161E+03  0.12761657600E+03  0.10000000000E+01 0.  0.
    9000005    1    3    3    0    0 -0.56968828959E+02  0.18022568769E+02  0.52141820051E+02  0.79309708461E+02  0.10000000000E+01 0.  0.
<mgrwt>
<rscale>  0 0.12500402E+03</rscale>
<asrwt>0</asrwt>
<pdfrwt beam="1">  1        4 0.46478464E-01 0.12500402E+03</pdfrwt>
<pdfrwt beam="2">  1       -4 0.52531067E-02 0.12500402E+03</pdfrwt>
<totfact> 0.16046918E+03</totfact>
</mgrwt>
</event>
<event>
 5    1  0.1438401E-002  0.1249996E+03  0.7818608E-02  0.1235070E+00
         -4   -1    0    0    0  501 -0.00000000000E+00  0.00000000000E+00  0.42379880712E+03  0.42380071002E+03  0.12700000000E+01 0.  1.
          4   -1    0    0  501    0  0.00000000000E+00 -0.00000000000E+00 -0.91714900294E+01  0.92590026115E+01  0.12700000000E+01 0.  1.
         25    2    1    2    0    0  0.00000000000E+00  0.00000000000E+00  0.41462731709E+03  0.43305971264E+03  0.12499961052E+03 0.  0.
    9000005    1    3    3    0    0  0.15949780387E+02  0.60084197473E+02  0.18520615589E+03  0.19536331912E+03  0.10000000000E+01 0.  0.
    9000005    1    3    3    0    0 -0.15949780387E+02 -0.60084197473E+02  0.22942116121E+03  0.23769639351E+03  0.10000000000E+01 0.  0.
<mgrwt>
<rscale>  0 0.12499961E+03</rscale>
<asrwt>0</asrwt>
<pdfrwt beam="2">  1        4 0.23040496E-02 0.12499961E+03</pdfrwt>
<pdfrwt beam="1">  1       -4 0.10596087E+00 0.12499961E+03</pdfrwt>
<totfact> 0.99140667E+02</totfact>
</mgrwt>
</event>
<event>
 5    1  0.1438401E-002  0.1249989E+03  0.7818608E-02  0.1235071E+00
          4   -1    0    0  501    0  0.00000000000E+00  0.00000000000E+00  0.16027003680E+03  0.16027506855E+03  0.12700000000E+01 0.  1.
         -4   -1    0    0    0  501 -0.00000000000E+00 -0.00000000000E+00 -0.24350544816E+02  0.24383640681E+02  0.12700000000E+01 0.  1.
         25    2    1    2    0    0  0.00000000000E+00  0.00000000000E+00  0.13591949199E+03  0.18465870923E+03  0.12499892236E+03 0.  0.
    9000005    1    3    3    0    0  0.59345441366E+02  0.57984919524E+01  0.95584481805E+02  0.11266275819E+03  0.10000000000E+01 0.  0.
    9000005    1    3    3    0    0 -0.59345441366E+02 -0.57984919524E+01  0.40335010182E+02  0.71995951041E+02  0.10000000000E+01 0.  0.
<mgrwt>
<rscale>  0 0.12499892E+03</rscale>
<asrwt>0</asrwt>
<pdfrwt beam="1">  1        4 0.40072275E-01 0.12499892E+03</pdfrwt>
<pdfrwt beam="2">  1       -4 0.60924022E-02 0.12499892E+03</pdfrwt>
<totfact> 0.16955762E+03</totfact>
</mgrwt>
</event>
<event>
 5    1  0.1438401E-002  0.1249419E+03  0.7818608E-02  0.1235160E+00
          4   -1    0    0  501    0  0.00000000000E+00  0.00000000000E+00  0.13240947792E+02  0.13301714116E+02  0.12700000000E+01 0. -1.
         -4   -1    0    0    0  501 -0.00000000000E+00 -0.00000000000E+00 -0.29400191678E+03  0.29400465977E+03  0.12700000000E+01 0. -1.
         25    2    1    2    0    0  0.00000000000E+00  0.00000000000E+00 -0.28076096898E+03  0.30730637389E+03  0.12494192942E+03 0.  0.
    9000005    1    3    3    0    0 -0.22409424620E+02 -0.38361470392E+01 -0.28347564044E+03  0.28438765279E+03  0.10000000000E+01 0.  0.
    9000005    1    3    3    0    0  0.22409424620E+02  0.38361470392E+01  0.27146714523E+01  0.22918721103E+02  0.10000000000E+01 0.  0.
<mgrwt>
<rscale>  0 0.12494193E+03</rscale>
<asrwt>0</asrwt>
<pdfrwt beam="1">  1        4 0.33181766E-02 0.12494193E+03</pdfrwt>
<pdfrwt beam="2">  1       -4 0.73508397E-01 0.12494193E+03</pdfrwt>
<totfact> 0.12785720E+03</totfact>
</mgrwt>
</event>
<event>
 5    1  0.1438401E-002  0.1249999E+03  0.7818608E-02  0.1235069E+00
         -4   -1    0    0    0  501 -0.00000000000E+00  0.00000000000E+00  0.87388505549E+02  0.87397733392E+02  0.12700000000E+01 0. -1.
          4   -1    0    0  501    0  0.00000000000E+00 -0.00000000000E+00 -0.44679109057E+02  0.44697155235E+02  0.12700000000E+01 0. -1.
         25    2    1    2    0    0  0.00000000000E+00  0.00000000000E+00  0.42709396492E+02  0.13209488863E+03  0.12499986821E+03 0.  0.
    9000005    1    3    3    0    0  0.60688545055E+02  0.14605332378E+02  0.24494277265E+02  0.67062544341E+02  0.10000000000E+01 0.  0.
    9000005    1    3    3    0    0 -0.60688545055E+02 -0.14605332378E+02  0.18215119227E+02  0.65032344285E+02  0.10000000000E+01 0.  0.
<mgrwt>
<rscale>  0 0.12499987E+03</rscale>
<asrwt>0</asrwt>
<pdfrwt beam="2">  1        4 0.11173187E-01 0.12499987E+03</pdfrwt>
<pdfrwt beam="1">  1       -4 0.21850535E-01 0.12499987E+03</pdfrwt>
<totfact> 0.19452470E+03</totfact>
</mgrwt>
</event>
<event>
 5    1  0.1438401E-002  0.1250013E+03  0.7818608E-02  0.1235067E+00
         -4   -1    0    0    0  501 -0.00000000000E+00  0.00000000000E+00  0.79450531189E+02  0.79460680882E+02  0.12700000000E+01 0. -1.
          4   -1    0    0  501    0  0.00000000000E+00 -0.00000000000E+00 -0.49145324493E+02  0.49161731250E+02  0.12700000000E+01 0. -1.
         25    2    1    2    0    0  0.00000000000E+00  0.00000000000E+00  0.30305206697E+02  0.12862241213E+03  0.12500127739E+03 0.  0.
    9000005    1    3    3    0    0  0.51961113427E+02  0.30099782304E+02 -0.26511030682E+01  0.60116408332E+02  0.10000000000E+01 0.  0.
    9000005    1    3    3    0    0 -0.51961113427E+02 -0.30099782304E+02  0.32956309765E+02  0.68506003800E+02  0.10000000000E+01 0.  0.
<mgrwt>
<rscale>  0 0.12500128E+03</rscale>
<asrwt>0</asrwt>
<pdfrwt beam="2">  1        4 0.12289651E-01 0.12500128E+03</pdfrwt>
<pdfrwt beam="1">  1       -4 0.19865952E-01 0.12500128E+03</pdfrwt>
<totfact> 0.19638150E+03</totfact>
</mgrwt>
</event>
<event>
 5    1  0.1438401E-002  0.1249995E+03  0.7818608E-02  0.1235070E+00
          4   -1    0    0  501    0  0.00000000000E+00  0.00000000000E+00  0.16675629835E+03  0.16676113438E+03  0.12700000000E+01 0.  1.
         -4   -1    0    0    0  501 -0.00000000000E+00 -0.00000000000E+00 -0.23402338516E+02  0.23436773413E+02  0.12700000000E+01 0.  1.
         25    2    1    2    0    0  0.00000000000E+00  0.00000000000E+00  0.14335395983E+03  0.19019790779E+03  0.12499954531E+03 0.  0.
    9000005    1    3    3    0    0  0.68256015005E+01  0.60224606488E+02  0.48519342213E+02  0.77644823596E+02  0.10000000000E+01 0.  0.
    9000005    1    3    3    0    0 -0.68256015005E+01 -0.60224606488E+02  0.94834617619E+02  0.11255308419E+03  0.10000000000E+01 0.  0.
<mgrwt>
<rscale>  0 0.12499955E+03</rscale>
<asrwt>0</asrwt>
<pdfrwt beam="1">  1        4 0.41693982E-01 0.12499955E+03</pdfrwt>
<pdfrwt beam="2">  1       -4 0.58554937E-02 0.12499955E+03</pdfrwt>
<totfact> 0.16722382E+03</totfact>
</mgrwt>
</event>
<event>
 5    1  0.1438401E-002  0.1250013E+03  0.7818608E-02  0.1235067E+00
          4   -1    0    0  501    0  0.00000000000E+00  0.00000000000E+00  0.90623107583E+02  0.90632006090E+02  0.12700000000E+01 0. -1.
         -4   -1    0    0    0  501 -0.00000000000E+00 -0.00000000000E+00 -0.43084861921E+02  0.43103575568E+02  0.12700000000E+01 0. -1.
         25    2    1    2    0    0  0.00000000000E+00  0.00000000000E+00  0.47538245661E+02  0.13373558166E+03  0.12500128400E+03 0.  0.
    9000005    1    3    3    0    0  0.36571944467E+02  0.29983390376E+01  0.77888585511E+02  0.86105336141E+02  0.10000000000E+01 0.  0.
    9000005    1    3    3    0    0 -0.36571944467E+02 -0.29983390376E+01 -0.30350339850E+02  0.47630245518E+02  0.10000000000E+01 0.  0.
<mgrwt>
<rscale>  0 0.12500128E+03</rscale>
<asrwt>0</asrwt>
<pdfrwt beam="1">  1        4 0.22659228E-01 0.12500128E+03</pdfrwt>
<pdfrwt beam="2">  1       -4 0.10774667E-01 0.12500128E+03</pdfrwt>
<totfact> 0.19364992E+03</totfact>
</mgrwt>
</event>
<event>
 5    1  0.1438401E-002  0.1249999E+03  0.7818608E-02  0.1235069E+00
         -4   -1    0    0    0  501 -0.00000000000E+00  0.00000000000E+00  0.22196879919E+02  0.22233181917E+02  0.12700000000E+01 0. -1.
          4   -1    0    0  501    0  0.00000000000E+00 -0.00000000000E+00 -0.17579924932E+03  0.17580383659E+03  0.12700000000E+01 0. -1.
         25    2    1    2    0    0  0.00000000000E+00  0.00000000000E+00 -0.15360236940E+03  0.19803701851E+03  0.12499989126E+03 0.  0.
    9000005    1    3    3    0    0  0.45685881929E+00  0.62411838682E+02 -0.81760029893E+02  0.10286471123E+03  0.10000000000E+01 0.  0.
    9000005    1    3    3    0    0 -0.45685881929E+00 -0.62411838682E+02 -0.71842339505E+02  0.95172307281E+02  0.10000000000E+01 0.  0.
<mgrwt>
<rscale>  0 0.12499989E+03</rscale>
<asrwt>0</asrwt>
<pdfrwt beam="2">  1        4 0.43954919E-01 0.12499989E+03</pdfrwt>
<pdfrwt beam="1">  1       -4 0.55543317E-02 0.12499989E+03</pdfrwt>
<totfact> 0.16400986E+03</totfact>
</mgrwt>
</event>
<event>
 5    1  0.1438401E-002  0.1249991E+03  0.7818608E-02  0.1235071E+00
          4   -1    0    0  501    0  0.00000000000E+00  0.00000000000E+00  0.27708344961E+02  0.27737434641E+02  0.12700000000E+01 0.  1.
         -4   -1    0    0    0  501 -0.00000000000E+00 -0.00000000000E+00 -0.14086934129E+03  0.14087506599E+03  0.12700000000E+01 0.  1.
         25    2    1    2    0    0  0.00000000000E+00  0.00000000000E+00 -0.11316099633E+03  0.16861250063E+03  0.12499905710E+03 0.  0.
    9000005    1    3    3    0    0 -0.27645538020E+02  0.84622389702E+01 -0.13131189723E+03  0.13446077352E+03  0.10000000000E+01 0.  0.
    9000005    1    3    3    0    0  0.27645538020E+02 -0.84622389702E+01  0.18150900901E+02  0.34151727105E+02  0.10000000000E+01 0.  0.
<mgrwt>
<rscale>  0 0.12499906E+03</rscale>
<asrwt>0</asrwt>
<pdfrwt beam="1">  1        4 0.69314384E-02 0.12499906E+03</pdfrwt>
<pdfrwt beam="2">  1       -4 0.35221685E-01 0.12499906E+03</pdfrwt>
<totfact> 0.17660198E+03</totfact>
</mgrwt>
</event>
<event>
 5    1  0.1438401E-002  0.1250013E+03  0.7818608E-02  0.1235067E+00
         -4   -1    0    0    0  501 -0.00000000000E+00  0.00000000000E+00  0.85876869844E+01  0.86810867835E+01  0.12700000000E+01 0.  1.
          4   -1    0    0  501    0  0.00000000000E+00 -0.00000000000E+00 -0.45232132459E+03  0.45232310750E+03  0.12700000000E+01 0.  1.
         25    2    1    2    0    0  0.00000000000E+00  0.00000000000E+00 -0.44373363760E+03  0.46100419428E+03  0.12500130401E+03 0.  0.
    9000005    1    3    3    0    0 -0.57541729000E+02 -0.19795457949E+02 -0.16939599669E+03  0.17999698449E+03  0.10000000000E+01 0.  0.
    9000005    1    3    3    0    0  0.57541729000E+02  0.19795457949E+02 -0.27433764092E+03  0.28100720979E+03  0.10000000000E+01 0.  0.
<mgrwt>
<rscale>  0 0.12500130E+03</rscale>
<asrwt>0</asrwt>
<pdfrwt beam="2">  1        4 0.11309215E+00 0.12500130E+03</pdfrwt>
<pdfrwt beam="1">  1       -4 0.21588211E-02 0.12500130E+03</pdfrwt>
<totfact> 0.94071650E+02</totfact>
</mgrwt>
</event>
<event>
 5    1  0.1438401E-002  0.1250019E+03  0.7818608E-02  0.1235066E+00
         -4   -1    0    0    0  501 -0.00000000000E+00  0.00000000000E+00  0.32045352366E+02  0.32070508388E+02  0.12700000000E+01 0. -1.
          4   -1    0    0  501    0  0.00000000000E+00 -0.00000000000E+00 -0.12182497577E+03  0.12183159533E+03  0.12700000000E+01 0. -1.
         25    2    1    2    0    0  0.00000000000E+00  0.00000000000E+00 -0.89779623404E+02  0.15390210372E+03  0.12500190699E+03 0.  0.
    9000005    1    3    3    0    0 -0.36457722007E+00 -0.30812012574E+02 -0.11182732361E+03  0.11599941095E+03  0.10000000000E+01 0.  0.
    9000005    1    3    3    0    0  0.36457722007E+00  0.30812012574E+02  0.22047700201E+02  0.37902692775E+02  0.10000000000E+01 0.  0.
<mgrwt>
<rscale>  0 0.12500191E+03</rscale>
<asrwt>0</asrwt>
<pdfrwt beam="2">  1        4 0.30460215E-01 0.12500191E+03</pdfrwt>
<pdfrwt beam="1">  1       -4 0.80153103E-02 0.12500191E+03</pdfrwt>
<totfact> 0.18347750E+03</totfact>
</mgrwt>
</event>
<event>
 5    1  0.1438401E-002  0.1250017E+03  0.7818608E-02  0.1235067E+00
         -4   -1    0    0    0  501 -0.00000000000E+00  0.00000000000E+00  0.12969677488E+03  0.12970299270E+03  0.12700000000E+01 0.  1.
          4   -1    0    0  501    0  0.00000000000E+00 -0.00000000000E+00 -0.30098818725E+02  0.30125600221E+02  0.12700000000E+01 0.  1.
         25    2    1    2    0    0  0.00000000000E+00  0.00000000000E+00  0.99597956156E+02  0.15982859292E+03  0.12500170496E+03 0.  0.
    9000005    1    3    3    0    0 -0.17970525684E+02 -0.21937908021E+02  0.12100218809E+03  0.12428491913E+03  0.10000000000E+01 0.  0.
    9000005    1    3    3    0    0  0.17970525684E+02  0.21937908021E+02 -0.21404231931E+02  0.35543673787E+02  0.10000000000E+01 0.  0.
<mgrwt>
<rscale>  0 0.12500170E+03</rscale>
<asrwt>0</asrwt>
<pdfrwt beam="2">  1        4 0.75288297E-02 0.12500170E+03</pdfrwt>
<pdfrwt beam="1">  1       -4 0.32428318E-01 0.12500170E+03</pdfrwt>
<totfact> 0.18065108E+03</totfact>
</mgrwt>
</event>
<event>
 5    1  0.1438401E-002  0.1249931E+03  0.7818608E-02  0.1235080E+00
          4   -1    0    0  501    0  0.00000000000E+00  0.00000000000E+00  0.12694200322E+03  0.12694835596E+03  0.12700000000E+01 0.  1.
         -4   -1    0    0    0  501 -0.00000000000E+00 -0.00000000000E+00 -0.30748284413E+02  0.30774500716E+02  0.12700000000E+01 0.  1.
         25    2    1    2    0    0  0.00000000000E+00  0.00000000000E+00  0.96193718808E+02  0.15772285668E+03  0.12499307173E+03 0.  0.
    9000005    1    3    3    0    0  0.24273575645E+02  0.57430077155E+02  0.53359974424E+02  0.82071353755E+02  0.10000000000E+01 0.  0.
    9000005    1    3    3    0    0 -0.24273575645E+02 -0.57430077155E+02  0.42833744383E+02  0.75651502924E+02  0.10000000000E+01 0.  0.
<mgrwt>
<rscale>  0 0.12499307E+03</rscale>
<asrwt>0</asrwt>
<pdfrwt beam="1">  1        4 0.31739572E-01 0.12499307E+03</pdfrwt>
<pdfrwt beam="2">  1       -4 0.76911423E-02 0.12499307E+03</pdfrwt>
<totfact> 0.18168376E+03</totfact>
</mgrwt>
</event>
<event>
 5    1  0.1438401E-002  0.1249958E+03  0.7818608E-02  0.1235076E+00
         -4   -1    0    0    0  501 -0.00000000000E+00  0.00000000000E+00  0.50670606461E+02  0.50686519501E+02  0.12700000000E+01 0.  1.
          4   -1    0    0  501    0  0.00000000000E+00 -0.00000000000E+00 -0.77052572161E+02  0.77063037681E+02  0.12700000000E+01 0.  1.
         25    2    1    2    0    0  0.00000000000E+00  0.00000000000E+00 -0.26381965701E+02  0.12774955718E+03  0.12499576491E+03 0.  0.
    9000005    1    3    3    0    0 -0.41870565001E+02 -0.44339092953E+02  0.74338813731E+00  0.60997147501E+02  0.10000000000E+01 0.  0.
    9000005    1    3    3    0    0  0.41870565001E+02  0.44339092953E+02 -0.27125353838E+02  0.66752409681E+02  0.10000000000E+01 0.  0.
<mgrwt>
<rscale>  0 0.12499576E+03</rscale>
<asrwt>0</asrwt>
<pdfrwt beam="2">  1        4 0.19266440E-01 0.12499576E+03</pdfrwt>
<pdfrwt beam="1">  1       -4 0.12670949E-01 0.12499576E+03</pdfrwt>
<totfact> 0.19688118E+03</totfact>
</mgrwt>
</event>
<event>
 5    1  0.1438401E-002  0.1249958E+03  0.7818608E-02  0.1235076E+00
         -4   -1    0    0    0  501 -0.00000000000E+00  0.00000000000E+00  0.85017642681E+02  0.85027127830E+02  0.12700000000E+01 0. -1.
          4   -1    0    0  501    0  0.00000000000E+00 -0.00000000000E+00 -0.45922455989E+02  0.45940013757E+02  0.12700000000E+01 0. -1.
         25    2    1    2    0    0  0.00000000000E+00  0.00000000000E+00  0.39095186693E+02  0.13096714159E+03  0.12499583414E+03 0.  0.
    9000005    1    3    3    0    0 -0.43160583206E+01 -0.59570877881E+02  0.38801293239E+02  0.71231019984E+02  0.10000000000E+01 0.  0.
    9000005    1    3    3    0    0  0.43160583206E+01  0.59570877881E+02  0.29389345381E+00  0.59736121604E+02  0.10000000000E+01 0.  0.
<mgrwt>
<rscale>  0 0.12499583E+03</rscale>
<asrwt>0</asrwt>
<pdfrwt beam="2">  1        4 0.11483994E-01 0.12499583E+03</pdfrwt>
<pdfrwt beam="1">  1       -4 0.21257791E-01 0.12499583E+03</pdfrwt>
<totfact> 0.19514428E+03</totfact>
</mgrwt>
</event>
<event>
 5    1  0.1438401E-002  0.1249990E+03  0.7818608E-02  0.1235071E+00
         -4   -1    0    0    0  501 -0.00000000000E+00  0.00000000000E+00  0.11912731840E+02  0.11980237055E+02  0.12700000000E+01 0. -1.
          4   -1    0    0  501    0  0.00000000000E+00 -0.00000000000E+00 -0.32690517445E+03  0.32690764136E+03  0.12700000000E+01 0. -1.
         25    2    1    2    0    0  0.00000000000E+00  0.00000000000E+00 -0.31499244261E+03  0.33888787842E+03  0.12499902095E+03 0.  0.
    9000005    1    3    3    0    0  0.57988686645E+02 -0.23058757158E+02 -0.14858872402E+03  0.16116452143E+03  0.10000000000E+01 0.  0.
    9000005    1    3    3    0    0 -0.57988686645E+02  0.23058757158E+02 -0.16640371858E+03  0.17772335699E+03  0.10000000000E+01 0.  0.
<mgrwt>
<rscale>  0 0.12499902E+03</rscale>
<asrwt>0</asrwt>
<pdfrwt beam="2">  1        4 0.81735011E-01 0.12499902E+03</pdfrwt>
<pdfrwt beam="1">  1       -4 0.29869306E-02 0.12499902E+03</pdfrwt>
<totfact> 0.11947402E+03</totfact>
</mgrwt>
</event>
<event>
 5    1  0.1438401E-002  0.1250050E+03  0.7818608E-02  0.1235061E+00
          4   -1    0    0  501    0  0.00000000000E+00  0.00000000000E+00  0.88624051321E+02  0.88633150528E+02  0.12700000000E+01 0. -1.
         -4   -1    0    0    0  501 -0.00000000000E+00 -0.00000000000E+00 -0.44059673632E+02  0.44077973417E+02  0.12700000000E+01 0. -1.
         25    2    1    2    0    0  0.00000000000E+00  0.00000000000E+00  0.44564377689E+02  0.13271112394E+03  0.12500503454E+03 0.  0.
    9000005    1    3    3    0    0  0.44915866204E+01 -0.55211531492E+02 -0.84336623275E+01  0.56041183253E+02  0.10000000000E+01 0.  0.
    9000005    1    3    3    0    0 -0.44915866204E+01  0.55211531492E+02  0.52998040017E+02  0.76669940692E+02  0.10000000000E+01 0.  0.
<mgrwt>
<rscale>  0 0.12500503E+03</rscale>
<asrwt>0</asrwt>
<pdfrwt beam="1">  1        4 0.22159438E-01 0.12500503E+03</pdfrwt>
<pdfrwt beam="2">  1       -4 0.11018343E-01 0.12500503E+03</pdfrwt>
<totfact> 0.19417427E+03</totfact>
</mgrwt>
</event>
<event>
 5    1  0.1438401E-002  0.1250025E+03  0.7818608E-02  0.1235065E+00
         -4   -1    0    0    0  501 -0.00000000000E+00  0.00000000000E+00  0.11955425397E+02  0.12022690898E+02  0.12700000000E+01 0.  1.
          4   -1    0    0  501    0  0.00000000000E+00 -0.00000000000E+00 -0.32576225227E+03  0.32576472784E+03  0.12700000000E+01 0.  1.
         25    2    1    2    0    0  0.00000000000E+00  0.00000000000E+00 -0.31380682687E+03  0.33778741873E+03  0.12500246264E+03 0.  0.
    9000005    1    3    3    0    0 -0.22627382859E+02  0.85296324001E+01 -0.31262058501E+03  0.31355602889E+03  0.10000000000E+01 0.  0.
    9000005    1    3    3    0    0  0.22627382859E+02 -0.85296324001E+01 -0.11862418626E+01  0.24231389843E+02  0.10000000000E+01 0.  0.
<mgrwt>
<rscale>  0 0.12500246E+03</rscale>
<asrwt>0</asrwt>
<pdfrwt beam="2">  1        4 0.81449251E-01 0.12500246E+03</pdfrwt>
<pdfrwt beam="1">  1       -4 0.29975751E-02 0.12500246E+03</pdfrwt>
<totfact> 0.11973722E+03</totfact>
</mgrwt>
</event>
<event>
 5    1  0.1438401E-002  0.1250005E+03  0.7818608E-02  0.1235068E+00
          4   -1    0    0  501    0  0.00000000000E+00  0.00000000000E+00  0.96503671515E+02  0.96512027830E+02  0.12700000000E+01 0. -1.
         -4   -1    0    0    0  501 -0.00000000000E+00 -0.00000000000E+00 -0.40457994776E+02  0.40477922887E+02  0.12700000000E+01 0. -1.
         25    2    1    2    0    0  0.00000000000E+00  0.00000000000E+00  0.56045676739E+02  0.13698995072E+03  0.12500051486E+03 0.  0.
    9000005    1    3    3    0    0  0.42108181951E+01 -0.56052229468E+02  0.57949523777E+02  0.80738656938E+02  0.10000000000E+01 0.  0.
    9000005    1    3    3    0    0 -0.42108181951E+01  0.56052229468E+02 -0.19038470377E+01  0.56251293779E+02  0.10000000000E+01 0.  0.
<mgrwt>
<rscale>  0 0.12500051E+03</rscale>
<asrwt>0</asrwt>
<pdfrwt beam="1">  1        4 0.24129453E-01 0.12500051E+03</pdfrwt>
<pdfrwt beam="2">  1       -4 0.10118034E-01 0.12500051E+03</pdfrwt>
<totfact> 0.19195176E+03</totfact>
</mgrwt>
</event>
<event>
 5    1  0.1438401E-002  0.1249885E+03  0.7818608E-02  0.1235087E+00
          4   -1    0    0  501    0  0.00000000000E+00  0.00000000000E+00  0.45812023213E+02  0.45829623289E+02  0.12700000000E+01 0. -1.
         -4   -1    0    0    0  501 -0.00000000000E+00 -0.00000000000E+00 -0.85212541199E+02  0.85222004656E+02  0.12700000000E+01 0. -1.
         25    2    1    2    0    0  0.00000000000E+00  0.00000000000E+00 -0.39400517987E+02  0.13105162795E+03  0.12498851295E+03 0.  0.
    9000005    1    3    3    0    0  0.55720084683E+02 -0.70025298418E+01 -0.48429584915E+02  0.74163252061E+02  0.10000000000E+01 0.  0.
    9000005    1    3    3    0    0 -0.55720084683E+02  0.70025298418E+01  0.90290669282E+01  0.56888375885E+02  0.10000000000E+01 0.  0.
<mgrwt>
<rscale>  0 0.12498851E+03</rscale>
<asrwt>0</asrwt>
<pdfrwt beam="1">  1        4 0.11456389E-01 0.12498851E+03</pdfrwt>
<pdfrwt beam="2">  1       -4 0.21306518E-01 0.12498851E+03</pdfrwt>
<totfact> 0.19513245E+03</totfact>
</mgrwt>
</event>
<event>
 5    1  0.1438401E-002  0.1250002E+03  0.7818608E-02  0.1235069E+00
         -4   -1    0    0    0  501 -0.00000000000E+00  0.00000000000E+00  0.96378972462E+01  0.97212120298E+01  0.12700000000E+01 0.  1.
          4   -1    0    0  501    0  0.00000000000E+00 -0.00000000000E+00 -0.40347361491E+03  0.40347561367E+03  0.12700000000E+01 0.  1.
         25    2    1    2    0    0  0.00000000000E+00  0.00000000000E+00 -0.39383571766E+03  0.41319682570E+03  0.12500017705E+03 0.  0.
    9000005    1    3    3    0    0 -0.31501113948E+02  0.19015633728E+01 -0.37521421330E+03  0.37654035904E+03  0.10000000000E+01 0.  0.
    9000005    1    3    3    0    0  0.31501113948E+02 -0.19015633728E+01 -0.18621504358E+02  0.36656466658E+02  0.10000000000E+01 0.  0.
<mgrwt>
<rscale>  0 0.12500018E+03</rscale>
<asrwt>0</asrwt>
<pdfrwt beam="2">  1        4 0.10087901E+00 0.12500018E+03</pdfrwt>
<pdfrwt beam="1">  1       -4 0.24201399E-02 0.12500018E+03</pdfrwt>
<totfact> 0.10301432E+03</totfact>
</mgrwt>
</event>
<event>
 5    1  0.1438401E-002  0.1250001E+03  0.7818608E-02  0.1235069E+00
          4   -1    0    0  501    0  0.00000000000E+00  0.00000000000E+00  0.36026092142E+02  0.36048470356E+02  0.12700000000E+01 0. -1.
         -4   -1    0    0    0  501 -0.00000000000E+00 -0.00000000000E+00 -0.10836878428E+03  0.10837622575E+03  0.12700000000E+01 0. -1.
         25    2    1    2    0    0  0.00000000000E+00  0.00000000000E+00 -0.72342692140E+02  0.14442469610E+03  0.12500011095E+03 0.  0.
    9000005    1    3    3    0    0  0.40133971821E+01 -0.24144317756E+02  0.30263467866E+02  0.38934983294E+02  0.10000000000E+01 0.  0.
    9000005    1    3    3    0    0 -0.40133971821E+01  0.24144317756E+02 -0.10260616001E+03  0.10548971281E+03  0.10000000000E+01 0.  0.
<mgrwt>
<rscale>  0 0.12500011E+03</rscale>
<asrwt>0</asrwt>
<pdfrwt beam="1">  1        4 0.90102508E-02 0.12500011E+03</pdfrwt>
<pdfrwt beam="2">  1       -4 0.27095923E-01 0.12500011E+03</pdfrwt>
<totfact> 0.18816174E+03</totfact>
</mgrwt>
</event>
<event>
 5    1  0.1438401E-002  0.1249890E+03  0.7818608E-02  0.1235086E+00
         -4   -1    0    0    0  501 -0.00000000000E+00  0.00000000000E+00  0.12383639681E+03  0.12384290886E+03  0.12700000000E+01 0.  1.
          4   -1    0    0  501    0  0.00000000000E+00 -0.00000000000E+00 -0.31517944686E+02  0.31543521319E+02  0.12700000000E+01 0.  1.
         25    2    1    2    0    0  0.00000000000E+00  0.00000000000E+00  0.92318452121E+02  0.15538643018E+03  0.12498898384E+03 0.  0.
    9000005    1    3    3    0    0 -0.13306700834E+02 -0.56577857639E+02  0.74683558304E+02  0.94640140231E+02  0.10000000000E+01 0.  0.
    9000005    1    3    3    0    0  0.13306700834E+02  0.56577857639E+02  0.17634893817E+02  0.60746289945E+02  0.10000000000E+01 0.  0.
<mgrwt>
<rscale>  0 0.12498898E+03</rscale>
<asrwt>0</asrwt>
<pdfrwt beam="2">  1        4 0.78834974E-02 0.12498898E+03</pdfrwt>
<pdfrwt beam="1">  1       -4 0.30963110E-01 0.12498898E+03</pdfrwt>
<totfact> 0.18281745E+03</totfact>
</mgrwt>
</event>
<event>
 5    1  0.1438401E-002  0.1249982E+03  0.7818608E-02  0.1235072E+00
         -4   -1    0    0    0  501 -0.00000000000E+00  0.00000000000E+00  0.22106494460E+02  0.22142944639E+02  0.12700000000E+01 0.  1.
          4   -1    0    0  501    0  0.00000000000E+00 -0.00000000000E+00 -0.17651200275E+03  0.17651657150E+03  0.12700000000E+01 0.  1.
         25    2    1    2    0    0  0.00000000000E+00  0.00000000000E+00 -0.15440550829E+03  0.19865951614E+03  0.12499816944E+03 0.  0.
    9000005    1    3    3    0    0  0.42256971143E+02 -0.45992911223E+02 -0.80434975757E+02  0.10184196001E+03  0.10000000000E+01 0.  0.
    9000005    1    3    3    0    0 -0.42256971143E+02  0.45992911223E+02 -0.73970532536E+02  0.96817556138E+02  0.10000000000E+01 0.  0.
<mgrwt>
<rscale>  0 0.12499817E+03</rscale>
<asrwt>0</asrwt>
<pdfrwt beam="2">  1        4 0.44133124E-01 0.12499817E+03</pdfrwt>
<pdfrwt beam="1">  1       -4 0.55317515E-02 0.12499817E+03</pdfrwt>
<totfact> 0.16376551E+03</totfact>
</mgrwt>
</event>
<event>
 5    1  0.1438401E-002  0.1249983E+03  0.7818608E-02  0.1235072E+00
         -4   -1    0    0    0  501 -0.00000000000E+00  0.00000000000E+00  0.67171325752E+03  0.67171445811E+03  0.12700000000E+01 0. -1.
          4   -1    0    0  501    0  0.00000000000E+00 -0.00000000000E+00 -0.57446310677E+01  0.58833397067E+01  0.12700000000E+01 0. -1.
         25    2    1    2    0    0  0.00000000000E+00  0.00000000000E+00  0.66596862646E+03  0.67759779782E+03  0.12499825671E+03 0.  0.
    9000005    1    3    3    0    0  0.41011198368E+02 -0.46869693570E+02  0.36086590933E+03  0.36620198126E+03  0.10000000000E+01 0.  0.
    9000005    1    3    3    0    0 -0.41011198368E+02  0.46869693570E+02  0.30510271713E+03  0.31139581655E+03  0.10000000000E+01 0.  0.
<mgrwt>
<rscale>  0 0.12499826E+03</rscale>
<asrwt>0</asrwt>
<pdfrwt beam="2">  1        4 0.14536467E-02 0.12499826E+03</pdfrwt>
<pdfrwt beam="1">  1       -4 0.16794578E+00 0.12499826E+03</pdfrwt>
<totfact> 0.64442139E+02</totfact>
</mgrwt>
</event>
<event>
 5    1  0.1438401E-002  0.1249998E+03  0.7818608E-02  0.1235070E+00
          4   -1    0    0  501    0  0.00000000000E+00  0.00000000000E+00  0.19452414882E+02  0.19493828376E+02  0.12700000000E+01 0.  1.
         -4   -1    0    0    0  501 -0.00000000000E+00 -0.00000000000E+00 -0.20055302135E+03  0.20055704244E+03  0.12700000000E+01 0.  1.
         25    2    1    2    0    0  0.00000000000E+00  0.00000000000E+00 -0.18110060647E+03  0.22005087082E+03  0.12499982434E+03 0.  0.
    9000005    1    3    3    0    0  0.17940299556E+02  0.10518409940E+02  0.13190667290E+02  0.24647210783E+02  0.10000000000E+01 0.  0.
    9000005    1    3    3    0    0 -0.17940299556E+02 -0.10518409940E+02 -0.19429127376E+03  0.19540366003E+03  0.10000000000E+01 0.  0.
<mgrwt>
<rscale>  0 0.12499982E+03</rscale>
<asrwt>0</asrwt>
<pdfrwt beam="1">  1        4 0.48687837E-02 0.12499982E+03</pdfrwt>
<pdfrwt beam="2">  1       -4 0.50143928E-01 0.12499982E+03</pdfrwt>
<totfact> 0.15549518E+03</totfact>
</mgrwt>
</event>
<event>
 5    1  0.1438401E-002  0.1250058E+03  0.7818608E-02  0.1235060E+00
          4   -1    0    0  501    0  0.00000000000E+00  0.00000000000E+00  0.22836156070E+02  0.22871443418E+02  0.12700000000E+01 0.  1.
         -4   -1    0    0    0  501 -0.00000000000E+00 -0.00000000000E+00 -0.17090154062E+03  0.17090625935E+03  0.12700000000E+01 0.  1.
         25    2    1    2    0    0  0.00000000000E+00  0.00000000000E+00 -0.14806538455E+03  0.19377770277E+03  0.12500575982E+03 0.  0.
    9000005    1    3    3    0    0  0.38398838256E+02 -0.34663521194E+02 -0.19676116706E+02  0.55355036353E+02  0.10000000000E+01 0.  0.
    9000005    1    3    3    0    0 -0.38398838256E+02  0.34663521194E+02 -0.12838926784E+03  0.13842266642E+03  0.10000000000E+01 0.  0.
<mgrwt>
<rscale>  0 0.12500576E+03</rscale>
<asrwt>0</asrwt>
<pdfrwt beam="1">  1        4 0.57140403E-02 0.12500576E+03</pdfrwt>
<pdfrwt beam="2">  1       -4 0.42730382E-01 0.12500576E+03</pdfrwt>
<totfact> 0.16572053E+03</totfact>
</mgrwt>
</event>
<event>
 5    1  0.1438401E-002  0.1250030E+03  0.7818608E-02  0.1235065E+00
         -4   -1    0    0    0  501 -0.00000000000E+00  0.00000000000E+00  0.78329551573E+02  0.78339846500E+02  0.12700000000E+01 0. -1.
          4   -1    0    0  501    0  0.00000000000E+00 -0.00000000000E+00 -0.49850194085E+02  0.49866368931E+02  0.12700000000E+01 0. -1.
         25    2    1    2    0    0  0.00000000000E+00  0.00000000000E+00  0.28479357487E+02  0.12820621543E+03  0.12500303945E+03 0.  0.
    9000005    1    3    3    0    0  0.17222005643E+02  0.31493299703E+02  0.66707324416E+02  0.75758118610E+02  0.10000000000E+01 0.  0.
    9000005    1    3    3    0    0 -0.17222005643E+02 -0.31493299703E+02 -0.38227966929E+02  0.52448096820E+02  0.10000000000E+01 0.  0.
<mgrwt>
<rscale>  0 0.12500304E+03</rscale>
<asrwt>0</asrwt>
<pdfrwt beam="2">  1        4 0.12465857E-01 0.12500304E+03</pdfrwt>
<pdfrwt beam="1">  1       -4 0.19585697E-01 0.12500304E+03</pdfrwt>
<totfact> 0.19659926E+03</totfact>
</mgrwt>
</event>
<event>
 5    1  0.1438401E-002  0.1250005E+03  0.7818608E-02  0.1235068E+00
         -4   -1    0    0    0  501 -0.00000000000E+00  0.00000000000E+00  0.56886999366E+03  0.56887141129E+03  0.12700000000E+01 0.  1.
          4   -1    0    0  501    0  0.00000000000E+00 -0.00000000000E+00 -0.68065836166E+01  0.69240508758E+01  0.12700000000E+01 0.  1.
         25    2    1    2    0    0  0.00000000000E+00  0.00000000000E+00  0.56206341004E+03  0.57579546217E+03  0.12500054938E+03 0.  0.
    9000005    1    3    3    0    0  0.10582163896E+02  0.36029566260E+02  0.51112639889E+03  0.51250493411E+03  0.10000000000E+01 0.  0.
    9000005    1    3    3    0    0 -0.10582163896E+02 -0.36029566260E+02  0.50937011151E+02  0.63290528063E+02  0.10000000000E+01 0.  0.
<mgrwt>
<rscale>  0 0.12500055E+03</rscale>
<asrwt>0</asrwt>
<pdfrwt beam="2">  1        4 0.17165065E-02 0.12500055E+03</pdfrwt>
<pdfrwt beam="1">  1       -4 0.14223236E+00 0.12500055E+03</pdfrwt>
<totfact> 0.76634382E+02</totfact>
</mgrwt>
</event>
<event>
 5    1  0.1438401E-002  0.1250003E+03  0.7818608E-02  0.1235069E+00
          4   -1    0    0  501    0  0.00000000000E+00  0.00000000000E+00  0.10427421846E+02  0.10504476492E+02  0.12700000000E+01 0.  1.
         -4   -1    0    0    0  501 -0.00000000000E+00 -0.00000000000E+00 -0.37315767734E+03  0.37315983849E+03  0.12700000000E+01 0.  1.
         25    2    1    2    0    0  0.00000000000E+00  0.00000000000E+00 -0.36273025550E+03  0.38366431498E+03  0.12500027334E+03 0.  0.
    9000005    1    3    3    0    0 -0.17948735400E+02  0.23066989240E+02 -0.11828611256E+02  0.31546143018E+02  0.10000000000E+01 0.  0.
    9000005    1    3    3    0    0  0.17948735400E+02 -0.23066989240E+02 -0.35090164424E+03  0.35211817196E+03  0.10000000000E+01 0.  0.
<mgrwt>
<rscale>  0 0.12500027E+03</rscale>
<asrwt>0</asrwt>
<pdfrwt beam="1">  1        4 0.26167587E-02 0.12500027E+03</pdfrwt>
<pdfrwt beam="2">  1       -4 0.93299277E-01 0.12500027E+03</pdfrwt>
<totfact> 0.10913545E+03</totfact>
</mgrwt>
</event>
<event>
 5    1  0.1438401E-002  0.1249896E+03  0.7818608E-02  0.1235086E+00
          4   -1    0    0  501    0  0.00000000000E+00  0.00000000000E+00  0.72712873764E+03  0.72712984673E+03  0.12700000000E+01 0. -1.
         -4   -1    0    0    0  501 -0.00000000000E+00 -0.00000000000E+00 -0.52950605512E+01  0.54452333504E+01  0.12700000000E+01 0. -1.
         25    2    1    2    0    0  0.00000000000E+00  0.00000000000E+00  0.72183367709E+03  0.73257508008E+03  0.12498956185E+03 0.  0.
    9000005    1    3    3    0    0 -0.73375095699E+01  0.40445850141E+02  0.85078483982E+02  0.94493673211E+02  0.10000000000E+01 0.  0.
    9000005    1    3    3    0    0  0.73375095699E+01 -0.40445850141E+02  0.63675519311E+03  0.63808140687E+03  0.10000000000E+01 0.  0.
<mgrwt>
<rscale>  0 0.12498956E+03</rscale>
<asrwt>0</asrwt>
<pdfrwt beam="1">  1        4 0.18180112E+00 0.12498956E+03</pdfrwt>
<pdfrwt beam="2">  1       -4 0.13426752E-02 0.12498956E+03</pdfrwt>
<totfact> 0.58774286E+02</totfact>
</mgrwt>
</event>
<event>
 5    1  0.1438401E-002  0.1250063E+03  0.7818608E-02  0.1235059E+00
         -4   -1    0    0    0  501 -0.00000000000E+00  0.00000000000E+00  0.70668921432E+02  0.70680332175E+02  0.12700000000E+01 0. -1.
          4   -1    0    0  501    0  0.00000000000E+00 -0.00000000000E+00 -0.55257779451E+02  0.55272371849E+02  0.12700000000E+01 0. -1.
         25    2    1    2    0    0  0.00000000000E+00  0.00000000000E+00  0.15411141981E+02  0.12595270402E+03  0.12500632126E+03 0.  0.
    9000005    1    3    3    0    0  0.60736735479E+00 -0.21960258671E+02  0.66655114211E+02  0.70189216454E+02  0.10000000000E+01 0.  0.
    9000005    1    3    3    0    0 -0.60736735479E+00  0.21960258671E+02 -0.51243972230E+02  0.55763487570E+02  0.10000000000E+01 0.  0.
<mgrwt>
<rscale>  0 0.12500632E+03</rscale>
<asrwt>0</asrwt>
<pdfrwt beam="2">  1        4 0.13817695E-01 0.12500632E+03</pdfrwt>
<pdfrwt beam="1">  1       -4 0.17670481E-01 0.12500632E+03</pdfrwt>
<totfact> 0.19780551E+03</totfact>
</mgrwt>
</event>
<event>
 5    1  0.1438401E-002  0.1250037E+03  0.7818608E-02  0.1235064E+00
         -4   -1    0    0    0  501 -0.00000000000E+00  0.00000000000E+00  0.20986432132E+03  0.20986816400E+03  0.12700000000E+01 0.  1.
          4   -1    0    0  501    0  0.00000000000E+00 -0.00000000000E+00 -0.18588635656E+02  0.18631969181E+02  0.12700000000E+01 0.  1.
         25    2    1    2    0    0  0.00000000000E+00  0.00000000000E+00  0.19127568566E+03  0.22850013318E+03  0.12500369171E+03 0.  0.
    9000005    1    3    3    0    0 -0.53969898226E+02  0.21717788028E+02  0.13736425366E+03  0.14917892082E+03  0.10000000000E+01 0.  0.
    9000005    1    3    3    0    0  0.53969898226E+02 -0.21717788028E+02  0.53911431996E+02  0.79321212366E+02  0.10000000000E+01 0.  0.
<mgrwt>
<rscale>  0 0.12500369E+03</rscale>
<asrwt>0</asrwt>
<pdfrwt beam="2">  1        4 0.46530560E-02 0.12500369E+03</pdfrwt>
<pdfrwt beam="1">  1       -4 0.52471977E-01 0.12500369E+03</pdfrwt>
<totfact> 0.15239757E+03</totfact>
</mgrwt>
</event>
<event>
 4    1  0.1438401E-002  0.1248895E+03  0.7818608E-02  0.1235242E+00
         -4   -1    0    0    0  501 -0.00000000000E+00  0.00000000000E+00  0.50860660900E+03  0.50860819460E+03  0.12700000000E+01 0.  1.
          4   -1    0    0  501    0  0.00000000000E+00 -0.00000000000E+00 -0.76125256820E+01  0.77177358894E+01  0.12700000000E+01 0.  1.
    9000005    1    1    2    0    0 -0.17578307276E+02  0.34531641797E+02  0.45290353974E+03  0.45455917930E+03  0.10000000000E+01 0.  0.
    9000005    1    1    2    0    0  0.17578307276E+02 -0.34531641797E+02  0.48090543573E+02  0.61766751194E+02  0.10000000000E+01 0.  0.
<mgrwt>
<rscale>  0 0.12488953E+03</rscale>
<asrwt>0</asrwt>
<pdfrwt beam="2">  1        4 0.19164809E-02 0.12488953E+03</pdfrwt>
<pdfrwt beam="1">  1       -4 0.12716500E+00 0.12488953E+03</pdfrwt>
<totfact> 0.85280668E+02</totfact>
</mgrwt>
</event>
<event>
 5    1  0.1438401E-002  0.1250013E+03  0.7818608E-02  0.1235067E+00
         -4   -1    0    0    0  501 -0.00000000000E+00  0.00000000000E+00  0.82600878754E+01  0.83571497360E+01  0.12700000000E+01 0. -1.
          4   -1    0    0  501    0  0.00000000000E+00 -0.00000000000E+00 -0.47005648572E+03  0.47005820137E+03  0.12700000000E+01 0. -1.
         25    2    1    2    0    0  0.00000000000E+00  0.00000000000E+00 -0.46179639785E+03  0.47841535110E+03  0.12500134041E+03 0.  0.
    9000005    1    3    3    0    0  0.10852537894E+02  0.27720803192E+01  0.44056168267E+01  0.12077726097E+02  0.10000000000E+01 0.  0.
    9000005    1    3    3    0    0 -0.10852537894E+02 -0.27720803192E+01 -0.46620201468E+03  0.46633762501E+03  0.10000000000E+01 0.  0.
<mgrwt>
<rscale>  0 0.12500134E+03</rscale>
<asrwt>0</asrwt>
<pdfrwt beam="2">  1        4 0.11752638E+00 0.12500134E+03</pdfrwt>
<pdfrwt beam="1">  1       -4 0.20773707E-02 0.12500134E+03</pdfrwt>
<totfact> 0.91126428E+02</totfact>
</mgrwt>
</event>
<event>
 5    1  0.1438401E-002  0.1250011E+03  0.7818608E-02  0.1235068E+00
          4   -1    0    0  501    0  0.00000000000E+00  0.00000000000E+00  0.38114872340E+02  0.38136024878E+02  0.12700000000E+01 0.  1.
         -4   -1    0    0    0  501 -0.00000000000E+00 -0.00000000000E+00 -0.10243448594E+03  0.10244235847E+03  0.12700000000E+01 0.  1.
         25    2    1    2    0    0  0.00000000000E+00  0.00000000000E+00 -0.64319613599E+02  0.14057838335E+03  0.12500107668E+03 0.  0.
    9000005    1    3    3    0    0  0.39682385568E+02 -0.41517467815E+02 -0.44538941971E+01  0.57612750600E+02  0.10000000000E+01 0.  0.
    9000005    1    3    3    0    0 -0.39682385568E+02  0.41517467815E+02 -0.59865719402E+02  0.82965632751E+02  0.10000000000E+01 0.  0.
<mgrwt>
<rscale>  0 0.12500108E+03</rscale>
<asrwt>0</asrwt>
<pdfrwt beam="1">  1        4 0.95323464E-02 0.12500108E+03</pdfrwt>
<pdfrwt beam="2">  1       -4 0.25612249E-01 0.12500108E+03</pdfrwt>
<totfact> 0.19010315E+03</totfact>
</mgrwt>
</event>
<event>
 5    1  0.1438401E-002  0.1250017E+03  0.7818608E-02  0.1235067E+00
         -4   -1    0    0    0  501 -0.00000000000E+00  0.00000000000E+00  0.15397499835E+03  0.15398023580E+03  0.12700000000E+01 0. -1.
          4   -1    0    0  501    0  0.00000000000E+00 -0.00000000000E+00 -0.25348497765E+02  0.25380292334E+02  0.12700000000E+01 0. -1.
         25    2    1    2    0    0  0.00000000000E+00  0.00000000000E+00  0.12862650058E+03  0.17936052813E+03  0.12500168959E+03 0.  0.
    9000005    1    3    3    0    0 -0.58190373458E+02 -0.68335367091E+01  0.95504281533E+02  0.11204858133E+03  0.10000000000E+01 0.  0.
    9000005    1    3    3    0    0  0.58190373458E+02  0.68335367091E+01  0.33122219048E+02  0.67311946799E+02  0.10000000000E+01 0.  0.
<mgrwt>
<rscale>  0 0.12500169E+03</rscale>
<asrwt>0</asrwt>
<pdfrwt beam="2">  1        4 0.63417535E-02 0.12500169E+03</pdfrwt>
<pdfrwt beam="1">  1       -4 0.38498378E-01 0.12500169E+03</pdfrwt>
<totfact> 0.17182255E+03</totfact>
</mgrwt>
</event>
<event>
 5    1  0.1438401E-002  0.1250018E+03  0.7818608E-02  0.1235067E+00
          4   -1    0    0  501    0  0.00000000000E+00  0.00000000000E+00  0.47904113483E+01  0.49558996041E+01  0.12700000000E+01 0. -1.
         -4   -1    0    0    0  501 -0.00000000000E+00 -0.00000000000E+00 -0.80144181777E+03  0.80144282401E+03  0.12700000000E+01 0. -1.
         25    2    1    2    0    0  0.00000000000E+00  0.00000000000E+00 -0.79665140642E+03  0.80639872362E+03  0.12500175241E+03 0.  0.
    9000005    1    3    3    0    0  0.59178552533E+02  0.56275693243E+01 -0.27397017333E+03  0.28034697518E+03  0.10000000000E+01 0.  0.
    9000005    1    3    3    0    0 -0.59178552533E+02 -0.56275693243E+01 -0.52268123308E+03  0.52605174844E+03  0.10000000000E+01 0.  0.
<mgrwt>
<rscale>  0 0.12500175E+03</rscale>
<asrwt>0</asrwt>
<pdfrwt beam="1">  1        4 0.12184174E-02 0.12500175E+03</pdfrwt>
<pdfrwt beam="2">  1       -4 0.20038082E+00 0.12500175E+03</pdfrwt>
<totfact> 0.51914157E+02</totfact>
</mgrwt>
</event>
<event>
 5    1  0.1438401E-002  0.1250041E+03  0.7818608E-02  0.1235063E+00
         -4   -1    0    0    0  501 -0.00000000000E+00  0.00000000000E+00  0.73096176499E+02  0.73107208391E+02  0.12700000000E+01 0.  1.
          4   -1    0    0  501    0  0.00000000000E+00 -0.00000000000E+00 -0.53420720975E+02  0.53435815044E+02  0.12700000000E+01 0.  1.
         25    2    1    2    0    0  0.00000000000E+00  0.00000000000E+00  0.19675455524E+02  0.12654302344E+03  0.12500405285E+03 0.  0.
    9000005    1    3    3    0    0 -0.32420416041E+02  0.47697430790E+02  0.34204275290E+02  0.67060127709E+02  0.10000000000E+01 0.  0.
    9000005    1    3    3    0    0  0.32420416041E+02 -0.47697430790E+02 -0.14528819766E+02  0.59482895726E+02  0.10000000000E+01 0.  0.
<mgrwt>
<rscale>  0 0.12500405E+03</rscale>
<asrwt>0</asrwt>
<pdfrwt beam="2">  1        4 0.13358446E-01 0.12500405E+03</pdfrwt>
<pdfrwt beam="1">  1       -4 0.18277310E-01 0.12500405E+03</pdfrwt>
<totfact> 0.19749732E+03</totfact>
</mgrwt>
</event>
<event>
 5    1  0.1438401E-002  0.1249988E+03  0.7818608E-02  0.1235071E+00
         -4   -1    0    0    0  501 -0.00000000000E+00  0.00000000000E+00  0.15549233016E+03  0.15549751650E+03  0.12700000000E+01 0. -1.
          4   -1    0    0  501    0  0.00000000000E+00 -0.00000000000E+00 -0.25099683576E+02  0.25131792925E+02  0.12700000000E+01 0. -1.
         25    2    1    2    0    0  0.00000000000E+00  0.00000000000E+00  0.13039264658E+03  0.18062930943E+03  0.12499882056E+03 0.  0.
    9000005    1    3    3    0    0 -0.61658273195E+02 -0.47340690234E+01  0.52189106403E+02  0.80925007816E+02  0.10000000000E+01 0.  0.
    9000005    1    3    3    0    0  0.61658273195E+02  0.47340690234E+01  0.78203540182E+02  0.99704301612E+02  0.10000000000E+01 0.  0.
<mgrwt>
<rscale>  0 0.12499882E+03</rscale>
<asrwt>0</asrwt>
<pdfrwt beam="2">  1        4 0.62795830E-02 0.12499882E+03</pdfrwt>
<pdfrwt beam="1">  1       -4 0.38877744E-01 0.12499882E+03</pdfrwt>
<totfact> 0.17128478E+03</totfact>
</mgrwt>
</event>
<event>
 5    1  0.1438401E-002  0.1250317E+03  0.7818608E-02  0.1235020E+00
         -4   -1    0    0    0  501 -0.00000000000E+00  0.00000000000E+00  0.55995678940E+01  0.57417820055E+01  0.12700000000E+01 0. -1.
          4   -1    0    0  501    0  0.00000000000E+00 -0.00000000000E+00 -0.68905796839E+03  0.68905913875E+03  0.12700000000E+01 0. -1.
         25    2    1    2    0    0  0.00000000000E+00  0.00000000000E+00 -0.68345840049E+03  0.69480092076E+03  0.12503173310E+03 0.  0.
    9000005    1    3    3    0    0  0.41983535529E+02 -0.13503158396E+02 -0.58789104433E+03  0.58954374948E+03  0.10000000000E+01 0.  0.
    9000005    1    3    3    0    0 -0.41983535529E+02  0.13503158396E+02 -0.95567356158E+02  0.10525717128E+03  0.10000000000E+01 0.  0.
<mgrwt>
<rscale>  0 0.12503173E+03</rscale>
<asrwt>0</asrwt>
<pdfrwt beam="2">  1        4 0.17228213E+00 0.12503173E+03</pdfrwt>
<pdfrwt beam="1">  1       -4 0.14178174E-02 0.12503173E+03</pdfrwt>
<totfact> 0.62563322E+02</totfact>
</mgrwt>
</event>
<event>
 5    1  0.1438401E-002  0.1249975E+03  0.7818608E-02  0.1235073E+00
         -4   -1    0    0    0  501 -0.00000000000E+00  0.00000000000E+00  0.84540226808E+02  0.84549765516E+02  0.12700000000E+01 0. -1.
          4   -1    0    0  501    0  0.00000000000E+00 -0.00000000000E+00 -0.46183111134E+02  0.46200569845E+02  0.12700000000E+01 0. -1.
         25    2    1    2    0    0  0.00000000000E+00  0.00000000000E+00  0.38357115674E+02  0.13075033536E+03  0.12499752747E+03 0.  0.
    9000005    1    3    3    0    0  0.43503247078E+01 -0.52220548236E+02  0.54792304819E+02  0.75822870234E+02  0.10000000000E+01 0.  0.
    9000005    1    3    3    0    0 -0.43503247078E+01  0.52220548236E+02 -0.16435189145E+02  0.54927465127E+02  0.10000000000E+01 0.  0.
<mgrwt>
<rscale>  0 0.12499753E+03</rscale>
<asrwt>0</asrwt>
<pdfrwt beam="2">  1        4 0.11549153E-01 0.12499753E+03</pdfrwt>
<pdfrwt beam="1">  1       -4 0.21138431E-01 0.12499753E+03</pdfrwt>
<totfact> 0.19525257E+03</totfact>
</mgrwt>
</event>
<event>
 5    1  0.1438401E-002  0.1250009E+03  0.7818608E-02  0.1235068E+00
         -4   -1    0    0    0  501 -0.00000000000E+00  0.00000000000E+00  0.79600267692E+01  0.80607025852E+01  0.12700000000E+01 0. -1.
          4   -1    0    0  501    0  0.00000000000E+00 -0.00000000000E+00 -0.48755512644E+03  0.48755678051E+03  0.12700000000E+01 0. -1.
         25    2    1    2    0    0  0.00000000000E+00  0.00000000000E+00 -0.47959509967E+03  0.49561748310E+03  0.12500091967E+03 0.  0.
    9000005    1    3    3    0    0 -0.54751508678E+02 -0.27182865298E+02 -0.29129128634E+03  0.29763778216E+03  0.10000000000E+01 0.  0.
    9000005    1    3    3    0    0  0.54751508678E+02  0.27182865298E+02 -0.18830381333E+03  0.19797970094E+03  0.10000000000E+01 0.  0.
<mgrwt>
<rscale>  0 0.12500092E+03</rscale>
<asrwt>0</asrwt>
<pdfrwt beam="2">  1        4 0.12190147E+00 0.12500092E+03</pdfrwt>
<pdfrwt beam="1">  1       -4 0.20027996E-02 0.12500092E+03</pdfrwt>
<totfact> 0.88306368E+02</totfact>
</mgrwt>
</event>
<event>
 5    1  0.1438401E-002  0.1249998E+03  0.7818608E-02  0.1235070E+00
          4   -1    0    0  501    0  0.00000000000E+00  0.00000000000E+00  0.48967237309E+01  0.50587353456E+01  0.12700000000E+01 0.  1.
         -4   -1    0    0    0  501 -0.00000000000E+00 -0.00000000000E+00 -0.78458012728E+03  0.78458115515E+03  0.12700000000E+01 0.  1.
         25    2    1    2    0    0  0.00000000000E+00  0.00000000000E+00 -0.77968340355E+03  0.78963989050E+03  0.12499978759E+03 0.  0.
    9000005    1    3    3    0    0  0.54595350752E+02 -0.30388119159E+02 -0.38307731279E+03  0.38814084774E+03  0.10000000000E+01 0.  0.
    9000005    1    3    3    0    0 -0.54595350752E+02  0.30388119159E+02 -0.39660609076E+03  0.40149904276E+03  0.10000000000E+01 0.  0.
<mgrwt>
<rscale>  0 0.12499979E+03</rscale>
<asrwt>0</asrwt>
<pdfrwt beam="1">  1        4 0.12445635E-02 0.12499979E+03</pdfrwt>
<pdfrwt beam="2">  1       -4 0.19616499E+00 0.12499979E+03</pdfrwt>
<totfact> 0.53401492E+02</totfact>
</mgrwt>
</event>
<event>
 5    1  0.1438401E-002  0.1249969E+03  0.7818608E-02  0.1235074E+00
          4   -1    0    0  501    0  0.00000000000E+00  0.00000000000E+00  0.31204731966E+03  0.31204990404E+03  0.12700000000E+01 0. -1.
         -4   -1    0    0    0  501 -0.00000000000E+00 -0.00000000000E+00 -0.12482652403E+02  0.12547091735E+02  0.12700000000E+01 0. -1.
         25    2    1    2    0    0  0.00000000000E+00  0.00000000000E+00  0.29956466726E+03  0.32459699577E+03  0.12499687913E+03 0.  0.
    9000005    1    3    3    0    0 -0.47795492788E+02 -0.87761952317E+01  0.47755098559E+02  0.68139417168E+02  0.10000000000E+01 0.  0.
    9000005    1    3    3    0    0  0.47795492788E+02  0.87761952317E+01  0.25180956870E+03  0.25645757861E+03  0.10000000000E+01 0.  0.
<mgrwt>
<rscale>  0 0.12499688E+03</rscale>
<asrwt>0</asrwt>
<pdfrwt beam="1">  1        4 0.78020205E-01 0.12499688E+03</pdfrwt>
<pdfrwt beam="2">  1       -4 0.31290412E-02 0.12499688E+03</pdfrwt>
<totfact> 0.12309521E+03</totfact>
</mgrwt>
</event>
<event>
 5    1  0.1438401E-002  0.1249991E+03  0.7818608E-02  0.1235071E+00
         -4   -1    0    0    0  501 -0.00000000000E+00  0.00000000000E+00  0.33300542927E+02  0.33324751451E+02  0.12700000000E+01 0.  1.
          4   -1    0    0  501    0  0.00000000000E+00 -0.00000000000E+00 -0.11723096027E+03  0.11723783922E+03  0.12700000000E+01 0.  1.
         25    2    1    2    0    0  0.00000000000E+00  0.00000000000E+00 -0.83930417344E+02  0.15056259068E+03  0.12499911502E+03 0.  0.
    9000005    1    3    3    0    0  0.43681436341E+01 -0.32203282035E+02 -0.10625783091E+03  0.11112091919E+03  0.10000000000E+01 0.  0.
    9000005    1    3    3    0    0 -0.43681436341E+01  0.32203282035E+02  0.22327413567E+02  0.39441671481E+02  0.10000000000E+01 0.  0.
<mgrwt>
<rscale>  0 0.12499912E+03</rscale>
<asrwt>0</asrwt>
<pdfrwt beam="2">  1        4 0.29311625E-01 0.12499912E+03</pdfrwt>
<pdfrwt beam="1">  1       -4 0.83290219E-02 0.12499912E+03</pdfrwt>
<totfact> 0.18511534E+03</totfact>
</mgrwt>
</event>
<event>
 5    1  0.1438401E-002  0.1250263E+03  0.7818608E-02  0.1235028E+00
          4   -1    0    0  501    0  0.00000000000E+00  0.00000000000E+00  0.89610129137E+01  0.90505608908E+01  0.12700000000E+01 0. -1.
         -4   -1    0    0    0  501 -0.00000000000E+00 -0.00000000000E+00 -0.43384104186E+03  0.43384290071E+03  0.12700000000E+01 0. -1.
         25    2    1    2    0    0  0.00000000000E+00  0.00000000000E+00 -0.42488002894E+03  0.44289346160E+03  0.12502631458E+03 0.  0.
    9000005    1    3    3    0    0  0.46170785524E+01  0.62134669266E+02 -0.19477756312E+03  0.20450264945E+03  0.10000000000E+01 0.  0.
    9000005    1    3    3    0    0 -0.46170785524E+01 -0.62134669266E+02 -0.23010246582E+03  0.23839081215E+03  0.10000000000E+01 0.  0.
<mgrwt>
<rscale>  0 0.12502631E+03</rscale>
<asrwt>0</asrwt>
<pdfrwt beam="1">  1        4 0.22516805E-02 0.12502631E+03</pdfrwt>
<pdfrwt beam="2">  1       -4 0.10847162E+00 0.12502631E+03</pdfrwt>
<totfact> 0.97248892E+02</totfact>
</mgrwt>
</event>
<event>
 5    1  0.1438401E-002  0.1249993E+03  0.7818608E-02  0.1235070E+00
          4   -1    0    0  501    0  0.00000000000E+00  0.00000000000E+00  0.46162901905E+02  0.46180368256E+02  0.12700000000E+01 0. -1.
         -4   -1    0    0    0  501 -0.00000000000E+00 -0.00000000000E+00 -0.84579586479E+02  0.84589120749E+02  0.12700000000E+01 0. -1.
         25    2    1    2    0    0  0.00000000000E+00  0.00000000000E+00 -0.38416684575E+02  0.13076948900E+03  0.12499927040E+03 0.  0.
    9000005    1    3    3    0    0  0.55284794964E+02  0.27265996601E+02 -0.84699452363E+01  0.62230081932E+02  0.10000000000E+01 0.  0.
    9000005    1    3    3    0    0 -0.55284794964E+02 -0.27265996601E+02 -0.29946739338E+02  0.68539407073E+02  0.10000000000E+01 0.  0.
<mgrwt>
<rscale>  0 0.12499927E+03</rscale>
<asrwt>0</asrwt>
<pdfrwt beam="1">  1        4 0.11544101E-01 0.12499927E+03</pdfrwt>
<pdfrwt beam="2">  1       -4 0.21148271E-01 0.12499927E+03</pdfrwt>
<totfact> 0.19523437E+03</totfact>
</mgrwt>
</event>
<event>
 5    1  0.1438401E-002  0.1249941E+03  0.7818608E-02  0.1235079E+00
         -4   -1    0    0    0  501 -0.00000000000E+00  0.00000000000E+00  0.66355558686E+02  0.66367711039E+02  0.12700000000E+01 0. -1.
          4   -1    0    0  501    0  0.00000000000E+00 -0.00000000000E+00 -0.58838515562E+02  0.58852220124E+02  0.12700000000E+01 0. -1.
         25    2    1    2    0    0  0.00000000000E+00  0.00000000000E+00  0.75170431241E+01  0.12521993116E+03  0.12499410075E+03 0.  0.
    9000005    1    3    3    0    0  0.29506074309E+02 -0.54118665622E+02 -0.65285710111E+01  0.61992423967E+02  0.10000000000E+01 0.  0.
    9000005    1    3    3    0    0 -0.29506074309E+02  0.54118665622E+02  0.14045614135E+02  0.63227507196E+02  0.10000000000E+01 0.  0.
<mgrwt>
<rscale>  0 0.12499410E+03</rscale>
<asrwt>0</asrwt>
<pdfrwt beam="2">  1        4 0.14712861E-01 0.12499410E+03</pdfrwt>
<pdfrwt beam="1">  1       -4 0.16592122E-01 0.12499410E+03</pdfrwt>
<totfact> 0.19825869E+03</totfact>
</mgrwt>
</event>
<event>
 5    1  0.1438401E-002  0.1249990E+03  0.7818608E-02  0.1235071E+00
          4   -1    0    0  501    0  0.00000000000E+00  0.00000000000E+00  0.20198820950E+02  0.20238707166E+02  0.12700000000E+01 0. -1.
         -4   -1    0    0    0  501 -0.00000000000E+00 -0.00000000000E+00 -0.19315407748E+03  0.19315825260E+03  0.12700000000E+01 0. -1.
         25    2    1    2    0    0  0.00000000000E+00  0.00000000000E+00 -0.17295525653E+03  0.21339695976E+03  0.12499896670E+03 0.  0.
    9000005    1    3    3    0    0 -0.54352675764E+02  0.27126367459E+02 -0.61437614737E+02  0.86403898516E+02  0.10000000000E+01 0.  0.
    9000005    1    3    3    0    0  0.54352675764E+02 -0.27126367459E+02 -0.11151764179E+03  0.12699306125E+03  0.10000000000E+01 0.  0.
<mgrwt>
<rscale>  0 0.12499897E+03</rscale>
<asrwt>0</asrwt>
<pdfrwt beam="1">  1        4 0.50552135E-02 0.12499897E+03</pdfrwt>
<pdfrwt beam="2">  1       -4 0.48294021E-01 0.12499897E+03</pdfrwt>
<totfact> 0.15799677E+03</totfact>
</mgrwt>
</event>
<event>
 5    1  0.1438401E-002  0.1250031E+03  0.7818608E-02  0.1235064E+00
          4   -1    0    0  501    0  0.00000000000E+00  0.00000000000E+00  0.22622465039E+03  0.22622821518E+03  0.12700000000E+01 0.  1.
         -4   -1    0    0    0  501 -0.00000000000E+00 -0.00000000000E+00 -0.17240937867E+02  0.17287649885E+02  0.12700000000E+01 0.  1.
         25    2    1    2    0    0  0.00000000000E+00  0.00000000000E+00  0.20898371252E+03  0.24351586506E+03  0.12500313772E+03 0.  0.
    9000005    1    3    3    0    0 -0.49793844573E+02 -0.42312265263E+01  0.17759323088E+03  0.18449305106E+03  0.10000000000E+01 0.  0.
    9000005    1    3    3    0    0  0.49793844573E+02  0.42312265263E+01  0.31390481641E+02  0.59022814003E+02  0.10000000000E+01 0.  0.
<mgrwt>
<rscale>  0 0.12500314E+03</rscale>
<asrwt>0</asrwt>
<pdfrwt beam="1">  1        4 0.56562446E-01 0.12500314E+03</pdfrwt>
<pdfrwt beam="2">  1       -4 0.43165192E-02 0.12500314E+03</pdfrwt>
<totfact> 0.14715026E+03</totfact>
</mgrwt>
</event>
<event>
 5    1  0.1438401E-002  0.1249978E+03  0.7818608E-02  0.1235073E+00
         -4   -1    0    0    0  501 -0.00000000000E+00  0.00000000000E+00  0.41394531189E+02  0.41414008649E+02  0.12700000000E+01 0.  1.
          4   -1    0    0  501    0  0.00000000000E+00 -0.00000000000E+00 -0.94317091752E+02  0.94325641777E+02  0.12700000000E+01 0.  1.
         25    2    1    2    0    0  0.00000000000E+00  0.00000000000E+00 -0.52922560564E+02  0.13573965043E+03  0.12499782111E+03 0.  0.
    9000005    1    3    3    0    0 -0.19558047454E+02  0.19027933259E+02  0.34588561326E+02  0.44067539515E+02  0.10000000000E+01 0.  0.
    9000005    1    3    3    0    0  0.19558047454E+02 -0.19027933259E+02 -0.87511121890E+02  0.91672110910E+02  0.10000000000E+01 0.  0.
<mgrwt>
<rscale>  0 0.12499782E+03</rscale>
<asrwt>0</asrwt>
<pdfrwt beam="2">  1        4 0.23582776E-01 0.12499782E+03</pdfrwt>
<pdfrwt beam="1">  1       -4 0.10352136E-01 0.12499782E+03</pdfrwt>
<totfact> 0.19261444E+03</totfact>
</mgrwt>
</event>
<event>
 5    1  0.1438401E-002  0.1249913E+03  0.7818608E-02  0.1235083E+00
          4   -1    0    0  501    0  0.00000000000E+00  0.00000000000E+00  0.63224012517E+03  0.63224140072E+03  0.12700000000E+01 0.  1.
         -4   -1    0    0    0  501 -0.00000000000E+00 -0.00000000000E+00 -0.61110004440E+01  0.62415724322E+01  0.12700000000E+01 0.  1.
         25    2    1    2    0    0  0.00000000000E+00  0.00000000000E+00  0.62612912473E+03  0.63848297315E+03  0.12499130436E+03 0.  0.
    9000005    1    3    3    0    0 -0.10060337934E+02 -0.40055578269E+02  0.55260936647E+03  0.55415139778E+03  0.10000000000E+01 0.  0.
    9000005    1    3    3    0    0  0.10060337934E+02  0.40055578269E+02  0.73519758261E+02  0.84331575371E+02  0.10000000000E+01 0.  0.
<mgrwt>
<rscale>  0 0.12499130E+03</rscale>
<asrwt>0</asrwt>
<pdfrwt beam="1">  1        4 0.15807655E+00 0.12499130E+03</pdfrwt>
<pdfrwt beam="2">  1       -4 0.15442307E-02 0.12499130E+03</pdfrwt>
<totfact> 0.68857859E+02</totfact>
</mgrwt>
</event>
<event>
 5    1  0.1438401E-002  0.1250031E+03  0.7818608E-02  0.1235064E+00
          4   -1    0    0  501    0  0.00000000000E+00  0.00000000000E+00  0.27710880546E+02  0.27739967567E+02  0.12700000000E+01 0.  1.
         -4   -1    0    0    0  501 -0.00000000000E+00 -0.00000000000E+00 -0.14086568409E+03  0.14087140893E+03  0.12700000000E+01 0.  1.
         25    2    1    2    0    0  0.00000000000E+00  0.00000000000E+00 -0.11315480354E+03  0.16861137649E+03  0.12500314684E+03 0.  0.
    9000005    1    3    3    0    0 -0.53767001423E+02  0.29376076464E+02 -0.73185462421E+02  0.95451329064E+02  0.10000000000E+01 0.  0.
    9000005    1    3    3    0    0  0.53767001423E+02 -0.29376076464E+02 -0.39969341121E+02  0.73160047430E+02  0.10000000000E+01 0.  0.
<mgrwt>
<rscale>  0 0.12500315E+03</rscale>
<asrwt>0</asrwt>
<pdfrwt beam="1">  1        4 0.69320720E-02 0.12500315E+03</pdfrwt>
<pdfrwt beam="2">  1       -4 0.35220771E-01 0.12500315E+03</pdfrwt>
<totfact> 0.17658572E+03</totfact>
</mgrwt>
</event>
<event>
 5    1  0.1438401E-002  0.1249914E+03  0.7818608E-02  0.1235083E+00
         -4   -1    0    0    0  501 -0.00000000000E+00  0.00000000000E+00  0.91537311533E+01  0.92414119066E+01  0.12700000000E+01 0. -1.
          4   -1    0    0  501    0  0.00000000000E+00 -0.00000000000E+00 -0.42455711807E+03  0.42455901757E+03  0.12700000000E+01 0. -1.
         25    2    1    2    0    0  0.00000000000E+00  0.00000000000E+00 -0.41540338692E+03  0.43380042948E+03  0.12499135473E+03 0.  0.
    9000005    1    3    3    0    0 -0.43075760499E+02  0.45169900945E+02 -0.19736605246E+03  0.20700289794E+03  0.10000000000E+01 0.  0.
    9000005    1    3    3    0    0  0.43075760499E+02 -0.45169900945E+02 -0.21803733446E+03  0.22679753154E+03  0.10000000000E+01 0.  0.
<mgrwt>
<rscale>  0 0.12499135E+03</rscale>
<asrwt>0</asrwt>
<pdfrwt beam="2">  1        4 0.10615041E+00 0.12499135E+03</pdfrwt>
<pdfrwt beam="1">  1       -4 0.22996317E-02 0.12499135E+03</pdfrwt>
<totfact> 0.99019290E+02</totfact>
</mgrwt>
</event>
<event>
 5    1  0.1438401E-002  0.1250044E+03  0.7818608E-02  0.1235062E+00
          4   -1    0    0  501    0  0.00000000000E+00  0.00000000000E+00  0.12422879125E+02  0.12487626907E+02  0.12700000000E+01 0.  1.
         -4   -1    0    0    0  501 -0.00000000000E+00 -0.00000000000E+00 -0.31357864377E+03  0.31358121552E+03  0.12700000000E+01 0.  1.
         25    2    1    2    0    0  0.00000000000E+00  0.00000000000E+00 -0.30115576464E+03  0.32606884242E+03  0.12500438162E+03 0.  0.
    9000005    1    3    3    0    0  0.56972234766E+02 -0.13564387271E+01 -0.83674669237E+02  0.10124290460E+03  0.10000000000E+01 0.  0.
    9000005    1    3    3    0    0 -0.56972234766E+02  0.13564387271E+01 -0.21748109540E+03  0.22482593782E+03  0.10000000000E+01 0.  0.
<mgrwt>
<rscale>  0 0.12500438E+03</rscale>
<asrwt>0</asrwt>
<pdfrwt beam="1">  1        4 0.31141357E-02 0.12500438E+03</pdfrwt>
<pdfrwt beam="2">  1       -4 0.78403050E-01 0.12500438E+03</pdfrwt>
<totfact> 0.12269421E+03</totfact>
</mgrwt>
</event>
<event>
 5    1  0.1438401E-002  0.1250064E+03  0.7818608E-02  0.1235059E+00
          4   -1    0    0  501    0  0.00000000000E+00  0.00000000000E+00  0.26076258830E+02  0.26107167111E+02  0.12700000000E+01 0. -1.
         -4   -1    0    0    0  501 -0.00000000000E+00 -0.00000000000E+00 -0.14969409965E+03  0.14969948687E+03  0.12700000000E+01 0. -1.
         25    2    1    2    0    0  0.00000000000E+00  0.00000000000E+00 -0.12361784082E+03  0.17580665398E+03  0.12500643590E+03 0.  0.
    9000005    1    3    3    0    0  0.24222327902E+02  0.55724318040E+02 -0.82369585811E+02  0.10236048777E+03  0.10000000000E+01 0.  0.
    9000005    1    3    3    0    0 -0.24222327902E+02 -0.55724318040E+02 -0.41248255008E+02  0.73446166212E+02  0.10000000000E+01 0.  0.
<mgrwt>
<rscale>  0 0.12500644E+03</rscale>
<asrwt>0</asrwt>
<pdfrwt beam="1">  1        4 0.65236021E-02 0.12500644E+03</pdfrwt>
<pdfrwt beam="2">  1       -4 0.37428059E-01 0.12500644E+03</pdfrwt>
<totfact> 0.17335690E+03</totfact>
</mgrwt>
</event>
<event>
 5    1  0.1438401E-002  0.1249978E+03  0.7818608E-02  0.1235073E+00
          4   -1    0    0  501    0  0.00000000000E+00  0.00000000000E+00  0.76099258831E+01  0.77151715435E+01  0.12700000000E+01 0. -1.
         -4   -1    0    0    0  501 -0.00000000000E+00 -0.00000000000E+00 -0.50966107537E+03  0.50966265770E+03  0.12700000000E+01 0. -1.
         25    2    1    2    0    0  0.00000000000E+00  0.00000000000E+00 -0.50205114949E+03  0.51737782924E+03  0.12499784592E+03 0.  0.
    9000005    1    3    3    0    0  0.47213055998E+02 -0.51513821452E+01 -0.82919954978E+02  0.95563216397E+02  0.10000000000E+01 0.  0.
    9000005    1    3    3    0    0 -0.47213055998E+02  0.51513821452E+01 -0.41913119451E+03  0.42181461284E+03  0.10000000000E+01 0.  0.
<mgrwt>
<rscale>  0 0.12499785E+03</rscale>
<asrwt>0</asrwt>
<pdfrwt beam="1">  1        4 0.19158367E-02 0.12499785E+03</pdfrwt>
<pdfrwt beam="2">  1       -4 0.12742851E+00 0.12499785E+03</pdfrwt>
<totfact> 0.84911702E+02</totfact>
</mgrwt>
</event>
<event>
 5    1  0.1438401E-002  0.1250071E+03  0.7818608E-02  0.1235058E+00
         -4   -1    0    0    0  501 -0.00000000000E+00  0.00000000000E+00  0.12131141804E+04  0.12131148452E+04  0.12700000000E+01 0. -1.
          4   -1    0    0  501    0  0.00000000000E+00 -0.00000000000E+00 -0.30944837532E+01  0.33449558591E+01  0.12700000000E+01 0. -1.
         25    2    1    2    0    0  0.00000000000E+00  0.00000000000E+00  0.12100196966E+04  0.12164598010E+04  0.12500712485E+03 0.  0.
    9000005    1    3    3    0    0 -0.10667955277E+02  0.83214569530E+01  0.11280231255E+02  0.17643569162E+02  0.10000000000E+01 0.  0.
    9000005    1    3    3    0    0  0.10667955277E+02 -0.83214569530E+01  0.11987394654E+04  0.11988162319E+04  0.10000000000E+01 0.  0.
<mgrwt>
<rscale>  0 0.12500712E+03</rscale>
<asrwt>0</asrwt>
<pdfrwt beam="2">  1        4 0.80501290E-03 0.12500712E+03</pdfrwt>
<pdfrwt beam="1">  1       -4 0.30330999E+00 0.12500712E+03</pdfrwt>
<totfact> 0.24348386E+02</totfact>
</mgrwt>
</event>
<event>
 5    1  0.1438401E-002  0.1249957E+03  0.7818608E-02  0.1235076E+00
          4   -1    0    0  501    0  0.00000000000E+00  0.00000000000E+00  0.36944904079E+02  0.36966726084E+02  0.12700000000E+01 0. -1.
         -4   -1    0    0    0  501 -0.00000000000E+00 -0.00000000000E+00 -0.10566766545E+03  0.10567529712E+03  0.12700000000E+01 0. -1.
         25    2    1    2    0    0  0.00000000000E+00  0.00000000000E+00 -0.68722761373E+02  0.14264202321E+03  0.12499571534E+03 0.  0.
    9000005    1    3    3    0    0  0.61483845144E+02  0.63524777457E+01 -0.23879635761E+02  0.66271066019E+02  0.10000000000E+01 0.  0.
    9000005    1    3    3    0    0 -0.61483845144E+02 -0.63524777457E+01 -0.44843125613E+02  0.76370957189E+02  0.10000000000E+01 0.  0.
<mgrwt>
<rscale>  0 0.12499572E+03</rscale>
<asrwt>0</asrwt>
<pdfrwt beam="1">  1        4 0.92399080E-02 0.12499572E+03</pdfrwt>
<pdfrwt beam="2">  1       -4 0.26420597E-01 0.12499572E+03</pdfrwt>
<totfact> 0.18907875E+03</totfact>
</mgrwt>
</event>
<event>
 5    1  0.1438401E-002  0.1250001E+03  0.7818608E-02  0.1235069E+00
          4   -1    0    0  501    0  0.00000000000E+00  0.00000000000E+00  0.42420067758E+02  0.42439074549E+02  0.12700000000E+01 0. -1.
         -4   -1    0    0    0  501 -0.00000000000E+00 -0.00000000000E+00 -0.92041066902E+02  0.92049828335E+02  0.12700000000E+01 0. -1.
         25    2    1    2    0    0  0.00000000000E+00  0.00000000000E+00 -0.49620999144E+02  0.13448890288E+03  0.12500008577E+03 0.  0.
    9000005    1    3    3    0    0 -0.93176270836E+01 -0.29901303645E+02  0.33371783269E+02  0.45777527814E+02  0.10000000000E+01 0.  0.
    9000005    1    3    3    0    0  0.93176270836E+01  0.29901303645E+02 -0.82992782414E+02  0.88711375071E+02  0.10000000000E+01 0.  0.
<mgrwt>
<rscale>  0 0.12500009E+03</rscale>
<asrwt>0</asrwt>
<pdfrwt beam="1">  1        4 0.10608488E-01 0.12500009E+03</pdfrwt>
<pdfrwt beam="2">  1       -4 0.23013737E-01 0.12500009E+03</pdfrwt>
<totfact> 0.19325902E+03</totfact>
</mgrwt>
</event>
<event>
 4    1  0.1438401E-002  0.1249137E+03  0.7818608E-02  0.1235204E+00
         -4   -1    0    0    0  501 -0.00000000000E+00  0.00000000000E+00  0.16387735036E+03  0.16388227135E+03  0.12700000000E+01 0.  1.
          4   -1    0    0  501    0  0.00000000000E+00 -0.00000000000E+00 -0.23781297780E+02  0.23815184738E+02  0.12700000000E+01 0.  1.
    9000005    1    1    2    0    0  0.36104638997E+02  0.41604733135E+02  0.11425049124E+03  0.12684113499E+03  0.10000000000E+01 0.  0.
    9000005    1    1    2    0    0 -0.36104638997E+02 -0.41604733135E+02  0.25845561343E+02  0.60856321097E+02  0.10000000000E+01 0.  0.
<mgrwt>
<rscale>  0 0.12491369E+03</rscale>
<asrwt>0</asrwt>
<pdfrwt beam="2">  1        4 0.59501756E-02 0.12491369E+03</pdfrwt>
<pdfrwt beam="1">  1       -4 0.40974188E-01 0.12491369E+03</pdfrwt>
<totfact> 0.16860473E+03</totfact>
</mgrwt>
</event>
<event>
 5    1  0.1438401E-002  0.1250132E+03  0.7818608E-02  0.1235049E+00
          4   -1    0    0  501    0  0.00000000000E+00  0.00000000000E+00  0.16180756978E+03  0.16181255371E+03  0.12700000000E+01 0.  1.
         -4   -1    0    0    0  501 -0.00000000000E+00 -0.00000000000E+00 -0.24124356558E+02  0.24157762299E+02  0.12700000000E+01 0.  1.
         25    2    1    2    0    0  0.00000000000E+00  0.00000000000E+00  0.13768321322E+03  0.18597031601E+03  0.12501316424E+03 0.  0.
    9000005    1    3    3    0    0  0.21071822584E+02 -0.21007327667E+02 -0.12919129074E+02  0.32453557875E+02  0.10000000000E+01 0.  0.
    9000005    1    3    3    0    0 -0.21071822584E+02  0.21007327667E+02  0.15060234229E+03  0.15351675813E+03  0.10000000000E+01 0.  0.
<mgrwt>
<rscale>  0 0.12501316E+03</rscale>
<asrwt>0</asrwt>
<pdfrwt beam="1">  1        4 0.40456691E-01 0.12501316E+03</pdfrwt>
<pdfrwt beam="2">  1       -4 0.60358879E-02 0.12501316E+03</pdfrwt>
<totfact> 0.16894515E+03</totfact>
</mgrwt>
</event>
<event>
 5    1  0.1438401E-002  0.1250008E+03  0.7818608E-02  0.1235068E+00
          4   -1    0    0  501    0  0.00000000000E+00  0.00000000000E+00  0.14958284861E+03  0.14958823984E+03  0.12700000000E+01 0.  1.
         -4   -1    0    0    0  501 -0.00000000000E+00 -0.00000000000E+00 -0.26093318466E+02  0.26124206563E+02  0.12700000000E+01 0.  1.
         25    2    1    2    0    0  0.00000000000E+00  0.00000000000E+00  0.12348953014E+03  0.17571244640E+03  0.12500079906E+03 0.  0.
    9000005    1    3    3    0    0  0.54339650261E+02  0.10116153925E+02  0.10273133233E+03  0.11666130808E+03  0.10000000000E+01 0.  0.
    9000005    1    3    3    0    0 -0.54339650261E+02 -0.10116153925E+02  0.20758197815E+02  0.59051138323E+02  0.10000000000E+01 0.  0.
<mgrwt>
<rscale>  0 0.12500080E+03</rscale>
<asrwt>0</asrwt>
<pdfrwt beam="1">  1        4 0.37400247E-01 0.12500080E+03</pdfrwt>
<pdfrwt beam="2">  1       -4 0.65278646E-02 0.12500080E+03</pdfrwt>
<totfact> 0.17342106E+03</totfact>
</mgrwt>
</event>
<event>
 5    1  0.1438401E-002  0.1250005E+03  0.7818608E-02  0.1235069E+00
          4   -1    0    0  501    0  0.00000000000E+00  0.00000000000E+00  0.29340264839E+03  0.29340539699E+03  0.12700000000E+01 0.  1.
         -4   -1    0    0    0  501 -0.00000000000E+00 -0.00000000000E+00 -0.13280608053E+02  0.13341193734E+02  0.12700000000E+01 0.  1.
         25    2    1    2    0    0  0.00000000000E+00  0.00000000000E+00  0.28012204034E+03  0.30674659072E+03  0.12500045375E+03 0.  0.
    9000005    1    3    3    0    0  0.61224416638E+01 -0.13621291085E+02 -0.88493885474E+01  0.17387798608E+02  0.10000000000E+01 0.  0.
    9000005    1    3    3    0    0 -0.61224416638E+01  0.13621291085E+02  0.28897142889E+03  0.28935879212E+03  0.10000000000E+01 0.  0.
<mgrwt>
<rscale>  0 0.12500045E+03</rscale>
<asrwt>0</asrwt>
<pdfrwt beam="1">  1        4 0.73358580E-01 0.12500045E+03</pdfrwt>
<pdfrwt beam="2">  1       -4 0.33280687E-02 0.12500045E+03</pdfrwt>
<totfact> 0.12783922E+03</totfact>
</mgrwt>
</event>
<event>
 5    1  0.1438401E-002  0.1250009E+03  0.7818608E-02  0.1235068E+00
          4   -1    0    0  501    0  0.00000000000E+00  0.00000000000E+00  0.27297314263E+02  0.27326841493E+02  0.12700000000E+01 0.  1.
         -4   -1    0    0    0  501 -0.00000000000E+00 -0.00000000000E+00 -0.14299258678E+03  0.14299822647E+03  0.12700000000E+01 0.  1.
         25    2    1    2    0    0  0.00000000000E+00  0.00000000000E+00 -0.11569527252E+03  0.17032506797E+03  0.12500093078E+03 0.  0.
    9000005    1    3    3    0    0 -0.20044901648E+02  0.25657114232E+02 -0.13052906359E+03  0.13453223418E+03  0.10000000000E+01 0.  0.
    9000005    1    3    3    0    0  0.20044901648E+02 -0.25657114232E+02  0.14833791070E+02  0.35792833784E+02  0.10000000000E+01 0.  0.
<mgrwt>
<rscale>  0 0.12500093E+03</rscale>
<asrwt>0</asrwt>
<pdfrwt beam="1">  1        4 0.68287248E-02 0.12500093E+03</pdfrwt>
<pdfrwt beam="2">  1       -4 0.35752541E-01 0.12500093E+03</pdfrwt>
<totfact> 0.17582016E+03</totfact>
</mgrwt>
</event>
<event>
 5    1  0.1438401E-002  0.1249983E+03  0.7818608E-02  0.1235072E+00
          4   -1    0    0  501    0  0.00000000000E+00  0.00000000000E+00  0.22926110583E+03  0.22926462341E+03  0.12700000000E+01 0. -1.
         -4   -1    0    0    0  501 -0.00000000000E+00 -0.00000000000E+00 -0.17010648020E+02  0.17057990680E+02  0.12700000000E+01 0. -1.
         25    2    1    2    0    0  0.00000000000E+00  0.00000000000E+00  0.21225045781E+03  0.24632261409E+03  0.12499829347E+03 0.  0.
    9000005    1    3    3    0    0 -0.30676531824E+02  0.53125371401E+02  0.82660208459E+02  0.10294204561E+03  0.10000000000E+01 0.  0.
    9000005    1    3    3    0    0  0.30676531824E+02 -0.53125371401E+02  0.12959024935E+03  0.14338056848E+03  0.10000000000E+01 0.  0.
<mgrwt>
<rscale>  0 0.12499829E+03</rscale>
<asrwt>0</asrwt>
<pdfrwt beam="1">  1        4 0.57321634E-01 0.12499829E+03</pdfrwt>
<pdfrwt beam="2">  1       -4 0.42590195E-02 0.12499829E+03</pdfrwt>
<totfact> 0.14621662E+03</totfact>
</mgrwt>
</event>
<event>
 5    1  0.1438401E-002  0.1250009E+03  0.7818608E-02  0.1235068E+00
         -4   -1    0    0    0  501 -0.00000000000E+00  0.00000000000E+00  0.20872541578E+02  0.20911142769E+02  0.12700000000E+01 0. -1.
          4   -1    0    0  501    0  0.00000000000E+00 -0.00000000000E+00 -0.18693687620E+03  0.18694119017E+03  0.12700000000E+01 0. -1.
         25    2    1    2    0    0  0.00000000000E+00  0.00000000000E+00 -0.16606433462E+03  0.20785233294E+03  0.12500091630E+03 0.  0.
    9000005    1    3    3    0    0  0.28403094295E+02 -0.63788535604E+00 -0.17558590264E+03  0.17787229090E+03  0.10000000000E+01 0.  0.
    9000005    1    3    3    0    0 -0.28403094295E+02  0.63788535604E+00  0.95215680205E+01  0.29980042042E+02  0.10000000000E+01 0.  0.
<mgrwt>
<rscale>  0 0.12500092E+03</rscale>
<asrwt>0</asrwt>
<pdfrwt beam="2">  1        4 0.46739578E-01 0.12500092E+03</pdfrwt>
<pdfrwt beam="1">  1       -4 0.52235004E-02 0.12500092E+03</pdfrwt>
<totfact> 0.16012039E+03</totfact>
</mgrwt>
</event>
<event>
 5    1  0.1438401E-002  0.1250057E+03  0.7818608E-02  0.1235060E+00
          4   -1    0    0  501    0  0.00000000000E+00  0.00000000000E+00  0.45174239957E+02  0.45192088419E+02  0.12700000000E+01 0. -1.
         -4   -1    0    0    0  501 -0.00000000000E+00 -0.00000000000E+00 -0.86439030021E+02  0.86448359215E+02  0.12700000000E+01 0. -1.
         25    2    1    2    0    0  0.00000000000E+00  0.00000000000E+00 -0.41264790065E+02  0.13164044763E+03  0.12500569809E+03 0.  0.
    9000005    1    3    3    0    0 -0.24266242903E+01  0.47658253220E+02  0.21862936856E+02  0.52499386790E+02  0.10000000000E+01 0.  0.
    9000005    1    3    3    0    0  0.24266242903E+01 -0.47658253220E+02 -0.63127726920E+02  0.79141060844E+02  0.10000000000E+01 0.  0.
<mgrwt>
<rscale>  0 0.12500570E+03</rscale>
<asrwt>0</asrwt>
<pdfrwt beam="1">  1        4 0.11296957E-01 0.12500570E+03</pdfrwt>
<pdfrwt beam="2">  1       -4 0.21613154E-01 0.12500570E+03</pdfrwt>
<totfact> 0.19474003E+03</totfact>
</mgrwt>
</event>
<event>
 4    1  0.1438401E-002  0.1252257E+03  0.7818608E-02  0.1234717E+00
         -4   -1    0    0    0  501 -0.00000000000E+00  0.00000000000E+00  0.11075579602E+02  0.11148155162E+02  0.12700000000E+01 0.  1.
          4   -1    0    0  501    0  0.00000000000E+00 -0.00000000000E+00 -0.35273572394E+03  0.35273801021E+03  0.12700000000E+01 0.  1.
    9000005    1    1    2    0    0  0.35541289147E+02  0.38051175334E+02 -0.69821391535E+02  0.87103971749E+02  0.10000000000E+01 0.  0.
    9000005    1    1    2    0    0 -0.35541289147E+02 -0.38051175334E+02 -0.27183875280E+03  0.27678219362E+03  0.10000000000E+01 0.  0.
<mgrwt>
<rscale>  0 0.12522574E+03</rscale>
<asrwt>0</asrwt>
<pdfrwt beam="2">  1        4 0.88193252E-01 0.12522574E+03</pdfrwt>
<pdfrwt beam="1">  1       -4 0.27782538E-02 0.12522574E+03</pdfrwt>
<totfact> 0.11294727E+03</totfact>
</mgrwt>
</event>
<event>
 5    1  0.1438401E-002  0.1249988E+03  0.7818608E-02  0.1235071E+00
          4   -1    0    0  501    0  0.00000000000E+00  0.00000000000E+00  0.50358572428E+02  0.50374584038E+02  0.12700000000E+01 0. -1.
         -4   -1    0    0    0  501 -0.00000000000E+00 -0.00000000000E+00 -0.77533727365E+02  0.77544127947E+02  0.12700000000E+01 0. -1.
         25    2    1    2    0    0  0.00000000000E+00  0.00000000000E+00 -0.27175154937E+02  0.12791871198E+03  0.12499883131E+03 0.  0.
    9000005    1    3    3    0    0 -0.22005233204E+02 -0.16184569529E+02  0.43930369583E+02  0.51740196664E+02  0.10000000000E+01 0.  0.
    9000005    1    3    3    0    0  0.22005233204E+02  0.16184569529E+02 -0.71105524520E+02  0.76178515321E+02  0.10000000000E+01 0.  0.
<mgrwt>
<rscale>  0 0.12499883E+03</rscale>
<asrwt>0</asrwt>
<pdfrwt beam="1">  1        4 0.12592945E-01 0.12499883E+03</pdfrwt>
<pdfrwt beam="2">  1       -4 0.19386733E-01 0.12499883E+03</pdfrwt>
<totfact> 0.19677495E+03</totfact>
</mgrwt>
</event>
<event>
 5    1  0.1438401E-002  0.1250012E+03  0.7818608E-02  0.1235067E+00
          4   -1    0    0  501    0  0.00000000000E+00  0.00000000000E+00  0.20710628424E+02  0.20749530831E+02  0.12700000000E+01 0. -1.
         -4   -1    0    0    0  501 -0.00000000000E+00 -0.00000000000E+00 -0.18839656437E+03  0.18840084492E+03  0.12700000000E+01 0. -1.
         25    2    1    2    0    0  0.00000000000E+00  0.00000000000E+00 -0.16768593595E+03  0.20915037575E+03  0.12500122624E+03 0.  0.
    9000005    1    3    3    0    0  0.46037079770E+02  0.93606777028E+01 -0.14890389435E+02  0.49292582589E+02  0.10000000000E+01 0.  0.
    9000005    1    3    3    0    0 -0.46037079770E+02 -0.93606777028E+01 -0.15279554652E+03  0.15985779317E+03  0.10000000000E+01 0.  0.
<mgrwt>
<rscale>  0 0.12500123E+03</rscale>
<asrwt>0</asrwt>
<pdfrwt beam="1">  1        4 0.51830555E-02 0.12500123E+03</pdfrwt>
<pdfrwt beam="2">  1       -4 0.47104534E-01 0.12500123E+03</pdfrwt>
<totfact> 0.15961636E+03</totfact>
</mgrwt>
</event>
<event>
 5    1  0.1438401E-002  0.1249992E+03  0.7818608E-02  0.1235071E+00
         -4   -1    0    0    0  501 -0.00000000000E+00  0.00000000000E+00  0.33383297043E+02  0.33407445599E+02  0.12700000000E+01 0. -1.
          4   -1    0    0  501    0  0.00000000000E+00 -0.00000000000E+00 -0.11694063896E+03  0.11694753499E+03  0.12700000000E+01 0. -1.
         25    2    1    2    0    0  0.00000000000E+00  0.00000000000E+00 -0.83557341919E+02  0.15035498059E+03  0.12499916320E+03 0.  0.
    9000005    1    3    3    0    0  0.42183758733E+02 -0.23400957637E+02  0.60051847554E+01  0.48622387469E+02  0.10000000000E+01 0.  0.
    9000005    1    3    3    0    0 -0.42183758733E+02  0.23400957637E+02 -0.89562526674E+02  0.10173259312E+03  0.10000000000E+01 0.  0.
<mgrwt>
<rscale>  0 0.12499916E+03</rscale>
<asrwt>0</asrwt>
<pdfrwt beam="2">  1        4 0.29239039E-01 0.12499916E+03</pdfrwt>
<pdfrwt beam="1">  1       -4 0.83497051E-02 0.12499916E+03</pdfrwt>
<totfact> 0.18521701E+03</totfact>
</mgrwt>
</event>
<event>
 5    1  0.1438401E-002  0.1250016E+03  0.7818608E-02  0.1235067E+00
          4   -1    0    0  501    0  0.00000000000E+00  0.00000000000E+00  0.97812739108E+02  0.97820983597E+02  0.12700000000E+01 0. -1.
         -4   -1    0    0    0  501 -0.00000000000E+00 -0.00000000000E+00 -0.39916989491E+02  0.39937187557E+02  0.12700000000E+01 0. -1.
         25    2    1    2    0    0  0.00000000000E+00  0.00000000000E+00  0.57895749617E+02  0.13775817115E+03  0.12500158357E+03 0.  0.
    9000005    1    3    3    0    0 -0.21193530781E+02 -0.20503437323E+02  0.89668730087E+02  0.94398293652E+02  0.10000000000E+01 0.  0.
    9000005    1    3    3    0    0  0.21193530781E+02  0.20503437323E+02 -0.31772980470E+02  0.43359877501E+02  0.10000000000E+01 0.  0.
<mgrwt>
<rscale>  0 0.12500158E+03</rscale>
<asrwt>0</asrwt>
<pdfrwt beam="1">  1        4 0.24456740E-01 0.12500158E+03</pdfrwt>
<pdfrwt beam="2">  1       -4 0.99828027E-02 0.12500158E+03</pdfrwt>
<totfact> 0.19154917E+03</totfact>
</mgrwt>
</event>
<event>
 5    1  0.1438401E-002  0.1249995E+03  0.7818608E-02  0.1235070E+00
         -4   -1    0    0    0  501 -0.00000000000E+00  0.00000000000E+00  0.51474625476E+02  0.51490290035E+02  0.12700000000E+01 0.  1.
          4   -1    0    0  501    0  0.00000000000E+00 -0.00000000000E+00 -0.75853814960E+02  0.75864445849E+02  0.12700000000E+01 0.  1.
         25    2    1    2    0    0  0.00000000000E+00  0.00000000000E+00 -0.24379189484E+02  0.12735473588E+03  0.12499953549E+03 0.  0.
    9000005    1    3    3    0    0  0.25712829067E+01  0.18518425950E+02 -0.72942615168E+02  0.75307162361E+02  0.10000000000E+01 0.  0.
    9000005    1    3    3    0    0 -0.25712829067E+01 -0.18518425950E+02  0.48563425684E+02  0.52047573523E+02  0.10000000000E+01 0.  0.
<mgrwt>
<rscale>  0 0.12499954E+03</rscale>
<asrwt>0</asrwt>
<pdfrwt beam="2">  1        4 0.18966741E-01 0.12499954E+03</pdfrwt>
<pdfrwt beam="1">  1       -4 0.12871943E-01 0.12499954E+03</pdfrwt>
<totfact> 0.19707933E+03</totfact>
</mgrwt>
</event>
<event>
 5    1  0.1438401E-002  0.1249959E+03  0.7818608E-02  0.1235076E+00
         -4   -1    0    0    0  501 -0.00000000000E+00  0.00000000000E+00  0.39223375306E+03  0.39223580910E+03  0.12700000000E+01 0. -1.
          4   -1    0    0  501    0  0.00000000000E+00 -0.00000000000E+00 -0.99157450039E+01  0.99967444192E+01  0.12700000000E+01 0. -1.
         25    2    1    2    0    0  0.00000000000E+00  0.00000000000E+00  0.38231800806E+03  0.40223255352E+03  0.12499587124E+03 0.  0.
    9000005    1    3    3    0    0  0.26903609489E+02  0.50234217172E+02  0.10863141467E+03  0.12267463075E+03  0.10000000000E+01 0.  0.
    9000005    1    3    3    0    0 -0.26903609489E+02 -0.50234217172E+02  0.27368659339E+03  0.27955792277E+03  0.10000000000E+01 0.  0.
<mgrwt>
<rscale>  0 0.12499587E+03</rscale>
<asrwt>0</asrwt>
<pdfrwt beam="2">  1        4 0.24893183E-02 0.12499587E+03</pdfrwt>
<pdfrwt beam="1">  1       -4 0.98068817E-01 0.12499587E+03</pdfrwt>
<totfact> 0.10524347E+03</totfact>
</mgrwt>
</event>
<event>
 5    1  0.1438401E-002  0.1250024E+03  0.7818608E-02  0.1235065E+00
          4   -1    0    0  501    0  0.00000000000E+00  0.00000000000E+00  0.16420862348E+02  0.16469900432E+02  0.12700000000E+01 0.  1.
         -4   -1    0    0    0  501 -0.00000000000E+00 -0.00000000000E+00 -0.23748720994E+03  0.23749060568E+03  0.12700000000E+01 0.  1.
         25    2    1    2    0    0  0.00000000000E+00  0.00000000000E+00 -0.22106634759E+03  0.25396050611E+03  0.12500243448E+03 0.  0.
    9000005    1    3    3    0    0  0.35684695409E+02 -0.42946130827E+02 -0.53515422821E+02  0.77347709204E+02  0.10000000000E+01 0.  0.
    9000005    1    3    3    0    0 -0.35684695409E+02  0.42946130827E+02 -0.16755092477E+03  0.17661279691E+03  0.10000000000E+01 0.  0.
<mgrwt>
<rscale>  0 0.12500243E+03</rscale>
<asrwt>0</asrwt>
<pdfrwt beam="1">  1        4 0.41117706E-02 0.12500243E+03</pdfrwt>
<pdfrwt beam="2">  1       -4 0.59378346E-01 0.12500243E+03</pdfrwt>
<totfact> 0.14366357E+03</totfact>
</mgrwt>
</event>
<event>
 5    1  0.1438401E-002  0.1250007E+03  0.7818608E-02  0.1235068E+00
         -4   -1    0    0    0  501 -0.00000000000E+00  0.00000000000E+00  0.11524651903E+02  0.11594416824E+02  0.12700000000E+01 0.  1.
          4   -1    0    0  501    0  0.00000000000E+00 -0.00000000000E+00 -0.33785752577E+03  0.33785991272E+03  0.12700000000E+01 0.  1.
         25    2    1    2    0    0  0.00000000000E+00  0.00000000000E+00 -0.32633287387E+03  0.34945432954E+03  0.12500073547E+03 0.  0.
    9000005    1    3    3    0    0 -0.50379132108E+02 -0.34751920235E+02 -0.12785488469E+03  0.14175198218E+03  0.10000000000E+01 0.  0.
    9000005    1    3    3    0    0  0.50379132108E+02  0.34751920235E+02 -0.19847798918E+03  0.20770234736E+03  0.10000000000E+01 0.  0.
<mgrwt>
<rscale>  0 0.12500074E+03</rscale>
<asrwt>0</asrwt>
<pdfrwt beam="2">  1        4 0.84473368E-01 0.12500074E+03</pdfrwt>
<pdfrwt beam="1">  1       -4 0.28901831E-02 0.12500074E+03</pdfrwt>
<totfact> 0.11690152E+03</totfact>
</mgrwt>
</event>
<event>
 5    1  0.1438401E-002  0.1250074E+03  0.7818608E-02  0.1235058E+00
         -4   -1    0    0    0  501 -0.00000000000E+00  0.00000000000E+00  0.23270635571E+03  0.23270982122E+03  0.12700000000E+01 0. -1.
          4   -1    0    0  501    0  0.00000000000E+00 -0.00000000000E+00 -0.16760537187E+02  0.16808584318E+02  0.12700000000E+01 0. -1.
         25    2    1    2    0    0  0.00000000000E+00  0.00000000000E+00  0.21594581853E+03  0.24951840553E+03  0.12500735243E+03 0.  0.
    9000005    1    3    3    0    0 -0.55894410943E+02 -0.45882259804E+01  0.16301675891E+03  0.17239692769E+03  0.10000000000E+01 0.  0.
    9000005    1    3    3    0    0  0.55894410943E+02  0.45882259804E+01  0.52929059617E+02  0.77121477840E+02  0.10000000000E+01 0.  0.
<mgrwt>
<rscale>  0 0.12500735E+03</rscale>
<asrwt>0</asrwt>
<pdfrwt beam="2">  1        4 0.41965734E-02 0.12500735E+03</pdfrwt>
<pdfrwt beam="1">  1       -4 0.58183027E-01 0.12500735E+03</pdfrwt>
<totfact> 0.14511567E+03</totfact>
</mgrwt>
</event>
<event>
 5    1  0.1438401E-002  0.1249978E+03  0.7818608E-02  0.1235073E+00
          4   -1    0    0  501    0  0.00000000000E+00  0.00000000000E+00  0.15539145016E+03  0.15539663987E+03  0.12700000000E+01 0.  1.
         -4   -1    0    0    0  501 -0.00000000000E+00 -0.00000000000E+00 -0.25115607047E+02  0.25147696064E+02  0.12700000000E+01 0.  1.
         25    2    1    2    0    0  0.00000000000E+00  0.00000000000E+00  0.13027584312E+03  0.18054433594E+03  0.12499784774E+03 0.  0.
    9000005    1    3    3    0    0 -0.21913634233E+02  0.70040313417E+01  0.14905937768E+03  0.15082758997E+03  0.10000000000E+01 0.  0.
    9000005    1    3    3    0    0  0.21913634233E+02 -0.70040313417E+01 -0.18783534566E+02  0.29716745971E+02  0.10000000000E+01 0.  0.
<mgrwt>
<rscale>  0 0.12499785E+03</rscale>
<asrwt>0</asrwt>
<pdfrwt beam="1">  1        4 0.38852522E-01 0.12499785E+03</pdfrwt>
<pdfrwt beam="2">  1       -4 0.62835616E-02 0.12499785E+03</pdfrwt>
<totfact> 0.17132533E+03</totfact>
</mgrwt>
</event>
<event>
 5    1  0.1438401E-002  0.1249944E+03  0.7818608E-02  0.1235078E+00
          4   -1    0    0  501    0  0.00000000000E+00  0.00000000000E+00  0.22816626976E+02  0.22851944481E+02  0.12700000000E+01 0.  1.
         -4   -1    0    0    0  501 -0.00000000000E+00 -0.00000000000E+00 -0.17101653385E+03  0.17102124941E+03  0.12700000000E+01 0.  1.
         25    2    1    2    0    0  0.00000000000E+00  0.00000000000E+00 -0.14819990687E+03  0.19387319389E+03  0.12499441152E+03 0.  0.
    9000005    1    3    3    0    0 -0.10176773491E+02  0.14627538539E+02 -0.16699984387E+03  0.16795082452E+03  0.10000000000E+01 0.  0.
    9000005    1    3    3    0    0  0.10176773491E+02 -0.14627538539E+02  0.18799937004E+02  0.25922369370E+02  0.10000000000E+01 0.  0.
<mgrwt>
<rscale>  0 0.12499441E+03</rscale>
<asrwt>0</asrwt>
<pdfrwt beam="1">  1        4 0.57091614E-02 0.12499441E+03</pdfrwt>
<pdfrwt beam="2">  1       -4 0.42759134E-01 0.12499441E+03</pdfrwt>
<totfact> 0.16572487E+03</totfact>
</mgrwt>
</event>
<event>
 5    1  0.1438401E-002  0.1250027E+03  0.7818608E-02  0.1235065E+00
         -4   -1    0    0    0  501 -0.00000000000E+00  0.00000000000E+00  0.81539094608E+01  0.82522202767E+01  0.12700000000E+01 0.  1.
          4   -1    0    0  501    0  0.00000000000E+00 -0.00000000000E+00 -0.47611538982E+03  0.47611708363E+03  0.12700000000E+01 0.  1.
         25    2    1    2    0    0  0.00000000000E+00  0.00000000000E+00 -0.46796148036E+03  0.48436930391E+03  0.12500270184E+03 0.  0.
    9000005    1    3    3    0    0  0.15551173556E+02 -0.53276213098E+02 -0.12266837854E+03  0.13464295367E+03  0.10000000000E+01 0.  0.
    9000005    1    3    3    0    0 -0.15551173556E+02  0.53276213098E+02 -0.34529310182E+03  0.34972635023E+03  0.10000000000E+01 0.  0.
<mgrwt>
<rscale>  0 0.12500270E+03</rscale>
<asrwt>0</asrwt>
<pdfrwt beam="2">  1        4 0.11904125E+00 0.12500270E+03</pdfrwt>
<pdfrwt beam="1">  1       -4 0.20509796E-02 0.12500270E+03</pdfrwt>
<totfact> 0.90140274E+02</totfact>
</mgrwt>
</event>
<event>
 5    1  0.1438401E-002  0.1249983E+03  0.7818608E-02  0.1235072E+00
         -4   -1    0    0    0  501 -0.00000000000E+00  0.00000000000E+00  0.25145839656E+02  0.25177890142E+02  0.12700000000E+01 0.  1.
          4   -1    0    0  501    0  0.00000000000E+00 -0.00000000000E+00 -0.15520595395E+03  0.15521114987E+03  0.12700000000E+01 0.  1.
         25    2    1    2    0    0  0.00000000000E+00  0.00000000000E+00 -0.13006011430E+03  0.18038904001E+03  0.12499828968E+03 0.  0.
    9000005    1    3    3    0    0 -0.62406868358E+02  0.16477676847E+01 -0.60996832370E+02  0.87286573514E+02  0.10000000000E+01 0.  0.
    9000005    1    3    3    0    0  0.62406868358E+02 -0.16477676847E+01 -0.69063281929E+02  0.93102466494E+02  0.10000000000E+01 0.  0.
<mgrwt>
<rscale>  0 0.12499829E+03</rscale>
<asrwt>0</asrwt>
<pdfrwt beam="2">  1        4 0.38806142E-01 0.12499829E+03</pdfrwt>
<pdfrwt beam="1">  1       -4 0.62911162E-02 0.12499829E+03</pdfrwt>
<totfact> 0.17139068E+03</totfact>
</mgrwt>
</event>
<event>
 5    1  0.1438401E-002  0.1249997E+03  0.7818608E-02  0.1235070E+00
         -4   -1    0    0    0  501 -0.00000000000E+00  0.00000000000E+00  0.25468306441E+03  0.25468623087E+03  0.12700000000E+01 0.  1.
          4   -1    0    0  501    0  0.00000000000E+00 -0.00000000000E+00 -0.15308069011E+02  0.15360660040E+02  0.12700000000E+01 0.  1.
         25    2    1    2    0    0  0.00000000000E+00  0.00000000000E+00  0.23937499540E+03  0.27004689091E+03  0.12499973948E+03 0.  0.
    9000005    1    3    3    0    0  0.37113602560E+02 -0.28728718818E+02  0.20882704770E+03  0.21403853539E+03  0.10000000000E+01 0.  0.
    9000005    1    3    3    0    0 -0.37113602560E+02  0.28728718818E+02  0.30547947694E+02  0.56008355521E+02  0.10000000000E+01 0.  0.
<mgrwt>
<rscale>  0 0.12499974E+03</rscale>
<asrwt>0</asrwt>
<pdfrwt beam="2">  1        4 0.38339870E-02 0.12499974E+03</pdfrwt>
<pdfrwt beam="1">  1       -4 0.63677735E-01 0.12499974E+03</pdfrwt>
<totfact> 0.13854203E+03</totfact>
</mgrwt>
</event>
<event>
 5    1  0.1438401E-002  0.1249999E+03  0.7818608E-02  0.1235070E+00
         -4   -1    0    0    0  501 -0.00000000000E+00  0.00000000000E+00  0.97766955521E+02  0.97775203870E+02  0.12700000000E+01 0. -1.
          4   -1    0    0  501    0  0.00000000000E+00 -0.00000000000E+00 -0.39934586758E+02  0.39954775929E+02  0.12700000000E+01 0. -1.
         25    2    1    2    0    0  0.00000000000E+00  0.00000000000E+00  0.57832368762E+02  0.13772997980E+03  0.12499985783E+03 0.  0.
    9000005    1    3    3    0    0  0.44961631260E+02  0.86864986003E+01  0.75770188248E+02  0.88538833122E+02  0.10000000000E+01 0.  0.
    9000005    1    3    3    0    0 -0.44961631260E+02 -0.86864986003E+01 -0.17937819485E+02  0.49191146677E+02  0.10000000000E+01 0.  0.
<mgrwt>
<rscale>  0 0.12499986E+03</rscale>
<asrwt>0</asrwt>
<pdfrwt beam="2">  1        4 0.99872014E-02 0.12499986E+03</pdfrwt>
<pdfrwt beam="1">  1       -4 0.24445293E-01 0.12499986E+03</pdfrwt>
<totfact> 0.19157145E+03</totfact>
</mgrwt>
</event>
<event>
 5    1  0.1438401E-002  0.1250019E+03  0.7818608E-02  0.1235066E+00
         -4   -1    0    0    0  501 -0.00000000000E+00  0.00000000000E+00  0.85961801709E+03  0.85961895524E+03  0.12700000000E+01 0. -1.
          4   -1    0    0  501    0  0.00000000000E+00 -0.00000000000E+00 -0.44546177093E+01  0.46321181911E+01  0.12700000000E+01 0. -1.
         25    2    1    2    0    0  0.00000000000E+00  0.00000000000E+00  0.85516339938E+03  0.86425107343E+03  0.12500191312E+03 0.  0.
    9000005    1    3    3    0    0 -0.21348219857E+02 -0.11248857782E+02  0.82614203576E+03  0.82649497672E+03  0.10000000000E+01 0.  0.
    9000005    1    3    3    0    0  0.21348219857E+02  0.11248857782E+02  0.29021363623E+02  0.37756096713E+02  0.10000000000E+01 0.  0.
<mgrwt>
<rscale>  0 0.12500191E+03</rscale>
<asrwt>0</asrwt>
<pdfrwt beam="2">  1        4 0.11359593E-02 0.12500191E+03</pdfrwt>
<pdfrwt beam="1">  1       -4 0.21492680E+00 0.12500191E+03</pdfrwt>
<totfact> 0.47071771E+02</totfact>
</mgrwt>
</event>
<event>
 5    1  0.1438401E-002  0.1249986E+03  0.7818608E-02  0.1235072E+00
         -4   -1    0    0    0  501 -0.00000000000E+00  0.00000000000E+00  0.60173533971E+01  0.61499139754E+01  0.12700000000E+01 0. -1.
          4   -1    0    0  501    0  0.00000000000E+00 -0.00000000000E+00 -0.64194378447E+03  0.64194504073E+03  0.12700000000E+01 0. -1.
         25    2    1    2    0    0  0.00000000000E+00  0.00000000000E+00 -0.63592643107E+03  0.64809495471E+03  0.12499857831E+03 0.  0.
    9000005    1    3    3    0    0  0.48926449636E+02 -0.57512152611E+01 -0.51731171657E+03  0.51965304391E+03  0.10000000000E+01 0.  0.
    9000005    1    3    3    0    0 -0.48926449636E+02  0.57512152611E+01 -0.11861471451E+03  0.12844191080E+03  0.10000000000E+01 0.  0.
<mgrwt>
<rscale>  0 0.12499858E+03</rscale>
<asrwt>0</asrwt>
<pdfrwt beam="2">  1        4 0.16050244E+00 0.12499858E+03</pdfrwt>
<pdfrwt beam="1">  1       -4 0.15210676E-02 0.12499858E+03</pdfrwt>
<totfact> 0.67731595E+02</totfact>
</mgrwt>
</event>
<event>
 5    1  0.1438401E-002  0.1249941E+03  0.7818608E-02  0.1235079E+00
         -4   -1    0    0    0  501 -0.00000000000E+00  0.00000000000E+00  0.21708024208E+03  0.21708395703E+03  0.12700000000E+01 0. -1.
          4   -1    0    0  501    0  0.00000000000E+00 -0.00000000000E+00 -0.17966502486E+02  0.18011332865E+02  0.12700000000E+01 0. -1.
         25    2    1    2    0    0  0.00000000000E+00  0.00000000000E+00  0.19911373959E+03  0.23509528990E+03  0.12499405601E+03 0.  0.
    9000005    1    3    3    0    0  0.15200623955E+02 -0.56129190000E+02  0.56529592586E+02  0.81105732082E+02  0.10000000000E+01 0.  0.
    9000005    1    3    3    0    0 -0.15200623955E+02  0.56129190000E+02  0.14258414701E+03  0.15398955782E+03  0.10000000000E+01 0.  0.
<mgrwt>
<rscale>  0 0.12499406E+03</rscale>
<asrwt>0</asrwt>
<pdfrwt beam="2">  1        4 0.44976938E-02 0.12499406E+03</pdfrwt>
<pdfrwt beam="1">  1       -4 0.54276129E-01 0.12499406E+03</pdfrwt>
<totfact> 0.15008994E+03</totfact>
</mgrwt>
</event>
<event>
 5    1  0.1438401E-002  0.1250005E+03  0.7818608E-02  0.1235068E+00
         -4   -1    0    0    0  501 -0.00000000000E+00  0.00000000000E+00  0.10278521075E+02  0.10356683614E+02  0.12700000000E+01 0. -1.
          4   -1    0    0  501    0  0.00000000000E+00 -0.00000000000E+00 -0.37852439856E+03  0.37852652907E+03  0.12700000000E+01 0. -1.
         25    2    1    2    0    0  0.00000000000E+00  0.00000000000E+00 -0.36824587749E+03  0.38888321268E+03  0.12500050727E+03 0.  0.
    9000005    1    3    3    0    0 -0.57855437102E+02 -0.22996381085E+02 -0.20093315330E+03  0.21035973294E+03  0.10000000000E+01 0.  0.
    9000005    1    3    3    0    0  0.57855437102E+02  0.22996381085E+02 -0.16731272419E+03  0.17852347974E+03  0.10000000000E+01 0.  0.
<mgrwt>
<rscale>  0 0.12500051E+03</rscale>
<asrwt>0</asrwt>
<pdfrwt beam="2">  1        4 0.94641090E-01 0.12500051E+03</pdfrwt>
<pdfrwt beam="1">  1       -4 0.25796682E-02 0.12500051E+03</pdfrwt>
<totfact> 0.10801706E+03</totfact>
</mgrwt>
</event>
<event>
 5    1  0.1438401E-002  0.1250002E+03  0.7818608E-02  0.1235069E+00
          4   -1    0    0  501    0  0.00000000000E+00  0.00000000000E+00  0.19434281006E+03  0.19434695964E+03  0.12700000000E+01 0.  1.
         -4   -1    0    0    0  501 -0.00000000000E+00 -0.00000000000E+00 -0.20075429070E+02  0.20115559956E+02  0.12700000000E+01 0.  1.
         25    2    1    2    0    0  0.00000000000E+00  0.00000000000E+00  0.17426738099E+03  0.21446251960E+03  0.12500020894E+03 0.  0.
    9000005    1    3    3    0    0  0.45968991594E+02  0.33156201483E+02  0.41975274109E+02  0.70536554505E+02  0.10000000000E+01 0.  0.
    9000005    1    3    3    0    0 -0.45968991594E+02 -0.33156201483E+02  0.13229210688E+03  0.14392596509E+03  0.10000000000E+01 0.  0.
<mgrwt>
<rscale>  0 0.12500021E+03</rscale>
<asrwt>0</asrwt>
<pdfrwt beam="1">  1        4 0.48591237E-01 0.12500021E+03</pdfrwt>
<pdfrwt beam="2">  1       -4 0.50243924E-02 0.12500021E+03</pdfrwt>
<totfact> 0.15758788E+03</totfact>
</mgrwt>
</event>
<event>
 5    1  0.1438401E-002  0.1249738E+03  0.7818608E-02  0.1235110E+00
         -4   -1    0    0    0  501 -0.00000000000E+00  0.00000000000E+00  0.55425653183E+03  0.55425798684E+03  0.12700000000E+01 0. -1.
          4   -1    0    0  501    0  0.00000000000E+00 -0.00000000000E+00 -0.69860650297E+01  0.71005636818E+01  0.12700000000E+01 0. -1.
         25    2    1    2    0    0  0.00000000000E+00  0.00000000000E+00  0.54727046680E+03  0.56135855053E+03  0.12497383091E+03 0.  0.
    9000005    1    3    3    0    0  0.54518188258E+02 -0.30515635252E+02  0.27174142916E+03  0.27883299871E+03  0.10000000000E+01 0.  0.
    9000005    1    3    3    0    0 -0.54518188258E+02  0.30515635252E+02  0.27552903764E+03  0.28252555182E+03  0.10000000000E+01 0.  0.
<mgrwt>
<rscale>  0 0.12497383E+03</rscale>
<asrwt>0</asrwt>
<pdfrwt beam="2">  1        4 0.17610105E-02 0.12497383E+03</pdfrwt>
<pdfrwt beam="1">  1       -4 0.13857862E+00 0.12497383E+03</pdfrwt>
<totfact> 0.78636742E+02</totfact>
</mgrwt>
</event>
<event>
 5    1  0.1438401E-002  0.1250043E+03  0.7818608E-02  0.1235063E+00
          4   -1    0    0  501    0  0.00000000000E+00  0.00000000000E+00  0.97293194493E+03  0.97293277382E+03  0.12700000000E+01 0.  1.
         -4   -1    0    0    0  501 -0.00000000000E+00 -0.00000000000E+00 -0.39139235853E+01  0.41148144346E+01  0.12700000000E+01 0.  1.
         25    2    1    2    0    0  0.00000000000E+00  0.00000000000E+00  0.96901802135E+03  0.97704758825E+03  0.12500425599E+03 0.  0.
    9000005    1    3    3    0    0  0.49182496593E+02  0.38048002008E+02  0.43573020828E+03  0.44014586541E+03  0.10000000000E+01 0.  0.
    9000005    1    3    3    0    0 -0.49182496593E+02 -0.38048002008E+02  0.53328781306E+03  0.53690172284E+03  0.10000000000E+01 0.  0.
<mgrwt>
<rscale>  0 0.12500426E+03</rscale>
<asrwt>0</asrwt>
<pdfrwt beam="1">  1        4 0.24325817E+00 0.12500426E+03</pdfrwt>
<pdfrwt beam="2">  1       -4 0.10036960E-02 0.12500426E+03</pdfrwt>
<totfact> 0.38670537E+02</totfact>
</mgrwt>
</event>
<event>
 5    1  0.1438401E-002  0.1249934E+03  0.7818608E-02  0.1235080E+00
          4   -1    0    0  501    0  0.00000000000E+00  0.00000000000E+00  0.29776122789E+02  0.29803194264E+02  0.12700000000E+01 0.  1.
         -4   -1    0    0    0  501 -0.00000000000E+00 -0.00000000000E+00 -0.13108364378E+03  0.13108979581E+03  0.12700000000E+01 0.  1.
         25    2    1    2    0    0  0.00000000000E+00  0.00000000000E+00 -0.10130752099E+03  0.16089299008E+03  0.12499336161E+03 0.  0.
    9000005    1    3    3    0    0 -0.54261788949E+02 -0.14192490959E+02 -0.15189565378E+02  0.58116189104E+02  0.10000000000E+01 0.  0.
    9000005    1    3    3    0    0  0.54261788949E+02  0.14192490959E+02 -0.86117955611E+02  0.10277680097E+03  0.10000000000E+01 0.  0.
<mgrwt>
<rscale>  0 0.12499336E+03</rscale>
<asrwt>0</asrwt>
<pdfrwt beam="1">  1        4 0.74481840E-02 0.12499336E+03</pdfrwt>
<pdfrwt beam="2">  1       -4 0.32775062E-01 0.12499336E+03</pdfrwt>
<totfact> 0.18018589E+03</totfact>
</mgrwt>
</event>
<event>
 5    1  0.1438401E-002  0.1249974E+03  0.7818608E-02  0.1235073E+00
         -4   -1    0    0    0  501 -0.00000000000E+00  0.00000000000E+00  0.14892310320E+02  0.14946364329E+02  0.12700000000E+01 0.  1.
          4   -1    0    0  501    0  0.00000000000E+00 -0.00000000000E+00 -0.26175825927E+03  0.26176134014E+03  0.12700000000E+01 0.  1.
         25    2    1    2    0    0  0.00000000000E+00  0.00000000000E+00 -0.24686594895E+03  0.27670770447E+03  0.12499742784E+03 0.  0.
    9000005    1    3    3    0    0  0.41011740398E+02 -0.44526061794E+02 -0.89098653446E+02  0.10772234251E+03  0.10000000000E+01 0.  0.
    9000005    1    3    3    0    0 -0.41011740398E+02  0.44526061794E+02 -0.15776729550E+03  0.16898536197E+03  0.10000000000E+01 0.  0.
<mgrwt>
<rscale>  0 0.12499743E+03</rscale>
<asrwt>0</asrwt>
<pdfrwt beam="2">  1        4 0.65446692E-01 0.12499743E+03</pdfrwt>
<pdfrwt beam="1">  1       -4 0.37302203E-02 0.12499743E+03</pdfrwt>
<totfact> 0.13650735E+03</totfact>
</mgrwt>
</event>
<event>
 5    1  0.1438401E-002  0.1250243E+03  0.7818608E-02  0.1235031E+00
          4   -1    0    0  501    0  0.00000000000E+00  0.00000000000E+00  0.25856039214E+02  0.25887210430E+02  0.12700000000E+01 0.  1.
         -4   -1    0    0    0  501 -0.00000000000E+00 -0.00000000000E+00 -0.15101083634E+03  0.15101617659E+03  0.12700000000E+01 0.  1.
         25    2    1    2    0    0  0.00000000000E+00  0.00000000000E+00 -0.12515479712E+03  0.17690338702E+03  0.12502433801E+03 0.  0.
    9000005    1    3    3    0    0  0.61424076156E+02  0.11160219583E+02 -0.58261531517E+02  0.85398323681E+02  0.10000000000E+01 0.  0.
    9000005    1    3    3    0    0 -0.61424076156E+02 -0.11160219583E+02 -0.66893265604E+02  0.91505063335E+02  0.10000000000E+01 0.  0.
<mgrwt>
<rscale>  0 0.12502434E+03</rscale>
<asrwt>0</asrwt>
<pdfrwt beam="1">  1        4 0.64685742E-02 0.12502434E+03</pdfrwt>
<pdfrwt beam="2">  1       -4 0.37757271E-01 0.12502434E+03</pdfrwt>
<totfact> 0.17280340E+03</totfact>
</mgrwt>
</event>
<event>
 5    1  0.1438401E-002  0.1249999E+03  0.7818608E-02  0.1235069E+00
         -4   -1    0    0    0  501 -0.00000000000E+00  0.00000000000E+00  0.40931758581E+02  0.40951456147E+02  0.12700000000E+01 0. -1.
          4   -1    0    0  501    0  0.00000000000E+00 -0.00000000000E+00 -0.95386172074E+02  0.95394626279E+02  0.12700000000E+01 0. -1.
         25    2    1    2    0    0  0.00000000000E+00  0.00000000000E+00 -0.54454413493E+02  0.13634608243E+03  0.12499988418E+03 0.  0.
    9000005    1    3    3    0    0 -0.26300364298E+02 -0.56501209494E+02 -0.22211216755E+02  0.66169736181E+02  0.10000000000E+01 0.  0.
    9000005    1    3    3    0    0  0.26300364298E+02  0.56501209494E+02 -0.32243196738E+02  0.70176346246E+02  0.10000000000E+01 0.  0.
<mgrwt>
<rscale>  0 0.12499988E+03</rscale>
<asrwt>0</asrwt>
<pdfrwt beam="2">  1        4 0.23850062E-01 0.12499988E+03</pdfrwt>
<pdfrwt beam="1">  1       -4 0.10236459E-01 0.12499988E+03</pdfrwt>
<totfact> 0.19228913E+03</totfact>
</mgrwt>
</event>
<event>
 5    1  0.1438401E-002  0.1249951E+03  0.7818608E-02  0.1235077E+00
          4   -1    0    0  501    0  0.00000000000E+00  0.00000000000E+00  0.69640032116E+02  0.69651611418E+02  0.12700000000E+01 0. -1.
         -4   -1    0    0    0  501 -0.00000000000E+00 -0.00000000000E+00 -0.56064189102E+02  0.56078571662E+02  0.12700000000E+01 0. -1.
         25    2    1    2    0    0  0.00000000000E+00  0.00000000000E+00  0.13575843014E+02  0.12573018308E+03  0.12499510160E+03 0.  0.
    9000005    1    3    3    0    0  0.19851233682E+02 -0.49550386912E+02 -0.25893634950E+02  0.59336267601E+02  0.10000000000E+01 0.  0.
    9000005    1    3    3    0    0 -0.19851233682E+02  0.49550386912E+02  0.39469477964E+02  0.66393915479E+02  0.10000000000E+01 0.  0.
<mgrwt>
<rscale>  0 0.12499510E+03</rscale>
<asrwt>0</asrwt>
<pdfrwt beam="1">  1        4 0.17413253E-01 0.12499510E+03</pdfrwt>
<pdfrwt beam="2">  1       -4 0.14019293E-01 0.12499510E+03</pdfrwt>
<totfact> 0.19797776E+03</totfact>
</mgrwt>
</event>
<event>
 5    1  0.1438401E-002  0.1250032E+03  0.7818608E-02  0.1235064E+00
          4   -1    0    0  501    0  0.00000000000E+00  0.00000000000E+00  0.13099788128E+03  0.13100403734E+03  0.12700000000E+01 0.  1.
         -4   -1    0    0    0  501 -0.00000000000E+00 -0.00000000000E+00 -0.29800315367E+02  0.29827364884E+02  0.12700000000E+01 0.  1.
         25    2    1    2    0    0  0.00000000000E+00  0.00000000000E+00  0.10119756592E+03  0.16083140223E+03  0.12500317034E+03 0.  0.
    9000005    1    3    3    0    0 -0.62415291643E+01  0.61861750954E+02  0.42500724270E+02  0.75320279346E+02  0.10000000000E+01 0.  0.
    9000005    1    3    3    0    0  0.62415291643E+01 -0.61861750954E+02  0.58696841646E+02  0.85511122882E+02  0.10000000000E+01 0.  0.
<mgrwt>
<rscale>  0 0.12500317E+03</rscale>
<asrwt>0</asrwt>
<pdfrwt beam="1">  1        4 0.32753620E-01 0.12500317E+03</pdfrwt>
<pdfrwt beam="2">  1       -4 0.74542297E-02 0.12500317E+03</pdfrwt>
<totfact> 0.18017370E+03</totfact>
</mgrwt>
</event>
<event>
 5    1  0.1438401E-002  0.1249897E+03  0.7818608E-02  0.1235085E+00
          4   -1    0    0  501    0  0.00000000000E+00  0.00000000000E+00  0.46626496663E+03  0.46626669622E+03  0.12700000000E+01 0.  1.
         -4   -1    0    0    0  501 -0.00000000000E+00 -0.00000000000E+00 -0.83264686750E+01  0.84227656144E+01  0.12700000000E+01 0.  1.
         25    2    1    2    0    0  0.00000000000E+00  0.00000000000E+00  0.45793849796E+03  0.47468946184E+03  0.12498966865E+03 0.  0.
    9000005    1    3    3    0    0 -0.26322494387E+02  0.42847759700E+02  0.88100991880E+02  0.10144746913E+03  0.10000000000E+01 0.  0.
    9000005    1    3    3    0    0  0.26322494387E+02 -0.42847759700E+02  0.36983750608E+03  0.37324199271E+03  0.10000000000E+01 0.  0.
<mgrwt>
<rscale>  0 0.12498967E+03</rscale>
<asrwt>0</asrwt>
<pdfrwt beam="1">  1        4 0.11657850E+00 0.12498967E+03</pdfrwt>
<pdfrwt beam="2">  1       -4 0.20938704E-02 0.12498967E+03</pdfrwt>
<totfact> 0.91768407E+02</totfact>
</mgrwt>
</event>
<event>
 5    1  0.1438401E-002  0.1250009E+03  0.7818608E-02  0.1235068E+00
          4   -1    0    0  501    0  0.00000000000E+00  0.00000000000E+00  0.28768306253E+03  0.28768586577E+03  0.12700000000E+01 0.  1.
         -4   -1    0    0    0  501 -0.00000000000E+00 -0.00000000000E+00 -0.13545936640E+02  0.13605340843E+02  0.12700000000E+01 0.  1.
         25    2    1    2    0    0  0.00000000000E+00  0.00000000000E+00  0.27413712589E+03  0.30129120662E+03  0.12500090957E+03 0.  0.
    9000005    1    3    3    0    0 -0.39813961158E+02  0.18280547606E+02  0.24448243753E+03  0.24837872732E+03  0.10000000000E+01 0.  0.
    9000005    1    3    3    0    0  0.39813961158E+02 -0.18280547606E+02  0.29654688362E+02  0.52912479300E+02  0.10000000000E+01 0.  0.
<mgrwt>
<rscale>  0 0.12500091E+03</rscale>
<asrwt>0</asrwt>
<pdfrwt beam="1">  1        4 0.71928539E-01 0.12500091E+03</pdfrwt>
<pdfrwt beam="2">  1       -4 0.33942602E-02 0.12500091E+03</pdfrwt>
<totfact> 0.12934675E+03</totfact>
</mgrwt>
</event>
<event>
 4    1  0.1438401E-002  0.1248551E+03  0.7818608E-02  0.1235296E+00
          4   -1    0    0  501    0  0.00000000000E+00  0.00000000000E+00  0.10256416440E+02  0.10334746160E+02  0.12700000000E+01 0.  1.
         -4   -1    0    0    0  501 -0.00000000000E+00 -0.00000000000E+00 -0.37845204859E+03  0.37845417950E+03  0.12700000000E+01 0.  1.
    9000005    1    1    2    0    0 -0.49051535740E+02 -0.38247461376E+01 -0.64484386959E+02  0.81116693738E+02  0.10000000000E+01 0.  0.
    9000005    1    1    2    0    0  0.49051535740E+02  0.38247461376E+01 -0.30371124519E+03  0.30767223192E+03  0.10000000000E+01 0.  0.
<mgrwt>
<rscale>  0 0.12485514E+03</rscale>
<asrwt>0</asrwt>
<pdfrwt beam="1">  1        4 0.25741630E-02 0.12485514E+03</pdfrwt>
<pdfrwt beam="2">  1       -4 0.94623023E-01 0.12485514E+03</pdfrwt>
<totfact> 0.10839571E+03</totfact>
</mgrwt>
</event>
<event>
 5    1  0.1438401E-002  0.1249904E+03  0.7818608E-02  0.1235084E+00
         -4   -1    0    0    0  501 -0.00000000000E+00  0.00000000000E+00  0.33423864123E+02  0.33447983391E+02  0.12700000000E+01 0. -1.
          4   -1    0    0  501    0  0.00000000000E+00 -0.00000000000E+00 -0.11678237598E+03  0.11678928136E+03  0.12700000000E+01 0. -1.
         25    2    1    2    0    0  0.00000000000E+00  0.00000000000E+00 -0.83358511859E+02  0.15023726475E+03  0.12499037651E+03 0.  0.
    9000005    1    3    3    0    0 -0.41242842116E+01 -0.61758377377E+02 -0.31371412775E+02  0.69399369132E+02  0.10000000000E+01 0.  0.
    9000005    1    3    3    0    0  0.41242842116E+01  0.61758377377E+02 -0.51987099084E+02  0.80837895616E+02  0.10000000000E+01 0.  0.
<mgrwt>
<rscale>  0 0.12499038E+03</rscale>
<asrwt>0</asrwt>
<pdfrwt beam="2">  1        4 0.29199471E-01 0.12499038E+03</pdfrwt>
<pdfrwt beam="1">  1       -4 0.83598444E-02 0.12499038E+03</pdfrwt>
<totfact> 0.18531270E+03</totfact>
</mgrwt>
</event>
<event>
 5    1  0.1438401E-002  0.1249988E+03  0.7818608E-02  0.1235071E+00
          4   -1    0    0  501    0  0.00000000000E+00  0.00000000000E+00  0.74197857510E+02  0.74208725626E+02  0.12700000000E+01 0.  1.
         -4   -1    0    0    0  501 -0.00000000000E+00 -0.00000000000E+00 -0.52623030691E+02  0.52638353499E+02  0.12700000000E+01 0.  1.
         25    2    1    2    0    0  0.00000000000E+00  0.00000000000E+00  0.21574826819E+02  0.12684707912E+03  0.12499883332E+03 0.  0.
    9000005    1    3    3    0    0  0.19725284332E+01 -0.38353813038E+01  0.74051624633E+02  0.74183853560E+02  0.10000000000E+01 0.  0.
    9000005    1    3    3    0    0 -0.19725284332E+01  0.38353813038E+01 -0.52476797814E+02  0.52663225565E+02  0.10000000000E+01 0.  0.
<mgrwt>
<rscale>  0 0.12499883E+03</rscale>
<asrwt>0</asrwt>
<pdfrwt beam="1">  1        4 0.18552738E-01 0.12499883E+03</pdfrwt>
<pdfrwt beam="2">  1       -4 0.13159032E-01 0.12499883E+03</pdfrwt>
<totfact> 0.19735753E+03</totfact>
</mgrwt>
</event>
<event>
 5    1  0.1438401E-002  0.1250026E+03  0.7818608E-02  0.1235065E+00
         -4   -1    0    0    0  501 -0.00000000000E+00  0.00000000000E+00  0.13807543578E+03  0.13808127630E+03  0.12700000000E+01 0. -1.
          4   -1    0    0  501    0  0.00000000000E+00 -0.00000000000E+00 -0.28271194936E+02  0.28299706061E+02  0.12700000000E+01 0. -1.
         25    2    1    2    0    0  0.00000000000E+00  0.00000000000E+00  0.10980424084E+03  0.16638098236E+03  0.12500263991E+03 0.  0.
    9000005    1    3    3    0    0 -0.54289017434E+02  0.51928093072E+01  0.14286334374E+02  0.56385831840E+02  0.10000000000E+01 0.  0.
    9000005    1    3    3    0    0  0.54289017434E+02 -0.51928093072E+01  0.95517906469E+02  0.10999515052E+03  0.10000000000E+01 0.  0.
<mgrwt>
<rscale>  0 0.12500264E+03</rscale>
<asrwt>0</asrwt>
<pdfrwt beam="2">  1        4 0.70720928E-02 0.12500264E+03</pdfrwt>
<pdfrwt beam="1">  1       -4 0.34523152E-01 0.12500264E+03</pdfrwt>
<totfact> 0.17760437E+03</totfact>
</mgrwt>
</event>
<event>
 5    1  0.1438401E-002  0.1250065E+03  0.7818608E-02  0.1235059E+00
          4   -1    0    0  501    0  0.00000000000E+00  0.00000000000E+00  0.41992385591E+01  0.43870838238E+01  0.12700000000E+01 0. -1.
         -4   -1    0    0    0  501 -0.00000000000E+00 -0.00000000000E+00 -0.90978322639E+03  0.90978411281E+03  0.12700000000E+01 0. -1.
         25    2    1    2    0    0  0.00000000000E+00  0.00000000000E+00 -0.90558398783E+03  0.91417119663E+03  0.12500647079E+03 0.  0.
    9000005    1    3    3    0    0  0.35489979475E+02  0.50332549024E+02 -0.37513977097E+03  0.38016279658E+03  0.10000000000E+01 0.  0.
    9000005    1    3    3    0    0 -0.35489979475E+02 -0.50332549024E+02 -0.53044421685E+03  0.53400840005E+03  0.10000000000E+01 0.  0.
<mgrwt>
<rscale>  0 0.12500647E+03</rscale>
<asrwt>0</asrwt>
<pdfrwt beam="1">  1        4 0.10734042E-02 0.12500647E+03</pdfrwt>
<pdfrwt beam="2">  1       -4 0.22746874E+00 0.12500647E+03</pdfrwt>
<totfact> 0.43197540E+02</totfact>
</mgrwt>
</event>
<event>
 5    1  0.1438401E-002  0.1250001E+03  0.7818608E-02  0.1235069E+00
         -4   -1    0    0    0  501 -0.00000000000E+00  0.00000000000E+00  0.17444920351E+03  0.17445382629E+03  0.12700000000E+01 0. -1.
          4   -1    0    0  501    0  0.00000000000E+00 -0.00000000000E+00 -0.22369017457E+02  0.22405040548E+02  0.12700000000E+01 0. -1.
         25    2    1    2    0    0  0.00000000000E+00  0.00000000000E+00  0.15208018606E+03  0.19685886684E+03  0.12500012184E+03 0.  0.
    9000005    1    3    3    0    0  0.16678625544E+02  0.59995794578E+02  0.84311636083E+02  0.10481948243E+03  0.10000000000E+01 0.  0.
    9000005    1    3    3    0    0 -0.16678625544E+02 -0.59995794578E+02  0.67768549973E+02  0.92039384410E+02  0.10000000000E+01 0.  0.
<mgrwt>
<rscale>  0 0.12500012E+03</rscale>
<asrwt>0</asrwt>
<pdfrwt beam="2">  1        4 0.55973352E-02 0.12500012E+03</pdfrwt>
<pdfrwt beam="1">  1       -4 0.43617380E-01 0.12500012E+03</pdfrwt>
<totfact> 0.16448548E+03</totfact>
</mgrwt>
</event>
<event>
 5    1  0.1438401E-002  0.1250012E+03  0.7818608E-02  0.1235067E+00
          4   -1    0    0  501    0  0.00000000000E+00  0.00000000000E+00  0.23549944166E+02  0.23584163547E+02  0.12700000000E+01 0. -1.
         -4   -1    0    0    0  501 -0.00000000000E+00 -0.00000000000E+00 -0.16571707199E+03  0.16572193835E+03  0.12700000000E+01 0. -1.
         25    2    1    2    0    0  0.00000000000E+00  0.00000000000E+00 -0.14216712783E+03  0.18930610190E+03  0.12500123191E+03 0.  0.
    9000005    1    3    3    0    0 -0.52837402021E+02 -0.20495693035E+02 -0.31202952013E+02  0.64703081067E+02  0.10000000000E+01 0.  0.
    9000005    1    3    3    0    0  0.52837402021E+02  0.20495693035E+02 -0.11096417582E+03  0.12460302083E+03  0.10000000000E+01 0.  0.
<mgrwt>
<rscale>  0 0.12500123E+03</rscale>
<asrwt>0</asrwt>
<pdfrwt beam="1">  1        4 0.58923722E-02 0.12500123E+03</pdfrwt>
<pdfrwt beam="2">  1       -4 0.41434150E-01 0.12500123E+03</pdfrwt>
<totfact> 0.16758914E+03</totfact>
</mgrwt>
</event>
<event>
 5    1  0.1438401E-002  0.1249994E+03  0.7818608E-02  0.1235070E+00
         -4   -1    0    0    0  501 -0.00000000000E+00  0.00000000000E+00  0.16697323386E+03  0.16697806361E+03  0.12700000000E+01 0.  1.
          4   -1    0    0  501    0  0.00000000000E+00 -0.00000000000E+00 -0.23371834592E+02  0.23406314366E+02  0.12700000000E+01 0.  1.
         25    2    1    2    0    0  0.00000000000E+00  0.00000000000E+00  0.14360139927E+03  0.19038437797E+03  0.12499939802E+03 0.  0.
    9000005    1    3    3    0    0 -0.27180174231E+02 -0.44702847001E+02  0.19745452750E+02  0.55928430208E+02  0.10000000000E+01 0.  0.
    9000005    1    3    3    0    0  0.27180174231E+02  0.44702847001E+02  0.12385594652E+03  0.13445594777E+03  0.10000000000E+01 0.  0.
<mgrwt>
<rscale>  0 0.12499940E+03</rscale>
<asrwt>0</asrwt>
<pdfrwt beam="2">  1        4 0.58478725E-02 0.12499940E+03</pdfrwt>
<pdfrwt beam="1">  1       -4 0.41748221E-01 0.12499940E+03</pdfrwt>
<totfact> 0.16714680E+03</totfact>
</mgrwt>
</event>
<event>
 5    1  0.1438401E-002  0.1250008E+03  0.7818608E-02  0.1235068E+00
         -4   -1    0    0    0  501 -0.00000000000E+00  0.00000000000E+00  0.28740573913E+02  0.28768619864E+02  0.12700000000E+01 0.  1.
          4   -1    0    0  501    0  0.00000000000E+00 -0.00000000000E+00 -0.13581847867E+03  0.13582441624E+03  0.12700000000E+01 0.  1.
         25    2    1    2    0    0  0.00000000000E+00  0.00000000000E+00 -0.10707790476E+03  0.16459303611E+03  0.12500075939E+03 0.  0.
    9000005    1    3    3    0    0  0.89906989822E+01 -0.32880412678E+02 -0.12250556262E+03  0.12716354462E+03  0.10000000000E+01 0.  0.
    9000005    1    3    3    0    0 -0.89906989822E+01  0.32880412678E+02  0.15427657866E+02  0.37429491492E+02  0.10000000000E+01 0.  0.
<mgrwt>
<rscale>  0 0.12500076E+03</rscale>
<asrwt>0</asrwt>
<pdfrwt beam="2">  1        4 0.33958866E-01 0.12500076E+03</pdfrwt>
<pdfrwt beam="1">  1       -4 0.71893918E-02 0.12500076E+03</pdfrwt>
<totfact> 0.17843403E+03</totfact>
</mgrwt>
</event>
<event>
 5    1  0.1438401E-002  0.1249995E+03  0.7818608E-02  0.1235070E+00
         -4   -1    0    0    0  501 -0.00000000000E+00  0.00000000000E+00  0.10285768872E+02  0.10363876750E+02  0.12700000000E+01 0. -1.
          4   -1    0    0  501    0  0.00000000000E+00 -0.00000000000E+00 -0.37825342100E+03  0.37825555303E+03  0.12700000000E+01 0. -1.
         25    2    1    2    0    0  0.00000000000E+00  0.00000000000E+00 -0.36796765213E+03  0.38861942978E+03  0.12499947276E+03 0.  0.
    9000005    1    3    3    0    0 -0.60969991206E+01  0.60808054379E+02 -0.14339729578E+03  0.15588000935E+03  0.10000000000E+01 0.  0.
    9000005    1    3    3    0    0  0.60969991206E+01 -0.60808054379E+02 -0.22457035634E+03  0.23273942043E+03  0.10000000000E+01 0.  0.
<mgrwt>
<rscale>  0 0.12499947E+03</rscale>
<asrwt>0</asrwt>
<pdfrwt beam="2">  1        4 0.94573339E-01 0.12499947E+03</pdfrwt>
<pdfrwt beam="1">  1       -4 0.25814735E-02 0.12499947E+03</pdfrwt>
<totfact> 0.10807570E+03</totfact>
</mgrwt>
</event>
<event>
 5    1  0.1438401E-002  0.1249985E+03  0.7818608E-02  0.1235072E+00
         -4   -1    0    0    0  501 -0.00000000000E+00  0.00000000000E+00  0.18285196377E+02  0.18329247299E+02  0.12700000000E+01 0. -1.
          4   -1    0    0  501    0  0.00000000000E+00 -0.00000000000E+00 -0.21332105190E+03  0.21332483231E+03  0.12700000000E+01 0. -1.
         25    2    1    2    0    0  0.00000000000E+00  0.00000000000E+00 -0.19503585552E+03  0.23165407961E+03  0.12499851065E+03 0.  0.
    9000005    1    3    3    0    0 -0.19304246544E+02  0.59006414828E+02 -0.11071981384E+03  0.12694206593E+03  0.10000000000E+01 0.  0.
    9000005    1    3    3    0    0  0.19304246544E+02 -0.59006414828E+02 -0.84316041677E+02  0.10471201368E+03  0.10000000000E+01 0.  0.
<mgrwt>
<rscale>  0 0.12499851E+03</rscale>
<asrwt>0</asrwt>
<pdfrwt beam="2">  1        4 0.53336234E-01 0.12499851E+03</pdfrwt>
<pdfrwt beam="1">  1       -4 0.45772787E-02 0.12499851E+03</pdfrwt>
<totfact> 0.15128908E+03</totfact>
</mgrwt>
</event>
<event>
 4    1  0.1438401E-002  0.1246194E+03  0.7818608E-02  0.1235665E+00
          4   -1    0    0  501    0  0.00000000000E+00  0.00000000000E+00  0.62395869162E+03  0.62395998409E+03  0.12700000000E+01 0.  1.
         -4   -1    0    0    0  501 -0.00000000000E+00 -0.00000000000E+00 -0.61562510038E+01  0.62858831060E+01  0.12700000000E+01 0.  1.
    9000005    1    1    2    0    0 -0.12393105086E+02  0.49768979833E+02  0.48777465473E+03  0.49046473288E+03  0.10000000000E+01 0.  0.
    9000005    1    1    2    0    0  0.12393105086E+02 -0.49768979833E+02  0.13002778589E+03  0.13978113431E+03  0.10000000000E+01 0.  0.
<mgrwt>
<rscale>  0 0.12461941E+03</rscale>
<asrwt>0</asrwt>
<pdfrwt beam="1">  1        4 0.15600601E+00 0.12461941E+03</pdfrwt>
<pdfrwt beam="2">  1       -4 0.15554286E-02 0.12461941E+03</pdfrwt>
<totfact> 0.70421826E+02</totfact>
</mgrwt>
</event>
<event>
 5    1  0.1438401E-002  0.1249996E+03  0.7818608E-02  0.1235070E+00
         -4   -1    0    0    0  501 -0.00000000000E+00  0.00000000000E+00  0.57082703881E+02  0.57096829880E+02  0.12700000000E+01 0.  1.
          4   -1    0    0  501    0  0.00000000000E+00 -0.00000000000E+00 -0.68402471493E+02  0.68414260256E+02  0.12700000000E+01 0.  1.
         25    2    1    2    0    0  0.00000000000E+00  0.00000000000E+00 -0.11319767612E+02  0.12551109014E+03  0.12499958643E+03 0.  0.
    9000005    1    3    3    0    0  0.60403634332E+02  0.15376558609E+02 -0.11485532359E+01  0.62348670953E+02  0.10000000000E+01 0.  0.
    9000005    1    3    3    0    0 -0.60403634332E+02 -0.15376558609E+02 -0.10171214376E+02  0.63162419183E+02  0.10000000000E+01 0.  0.
<mgrwt>
<rscale>  0 0.12499959E+03</rscale>
<asrwt>0</asrwt>
<pdfrwt beam="2">  1        4 0.17103857E-01 0.12499959E+03</pdfrwt>
<pdfrwt beam="1">  1       -4 0.14273915E-01 0.12499959E+03</pdfrwt>
<totfact> 0.19807555E+03</totfact>
</mgrwt>
</event>
<event>
 5    1  0.1438401E-002  0.1250009E+03  0.7818608E-02  0.1235068E+00
          4   -1    0    0  501    0  0.00000000000E+00  0.00000000000E+00  0.11000224636E+02  0.11073294092E+02  0.12700000000E+01 0. -1.
         -4   -1    0    0    0  501 -0.00000000000E+00 -0.00000000000E+00 -0.35386198917E+03  0.35386426816E+03  0.12700000000E+01 0. -1.
         25    2    1    2    0    0  0.00000000000E+00  0.00000000000E+00 -0.34286176453E+03  0.36493756225E+03  0.12500093904E+03 0.  0.
    9000005    1    3    3    0    0  0.23969842718E+02  0.52372967897E+02 -0.10064767053E+03  0.11596738640E+03  0.10000000000E+01 0.  0.
    9000005    1    3    3    0    0 -0.23969842718E+02 -0.52372967897E+02 -0.24221409401E+03  0.24897017585E+03  0.10000000000E+01 0.  0.
<mgrwt>
<rscale>  0 0.12500094E+03</rscale>
<asrwt>0</asrwt>
<pdfrwt beam="1">  1        4 0.27594759E-02 0.12500094E+03</pdfrwt>
<pdfrwt beam="2">  1       -4 0.88474878E-01 0.12500094E+03</pdfrwt>
<totfact> 0.11328748E+03</totfact>
</mgrwt>
</event>
<event>
 5    1  0.1438401E-002  0.1249952E+03  0.7818608E-02  0.1235077E+00
         -4   -1    0    0    0  501 -0.00000000000E+00  0.00000000000E+00  0.44105747924E+03  0.44105930768E+03  0.12700000000E+01 0.  1.
          4   -1    0    0  501    0  0.00000000000E+00 -0.00000000000E+00 -0.88084798510E+01  0.88995627581E+01  0.12700000000E+01 0.  1.
         25    2    1    2    0    0  0.00000000000E+00  0.00000000000E+00  0.43224899939E+03  0.44995887044E+03  0.12499515037E+03 0.  0.
    9000005    1    3    3    0    0 -0.30136930747E+02  0.16774568718E+02  0.28542718304E+02  0.44780660097E+02  0.10000000000E+01 0.  0.
    9000005    1    3    3    0    0  0.30136930747E+02 -0.16774568718E+02  0.40370628108E+03  0.40517821034E+03  0.10000000000E+01 0.  0.
<mgrwt>
<rscale>  0 0.12499515E+03</rscale>
<asrwt>0</asrwt>
<pdfrwt beam="2">  1        4 0.22137340E-02 0.12499515E+03</pdfrwt>
<pdfrwt beam="1">  1       -4 0.11027598E+00 0.12499515E+03</pdfrwt>
<totfact> 0.96034922E+02</totfact>
</mgrwt>
</event>
<event>
 5    1  0.1438401E-002  0.1249956E+03  0.7818608E-02  0.1235076E+00
          4   -1    0    0  501    0  0.00000000000E+00  0.00000000000E+00  0.95584159473E+01  0.96424175092E+01  0.12700000000E+01 0.  1.
         -4   -1    0    0    0  501 -0.00000000000E+00 -0.00000000000E+00 -0.40676985585E+03  0.40677183842E+03  0.12700000000E+01 0.  1.
         25    2    1    2    0    0  0.00000000000E+00  0.00000000000E+00 -0.39721143991E+03  0.41641425593E+03  0.12499561812E+03 0.  0.
    9000005    1    3    3    0    0  0.20333807026E+02 -0.20467066579E+02 -0.38327073875E+03  0.38435637591E+03  0.10000000000E+01 0.  0.
    9000005    1    3    3    0    0 -0.20333807026E+02  0.20467066579E+02 -0.13940701159E+02  0.32057880019E+02  0.10000000000E+01 0.  0.
<mgrwt>
<rscale>  0 0.12499562E+03</rscale>
<asrwt>0</asrwt>
<pdfrwt beam="1">  1        4 0.24003534E-02 0.12499562E+03</pdfrwt>
<pdfrwt beam="2">  1       -4 0.10170315E+00 0.12499562E+03</pdfrwt>
<totfact> 0.10238144E+03</totfact>
</mgrwt>
</event>
<event>
 5    1  0.1438401E-002  0.1249959E+03  0.7818608E-02  0.1235076E+00
         -4   -1    0    0    0  501 -0.00000000000E+00  0.00000000000E+00  0.15492337711E+02  0.15544305316E+02  0.12700000000E+01 0.  1.
          4   -1    0    0  501    0  0.00000000000E+00 -0.00000000000E+00 -0.25164845339E+03  0.25165165803E+03  0.12700000000E+01 0.  1.
         25    2    1    2    0    0  0.00000000000E+00  0.00000000000E+00 -0.23615611567E+03  0.26719596335E+03  0.12499588737E+03 0.  0.
    9000005    1    3    3    0    0  0.32617806208E+02 -0.12861163058E+02 -0.75048757960E+01  0.35869958987E+02  0.10000000000E+01 0.  0.
    9000005    1    3    3    0    0 -0.32617806208E+02  0.12861163058E+02 -0.22865123988E+03  0.23132600436E+03  0.10000000000E+01 0.  0.
<mgrwt>
<rscale>  0 0.12499589E+03</rscale>
<asrwt>0</asrwt>
<pdfrwt beam="2">  1        4 0.62918997E-01 0.12499589E+03</pdfrwt>
<pdfrwt beam="1">  1       -4 0.38799818E-02 0.12499589E+03</pdfrwt>
<totfact> 0.13944279E+03</totfact>
</mgrwt>
</event>
<event>
 5    1  0.1438401E-002  0.1249762E+03  0.7818608E-02  0.1235106E+00
         -4   -1    0    0    0  501 -0.00000000000E+00  0.00000000000E+00  0.61638483126E+02  0.61651565285E+02  0.12700000000E+01 0.  1.
          4   -1    0    0  501    0  0.00000000000E+00 -0.00000000000E+00 -0.63323301934E+02  0.63336036092E+02  0.12700000000E+01 0.  1.
         25    2    1    2    0    0  0.00000000000E+00  0.00000000000E+00 -0.16848188076E+01  0.12498760138E+03  0.12497624528E+03 0.  0.
    9000005    1    3    3    0    0  0.61689450622E+02 -0.23529035651E+01 -0.10468303354E+02  0.62623556656E+02  0.10000000000E+01 0.  0.
    9000005    1    3    3    0    0 -0.61689450622E+02  0.23529035651E+01  0.87834845460E+01  0.62364044721E+02  0.10000000000E+01 0.  0.
<mgrwt>
<rscale>  0 0.12497625E+03</rscale>
<asrwt>0</asrwt>
<pdfrwt beam="2">  1        4 0.15834053E-01 0.12497625E+03</pdfrwt>
<pdfrwt beam="1">  1       -4 0.15412848E-01 0.12497625E+03</pdfrwt>
<totfact> 0.19846757E+03</totfact>
</mgrwt>
</event>
<event>
 5    1  0.1438401E-002  0.1249999E+03  0.7818608E-02  0.1235069E+00
         -4   -1    0    0    0  501 -0.00000000000E+00  0.00000000000E+00  0.55351552923E+02  0.55366120607E+02  0.12700000000E+01 0.  1.
          4   -1    0    0  501    0  0.00000000000E+00 -0.00000000000E+00 -0.70542009893E+02  0.70553441162E+02  0.12700000000E+01 0.  1.
         25    2    1    2    0    0  0.00000000000E+00  0.00000000000E+00 -0.15190456970E+02  0.12591956177E+03  0.12499994421E+03 0.  0.
    9000005    1    3    3    0    0 -0.37508362517E+02  0.10111810103E+01  0.42745884085E+02  0.56886820547E+02  0.10000000000E+01 0.  0.
    9000005    1    3    3    0    0  0.37508362517E+02 -0.10111810103E+01 -0.57936341055E+02  0.69032741221E+02  0.10000000000E+01 0.  0.
<mgrwt>
<rscale>  0 0.12499994E+03</rscale>
<asrwt>0</asrwt>
<pdfrwt beam="2">  1        4 0.17638752E-01 0.12499994E+03</pdfrwt>
<pdfrwt beam="1">  1       -4 0.13841138E-01 0.12499994E+03</pdfrwt>
<totfact> 0.19785293E+03</totfact>
</mgrwt>
</event>
<event>
 5    1  0.1438401E-002  0.1250170E+03  0.7818608E-02  0.1235043E+00
         -4   -1    0    0    0  501 -0.00000000000E+00  0.00000000000E+00  0.52163673125E+02  0.52179130828E+02  0.12700000000E+01 0.  1.
          4   -1    0    0  501    0  0.00000000000E+00 -0.00000000000E+00 -0.74872940148E+02  0.74883710288E+02  0.12700000000E+01 0.  1.
         25    2    1    2    0    0  0.00000000000E+00  0.00000000000E+00 -0.22709267023E+02  0.12706284112E+03  0.12501701798E+03 0.  0.
    9000005    1    3    3    0    0 -0.17658049403E+02  0.58234647949E+02 -0.25843896321E+02  0.66121009577E+02  0.10000000000E+01 0.  0.
    9000005    1    3    3    0    0  0.17658049403E+02 -0.58234647949E+02  0.31346292979E+01  0.60941831538E+02  0.10000000000E+01 0.  0.
<mgrwt>
<rscale>  0 0.12501702E+03</rscale>
<asrwt>0</asrwt>
<pdfrwt beam="2">  1        4 0.18721513E-01 0.12501702E+03</pdfrwt>
<pdfrwt beam="1">  1       -4 0.13044197E-01 0.12501702E+03</pdfrwt>
<totfact> 0.19715747E+03</totfact>
</mgrwt>
</event>
<event>
 5    1  0.1438401E-002  0.1250030E+03  0.7818608E-02  0.1235065E+00
          4   -1    0    0  501    0  0.00000000000E+00  0.00000000000E+00  0.74216242071E+01  0.75295023654E+01  0.12700000000E+01 0. -1.
         -4   -1    0    0    0  501 -0.00000000000E+00 -0.00000000000E+00 -0.52245234343E+03  0.52245388701E+03  0.12700000000E+01 0. -1.
         25    2    1    2    0    0  0.00000000000E+00  0.00000000000E+00 -0.51503071922E+03  0.52998338938E+03  0.12500300506E+03 0.  0.
    9000005    1    3    3    0    0  0.29951065433E+02  0.50647643699E+02 -0.34677099523E+03  0.35172911916E+03  0.10000000000E+01 0.  0.
    9000005    1    3    3    0    0 -0.29951065433E+02 -0.50647643699E+02 -0.16825972399E+03  0.17825427022E+03  0.10000000000E+01 0.  0.
<mgrwt>
<rscale>  0 0.12500301E+03</rscale>
<asrwt>0</asrwt>
<pdfrwt beam="1">  1        4 0.18690855E-02 0.12500301E+03</pdfrwt>
<pdfrwt beam="2">  1       -4 0.13062664E+00 0.12500301E+03</pdfrwt>
<totfact> 0.83021753E+02</totfact>
</mgrwt>
</event>
<event>
 5    1  0.1438401E-002  0.1250084E+03  0.7818608E-02  0.1235056E+00
          4   -1    0    0  501    0  0.00000000000E+00  0.00000000000E+00  0.91490060875E+02  0.91498875070E+02  0.12700000000E+01 0. -1.
         -4   -1    0    0    0  501 -0.00000000000E+00 -0.00000000000E+00 -0.42681323612E+02  0.42700214113E+02  0.12700000000E+01 0. -1.
         25    2    1    2    0    0  0.00000000000E+00  0.00000000000E+00  0.48808737263E+02  0.13419908918E+03  0.12500841053E+03 0.  0.
    9000005    1    3    3    0    0  0.31940089755E+02  0.53627708002E+02  0.21065171667E+02  0.65885065504E+02  0.10000000000E+01 0.  0.
    9000005    1    3    3    0    0 -0.31940089755E+02 -0.53627708002E+02  0.27743565597E+02  0.68314023678E+02  0.10000000000E+01 0.  0.
<mgrwt>
<rscale>  0 0.12500841E+03</rscale>
<asrwt>0</asrwt>
<pdfrwt beam="1">  1        4 0.22875978E-01 0.12500841E+03</pdfrwt>
<pdfrwt beam="2">  1       -4 0.10673794E-01 0.12500841E+03</pdfrwt>
<totfact> 0.19337375E+03</totfact>
</mgrwt>
</event>
<event>
 5    1  0.1438401E-002  0.1249962E+03  0.7818608E-02  0.1235075E+00
         -4   -1    0    0    0  501 -0.00000000000E+00  0.00000000000E+00  0.20959230132E+03  0.20959614899E+03  0.12700000000E+01 0.  1.
          4   -1    0    0  501    0  0.00000000000E+00 -0.00000000000E+00 -0.18610575238E+02  0.18653857796E+02  0.12700000000E+01 0.  1.
         25    2    1    2    0    0  0.00000000000E+00  0.00000000000E+00  0.19098172608E+03  0.22825000679E+03  0.12499618355E+03 0.  0.
    9000005    1    3    3    0    0 -0.13659812858E+02  0.33054551168E+02  0.18906295230E+03  0.19241879786E+03  0.10000000000E+01 0.  0.
    9000005    1    3    3    0    0  0.13659812858E+02 -0.33054551168E+02  0.19187737855E+01  0.35831208926E+02  0.10000000000E+01 0.  0.
<mgrwt>
<rscale>  0 0.12499618E+03</rscale>
<asrwt>0</asrwt>
<pdfrwt beam="2">  1        4 0.46585351E-02 0.12499618E+03</pdfrwt>
<pdfrwt beam="1">  1       -4 0.52403966E-01 0.12499618E+03</pdfrwt>
<totfact> 0.15251387E+03</totfact>
</mgrwt>
</event>
<event>
 5    1  0.1438401E-002  0.1250035E+03  0.7818608E-02  0.1235064E+00
          4   -1    0    0  501    0  0.00000000000E+00  0.00000000000E+00  0.11948481779E+03  0.11949156699E+03  0.12700000000E+01 0.  1.
         -4   -1    0    0    0  501 -0.00000000000E+00 -0.00000000000E+00 -0.32674264053E+02  0.32698936242E+02  0.12700000000E+01 0.  1.
         25    2    1    2    0    0  0.00000000000E+00  0.00000000000E+00  0.86810553738E+02  0.15219050324E+03  0.12500350809E+03 0.  0.
    9000005    1    3    3    0    0 -0.41599177200E+02  0.35367769050E+02  0.63948141819E+01  0.54984218461E+02  0.10000000000E+01 0.  0.
    9000005    1    3    3    0    0  0.41599177200E+02 -0.35367769050E+02  0.80415739556E+02  0.97206284774E+02  0.10000000000E+01 0.  0.
<mgrwt>
<rscale>  0 0.12500351E+03</rscale>
<asrwt>0</asrwt>
<pdfrwt beam="1">  1        4 0.29875132E-01 0.12500351E+03</pdfrwt>
<pdfrwt beam="2">  1       -4 0.81724937E-02 0.12500351E+03</pdfrwt>
<totfact> 0.18430091E+03</totfact>
</mgrwt>
</event>
<event>
 5    1  0.1438401E-002  0.1250010E+03  0.7818608E-02  0.1235068E+00
          4   -1    0    0  501    0  0.00000000000E+00  0.00000000000E+00  0.11081114667E+02  0.11153654211E+02  0.12700000000E+01 0. -1.
         -4   -1    0    0    0  501 -0.00000000000E+00 -0.00000000000E+00 -0.35129630750E+03  0.35129860313E+03  0.12700000000E+01 0. -1.
         25    2    1    2    0    0  0.00000000000E+00  0.00000000000E+00 -0.34021519283E+03  0.36245225734E+03  0.12500104567E+03 0.  0.
    9000005    1    3    3    0    0  0.52904778504E+01 -0.46197059189E+02 -0.49046241636E+02  0.67592094599E+02  0.10000000000E+01 0.  0.
    9000005    1    3    3    0    0 -0.52904778504E+01  0.46197059189E+02 -0.29116895120E+03  0.29486016274E+03  0.10000000000E+01 0.  0.
<mgrwt>
<rscale>  0 0.12500105E+03</rscale>
<asrwt>0</asrwt>
<pdfrwt beam="1">  1        4 0.27796342E-02 0.12500105E+03</pdfrwt>
<pdfrwt beam="2">  1       -4 0.87833394E-01 0.12500105E+03</pdfrwt>
<totfact> 0.11385594E+03</totfact>
</mgrwt>
</event>
<event>
 5    1  0.1438401E-002  0.1250012E+03  0.7818608E-02  0.1235067E+00
          4   -1    0    0  501    0  0.00000000000E+00  0.00000000000E+00  0.64472903411E+02  0.64485410553E+02  0.12700000000E+01 0. -1.
         -4   -1    0    0    0  501 -0.00000000000E+00 -0.00000000000E+00 -0.60563592931E+02  0.60576907223E+02  0.12700000000E+01 0. -1.
         25    2    1    2    0    0  0.00000000000E+00  0.00000000000E+00  0.39093104797E+01  0.12506231778E+03  0.12500120247E+03 0.  0.
    9000005    1    3    3    0    0 -0.46520302406E+02 -0.18320096503E+02 -0.35554482661E+02  0.61358664499E+02  0.10000000000E+01 0.  0.
    9000005    1    3    3    0    0  0.46520302406E+02  0.18320096503E+02  0.39463793141E+02  0.63703653277E+02  0.10000000000E+01 0.  0.
<mgrwt>
<rscale>  0 0.12500120E+03</rscale>
<asrwt>0</asrwt>
<pdfrwt beam="1">  1        4 0.16121454E-01 0.12500120E+03</pdfrwt>
<pdfrwt beam="2">  1       -4 0.15144126E-01 0.12500120E+03</pdfrwt>
<totfact> 0.19831118E+03</totfact>
</mgrwt>
</event>
<event>
 5    1  0.1438401E-002  0.1249937E+03  0.7818608E-02  0.1235079E+00
         -4   -1    0    0    0  501 -0.00000000000E+00  0.00000000000E+00  0.81137033942E+02  0.81146972691E+02  0.12700000000E+01 0. -1.
          4   -1    0    0  501    0  0.00000000000E+00 -0.00000000000E+00 -0.48117718721E+02  0.48134475741E+02  0.12700000000E+01 0. -1.
         25    2    1    2    0    0  0.00000000000E+00  0.00000000000E+00  0.33019315221E+02  0.12928144843E+03  0.12499367076E+03 0.  0.
    9000005    1    3    3    0    0 -0.18967448252E+01  0.14093566514E+02  0.79446251816E+02  0.80715136038E+02  0.10000000000E+01 0.  0.
    9000005    1    3    3    0    0  0.18967448252E+01 -0.14093566514E+02 -0.46426936594E+02  0.48566312394E+02  0.10000000000E+01 0.  0.
<mgrwt>
<rscale>  0 0.12499367E+03</rscale>
<asrwt>0</asrwt>
<pdfrwt beam="2">  1        4 0.12032767E-01 0.12499367E+03</pdfrwt>
<pdfrwt beam="1">  1       -4 0.20287595E-01 0.12499367E+03</pdfrwt>
<totfact> 0.19605986E+03</totfact>
</mgrwt>
</event>
<event>
 5    1  0.1438401E-002  0.1249995E+03  0.7818608E-02  0.1235070E+00
          4   -1    0    0  501    0  0.00000000000E+00  0.00000000000E+00  0.13193358492E+02  0.13254342998E+02  0.12700000000E+01 0. -1.
         -4   -1    0    0    0  501 -0.00000000000E+00 -0.00000000000E+00 -0.29532935597E+03  0.29533208664E+03  0.12700000000E+01 0. -1.
         25    2    1    2    0    0  0.00000000000E+00  0.00000000000E+00 -0.28213599748E+03  0.30858642963E+03  0.12499945393E+03 0.  0.
    9000005    1    3    3    0    0 -0.32456109639E+02  0.47292020911E+02 -0.20230383642E+03  0.21028023332E+03  0.10000000000E+01 0.  0.
    9000005    1    3    3    0    0  0.32456109639E+02 -0.47292020911E+02 -0.79832161053E+02  0.98306196311E+02  0.10000000000E+01 0.  0.
<mgrwt>
<rscale>  0 0.12499945E+03</rscale>
<asrwt>0</asrwt>
<pdfrwt beam="1">  1        4 0.33063050E-02 0.12499945E+03</pdfrwt>
<pdfrwt beam="2">  1       -4 0.73840282E-01 0.12499945E+03</pdfrwt>
<totfact> 0.12733934E+03</totfact>
</mgrwt>
</event>
<event>
 5    1  0.1438401E-002  0.1250021E+03  0.7818608E-02  0.1235066E+00
          4   -1    0    0  501    0  0.00000000000E+00  0.00000000000E+00  0.15291823666E+02  0.15344470374E+02  0.12700000000E+01 0.  1.
         -4   -1    0    0    0  501 -0.00000000000E+00 -0.00000000000E+00 -0.25496243015E+03  0.25496559315E+03  0.12700000000E+01 0.  1.
         25    2    1    2    0    0  0.00000000000E+00  0.00000000000E+00 -0.23967060649E+03  0.27031006352E+03  0.12500212329E+03 0.  0.
    9000005    1    3    3    0    0 -0.49936245680E+02 -0.32811936703E+02 -0.80248352503E+02  0.10005523426E+03  0.10000000000E+01 0.  0.
    9000005    1    3    3    0    0  0.49936245680E+02  0.32811936703E+02 -0.15942225398E+03  0.17025482926E+03  0.10000000000E+01 0.  0.
<mgrwt>
<rscale>  0 0.12500212E+03</rscale>
<asrwt>0</asrwt>
<pdfrwt beam="1">  1        4 0.38299330E-02 0.12500212E+03</pdfrwt>
<pdfrwt beam="2">  1       -4 0.63747570E-01 0.12500212E+03</pdfrwt>
<totfact> 0.13845290E+03</totfact>
</mgrwt>
</event>
<event>
 5    1  0.1438401E-002  0.1249814E+03  0.7818608E-02  0.1235098E+00
          4   -1    0    0  501    0  0.00000000000E+00  0.00000000000E+00  0.10087944956E+04  0.10087952951E+04  0.12700000000E+01 0.  1.
         -4   -1    0    0    0  501 -0.00000000000E+00 -0.00000000000E+00 -0.37660546354E+01  0.39744266904E+01  0.12700000000E+01 0.  1.
         25    2    1    2    0    0  0.00000000000E+00  0.00000000000E+00  0.10050284410E+04  0.10127697217E+04  0.12498136687E+03 0.  0.
    9000005    1    3    3    0    0  0.45433183454E+02 -0.37398584783E+02  0.67273451912E+03  0.67530405116E+03  0.10000000000E+01 0.  0.
    9000005    1    3    3    0    0 -0.45433183454E+02  0.37398584783E+02  0.33229392188E+03  0.33746567058E+03  0.10000000000E+01 0.  0.
<mgrwt>
<rscale>  0 0.12498137E+03</rscale>
<asrwt>0</asrwt>
<pdfrwt beam="1">  1        4 0.25222483E+00 0.12498137E+03</pdfrwt>
<pdfrwt beam="2">  1       -4 0.96765986E-03 0.12498137E+03</pdfrwt>
<totfact> 0.36272041E+02</totfact>
</mgrwt>
</event>
<event>
 5    1  0.1438401E-002  0.1250011E+03  0.7818608E-02  0.1235068E+00
          4   -1    0    0  501    0  0.00000000000E+00  0.00000000000E+00  0.13225355916E+03  0.13225965678E+03  0.12700000000E+01 0.  1.
         -4   -1    0    0    0  501 -0.00000000000E+00 -0.00000000000E+00 -0.29516161326E+02  0.29543471012E+02  0.12700000000E+01 0.  1.
         25    2    1    2    0    0  0.00000000000E+00  0.00000000000E+00  0.10273739783E+03  0.16180312779E+03  0.12500111699E+03 0.  0.
    9000005    1    3    3    0    0 -0.22068868704E+02  0.24512420472E+02  0.12007542976E+03  0.12452711574E+03  0.10000000000E+01 0.  0.
    9000005    1    3    3    0    0  0.22068868704E+02 -0.24512420472E+02 -0.17338031922E+02  0.37276012048E+02  0.10000000000E+01 0.  0.
<mgrwt>
<rscale>  0 0.12500112E+03</rscale>
<asrwt>0</asrwt>
<pdfrwt beam="1">  1        4 0.33067565E-01 0.12500112E+03</pdfrwt>
<pdfrwt beam="2">  1       -4 0.73832163E-02 0.12500112E+03</pdfrwt>
<totfact> 0.17972759E+03</totfact>
</mgrwt>
</event>
<event>
 5    1  0.1438401E-002  0.1249984E+03  0.7818608E-02  0.1235072E+00
          4   -1    0    0  501    0  0.00000000000E+00  0.00000000000E+00  0.41510847761E+03  0.41511042035E+03  0.12700000000E+01 0. -1.
         -4   -1    0    0    0  501 -0.00000000000E+00 -0.00000000000E+00 -0.93651240644E+01  0.94508438111E+01  0.12700000000E+01 0. -1.
         25    2    1    2    0    0  0.00000000000E+00  0.00000000000E+00  0.40574335355E+03  0.42456126416E+03  0.12499839231E+03 0.  0.
    9000005    1    3    3    0    0  0.92401014103E+01 -0.60584284455E+02  0.24437539120E+03  0.25194476939E+03  0.10000000000E+01 0.  0.
    9000005    1    3    3    0    0 -0.92401014103E+01  0.60584284455E+02  0.16136796235E+03  0.17261649478E+03  0.10000000000E+01 0.  0.
<mgrwt>
<rscale>  0 0.12499839E+03</rscale>
<asrwt>0</asrwt>
<pdfrwt beam="1">  1        4 0.10378807E+00 0.12499839E+03</pdfrwt>
<pdfrwt beam="2">  1       -4 0.23522390E-02 0.12499839E+03</pdfrwt>
<totfact> 0.10077284E+03</totfact>
</mgrwt>
</event>
<event>
 5    1  0.1438401E-002  0.1249992E+03  0.7818608E-02  0.1235071E+00
         -4   -1    0    0    0  501 -0.00000000000E+00  0.00000000000E+00  0.28327894276E+03  0.28328178958E+03  0.12700000000E+01 0.  1.
          4   -1    0    0  501    0  0.00000000000E+00 -0.00000000000E+00 -0.13757068535E+02  0.13815564943E+02  0.12700000000E+01 0.  1.
         25    2    1    2    0    0  0.00000000000E+00  0.00000000000E+00  0.26952187422E+03  0.29709735452E+03  0.12499918953E+03 0.  0.
    9000005    1    3    3    0    0  0.35258132324E+02  0.26326190736E+02  0.24022728532E+03  0.24422602815E+03  0.10000000000E+01 0.  0.
    9000005    1    3    3    0    0 -0.35258132324E+02 -0.26326190736E+02  0.29294588898E+02  0.52871326372E+02  0.10000000000E+01 0.  0.
<mgrwt>
<rscale>  0 0.12499919E+03</rscale>
<asrwt>0</asrwt>
<pdfrwt beam="2">  1        4 0.34469349E-02 0.12499919E+03</pdfrwt>
<pdfrwt beam="1">  1       -4 0.70827406E-01 0.12499919E+03</pdfrwt>
<totfact> 0.13053042E+03</totfact>
</mgrwt>
</event>
<event>
 5    1  0.1438401E-002  0.1250013E+03  0.7818608E-02  0.1235067E+00
         -4   -1    0    0    0  501 -0.00000000000E+00  0.00000000000E+00  0.20949331737E+02  0.20987791695E+02  0.12700000000E+01 0. -1.
          4   -1    0    0  501    0  0.00000000000E+00 -0.00000000000E+00 -0.18625403094E+03  0.18625836073E+03  0.12700000000E+01 0. -1.
         25    2    1    2    0    0  0.00000000000E+00  0.00000000000E+00 -0.16530469920E+03  0.20724615242E+03  0.12500129646E+03 0.  0.
    9000005    1    3    3    0    0  0.21033389378E+02 -0.26455126724E+02 -0.16980219724E+03  0.17313596791E+03  0.10000000000E+01 0.  0.
    9000005    1    3    3    0    0 -0.21033389378E+02  0.26455126724E+02  0.44974980341E+01  0.34110184510E+02  0.10000000000E+01 0.  0.
<mgrwt>
<rscale>  0 0.12500130E+03</rscale>
<asrwt>0</asrwt>
<pdfrwt beam="2">  1        4 0.46568851E-01 0.12500130E+03</pdfrwt>
<pdfrwt beam="1">  1       -4 0.52426822E-02 0.12500130E+03</pdfrwt>
<totfact> 0.16035469E+03</totfact>
</mgrwt>
</event>
<event>
 5    1  0.1438401E-002  0.1250037E+03  0.7818608E-02  0.1235064E+00
         -4   -1    0    0    0  501 -0.00000000000E+00  0.00000000000E+00  0.10270869897E+04  0.10270877749E+04  0.12700000000E+01 0. -1.
          4   -1    0    0  501    0  0.00000000000E+00 -0.00000000000E+00 -0.36966302805E+01  0.39087050836E+01  0.12700000000E+01 0. -1.
         25    2    1    2    0    0  0.00000000000E+00  0.00000000000E+00  0.10233903594E+04  0.10309964800E+04  0.12500365574E+03 0.  0.
    9000005    1    3    3    0    0  0.29101499973E+02 -0.48965714012E+02  0.29965630109E+03  0.30502366668E+03  0.10000000000E+01 0.  0.
    9000005    1    3    3    0    0 -0.29101499973E+02  0.48965714012E+02  0.72373405835E+03  0.72597281331E+03  0.10000000000E+01 0.  0.
<mgrwt>
<rscale>  0 0.12500366E+03</rscale>
<asrwt>0</asrwt>
<pdfrwt beam="2">  1        4 0.95076513E-03 0.12500366E+03</pdfrwt>
<pdfrwt beam="1">  1       -4 0.25679834E+00 0.12500366E+03</pdfrwt>
<totfact> 0.35060544E+02</totfact>
</mgrwt>
</event>
<event>
 5    1  0.1438401E-002  0.1249960E+03  0.7818608E-02  0.1235076E+00
          4   -1    0    0  501    0  0.00000000000E+00  0.00000000000E+00  0.47536262312E+02  0.47553224230E+02  0.12700000000E+01 0.  1.
         -4   -1    0    0    0  501 -0.00000000000E+00 -0.00000000000E+00 -0.82132279652E+02  0.82142097981E+02  0.12700000000E+01 0.  1.
         25    2    1    2    0    0  0.00000000000E+00  0.00000000000E+00 -0.34596017339E+02  0.12969532221E+03  0.12499596869E+03 0.  0.
    9000005    1    3    3    0    0  0.47433073430E+02  0.35207207493E+01  0.24756081649E+02  0.53629800561E+02  0.10000000000E+01 0.  0.
    9000005    1    3    3    0    0 -0.47433073430E+02 -0.35207207493E+01 -0.59352098988E+02  0.76065521650E+02  0.10000000000E+01 0.  0.
<mgrwt>
<rscale>  0 0.12499597E+03</rscale>
<asrwt>0</asrwt>
<pdfrwt beam="1">  1        4 0.11887413E-01 0.12499597E+03</pdfrwt>
<pdfrwt beam="2">  1       -4 0.20536417E-01 0.12499597E+03</pdfrwt>
<totfact> 0.19582618E+03</totfact>
</mgrwt>
</event>
<event>
 5    1  0.1438401E-002  0.1250108E+03  0.7818608E-02  0.1235052E+00
         -4   -1    0    0    0  501 -0.00000000000E+00  0.00000000000E+00  0.70398981363E+02  0.70410435853E+02  0.12700000000E+01 0. -1.
          4   -1    0    0  501    0  0.00000000000E+00 -0.00000000000E+00 -0.55473673074E+02  0.55488208697E+02  0.12700000000E+01 0. -1.
         25    2    1    2    0    0  0.00000000000E+00  0.00000000000E+00  0.14925308289E+02  0.12589864455E+03  0.12501081502E+03 0.  0.
    9000005    1    3    3    0    0 -0.10560476295E+02 -0.61579141577E+02  0.90266258876E+01  0.63134731423E+02  0.10000000000E+01 0.  0.
    9000005    1    3    3    0    0  0.10560476295E+02  0.61579141577E+02  0.58986824013E+01  0.62763913127E+02  0.10000000000E+01 0.  0.
<mgrwt>
<rscale>  0 0.12501082E+03</rscale>
<asrwt>0</asrwt>
<pdfrwt beam="2">  1        4 0.13871667E-01 0.12501082E+03</pdfrwt>
<pdfrwt beam="1">  1       -4 0.17602994E-01 0.12501082E+03</pdfrwt>
<totfact> 0.19781393E+03</totfact>
</mgrwt>
</event>
<event>
 5    1  0.1438401E-002  0.1249983E+03  0.7818608E-02  0.1235072E+00
          4   -1    0    0  501    0  0.00000000000E+00  0.00000000000E+00  0.11447031703E+03  0.11447736187E+03  0.12700000000E+01 0.  1.
         -4   -1    0    0    0  501 -0.00000000000E+00 -0.00000000000E+00 -0.34103721596E+02  0.34127360383E+02  0.12700000000E+01 0.  1.
         25    2    1    2    0    0  0.00000000000E+00  0.00000000000E+00  0.80366595434E+02  0.14860472225E+03  0.12499829525E+03 0.  0.
    9000005    1    3    3    0    0  0.29484023454E+02 -0.24731004479E+02 -0.18351474004E+02  0.42646299015E+02  0.10000000000E+01 0.  0.
    9000005    1    3    3    0    0 -0.29484023454E+02  0.24731004479E+02  0.98718069439E+02  0.10595842324E+03  0.10000000000E+01 0.  0.
<mgrwt>
<rscale>  0 0.12499830E+03</rscale>
<asrwt>0</asrwt>
<pdfrwt beam="1">  1        4 0.28621415E-01 0.12499830E+03</pdfrwt>
<pdfrwt beam="2">  1       -4 0.85297659E-02 0.12499830E+03</pdfrwt>
<totfact> 0.18608338E+03</totfact>
</mgrwt>
</event>
<event>
 5    1  0.1438401E-002  0.1249999E+03  0.7818608E-02  0.1235069E+00
          4   -1    0    0  501    0  0.00000000000E+00  0.00000000000E+00  0.49225026029E+03  0.49225189858E+03  0.12700000000E+01 0. -1.
         -4   -1    0    0    0  501 -0.00000000000E+00 -0.00000000000E+00 -0.78830058487E+01  0.79846528547E+01  0.12700000000E+01 0. -1.
         25    2    1    2    0    0  0.00000000000E+00  0.00000000000E+00  0.48436725444E+03  0.50023655144E+03  0.12499988086E+03 0.  0.
    9000005    1    3    3    0    0 -0.60914355076E+02 -0.88980624865E+01  0.19917331690E+03  0.20847240665E+03  0.10000000000E+01 0.  0.
    9000005    1    3    3    0    0  0.60914355076E+02  0.88980624865E+01  0.28519393754E+03  0.29176414478E+03  0.10000000000E+01 0.  0.
<mgrwt>
<rscale>  0 0.12499988E+03</rscale>
<asrwt>0</asrwt>
<pdfrwt beam="1">  1        4 0.12307547E+00 0.12499988E+03</pdfrwt>
<pdfrwt beam="2">  1       -4 0.19836622E-02 0.12499988E+03</pdfrwt>
<totfact> 0.87569597E+02</totfact>
</mgrwt>
</event>
<event>
 5    1  0.1438401E-002  0.1249935E+03  0.7818608E-02  0.1235079E+00
         -4   -1    0    0    0  501 -0.00000000000E+00  0.00000000000E+00  0.59227222169E+01  0.60573540807E+01  0.12700000000E+01 0.  1.
          4   -1    0    0  501    0  0.00000000000E+00 -0.00000000000E+00 -0.65192161278E+03  0.65192284981E+03  0.12700000000E+01 0.  1.
         25    2    1    2    0    0  0.00000000000E+00  0.00000000000E+00 -0.64599889056E+03  0.65798020389E+03  0.12499352827E+03 0.  0.
    9000005    1    3    3    0    0  0.13861624817E+02  0.60926418076E+02 -0.31868266291E+03  0.32475192486E+03  0.10000000000E+01 0.  0.
    9000005    1    3    3    0    0 -0.13861624817E+02 -0.60926418076E+02 -0.32731622765E+03  0.33322827903E+03  0.10000000000E+01 0.  0.
<mgrwt>
<rscale>  0 0.12499353E+03</rscale>
<asrwt>0</asrwt>
<pdfrwt beam="2">  1        4 0.16299715E+00 0.12499353E+03</pdfrwt>
<pdfrwt beam="1">  1       -4 0.14976664E-02 0.12499353E+03</pdfrwt>
<totfact> 0.66615016E+02</totfact>
</mgrwt>
</event>
<event>
 5    1  0.1438401E-002  0.1249977E+03  0.7818608E-02  0.1235073E+00
          4   -1    0    0  501    0  0.00000000000E+00  0.00000000000E+00  0.31471807073E+02  0.31497421171E+02  0.12700000000E+01 0. -1.
         -4   -1    0    0    0  501 -0.00000000000E+00 -0.00000000000E+00 -0.12403517806E+03  0.12404167968E+03  0.12700000000E+01 0. -1.
         25    2    1    2    0    0  0.00000000000E+00  0.00000000000E+00 -0.92563370991E+02  0.15553910085E+03  0.12499773695E+03 0.  0.
    9000005    1    3    3    0    0 -0.20104434890E+01 -0.31573334906E+02 -0.11333959901E+03  0.11767659947E+03  0.10000000000E+01 0.  0.
    9000005    1    3    3    0    0  0.20104434890E+01  0.31573334906E+02  0.20776228015E+02  0.37862501379E+02  0.10000000000E+01 0.  0.
<mgrwt>
<rscale>  0 0.12499774E+03</rscale>
<asrwt>0</asrwt>
<pdfrwt beam="1">  1        4 0.78719666E-02 0.12499774E+03</pdfrwt>
<pdfrwt beam="2">  1       -4 0.31012808E-01 0.12499774E+03</pdfrwt>
<totfact> 0.18270695E+03</totfact>
</mgrwt>
</event>
<event>
 5    1  0.1438401E-002  0.1250016E+03  0.7818608E-02  0.1235067E+00
          4   -1    0    0  501    0  0.00000000000E+00  0.00000000000E+00  0.44062914890E+01  0.45856629495E+01  0.12700000000E+01 0. -1.
         -4   -1    0    0    0  501 -0.00000000000E+00 -0.00000000000E+00 -0.86867497851E+03  0.86867590688E+03  0.12700000000E+01 0. -1.
         25    2    1    2    0    0  0.00000000000E+00  0.00000000000E+00 -0.86426868702E+03  0.87326156983E+03  0.12500162388E+03 0.  0.
    9000005    1    3    3    0    0  0.23499265629E+02  0.54083325057E+02 -0.57668381324E+03  0.57969167838E+03  0.10000000000E+01 0.  0.
    9000005    1    3    3    0    0 -0.23499265629E+02 -0.54083325057E+02 -0.28758487379E+03  0.29356989145E+03  0.10000000000E+01 0.  0.
<mgrwt>
<rscale>  0 0.12500162E+03</rscale>
<asrwt>0</asrwt>
<pdfrwt beam="1">  1        4 0.11241133E-02 0.12500162E+03</pdfrwt>
<pdfrwt beam="2">  1       -4 0.21719071E+00 0.12500162E+03</pdfrwt>
<totfact> 0.46353106E+02</totfact>
</mgrwt>
</event>
<event>
 5    1  0.1438401E-002  0.1249999E+03  0.7818608E-02  0.1235069E+00
         -4   -1    0    0    0  501 -0.00000000000E+00  0.00000000000E+00  0.51301496511E+01  0.52850104486E+01  0.12700000000E+01 0.  1.
          4   -1    0    0  501    0  0.00000000000E+00 -0.00000000000E+00 -0.74995166032E+03  0.74995273565E+03  0.12700000000E+01 0.  1.
         25    2    1    2    0    0  0.00000000000E+00  0.00000000000E+00 -0.74482151067E+03  0.75523774610E+03  0.12499988154E+03 0.  0.
    9000005    1    3    3    0    0  0.36526894198E+02 -0.39112064997E+02 -0.56737582091E+03  0.56989498136E+03  0.10000000000E+01 0.  0.
    9000005    1    3    3    0    0 -0.36526894198E+02  0.39112064997E+02 -0.17744568976E+03  0.18534276474E+03  0.10000000000E+01 0.  0.
<mgrwt>
<rscale>  0 0.12499988E+03</rscale>
<asrwt>0</asrwt>
<pdfrwt beam="2">  1        4 0.18750704E+00 0.12499988E+03</pdfrwt>
<pdfrwt beam="1">  1       -4 0.13020320E-02 0.12499988E+03</pdfrwt>
<totfact> 0.56572597E+02</totfact>
</mgrwt>
</event>
<event>
 5    1  0.1438401E-002  0.1250010E+03  0.7818608E-02  0.1235068E+00
         -4   -1    0    0    0  501 -0.00000000000E+00  0.00000000000E+00  0.26028538274E+02  0.26059503155E+02  0.12700000000E+01 0. -1.
          4   -1    0    0  501    0  0.00000000000E+00 -0.00000000000E+00 -0.14995512480E+03  0.14996050265E+03  0.12700000000E+01 0. -1.
         25    2    1    2    0    0  0.00000000000E+00  0.00000000000E+00 -0.12392658653E+03  0.17602000580E+03  0.12500097437E+03 0.  0.
    9000005    1    3    3    0    0 -0.36745966925E+02 -0.28819354986E+02 -0.34871230771E+01  0.46839954467E+02  0.10000000000E+01 0.  0.
    9000005    1    3    3    0    0  0.36745966925E+02  0.28819354986E+02 -0.12043946345E+03  0.12918005134E+03  0.10000000000E+01 0.  0.
<mgrwt>
<rscale>  0 0.12500097E+03</rscale>
<asrwt>0</asrwt>
<pdfrwt beam="2">  1        4 0.37493322E-01 0.12500097E+03</pdfrwt>
<pdfrwt beam="1">  1       -4 0.65116778E-02 0.12500097E+03</pdfrwt>
<totfact> 0.17328497E+03</totfact>
</mgrwt>
</event>
<event>
 5    1  0.1438401E-002  0.1250026E+03  0.7818608E-02  0.1235065E+00
         -4   -1    0    0    0  501 -0.00000000000E+00  0.00000000000E+00  0.84581710155E+01  0.85529852641E+01  0.12700000000E+01 0. -1.
          4   -1    0    0  501    0  0.00000000000E+00 -0.00000000000E+00 -0.45918119354E+03  0.45918294981E+03  0.12700000000E+01 0. -1.
         25    2    1    2    0    0  0.00000000000E+00  0.00000000000E+00 -0.45072302252E+03  0.46773593508E+03  0.12500264769E+03 0.  0.
    9000005    1    3    3    0    0 -0.26461401750E+02 -0.14790346086E+02 -0.42984560876E+03  0.43091438533E+03  0.10000000000E+01 0.  0.
    9000005    1    3    3    0    0  0.26461401750E+02  0.14790346086E+02 -0.20877413764E+02  0.36821549742E+02  0.10000000000E+01 0.  0.
<mgrwt>
<rscale>  0 0.12500265E+03</rscale>
<asrwt>0</asrwt>
<pdfrwt beam="2">  1        4 0.11480729E+00 0.12500265E+03</pdfrwt>
<pdfrwt beam="1">  1       -4 0.21266156E-02 0.12500265E+03</pdfrwt>
<totfact> 0.92912161E+02</totfact>
</mgrwt>
</event>
<event>
 5    1  0.1438401E-002  0.1249936E+03  0.7818608E-02  0.1235079E+00
         -4   -1    0    0    0  501 -0.00000000000E+00  0.00000000000E+00  0.18890242567E+02  0.18932885787E+02  0.12700000000E+01 0. -1.
          4   -1    0    0  501    0  0.00000000000E+00 -0.00000000000E+00 -0.20648776510E+03  0.20649167062E+03  0.12700000000E+01 0. -1.
         25    2    1    2    0    0  0.00000000000E+00  0.00000000000E+00 -0.18759752254E+03  0.22542455641E+03  0.12499360052E+03 0.  0.
    9000005    1    3    3    0    0 -0.21925561522E+02  0.46153597498E+02 -0.28924152898E+02  0.58723857426E+02  0.10000000000E+01 0.  0.
    9000005    1    3    3    0    0  0.21925561522E+02 -0.46153597498E+02 -0.15867336964E+03  0.16670069899E+03  0.10000000000E+01 0.  0.
<mgrwt>
<rscale>  0 0.12499360E+03</rscale>
<asrwt>0</asrwt>
<pdfrwt beam="2">  1        4 0.51627753E-01 0.12499360E+03</pdfrwt>
<pdfrwt beam="1">  1       -4 0.47283799E-02 0.12499360E+03</pdfrwt>
<totfact> 0.15354459E+03</totfact>
</mgrwt>
</event>
<event>
 5    1  0.1438401E-002  0.1249967E+03  0.7818608E-02  0.1235074E+00
         -4   -1    0    0    0  501 -0.00000000000E+00  0.00000000000E+00  0.20528110617E+02  0.20567358253E+02  0.12700000000E+01 0.  1.
          4   -1    0    0  501    0  0.00000000000E+00 -0.00000000000E+00 -0.19005463524E+03  0.19005887845E+03  0.12700000000E+01 0.  1.
         25    2    1    2    0    0  0.00000000000E+00  0.00000000000E+00 -0.16952652463E+03  0.21062623670E+03  0.12499667610E+03 0.  0.
    9000005    1    3    3    0    0 -0.42903449736E+01  0.24369113075E+02 -0.18145635743E+03  0.18313839134E+03  0.10000000000E+01 0.  0.
    9000005    1    3    3    0    0  0.42903449736E+01 -0.24369113075E+02  0.11929832800E+02  0.27487845363E+02  0.10000000000E+01 0.  0.
<mgrwt>
<rscale>  0 0.12499668E+03</rscale>
<asrwt>0</asrwt>
<pdfrwt beam="2">  1        4 0.47519090E-01 0.12499668E+03</pdfrwt>
<pdfrwt beam="1">  1       -4 0.51374646E-02 0.12499668E+03</pdfrwt>
<totfact> 0.15906434E+03</totfact>
</mgrwt>
</event>
<event>
 5    1  0.1438401E-002  0.1249949E+03  0.7818608E-02  0.1235077E+00
          4   -1    0    0  501    0  0.00000000000E+00  0.00000000000E+00  0.80302742645E+02  0.80312784638E+02  0.12700000000E+01 0.  1.
         -4   -1    0    0    0  501 -0.00000000000E+00 -0.00000000000E+00 -0.48618672110E+02  0.48635256530E+02  0.12700000000E+01 0.  1.
         25    2    1    2    0    0  0.00000000000E+00  0.00000000000E+00  0.31684070535E+02  0.12894804117E+03  0.12499486788E+03 0.  0.
    9000005    1    3    3    0    0 -0.26076889286E+02  0.20187520858E+02 -0.38915763584E+02  0.51019376796E+02  0.10000000000E+01 0.  0.
    9000005    1    3    3    0    0  0.26076889286E+02 -0.20187520858E+02  0.70599834120E+02  0.77928664373E+02  0.10000000000E+01 0.  0.
<mgrwt>
<rscale>  0 0.12499487E+03</rscale>
<asrwt>0</asrwt>
<pdfrwt beam="1">  1        4 0.20079014E-01 0.12499487E+03</pdfrwt>
<pdfrwt beam="2">  1       -4 0.12157996E-01 0.12499487E+03</pdfrwt>
<totfact> 0.19623456E+03</totfact>
</mgrwt>
</event>
<event>
 5    1  0.1438401E-002  0.1249953E+03  0.7818608E-02  0.1235077E+00
          4   -1    0    0  501    0  0.00000000000E+00  0.00000000000E+00  0.21004135738E+03  0.21004519683E+03  0.12700000000E+01 0. -1.
         -4   -1    0    0    0  501 -0.00000000000E+00 -0.00000000000E+00 -0.18570441290E+02  0.18613817172E+02  0.12700000000E+01 0. -1.
         25    2    1    2    0    0  0.00000000000E+00  0.00000000000E+00  0.19147091609E+03  0.22865901400E+03  0.12499533181E+03 0.  0.
    9000005    1    3    3    0    0  0.23221964952E+02  0.36041929941E+02  0.12572308678E+02  0.44691647045E+02  0.10000000000E+01 0.  0.
    9000005    1    3    3    0    0 -0.23221964952E+02 -0.36041929941E+02  0.17889860742E+03  0.18396736696E+03  0.10000000000E+01 0.  0.
<mgrwt>
<rscale>  0 0.12499533E+03</rscale>
<asrwt>0</asrwt>
<pdfrwt beam="1">  1        4 0.52516240E-01 0.12499533E+03</pdfrwt>
<pdfrwt beam="2">  1       -4 0.46485123E-02 0.12499533E+03</pdfrwt>
<totfact> 0.15236987E+03</totfact>
</mgrwt>
</event>
<event>
 5    1  0.1438401E-002  0.1250000E+03  0.7818608E-02  0.1235069E+00
         -4   -1    0    0    0  501 -0.00000000000E+00  0.00000000000E+00  0.30450024413E+02  0.30476497285E+02  0.12700000000E+01 0. -1.
          4   -1    0    0  501    0  0.00000000000E+00 -0.00000000000E+00 -0.12819856791E+03  0.12820485839E+03  0.12700000000E+01 0. -1.
         25    2    1    2    0    0  0.00000000000E+00  0.00000000000E+00 -0.97748543497E+02  0.15868135567E+03  0.12499997953E+03 0.  0.
    9000005    1    3    3    0    0  0.21262727242E+02  0.29037871549E+02 -0.11372753272E+03  0.11929062516E+03  0.10000000000E+01 0.  0.
    9000005    1    3    3    0    0 -0.21262727242E+02 -0.29037871549E+02  0.15978989218E+02  0.39390730512E+02  0.10000000000E+01 0.  0.
<mgrwt>
<rscale>  0 0.12499998E+03</rscale>
<asrwt>0</asrwt>
<pdfrwt beam="2">  1        4 0.32053736E-01 0.12499998E+03</pdfrwt>
<pdfrwt beam="1">  1       -4 0.76166018E-02 0.12499998E+03</pdfrwt>
<totfact> 0.18119997E+03</totfact>
</mgrwt>
</event>
<event>
 5    1  0.1438401E-002  0.1249999E+03  0.7818608E-02  0.1235070E+00
         -4   -1    0    0    0  501 -0.00000000000E+00  0.00000000000E+00  0.36721227726E+03  0.36721447340E+03  0.12700000000E+01 0.  1.
          4   -1    0    0  501    0  0.00000000000E+00 -0.00000000000E+00 -0.10597413133E+02  0.10673240609E+02  0.12700000000E+01 0.  1.
         25    2    1    2    0    0  0.00000000000E+00  0.00000000000E+00  0.35661486413E+03  0.37788771401E+03  0.12499985231E+03 0.  0.
    9000005    1    3    3    0    0  0.44371778692E+02  0.34411973931E+01  0.45684930444E+02  0.63787220142E+02  0.10000000000E+01 0.  0.
    9000005    1    3    3    0    0 -0.44371778692E+02 -0.34411973931E+01  0.31092993369E+03  0.31410049386E+03  0.10000000000E+01 0.  0.
<mgrwt>
<rscale>  0 0.12499985E+03</rscale>
<asrwt>0</asrwt>
<pdfrwt beam="2">  1        4 0.26591064E-02 0.12499985E+03</pdfrwt>
<pdfrwt beam="1">  1       -4 0.91812815E-01 0.12499985E+03</pdfrwt>
<totfact> 0.11039357E+03</totfact>
</mgrwt>
</event>
<event>
 5    1  0.1438401E-002  0.1250001E+03  0.7818608E-02  0.1235069E+00
          4   -1    0    0  501    0  0.00000000000E+00  0.00000000000E+00  0.38086295569E+03  0.38086507312E+03  0.12700000000E+01 0.  1.
         -4   -1    0    0    0  501 -0.00000000000E+00 -0.00000000000E+00 -0.10214869353E+02  0.10293515236E+02  0.12700000000E+01 0.  1.
         25    2    1    2    0    0  0.00000000000E+00  0.00000000000E+00  0.37064808634E+03  0.39115858835E+03  0.12500014933E+03 0.  0.
    9000005    1    3    3    0    0  0.42933327579E+02  0.44788885890E+02  0.20872969364E+03  0.21775766329E+03  0.10000000000E+01 0.  0.
    9000005    1    3    3    0    0 -0.42933327579E+02 -0.44788885890E+02  0.16191839270E+03  0.17340092506E+03  0.10000000000E+01 0.  0.
<mgrwt>
<rscale>  0 0.12500015E+03</rscale>
<asrwt>0</asrwt>
<pdfrwt beam="1">  1        4 0.95225837E-01 0.12500015E+03</pdfrwt>
<pdfrwt beam="2">  1       -4 0.25638127E-02 0.12500015E+03</pdfrwt>
<totfact> 0.10753575E+03</totfact>
</mgrwt>
</event>
<event>
 5    1  0.1438401E-002  0.1249993E+03  0.7818608E-02  0.1235070E+00
          4   -1    0    0  501    0  0.00000000000E+00  0.00000000000E+00  0.44005667426E+03  0.44005850686E+03  0.12700000000E+01 0. -1.
         -4   -1    0    0    0  501 -0.00000000000E+00 -0.00000000000E+00 -0.88293177453E+01  0.89201878819E+01  0.12700000000E+01 0. -1.
         25    2    1    2    0    0  0.00000000000E+00  0.00000000000E+00  0.43122735651E+03  0.44897869474E+03  0.12499934130E+03 0.  0.
    9000005    1    3    3    0    0  0.96871062521E+01 -0.33777377715E+02  0.40122772901E+03  0.40276474746E+03  0.10000000000E+01 0.  0.
    9000005    1    3    3    0    0 -0.96871062521E+01  0.33777377715E+02  0.29999627507E+02  0.46213947282E+02  0.10000000000E+01 0.  0.
<mgrwt>
<rscale>  0 0.12499934E+03</rscale>
<asrwt>0</asrwt>
<pdfrwt beam="1">  1        4 0.11002576E+00 0.12499934E+03</pdfrwt>
<pdfrwt beam="2">  1       -4 0.22189171E-02 0.12499934E+03</pdfrwt>
<totfact> 0.96202041E+02</totfact>
</mgrwt>
</event>
<event>
 5    1  0.1438401E-002  0.1249982E+03  0.7818608E-02  0.1235072E+00
          4   -1    0    0  501    0  0.00000000000E+00  0.00000000000E+00  0.36579654583E+02  0.36601694352E+02  0.12700000000E+01 0.  1.
         -4   -1    0    0    0  501 -0.00000000000E+00 -0.00000000000E+00 -0.10672645462E+03  0.10673401059E+03  0.12700000000E+01 0.  1.
         25    2    1    2    0    0  0.00000000000E+00  0.00000000000E+00 -0.70146800038E+02  0.14333570494E+03  0.12499820301E+03 0.  0.
    9000005    1    3    3    0    0 -0.17027441961E+02  0.38097232878E+02  0.18267415667E+02  0.45563487661E+02  0.10000000000E+01 0.  0.
    9000005    1    3    3    0    0  0.17027441961E+02 -0.38097232878E+02 -0.88414215704E+02  0.97772217277E+02  0.10000000000E+01 0.  0.
<mgrwt>
<rscale>  0 0.12499820E+03</rscale>
<asrwt>0</asrwt>
<pdfrwt beam="1">  1        4 0.91486134E-02 0.12499820E+03</pdfrwt>
<pdfrwt beam="2">  1       -4 0.26685312E-01 0.12499820E+03</pdfrwt>
<totfact> 0.18871764E+03</totfact>
</mgrwt>
</event>
<event>
 5    1  0.1438401E-002  0.1249960E+03  0.7818608E-02  0.1235076E+00
          4   -1    0    0  501    0  0.00000000000E+00  0.00000000000E+00  0.21210250070E+02  0.21248237763E+02  0.12700000000E+01 0. -1.
         -4   -1    0    0    0  501 -0.00000000000E+00 -0.00000000000E+00 -0.18395123771E+03  0.18395562170E+03  0.12700000000E+01 0. -1.
         25    2    1    2    0    0  0.00000000000E+00  0.00000000000E+00 -0.16274098764E+03  0.20520385946E+03  0.12499597946E+03 0.  0.
    9000005    1    3    3    0    0  0.11184356229E+02  0.29851358194E+01  0.19442758040E+02  0.22649982347E+02  0.10000000000E+01 0.  0.
    9000005    1    3    3    0    0 -0.11184356229E+02 -0.29851358194E+01 -0.18218374568E+03  0.18255387711E+03  0.10000000000E+01 0.  0.
<mgrwt>
<rscale>  0 0.12499598E+03</rscale>
<asrwt>0</asrwt>
<pdfrwt beam="1">  1        4 0.53078595E-02 0.12499598E+03</pdfrwt>
<pdfrwt beam="2">  1       -4 0.45993101E-01 0.12499598E+03</pdfrwt>
<totfact> 0.16117268E+03</totfact>
</mgrwt>
</event>
<event>
 5    1  0.1438401E-002  0.1250109E+03  0.7818608E-02  0.1235052E+00
          4   -1    0    0  501    0  0.00000000000E+00  0.00000000000E+00  0.57905325136E+02  0.57919250506E+02  0.12700000000E+01 0. -1.
         -4   -1    0    0    0  501 -0.00000000000E+00 -0.00000000000E+00 -0.67443034688E+02  0.67454991127E+02  0.12700000000E+01 0. -1.
         25    2    1    2    0    0  0.00000000000E+00  0.00000000000E+00 -0.95377095515E+01  0.12537424163E+03  0.12501092977E+03 0.  0.
    9000005    1    3    3    0    0  0.27692234089E+02  0.12395916409E+02  0.50028886516E+02  0.58518442037E+02  0.10000000000E+01 0.  0.
    9000005    1    3    3    0    0 -0.27692234089E+02 -0.12395916409E+02 -0.59566596067E+02  0.66855799595E+02  0.10000000000E+01 0.  0.
<mgrwt>
<rscale>  0 0.12501093E+03</rscale>
<asrwt>0</asrwt>
<pdfrwt beam="1">  1        4 0.14479567E-01 0.12501093E+03</pdfrwt>
<pdfrwt beam="2">  1       -4 0.16863994E-01 0.12501093E+03</pdfrwt>
<totfact> 0.19809707E+03</totfact>
</mgrwt>
</event>
<event>
 5    1  0.1438401E-002  0.1250255E+03  0.7818608E-02  0.1235029E+00
         -4   -1    0    0    0  501 -0.00000000000E+00  0.00000000000E+00  0.10662233605E+03  0.10662989939E+03  0.12700000000E+01 0.  1.
          4   -1    0    0  501    0  0.00000000000E+00 -0.00000000000E+00 -0.36631407533E+02  0.36653416182E+02  0.12700000000E+01 0.  1.
         25    2    1    2    0    0  0.00000000000E+00  0.00000000000E+00  0.69990928516E+02  0.14328331558E+03  0.12502551119E+03 0.  0.
    9000005    1    3    3    0    0 -0.43363385040E+02 -0.28398118728E+02  0.75024799387E+02  0.91195157945E+02  0.10000000000E+01 0.  0.
    9000005    1    3    3    0    0  0.43363385040E+02  0.28398118728E+02 -0.50338708708E+01  0.52088157631E+02  0.10000000000E+01 0.  0.
<mgrwt>
<rscale>  0 0.12502551E+03</rscale>
<asrwt>0</asrwt>
<pdfrwt beam="2">  1        4 0.91615485E-02 0.12502551E+03</pdfrwt>
<pdfrwt beam="1">  1       -4 0.26659280E-01 0.12502551E+03</pdfrwt>
<totfact> 0.18862396E+03</totfact>
</mgrwt>
</event>
<event>
 5    1  0.1438401E-002  0.1250182E+03  0.7818608E-02  0.1235041E+00
          4   -1    0    0  501    0  0.00000000000E+00  0.00000000000E+00  0.16950150890E+03  0.16950626660E+03  0.12700000000E+01 0. -1.
         -4   -1    0    0    0  501 -0.00000000000E+00 -0.00000000000E+00 -0.23029646924E+02  0.23064638247E+02  0.12700000000E+01 0. -1.
         25    2    1    2    0    0  0.00000000000E+00  0.00000000000E+00  0.14647186197E+03  0.19257090485E+03  0.12501818686E+03 0.  0.
    9000005    1    3    3    0    0  0.29195442764E+02 -0.50278273821E+02  0.10856685166E+03  0.12315859684E+03  0.10000000000E+01 0.  0.
    9000005    1    3    3    0    0 -0.29195442764E+02  0.50278273821E+02  0.37905010316E+02  0.69412308013E+02  0.10000000000E+01 0.  0.
<mgrwt>
<rscale>  0 0.12501819E+03</rscale>
<asrwt>0</asrwt>
<pdfrwt beam="1">  1        4 0.42380346E-01 0.12501819E+03</pdfrwt>
<pdfrwt beam="2">  1       -4 0.57623804E-02 0.12501819E+03</pdfrwt>
<totfact> 0.16616906E+03</totfact>
</mgrwt>
</event>
<event>
 5    1  0.1438401E-002  0.1249787E+03  0.7818608E-02  0.1235103E+00
          4   -1    0    0  501    0  0.00000000000E+00  0.00000000000E+00  0.10962283964E+03  0.10963019598E+03  0.12700000000E+01 0. -1.
         -4   -1    0    0    0  501 -0.00000000000E+00 -0.00000000000E+00 -0.35601503714E+02  0.35624148645E+02  0.12700000000E+01 0. -1.
         25    2    1    2    0    0  0.00000000000E+00  0.00000000000E+00  0.74021335929E+02  0.14525434463E+03  0.12497866402E+03 0.  0.
    9000005    1    3    3    0    0 -0.61416043093E+02 -0.81546811619E+01  0.46415959543E+02  0.77420090896E+02  0.10000000000E+01 0.  0.
    9000005    1    3    3    0    0  0.61416043093E+02  0.81546811619E+01  0.27605376386E+02  0.67834253733E+02  0.10000000000E+01 0.  0.
<mgrwt>
<rscale>  0 0.12497866E+03</rscale>
<asrwt>0</asrwt>
<pdfrwt beam="1">  1        4 0.27409460E-01 0.12497866E+03</pdfrwt>
<pdfrwt beam="2">  1       -4 0.89041261E-02 0.12497866E+03</pdfrwt>
<totfact> 0.18783942E+03</totfact>
</mgrwt>
</event>
<event>
 5    1  0.1438401E-002  0.1250002E+03  0.7818608E-02  0.1235069E+00
         -4   -1    0    0    0  501 -0.00000000000E+00  0.00000000000E+00  0.24685495061E+03  0.24685821749E+03  0.12700000000E+01 0. -1.
          4   -1    0    0  501    0  0.00000000000E+00 -0.00000000000E+00 -0.15795255841E+02  0.15846230059E+02  0.12700000000E+01 0. -1.
         25    2    1    2    0    0  0.00000000000E+00  0.00000000000E+00  0.23105969477E+03  0.26270444754E+03  0.12500017685E+03 0.  0.
    9000005    1    3    3    0    0 -0.37345010601E+02 -0.10283898314E+02  0.21859243345E+03  0.22200013590E+03  0.10000000000E+01 0.  0.
    9000005    1    3    3    0    0  0.37345010601E+02  0.10283898314E+02  0.12467261323E+02  0.40704311641E+02  0.10000000000E+01 0.  0.
<mgrwt>
<rscale>  0 0.12500018E+03</rscale>
<asrwt>0</asrwt>
<pdfrwt beam="2">  1        4 0.39555941E-02 0.12500018E+03</pdfrwt>
<pdfrwt beam="1">  1       -4 0.61720518E-01 0.12500018E+03</pdfrwt>
<totfact> 0.14084661E+03</totfact>
</mgrwt>
</event>
<event>
 5    1  0.1438401E-002  0.1250083E+03  0.7818608E-02  0.1235056E+00
         -4   -1    0    0    0  501 -0.00000000000E+00  0.00000000000E+00  0.63929744436E+01  0.65179001401E+01  0.12700000000E+01 0. -1.
          4   -1    0    0  501    0  0.00000000000E+00 -0.00000000000E+00 -0.60506487468E+03  0.60506620751E+03  0.12700000000E+01 0. -1.
         25    2    1    2    0    0  0.00000000000E+00  0.00000000000E+00 -0.59867190024E+03  0.61158410765E+03  0.12500830612E+03 0.  0.
    9000005    1    3    3    0    0  0.31792165854E+02 -0.16838485565E+02 -0.49323444404E+02  0.61057993528E+02  0.10000000000E+01 0.  0.
    9000005    1    3    3    0    0 -0.31792165854E+02  0.16838485565E+02 -0.54934845583E+03  0.55052611412E+03  0.10000000000E+01 0.  0.
<mgrwt>
<rscale>  0 0.12500831E+03</rscale>
<asrwt>0</asrwt>
<pdfrwt beam="2">  1        4 0.15128181E+00 0.12500831E+03</pdfrwt>
<pdfrwt beam="1">  1       -4 0.16140280E-02 0.12500831E+03</pdfrwt>
<totfact> 0.72050853E+02</totfact>
</mgrwt>
</event>
<event>
 5    1  0.1438401E-002  0.1249975E+03  0.7818608E-02  0.1235073E+00
         -4   -1    0    0    0  501 -0.00000000000E+00  0.00000000000E+00  0.13202357757E+02  0.13263300884E+02  0.12700000000E+01 0.  1.
          4   -1    0    0  501    0  0.00000000000E+00 -0.00000000000E+00 -0.29511991881E+03  0.29512265142E+03  0.12700000000E+01 0.  1.
         25    2    1    2    0    0  0.00000000000E+00  0.00000000000E+00 -0.28191756105E+03  0.30838595230E+03  0.12499753736E+03 0.  0.
    9000005    1    3    3    0    0 -0.33331162706E+02 -0.94716002484E+00 -0.27134949899E+03  0.27339241782E+03  0.10000000000E+01 0.  0.
    9000005    1    3    3    0    0  0.33331162706E+02  0.94716002484E+00 -0.10568062058E+02  0.34993534475E+02  0.10000000000E+01 0.  0.
<mgrwt>
<rscale>  0 0.12499754E+03</rscale>
<asrwt>0</asrwt>
<pdfrwt beam="2">  1        4 0.73787918E-01 0.12499754E+03</pdfrwt>
<pdfrwt beam="1">  1       -4 0.33085499E-02 0.12499754E+03</pdfrwt>
<totfact> 0.12739957E+03</totfact>
</mgrwt>
</event>
<event>
 5    1  0.1438401E-002  0.1250011E+03  0.7818608E-02  0.1235068E+00
         -4   -1    0    0    0  501 -0.00000000000E+00  0.00000000000E+00  0.57413306867E+02  0.57427351545E+02  0.12700000000E+01 0. -1.
          4   -1    0    0  501    0  0.00000000000E+00 -0.00000000000E+00 -0.68010283435E+02  0.68022140167E+02  0.12700000000E+01 0. -1.
         25    2    1    2    0    0  0.00000000000E+00  0.00000000000E+00 -0.10596976567E+02  0.12544949171E+03  0.12500111623E+03 0.  0.
    9000005    1    3    3    0    0 -0.17083524164E+02 -0.49490027055E+02 -0.39541402095E+02  0.65617315210E+02  0.10000000000E+01 0.  0.
    9000005    1    3    3    0    0  0.17083524164E+02  0.49490027055E+02  0.28944425528E+02  0.59832176501E+02  0.10000000000E+01 0.  0.
<mgrwt>
<rscale>  0 0.12500112E+03</rscale>
<asrwt>0</asrwt>
<pdfrwt beam="2">  1        4 0.17005809E-01 0.12500112E+03</pdfrwt>
<pdfrwt beam="1">  1       -4 0.14356564E-01 0.12500112E+03</pdfrwt>
<totfact> 0.19810181E+03</totfact>
</mgrwt>
</event>
<event>
 5    1  0.1438401E-002  0.1249944E+03  0.7818608E-02  0.1235078E+00
          4   -1    0    0  501    0  0.00000000000E+00  0.00000000000E+00  0.14960763494E+02  0.15014571067E+02  0.12700000000E+01 0. -1.
         -4   -1    0    0    0  501 -0.00000000000E+00 -0.00000000000E+00 -0.26055240652E+03  0.26055550166E+03  0.12700000000E+01 0. -1.
         25    2    1    2    0    0  0.00000000000E+00  0.00000000000E+00 -0.24559164303E+03  0.27557007273E+03  0.12499443930E+03 0.  0.
    9000005    1    3    3    0    0  0.13487650241E+02  0.45059823968E+02 -0.32093527291E+02  0.56949968735E+02  0.10000000000E+01 0.  0.
    9000005    1    3    3    0    0 -0.13487650241E+02 -0.45059823968E+02 -0.21349811574E+03  0.21862010399E+03  0.10000000000E+01 0.  0.
<mgrwt>
<rscale>  0 0.12499444E+03</rscale>
<asrwt>0</asrwt>
<pdfrwt beam="1">  1        4 0.37473046E-02 0.12499444E+03</pdfrwt>
<pdfrwt beam="2">  1       -4 0.65145200E-01 0.12499444E+03</pdfrwt>
<totfact> 0.13686221E+03</totfact>
</mgrwt>
</event>
<event>
 5    1  0.1438401E-002  0.1249990E+03  0.7818608E-02  0.1235071E+00
          4   -1    0    0  501    0  0.00000000000E+00  0.00000000000E+00  0.18414537254E+03  0.18414975191E+03  0.12700000000E+01 0. -1.
         -4   -1    0    0    0  501 -0.00000000000E+00 -0.00000000000E+00 -0.21188871680E+02  0.21226897632E+02  0.12700000000E+01 0. -1.
         25    2    1    2    0    0  0.00000000000E+00  0.00000000000E+00  0.16295650086E+03  0.20537664954E+03  0.12499898801E+03 0.  0.
    9000005    1    3    3    0    0 -0.58947881945E+00 -0.47427469498E+02  0.14832892633E+03  0.15573112321E+03  0.10000000000E+01 0.  0.
    9000005    1    3    3    0    0  0.58947881945E+00  0.47427469498E+02  0.14627574525E+02  0.49645526332E+02  0.10000000000E+01 0.  0.
<mgrwt>
<rscale>  0 0.12499899E+03</rscale>
<asrwt>0</asrwt>
<pdfrwt beam="1">  1        4 0.46041643E-01 0.12499899E+03</pdfrwt>
<pdfrwt beam="2">  1       -4 0.53025187E-02 0.12499899E+03</pdfrwt>
<totfact> 0.16109369E+03</totfact>
</mgrwt>
</event>
<event>
 5    1  0.1438401E-002  0.1249984E+03  0.7818608E-02  0.1235072E+00
          4   -1    0    0  501    0  0.00000000000E+00  0.00000000000E+00  0.15802737207E+02  0.15853687370E+02  0.12700000000E+01 0.  1.
         -4   -1    0    0    0  501 -0.00000000000E+00 -0.00000000000E+00 -0.24673124703E+03  0.24673451555E+03  0.12700000000E+01 0.  1.
         25    2    1    2    0    0  0.00000000000E+00  0.00000000000E+00 -0.23092850983E+03  0.26258820292E+03  0.12499835063E+03 0.  0.
    9000005    1    3    3    0    0  0.49957394377E+02 -0.77311933446E+01 -0.38288838063E+02  0.63423558113E+02  0.10000000000E+01 0.  0.
    9000005    1    3    3    0    0 -0.49957394377E+02  0.77311933446E+01 -0.19263967176E+03  0.19916464481E+03  0.10000000000E+01 0.  0.
<mgrwt>
<rscale>  0 0.12499835E+03</rscale>
<asrwt>0</asrwt>
<pdfrwt beam="1">  1        4 0.39574624E-02 0.12499835E+03</pdfrwt>
<pdfrwt beam="2">  1       -4 0.61689577E-01 0.12499835E+03</pdfrwt>
<totfact> 0.14088952E+03</totfact>
</mgrwt>
</event>
<event>
 5    1  0.1438401E-002  0.1249988E+03  0.7818608E-02  0.1235071E+00
         -4   -1    0    0    0  501 -0.00000000000E+00  0.00000000000E+00  0.18460539974E+02  0.18504173478E+02  0.12700000000E+01 0.  1.
          4   -1    0    0  501    0  0.00000000000E+00 -0.00000000000E+00 -0.21130074863E+03  0.21130456520E+03  0.12700000000E+01 0.  1.
         25    2    1    2    0    0  0.00000000000E+00  0.00000000000E+00 -0.19284020866E+03  0.22980873868E+03  0.12499884118E+03 0.  0.
    9000005    1    3    3    0    0  0.60929841057E+02 -0.11980505305E+02 -0.83524519198E+02  0.10408325200E+03  0.10000000000E+01 0.  0.
    9000005    1    3    3    0    0 -0.60929841057E+02  0.11980505305E+02 -0.10931568946E+03  0.12572548668E+03  0.10000000000E+01 0.  0.
<mgrwt>
<rscale>  0 0.12499884E+03</rscale>
<asrwt>0</asrwt>
<pdfrwt beam="2">  1        4 0.52831111E-01 0.12499884E+03</pdfrwt>
<pdfrwt beam="1">  1       -4 0.46210669E-02 0.12499884E+03</pdfrwt>
<totfact> 0.15194555E+03</totfact>
</mgrwt>
</event>
<event>
 5    1  0.1438401E-002  0.1249974E+03  0.7818608E-02  0.1235073E+00
         -4   -1    0    0    0  501 -0.00000000000E+00  0.00000000000E+00  0.41556511651E+03  0.41556705711E+03  0.12700000000E+01 0.  1.
          4   -1    0    0  501    0  0.00000000000E+00 -0.00000000000E+00 -0.93545932914E+01  0.94404086589E+01  0.12700000000E+01 0.  1.
         25    2    1    2    0    0  0.00000000000E+00  0.00000000000E+00  0.40621052321E+03  0.42500746577E+03  0.12499742714E+03 0.  0.
    9000005    1    3    3    0    0 -0.59218591639E+02  0.14477463731E+02  0.24980609528E+03  0.25713911370E+03  0.10000000000E+01 0.  0.
    9000005    1    3    3    0    0  0.59218591639E+02 -0.14477463731E+02  0.15640442793E+03  0.16786835207E+03  0.10000000000E+01 0.  0.
<mgrwt>
<rscale>  0 0.12499743E+03</rscale>
<asrwt>0</asrwt>
<pdfrwt beam="2">  1        4 0.23496180E-02 0.12499743E+03</pdfrwt>
<pdfrwt beam="1">  1       -4 0.10390224E+00 0.12499743E+03</pdfrwt>
<totfact> 0.10068844E+03</totfact>
</mgrwt>
</event>
<event>
 5    1  0.1438401E-002  0.1250027E+03  0.7818608E-02  0.1235065E+00
         -4   -1    0    0    0  501 -0.00000000000E+00  0.00000000000E+00  0.20523112992E+03  0.20523505936E+03  0.12700000000E+01 0.  1.
          4   -1    0    0  501    0  0.00000000000E+00 -0.00000000000E+00 -0.19008953094E+02  0.19051330603E+02  0.12700000000E+01 0.  1.
         25    2    1    2    0    0  0.00000000000E+00  0.00000000000E+00  0.18622217683E+03  0.22428638996E+03  0.12500274228E+03 0.  0.
    9000005    1    3    3    0    0 -0.32294479223E+02  0.17821653259E+02  0.18362529550E+03  0.18729600599E+03  0.10000000000E+01 0.  0.
    9000005    1    3    3    0    0  0.32294479223E+02 -0.17821653259E+02  0.25968813251E+01  0.36990383964E+02  0.10000000000E+01 0.  0.
<mgrwt>
<rscale>  0 0.12500274E+03</rscale>
<asrwt>0</asrwt>
<pdfrwt beam="2">  1        4 0.47580267E-02 0.12500274E+03</pdfrwt>
<pdfrwt beam="1">  1       -4 0.51313570E-01 0.12500274E+03</pdfrwt>
<totfact> 0.15392670E+03</totfact>
</mgrwt>
</event>
<event>
 5    1  0.1438401E-002  0.1250012E+03  0.7818608E-02  0.1235067E+00
          4   -1    0    0  501    0  0.00000000000E+00  0.00000000000E+00  0.32274862624E+03  0.32275112493E+03  0.12700000000E+01 0.  1.
         -4   -1    0    0    0  501 -0.00000000000E+00 -0.00000000000E+00 -0.12067434173E+02  0.12134078766E+02  0.12700000000E+01 0.  1.
         25    2    1    2    0    0  0.00000000000E+00  0.00000000000E+00  0.31068119207E+03  0.33488520369E+03  0.12500118618E+03 0.  0.
    9000005    1    3    3    0    0  0.21083456863E+02 -0.58023987877E+02  0.12936220169E+03  0.14334181019E+03  0.10000000000E+01 0.  0.
    9000005    1    3    3    0    0 -0.21083456863E+02  0.58023987877E+02  0.18131899038E+03  0.19154339350E+03  0.10000000000E+01 0.  0.
<mgrwt>
<rscale>  0 0.12500119E+03</rscale>
<asrwt>0</asrwt>
<pdfrwt beam="1">  1        4 0.80695801E-01 0.12500119E+03</pdfrwt>
<pdfrwt beam="2">  1       -4 0.30255014E-02 0.12500119E+03</pdfrwt>
<totfact> 0.12046417E+03</totfact>
</mgrwt>
</event>
<event>
 5    1  0.1438401E-002  0.1249944E+03  0.7818608E-02  0.1235078E+00
          4   -1    0    0  501    0  0.00000000000E+00  0.00000000000E+00  0.14564540635E+02  0.14619806562E+02  0.12700000000E+01 0.  1.
         -4   -1    0    0    0  501 -0.00000000000E+00 -0.00000000000E+00 -0.26761390148E+03  0.26761691494E+03  0.12700000000E+01 0.  1.
         25    2    1    2    0    0  0.00000000000E+00  0.00000000000E+00 -0.25304936084E+03  0.28223672150E+03  0.12499435164E+03 0.  0.
    9000005    1    3    3    0    0  0.41745505095E+02  0.19001772213E+02 -0.22235372553E+03  0.22703729605E+03  0.10000000000E+01 0.  0.
    9000005    1    3    3    0    0 -0.41745505095E+02 -0.19001772213E+02 -0.30695635315E+02  0.55199425452E+02  0.10000000000E+01 0.  0.
<mgrwt>
<rscale>  0 0.12499435E+03</rscale>
<asrwt>0</asrwt>
<pdfrwt beam="1">  1        4 0.36484209E-02 0.12499435E+03</pdfrwt>
<pdfrwt beam="2">  1       -4 0.66910744E-01 0.12499435E+03</pdfrwt>
<totfact> 0.13485675E+03</totfact>
</mgrwt>
</event>
<event>
 5    1  0.1438401E-002  0.1249973E+03  0.7818608E-02  0.1235074E+00
         -4   -1    0    0    0  501 -0.00000000000E+00  0.00000000000E+00  0.64089417896E+03  0.64089543728E+03  0.12700000000E+01 0.  1.
          4   -1    0    0  501    0  0.00000000000E+00 -0.00000000000E+00 -0.60272977564E+01  0.61596443278E+01  0.12700000000E+01 0.  1.
         25    2    1    2    0    0  0.00000000000E+00  0.00000000000E+00  0.63486688120E+03  0.64705508160E+03  0.12499728711E+03 0.  0.
    9000005    1    3    3    0    0 -0.59585553749E+02 -0.80907753837E+01  0.22940439749E+03  0.23715664960E+03  0.10000000000E+01 0.  0.
    9000005    1    3    3    0    0  0.59585553749E+02  0.80907753837E+01  0.40546248371E+03  0.40989843201E+03  0.10000000000E+01 0.  0.
<mgrwt>
<rscale>  0 0.12499729E+03</rscale>
<asrwt>0</asrwt>
<pdfrwt beam="2">  1        4 0.15235255E-02 0.12499729E+03</pdfrwt>
<pdfrwt beam="1">  1       -4 0.16024020E+00 0.12499729E+03</pdfrwt>
<totfact> 0.67853073E+02</totfact>
</mgrwt>
</event>
<event>
 5    1  0.1438401E-002  0.1249996E+03  0.7818608E-02  0.1235070E+00
          4   -1    0    0  501    0  0.00000000000E+00  0.00000000000E+00  0.21508109062E+03  0.21508484011E+03  0.12700000000E+01 0. -1.
         -4   -1    0    0    0  501 -0.00000000000E+00 -0.00000000000E+00 -0.18135525368E+02  0.18179938955E+02  0.12700000000E+01 0. -1.
         25    2    1    2    0    0  0.00000000000E+00  0.00000000000E+00  0.19694556525E+03  0.23326477906E+03  0.12499960591E+03 0.  0.
    9000005    1    3    3    0    0  0.25419118734E+02 -0.55511725511E+02  0.12333793958E+03  0.13762605352E+03  0.10000000000E+01 0.  0.
    9000005    1    3    3    0    0 -0.25419118734E+02  0.55511725511E+02  0.73607625671E+02  0.95638725542E+02  0.10000000000E+01 0.  0.
<mgrwt>
<rscale>  0 0.12499961E+03</rscale>
<asrwt>0</asrwt>
<pdfrwt beam="1">  1        4 0.53776292E-01 0.12499961E+03</pdfrwt>
<pdfrwt beam="2">  1       -4 0.45399018E-02 0.12499961E+03</pdfrwt>
<totfact> 0.15071488E+03</totfact>
</mgrwt>
</event>
<event>
 5    1  0.1438401E-002  0.1249963E+03  0.7818608E-02  0.1235075E+00
         -4   -1    0    0    0  501 -0.00000000000E+00  0.00000000000E+00  0.27563565661E+03  0.27563858237E+03  0.12700000000E+01 0.  1.
          4   -1    0    0  501    0  0.00000000000E+00 -0.00000000000E+00 -0.14139485418E+02  0.14196406161E+02  0.12700000000E+01 0.  1.
         25    2    1    2    0    0  0.00000000000E+00  0.00000000000E+00  0.26149617119E+03  0.28983498853E+03  0.12499629207E+03 0.  0.
    9000005    1    3    3    0    0 -0.16463469577E+02 -0.25747479508E+02  0.43594832985E+01  0.30886625360E+02  0.10000000000E+01 0.  0.
    9000005    1    3    3    0    0  0.16463469577E+02  0.25747479508E+02  0.25713668789E+03  0.25894836317E+03  0.10000000000E+01 0.  0.
<mgrwt>
<rscale>  0 0.12499629E+03</rscale>
<asrwt>0</asrwt>
<pdfrwt beam="2">  1        4 0.35423522E-02 0.12499629E+03</pdfrwt>
<pdfrwt beam="1">  1       -4 0.68916394E-01 0.12499629E+03</pdfrwt>
<totfact> 0.13261936E+03</totfact>
</mgrwt>
</event>
<event>
 5    1  0.1438401E-002  0.1249982E+03  0.7818608E-02  0.1235072E+00
          4   -1    0    0  501    0  0.00000000000E+00  0.00000000000E+00  0.48335316150E+03  0.48335482994E+03  0.12700000000E+01 0. -1.
         -4   -1    0    0    0  501 -0.00000000000E+00 -0.00000000000E+00 -0.80297480197E+01  0.81295604592E+01  0.12700000000E+01 0. -1.
         25    2    1    2    0    0  0.00000000000E+00  0.00000000000E+00  0.47532341348E+03  0.49148439040E+03  0.12499823442E+03 0.  0.
    9000005    1    3    3    0    0 -0.26769807215E+02  0.21859912273E+02  0.44237379045E+03  0.44372294150E+03  0.10000000000E+01 0.  0.
    9000005    1    3    3    0    0  0.26769807215E+02 -0.21859912273E+02  0.32949623029E+02  0.47761448896E+02  0.10000000000E+01 0.  0.
<mgrwt>
<rscale>  0 0.12499823E+03</rscale>
<asrwt>0</asrwt>
<pdfrwt beam="1">  1        4 0.12085098E+00 0.12499823E+03</pdfrwt>
<pdfrwt beam="2">  1       -4 0.20201221E-02 0.12499823E+03</pdfrwt>
<totfact> 0.88980522E+02</totfact>
</mgrwt>
</event>
<event>
 5    1  0.1438401E-002  0.1249894E+03  0.7818608E-02  0.1235086E+00
         -4   -1    0    0    0  501 -0.00000000000E+00  0.00000000000E+00  0.53926093005E+02  0.53941045659E+02  0.12700000000E+01 0.  1.
          4   -1    0    0  501    0  0.00000000000E+00 -0.00000000000E+00 -0.72394296805E+02  0.72405435638E+02  0.12700000000E+01 0.  1.
         25    2    1    2    0    0  0.00000000000E+00  0.00000000000E+00 -0.18468203801E+02  0.12634648130E+03  0.12498943469E+03 0.  0.
    9000005    1    3    3    0    0  0.15184464043E+02  0.49695046418E+02  0.25847512269E+02  0.58045322613E+02  0.10000000000E+01 0.  0.
    9000005    1    3    3    0    0 -0.15184464043E+02 -0.49695046418E+02 -0.44315716069E+02  0.68301158684E+02  0.10000000000E+01 0.  0.
<mgrwt>
<rscale>  0 0.12498943E+03</rscale>
<asrwt>0</asrwt>
<pdfrwt beam="2">  1        4 0.18101836E-01 0.12498943E+03</pdfrwt>
<pdfrwt beam="1">  1       -4 0.13484785E-01 0.12498943E+03</pdfrwt>
<totfact> 0.19767093E+03</totfact>
</mgrwt>
</event>
<event>
 5    1  0.1438401E-002  0.1249966E+03  0.7818608E-02  0.1235075E+00
         -4   -1    0    0    0  501 -0.00000000000E+00  0.00000000000E+00  0.36934353767E+03  0.36934572113E+03  0.12700000000E+01 0.  1.
          4   -1    0    0  501    0  0.00000000000E+00 -0.00000000000E+00 -0.10535269532E+02  0.10611541080E+02  0.12700000000E+01 0.  1.
         25    2    1    2    0    0  0.00000000000E+00  0.00000000000E+00  0.35880826814E+03  0.37995726221E+03  0.12499659125E+03 0.  0.
    9000005    1    3    3    0    0 -0.58617120022E+02  0.91903276696E+01  0.11979047517E+03  0.13368315834E+03  0.10000000000E+01 0.  0.
    9000005    1    3    3    0    0  0.58617120022E+02 -0.91903276696E+01  0.23901779297E+03  0.24627410388E+03  0.10000000000E+01 0.  0.
<mgrwt>
<rscale>  0 0.12499659E+03</rscale>
<asrwt>0</asrwt>
<pdfrwt beam="2">  1        4 0.26436244E-02 0.12499659E+03</pdfrwt>
<pdfrwt beam="1">  1       -4 0.92345687E-01 0.12499659E+03</pdfrwt>
<totfact> 0.10994894E+03</totfact>
</mgrwt>
</event>
<event>
 5    1  0.1438401E-002  0.1250091E+03  0.7818608E-02  0.1235055E+00
         -4   -1    0    0    0  501 -0.00000000000E+00  0.00000000000E+00  0.10082340066E+03  0.10083139899E+03  0.12700000000E+01 0. -1.
          4   -1    0    0  501    0  0.00000000000E+00 -0.00000000000E+00 -0.38729211969E+02  0.38750029158E+02  0.12700000000E+01 0. -1.
         25    2    1    2    0    0  0.00000000000E+00  0.00000000000E+00  0.62094188695E+02  0.13958142814E+03  0.12500914692E+03 0.  0.
    9000005    1    3    3    0    0 -0.84649326539E+01 -0.61512321114E+02  0.38974029247E+02  0.73317090023E+02  0.10000000000E+01 0.  0.
    9000005    1    3    3    0    0  0.84649326539E+01  0.61512321114E+02  0.23120159448E+02  0.66264338120E+02  0.10000000000E+01 0.  0.
<mgrwt>
<rscale>  0 0.12500915E+03</rscale>
<asrwt>0</asrwt>
<pdfrwt beam="2">  1        4 0.96859050E-02 0.12500915E+03</pdfrwt>
<pdfrwt beam="1">  1       -4 0.25209452E-01 0.12500915E+03</pdfrwt>
<totfact> 0.19057711E+03</totfact>
</mgrwt>
</event>
<event>
 5    1  0.1438401E-002  0.1249935E+03  0.7818608E-02  0.1235079E+00
         -4   -1    0    0    0  501 -0.00000000000E+00  0.00000000000E+00  0.26256159273E+03  0.26256466418E+03  0.12700000000E+01 0. -1.
          4   -1    0    0  501    0  0.00000000000E+00 -0.00000000000E+00 -0.14845645177E+02  0.14899868480E+02  0.12700000000E+01 0. -1.
         25    2    1    2    0    0  0.00000000000E+00  0.00000000000E+00  0.24771594755E+03  0.27746453266E+03  0.12499350468E+03 0.  0.
    9000005    1    3    3    0    0  0.14369375791E+02  0.14969954998E+02 -0.69853402899E+01  0.21917424398E+02  0.10000000000E+01 0.  0.
    9000005    1    3    3    0    0 -0.14369375791E+02 -0.14969954998E+02  0.25470128784E+03  0.25554710826E+03  0.10000000000E+01 0.  0.
<mgrwt>
<rscale>  0 0.12499350E+03</rscale>
<asrwt>0</asrwt>
<pdfrwt beam="2">  1        4 0.37185734E-02 0.12499350E+03</pdfrwt>
<pdfrwt beam="1">  1       -4 0.65647556E-01 0.12499350E+03</pdfrwt>
<totfact> 0.13629051E+03</totfact>
</mgrwt>
</event>
<event>
 5    1  0.1438401E-002  0.1250010E+03  0.7818608E-02  0.1235068E+00
          4   -1    0    0  501    0  0.00000000000E+00  0.00000000000E+00  0.57625482016E+03  0.57625621963E+03  0.12700000000E+01 0. -1.
         -4   -1    0    0    0  501 -0.00000000000E+00 -0.00000000000E+00 -0.67178910891E+01  0.68368823805E+01  0.12700000000E+01 0. -1.
         25    2    1    2    0    0  0.00000000000E+00  0.00000000000E+00  0.56953692907E+03  0.58309310201E+03  0.12500100812E+03 0.  0.
    9000005    1    3    3    0    0  0.10677516348E+02 -0.15268873176E+02  0.65170121330E+01  0.19764090937E+02  0.10000000000E+01 0.  0.
    9000005    1    3    3    0    0 -0.10677516348E+02  0.15268873176E+02  0.56301991694E+03  0.56332901107E+03  0.10000000000E+01 0.  0.
<mgrwt>
<rscale>  0 0.12500101E+03</rscale>
<asrwt>0</asrwt>
<pdfrwt beam="1">  1        4 0.14407875E+00 0.12500101E+03</pdfrwt>
<pdfrwt beam="2">  1       -4 0.16945217E-02 0.12500101E+03</pdfrwt>
<totfact> 0.75670470E+02</totfact>
</mgrwt>
</event>
<event>
 5    1  0.1438401E-002  0.1249985E+03  0.7818608E-02  0.1235072E+00
          4   -1    0    0  501    0  0.00000000000E+00  0.00000000000E+00  0.71266189854E+02  0.71277504981E+02  0.12700000000E+01 0.  1.
         -4   -1    0    0    0  501 -0.00000000000E+00 -0.00000000000E+00 -0.54787745948E+02  0.54802463503E+02  0.12700000000E+01 0.  1.
         25    2    1    2    0    0  0.00000000000E+00  0.00000000000E+00  0.16478443907E+02  0.12607996848E+03  0.12499847735E+03 0.  0.
    9000005    1    3    3    0    0  0.42705695563E+02  0.42232677698E+02 -0.91663639611E+01  0.60765102874E+02  0.10000000000E+01 0.  0.
    9000005    1    3    3    0    0 -0.42705695563E+02 -0.42232677698E+02  0.25644807868E+02  0.65314865610E+02  0.10000000000E+01 0.  0.
<mgrwt>
<rscale>  0 0.12499848E+03</rscale>
<asrwt>0</asrwt>
<pdfrwt beam="1">  1        4 0.17819801E-01 0.12499848E+03</pdfrwt>
<pdfrwt beam="2">  1       -4 0.13700191E-01 0.12499848E+03</pdfrwt>
<totfact> 0.19777304E+03</totfact>
</mgrwt>
</event>
<event>
 5    1  0.1438401E-002  0.1249979E+03  0.7818608E-02  0.1235073E+00
          4   -1    0    0  501    0  0.00000000000E+00  0.00000000000E+00  0.12579524744E+03  0.12580165809E+03  0.12700000000E+01 0. -1.
         -4   -1    0    0    0  501 -0.00000000000E+00 -0.00000000000E+00 -0.31031205884E+02  0.31057183365E+02  0.12700000000E+01 0. -1.
         25    2    1    2    0    0  0.00000000000E+00  0.00000000000E+00  0.94764041556E+02  0.15685884146E+03  0.12499789027E+03 0.  0.
    9000005    1    3    3    0    0 -0.59002446112E+02 -0.81830443561E+01  0.71088097509E+02  0.92751110341E+02  0.10000000000E+01 0.  0.
    9000005    1    3    3    0    0  0.59002446112E+02  0.81830443561E+01  0.23675944047E+02  0.64107731115E+02  0.10000000000E+01 0.  0.
<mgrwt>
<rscale>  0 0.12499789E+03</rscale>
<asrwt>0</asrwt>
<pdfrwt beam="1">  1        4 0.31452860E-01 0.12499789E+03</pdfrwt>
<pdfrwt beam="2">  1       -4 0.77618501E-02 0.12499789E+03</pdfrwt>
<totfact> 0.18207484E+03</totfact>
</mgrwt>
</event>
<event>
 5    1  0.1438401E-002  0.1250016E+03  0.7818608E-02  0.1235067E+00
         -4   -1    0    0    0  501 -0.00000000000E+00  0.00000000000E+00  0.50803600074E+03  0.50803758812E+03  0.12700000000E+01 0. -1.
          4   -1    0    0  501    0  0.00000000000E+00 -0.00000000000E+00 -0.76350726117E+01  0.77399763428E+01  0.12700000000E+01 0. -1.
         25    2    1    2    0    0  0.00000000000E+00  0.00000000000E+00  0.50040092813E+03  0.51577756447E+03  0.12500162854E+03 0.  0.
    9000005    1    3    3    0    0 -0.35897443634E+02  0.19253065515E+02  0.44574963660E+03  0.44760813835E+03  0.10000000000E+01 0.  0.
    9000005    1    3    3    0    0  0.35897443634E+02 -0.19253065515E+02  0.54651291532E+02  0.68169426118E+02  0.10000000000E+01 0.  0.
<mgrwt>
<rscale>  0 0.12500163E+03</rscale>
<asrwt>0</asrwt>
<pdfrwt beam="2">  1        4 0.19220796E-02 0.12500163E+03</pdfrwt>
<pdfrwt beam="1">  1       -4 0.12702231E+00 0.12500163E+03</pdfrwt>
<totfact> 0.85147631E+02</totfact>
</mgrwt>
</event>
<event>
 5    1  0.1438401E-002  0.1249993E+03  0.7818608E-02  0.1235070E+00
         -4   -1    0    0    0  501 -0.00000000000E+00  0.00000000000E+00  0.38499983077E+02  0.38520924144E+02  0.12700000000E+01 0.  1.
          4   -1    0    0  501    0  0.00000000000E+00 -0.00000000000E+00 -0.10140750330E+03  0.10141545555E+03  0.12700000000E+01 0.  1.
         25    2    1    2    0    0  0.00000000000E+00  0.00000000000E+00 -0.62907520221E+02  0.13993637970E+03  0.12499933705E+03 0.  0.
    9000005    1    3    3    0    0 -0.57477428349E+01 -0.44201892275E+02 -0.80486765773E+02  0.92010669452E+02  0.10000000000E+01 0.  0.
    9000005    1    3    3    0    0  0.57477428349E+01  0.44201892275E+02  0.17579245552E+02  0.47925710246E+02  0.10000000000E+01 0.  0.
<mgrwt>
<rscale>  0 0.12499934E+03</rscale>
<asrwt>0</asrwt>
<pdfrwt beam="2">  1        4 0.25355487E-01 0.12499934E+03</pdfrwt>
<pdfrwt beam="1">  1       -4 0.96286076E-02 0.12499934E+03</pdfrwt>
<totfact> 0.19043892E+03</totfact>
</mgrwt>
</event>
<event>
 5    1  0.1438401E-002  0.1250062E+03  0.7818608E-02  0.1235060E+00
          4   -1    0    0  501    0  0.00000000000E+00  0.00000000000E+00  0.58781456559E+01  0.60137755488E+01  0.12700000000E+01 0. -1.
         -4   -1    0    0    0  501 -0.00000000000E+00 -0.00000000000E+00 -0.65688761389E+03  0.65688884157E+03  0.12700000000E+01 0. -1.
         25    2    1    2    0    0  0.00000000000E+00  0.00000000000E+00 -0.65100946823E+03  0.66290261712E+03  0.12500620807E+03 0.  0.
    9000005    1    3    3    0    0  0.52673747404E+00 -0.35250980357E+02 -0.51863442447E+02  0.62719420685E+02  0.10000000000E+01 0.  0.
    9000005    1    3    3    0    0 -0.52673747404E+00  0.35250980357E+02 -0.59914602578E+03  0.60018319643E+03  0.10000000000E+01 0.  0.
<mgrwt>
<rscale>  0 0.12500621E+03</rscale>
<asrwt>0</asrwt>
<pdfrwt beam="1">  1        4 0.14866458E-02 0.12500621E+03</pdfrwt>
<pdfrwt beam="2">  1       -4 0.16423876E+00 0.12500621E+03</pdfrwt>
<totfact> 0.66044580E+02</totfact>
</mgrwt>
</event>
<event>
 5    1  0.1438401E-002  0.1249990E+03  0.7818608E-02  0.1235071E+00
         -4   -1    0    0    0  501 -0.00000000000E+00  0.00000000000E+00  0.23929966326E+02  0.23963643053E+02  0.12700000000E+01 0.  1.
          4   -1    0    0  501    0  0.00000000000E+00 -0.00000000000E+00 -0.16308329473E+03  0.16308823967E+03  0.12700000000E+01 0.  1.
         25    2    1    2    0    0  0.00000000000E+00  0.00000000000E+00 -0.13915332840E+03  0.18705188273E+03  0.12499903210E+03 0.  0.
    9000005    1    3    3    0    0 -0.60815313409E+01  0.53192224577E+02 -0.21346396231E+02  0.57646044192E+02  0.10000000000E+01 0.  0.
    9000005    1    3    3    0    0  0.60815313409E+01 -0.53192224577E+02 -0.11780693217E+03  0.12940583853E+03  0.10000000000E+01 0.  0.
<mgrwt>
<rscale>  0 0.12499903E+03</rscale>
<asrwt>0</asrwt>
<pdfrwt beam="2">  1        4 0.40775648E-01 0.12499903E+03</pdfrwt>
<pdfrwt beam="1">  1       -4 0.59873198E-02 0.12499903E+03</pdfrwt>
<totfact> 0.16854357E+03</totfact>
</mgrwt>
</event>
<event>
 5    1  0.1438401E-002  0.1249690E+03  0.7818608E-02  0.1235118E+00
         -4   -1    0    0    0  501 -0.00000000000E+00  0.00000000000E+00  0.21178243590E+02  0.21216288591E+02  0.12700000000E+01 0.  1.
          4   -1    0    0  501    0  0.00000000000E+00 -0.00000000000E+00 -0.18414934401E+03  0.18415372328E+03  0.12700000000E+01 0.  1.
         25    2    1    2    0    0  0.00000000000E+00  0.00000000000E+00 -0.16297110042E+03  0.20537001187E+03  0.12496904499E+03 0.  0.
    9000005    1    3    3    0    0 -0.24677143484E+02  0.49091657095E+02 -0.32614694440E+02  0.63903603187E+02  0.10000000000E+01 0.  0.
    9000005    1    3    3    0    0  0.24677143484E+02 -0.49091657095E+02 -0.13035640598E+03  0.14146640868E+03  0.10000000000E+01 0.  0.
<mgrwt>
<rscale>  0 0.12496904E+03</rscale>
<asrwt>0</asrwt>
<pdfrwt beam="2">  1        4 0.46042634E-01 0.12496904E+03</pdfrwt>
<pdfrwt beam="1">  1       -4 0.52998645E-02 0.12496904E+03</pdfrwt>
<totfact> 0.16120782E+03</totfact>
</mgrwt>
</event>
<event>
 5    1  0.1438401E-002  0.1250012E+03  0.7818608E-02  0.1235067E+00
         -4   -1    0    0    0  501 -0.00000000000E+00  0.00000000000E+00  0.43384068288E+03  0.43384254174E+03  0.12700000000E+01 0.  1.
          4   -1    0    0  501    0  0.00000000000E+00 -0.00000000000E+00 -0.89573809268E+01  0.90469648539E+01  0.12700000000E+01 0.  1.
         25    2    1    2    0    0  0.00000000000E+00  0.00000000000E+00  0.42488330196E+03  0.44288950660E+03  0.12500117908E+03 0.  0.
    9000005    1    3    3    0    0 -0.36725535185E+02 -0.50226470962E+02  0.19182457134E+03  0.20166588579E+03  0.10000000000E+01 0.  0.
    9000005    1    3    3    0    0  0.36725535185E+02  0.50226470962E+02  0.23305873061E+03  0.24122362081E+03  0.10000000000E+01 0.  0.
<mgrwt>
<rscale>  0 0.12500118E+03</rscale>
<asrwt>0</asrwt>
<pdfrwt beam="2">  1        4 0.22507757E-02 0.12500118E+03</pdfrwt>
<pdfrwt beam="1">  1       -4 0.10847160E+00 0.12500118E+03</pdfrwt>
<totfact> 0.97305142E+02</totfact>
</mgrwt>
</event>
<event>
 5    1  0.1438401E-002  0.1249855E+03  0.7818608E-02  0.1235092E+00
          4   -1    0    0  501    0  0.00000000000E+00  0.00000000000E+00  0.40324667885E+02  0.40344661853E+02  0.12700000000E+01 0. -1.
         -4   -1    0    0    0  501 -0.00000000000E+00 -0.00000000000E+00 -0.96799337666E+02  0.96807668460E+02  0.12700000000E+01 0. -1.
         25    2    1    2    0    0  0.00000000000E+00  0.00000000000E+00 -0.56474669781E+02  0.13715233031E+03  0.12498549269E+03 0.  0.
    9000005    1    3    3    0    0  0.54381799921E+02 -0.28324311459E+02 -0.15037372525E+02  0.63140869132E+02  0.10000000000E+01 0.  0.
    9000005    1    3    3    0    0 -0.54381799921E+02  0.28324311459E+02 -0.41437297256E+02  0.74011461181E+02  0.10000000000E+01 0.  0.
<mgrwt>
<rscale>  0 0.12498549E+03</rscale>
<asrwt>0</asrwt>
<pdfrwt beam="1">  1        4 0.10084708E-01 0.12498549E+03</pdfrwt>
<pdfrwt beam="2">  1       -4 0.24203375E-01 0.12498549E+03</pdfrwt>
<totfact> 0.19193480E+03</totfact>
</mgrwt>
</event>
<event>
 5    1  0.1438401E-002  0.1250002E+03  0.7818608E-02  0.1235069E+00
         -4   -1    0    0    0  501 -0.00000000000E+00  0.00000000000E+00  0.15591579540E+03  0.15592096766E+03  0.12700000000E+01 0. -1.
          4   -1    0    0  501    0  0.00000000000E+00 -0.00000000000E+00 -0.25031999382E+02  0.25064195441E+02  0.12700000000E+01 0. -1.
         25    2    1    2    0    0  0.00000000000E+00  0.00000000000E+00  0.13088379602E+03  0.18098516310E+03  0.12500024481E+03 0.  0.
    9000005    1    3    3    0    0 -0.32644414786E+02  0.53237404279E+02  0.68802183230E+02  0.92922653042E+02  0.10000000000E+01 0.  0.
    9000005    1    3    3    0    0  0.32644414786E+02 -0.53237404279E+02  0.62081612787E+02  0.88062510056E+02  0.10000000000E+01 0.  0.
<mgrwt>
<rscale>  0 0.12500024E+03</rscale>
<asrwt>0</asrwt>
<pdfrwt beam="2">  1        4 0.62626709E-02 0.12500024E+03</pdfrwt>
<pdfrwt beam="1">  1       -4 0.38983620E-01 0.12500024E+03</pdfrwt>
<totfact> 0.17112560E+03</totfact>
</mgrwt>
</event>
<event>
 5    1  0.1438401E-002  0.1250008E+03  0.7818608E-02  0.1235068E+00
          4   -1    0    0  501    0  0.00000000000E+00  0.00000000000E+00  0.32282964054E+03  0.32283213860E+03  0.12700000000E+01 0.  1.
         -4   -1    0    0    0  501 -0.00000000000E+00 -0.00000000000E+00 -0.12064313406E+02  0.12130975144E+02  0.12700000000E+01 0.  1.
         25    2    1    2    0    0  0.00000000000E+00  0.00000000000E+00  0.31076532714E+03  0.33496311374E+03  0.12500079607E+03 0.  0.
    9000005    1    3    3    0    0  0.57028827764E+02 -0.24519773305E+02  0.17466771916E+03  0.18537345709E+03  0.10000000000E+01 0.  0.
    9000005    1    3    3    0    0 -0.57028827764E+02  0.24519773305E+02  0.13609760798E+03  0.14958965665E+03  0.10000000000E+01 0.  0.
<mgrwt>
<rscale>  0 0.12500080E+03</rscale>
<asrwt>0</asrwt>
<pdfrwt beam="1">  1        4 0.80716055E-01 0.12500080E+03</pdfrwt>
<pdfrwt beam="2">  1       -4 0.30247233E-02 0.12500080E+03</pdfrwt>
<totfact> 0.12044574E+03</totfact>
</mgrwt>
</event>
<event>
 5    1  0.1438401E-002  0.1249972E+03  0.7818608E-02  0.1235074E+00
          4   -1    0    0  501    0  0.00000000000E+00  0.00000000000E+00  0.32264392358E+02  0.32289377731E+02  0.12700000000E+01 0.  1.
         -4   -1    0    0    0  501 -0.00000000000E+00 -0.00000000000E+00 -0.12098939697E+03  0.12099606225E+03  0.12700000000E+01 0.  1.
         25    2    1    2    0    0  0.00000000000E+00  0.00000000000E+00 -0.88725004616E+02  0.15328543998E+03  0.12499719863E+03 0.  0.
    9000005    1    3    3    0    0 -0.15664345737E+02  0.28347659678E+01  0.29742278247E+02  0.33749233188E+02  0.10000000000E+01 0.  0.
    9000005    1    3    3    0    0  0.15664345737E+02 -0.28347659678E+01 -0.11846728286E+03  0.11953620679E+03  0.10000000000E+01 0.  0.
<mgrwt>
<rscale>  0 0.12499720E+03</rscale>
<asrwt>0</asrwt>
<pdfrwt beam="1">  1        4 0.80700547E-02 0.12499720E+03</pdfrwt>
<pdfrwt beam="2">  1       -4 0.30251304E-01 0.12499720E+03</pdfrwt>
<totfact> 0.18379605E+03</totfact>
</mgrwt>
</event>
<event>
 5    1  0.1438401E-002  0.1250120E+03  0.7818608E-02  0.1235051E+00
          4   -1    0    0  501    0  0.00000000000E+00  0.00000000000E+00  0.75321339530E+02  0.75332045562E+02  0.12700000000E+01 0.  1.
         -4   -1    0    0    0  501 -0.00000000000E+00 -0.00000000000E+00 -0.51848907946E+02  0.51864459461E+02  0.12700000000E+01 0.  1.
         25    2    1    2    0    0  0.00000000000E+00  0.00000000000E+00  0.23472431584E+02  0.12719650502E+03  0.12501198281E+03 0.  0.
    9000005    1    3    3    0    0 -0.53932834319E+02  0.26338006105E+02 -0.59911504634E+01  0.60326901687E+02  0.10000000000E+01 0.  0.
    9000005    1    3    3    0    0  0.53932834319E+02 -0.26338006105E+02  0.29463582047E+02  0.66869603336E+02  0.10000000000E+01 0.  0.
<mgrwt>
<rscale>  0 0.12501198E+03</rscale>
<asrwt>0</asrwt>
<pdfrwt beam="1">  1        4 0.18833617E-01 0.12501198E+03</pdfrwt>
<pdfrwt beam="2">  1       -4 0.12965509E-01 0.12501198E+03</pdfrwt>
<totfact> 0.19710820E+03</totfact>
</mgrwt>
</event>
<event>
 5    1  0.1438401E-002  0.1249824E+03  0.7818608E-02  0.1235097E+00
         -4   -1    0    0    0  501 -0.00000000000E+00  0.00000000000E+00  0.19268440373E+02  0.19310248429E+02  0.12700000000E+01 0.  1.
          4   -1    0    0  501    0  0.00000000000E+00 -0.00000000000E+00 -0.20240734847E+03  0.20241133272E+03  0.12700000000E+01 0.  1.
         25    2    1    2    0    0  0.00000000000E+00  0.00000000000E+00 -0.18313890809E+03  0.22172158115E+03  0.12498239832E+03 0.  0.
    9000005    1    3    3    0    0 -0.10955993540E+02 -0.60737892088E+02 -0.10886272854E+03  0.12514479212E+03  0.10000000000E+01 0.  0.
    9000005    1    3    3    0    0  0.10955993540E+02  0.60737892088E+02 -0.74276179558E+02  0.96576789031E+02  0.10000000000E+01 0.  0.
<mgrwt>
<rscale>  0 0.12498240E+03</rscale>
<asrwt>0</asrwt>
<pdfrwt beam="2">  1        4 0.50607555E-01 0.12498240E+03</pdfrwt>
<pdfrwt beam="1">  1       -4 0.48228348E-02 0.12498240E+03</pdfrwt>
<totfact> 0.15493991E+03</totfact>
</mgrwt>
</event>
<event>
 5    1  0.1438401E-002  0.1249990E+03  0.7818608E-02  0.1235071E+00
         -4   -1    0    0    0  501 -0.00000000000E+00  0.00000000000E+00  0.20007810609E+03  0.20008213673E+03  0.12700000000E+01 0.  1.
          4   -1    0    0  501    0  0.00000000000E+00 -0.00000000000E+00 -0.19498427418E+02  0.19539743391E+02  0.12700000000E+01 0.  1.
         25    2    1    2    0    0  0.00000000000E+00  0.00000000000E+00  0.18057967868E+03  0.21962188012E+03  0.12499899950E+03 0.  0.
    9000005    1    3    3    0    0  0.57609409567E+02 -0.14595740380E+02  0.12423693137E+03  0.13772325448E+03  0.10000000000E+01 0.  0.
    9000005    1    3    3    0    0 -0.57609409567E+02  0.14595740380E+02  0.56342747304E+02  0.81898625640E+02  0.10000000000E+01 0.  0.
<mgrwt>
<rscale>  0 0.12499900E+03</rscale>
<asrwt>0</asrwt>
<pdfrwt beam="2">  1        4 0.48802752E-02 0.12499900E+03</pdfrwt>
<pdfrwt beam="1">  1       -4 0.50025195E-01 0.12499900E+03</pdfrwt>
<totfact> 0.15565733E+03</totfact>
</mgrwt>
</event>
<event>
 5    1  0.1438401E-002  0.1250007E+03  0.7818608E-02  0.1235068E+00
          4   -1    0    0  501    0  0.00000000000E+00  0.00000000000E+00  0.57164472520E+02  0.57178578318E+02  0.12700000000E+01 0.  1.
         -4   -1    0    0    0  501 -0.00000000000E+00 -0.00000000000E+00 -0.68305861283E+02  0.68317666716E+02  0.12700000000E+01 0.  1.
         25    2    1    2    0    0  0.00000000000E+00  0.00000000000E+00 -0.11141388763E+02  0.12549624503E+03  0.12500070789E+03 0.  0.
    9000005    1    3    3    0    0 -0.42000483058E+02  0.25403557319E+00  0.40885729349E+02  0.58623783361E+02  0.10000000000E+01 0.  0.
    9000005    1    3    3    0    0  0.42000483058E+02 -0.25403557319E+00 -0.52027118112E+02  0.66872461673E+02  0.10000000000E+01 0.  0.
<mgrwt>
<rscale>  0 0.12500071E+03</rscale>
<asrwt>0</asrwt>
<pdfrwt beam="1">  1        4 0.14294357E-01 0.12500071E+03</pdfrwt>
<pdfrwt beam="2">  1       -4 0.17079704E-01 0.12500071E+03</pdfrwt>
<totfact> 0.19807839E+03</totfact>
</mgrwt>
</event>
<event>
 5    1  0.1438401E-002  0.1249965E+03  0.7818608E-02  0.1235075E+00
          4   -1    0    0  501    0  0.00000000000E+00  0.00000000000E+00  0.24533113948E+03  0.24533442665E+03  0.12700000000E+01 0.  1.
         -4   -1    0    0    0  501 -0.00000000000E+00 -0.00000000000E+00 -0.15892733577E+02  0.15943396143E+02  0.12700000000E+01 0.  1.
         25    2    1    2    0    0  0.00000000000E+00  0.00000000000E+00  0.22943840590E+03  0.26127782279E+03  0.12499647427E+03 0.  0.
    9000005    1    3    3    0    0 -0.32009738077E+02 -0.26710505772E+02  0.17415414153E+02  0.45192600064E+02  0.10000000000E+01 0.  0.
    9000005    1    3    3    0    0  0.32009738077E+02  0.26710505772E+02  0.21202299175E+03  0.21608522273E+03  0.10000000000E+01 0.  0.
<mgrwt>
<rscale>  0 0.12499647E+03</rscale>
<asrwt>0</asrwt>
<pdfrwt beam="1">  1        4 0.61339527E-01 0.12499647E+03</pdfrwt>
<pdfrwt beam="2">  1       -4 0.39799272E-02 0.12499647E+03</pdfrwt>
<totfact> 0.14131355E+03</totfact>
</mgrwt>
</event>
<event>
 5    1  0.1438401E-002  0.1249993E+03  0.7818608E-02  0.1235070E+00
         -4   -1    0    0    0  501 -0.00000000000E+00  0.00000000000E+00  0.46464902129E+03  0.46465075690E+03  0.12700000000E+01 0.  1.
          4   -1    0    0  501    0  0.00000000000E+00 -0.00000000000E+00 -0.83570642443E+01  0.84530126454E+01  0.12700000000E+01 0.  1.
         25    2    1    2    0    0  0.00000000000E+00  0.00000000000E+00  0.45629195705E+03  0.47310376954E+03  0.12499930676E+03 0.  0.
    9000005    1    3    3    0    0  0.49355389988E+02 -0.79605424680E+01  0.86232636998E+02  0.99681454850E+02  0.10000000000E+01 0.  0.
    9000005    1    3    3    0    0 -0.49355389988E+02  0.79605424680E+01  0.37005932005E+03  0.37342231469E+03  0.10000000000E+01 0.  0.
<mgrwt>
<rscale>  0 0.12499931E+03</rscale>
<asrwt>0</asrwt>
<pdfrwt beam="2">  1        4 0.21014767E-02 0.12499931E+03</pdfrwt>
<pdfrwt beam="1">  1       -4 0.11617446E+00 0.12499931E+03</pdfrwt>
<totfact> 0.92013244E+02</totfact>
</mgrwt>
</event>
<event>
 5    1  0.1438401E-002  0.1250027E+03  0.7818608E-02  0.1235065E+00
          4   -1    0    0  501    0  0.00000000000E+00  0.00000000000E+00  0.62934912280E+02  0.62947725008E+02  0.12700000000E+01 0. -1.
         -4   -1    0    0    0  501 -0.00000000000E+00 -0.00000000000E+00 -0.62045173909E+02  0.62058170336E+02  0.12700000000E+01 0. -1.
         25    2    1    2    0    0  0.00000000000E+00  0.00000000000E+00  0.88973837046E+00  0.12500589534E+03  0.12500272892E+03 0.  0.
    9000005    1    3    3    0    0  0.28025116217E+01  0.42754733701E+02  0.45938869720E+02  0.62826754463E+02  0.10000000000E+01 0.  0.
    9000005    1    3    3    0    0 -0.28025116217E+01 -0.42754733701E+02 -0.45049131349E+02  0.62179140880E+02  0.10000000000E+01 0.  0.
<mgrwt>
<rscale>  0 0.12500273E+03</rscale>
<asrwt>0</asrwt>
<pdfrwt beam="1">  1        4 0.15736954E-01 0.12500273E+03</pdfrwt>
<pdfrwt beam="2">  1       -4 0.15514520E-01 0.12500273E+03</pdfrwt>
<totfact> 0.19833469E+03</totfact>
</mgrwt>
</event>
<event>
 5    1  0.1438401E-002  0.1249988E+03  0.7818608E-02  0.1235071E+00
          4   -1    0    0  501    0  0.00000000000E+00  0.00000000000E+00  0.55920647377E+03  0.55920791591E+03  0.12700000000E+01 0.  1.
         -4   -1    0    0    0  501 -0.00000000000E+00 -0.00000000000E+00 -0.69260258100E+01  0.70415008004E+01  0.12700000000E+01 0.  1.
         25    2    1    2    0    0  0.00000000000E+00  0.00000000000E+00  0.55228044796E+03  0.56624941671E+03  0.12499883486E+03 0.  0.
    9000005    1    3    3    0    0  0.54165136721E+02 -0.31083312571E+02  0.26586709892E+03  0.27310501395E+03  0.10000000000E+01 0.  0.
    9000005    1    3    3    0    0 -0.54165136721E+02  0.31083312571E+02  0.28641334904E+03  0.29314440275E+03  0.10000000000E+01 0.  0.
<mgrwt>
<rscale>  0 0.12499883E+03</rscale>
<asrwt>0</asrwt>
<pdfrwt beam="1">  1        4 0.13981622E+00 0.12499883E+03</pdfrwt>
<pdfrwt beam="2">  1       -4 0.17461213E-02 0.12499883E+03</pdfrwt>
<totfact> 0.77922519E+02</totfact>
</mgrwt>
</event>
<event>
 5    1  0.1438401E-002  0.1250032E+03  0.7818608E-02  0.1235064E+00
         -4   -1    0    0    0  501 -0.00000000000E+00  0.00000000000E+00  0.88358557533E+02  0.88367684078E+02  0.12700000000E+01 0.  1.
          4   -1    0    0  501    0  0.00000000000E+00 -0.00000000000E+00 -0.44190790232E+02  0.44209035743E+02  0.12700000000E+01 0.  1.
         25    2    1    2    0    0  0.00000000000E+00  0.00000000000E+00  0.44167767301E+02  0.13257671982E+03  0.12500317984E+03 0.  0.
    9000005    1    3    3    0    0 -0.75085097394E+01 -0.39096329850E+02  0.73174540758E+02  0.83309148006E+02  0.10000000000E+01 0.  0.
    9000005    1    3    3    0    0  0.75085097394E+01  0.39096329850E+02 -0.29006773457E+02  0.49267571816E+02  0.10000000000E+01 0.  0.
<mgrwt>
<rscale>  0 0.12500318E+03</rscale>
<asrwt>0</asrwt>
<pdfrwt beam="2">  1        4 0.11051119E-01 0.12500318E+03</pdfrwt>
<pdfrwt beam="1">  1       -4 0.22093061E-01 0.12500318E+03</pdfrwt>
<totfact> 0.19425390E+03</totfact>
</mgrwt>
</event>
<event>
 5    1  0.1438401E-002  0.1249988E+03  0.7818608E-02  0.1235071E+00
         -4   -1    0    0    0  501 -0.00000000000E+00  0.00000000000E+00  0.41101562222E+02  0.41121178450E+02  0.12700000000E+01 0. -1.
          4   -1    0    0  501    0  0.00000000000E+00 -0.00000000000E+00 -0.94990669891E+02  0.94999159292E+02  0.12700000000E+01 0. -1.
         25    2    1    2    0    0  0.00000000000E+00  0.00000000000E+00 -0.53889107668E+02  0.13612033774E+03  0.12499884168E+03 0.  0.
    9000005    1    3    3    0    0 -0.61673018063E+02 -0.65656383744E+01 -0.18614884189E+02  0.64762509816E+02  0.10000000000E+01 0.  0.
    9000005    1    3    3    0    0  0.61673018063E+02  0.65656383744E+01 -0.35274223479E+02  0.71357827926E+02  0.10000000000E+01 0.  0.
<mgrwt>
<rscale>  0 0.12499884E+03</rscale>
<asrwt>0</asrwt>
<pdfrwt beam="2">  1        4 0.23751180E-01 0.12499884E+03</pdfrwt>
<pdfrwt beam="1">  1       -4 0.10278904E-01 0.12499884E+03</pdfrwt>
<totfact> 0.19241135E+03</totfact>
</mgrwt>
</event>
<event>
 5    1  0.1438401E-002  0.1250013E+03  0.7818608E-02  0.1235067E+00
          4   -1    0    0  501    0  0.00000000000E+00  0.00000000000E+00  0.37981759118E+02  0.38002985747E+02  0.12700000000E+01 0.  1.
         -4   -1    0    0    0  501 -0.00000000000E+00 -0.00000000000E+00 -0.10279367148E+03  0.10280151651E+03  0.12700000000E+01 0.  1.
         25    2    1    2    0    0  0.00000000000E+00  0.00000000000E+00 -0.64811912365E+02  0.14080450226E+03  0.12500129548E+03 0.  0.
    9000005    1    3    3    0    0 -0.40165350240E+02  0.43946130096E+02 -0.53802482444E+02  0.80251011380E+02  0.10000000000E+01 0.  0.
    9000005    1    3    3    0    0  0.40165350240E+02 -0.43946130096E+02 -0.11009429921E+02  0.60553490878E+02  0.10000000000E+01 0.  0.
<mgrwt>
<rscale>  0 0.12500130E+03</rscale>
<asrwt>0</asrwt>
<pdfrwt beam="1">  1        4 0.94990739E-02 0.12500130E+03</pdfrwt>
<pdfrwt beam="2">  1       -4 0.25702051E-01 0.12500130E+03</pdfrwt>
<totfact> 0.18998687E+03</totfact>
</mgrwt>
</event>
<event>
 5    1  0.1438401E-002  0.1250077E+03  0.7818608E-02  0.1235057E+00
         -4   -1    0    0    0  501 -0.00000000000E+00  0.00000000000E+00  0.13469633293E+02  0.13529372529E+02  0.12700000000E+01 0. -1.
          4   -1    0    0  501    0  0.00000000000E+00 -0.00000000000E+00 -0.28933707931E+03  0.28933986653E+03  0.12700000000E+01 0. -1.
         25    2    1    2    0    0  0.00000000000E+00  0.00000000000E+00 -0.27586744601E+03  0.30286923906E+03  0.12500771255E+03 0.  0.
    9000005    1    3    3    0    0  0.22009776568E+01  0.57204290389E+02 -0.19867594292E+03  0.20676146990E+03  0.10000000000E+01 0.  0.
    9000005    1    3    3    0    0 -0.22009776568E+01 -0.57204290389E+02 -0.77191503093E+02  0.96107769152E+02  0.10000000000E+01 0.  0.
<mgrwt>
<rscale>  0 0.12500771E+03</rscale>
<asrwt>0</asrwt>
<pdfrwt beam="2">  1        4 0.72342065E-01 0.12500771E+03</pdfrwt>
<pdfrwt beam="1">  1       -4 0.33752251E-02 0.12500771E+03</pdfrwt>
<totfact> 0.12888745E+03</totfact>
</mgrwt>
</event>
<event>
 5    1  0.1438401E-002  0.1250481E+03  0.7818608E-02  0.1234994E+00
          4   -1    0    0  501    0  0.00000000000E+00  0.00000000000E+00  0.12343114273E+02  0.12408278284E+02  0.12700000000E+01 0. -1.
         -4   -1    0    0    0  501 -0.00000000000E+00 -0.00000000000E+00 -0.31581548488E+03  0.31581803842E+03  0.12700000000E+01 0. -1.
         25    2    1    2    0    0  0.00000000000E+00  0.00000000000E+00 -0.30347237061E+03  0.32822631671E+03  0.12504813175E+03 0.  0.
    9000005    1    3    3    0    0  0.40265277569E+01 -0.40748779348E+02 -0.27573076506E+03  0.27875640037E+03  0.10000000000E+01 0.  0.
    9000005    1    3    3    0    0 -0.40265277569E+01  0.40748779348E+02 -0.27741605550E+02  0.49469916340E+02  0.10000000000E+01 0.  0.
<mgrwt>
<rscale>  0 0.12504813E+03</rscale>
<asrwt>0</asrwt>
<pdfrwt beam="1">  1        4 0.30942443E-02 0.12504813E+03</pdfrwt>
<pdfrwt beam="2">  1       -4 0.78962309E-01 0.12504813E+03</pdfrwt>
<totfact> 0.12201843E+03</totfact>
</mgrwt>
</event>
<event>
 5    1  0.1438401E-002  0.1249972E+03  0.7818608E-02  0.1235074E+00
         -4   -1    0    0    0  501 -0.00000000000E+00  0.00000000000E+00  0.15887431812E+02  0.15938111230E+02  0.12700000000E+01 0.  1.
          4   -1    0    0  501    0  0.00000000000E+00 -0.00000000000E+00 -0.24541576236E+03  0.24541904839E+03  0.12700000000E+01 0.  1.
         25    2    1    2    0    0  0.00000000000E+00  0.00000000000E+00 -0.22952833054E+03  0.26135715962E+03  0.12499724142E+03 0.  0.
    9000005    1    3    3    0    0  0.39948121131E+02 -0.36983671511E+02 -0.17891890384E+03  0.18702036919E+03  0.10000000000E+01 0.  0.
    9000005    1    3    3    0    0 -0.39948121131E+02  0.36983671511E+02 -0.50609426706E+02  0.74336790433E+02  0.10000000000E+01 0.  0.
<mgrwt>
<rscale>  0 0.12499724E+03</rscale>
<asrwt>0</asrwt>
<pdfrwt beam="2">  1        4 0.61360674E-01 0.12499724E+03</pdfrwt>
<pdfrwt beam="1">  1       -4 0.39786044E-02 0.12499724E+03</pdfrwt>
<totfact> 0.14128572E+03</totfact>
</mgrwt>
</event>
<event>
 5    1  0.1438401E-002  0.1250010E+03  0.7818608E-02  0.1235068E+00
         -4   -1    0    0    0  501 -0.00000000000E+00  0.00000000000E+00  0.11792044948E+03  0.11792728822E+03  0.12700000000E+01 0.  1.
          4   -1    0    0  501    0  0.00000000000E+00 -0.00000000000E+00 -0.33106701688E+02  0.33131051849E+02  0.12700000000E+01 0.  1.
         25    2    1    2    0    0  0.00000000000E+00  0.00000000000E+00  0.84813747795E+02  0.15105834007E+03  0.12500100115E+03 0.  0.
    9000005    1    3    3    0    0  0.48672932879E+02 -0.14880254777E+02  0.86226335998E+02  0.10013219960E+03  0.10000000000E+01 0.  0.
    9000005    1    3    3    0    0 -0.48672932879E+02  0.14880254777E+02 -0.14125882035E+01  0.50926140465E+02  0.10000000000E+01 0.  0.
<mgrwt>
<rscale>  0 0.12500100E+03</rscale>
<asrwt>0</asrwt>
<pdfrwt beam="2">  1        4 0.82805742E-02 0.12500100E+03</pdfrwt>
<pdfrwt beam="1">  1       -4 0.29484011E-01 0.12500100E+03</pdfrwt>
<totfact> 0.18486434E+03</totfact>
</mgrwt>
</event>
<event>
 5    1  0.1438401E-002  0.1249962E+03  0.7818608E-02  0.1235075E+00
         -4   -1    0    0    0  501 -0.00000000000E+00  0.00000000000E+00  0.12176534696E+03  0.12177196977E+03  0.12700000000E+01 0.  1.
          4   -1    0    0  501    0  0.00000000000E+00 -0.00000000000E+00 -0.32058131987E+02  0.32083277989E+02  0.12700000000E+01 0.  1.
         25    2    1    2    0    0  0.00000000000E+00  0.00000000000E+00  0.89707214978E+02  0.15385524776E+03  0.12499621132E+03 0.  0.
    9000005    1    3    3    0    0 -0.66044623039E+01 -0.24976121478E+02  0.11489039725E+03  0.11776344487E+03  0.10000000000E+01 0.  0.
    9000005    1    3    3    0    0  0.66044623039E+01  0.24976121478E+02 -0.25183182274E+02  0.36091802890E+02  0.10000000000E+01 0.  0.
<mgrwt>
<rscale>  0 0.12499621E+03</rscale>
<asrwt>0</asrwt>
<pdfrwt beam="2">  1        4 0.80185042E-02 0.12499621E+03</pdfrwt>
<pdfrwt beam="1">  1       -4 0.30445307E-01 0.12499621E+03</pdfrwt>
<totfact> 0.18352446E+03</totfact>
</mgrwt>
</event>
<event>
 5    1  0.1438401E-002  0.1250008E+03  0.7818608E-02  0.1235068E+00
         -4   -1    0    0    0  501 -0.00000000000E+00  0.00000000000E+00  0.21452213175E+02  0.21489773152E+02  0.12700000000E+01 0. -1.
          4   -1    0    0  501    0  0.00000000000E+00 -0.00000000000E+00 -0.18189415786E+03  0.18189859143E+03  0.12700000000E+01 0. -1.
         25    2    1    2    0    0  0.00000000000E+00  0.00000000000E+00 -0.16044194469E+03  0.20338836458E+03  0.12500083693E+03 0.  0.
    9000005    1    3    3    0    0  0.10347666843E+02  0.46476980847E+02 -0.14607552760E+03  0.15364323520E+03  0.10000000000E+01 0.  0.
    9000005    1    3    3    0    0 -0.10347666843E+02 -0.46476980847E+02 -0.14366417087E+02  0.49745129387E+02  0.10000000000E+01 0.  0.
<mgrwt>
<rscale>  0 0.12500084E+03</rscale>
<asrwt>0</asrwt>
<pdfrwt beam="2">  1        4 0.45478784E-01 0.12500084E+03</pdfrwt>
<pdfrwt beam="1">  1       -4 0.53683030E-02 0.12500084E+03</pdfrwt>
<totfact> 0.16186947E+03</totfact>
</mgrwt>
</event>
<event>
 5    1  0.1438401E-002  0.1250068E+03  0.7818608E-02  0.1235059E+00
         -4   -1    0    0    0  501 -0.00000000000E+00  0.00000000000E+00  0.19720933436E+03  0.19721342362E+03  0.12700000000E+01 0. -1.
          4   -1    0    0  501    0  0.00000000000E+00 -0.00000000000E+00 -0.19785139386E+02  0.19825857876E+02  0.12700000000E+01 0. -1.
         25    2    1    2    0    0  0.00000000000E+00  0.00000000000E+00  0.17742419497E+03  0.21703928150E+03  0.12500681883E+03 0.  0.
    9000005    1    3    3    0    0  0.19208405109E+02 -0.58294993204E+02  0.10913812296E+03  0.12521740671E+03  0.10000000000E+01 0.  0.
    9000005    1    3    3    0    0 -0.19208405109E+02  0.58294993204E+02  0.68286072011E+02  0.91821874792E+02  0.10000000000E+01 0.  0.
<mgrwt>
<rscale>  0 0.12500682E+03</rscale>
<asrwt>0</asrwt>
<pdfrwt beam="2">  1        4 0.49518858E-02 0.12500682E+03</pdfrwt>
<pdfrwt beam="1">  1       -4 0.49307935E-01 0.12500682E+03</pdfrwt>
<totfact> 0.15659292E+03</totfact>
</mgrwt>
</event>
<event>
 5    1  0.1438401E-002  0.1250001E+03  0.7818608E-02  0.1235069E+00
         -4   -1    0    0    0  501 -0.00000000000E+00  0.00000000000E+00  0.12536873802E+03  0.12537517048E+03  0.12700000000E+01 0.  1.
          4   -1    0    0  501    0  0.00000000000E+00 -0.00000000000E+00 -0.31137966602E+02  0.31163855091E+02  0.12700000000E+01 0.  1.
         25    2    1    2    0    0  0.00000000000E+00  0.00000000000E+00  0.94230771420E+02  0.15653902557E+03  0.12500011298E+03 0.  0.
    9000005    1    3    3    0    0  0.60551308772E+02  0.55124904863E+01  0.29036571113E+02  0.67386727234E+02  0.10000000000E+01 0.  0.
    9000005    1    3    3    0    0 -0.60551308772E+02 -0.55124904863E+01  0.65194200307E+02  0.89152298338E+02  0.10000000000E+01 0.  0.
<mgrwt>
<rscale>  0 0.12500011E+03</rscale>
<asrwt>0</asrwt>
<pdfrwt beam="2">  1        4 0.77885319E-02 0.12500011E+03</pdfrwt>
<pdfrwt beam="1">  1       -4 0.31346224E-01 0.12500011E+03</pdfrwt>
<totfact> 0.18221812E+03</totfact>
</mgrwt>
</event>
<event>
 5    1  0.1438401E-002  0.1249814E+03  0.7818608E-02  0.1235098E+00
          4   -1    0    0  501    0  0.00000000000E+00  0.00000000000E+00  0.11449491814E+04  0.11449498857E+04  0.12700000000E+01 0.  1.
         -4   -1    0    0    0  501 -0.00000000000E+00 -0.00000000000E+00 -0.32917568503E+01  0.35282521398E+01  0.12700000000E+01 0.  1.
         25    2    1    2    0    0  0.00000000000E+00  0.00000000000E+00  0.11416574245E+04  0.11484781379E+04  0.12498143138E+03 0.  0.
    9000005    1    3    3    0    0 -0.12999050372E+02 -0.40130145000E+02  0.99439811997E+03  0.99529293419E+03  0.10000000000E+01 0.  0.
    9000005    1    3    3    0    0  0.12999050372E+02  0.40130145000E+02  0.14725930456E+03  0.15318520368E+03  0.10000000000E+01 0.  0.
<mgrwt>
<rscale>  0 0.12498143E+03</rscale>
<asrwt>0</asrwt>
<pdfrwt beam="1">  1        4 0.28626686E+00 0.12498143E+03</pdfrwt>
<pdfrwt beam="2">  1       -4 0.85258942E-03 0.12498143E+03</pdfrwt>
<totfact> 0.28001028E+02</totfact>
</mgrwt>
</event>
<event>
 5    1  0.1438401E-002  0.1250060E+03  0.7818608E-02  0.1235060E+00
          4   -1    0    0  501    0  0.00000000000E+00  0.00000000000E+00  0.45319398348E+02  0.45337189664E+02  0.12700000000E+01 0. -1.
         -4   -1    0    0    0  501 -0.00000000000E+00 -0.00000000000E+00 -0.86162617308E+02  0.86171976427E+02  0.12700000000E+01 0. -1.
         25    2    1    2    0    0  0.00000000000E+00  0.00000000000E+00 -0.40843218960E+02  0.13150916609E+03  0.12500596878E+03 0.  0.
    9000005    1    3    3    0    0 -0.59922632935E+02  0.10505443226E+02 -0.53759584818E+01  0.61081807479E+02  0.10000000000E+01 0.  0.
    9000005    1    3    3    0    0  0.59922632935E+02 -0.10505443226E+02 -0.35467260479E+02  0.70427358612E+02  0.10000000000E+01 0.  0.
<mgrwt>
<rscale>  0 0.12500597E+03</rscale>
<asrwt>0</asrwt>
<pdfrwt beam="1">  1        4 0.11333244E-01 0.12500597E+03</pdfrwt>
<pdfrwt beam="2">  1       -4 0.21544048E-01 0.12500597E+03</pdfrwt>
<totfact> 0.19480876E+03</totfact>
</mgrwt>
</event>
<event>
 5    1  0.1438401E-002  0.1249983E+03  0.7818608E-02  0.1235072E+00
         -4   -1    0    0    0  501 -0.00000000000E+00  0.00000000000E+00  0.15800024099E+03  0.15800534502E+03  0.12700000000E+01 0.  1.
          4   -1    0    0  501    0  0.00000000000E+00 -0.00000000000E+00 -0.24700582917E+02  0.24733210395E+02  0.12700000000E+01 0.  1.
         25    2    1    2    0    0  0.00000000000E+00  0.00000000000E+00  0.13329965807E+03  0.18273855541E+03  0.12499832315E+03 0.  0.
    9000005    1    3    3    0    0  0.11754314877E+02 -0.41105136330E+02  0.13328150513E+03  0.13997412533E+03  0.10000000000E+01 0.  0.
    9000005    1    3    3    0    0 -0.11754314877E+02  0.41105136330E+02  0.18152943624E-01  0.42764430084E+02  0.10000000000E+01 0.  0.
<mgrwt>
<rscale>  0 0.12499832E+03</rscale>
<asrwt>0</asrwt>
<pdfrwt beam="2">  1        4 0.61798623E-02 0.12499832E+03</pdfrwt>
<pdfrwt beam="1">  1       -4 0.39504776E-01 0.12499832E+03</pdfrwt>
<totfact> 0.17037988E+03</totfact>
</mgrwt>
</event>
<event>
 5    1  0.1438401E-002  0.1250015E+03  0.7818608E-02  0.1235067E+00
         -4   -1    0    0    0  501 -0.00000000000E+00  0.00000000000E+00  0.43922267951E+02  0.43940624961E+02  0.12700000000E+01 0.  1.
          4   -1    0    0  501    0  0.00000000000E+00 -0.00000000000E+00 -0.88896171705E+02  0.88905243061E+02  0.12700000000E+01 0.  1.
         25    2    1    2    0    0  0.00000000000E+00  0.00000000000E+00 -0.44973903754E+02  0.13284586802E+03  0.12500149052E+03 0.  0.
    9000005    1    3    3    0    0  0.61463367200E+02 -0.11181694899E+02 -0.24189797824E+02  0.66999418857E+02  0.10000000000E+01 0.  0.
    9000005    1    3    3    0    0 -0.61463367200E+02  0.11181694899E+02 -0.20784105930E+02  0.65846449165E+02  0.10000000000E+01 0.  0.
<mgrwt>
<rscale>  0 0.12500149E+03</rscale>
<asrwt>0</asrwt>
<pdfrwt beam="2">  1        4 0.22227471E-01 0.12500149E+03</pdfrwt>
<pdfrwt beam="1">  1       -4 0.10983996E-01 0.12500149E+03</pdfrwt>
<totfact> 0.19411897E+03</totfact>
</mgrwt>
</event>
<event>
 5    1  0.1438401E-002  0.1249963E+03  0.7818608E-02  0.1235075E+00
         -4   -1    0    0    0  501 -0.00000000000E+00  0.00000000000E+00  0.99663923373E+01  0.10046983439E+02  0.12700000000E+01 0. -1.
          4   -1    0    0  501    0  0.00000000000E+00 -0.00000000000E+00 -0.39025935665E+03  0.39026142309E+03  0.12700000000E+01 0. -1.
         25    2    1    2    0    0  0.00000000000E+00  0.00000000000E+00 -0.38029296431E+03  0.40030840653E+03  0.12499632648E+03 0.  0.
    9000005    1    3    3    0    0  0.27289727396E+02 -0.37228322691E+02 -0.55245139837E+02  0.71997935438E+02  0.10000000000E+01 0.  0.
    9000005    1    3    3    0    0 -0.27289727396E+02  0.37228322691E+02 -0.32504782447E+03  0.32831047109E+03  0.10000000000E+01 0.  0.
<mgrwt>
<rscale>  0 0.12499633E+03</rscale>
<asrwt>0</asrwt>
<pdfrwt beam="2">  1        4 0.97575121E-01 0.12499633E+03</pdfrwt>
<pdfrwt beam="1">  1       -4 0.25019316E-02 0.12499633E+03</pdfrwt>
<totfact> 0.10563738E+03</totfact>
</mgrwt>
</event>
<event>
 5    1  0.1438401E-002  0.1249986E+03  0.7818608E-02  0.1235071E+00
         -4   -1    0    0    0  501 -0.00000000000E+00  0.00000000000E+00  0.43263604812E+02  0.43282241177E+02  0.12700000000E+01 0.  1.
          4   -1    0    0  501    0  0.00000000000E+00 -0.00000000000E+00 -0.90244926643E+02  0.90253862437E+02  0.12700000000E+01 0.  1.
         25    2    1    2    0    0  0.00000000000E+00  0.00000000000E+00 -0.46981321831E+02  0.13353610361E+03  0.12499858546E+03 0.  0.
    9000005    1    3    3    0    0 -0.63928073787E+00  0.26484027271E+02  0.36973181747E+02  0.45495368433E+02  0.10000000000E+01 0.  0.
    9000005    1    3    3    0    0  0.63928073787E+00 -0.26484027271E+02 -0.83954503577E+02  0.88040735181E+02  0.10000000000E+01 0.  0.
<mgrwt>
<rscale>  0 0.12499859E+03</rscale>
<asrwt>0</asrwt>
<pdfrwt beam="2">  1        4 0.22564678E-01 0.12499859E+03</pdfrwt>
<pdfrwt beam="1">  1       -4 0.10819348E-01 0.12499859E+03</pdfrwt>
<totfact> 0.19376731E+03</totfact>
</mgrwt>
</event>
<event>
 5    1  0.1438401E-002  0.1249976E+03  0.7818608E-02  0.1235073E+00
          4   -1    0    0  501    0  0.00000000000E+00  0.00000000000E+00  0.80485876949E+02  0.80495896095E+02  0.12700000000E+01 0. -1.
         -4   -1    0    0    0  501 -0.00000000000E+00 -0.00000000000E+00 -0.48510176806E+02  0.48526798305E+02  0.12700000000E+01 0. -1.
         25    2    1    2    0    0  0.00000000000E+00  0.00000000000E+00  0.31975700143E+02  0.12902269440E+03  0.12499764106E+03 0.  0.
    9000005    1    3    3    0    0 -0.41150875498E+02  0.33674232691E+02  0.49874148010E+02  0.72909389939E+02  0.10000000000E+01 0.  0.
    9000005    1    3    3    0    0  0.41150875498E+02 -0.33674232691E+02 -0.17898447867E+02  0.56113304462E+02  0.10000000000E+01 0.  0.
<mgrwt>
<rscale>  0 0.12499764E+03</rscale>
<asrwt>0</asrwt>
<pdfrwt beam="1">  1        4 0.20124799E-01 0.12499764E+03</pdfrwt>
<pdfrwt beam="2">  1       -4 0.12130874E-01 0.12499764E+03</pdfrwt>
<totfact> 0.19618149E+03</totfact>
</mgrwt>
</event>
<event>
 5    1  0.1438401E-002  0.1249996E+03  0.7818608E-02  0.1235070E+00
          4   -1    0    0  501    0  0.00000000000E+00  0.00000000000E+00  0.13287410443E+02  0.13347965248E+02  0.12700000000E+01 0. -1.
         -4   -1    0    0    0  501 -0.00000000000E+00 -0.00000000000E+00 -0.29324892093E+03  0.29325167097E+03  0.12700000000E+01 0. -1.
         25    2    1    2    0    0  0.00000000000E+00  0.00000000000E+00 -0.27996151049E+03  0.30659963622E+03  0.12499955830E+03 0.  0.
    9000005    1    3    3    0    0 -0.10778866601E+02 -0.27021276095E+02 -0.27563863357E+03  0.27717140841E+03  0.10000000000E+01 0.  0.
    9000005    1    3    3    0    0  0.10778866601E+02  0.27021276095E+02 -0.43228769224E+01  0.29428227807E+02  0.10000000000E+01 0.  0.
<mgrwt>
<rscale>  0 0.12499956E+03</rscale>
<asrwt>0</asrwt>
<pdfrwt beam="1">  1        4 0.33297667E-02 0.12499956E+03</pdfrwt>
<pdfrwt beam="2">  1       -4 0.73320122E-01 0.12499956E+03</pdfrwt>
<totfact> 0.12788216E+03</totfact>
</mgrwt>
</event>
<event>
 5    1  0.1438401E-002  0.1249965E+03  0.7818608E-02  0.1235075E+00
         -4   -1    0    0    0  501 -0.00000000000E+00  0.00000000000E+00  0.22229449012E+03  0.22229811794E+03  0.12700000000E+01 0. -1.
          4   -1    0    0  501    0  0.00000000000E+00 -0.00000000000E+00 -0.17544703078E+02  0.17590608463E+02  0.12700000000E+01 0. -1.
         25    2    1    2    0    0  0.00000000000E+00  0.00000000000E+00  0.20474978704E+03  0.23988872640E+03  0.12499650299E+03 0.  0.
    9000005    1    3    3    0    0  0.74692082430E+01  0.37731097069E+02  0.19689455682E+03  0.20061877097E+03  0.10000000000E+01 0.  0.
    9000005    1    3    3    0    0 -0.74692082430E+01 -0.37731097069E+02  0.78552302206E+01  0.39269955432E+02  0.10000000000E+01 0.  0.
<mgrwt>
<rscale>  0 0.12499650E+03</rscale>
<asrwt>0</asrwt>
<pdfrwt beam="2">  1        4 0.43923675E-02 0.12499650E+03</pdfrwt>
<pdfrwt beam="1">  1       -4 0.55579814E-01 0.12499650E+03</pdfrwt>
<totfact> 0.14841481E+03</totfact>
</mgrwt>
</event>
<event>
 5    1  0.1438401E-002  0.1249998E+03  0.7818608E-02  0.1235070E+00
          4   -1    0    0  501    0  0.00000000000E+00  0.00000000000E+00  0.17692506849E+02  0.17738029727E+02  0.12700000000E+01 0. -1.
         -4   -1    0    0    0  501 -0.00000000000E+00 -0.00000000000E+00 -0.22045378248E+03  0.22045744059E+03  0.12700000000E+01 0. -1.
         25    2    1    2    0    0  0.00000000000E+00  0.00000000000E+00 -0.20276127563E+03  0.23819547031E+03  0.12499978873E+03 0.  0.
    9000005    1    3    3    0    0 -0.27525222078E+02  0.52533895031E+01 -0.20781983130E+03  0.20970292853E+03  0.10000000000E+01 0.  0.
    9000005    1    3    3    0    0  0.27525222078E+02 -0.52533895031E+01  0.50585556709E+01  0.28492541782E+02  0.10000000000E+01 0.  0.
<mgrwt>
<rscale>  0 0.12499979E+03</rscale>
<asrwt>0</asrwt>
<pdfrwt beam="1">  1        4 0.44292750E-02 0.12499979E+03</pdfrwt>
<pdfrwt beam="2">  1       -4 0.55119585E-01 0.12499979E+03</pdfrwt>
<totfact> 0.14898898E+03</totfact>
</mgrwt>
</event>
<event>
 5    1  0.1438401E-002  0.1249968E+03  0.7818608E-02  0.1235074E+00
         -4   -1    0    0    0  501 -0.00000000000E+00  0.00000000000E+00  0.53684620213E+01  0.55166370621E+01  0.12700000000E+01 0.  1.
          4   -1    0    0  501    0  0.00000000000E+00 -0.00000000000E+00 -0.71753902098E+03  0.71754014489E+03  0.12700000000E+01 0.  1.
         25    2    1    2    0    0  0.00000000000E+00  0.00000000000E+00 -0.71217055896E+03  0.72305678195E+03  0.12499681948E+03 0.  0.
    9000005    1    3    3    0    0  0.58207092917E+02  0.11827320054E+01 -0.48743353037E+03  0.49089908438E+03  0.10000000000E+01 0.  0.
    9000005    1    3    3    0    0 -0.58207092917E+02 -0.11827320054E+01 -0.22473702859E+03  0.23215769757E+03  0.10000000000E+01 0.  0.
<mgrwt>
<rscale>  0 0.12499682E+03</rscale>
<asrwt>0</asrwt>
<pdfrwt beam="2">  1        4 0.17940310E+00 0.12499682E+03</pdfrwt>
<pdfrwt beam="1">  1       -4 0.13607803E-02 0.12499682E+03</pdfrwt>
<totfact> 0.59710632E+02</totfact>
</mgrwt>
</event>
<event>
 5    1  0.1438401E-002  0.1250018E+03  0.7818608E-02  0.1235066E+00
         -4   -1    0    0    0  501 -0.00000000000E+00  0.00000000000E+00  0.27452022397E+02  0.27481383402E+02  0.12700000000E+01 0. -1.
          4   -1    0    0  501    0  0.00000000000E+00 -0.00000000000E+00 -0.14218955464E+03  0.14219522619E+03  0.12700000000E+01 0. -1.
         25    2    1    2    0    0  0.00000000000E+00  0.00000000000E+00 -0.11473753225E+03  0.16967660959E+03  0.12500180213E+03 0.  0.
    9000005    1    3    3    0    0  0.21388903963E+02  0.43089168793E+01  0.22120615416E+02  0.31086550207E+02  0.10000000000E+01 0.  0.
    9000005    1    3    3    0    0 -0.21388903963E+02 -0.43089168793E+01 -0.13685814766E+03  0.13859005938E+03  0.10000000000E+01 0.  0.
<mgrwt>
<rscale>  0 0.12500180E+03</rscale>
<asrwt>0</asrwt>
<pdfrwt beam="2">  1        4 0.35551766E-01 0.12500180E+03</pdfrwt>
<pdfrwt beam="1">  1       -4 0.68673851E-02 0.12500180E+03</pdfrwt>
<totfact> 0.17610907E+03</totfact>
</mgrwt>
</event>
<event>
 5    1  0.1438401E-002  0.1250017E+03  0.7818608E-02  0.1235067E+00
         -4   -1    0    0    0  501 -0.00000000000E+00  0.00000000000E+00  0.51049585400E+02  0.51065380343E+02  0.12700000000E+01 0. -1.
          4   -1    0    0  501    0  0.00000000000E+00 -0.00000000000E+00 -0.76487933484E+02  0.76498476251E+02  0.12700000000E+01 0. -1.
         25    2    1    2    0    0  0.00000000000E+00  0.00000000000E+00 -0.25438348084E+02  0.12756385659E+03  0.12500171181E+03 0.  0.
    9000005    1    3    3    0    0  0.28591052526E+02  0.11506637576E+02 -0.68198043517E+02  0.74845334741E+02  0.10000000000E+01 0.  0.
    9000005    1    3    3    0    0 -0.28591052526E+02 -0.11506637576E+02  0.42759695433E+02  0.52718521853E+02  0.10000000000E+01 0.  0.
<mgrwt>
<rscale>  0 0.12500171E+03</rscale>
<asrwt>0</asrwt>
<pdfrwt beam="2">  1        4 0.19125275E-01 0.12500171E+03</pdfrwt>
<pdfrwt beam="1">  1       -4 0.12765689E-01 0.12500171E+03</pdfrwt>
<totfact> 0.19695512E+03</totfact>
</mgrwt>
</event>
<event>
 5    1  0.1438401E-002  0.1250034E+03  0.7818608E-02  0.1235064E+00
         -4   -1    0    0    0  501 -0.00000000000E+00  0.00000000000E+00  0.69651843142E+02  0.69663420481E+02  0.12700000000E+01 0. -1.
          4   -1    0    0  501    0  0.00000000000E+00 -0.00000000000E+00 -0.56062146906E+02  0.56076529990E+02  0.12700000000E+01 0. -1.
         25    2    1    2    0    0  0.00000000000E+00  0.00000000000E+00  0.13589696236E+02  0.12573995047E+03  0.12500342116E+03 0.  0.
    9000005    1    3    3    0    0 -0.15905844360E+02 -0.28878691401E+02  0.60197099571E+02  0.68641572670E+02  0.10000000000E+01 0.  0.
    9000005    1    3    3    0    0  0.15905844360E+02  0.28878691401E+02 -0.46607403335E+02  0.57098377801E+02  0.10000000000E+01 0.  0.
<mgrwt>
<rscale>  0 0.12500342E+03</rscale>
<asrwt>0</asrwt>
<pdfrwt beam="2">  1        4 0.14018782E-01 0.12500342E+03</pdfrwt>
<pdfrwt beam="1">  1       -4 0.17416206E-01 0.12500342E+03</pdfrwt>
<totfact> 0.19793395E+03</totfact>
</mgrwt>
</event>
<event>
 5    1  0.1438401E-002  0.1250009E+03  0.7818608E-02  0.1235068E+00
          4   -1    0    0  501    0  0.00000000000E+00  0.00000000000E+00  0.23436320181E+03  0.23436664281E+03  0.12700000000E+01 0.  1.
         -4   -1    0    0    0  501 -0.00000000000E+00 -0.00000000000E+00 -0.16639979004E+02  0.16688373236E+02  0.12700000000E+01 0.  1.
         25    2    1    2    0    0  0.00000000000E+00  0.00000000000E+00  0.21772322281E+03  0.25105501605E+03  0.12500087733E+03 0.  0.
    9000005    1    3    3    0    0 -0.18694878672E+02 -0.59492720055E+02  0.10072250233E+03  0.11846900313E+03  0.10000000000E+01 0.  0.
    9000005    1    3    3    0    0  0.18694878672E+02  0.59492720055E+02  0.11700072048E+03  0.13258601292E+03  0.10000000000E+01 0.  0.
<mgrwt>
<rscale>  0 0.12500088E+03</rscale>
<asrwt>0</asrwt>
<pdfrwt beam="1">  1        4 0.58597278E-01 0.12500088E+03</pdfrwt>
<pdfrwt beam="2">  1       -4 0.41664743E-02 0.12500088E+03</pdfrwt>
<totfact> 0.14462665E+03</totfact>
</mgrwt>
</event>
<event>
 5    1  0.1438401E-002  0.1249987E+03  0.7818608E-02  0.1235071E+00
         -4   -1    0    0    0  501 -0.00000000000E+00  0.00000000000E+00  0.19524222285E+02  0.19565483787E+02  0.12700000000E+01 0. -1.
          4   -1    0    0  501    0  0.00000000000E+00 -0.00000000000E+00 -0.19981340652E+03  0.19981744250E+03  0.12700000000E+01 0. -1.
         25    2    1    2    0    0  0.00000000000E+00  0.00000000000E+00 -0.18028918424E+03  0.21938292628E+03  0.12499871356E+03 0.  0.
    9000005    1    3    3    0    0 -0.38779627074E+01 -0.39604612572E+02 -0.17470975880E+03  0.17918723099E+03  0.10000000000E+01 0.  0.
    9000005    1    3    3    0    0  0.38779627074E+01  0.39604612572E+02 -0.55794254402E+01  0.40195695292E+02  0.10000000000E+01 0.  0.
<mgrwt>
<rscale>  0 0.12499871E+03</rscale>
<asrwt>0</asrwt>
<pdfrwt beam="2">  1        4 0.49959008E-01 0.12499871E+03</pdfrwt>
<pdfrwt beam="1">  1       -4 0.48867184E-02 0.12499871E+03</pdfrwt>
<totfact> 0.15574715E+03</totfact>
</mgrwt>
</event>
<event>
 5    1  0.1438401E-002  0.1250001E+03  0.7818608E-02  0.1235069E+00
          4   -1    0    0  501    0  0.00000000000E+00  0.00000000000E+00  0.72692923019E+02  0.72704016100E+02  0.12700000000E+01 0. -1.
         -4   -1    0    0    0  501 -0.00000000000E+00 -0.00000000000E+00 -0.53713737010E+02  0.53728748762E+02  0.12700000000E+01 0. -1.
         25    2    1    2    0    0  0.00000000000E+00  0.00000000000E+00  0.18979186010E+02  0.12643276486E+03  0.12500013812E+03 0.  0.
    9000005    1    3    3    0    0 -0.44165557585E+02  0.14351693041E+02 -0.32807029342E+02  0.56867114787E+02  0.10000000000E+01 0.  0.
    9000005    1    3    3    0    0  0.44165557585E+02 -0.14351693041E+02  0.51786215352E+02  0.69565650075E+02  0.10000000000E+01 0.  0.
<mgrwt>
<rscale>  0 0.12500014E+03</rscale>
<asrwt>0</asrwt>
<pdfrwt beam="1">  1        4 0.18176494E-01 0.12500014E+03</pdfrwt>
<pdfrwt beam="2">  1       -4 0.13431697E-01 0.12500014E+03</pdfrwt>
<totfact> 0.19757488E+03</totfact>
</mgrwt>
</event>
<event>
 5    1  0.1438401E-002  0.1249996E+03  0.7818608E-02  0.1235070E+00
          4   -1    0    0  501    0  0.00000000000E+00  0.00000000000E+00  0.12464275378E+03  0.12464922370E+03  0.12700000000E+01 0.  1.
         -4   -1    0    0    0  501 -0.00000000000E+00 -0.00000000000E+00 -0.31319195469E+02  0.31344934277E+02  0.12700000000E+01 0.  1.
         25    2    1    2    0    0  0.00000000000E+00  0.00000000000E+00  0.93323558307E+02  0.15599415798E+03  0.12499956315E+03 0.  0.
    9000005    1    3    3    0    0 -0.22430243296E+02  0.15127573500E+02 -0.23637828384E+02  0.35940314760E+02  0.10000000000E+01 0.  0.
    9000005    1    3    3    0    0  0.22430243296E+02 -0.15127573500E+02  0.11696138669E+03  0.12005384322E+03  0.10000000000E+01 0.  0.
<mgrwt>
<rscale>  0 0.12499956E+03</rscale>
<asrwt>0</asrwt>
<pdfrwt beam="1">  1        4 0.31164714E-01 0.12499956E+03</pdfrwt>
<pdfrwt beam="2">  1       -4 0.78338250E-02 0.12499956E+03</pdfrwt>
<totfact> 0.18248106E+03</totfact>
</mgrwt>
</event>
<event>
 5    1  0.1438401E-002  0.1249999E+03  0.7818608E-02  0.1235069E+00
         -4   -1    0    0    0  501 -0.00000000000E+00  0.00000000000E+00  0.22148190251E+03  0.22148554363E+03  0.12700000000E+01 0.  1.
          4   -1    0    0  501    0  0.00000000000E+00 -0.00000000000E+00 -0.17610198337E+02  0.17655933435E+02  0.12700000000E+01 0.  1.
         25    2    1    2    0    0  0.00000000000E+00  0.00000000000E+00  0.20387170417E+03  0.23914147707E+03  0.12499989717E+03 0.  0.
    9000005    1    3    3    0    0  0.34617376514E+02 -0.51929918342E+02  0.95836466759E+02  0.11437092085E+03  0.10000000000E+01 0.  0.
    9000005    1    3    3    0    0 -0.34617376514E+02  0.51929918342E+02  0.10803523741E+03  0.12477055621E+03  0.10000000000E+01 0.  0.
<mgrwt>
<rscale>  0 0.12499990E+03</rscale>
<asrwt>0</asrwt>
<pdfrwt beam="2">  1        4 0.44087216E-02 0.12499990E+03</pdfrwt>
<pdfrwt beam="1">  1       -4 0.55376648E-01 0.12499990E+03</pdfrwt>
<totfact> 0.14866110E+03</totfact>
</mgrwt>
</event>
<event>
 5    1  0.1438401E-002  0.1250053E+03  0.7818608E-02  0.1235061E+00
          4   -1    0    0  501    0  0.00000000000E+00  0.00000000000E+00  0.52450596714E+02  0.52465969882E+02  0.12700000000E+01 0.  1.
         -4   -1    0    0    0  501 -0.00000000000E+00 -0.00000000000E+00 -0.74449500501E+02  0.74460331887E+02  0.12700000000E+01 0.  1.
         25    2    1    2    0    0  0.00000000000E+00  0.00000000000E+00 -0.21998903787E+02  0.12692630177E+03  0.12500533714E+03 0.  0.
    9000005    1    3    3    0    0 -0.95282292445E+01  0.84890892268E+01  0.51118542262E+02  0.52696841949E+02  0.10000000000E+01 0.  0.
    9000005    1    3    3    0    0  0.95282292445E+01 -0.84890892268E+01 -0.73117446049E+02  0.74229459820E+02  0.10000000000E+01 0.  0.
<mgrwt>
<rscale>  0 0.12500534E+03</rscale>
<asrwt>0</asrwt>
<pdfrwt beam="1">  1        4 0.13115925E-01 0.12500534E+03</pdfrwt>
<pdfrwt beam="2">  1       -4 0.18615651E-01 0.12500534E+03</pdfrwt>
<totfact> 0.19728484E+03</totfact>
</mgrwt>
</event>
<event>
 5    1  0.1438401E-002  0.1250035E+03  0.7818608E-02  0.1235064E+00
          4   -1    0    0  501    0  0.00000000000E+00  0.00000000000E+00  0.28385968000E+02  0.28414363961E+02  0.12700000000E+01 0. -1.
         -4   -1    0    0    0  501 -0.00000000000E+00 -0.00000000000E+00 -0.13751967899E+03  0.13752554312E+03  0.12700000000E+01 0. -1.
         25    2    1    2    0    0  0.00000000000E+00  0.00000000000E+00 -0.10913371099E+03  0.16593990708E+03  0.12500354350E+03 0.  0.
    9000005    1    3    3    0    0 -0.24055433539E+02 -0.32458820070E+02 -0.11785909386E+03  0.12459536464E+03  0.10000000000E+01 0.  0.
    9000005    1    3    3    0    0  0.24055433539E+02  0.32458820070E+02  0.87253828751E+01  0.41344542438E+02  0.10000000000E+01 0.  0.
<mgrwt>
<rscale>  0 0.12500354E+03</rscale>
<asrwt>0</asrwt>
<pdfrwt beam="1">  1        4 0.71007749E-02 0.12500354E+03</pdfrwt>
<pdfrwt beam="2">  1       -4 0.34384200E-01 0.12500354E+03</pdfrwt>
<totfact> 0.17780281E+03</totfact>
</mgrwt>
</event>
<event>
 5    1  0.1438401E-002  0.1250001E+03  0.7818608E-02  0.1235069E+00
          4   -1    0    0  501    0  0.00000000000E+00  0.00000000000E+00  0.80625922409E+03  0.80626022433E+03  0.12700000000E+01 0. -1.
         -4   -1    0    0    0  501 -0.00000000000E+00 -0.00000000000E+00 -0.47606663878E+01  0.49271537886E+01  0.12700000000E+01 0. -1.
         25    2    1    2    0    0  0.00000000000E+00  0.00000000000E+00  0.80149855771E+03  0.81118737812E+03  0.12500009765E+03 0.  0.
    9000005    1    3    3    0    0  0.38011955612E+02 -0.28103536139E+02  0.66598932116E+03  0.66766570483E+03  0.10000000000E+01 0.  0.
    9000005    1    3    3    0    0 -0.38011955612E+02  0.28103536139E+02  0.13550923655E+03  0.14352167328E+03  0.10000000000E+01 0.  0.
<mgrwt>
<rscale>  0 0.12500010E+03</rscale>
<asrwt>0</asrwt>
<pdfrwt beam="1">  1        4 0.20158577E+00 0.12500010E+03</pdfrwt>
<pdfrwt beam="2">  1       -4 0.12111024E-02 0.12500010E+03</pdfrwt>
<totfact> 0.51498938E+02</totfact>
</mgrwt>
</event>
<event>
 5    1  0.1438401E-002  0.1250054E+03  0.7818608E-02  0.1235061E+00
          4   -1    0    0  501    0  0.00000000000E+00  0.00000000000E+00  0.82807378368E+02  0.82817116662E+02  0.12700000000E+01 0. -1.
         -4   -1    0    0    0  501 -0.00000000000E+00 -0.00000000000E+00 -0.47155704804E+02  0.47172803559E+02  0.12700000000E+01 0. -1.
         25    2    1    2    0    0  0.00000000000E+00  0.00000000000E+00  0.35651673563E+02  0.12998992022E+03  0.12500535001E+03 0.  0.
    9000005    1    3    3    0    0  0.27717867945E+02 -0.21783259927E+02 -0.35834061188E+02  0.50277933108E+02  0.10000000000E+01 0.  0.
    9000005    1    3    3    0    0 -0.27717867945E+02  0.21783259927E+02  0.71485734751E+02  0.79711987112E+02  0.10000000000E+01 0.  0.
<mgrwt>
<rscale>  0 0.12500535E+03</rscale>
<asrwt>0</asrwt>
<pdfrwt beam="1">  1        4 0.20705199E-01 0.12500535E+03</pdfrwt>
<pdfrwt beam="2">  1       -4 0.11792281E-01 0.12500535E+03</pdfrwt>
<totfact> 0.19562481E+03</totfact>
</mgrwt>
</event>
<event>
 5    1  0.1438401E-002  0.1249980E+03  0.7818608E-02  0.1235072E+00
         -4   -1    0    0    0  501 -0.00000000000E+00  0.00000000000E+00  0.13603701752E+03  0.13604294555E+03  0.12700000000E+01 0. -1.
          4   -1    0    0  501    0  0.00000000000E+00 -0.00000000000E+00 -0.28693105799E+02  0.28721198101E+02  0.12700000000E+01 0. -1.
         25    2    1    2    0    0  0.00000000000E+00  0.00000000000E+00  0.10734391172E+03  0.16476414365E+03  0.12499803059E+03 0.  0.
    9000005    1    3    3    0    0 -0.34500691292E+02  0.40737325107E+02  0.10851881931E+02  0.54484774919E+02  0.10000000000E+01 0.  0.
    9000005    1    3    3    0    0  0.34500691292E+02 -0.40737325107E+02  0.96492029786E+02  0.11027936874E+03  0.10000000000E+01 0.  0.
<mgrwt>
<rscale>  0 0.12499803E+03</rscale>
<asrwt>0</asrwt>
<pdfrwt beam="2">  1        4 0.71775292E-02 0.12499803E+03</pdfrwt>
<pdfrwt beam="1">  1       -4 0.34013506E-01 0.12499803E+03</pdfrwt>
<totfact> 0.17836641E+03</totfact>
</mgrwt>
</event>
<event>
 5    1  0.1438401E-002  0.1250001E+03  0.7818608E-02  0.1235069E+00
          4   -1    0    0  501    0  0.00000000000E+00  0.00000000000E+00  0.27767453738E+03  0.27767744166E+03  0.12700000000E+01 0.  1.
         -4   -1    0    0    0  501 -0.00000000000E+00 -0.00000000000E+00 -0.14036109476E+02  0.14093447741E+02  0.12700000000E+01 0.  1.
         25    2    1    2    0    0  0.00000000000E+00  0.00000000000E+00  0.26363842790E+03  0.29177088941E+03  0.12500012495E+03 0.  0.
    9000005    1    3    3    0    0 -0.26648862752E+02 -0.84804943921E+01  0.13734980437E+01  0.28017265534E+02  0.10000000000E+01 0.  0.
    9000005    1    3    3    0    0  0.26648862752E+02  0.84804943921E+01  0.26226492986E+03  0.26375362387E+03  0.10000000000E+01 0.  0.
<mgrwt>
<rscale>  0 0.12500012E+03</rscale>
<asrwt>0</asrwt>
<pdfrwt beam="1">  1        4 0.69426165E-01 0.12500012E+03</pdfrwt>
<pdfrwt beam="2">  1       -4 0.35165577E-02 0.12500012E+03</pdfrwt>
<totfact> 0.13204829E+03</totfact>
</mgrwt>
</event>
<event>
 5    1  0.1438401E-002  0.1249987E+03  0.7818608E-02  0.1235071E+00
         -4   -1    0    0    0  501 -0.00000000000E+00  0.00000000000E+00  0.96841383316E+01  0.97670586783E+01  0.12700000000E+01 0. -1.
          4   -1    0    0  501    0  0.00000000000E+00 -0.00000000000E+00 -0.40155406591E+03  0.40155607423E+03  0.12700000000E+01 0. -1.
         25    2    1    2    0    0  0.00000000000E+00  0.00000000000E+00 -0.39186992758E+03  0.41132313291E+03  0.12499871809E+03 0.  0.
    9000005    1    3    3    0    0 -0.45089452472E+02  0.23029833201E+02 -0.75400448459E+02  0.90827636595E+02  0.10000000000E+01 0.  0.
    9000005    1    3    3    0    0  0.45089452472E+02 -0.23029833201E+02 -0.31646947912E+03  0.32049549631E+03  0.10000000000E+01 0.  0.
<mgrwt>
<rscale>  0 0.12499872E+03</rscale>
<asrwt>0</asrwt>
<pdfrwt beam="2">  1        4 0.10039908E+00 0.12499872E+03</pdfrwt>
<pdfrwt beam="1">  1       -4 0.24316520E-02 0.12499872E+03</pdfrwt>
<totfact> 0.10339532E+03</totfact>
</mgrwt>
</event>
<event>
 5    1  0.1438401E-002  0.1249956E+03  0.7818608E-02  0.1235076E+00
          4   -1    0    0  501    0  0.00000000000E+00  0.00000000000E+00  0.61520389593E+03  0.61520520679E+03  0.12700000000E+01 0. -1.
         -4   -1    0    0    0  501 -0.00000000000E+00 -0.00000000000E+00 -0.62842295749E+01  0.64112745495E+01  0.12700000000E+01 0. -1.
         25    2    1    2    0    0  0.00000000000E+00  0.00000000000E+00  0.60891966635E+03  0.62161648134E+03  0.12499555914E+03 0.  0.
    9000005    1    3    3    0    0  0.45598406328E+01 -0.56156965824E+02  0.17004088669E+03  0.17913486568E+03  0.10000000000E+01 0.  0.
    9000005    1    3    3    0    0 -0.45598406328E+01  0.56156965824E+02  0.43887877966E+03  0.44248161566E+03  0.10000000000E+01 0.  0.
<mgrwt>
<rscale>  0 0.12499556E+03</rscale>
<asrwt>0</asrwt>
<pdfrwt beam="1">  1        4 0.15381701E+00 0.12499556E+03</pdfrwt>
<pdfrwt beam="2">  1       -4 0.15871020E-02 0.12499556E+03</pdfrwt>
<totfact> 0.70854986E+02</totfact>
</mgrwt>
</event>
<event>
 5    1  0.1438401E-002  0.1249851E+03  0.7818608E-02  0.1235093E+00
          4   -1    0    0  501    0  0.00000000000E+00  0.00000000000E+00  0.47631015635E+03  0.47631184947E+03  0.12700000000E+01 0.  1.
         -4   -1    0    0    0  501 -0.00000000000E+00 -0.00000000000E+00 -0.81482161095E+01  0.82465947983E+01  0.12700000000E+01 0.  1.
         25    2    1    2    0    0  0.00000000000E+00  0.00000000000E+00  0.46816194024E+03  0.48455844426E+03  0.12498513359E+03 0.  0.
    9000005    1    3    3    0    0  0.27677402200E+01  0.50769516221E+02  0.37488964895E+03  0.37832321242E+03  0.10000000000E+01 0.  0.
    9000005    1    3    3    0    0 -0.27677402200E+01 -0.50769516221E+02  0.93272291290E+02  0.10623523185E+03  0.10000000000E+01 0.  0.
<mgrwt>
<rscale>  0 0.12498513E+03</rscale>
<asrwt>0</asrwt>
<pdfrwt beam="1">  1        4 0.11909004E+00 0.12498513E+03</pdfrwt>
<pdfrwt beam="2">  1       -4 0.20495631E-02 0.12498513E+03</pdfrwt>
<totfact> 0.90144795E+02</totfact>
</mgrwt>
</event>
<event>
 5    1  0.1438401E-002  0.1249986E+03  0.7818608E-02  0.1235071E+00
          4   -1    0    0  501    0  0.00000000000E+00  0.00000000000E+00  0.42852771972E+01  0.44695078763E+01  0.12700000000E+01 0.  1.
         -4   -1    0    0    0  501 -0.00000000000E+00 -0.00000000000E+00 -0.89216444976E+03  0.89216535369E+03  0.12700000000E+01 0.  1.
         25    2    1    2    0    0  0.00000000000E+00  0.00000000000E+00 -0.88787917257E+03  0.89663486156E+03  0.12499859958E+03 0.  0.
    9000005    1    3    3    0    0 -0.36734717234E+02 -0.34402141850E+02 -0.70965800459E+03  0.71144109404E+03  0.10000000000E+01 0.  0.
    9000005    1    3    3    0    0  0.36734717234E+02  0.34402141850E+02 -0.17822116798E+03  0.18519376753E+03  0.10000000000E+01 0.  0.
<mgrwt>
<rscale>  0 0.12499860E+03</rscale>
<asrwt>0</asrwt>
<pdfrwt beam="1">  1        4 0.10944642E-02 0.12499860E+03</pdfrwt>
<pdfrwt beam="2">  1       -4 0.22306363E+00 0.12499860E+03</pdfrwt>
<totfact> 0.44533726E+02</totfact>
</mgrwt>
</event>
<event>
 5    1  0.1438401E-002  0.1250015E+03  0.7818608E-02  0.1235067E+00
         -4   -1    0    0    0  501 -0.00000000000E+00  0.00000000000E+00  0.29374328829E+02  0.29401770256E+02  0.12700000000E+01 0. -1.
          4   -1    0    0  501    0  0.00000000000E+00 -0.00000000000E+00 -0.13289228799E+03  0.13289835630E+03  0.12700000000E+01 0. -1.
         25    2    1    2    0    0  0.00000000000E+00  0.00000000000E+00 -0.10351795916E+03  0.16230012655E+03  0.12500145284E+03 0.  0.
    9000005    1    3    3    0    0 -0.59499986467E+02 -0.15776585378E+01 -0.27034922485E+02  0.65380612033E+02  0.10000000000E+01 0.  0.
    9000005    1    3    3    0    0  0.59499986467E+02  0.15776585378E+01 -0.76483036674E+02  0.96919514521E+02  0.10000000000E+01 0.  0.
<mgrwt>
<rscale>  0 0.12500145E+03</rscale>
<asrwt>0</asrwt>
<pdfrwt beam="2">  1        4 0.33227259E-01 0.12500145E+03</pdfrwt>
<pdfrwt beam="1">  1       -4 0.73477713E-02 0.12500145E+03</pdfrwt>
<totfact> 0.17949436E+03</totfact>
</mgrwt>
</event>
<event>
 5    1  0.1438401E-002  0.1250008E+03  0.7818608E-02  0.1235068E+00
          4   -1    0    0  501    0  0.00000000000E+00  0.00000000000E+00  0.23119447207E+03  0.23119796023E+03  0.12700000000E+01 0. -1.
         -4   -1    0    0    0  501 -0.00000000000E+00 -0.00000000000E+00 -0.16868666058E+02  0.16916406077E+02  0.12700000000E+01 0. -1.
         25    2    1    2    0    0  0.00000000000E+00  0.00000000000E+00  0.21432580601E+03  0.24811436631E+03  0.12500075058E+03 0.  0.
    9000005    1    3    3    0    0  0.23382736588E+02  0.38724064628E+02  0.21581780925E+02  0.50130617586E+02  0.10000000000E+01 0.  0.
    9000005    1    3    3    0    0 -0.23382736588E+02 -0.38724064628E+02  0.19274402509E+03  0.19798374873E+03  0.10000000000E+01 0.  0.
<mgrwt>
<rscale>  0 0.12500075E+03</rscale>
<asrwt>0</asrwt>
<pdfrwt beam="1">  1        4 0.57805020E-01 0.12500075E+03</pdfrwt>
<pdfrwt beam="2">  1       -4 0.42235701E-02 0.12500075E+03</pdfrwt>
<totfact> 0.14560674E+03</totfact>
</mgrwt>
</event>
<event>
 5    1  0.1438401E-002  0.1250015E+03  0.7818608E-02  0.1235067E+00
         -4   -1    0    0    0  501 -0.00000000000E+00  0.00000000000E+00  0.83624261540E+01  0.84583137315E+01  0.12700000000E+01 0. -1.
          4   -1    0    0  501    0  0.00000000000E+00 -0.00000000000E+00 -0.46437083532E+03  0.46437257197E+03  0.12700000000E+01 0. -1.
         25    2    1    2    0    0  0.00000000000E+00  0.00000000000E+00 -0.45600840917E+03  0.47283088570E+03  0.12500150895E+03 0.  0.
    9000005    1    3    3    0    0 -0.21705157767E+02 -0.49135271211E+02 -0.10720023469E+03  0.11990946197E+03  0.10000000000E+01 0.  0.
    9000005    1    3    3    0    0  0.21705157767E+02  0.49135271211E+02 -0.34880817448E+03  0.35292142374E+03  0.10000000000E+01 0.  0.
<mgrwt>
<rscale>  0 0.12500151E+03</rscale>
<asrwt>0</asrwt>
<pdfrwt beam="2">  1        4 0.11610483E+00 0.12500151E+03</pdfrwt>
<pdfrwt beam="1">  1       -4 0.21028111E-02 0.12500151E+03</pdfrwt>
<totfact> 0.92054405E+02</totfact>
</mgrwt>
</event>
<event>
 5    1  0.1438401E-002  0.1249996E+03  0.7818608E-02  0.1235070E+00
          4   -1    0    0  501    0  0.00000000000E+00  0.00000000000E+00  0.10854361912E+02  0.10928406677E+02  0.12700000000E+01 0.  1.
         -4   -1    0    0    0  501 -0.00000000000E+00 -0.00000000000E+00 -0.35857748416E+03  0.35857973318E+03  0.12700000000E+01 0.  1.
         25    2    1    2    0    0  0.00000000000E+00  0.00000000000E+00 -0.34772312225E+03  0.36950813986E+03  0.12499958270E+03 0.  0.
    9000005    1    3    3    0    0  0.28091684985E+02  0.55821802482E+02 -0.17360520204E+03  0.18451282495E+03  0.10000000000E+01 0.  0.
    9000005    1    3    3    0    0 -0.28091684985E+02 -0.55821802482E+02 -0.17411792022E+03  0.18499531491E+03  0.10000000000E+01 0.  0.
<mgrwt>
<rscale>  0 0.12499958E+03</rscale>
<asrwt>0</asrwt>
<pdfrwt beam="1">  1        4 0.27231284E-02 0.12499958E+03</pdfrwt>
<pdfrwt beam="2">  1       -4 0.89653869E-01 0.12499958E+03</pdfrwt>
<totfact> 0.11225597E+03</totfact>
</mgrwt>
</event>
<event>
 5    1  0.1438401E-002  0.1249999E+03  0.7818608E-02  0.1235070E+00
          4   -1    0    0  501    0  0.00000000000E+00  0.00000000000E+00  0.23728620608E+03  0.23728960469E+03  0.12700000000E+01 0.  1.
         -4   -1    0    0    0  501 -0.00000000000E+00 -0.00000000000E+00 -0.16434132014E+02  0.16483130621E+02  0.12700000000E+01 0.  1.
         25    2    1    2    0    0  0.00000000000E+00  0.00000000000E+00  0.22085207406E+03  0.25377273531E+03  0.12499985028E+03 0.  0.
    9000005    1    3    3    0    0 -0.10033936359E+02  0.16645087559E+02 -0.10152244885E+02  0.21950100111E+02  0.10000000000E+01 0.  0.
    9000005    1    3    3    0    0  0.10033936359E+02 -0.16645087559E+02  0.23100431895E+03  0.23182263520E+03  0.10000000000E+01 0.  0.
<mgrwt>
<rscale>  0 0.12499985E+03</rscale>
<asrwt>0</asrwt>
<pdfrwt beam="1">  1        4 0.59328100E-01 0.12499985E+03</pdfrwt>
<pdfrwt beam="2">  1       -4 0.41150827E-02 0.12499985E+03</pdfrwt>
<totfact> 0.14373371E+03</totfact>
</mgrwt>
</event>
<event>
 5    1  0.1438401E-002  0.1249524E+03  0.7818608E-02  0.1235144E+00
          4   -1    0    0  501    0  0.00000000000E+00  0.00000000000E+00  0.10745538908E+02  0.10820328388E+02  0.12700000000E+01 0.  1.
         -4   -1    0    0    0  501 -0.00000000000E+00 -0.00000000000E+00 -0.36191048561E+03  0.36191271392E+03  0.12700000000E+01 0.  1.
         25    2    1    2    0    0  0.00000000000E+00  0.00000000000E+00 -0.35116494670E+03  0.37273304231E+03  0.12495239507E+03 0.  0.
    9000005    1    3    3    0    0  0.15161866868E+02  0.41398275016E+02 -0.30759754315E+03  0.31074257503E+03  0.10000000000E+01 0.  0.
    9000005    1    3    3    0    0 -0.15161866868E+02 -0.41398275016E+02 -0.43567403554E+02  0.61990467281E+02  0.10000000000E+01 0.  0.
<mgrwt>
<rscale>  0 0.12495240E+03</rscale>
<asrwt>0</asrwt>
<pdfrwt beam="1">  1        4 0.26960132E-02 0.12495240E+03</pdfrwt>
<pdfrwt beam="2">  1       -4 0.90487208E-01 0.12495240E+03</pdfrwt>
<totfact> 0.11165415E+03</totfact>
</mgrwt>
</event>
<event>
 5    1  0.1438401E-002  0.1250033E+03  0.7818608E-02  0.1235064E+00
         -4   -1    0    0    0  501 -0.00000000000E+00  0.00000000000E+00  0.52660217892E+02  0.52675529883E+02  0.12700000000E+01 0.  1.
          4   -1    0    0  501    0  0.00000000000E+00 -0.00000000000E+00 -0.74150798695E+02  0.74161673708E+02  0.12700000000E+01 0.  1.
         25    2    1    2    0    0  0.00000000000E+00  0.00000000000E+00 -0.21490580803E+02  0.12683720359E+03  0.12500332456E+03 0.  0.
    9000005    1    3    3    0    0 -0.10797278153E+02  0.59608113446E+02  0.48340970430E+01  0.60778918207E+02  0.10000000000E+01 0.  0.
    9000005    1    3    3    0    0  0.10797278153E+02 -0.59608113446E+02 -0.26324677846E+02  0.66058285384E+02  0.10000000000E+01 0.  0.
<mgrwt>
<rscale>  0 0.12500332E+03</rscale>
<asrwt>0</asrwt>
<pdfrwt beam="2">  1        4 0.18540973E-01 0.12500332E+03</pdfrwt>
<pdfrwt beam="1">  1       -4 0.13168328E-01 0.12500332E+03</pdfrwt>
<totfact> 0.19734212E+03</totfact>
</mgrwt>
</event>
<event>
 5    1  0.1438401E-002  0.1250002E+03  0.7818608E-02  0.1235069E+00
         -4   -1    0    0    0  501 -0.00000000000E+00  0.00000000000E+00  0.58119325739E+02  0.58133199846E+02  0.12700000000E+01 0.  1.
          4   -1    0    0  501    0  0.00000000000E+00 -0.00000000000E+00 -0.67183209769E+02  0.67195212440E+02  0.12700000000E+01 0.  1.
         25    2    1    2    0    0  0.00000000000E+00  0.00000000000E+00 -0.90638840302E+01  0.12532841229E+03  0.12500022773E+03 0.  0.
    9000005    1    3    3    0    0 -0.43087831828E+02 -0.43688755753E+02  0.73310962232E+01  0.61806258605E+02  0.10000000000E+01 0.  0.
    9000005    1    3    3    0    0  0.43087831828E+02  0.43688755753E+02 -0.16394980253E+02  0.63522153682E+02  0.10000000000E+01 0.  0.
<mgrwt>
<rscale>  0 0.12500023E+03</rscale>
<asrwt>0</asrwt>
<pdfrwt beam="2">  1        4 0.16799037E-01 0.12500023E+03</pdfrwt>
<pdfrwt beam="1">  1       -4 0.14533066E-01 0.12500023E+03</pdfrwt>
<totfact> 0.19817150E+03</totfact>
</mgrwt>
</event>
<event>
 5    1  0.1438401E-002  0.1249985E+03  0.7818608E-02  0.1235072E+00
          4   -1    0    0  501    0  0.00000000000E+00  0.00000000000E+00  0.30213042466E+02  0.30239722800E+02  0.12700000000E+01 0.  1.
         -4   -1    0    0    0  501 -0.00000000000E+00 -0.00000000000E+00 -0.12920024470E+03  0.12920648641E+03  0.12700000000E+01 0.  1.
         25    2    1    2    0    0  0.00000000000E+00  0.00000000000E+00 -0.98987202233E+02  0.15944620921E+03  0.12499850969E+03 0.  0.
    9000005    1    3    3    0    0  0.51242967407E+02  0.23087359611E+01 -0.39642457634E+01  0.51457625430E+02  0.10000000000E+01 0.  0.
    9000005    1    3    3    0    0 -0.51242967407E+02 -0.23087359611E+01 -0.95022956470E+02  0.10798858378E+03  0.10000000000E+01 0.  0.
<mgrwt>
<rscale>  0 0.12499851E+03</rscale>
<asrwt>0</asrwt>
<pdfrwt beam="1">  1        4 0.75573762E-02 0.12499851E+03</pdfrwt>
<pdfrwt beam="2">  1       -4 0.32304175E-01 0.12499851E+03</pdfrwt>
<totfact> 0.18084474E+03</totfact>
</mgrwt>
</event>
<event>
 5    1  0.1438401E-002  0.1250081E+03  0.7818608E-02  0.1235057E+00
         -4   -1    0    0    0  501 -0.00000000000E+00  0.00000000000E+00  0.18036541040E+03  0.18036988155E+03  0.12700000000E+01 0. -1.
          4   -1    0    0  501    0  0.00000000000E+00 -0.00000000000E+00 -0.21636879711E+02  0.21674119674E+02  0.12700000000E+01 0. -1.
         25    2    1    2    0    0  0.00000000000E+00  0.00000000000E+00  0.15872853069E+03  0.20204400122E+03  0.12500812763E+03 0.  0.
    9000005    1    3    3    0    0  0.20231360264E+02  0.59062093790E+02  0.74758916603E+02  0.97403975651E+02  0.10000000000E+01 0.  0.
    9000005    1    3    3    0    0 -0.20231360264E+02 -0.59062093790E+02  0.83969614087E+02  0.10464002557E+03  0.10000000000E+01 0.  0.
<mgrwt>
<rscale>  0 0.12500813E+03</rscale>
<asrwt>0</asrwt>
<pdfrwt beam="2">  1        4 0.54144340E-02 0.12500813E+03</pdfrwt>
<pdfrwt beam="1">  1       -4 0.45096565E-01 0.12500813E+03</pdfrwt>
<totfact> 0.16237471E+03</totfact>
</mgrwt>
</event>
<event>
 5    1  0.1438401E-002  0.1249990E+03  0.7818608E-02  0.1235071E+00
          4   -1    0    0  501    0  0.00000000000E+00  0.00000000000E+00  0.79938614861E+02  0.79948702590E+02  0.12700000000E+01 0. -1.
         -4   -1    0    0    0  501 -0.00000000000E+00 -0.00000000000E+00 -0.48843446850E+02  0.48859954975E+02  0.12700000000E+01 0. -1.
         25    2    1    2    0    0  0.00000000000E+00  0.00000000000E+00  0.31095168011E+02  0.12880865757E+03  0.12499904316E+03 0.  0.
    9000005    1    3    3    0    0 -0.48305819663E+02 -0.39562064153E+02  0.18191127312E+02  0.65042495695E+02  0.10000000000E+01 0.  0.
    9000005    1    3    3    0    0  0.48305819663E+02  0.39562064153E+02  0.12904040699E+02  0.63766161870E+02  0.10000000000E+01 0.  0.
<mgrwt>
<rscale>  0 0.12499904E+03</rscale>
<asrwt>0</asrwt>
<pdfrwt beam="1">  1        4 0.19987978E-01 0.12499904E+03</pdfrwt>
<pdfrwt beam="2">  1       -4 0.12214186E-01 0.12499904E+03</pdfrwt>
<totfact> 0.19629086E+03</totfact>
</mgrwt>
</event>
<event>
 5    1  0.1438401E-002  0.1249998E+03  0.7818608E-02  0.1235070E+00
         -4   -1    0    0    0  501 -0.00000000000E+00  0.00000000000E+00  0.73633039788E+01  0.74720241892E+01  0.12700000000E+01 0.  1.
          4   -1    0    0  501    0  0.00000000000E+00 -0.00000000000E+00 -0.52650361428E+03  0.52650514599E+03  0.12700000000E+01 0.  1.
         25    2    1    2    0    0  0.00000000000E+00  0.00000000000E+00 -0.51914031030E+03  0.53397717017E+03  0.12499982596E+03 0.  0.
    9000005    1    3    3    0    0 -0.40266522788E+02 -0.47322225693E+02 -0.23108852159E+03  0.23929832994E+03  0.10000000000E+01 0.  0.
    9000005    1    3    3    0    0  0.40266522788E+02  0.47322225693E+02 -0.28805178871E+03  0.29467884024E+03  0.10000000000E+01 0.  0.
<mgrwt>
<rscale>  0 0.12499983E+03</rscale>
<asrwt>0</asrwt>
<pdfrwt beam="2">  1        4 0.13163956E+00 0.12499983E+03</pdfrwt>
<pdfrwt beam="1">  1       -4 0.18546093E-02 0.12499983E+03</pdfrwt>
<totfact> 0.82445107E+02</totfact>
</mgrwt>
</event>
<event>
 5    1  0.1438401E-002  0.1249991E+03  0.7818608E-02  0.1235071E+00
         -4   -1    0    0    0  501 -0.00000000000E+00  0.00000000000E+00  0.35293085509E+03  0.35293314009E+03  0.12700000000E+01 0. -1.
          4   -1    0    0  501    0  0.00000000000E+00 -0.00000000000E+00 -0.11029113460E+02  0.11101992781E+02  0.12700000000E+01 0. -1.
         25    2    1    2    0    0  0.00000000000E+00  0.00000000000E+00  0.34190174163E+03  0.36403513287E+03  0.12499910814E+03 0.  0.
    9000005    1    3    3    0    0 -0.45504559845E+02 -0.28593161076E+02  0.78078097859E+02  0.94791472149E+02  0.10000000000E+01 0.  0.
    9000005    1    3    3    0    0  0.45504559845E+02  0.28593161076E+02  0.26382364377E+03  0.26924366072E+03  0.10000000000E+01 0.  0.
<mgrwt>
<rscale>  0 0.12499911E+03</rscale>
<asrwt>0</asrwt>
<pdfrwt beam="2">  1        4 0.27666739E-02 0.12499911E+03</pdfrwt>
<pdfrwt beam="1">  1       -4 0.88242108E-01 0.12499911E+03</pdfrwt>
<totfact> 0.11349821E+03</totfact>
</mgrwt>
</event>
<event>
 5    1  0.1438401E-002  0.1250016E+03  0.7818608E-02  0.1235067E+00
         -4   -1    0    0    0  501 -0.00000000000E+00  0.00000000000E+00  0.48844668477E+02  0.48861176189E+02  0.12700000000E+01 0. -1.
          4   -1    0    0  501    0  0.00000000000E+00 -0.00000000000E+00 -0.79939830419E+02  0.79949917995E+02  0.12700000000E+01 0. -1.
         25    2    1    2    0    0  0.00000000000E+00  0.00000000000E+00 -0.31095161942E+02  0.12881109418E+03  0.12500155555E+03 0.  0.
    9000005    1    3    3    0    0  0.78664785918E+01 -0.51000321508E+02  0.20774801811E+02  0.55637277698E+02  0.10000000000E+01 0.  0.
    9000005    1    3    3    0    0 -0.78664785918E+01  0.51000321508E+02 -0.51869963754E+02  0.73173816486E+02  0.10000000000E+01 0.  0.
<mgrwt>
<rscale>  0 0.12500156E+03</rscale>
<asrwt>0</asrwt>
<pdfrwt beam="2">  1        4 0.19988282E-01 0.12500156E+03</pdfrwt>
<pdfrwt beam="1">  1       -4 0.12214492E-01 0.12500156E+03</pdfrwt>
<totfact> 0.19627803E+03</totfact>
</mgrwt>
</event>
<event>
 5    1  0.1438401E-002  0.1249993E+03  0.7818608E-02  0.1235070E+00
         -4   -1    0    0    0  501 -0.00000000000E+00  0.00000000000E+00  0.10017676037E+03  0.10018481031E+03  0.12700000000E+01 0. -1.
          4   -1    0    0  501    0  0.00000000000E+00 -0.00000000000E+00 -0.38973157469E+02  0.38993844426E+02  0.12700000000E+01 0. -1.
         25    2    1    2    0    0  0.00000000000E+00  0.00000000000E+00  0.61203602898E+02  0.13917865474E+03  0.12499926771E+03 0.  0.
    9000005    1    3    3    0    0  0.53504492212E+02 -0.96450205728E+01  0.64910208737E+02  0.84676397580E+02  0.10000000000E+01 0.  0.
    9000005    1    3    3    0    0 -0.53504492212E+02  0.96450205728E+01 -0.37066058392E+01  0.54502257160E+02  0.10000000000E+01 0.  0.
<mgrwt>
<rscale>  0 0.12499927E+03</rscale>
<asrwt>0</asrwt>
<pdfrwt beam="2">  1        4 0.97468816E-02 0.12499927E+03</pdfrwt>
<pdfrwt beam="1">  1       -4 0.25047782E-01 0.12499927E+03</pdfrwt>
<totfact> 0.19082766E+03</totfact>
</mgrwt>
</event>
<event>
 5    1  0.1438401E-002  0.1249967E+03  0.7818608E-02  0.1235074E+00
         -4   -1    0    0    0  501 -0.00000000000E+00  0.00000000000E+00  0.19306468293E+02  0.19348194178E+02  0.12700000000E+01 0.  1.
          4   -1    0    0  501    0  0.00000000000E+00 -0.00000000000E+00 -0.20205579501E+03  0.20205978619E+03  0.12700000000E+01 0.  1.
         25    2    1    2    0    0  0.00000000000E+00  0.00000000000E+00 -0.18274932671E+03  0.22140798037E+03  0.12499670938E+03 0.  0.
    9000005    1    3    3    0    0 -0.71208781142E-03 -0.59660456188E+02 -0.58441894935E+02  0.83521405140E+02  0.10000000000E+01 0.  0.
    9000005    1    3    3    0    0  0.71208781142E-03  0.59660456188E+02 -0.12430743178E+03  0.13788657523E+03  0.10000000000E+01 0.  0.
<mgrwt>
<rscale>  0 0.12499671E+03</rscale>
<asrwt>0</asrwt>
<pdfrwt beam="2">  1        4 0.50519657E-01 0.12499671E+03</pdfrwt>
<pdfrwt beam="1">  1       -4 0.48323323E-02 0.12499671E+03</pdfrwt>
<totfact> 0.15500439E+03</totfact>
</mgrwt>
</event>
<event>
 5    1  0.1438401E-002  0.1249996E+03  0.7818608E-02  0.1235070E+00
         -4   -1    0    0    0  501 -0.00000000000E+00  0.00000000000E+00  0.39463577834E+03  0.39463782187E+03  0.12700000000E+01 0.  1.
          4   -1    0    0  501    0  0.00000000000E+00 -0.00000000000E+00 -0.98554906453E+01  0.99369812247E+01  0.12700000000E+01 0.  1.
         25    2    1    2    0    0  0.00000000000E+00  0.00000000000E+00  0.38478028770E+03  0.40457480309E+03  0.12499960598E+03 0.  0.
    9000005    1    3    3    0    0  0.64020583591E+00 -0.33320953708E+02  0.21292298335E+02  0.39560811264E+02  0.10000000000E+01 0.  0.
    9000005    1    3    3    0    0 -0.64020583591E+00  0.33320953708E+02  0.36348798936E+03  0.36501399183E+03  0.10000000000E+01 0.  0.
<mgrwt>
<rscale>  0 0.12499961E+03</rscale>
<asrwt>0</asrwt>
<pdfrwt beam="2">  1        4 0.24743145E-02 0.12499961E+03</pdfrwt>
<pdfrwt beam="1">  1       -4 0.98669382E-01 0.12499961E+03</pdfrwt>
<totfact> 0.10475663E+03</totfact>
</mgrwt>
</event>
<event>
 5    1  0.1438401E-002  0.1250001E+03  0.7818608E-02  0.1235069E+00
          4   -1    0    0  501    0  0.00000000000E+00  0.00000000000E+00  0.91588290309E+02  0.91597095050E+02  0.12700000000E+01 0.  1.
         -4   -1    0    0    0  501 -0.00000000000E+00 -0.00000000000E+00 -0.42629873125E+02  0.42648786415E+02  0.12700000000E+01 0.  1.
         25    2    1    2    0    0  0.00000000000E+00  0.00000000000E+00  0.48958417184E+02  0.13424588147E+03  0.12500012031E+03 0.  0.
    9000005    1    3    3    0    0 -0.51124295334E+01  0.42049771086E+02  0.73822510792E+02  0.85118054981E+02  0.10000000000E+01 0.  0.
    9000005    1    3    3    0    0  0.51124295334E+01 -0.42049771086E+02 -0.24864093608E+02  0.49127826484E+02  0.10000000000E+01 0.  0.
<mgrwt>
<rscale>  0 0.12500012E+03</rscale>
<asrwt>0</asrwt>
<pdfrwt beam="1">  1        4 0.22900537E-01 0.12500012E+03</pdfrwt>
<pdfrwt beam="2">  1       -4 0.10660933E-01 0.12500012E+03</pdfrwt>
<totfact> 0.19338655E+03</totfact>
</mgrwt>
</event>
<event>
 5    1  0.1438401E-002  0.1250320E+03  0.7818608E-02  0.1235019E+00
          4   -1    0    0  501    0  0.00000000000E+00  0.00000000000E+00  0.48787398666E+01  0.50413294562E+01  0.12700000000E+01 0. -1.
         -4   -1    0    0    0  501 -0.00000000000E+00 -0.00000000000E+00 -0.78778514866E+03  0.78778617235E+03  0.12700000000E+01 0. -1.
         25    2    1    2    0    0  0.00000000000E+00  0.00000000000E+00 -0.78290640880E+03  0.79282750181E+03  0.12503200668E+03 0.  0.
    9000005    1    3    3    0    0  0.44403544063E+02  0.35944920456E+02 -0.55231200271E+03  0.55525963330E+03  0.10000000000E+01 0.  0.
    9000005    1    3    3    0    0 -0.44403544063E+02 -0.35944920456E+02 -0.23059440609E+03  0.23756786852E+03  0.10000000000E+01 0.  0.
<mgrwt>
<rscale>  0 0.12503201E+03</rscale>
<asrwt>0</asrwt>
<pdfrwt beam="1">  1        4 0.12401393E-02 0.12503201E+03</pdfrwt>
<pdfrwt beam="2">  1       -4 0.19696631E+00 0.12503201E+03</pdfrwt>
<totfact> 0.53077266E+02</totfact>
</mgrwt>
</event>
<event>
 5    1  0.1438401E-002  0.1249977E+03  0.7818608E-02  0.1235073E+00
          4   -1    0    0  501    0  0.00000000000E+00  0.00000000000E+00  0.12127968610E+03  0.12128633542E+03  0.12700000000E+01 0.  1.
         -4   -1    0    0    0  501 -0.00000000000E+00 -0.00000000000E+00 -0.32187346441E+02  0.32212391574E+02  0.12700000000E+01 0.  1.
         25    2    1    2    0    0  0.00000000000E+00  0.00000000000E+00  0.89092339658E+02  0.15349872700E+03  0.12499765679E+03 0.  0.
    9000005    1    3    3    0    0  0.54726189568E+02  0.22894189735E+02  0.20419426844E+02  0.62745938043E+02  0.10000000000E+01 0.  0.
    9000005    1    3    3    0    0 -0.54726189568E+02 -0.22894189735E+02  0.68672912814E+02  0.90752788953E+02  0.10000000000E+01 0.  0.
<mgrwt>
<rscale>  0 0.12499766E+03</rscale>
<asrwt>0</asrwt>
<pdfrwt beam="1">  1        4 0.30323883E-01 0.12499766E+03</pdfrwt>
<pdfrwt beam="2">  1       -4 0.80507985E-02 0.12499766E+03</pdfrwt>
<totfact> 0.18369077E+03</totfact>
</mgrwt>
</event>
<event>
 5    1  0.1438401E-002  0.1250013E+03  0.7818608E-02  0.1235067E+00
          4   -1    0    0  501    0  0.00000000000E+00  0.00000000000E+00  0.53833190473E+03  0.53833340278E+03  0.12700000000E+01 0. -1.
         -4   -1    0    0    0  501 -0.00000000000E+00 -0.00000000000E+00 -0.71992757234E+01  0.73104357559E+01  0.12700000000E+01 0. -1.
         25    2    1    2    0    0  0.00000000000E+00  0.00000000000E+00  0.53113262900E+03  0.54564383853E+03  0.12500131575E+03 0.  0.
    9000005    1    3    3    0    0 -0.26244116032E+02 -0.30575917080E+02  0.47407453015E+03  0.47578493089E+03  0.10000000000E+01 0.  0.
    9000005    1    3    3    0    0  0.26244116032E+02  0.30575917080E+02  0.57058098858E+02  0.69858907641E+02  0.10000000000E+01 0.  0.
<mgrwt>
<rscale>  0 0.12500132E+03</rscale>
<asrwt>0</asrwt>
<pdfrwt beam="1">  1        4 0.13459703E+00 0.12500132E+03</pdfrwt>
<pdfrwt beam="2">  1       -4 0.18139015E-02 0.12500132E+03</pdfrwt>
<totfact> 0.80774551E+02</totfact>
</mgrwt>
</event>
<event>
 5    1  0.1438401E-002  0.1250006E+03  0.7818608E-02  0.1235068E+00
         -4   -1    0    0    0  501 -0.00000000000E+00  0.00000000000E+00  0.21748109611E+03  0.21748480422E+03  0.12700000000E+01 0. -1.
          4   -1    0    0  501    0  0.00000000000E+00 -0.00000000000E+00 -0.17935184549E+02  0.17980093014E+02  0.12700000000E+01 0. -1.
         25    2    1    2    0    0  0.00000000000E+00  0.00000000000E+00  0.19954591156E+03  0.23546489723E+03  0.12500058803E+03 0.  0.
    9000005    1    3    3    0    0  0.62332588225E+02 -0.37726284012E+01  0.95274683963E+02  0.11392036554E+03  0.10000000000E+01 0.  0.
    9000005    1    3    3    0    0 -0.62332588225E+02  0.37726284012E+01  0.10427122760E+03  0.12154453170E+03  0.10000000000E+01 0.  0.
<mgrwt>
<rscale>  0 0.12500059E+03</rscale>
<asrwt>0</asrwt>
<pdfrwt beam="2">  1        4 0.44898733E-02 0.12500059E+03</pdfrwt>
<pdfrwt beam="1">  1       -4 0.54376351E-01 0.12500059E+03</pdfrwt>
<totfact> 0.14993782E+03</totfact>
</mgrwt>
</event>
<event>
 5    1  0.1438401E-002  0.1250386E+03  0.7818608E-02  0.1235009E+00
          4   -1    0    0  501    0  0.00000000000E+00  0.00000000000E+00  0.22563551518E+02  0.22599264526E+02  0.12700000000E+01 0.  1.
         -4   -1    0    0    0  501 -0.00000000000E+00 -0.00000000000E+00 -0.17305390223E+03  0.17305856227E+03  0.12700000000E+01 0.  1.
         25    2    1    2    0    0  0.00000000000E+00  0.00000000000E+00 -0.15049035071E+03  0.19565782680E+03  0.12503855218E+03 0.  0.
    9000005    1    3    3    0    0  0.11374091767E+02  0.56237593641E+02 -0.36420243624E+02  0.67966690722E+02  0.10000000000E+01 0.  0.
    9000005    1    3    3    0    0 -0.11374091767E+02 -0.56237593641E+02 -0.11407010708E+03  0.12769113607E+03  0.10000000000E+01 0.  0.
<mgrwt>
<rscale>  0 0.12503855E+03</rscale>
<asrwt>0</asrwt>
<pdfrwt beam="1">  1        4 0.56459350E-02 0.12503855E+03</pdfrwt>
<pdfrwt beam="2">  1       -4 0.43268518E-01 0.12503855E+03</pdfrwt>
<totfact> 0.16482693E+03</totfact>
</mgrwt>
</event>
<event>
 5    1  0.1438401E-002  0.1250059E+03  0.7818608E-02  0.1235060E+00
          4   -1    0    0  501    0  0.00000000000E+00  0.00000000000E+00  0.26264702897E+02  0.26295389677E+02  0.12700000000E+01 0.  1.
         -4   -1    0    0    0  501 -0.00000000000E+00 -0.00000000000E+00 -0.14862007931E+03  0.14862550546E+03  0.12700000000E+01 0.  1.
         25    2    1    2    0    0  0.00000000000E+00  0.00000000000E+00 -0.12235537641E+03  0.17492089514E+03  0.12500592554E+03 0.  0.
    9000005    1    3    3    0    0 -0.42346772903E+02  0.34581218023E+02 -0.18815359770E+02  0.57828432268E+02  0.10000000000E+01 0.  0.
    9000005    1    3    3    0    0  0.42346772903E+02 -0.34581218023E+02 -0.10354001664E+03  0.11709246287E+03  0.10000000000E+01 0.  0.
<mgrwt>
<rscale>  0 0.12500593E+03</rscale>
<asrwt>0</asrwt>
<pdfrwt beam="1">  1        4 0.65706903E-02 0.12500593E+03</pdfrwt>
<pdfrwt beam="2">  1       -4 0.37159532E-01 0.12500593E+03</pdfrwt>
<totfact> 0.17374963E+03</totfact>
</mgrwt>
</event>
<event>
 5    1  0.1438401E-002  0.1250039E+03  0.7818608E-02  0.1235063E+00
         -4   -1    0    0    0  501 -0.00000000000E+00  0.00000000000E+00  0.21439380039E+03  0.21439756189E+03  0.12700000000E+01 0. -1.
          4   -1    0    0  501    0  0.00000000000E+00 -0.00000000000E+00 -0.18195055863E+02  0.18239324490E+02  0.12700000000E+01 0. -1.
         25    2    1    2    0    0  0.00000000000E+00  0.00000000000E+00  0.19619874453E+03  0.23263688638E+03  0.12500389415E+03 0.  0.
    9000005    1    3    3    0    0  0.58425788612E+02  0.18117442045E+02  0.12190893348E+03  0.13639868967E+03  0.10000000000E+01 0.  0.
    9000005    1    3    3    0    0 -0.58425788612E+02 -0.18117442045E+02  0.74289811045E+02  0.96238196712E+02  0.10000000000E+01 0.  0.
<mgrwt>
<rscale>  0 0.12500389E+03</rscale>
<asrwt>0</asrwt>
<pdfrwt beam="2">  1        4 0.45547678E-02 0.12500389E+03</pdfrwt>
<pdfrwt beam="1">  1       -4 0.53604453E-01 0.12500389E+03</pdfrwt>
<totfact> 0.15092191E+03</totfact>
</mgrwt>
</event>
<event>
 5    1  0.1438401E-002  0.1250020E+03  0.7818608E-02  0.1235066E+00
          4   -1    0    0  501    0  0.00000000000E+00  0.00000000000E+00  0.35575428920E+03  0.35575655606E+03  0.12700000000E+01 0. -1.
         -4   -1    0    0    0  501 -0.00000000000E+00 -0.00000000000E+00 -0.10941505413E+02  0.11014964399E+02  0.12700000000E+01 0. -1.
         25    2    1    2    0    0  0.00000000000E+00  0.00000000000E+00  0.34481278379E+03  0.36677152046E+03  0.12500196943E+03 0.  0.
    9000005    1    3    3    0    0  0.45839481052E+02 -0.24167967143E+02  0.69920752719E+02  0.87035971412E+02  0.10000000000E+01 0.  0.
    9000005    1    3    3    0    0 -0.45839481052E+02  0.24167967143E+02  0.27489203107E+03  0.27973554905E+03  0.10000000000E+01 0.  0.
<mgrwt>
<rscale>  0 0.12500197E+03</rscale>
<asrwt>0</asrwt>
<pdfrwt beam="1">  1        4 0.88948040E-01 0.12500197E+03</pdfrwt>
<pdfrwt beam="2">  1       -4 0.27448420E-02 0.12500197E+03</pdfrwt>
<totfact> 0.11286781E+03</totfact>
</mgrwt>
</event>
<event>
 4    1  0.1438401E-002  0.1248242E+03  0.7818608E-02  0.1235344E+00
         -4   -1    0    0    0  501 -0.00000000000E+00  0.00000000000E+00  0.32985955319E+02  0.33010394550E+02  0.12700000000E+01 0. -1.
          4   -1    0    0  501    0  0.00000000000E+00 -0.00000000000E+00 -0.11801721035E+03  0.11802404348E+03  0.12700000000E+01 0. -1.
    9000005    1    1    2    0    0 -0.29415800597E+02 -0.53275947789E+02 -0.25808485281E+02  0.66111223330E+02  0.10000000000E+01 0.  0.
    9000005    1    1    2    0    0  0.29415800597E+02  0.53275947789E+02 -0.59222769748E+02  0.84923214696E+02  0.10000000000E+01 0.  0.
<mgrwt>
<rscale>  0 0.12482422E+03</rscale>
<asrwt>0</asrwt>
<pdfrwt beam="2">  1        4 0.29508211E-01 0.12482422E+03</pdfrwt>
<pdfrwt beam="1">  1       -4 0.82503981E-02 0.12482422E+03</pdfrwt>
<totfact> 0.18563852E+03</totfact>
</mgrwt>
</event>
<event>
 5    1  0.1438401E-002  0.1250004E+03  0.7818608E-02  0.1235069E+00
         -4   -1    0    0    0  501 -0.00000000000E+00  0.00000000000E+00  0.16690011850E+03  0.16690495037E+03  0.12700000000E+01 0.  1.
          4   -1    0    0  501    0  0.00000000000E+00 -0.00000000000E+00 -0.23382477064E+02  0.23416941168E+02  0.12700000000E+01 0.  1.
         25    2    1    2    0    0  0.00000000000E+00  0.00000000000E+00  0.14351764144E+03  0.19032189153E+03  0.12500043597E+03 0.  0.
    9000005    1    3    3    0    0 -0.83078465892E+01 -0.34311261767E+02  0.15027079830E+03  0.15436513797E+03  0.10000000000E+01 0.  0.
    9000005    1    3    3    0    0  0.83078465892E+01  0.34311261767E+02 -0.67531568624E+01  0.35956753561E+02  0.10000000000E+01 0.  0.
<mgrwt>
<rscale>  0 0.12500044E+03</rscale>
<asrwt>0</asrwt>
<pdfrwt beam="2">  1        4 0.58505314E-02 0.12500044E+03</pdfrwt>
<pdfrwt beam="1">  1       -4 0.41729941E-01 0.12500044E+03</pdfrwt>
<totfact> 0.16716878E+03</totfact>
</mgrwt>
</event>
<event>
 5    1  0.1438401E-002  0.1250017E+03  0.7818608E-02  0.1235067E+00
          4   -1    0    0  501    0  0.00000000000E+00  0.00000000000E+00  0.31779249158E+03  0.31779502923E+03  0.12700000000E+01 0. -1.
         -4   -1    0    0    0  501 -0.00000000000E+00 -0.00000000000E+00 -0.12256772433E+02  0.12322393050E+02  0.12700000000E+01 0. -1.
         25    2    1    2    0    0  0.00000000000E+00  0.00000000000E+00  0.30553571914E+03  0.33011742228E+03  0.12500174727E+03 0.  0.
    9000005    1    3    3    0    0 -0.14444179798E+02 -0.46321501185E+02  0.25677528284E+03  0.26132137624E+03  0.10000000000E+01 0.  0.
    9000005    1    3    3    0    0  0.14444179798E+02  0.46321501185E+02  0.48760436300E+02  0.68796046036E+02  0.10000000000E+01 0.  0.
<mgrwt>
<rscale>  0 0.12500175E+03</rscale>
<asrwt>0</asrwt>
<pdfrwt beam="1">  1        4 0.79456640E-01 0.12500175E+03</pdfrwt>
<pdfrwt beam="2">  1       -4 0.30727130E-02 0.12500175E+03</pdfrwt>
<totfact> 0.12166565E+03</totfact>
</mgrwt>
</event>
<event>
 5    1  0.1438401E-002  0.1250031E+03  0.7818608E-02  0.1235064E+00
          4   -1    0    0  501    0  0.00000000000E+00  0.00000000000E+00  0.16142266415E+03  0.16142765996E+03  0.12700000000E+01 0. -1.
         -4   -1    0    0    0  501 -0.00000000000E+00 -0.00000000000E+00 -0.24178060077E+02  0.24211391721E+02  0.12700000000E+01 0. -1.
         25    2    1    2    0    0  0.00000000000E+00  0.00000000000E+00  0.13724460407E+03  0.18563905168E+03  0.12500310461E+03 0.  0.
    9000005    1    3    3    0    0  0.16959667572E+02  0.55793699774E+01  0.15756189152E+03  0.15857335638E+03  0.10000000000E+01 0.  0.
    9000005    1    3    3    0    0 -0.16959667572E+02 -0.55793699774E+01 -0.20317287444E+02  0.27065695310E+02  0.10000000000E+01 0.  0.
<mgrwt>
<rscale>  0 0.12500310E+03</rscale>
<asrwt>0</asrwt>
<pdfrwt beam="1">  1        4 0.40360456E-01 0.12500310E+03</pdfrwt>
<pdfrwt beam="2">  1       -4 0.60493061E-02 0.12500310E+03</pdfrwt>
<totfact> 0.16912484E+03</totfact>
</mgrwt>
</event>
<event>
 5    1  0.1438401E-002  0.1250014E+03  0.7818608E-02  0.1235067E+00
          4   -1    0    0  501    0  0.00000000000E+00  0.00000000000E+00  0.98272515113E+02  0.98280721032E+02  0.12700000000E+01 0. -1.
         -4   -1    0    0    0  501 -0.00000000000E+00 -0.00000000000E+00 -0.39730045651E+02  0.39750338708E+02  0.12700000000E+01 0. -1.
         25    2    1    2    0    0  0.00000000000E+00  0.00000000000E+00  0.58542469462E+02  0.13803105974E+03  0.12500141088E+03 0.  0.
    9000005    1    3    3    0    0 -0.28980364954E+01 -0.22093839713E+02 -0.35199524321E+02  0.41671847586E+02  0.10000000000E+01 0.  0.
    9000005    1    3    3    0    0  0.28980364954E+01  0.22093839713E+02  0.93741993783E+02  0.96359212155E+02  0.10000000000E+01 0.  0.
<mgrwt>
<rscale>  0 0.12500141E+03</rscale>
<asrwt>0</asrwt>
<pdfrwt beam="1">  1        4 0.24571691E-01 0.12500141E+03</pdfrwt>
<pdfrwt beam="2">  1       -4 0.99360738E-02 0.12500141E+03</pdfrwt>
<totfact> 0.19140897E+03</totfact>
</mgrwt>
</event>
<event>
 5    1  0.1438401E-002  0.1250167E+03  0.7818608E-02  0.1235043E+00
         -4   -1    0    0    0  501 -0.00000000000E+00  0.00000000000E+00  0.33512652414E+03  0.33512893054E+03  0.12700000000E+01 0.  1.
          4   -1    0    0  501    0  0.00000000000E+00 -0.00000000000E+00 -0.11622123610E+02  0.11691306908E+02  0.12700000000E+01 0.  1.
         25    2    1    2    0    0  0.00000000000E+00  0.00000000000E+00  0.32350440053E+03  0.34682023744E+03  0.12501671864E+03 0.  0.
    9000005    1    3    3    0    0 -0.43572858530E+02 -0.26852510048E+02  0.62242485230E+02  0.80590187144E+02  0.10000000000E+01 0.  0.
    9000005    1    3    3    0    0  0.43572858530E+02  0.26852510048E+02  0.26126191530E+03  0.26623005030E+03  0.10000000000E+01 0.  0.
<mgrwt>
<rscale>  0 0.12501672E+03</rscale>
<asrwt>0</asrwt>
<pdfrwt beam="2">  1        4 0.29144796E-02 0.12501672E+03</pdfrwt>
<pdfrwt beam="1">  1       -4 0.83790581E-01 0.12501672E+03</pdfrwt>
<totfact> 0.11749046E+03</totfact>
</mgrwt>
</event>
<event>
 5    1  0.1438401E-002  0.1249996E+03  0.7818608E-02  0.1235070E+00
         -4   -1    0    0    0  501 -0.00000000000E+00  0.00000000000E+00  0.18029609872E+03  0.18030057158E+03  0.12700000000E+01 0.  1.
          4   -1    0    0  501    0  0.00000000000E+00 -0.00000000000E+00 -0.21642264155E+02  0.21679494869E+02  0.12700000000E+01 0.  1.
         25    2    1    2    0    0  0.00000000000E+00  0.00000000000E+00  0.15865383456E+03  0.20198006645E+03  0.12499963209E+03 0.  0.
    9000005    1    3    3    0    0 -0.50234471137E+02  0.37061949178E+02  0.83936139176E+02  0.10461054262E+03  0.10000000000E+01 0.  0.
    9000005    1    3    3    0    0  0.50234471137E+02 -0.37061949178E+02  0.74717695385E+02  0.97369523830E+02  0.10000000000E+01 0.  0.
<mgrwt>
<rscale>  0 0.12499963E+03</rscale>
<asrwt>0</asrwt>
<pdfrwt beam="2">  1        4 0.54157791E-02 0.12499963E+03</pdfrwt>
<pdfrwt beam="1">  1       -4 0.45079237E-01 0.12499963E+03</pdfrwt>
<totfact> 0.16243200E+03</totfact>
</mgrwt>
</event>
<event>
 5    1  0.1438401E-002  0.1249898E+03  0.7818608E-02  0.1235085E+00
          4   -1    0    0  501    0  0.00000000000E+00  0.00000000000E+00  0.18265984807E+03  0.18266426305E+03  0.12700000000E+01 0.  1.
         -4   -1    0    0    0  501 -0.00000000000E+00 -0.00000000000E+00 -0.21358340374E+02  0.21396065141E+02  0.12700000000E+01 0.  1.
         25    2    1    2    0    0  0.00000000000E+00  0.00000000000E+00  0.16130150770E+03  0.20406032820E+03  0.12498976421E+03 0.  0.
    9000005    1    3    3    0    0 -0.52883052529E+02  0.32010699684E+02  0.65749326202E+02  0.90251183012E+02  0.10000000000E+01 0.  0.
    9000005    1    3    3    0    0  0.52883052529E+02 -0.32010699684E+02  0.95552181494E+02  0.11380914518E+03  0.10000000000E+01 0.  0.
<mgrwt>
<rscale>  0 0.12498976E+03</rscale>
<asrwt>0</asrwt>
<pdfrwt beam="1">  1        4 0.45670229E-01 0.12498976E+03</pdfrwt>
<pdfrwt beam="2">  1       -4 0.53448526E-02 0.12498976E+03</pdfrwt>
<totfact> 0.16164564E+03</totfact>
</mgrwt>
</event>
<event>
 5    1  0.1438401E-002  0.1249995E+03  0.7818608E-02  0.1235070E+00
         -4   -1    0    0    0  501 -0.00000000000E+00  0.00000000000E+00  0.24713407524E+02  0.24746018093E+02  0.12700000000E+01 0.  1.
          4   -1    0    0  501    0  0.00000000000E+00 -0.00000000000E+00 -0.15792126248E+03  0.15792636905E+03  0.12700000000E+01 0.  1.
         25    2    1    2    0    0  0.00000000000E+00  0.00000000000E+00 -0.13320785495E+03  0.18267238715E+03  0.12499947362E+03 0.  0.
    9000005    1    3    3    0    0 -0.33343817335E+02 -0.45611596559E+02 -0.10562562853E+03  0.11979149093E+03  0.10000000000E+01 0.  0.
    9000005    1    3    3    0    0  0.33343817335E+02  0.45611596559E+02 -0.27582226418E+02  0.62880896219E+02  0.10000000000E+01 0.  0.
<mgrwt>
<rscale>  0 0.12499947E+03</rscale>
<asrwt>0</asrwt>
<pdfrwt beam="2">  1        4 0.39485027E-01 0.12499947E+03</pdfrwt>
<pdfrwt beam="1">  1       -4 0.61830670E-02 0.12499947E+03</pdfrwt>
<totfact> 0.17040369E+03</totfact>
</mgrwt>
</event>
<event>
 5    1  0.1438401E-002  0.1250039E+03  0.7818608E-02  0.1235063E+00
         -4   -1    0    0    0  501 -0.00000000000E+00  0.00000000000E+00  0.17563176072E+03  0.17563635237E+03  0.12700000000E+01 0.  1.
          4   -1    0    0  501    0  0.00000000000E+00 -0.00000000000E+00 -0.22219523502E+02  0.22255788565E+02  0.12700000000E+01 0.  1.
         25    2    1    2    0    0  0.00000000000E+00  0.00000000000E+00  0.15341223722E+03  0.19789214093E+03  0.12500393960E+03 0.  0.
    9000005    1    3    3    0    0 -0.10691477501E+02 -0.52875743068E+02  0.12665106148E+03  0.13766496747E+03  0.10000000000E+01 0.  0.
    9000005    1    3    3    0    0  0.10691477501E+02  0.52875743068E+02  0.26761175740E+02  0.60227173461E+02  0.10000000000E+01 0.  0.
<mgrwt>
<rscale>  0 0.12500394E+03</rscale>
<asrwt>0</asrwt>
<pdfrwt beam="2">  1        4 0.55599881E-02 0.12500394E+03</pdfrwt>
<pdfrwt beam="1">  1       -4 0.43913046E-01 0.12500394E+03</pdfrwt>
<totfact> 0.16405297E+03</totfact>
</mgrwt>
</event>
<event>
 5    1  0.1438401E-002  0.1249959E+03  0.7818608E-02  0.1235076E+00
          4   -1    0    0  501    0  0.00000000000E+00  0.00000000000E+00  0.11909050216E+03  0.11909727371E+03  0.12700000000E+01 0. -1.
         -4   -1    0    0    0  501 -0.00000000000E+00 -0.00000000000E+00 -0.32778522094E+02  0.32803115868E+02  0.12700000000E+01 0. -1.
         25    2    1    2    0    0  0.00000000000E+00  0.00000000000E+00  0.86311980067E+02  0.15190038958E+03  0.12499588173E+03 0.  0.
    9000005    1    3    3    0    0 -0.20095208101E+02  0.44418396781E+02 -0.43502454147E+01  0.48956470424E+02  0.10000000000E+01 0.  0.
    9000005    1    3    3    0    0  0.20095208101E+02 -0.44418396781E+02  0.90662225482E+02  0.10294391915E+03  0.10000000000E+01 0.  0.
<mgrwt>
<rscale>  0 0.12499588E+03</rscale>
<asrwt>0</asrwt>
<pdfrwt beam="1">  1        4 0.29776546E-01 0.12499588E+03</pdfrwt>
<pdfrwt beam="2">  1       -4 0.81985513E-02 0.12499588E+03</pdfrwt>
<totfact> 0.18447499E+03</totfact>
</mgrwt>
</event>
<event>
 5    1  0.1438401E-002  0.1250067E+03  0.7818608E-02  0.1235059E+00
          4   -1    0    0  501    0  0.00000000000E+00  0.00000000000E+00  0.84470252055E+02  0.84479798664E+02  0.12700000000E+01 0. -1.
         -4   -1    0    0    0  501 -0.00000000000E+00 -0.00000000000E+00 -0.46228191563E+02  0.46245633255E+02  0.12700000000E+01 0. -1.
         25    2    1    2    0    0  0.00000000000E+00  0.00000000000E+00  0.38242060492E+02  0.13072543192E+03  0.12500673326E+03 0.  0.
    9000005    1    3    3    0    0  0.31521993938E+02  0.53674666197E+02  0.24949599838E+02  0.67067789774E+02  0.10000000000E+01 0.  0.
    9000005    1    3    3    0    0 -0.31521993938E+02 -0.53674666197E+02  0.13292460654E+02  0.63657642145E+02  0.10000000000E+01 0.  0.
<mgrwt>
<rscale>  0 0.12500673E+03</rscale>
<asrwt>0</asrwt>
<pdfrwt beam="1">  1        4 0.21120936E-01 0.12500673E+03</pdfrwt>
<pdfrwt beam="2">  1       -4 0.11560422E-01 0.12500673E+03</pdfrwt>
<totfact> 0.19522395E+03</totfact>
</mgrwt>
</event>
<event>
 5    1  0.1438401E-002  0.1249995E+03  0.7818608E-02  0.1235070E+00
         -4   -1    0    0    0  501 -0.00000000000E+00  0.00000000000E+00  0.25578907205E+03  0.25579222482E+03  0.12700000000E+01 0. -1.
          4   -1    0    0  501    0  0.00000000000E+00 -0.00000000000E+00 -0.15241602464E+02  0.15294422044E+02  0.12700000000E+01 0. -1.
         25    2    1    2    0    0  0.00000000000E+00  0.00000000000E+00  0.24054746959E+03  0.27108664687E+03  0.12499953994E+03 0.  0.
    9000005    1    3    3    0    0 -0.49435020427E+02  0.85893774222E+01  0.20105960230E+03  0.20722828554E+03  0.10000000000E+01 0.  0.
    9000005    1    3    3    0    0  0.49435020427E+02 -0.85893774222E+01  0.39487867285E+02  0.63858361330E+02  0.10000000000E+01 0.  0.
<mgrwt>
<rscale>  0 0.12499954E+03</rscale>
<asrwt>0</asrwt>
<pdfrwt beam="2">  1        4 0.38173973E-02 0.12499954E+03</pdfrwt>
<pdfrwt beam="1">  1       -4 0.63954262E-01 0.12499954E+03</pdfrwt>
<totfact> 0.13822083E+03</totfact>
</mgrwt>
</event>
<event>
 5    1  0.1438401E-002  0.1250001E+03  0.7818608E-02  0.1235069E+00
         -4   -1    0    0    0  501 -0.00000000000E+00  0.00000000000E+00  0.10062799790E+02  0.10142624887E+02  0.12700000000E+01 0.  1.
          4   -1    0    0  501    0  0.00000000000E+00 -0.00000000000E+00 -0.38657305052E+03  0.38657513667E+03  0.12700000000E+01 0.  1.
         25    2    1    2    0    0  0.00000000000E+00  0.00000000000E+00 -0.37651025073E+03  0.39671776155E+03  0.12500005371E+03 0.  0.
    9000005    1    3    3    0    0 -0.47957540709E+01 -0.21639140285E+02 -0.37369507992E+03  0.37435312795E+03  0.10000000000E+01 0.  0.
    9000005    1    3    3    0    0  0.47957540709E+01  0.21639140285E+02 -0.28151708065E+01  0.22364633600E+02  0.10000000000E+01 0.  0.
<mgrwt>
<rscale>  0 0.12500005E+03</rscale>
<asrwt>0</asrwt>
<pdfrwt beam="2">  1        4 0.96653452E-01 0.12500005E+03</pdfrwt>
<pdfrwt beam="1">  1       -4 0.25259401E-02 0.12500005E+03</pdfrwt>
<totfact> 0.10637113E+03</totfact>
</mgrwt>
</event>
<event>
 5    1  0.1438401E-002  0.1249997E+03  0.7818608E-02  0.1235070E+00
          4   -1    0    0  501    0  0.00000000000E+00  0.00000000000E+00  0.27843007375E+03  0.27843297016E+03  0.12700000000E+01 0. -1.
         -4   -1    0    0    0  501 -0.00000000000E+00 -0.00000000000E+00 -0.13997767477E+02  0.14055262159E+02  0.12700000000E+01 0. -1.
         25    2    1    2    0    0  0.00000000000E+00  0.00000000000E+00  0.26443230627E+03  0.29248823231E+03  0.12499968576E+03 0.  0.
    9000005    1    3    3    0    0  0.55757997656E+02  0.21750742252E+02  0.90150990969E+02  0.10821390975E+03  0.10000000000E+01 0.  0.
    9000005    1    3    3    0    0 -0.55757997656E+02 -0.21750742252E+02  0.17428131531E+03  0.18427432256E+03  0.10000000000E+01 0.  0.
<mgrwt>
<rscale>  0 0.12499969E+03</rscale>
<asrwt>0</asrwt>
<pdfrwt beam="1">  1        4 0.69615067E-01 0.12499969E+03</pdfrwt>
<pdfrwt beam="2">  1       -4 0.35069908E-02 0.12499969E+03</pdfrwt>
<totfact> 0.13184325E+03</totfact>
</mgrwt>
</event>
<event>
 5    1  0.1438401E-002  0.1250015E+03  0.7818608E-02  0.1235067E+00
          4   -1    0    0  501    0  0.00000000000E+00  0.00000000000E+00  0.36619904463E+02  0.36641920022E+02  0.12700000000E+01 0. -1.
         -4   -1    0    0    0  501 -0.00000000000E+00 -0.00000000000E+00 -0.10661484210E+03  0.10662240598E+03  0.12700000000E+01 0. -1.
         25    2    1    2    0    0  0.00000000000E+00  0.00000000000E+00 -0.69994937641E+02  0.14326432600E+03  0.12500150323E+03 0.  0.
    9000005    1    3    3    0    0  0.24867692687E+02 -0.52994724202E+02 -0.99268958851E+01  0.59383383153E+02  0.10000000000E+01 0.  0.
    9000005    1    3    3    0    0 -0.24867692687E+02  0.52994724202E+02 -0.60068041755E+02  0.83880942848E+02  0.10000000000E+01 0.  0.
<mgrwt>
<rscale>  0 0.12500150E+03</rscale>
<asrwt>0</asrwt>
<pdfrwt beam="1">  1        4 0.91586738E-02 0.12500150E+03</pdfrwt>
<pdfrwt beam="2">  1       -4 0.26657407E-01 0.12500150E+03</pdfrwt>
<totfact> 0.18873910E+03</totfact>
</mgrwt>
</event>
<event>
 5    1  0.1438401E-002  0.1250022E+03  0.7818608E-02  0.1235066E+00
          4   -1    0    0  501    0  0.00000000000E+00  0.00000000000E+00  0.83378029121E+01  0.84339704411E+01  0.12700000000E+01 0.  1.
         -4   -1    0    0    0  501 -0.00000000000E+00 -0.00000000000E+00 -0.46573187213E+03  0.46573360370E+03  0.12700000000E+01 0.  1.
         25    2    1    2    0    0  0.00000000000E+00  0.00000000000E+00 -0.45739406921E+03  0.47416757414E+03  0.12500221523E+03 0.  0.
    9000005    1    3    3    0    0 -0.17541002111E+02  0.29355170467E+02 -0.30283973608E+02  0.45689515709E+02  0.10000000000E+01 0.  0.
    9000005    1    3    3    0    0  0.17541002111E+02 -0.29355170467E+02 -0.42711009561E+03  0.42847805843E+03  0.10000000000E+01 0.  0.
<mgrwt>
<rscale>  0 0.12500222E+03</rscale>
<asrwt>0</asrwt>
<pdfrwt beam="1">  1        4 0.20966897E-02 0.12500222E+03</pdfrwt>
<pdfrwt beam="2">  1       -4 0.11644512E+00 0.12500222E+03</pdfrwt>
<totfact> 0.91829375E+02</totfact>
</mgrwt>
</event>
<event>
 5    1  0.1438401E-002  0.1250013E+03  0.7818608E-02  0.1235067E+00
          4   -1    0    0  501    0  0.00000000000E+00  0.00000000000E+00  0.29947443778E+02  0.29974360524E+02  0.12700000000E+01 0. -1.
         -4   -1    0    0    0  501 -0.00000000000E+00 -0.00000000000E+00 -0.13035086734E+03  0.13035705395E+03  0.12700000000E+01 0. -1.
         25    2    1    2    0    0  0.00000000000E+00  0.00000000000E+00 -0.10040342356E+03  0.16033141448E+03  0.12500126002E+03 0.  0.
    9000005    1    3    3    0    0 -0.24516023465E+02  0.57293169147E+02 -0.44214920457E+02  0.76416633192E+02  0.10000000000E+01 0.  0.
    9000005    1    3    3    0    0  0.24516023465E+02 -0.57293169147E+02 -0.56188503100E+02  0.83914781285E+02  0.10000000000E+01 0.  0.
<mgrwt>
<rscale>  0 0.12500126E+03</rscale>
<asrwt>0</asrwt>
<pdfrwt beam="1">  1        4 0.74909992E-02 0.12500126E+03</pdfrwt>
<pdfrwt beam="2">  1       -4 0.32591853E-01 0.12500126E+03</pdfrwt>
<totfact> 0.18041640E+03</totfact>
</mgrwt>
</event>
<event>
 5    1  0.1438401E-002  0.1249881E+03  0.7818608E-02  0.1235088E+00
          4   -1    0    0  501    0  0.00000000000E+00  0.00000000000E+00  0.18850091920E+02  0.18892825765E+02  0.12700000000E+01 0. -1.
         -4   -1    0    0    0  501 -0.00000000000E+00 -0.00000000000E+00 -0.20690830874E+03  0.20691220632E+03  0.12700000000E+01 0. -1.
         25    2    1    2    0    0  0.00000000000E+00  0.00000000000E+00 -0.18805821682E+03  0.22580503209E+03  0.12498807784E+03 0.  0.
    9000005    1    3    3    0    0 -0.38449634322E+02 -0.29711028504E+02 -0.16500358647E+03  0.17201250868E+03  0.10000000000E+01 0.  0.
    9000005    1    3    3    0    0  0.38449634322E+02  0.29711028504E+02 -0.23054630353E+02  0.53792523412E+02  0.10000000000E+01 0.  0.
<mgrwt>
<rscale>  0 0.12498808E+03</rscale>
<asrwt>0</asrwt>
<pdfrwt beam="1">  1        4 0.47183525E-02 0.12498808E+03</pdfrwt>
<pdfrwt beam="2">  1       -4 0.51732899E-01 0.12498808E+03</pdfrwt>
<totfact> 0.15342593E+03</totfact>
</mgrwt>
</event>
<event>
 5    1  0.1438401E-002  0.1250006E+03  0.7818608E-02  0.1235068E+00
         -4   -1    0    0    0  501 -0.00000000000E+00  0.00000000000E+00  0.30737265226E+02  0.30763490919E+02  0.12700000000E+01 0. -1.
          4   -1    0    0  501    0  0.00000000000E+00 -0.00000000000E+00 -0.12700272399E+03  0.12700907369E+03  0.12700000000E+01 0. -1.
         25    2    1    2    0    0  0.00000000000E+00  0.00000000000E+00 -0.96265458763E+02  0.15777256461E+03  0.12500057437E+03 0.  0.
    9000005    1    3    3    0    0 -0.59976580962E+02 -0.71399905927E+01 -0.27893956783E+02  0.66537527415E+02  0.10000000000E+01 0.  0.
    9000005    1    3    3    0    0  0.59976580962E+02  0.71399905927E+01 -0.68371501980E+02  0.91235037198E+02  0.10000000000E+01 0.  0.
<mgrwt>
<rscale>  0 0.12500057E+03</rscale>
<asrwt>0</asrwt>
<pdfrwt beam="2">  1        4 0.31754752E-01 0.12500057E+03</pdfrwt>
<pdfrwt beam="1">  1       -4 0.76883885E-02 0.12500057E+03</pdfrwt>
<totfact> 0.18162845E+03</totfact>
</mgrwt>
</event>
<event>
 5    1  0.1438401E-002  0.1250004E+03  0.7818608E-02  0.1235069E+00
          4   -1    0    0  501    0  0.00000000000E+00  0.00000000000E+00  0.34188385441E+03  0.34188621324E+03  0.12700000000E+01 0. -1.
         -4   -1    0    0    0  501 -0.00000000000E+00 -0.00000000000E+00 -0.11388042678E+02  0.11458639362E+02  0.12700000000E+01 0. -1.
         25    2    1    2    0    0  0.00000000000E+00  0.00000000000E+00  0.33049581173E+03  0.35334485260E+03  0.12500041316E+03 0.  0.
    9000005    1    3    3    0    0 -0.48697490460E+02  0.20878211077E+02  0.71583462845E+02  0.89064793424E+02  0.10000000000E+01 0.  0.
    9000005    1    3    3    0    0  0.48697490460E+02 -0.20878211077E+02  0.25891234889E+03  0.26428005918E+03  0.10000000000E+01 0.  0.
<mgrwt>
<rscale>  0 0.12500041E+03</rscale>
<asrwt>0</asrwt>
<pdfrwt beam="1">  1        4 0.85480083E-01 0.12500041E+03</pdfrwt>
<pdfrwt beam="2">  1       -4 0.28561301E-02 0.12500041E+03</pdfrwt>
<totfact> 0.11597837E+03</totfact>
</mgrwt>
</event>
<event>
 5    1  0.1438401E-002  0.1250116E+03  0.7818608E-02  0.1235051E+00
         -4   -1    0    0    0  501 -0.00000000000E+00  0.00000000000E+00  0.19619259736E+02  0.19660321782E+02  0.12700000000E+01 0. -1.
          4   -1    0    0  501    0  0.00000000000E+00 -0.00000000000E+00 -0.19888851761E+03  0.19889257235E+03  0.12700000000E+01 0. -1.
         25    2    1    2    0    0  0.00000000000E+00  0.00000000000E+00 -0.17926925787E+03  0.21855289414E+03  0.12501160232E+03 0.  0.
    9000005    1    3    3    0    0 -0.96502892025E+01  0.17125518419E+02 -0.19335179843E+03  0.19435104687E+03  0.10000000000E+01 0.  0.
    9000005    1    3    3    0    0  0.96502892025E+01 -0.17125518419E+02  0.14082540553E+02  0.24201847269E+02  0.10000000000E+01 0.  0.
<mgrwt>
<rscale>  0 0.12501160E+03</rscale>
<asrwt>0</asrwt>
<pdfrwt beam="2">  1        4 0.49727763E-01 0.12501160E+03</pdfrwt>
<pdfrwt beam="1">  1       -4 0.49104551E-02 0.12501160E+03</pdfrwt>
<totfact> 0.15600978E+03</totfact>
</mgrwt>
</event>
<event>
 5    1  0.1438401E-002  0.1249990E+03  0.7818608E-02  0.1235071E+00
          4   -1    0    0  501    0  0.00000000000E+00  0.00000000000E+00  0.39151755974E+01  0.41160053399E+01  0.12700000000E+01 0.  1.
         -4   -1    0    0    0  501 -0.00000000000E+00 -0.00000000000E+00 -0.97255464347E+03  0.97255547268E+03  0.12700000000E+01 0.  1.
         25    2    1    2    0    0  0.00000000000E+00  0.00000000000E+00 -0.96863946787E+03  0.97667147802E+03  0.12499902901E+03 0.  0.
    9000005    1    3    3    0    0 -0.37191355775E+02  0.44255747689E+02 -0.29885623692E+03  0.30439746795E+03  0.10000000000E+01 0.  0.
    9000005    1    3    3    0    0  0.37191355775E+02 -0.44255747689E+02 -0.66978323095E+03  0.67227401006E+03  0.10000000000E+01 0.  0.
<mgrwt>
<rscale>  0 0.12499903E+03</rscale>
<asrwt>0</asrwt>
<pdfrwt beam="1">  1        4 0.10040046E-02 0.12499903E+03</pdfrwt>
<pdfrwt beam="2">  1       -4 0.24316306E+00 0.12499903E+03</pdfrwt>
<totfact> 0.38701326E+02</totfact>
</mgrwt>
</event>
<event>
 5    1  0.1438401E-002  0.1250019E+03  0.7818608E-02  0.1235066E+00
         -4   -1    0    0    0  501 -0.00000000000E+00  0.00000000000E+00  0.16568052776E+03  0.16568539519E+03  0.12700000000E+01 0. -1.
          4   -1    0    0  501    0  0.00000000000E+00 -0.00000000000E+00 -0.23555385170E+02  0.23589596658E+02  0.12700000000E+01 0. -1.
         25    2    1    2    0    0  0.00000000000E+00  0.00000000000E+00  0.14212514259E+03  0.18927499185E+03  0.12500186551E+03 0.  0.
    9000005    1    3    3    0    0 -0.35718461147E+02 -0.55180449541E+01 -0.61324007126E+01  0.36672382324E+02  0.10000000000E+01 0.  0.
    9000005    1    3    3    0    0  0.35718461147E+02  0.55180449541E+01  0.14825754330E+03  0.15260260952E+03  0.10000000000E+01 0.  0.
<mgrwt>
<rscale>  0 0.12500187E+03</rscale>
<asrwt>0</asrwt>
<pdfrwt beam="2">  1        4 0.58937312E-02 0.12500187E+03</pdfrwt>
<pdfrwt beam="1">  1       -4 0.41425016E-01 0.12500187E+03</pdfrwt>
<totfact> 0.16759967E+03</totfact>
</mgrwt>
</event>
<event>
 5    1  0.1438401E-002  0.1249980E+03  0.7818608E-02  0.1235072E+00
         -4   -1    0    0    0  501 -0.00000000000E+00  0.00000000000E+00  0.55300800762E+02  0.55315381812E+02  0.12700000000E+01 0.  1.
          4   -1    0    0  501    0  0.00000000000E+00 -0.00000000000E+00 -0.70604509857E+02  0.70615931008E+02  0.12700000000E+01 0.  1.
         25    2    1    2    0    0  0.00000000000E+00  0.00000000000E+00 -0.15303709094E+02  0.12593131282E+03  0.12499796813E+03 0.  0.
    9000005    1    3    3    0    0 -0.47961824083E+02  0.34822357839E+02 -0.27603510332E+02  0.65390266534E+02  0.10000000000E+01 0.  0.
    9000005    1    3    3    0    0  0.47961824083E+02 -0.34822357839E+02  0.12299801237E+02  0.60541046285E+02  0.10000000000E+01 0.  0.
<mgrwt>
<rscale>  0 0.12499797E+03</rscale>
<asrwt>0</asrwt>
<pdfrwt beam="2">  1        4 0.17654378E-01 0.12499797E+03</pdfrwt>
<pdfrwt beam="1">  1       -4 0.13828451E-01 0.12499797E+03</pdfrwt>
<totfact> 0.19785573E+03</totfact>
</mgrwt>
</event>
<event>
 5    1  0.1438401E-002  0.1249988E+03  0.7818608E-02  0.1235071E+00
          4   -1    0    0  501    0  0.00000000000E+00  0.00000000000E+00  0.16522327086E+03  0.16522815176E+03  0.12700000000E+01 0. -1.
         -4   -1    0    0    0  501 -0.00000000000E+00 -0.00000000000E+00 -0.23619523857E+02  0.23653642579E+02  0.12700000000E+01 0. -1.
         25    2    1    2    0    0  0.00000000000E+00  0.00000000000E+00  0.14160374700E+03  0.18888179433E+03  0.12499884426E+03 0.  0.
    9000005    1    3    3    0    0 -0.51605064778E+02 -0.31808750405E+02  0.93733222978E+02  0.11163241645E+03  0.10000000000E+01 0.  0.
    9000005    1    3    3    0    0  0.51605064778E+02  0.31808750405E+02  0.47870524021E+02  0.77249377882E+02  0.10000000000E+01 0.  0.
<mgrwt>
<rscale>  0 0.12499884E+03</rscale>
<asrwt>0</asrwt>
<pdfrwt beam="1">  1        4 0.41310692E-01 0.12499884E+03</pdfrwt>
<pdfrwt beam="2">  1       -4 0.59097561E-02 0.12499884E+03</pdfrwt>
<totfact> 0.16777579E+03</totfact>
</mgrwt>
</event>
<event>
 5    1  0.1438401E-002  0.1249995E+03  0.7818608E-02  0.1235070E+00
         -4   -1    0    0    0  501 -0.00000000000E+00  0.00000000000E+00  0.73877089738E+03  0.73877198899E+03  0.12700000000E+01 0.  1.
          4   -1    0    0  501    0  0.00000000000E+00 -0.00000000000E+00 -0.52100848741E+01  0.53626378206E+01  0.12700000000E+01 0.  1.
         25    2    1    2    0    0  0.00000000000E+00  0.00000000000E+00  0.73356081251E+03  0.74413462681E+03  0.12499950869E+03 0.  0.
    9000005    1    3    3    0    0 -0.49737672700E+02  0.32893322540E+02  0.47805921087E+03  0.48176489686E+03  0.10000000000E+01 0.  0.
    9000005    1    3    3    0    0  0.49737672700E+02 -0.32893322540E+02  0.25550160164E+03  0.26236972995E+03  0.10000000000E+01 0.  0.
<mgrwt>
<rscale>  0 0.12499951E+03</rscale>
<asrwt>0</asrwt>
<pdfrwt beam="2">  1        4 0.13217264E-02 0.12499951E+03</pdfrwt>
<pdfrwt beam="1">  1       -4 0.18471198E+00 0.12499951E+03</pdfrwt>
<totfact> 0.57633986E+02</totfact>
</mgrwt>
</event>
<event>
 5    1  0.1438401E-002  0.1250029E+03  0.7818608E-02  0.1235065E+00
         -4   -1    0    0    0  501 -0.00000000000E+00  0.00000000000E+00  0.12187737293E+03  0.12188398965E+03  0.12700000000E+01 0.  1.
          4   -1    0    0  501    0  0.00000000000E+00 -0.00000000000E+00 -0.32032077522E+02  0.32057243961E+02  0.12700000000E+01 0.  1.
         25    2    1    2    0    0  0.00000000000E+00  0.00000000000E+00  0.89845295408E+02  0.15394123361E+03  0.12500290516E+03 0.  0.
    9000005    1    3    3    0    0  0.62024451291E+02 -0.76322615921E+01  0.44449521250E+02  0.76694484250E+02  0.10000000000E+01 0.  0.
    9000005    1    3    3    0    0 -0.62024451291E+02  0.76322615921E+01  0.45395774158E+02  0.77246749358E+02  0.10000000000E+01 0.  0.
<mgrwt>
<rscale>  0 0.12500291E+03</rscale>
<asrwt>0</asrwt>
<pdfrwt beam="2">  1        4 0.80119923E-02 0.12500291E+03</pdfrwt>
<pdfrwt beam="1">  1       -4 0.30473316E-01 0.12500291E+03</pdfrwt>
<totfact> 0.18345433E+03</totfact>
</mgrwt>
</event>
<event>
 5    1  0.1438401E-002  0.1250034E+03  0.7818608E-02  0.1235064E+00
         -4   -1    0    0    0  501 -0.00000000000E+00  0.00000000000E+00  0.15869786808E+02  0.15920522395E+02  0.12700000000E+01 0.  1.
          4   -1    0    0  501    0  0.00000000000E+00 -0.00000000000E+00 -0.24571215001E+03  0.24571543208E+03  0.12700000000E+01 0.  1.
         25    2    1    2    0    0  0.00000000000E+00  0.00000000000E+00 -0.22984236320E+03  0.26163595448E+03  0.12500344296E+03 0.  0.
    9000005    1    3    3    0    0  0.61415887168E+02  0.11519286704E+02 -0.11686220617E+03  0.13252313154E+03  0.10000000000E+01 0.  0.
    9000005    1    3    3    0    0 -0.61415887168E+02 -0.11519286704E+02 -0.11298015704E+03  0.12911282294E+03  0.10000000000E+01 0.  0.
<mgrwt>
<rscale>  0 0.12500344E+03</rscale>
<asrwt>0</asrwt>
<pdfrwt beam="2">  1        4 0.61434778E-01 0.12500344E+03</pdfrwt>
<pdfrwt beam="1">  1       -4 0.39741997E-02 0.12500344E+03</pdfrwt>
<totfact> 0.14117653E+03</totfact>
</mgrwt>
</event>
<event>
 5    1  0.1438401E-002  0.1250002E+03  0.7818608E-02  0.1235069E+00
         -4   -1    0    0    0  501 -0.00000000000E+00  0.00000000000E+00  0.43793456755E+02  0.43811867736E+02  0.12700000000E+01 0. -1.
          4   -1    0    0  501    0  0.00000000000E+00 -0.00000000000E+00 -0.89155761316E+02  0.89164806262E+02  0.12700000000E+01 0. -1.
         25    2    1    2    0    0  0.00000000000E+00  0.00000000000E+00 -0.45362304560E+02  0.13297667400E+03  0.12500022861E+03 0.  0.
    9000005    1    3    3    0    0 -0.43218826786E+02 -0.20872993770E+02  0.19894110647E+02  0.51964646599E+02  0.10000000000E+01 0.  0.
    9000005    1    3    3    0    0  0.43218826786E+02  0.20872993770E+02 -0.65256415208E+02  0.81012027400E+02  0.10000000000E+01 0.  0.
<mgrwt>
<rscale>  0 0.12500023E+03</rscale>
<asrwt>0</asrwt>
<pdfrwt beam="2">  1        4 0.22292372E-01 0.12500023E+03</pdfrwt>
<pdfrwt beam="1">  1       -4 0.10951796E-01 0.12500023E+03</pdfrwt>
<totfact> 0.19405545E+03</totfact>
</mgrwt>
</event>
<event>
 5    1  0.1438401E-002  0.1250002E+03  0.7818608E-02  0.1235069E+00
         -4   -1    0    0    0  501 -0.00000000000E+00  0.00000000000E+00  0.68601457027E+02  0.68613211601E+02  0.12700000000E+01 0. -1.
          4   -1    0    0  501    0  0.00000000000E+00 -0.00000000000E+00 -0.56917708091E+02  0.56931875029E+02  0.12700000000E+01 0. -1.
         25    2    1    2    0    0  0.00000000000E+00  0.00000000000E+00  0.11683748936E+02  0.12554508663E+03  0.12500023515E+03 0.  0.
    9000005    1    3    3    0    0 -0.12950235865E+02 -0.61124866527E+02  0.69900019682E+01  0.62879392844E+02  0.10000000000E+01 0.  0.
    9000005    1    3    3    0    0  0.12950235865E+02  0.61124866527E+02  0.46937469680E+01  0.62665693785E+02  0.10000000000E+01 0.  0.
<mgrwt>
<rscale>  0 0.12500024E+03</rscale>
<asrwt>0</asrwt>
<pdfrwt beam="2">  1        4 0.14232667E-01 0.12500024E+03</pdfrwt>
<pdfrwt beam="1">  1       -4 0.17153604E-01 0.12500024E+03</pdfrwt>
<totfact> 0.19805414E+03</totfact>
</mgrwt>
</event>
<event>
 5    1  0.1438401E-002  0.1250028E+03  0.7818608E-02  0.1235065E+00
          4   -1    0    0  501    0  0.00000000000E+00  0.00000000000E+00  0.38172120137E+03  0.38172331403E+03  0.12700000000E+01 0. -1.
         -4   -1    0    0    0  501 -0.00000000000E+00 -0.00000000000E+00 -0.10192161399E+02  0.10270981160E+02  0.12700000000E+01 0. -1.
         25    2    1    2    0    0  0.00000000000E+00  0.00000000000E+00  0.37152903997E+03  0.39199429519E+03  0.12500279965E+03 0.  0.
    9000005    1    3    3    0    0 -0.48747618106E+02  0.12509703326E+02  0.69584264952E+02  0.85882436372E+02  0.10000000000E+01 0.  0.
    9000005    1    3    3    0    0  0.48747618106E+02 -0.12509703326E+02  0.30194477502E+03  0.30611185882E+03  0.10000000000E+01 0.  0.
<mgrwt>
<rscale>  0 0.12500280E+03</rscale>
<asrwt>0</asrwt>
<pdfrwt beam="1">  1        4 0.95440409E-01 0.12500280E+03</pdfrwt>
<pdfrwt beam="2">  1       -4 0.25581571E-02 0.12500280E+03</pdfrwt>
<totfact> 0.10735299E+03</totfact>
</mgrwt>
</event>
<event>
 5    1  0.1438401E-002  0.1250003E+03  0.7818608E-02  0.1235069E+00
         -4   -1    0    0    0  501 -0.00000000000E+00  0.00000000000E+00  0.19003128813E+02  0.19045519281E+02  0.12700000000E+01 0. -1.
          4   -1    0    0  501    0  0.00000000000E+00 -0.00000000000E+00 -0.20528585213E+03  0.20528978052E+03  0.12700000000E+01 0. -1.
         25    2    1    2    0    0  0.00000000000E+00  0.00000000000E+00 -0.18628272332E+03  0.22433529980E+03  0.12500029491E+03 0.  0.
    9000005    1    3    3    0    0 -0.60143879812E+02 -0.80155776712E+01 -0.66297111364E+02  0.89876819812E+02  0.10000000000E+01 0.  0.
    9000005    1    3    3    0    0  0.60143879812E+02  0.80155776712E+01 -0.11998561195E+03  0.13445847998E+03  0.10000000000E+01 0.  0.
<mgrwt>
<rscale>  0 0.12500029E+03</rscale>
<asrwt>0</asrwt>
<pdfrwt beam="2">  1        4 0.51327246E-01 0.12500029E+03</pdfrwt>
<pdfrwt beam="1">  1       -4 0.47565727E-02 0.12500029E+03</pdfrwt>
<totfact> 0.15391754E+03</totfact>
</mgrwt>
</event>
<event>
 5    1  0.1438401E-002  0.1250016E+03  0.7818608E-02  0.1235067E+00
         -4   -1    0    0    0  501 -0.00000000000E+00  0.00000000000E+00  0.21797370482E+03  0.21797740455E+03  0.12700000000E+01 0. -1.
          4   -1    0    0  501    0  0.00000000000E+00 -0.00000000000E+00 -0.17894837978E+02  0.17939847443E+02  0.12700000000E+01 0. -1.
         25    2    1    2    0    0  0.00000000000E+00  0.00000000000E+00  0.20007886685E+03  0.23591725199E+03  0.12500158731E+03 0.  0.
    9000005    1    3    3    0    0 -0.12574467391E+02  0.29483328896E+02 -0.12086822270E+01  0.32091195454E+02  0.10000000000E+01 0.  0.
    9000005    1    3    3    0    0  0.12574467391E+02 -0.29483328896E+02  0.20128754907E+03  0.20382605654E+03  0.10000000000E+01 0.  0.
<mgrwt>
<rscale>  0 0.12500159E+03</rscale>
<asrwt>0</asrwt>
<pdfrwt beam="2">  1        4 0.44797982E-02 0.12500159E+03</pdfrwt>
<pdfrwt beam="1">  1       -4 0.54499514E-01 0.12500159E+03</pdfrwt>
<totfact> 0.14977607E+03</totfact>
</mgrwt>
</event>
<event>
 5    1  0.1438401E-002  0.1249998E+03  0.7818608E-02  0.1235070E+00
          4   -1    0    0  501    0  0.00000000000E+00  0.00000000000E+00  0.13549522252E+03  0.13550117426E+03  0.12700000000E+01 0.  1.
         -4   -1    0    0    0  501 -0.00000000000E+00 -0.00000000000E+00 -0.28808743515E+02  0.28836723165E+02  0.12700000000E+01 0.  1.
         25    2    1    2    0    0  0.00000000000E+00  0.00000000000E+00  0.10668647900E+03  0.16433789742E+03  0.12499975891E+03 0.  0.
    9000005    1    3    3    0    0 -0.50799974544E+02  0.19967364120E+02  0.13338537862E+02  0.56198306344E+02  0.10000000000E+01 0.  0.
    9000005    1    3    3    0    0  0.50799974544E+02 -0.19967364120E+02  0.93347941142E+02  0.10813959108E+03  0.10000000000E+01 0.  0.
<mgrwt>
<rscale>  0 0.12499976E+03</rscale>
<asrwt>0</asrwt>
<pdfrwt beam="1">  1        4 0.33878047E-01 0.12499976E+03</pdfrwt>
<pdfrwt beam="2">  1       -4 0.72064274E-02 0.12499976E+03</pdfrwt>
<totfact> 0.17855597E+03</totfact>
</mgrwt>
</event>
<event>
 5    1  0.1438401E-002  0.1249966E+03  0.7818608E-02  0.1235075E+00
          4   -1    0    0  501    0  0.00000000000E+00  0.00000000000E+00  0.39353596735E+03  0.39353801658E+03  0.12700000000E+01 0. -1.
         -4   -1    0    0    0  501 -0.00000000000E+00 -0.00000000000E+00 -0.98827872382E+01  0.99640545761E+01  0.12700000000E+01 0. -1.
         25    2    1    2    0    0  0.00000000000E+00  0.00000000000E+00  0.38365318011E+03  0.40350207116E+03  0.12499663524E+03 0.  0.
    9000005    1    3    3    0    0  0.55098451423E+01  0.59850958698E+02  0.24703981114E+03  0.25424823291E+03  0.10000000000E+01 0.  0.
    9000005    1    3    3    0    0 -0.55098451423E+01 -0.59850958698E+02  0.13661336897E+03  0.14925383825E+03  0.10000000000E+01 0.  0.
<mgrwt>
<rscale>  0 0.12499664E+03</rscale>
<asrwt>0</asrwt>
<pdfrwt beam="1">  1        4 0.98394403E-01 0.12499664E+03</pdfrwt>
<pdfrwt beam="2">  1       -4 0.24811115E-02 0.12499664E+03</pdfrwt>
<totfact> 0.10498221E+03</totfact>
</mgrwt>
</event>
<event>
 5    1  0.1438401E-002  0.1250237E+03  0.7818608E-02  0.1235032E+00
          4   -1    0    0  501    0  0.00000000000E+00  0.00000000000E+00  0.78060717230E+01  0.79087075901E+01  0.12700000000E+01 0. -1.
         -4   -1    0    0    0  501 -0.00000000000E+00 -0.00000000000E+00 -0.49722845405E+03  0.49723007593E+03  0.12700000000E+01 0. -1.
         25    2    1    2    0    0  0.00000000000E+00  0.00000000000E+00 -0.48942238232E+03  0.50513878352E+03  0.12502368696E+03 0.  0.
    9000005    1    3    3    0    0 -0.30003322744E+01 -0.59223374756E+02 -0.16488800245E+03  0.17522974480E+03  0.10000000000E+01 0.  0.
    9000005    1    3    3    0    0  0.30003322744E+01  0.59223374756E+02 -0.32453437987E+03  0.32990903872E+03  0.10000000000E+01 0.  0.
<mgrwt>
<rscale>  0 0.12502369E+03</rscale>
<asrwt>0</asrwt>
<pdfrwt beam="1">  1        4 0.19645518E-02 0.12502369E+03</pdfrwt>
<pdfrwt beam="2">  1       -4 0.12432004E+00 0.12502369E+03</pdfrwt>
<totfact> 0.86748823E+02</totfact>
</mgrwt>
</event>
<event>
 5    1  0.1438401E-002  0.1249960E+03  0.7818608E-02  0.1235076E+00
          4   -1    0    0  501    0  0.00000000000E+00  0.00000000000E+00  0.72080805554E+03  0.72080917435E+03  0.12700000000E+01 0.  1.
         -4   -1    0    0    0  501 -0.00000000000E+00 -0.00000000000E+00 -0.53433682634E+01  0.54922203523E+01  0.12700000000E+01 0.  1.
         25    2    1    2    0    0  0.00000000000E+00  0.00000000000E+00  0.71546468727E+03  0.72630139470E+03  0.12499598878E+03 0.  0.
    9000005    1    3    3    0    0 -0.58237883214E+02 -0.21991792065E+02  0.38940374845E+03  0.39434955213E+03  0.10000000000E+01 0.  0.
    9000005    1    3    3    0    0  0.58237883214E+02  0.21991792065E+02  0.32606093882E+03  0.33195184257E+03  0.10000000000E+01 0.  0.
<mgrwt>
<rscale>  0 0.12499599E+03</rscale>
<asrwt>0</asrwt>
<pdfrwt beam="1">  1        4 0.18022075E+00 0.12499599E+03</pdfrwt>
<pdfrwt beam="2">  1       -4 0.13545885E-02 0.12499599E+03</pdfrwt>
<totfact> 0.59387371E+02</totfact>
</mgrwt>
</event>
<event>
 5    1  0.1438401E-002  0.1250005E+03  0.7818608E-02  0.1235069E+00
         -4   -1    0    0    0  501 -0.00000000000E+00  0.00000000000E+00  0.71567847977E+02  0.71579115419E+02  0.12700000000E+01 0.  1.
          4   -1    0    0  501    0  0.00000000000E+00 -0.00000000000E+00 -0.54558525130E+02  0.54573304503E+02  0.12700000000E+01 0.  1.
         25    2    1    2    0    0  0.00000000000E+00  0.00000000000E+00  0.17009322848E+02  0.12615241992E+03  0.12500046395E+03 0.  0.
    9000005    1    3    3    0    0  0.46706584416E+02 -0.41179105785E+02  0.13850191399E+02  0.63796955906E+02  0.10000000000E+01 0.  0.
    9000005    1    3    3    0    0 -0.46706584416E+02  0.41179105785E+02  0.31591314490E+01  0.62355464015E+02  0.10000000000E+01 0.  0.
<mgrwt>
<rscale>  0 0.12500046E+03</rscale>
<asrwt>0</asrwt>
<pdfrwt beam="2">  1        4 0.13642887E-01 0.12500046E+03</pdfrwt>
<pdfrwt beam="1">  1       -4 0.17895218E-01 0.12500046E+03</pdfrwt>
<totfact> 0.19772471E+03</totfact>
</mgrwt>
</event>
<event>
 5    1  0.1438401E-002  0.1250010E+03  0.7818608E-02  0.1235068E+00
          4   -1    0    0  501    0  0.00000000000E+00  0.00000000000E+00  0.19469295067E+02  0.19510672730E+02  0.12700000000E+01 0. -1.
         -4   -1    0    0    0  501 -0.00000000000E+00 -0.00000000000E+00 -0.20038323513E+03  0.20038725963E+03  0.12700000000E+01 0. -1.
         25    2    1    2    0    0  0.00000000000E+00  0.00000000000E+00 -0.18091394006E+03  0.21989793236E+03  0.12500098778E+03 0.  0.
    9000005    1    3    3    0    0 -0.42595176019E+02  0.49769703360E+01 -0.17042070839E+03  0.17573655597E+03  0.10000000000E+01 0.  0.
    9000005    1    3    3    0    0  0.42595176019E+02 -0.49769703360E+01 -0.10493231669E+02  0.44161376390E+02  0.10000000000E+01 0.  0.
<mgrwt>
<rscale>  0 0.12500099E+03</rscale>
<asrwt>0</asrwt>
<pdfrwt beam="1">  1        4 0.48729997E-02 0.12500099E+03</pdfrwt>
<pdfrwt beam="2">  1       -4 0.50101478E-01 0.12500099E+03</pdfrwt>
<totfact> 0.15554773E+03</totfact>
</mgrwt>
</event>
<event>
 5    1  0.1438401E-002  0.1250087E+03  0.7818608E-02  0.1235056E+00
         -4   -1    0    0    0  501 -0.00000000000E+00  0.00000000000E+00  0.90164224468E+01  0.91054255111E+01  0.12700000000E+01 0.  1.
          4   -1    0    0  501    0  0.00000000000E+00 -0.00000000000E+00 -0.43107951894E+03  0.43108138971E+03  0.12700000000E+01 0.  1.
         25    2    1    2    0    0  0.00000000000E+00  0.00000000000E+00 -0.42206309650E+03  0.44018681522E+03  0.12500869917E+03 0.  0.
    9000005    1    3    3    0    0 -0.26616569864E+02 -0.53661909979E+02 -0.14826323016E+03  0.15990943622E+03  0.10000000000E+01 0.  0.
    9000005    1    3    3    0    0  0.26616569864E+02  0.53661909979E+02 -0.27379986634E+03  0.28027737900E+03  0.10000000000E+01 0.  0.
<mgrwt>
<rscale>  0 0.12500870E+03</rscale>
<asrwt>0</asrwt>
<pdfrwt beam="2">  1        4 0.10778117E+00 0.12500870E+03</pdfrwt>
<pdfrwt beam="1">  1       -4 0.22654663E-02 0.12500870E+03</pdfrwt>
<totfact> 0.97786614E+02</totfact>
</mgrwt>
</event>
<event>
 5    1  0.1438401E-002  0.1250043E+03  0.7818608E-02  0.1235063E+00
          4   -1    0    0  501    0  0.00000000000E+00  0.00000000000E+00  0.79023841758E+02  0.79034046247E+02  0.12700000000E+01 0. -1.
         -4   -1    0    0    0  501 -0.00000000000E+00 -0.00000000000E+00 -0.49413090738E+02  0.49429408617E+02  0.12700000000E+01 0. -1.
         25    2    1    2    0    0  0.00000000000E+00  0.00000000000E+00  0.29610751020E+02  0.12846345486E+03  0.12500425057E+03 0.  0.
    9000005    1    3    3    0    0  0.30440582994E+02 -0.92813331708E+01  0.70077960301E+02  0.76972025817E+02  0.10000000000E+01 0.  0.
    9000005    1    3    3    0    0 -0.30440582994E+02  0.92813331708E+01 -0.40467209280E+02  0.51491429048E+02  0.10000000000E+01 0.  0.
<mgrwt>
<rscale>  0 0.12500425E+03</rscale>
<asrwt>0</asrwt>
<pdfrwt beam="1">  1        4 0.19759276E-01 0.12500425E+03</pdfrwt>
<pdfrwt beam="2">  1       -4 0.12356588E-01 0.12500425E+03</pdfrwt>
<totfact> 0.19645406E+03</totfact>
</mgrwt>
</event>
<event>
 5    1  0.1438401E-002  0.1250113E+03  0.7818608E-02  0.1235052E+00
         -4   -1    0    0    0  501 -0.00000000000E+00  0.00000000000E+00  0.32134997531E+02  0.32160083431E+02  0.12700000000E+01 0.  1.
          4   -1    0    0  501    0  0.00000000000E+00 -0.00000000000E+00 -0.12150370028E+03  0.12151033734E+03  0.12700000000E+01 0.  1.
         25    2    1    2    0    0  0.00000000000E+00  0.00000000000E+00 -0.89368702748E+02  0.15367042077E+03  0.12501133225E+03 0.  0.
    9000005    1    3    3    0    0 -0.57292542641E+02  0.20306795130E+02 -0.62546905727E+02  0.87223372939E+02  0.10000000000E+01 0.  0.
    9000005    1    3    3    0    0  0.57292542641E+02 -0.20306795130E+02 -0.26821797021E+02  0.66447047836E+02  0.10000000000E+01 0.  0.
<mgrwt>
<rscale>  0 0.12501133E+03</rscale>
<asrwt>0</asrwt>
<pdfrwt beam="2">  1        4 0.30379889E-01 0.12501133E+03</pdfrwt>
<pdfrwt beam="1">  1       -4 0.80377151E-02 0.12501133E+03</pdfrwt>
<totfact> 0.18354928E+03</totfact>
</mgrwt>
</event>
<event>
 5    1  0.1438401E-002  0.1250013E+03  0.7818608E-02  0.1235067E+00
          4   -1    0    0  501    0  0.00000000000E+00  0.00000000000E+00  0.66207608487E+02  0.66219787991E+02  0.12700000000E+01 0.  1.
         -4   -1    0    0    0  501 -0.00000000000E+00 -0.00000000000E+00 -0.58976803225E+02  0.58990475661E+02  0.12700000000E+01 0.  1.
         25    2    1    2    0    0  0.00000000000E+00  0.00000000000E+00  0.72308052613E+01  0.12521026365E+03  0.12500130231E+03 0.  0.
    9000005    1    3    3    0    0  0.20092904291E+02  0.45702983746E+02  0.41266052607E+02  0.64779430561E+02  0.10000000000E+01 0.  0.
    9000005    1    3    3    0    0 -0.20092904291E+02 -0.45702983746E+02 -0.34035247346E+02  0.60430833090E+02  0.10000000000E+01 0.  0.
<mgrwt>
<rscale>  0 0.12500130E+03</rscale>
<asrwt>0</asrwt>
<pdfrwt beam="1">  1        4 0.16555133E-01 0.12500130E+03</pdfrwt>
<pdfrwt beam="2">  1       -4 0.14747432E-01 0.12500130E+03</pdfrwt>
<totfact> 0.19823053E+03</totfact>
</mgrwt>
</event>
<event>
 4    1  0.1438401E-002  0.1249176E+03  0.7818608E-02  0.1235198E+00
         -4   -1    0    0    0  501 -0.00000000000E+00  0.00000000000E+00  0.31990005328E+02  0.32015204839E+02  0.12700000000E+01 0.  1.
          4   -1    0    0  501    0  0.00000000000E+00 -0.00000000000E+00 -0.12187094141E+03  0.12187755848E+03  0.12700000000E+01 0.  1.
    9000005    1    1    2    0    0 -0.12138400642E+01 -0.82985259236E+01 -0.12118004894E+03  0.12147404332E+03  0.10000000000E+01 0.  0.
    9000005    1    1    2    0    0  0.12138400642E+01  0.82985259236E+01  0.31299112859E+02  0.32418719992E+02  0.10000000000E+01 0.  0.
<mgrwt>
<rscale>  0 0.12491757E+03</rscale>
<asrwt>0</asrwt>
<pdfrwt beam="2">  1        4 0.30471711E-01 0.12491757E+03</pdfrwt>
<pdfrwt beam="1">  1       -4 0.80014787E-02 0.12491757E+03</pdfrwt>
<totfact> 0.18384239E+03</totfact>
</mgrwt>
</event>
<event>
 5    1  0.1438401E-002  0.1249977E+03  0.7818608E-02  0.1235073E+00
          4   -1    0    0  501    0  0.00000000000E+00  0.00000000000E+00  0.32586520570E+02  0.32611259143E+02  0.12700000000E+01 0.  1.
         -4   -1    0    0    0  501 -0.00000000000E+00 -0.00000000000E+00 -0.11979520776E+03  0.11980193948E+03  0.12700000000E+01 0.  1.
         25    2    1    2    0    0  0.00000000000E+00  0.00000000000E+00 -0.87208687193E+02  0.15241319862E+03  0.12499771195E+03 0.  0.
    9000005    1    3    3    0    0  0.73267819033E+01  0.22728672496E+02 -0.11401810438E+03  0.11649636223E+03  0.10000000000E+01 0.  0.
    9000005    1    3    3    0    0 -0.73267819033E+01 -0.22728672496E+02  0.26809417187E+02  0.35916836392E+02  0.10000000000E+01 0.  0.
<mgrwt>
<rscale>  0 0.12499771E+03</rscale>
<asrwt>0</asrwt>
<pdfrwt beam="1">  1        4 0.81505642E-02 0.12499771E+03</pdfrwt>
<pdfrwt beam="2">  1       -4 0.29952735E-01 0.12499771E+03</pdfrwt>
<totfact> 0.18421738E+03</totfact>
</mgrwt>
</event>
<event>
 5    1  0.1438401E-002  0.1250026E+03  0.7818608E-02  0.1235065E+00
         -4   -1    0    0    0  501 -0.00000000000E+00  0.00000000000E+00  0.91877095454E+02  0.91885872522E+02  0.12700000000E+01 0. -1.
          4   -1    0    0  501    0  0.00000000000E+00 -0.00000000000E+00 -0.42497511145E+02  0.42516483316E+02  0.12700000000E+01 0. -1.
         25    2    1    2    0    0  0.00000000000E+00  0.00000000000E+00  0.49379584309E+02  0.13440235584E+03  0.12500259961E+03 0.  0.
    9000005    1    3    3    0    0 -0.17821585785E+02  0.34208576070E+02 -0.28176394286E+02  0.47778078567E+02  0.10000000000E+01 0.  0.
    9000005    1    3    3    0    0  0.17821585785E+02 -0.34208576070E+02  0.77555978596E+02  0.86624277270E+02  0.10000000000E+01 0.  0.
<mgrwt>
<rscale>  0 0.12500260E+03</rscale>
<asrwt>0</asrwt>
<pdfrwt beam="2">  1        4 0.10627847E-01 0.12500260E+03</pdfrwt>
<pdfrwt beam="1">  1       -4 0.22972742E-01 0.12500260E+03</pdfrwt>
<totfact> 0.19329314E+03</totfact>
</mgrwt>
</event>
<event>
 5    1  0.1438401E-002  0.1250122E+03  0.7818608E-02  0.1235050E+00
         -4   -1    0    0    0  501 -0.00000000000E+00  0.00000000000E+00  0.29693298644E+03  0.29693570236E+03  0.12700000000E+01 0. -1.
          4   -1    0    0  501    0  0.00000000000E+00 -0.00000000000E+00 -0.13124463873E+02  0.13185767022E+02  0.12700000000E+01 0. -1.
         25    2    1    2    0    0  0.00000000000E+00  0.00000000000E+00  0.28380852256E+03  0.31012146938E+03  0.12501219257E+03 0.  0.
    9000005    1    3    3    0    0  0.20332434391E+01  0.44611464600E+02  0.25036905331E+03  0.25432258985E+03  0.10000000000E+01 0.  0.
    9000005    1    3    3    0    0 -0.20332434391E+01 -0.44611464600E+02  0.33439469250E+02  0.55798879526E+02  0.10000000000E+01 0.  0.
<mgrwt>
<rscale>  0 0.12501219E+03</rscale>
<asrwt>0</asrwt>
<pdfrwt beam="2">  1        4 0.32891182E-02 0.12501219E+03</pdfrwt>
<pdfrwt beam="1">  1       -4 0.74241253E-01 0.12501219E+03</pdfrwt>
<totfact> 0.12688508E+03</totfact>
</mgrwt>
</event>
<event>
 5    1  0.1438401E-002  0.1249966E+03  0.7818608E-02  0.1235075E+00
          4   -1    0    0  501    0  0.00000000000E+00  0.00000000000E+00  0.55700838071E+03  0.55700982853E+03  0.12700000000E+01 0.  1.
         -4   -1    0    0    0  501 -0.00000000000E+00 -0.00000000000E+00 -0.69535611344E+01  0.70685863120E+01  0.12700000000E+01 0.  1.
         25    2    1    2    0    0  0.00000000000E+00  0.00000000000E+00  0.55005481958E+03  0.56407841485E+03  0.12499661417E+03 0.  0.
    9000005    1    3    3    0    0  0.50339661774E+02  0.37020795642E+02  0.27794339731E+03  0.28488270036E+03  0.10000000000E+01 0.  0.
    9000005    1    3    3    0    0 -0.50339661774E+02 -0.37020795642E+02  0.27211142227E+03  0.27919571449E+03  0.10000000000E+01 0.  0.
<mgrwt>
<rscale>  0 0.12499661E+03</rscale>
<asrwt>0</asrwt>
<pdfrwt beam="1">  1        4 0.13926665E+00 0.12499661E+03</pdfrwt>
<pdfrwt beam="2">  1       -4 0.17529494E-02 0.12499661E+03</pdfrwt>
<totfact> 0.78222775E+02</totfact>
</mgrwt>
</event>
<event>
 5    1  0.1438401E-002  0.1249962E+03  0.7818608E-02  0.1235075E+00
         -4   -1    0    0    0  501 -0.00000000000E+00  0.00000000000E+00  0.26315144625E+02  0.26345772652E+02  0.12700000000E+01 0. -1.
          4   -1    0    0  501    0  0.00000000000E+00 -0.00000000000E+00 -0.14831249844E+03  0.14831793585E+03  0.12700000000E+01 0. -1.
         25    2    1    2    0    0  0.00000000000E+00  0.00000000000E+00 -0.12199735382E+03  0.17466370850E+03  0.12499622686E+03 0.  0.
    9000005    1    3    3    0    0 -0.47233459417E+01  0.58451612996E+02 -0.91167018632E+02  0.10840353474E+03  0.10000000000E+01 0.  0.
    9000005    1    3    3    0    0  0.47233459417E+01 -0.58451612996E+02 -0.30830335188E+02  0.66260173759E+02  0.10000000000E+01 0.  0.
<mgrwt>
<rscale>  0 0.12499623E+03</rscale>
<asrwt>0</asrwt>
<pdfrwt beam="2">  1        4 0.37082630E-01 0.12499623E+03</pdfrwt>
<pdfrwt beam="1">  1       -4 0.65832948E-02 0.12499623E+03</pdfrwt>
<totfact> 0.17390245E+03</totfact>
</mgrwt>
</event>
<event>
 5    1  0.1438401E-002  0.1249846E+03  0.7818608E-02  0.1235093E+00
          4   -1    0    0  501    0  0.00000000000E+00  0.00000000000E+00  0.12789280620E+03  0.12789911172E+03  0.12700000000E+01 0.  1.
         -4   -1    0    0    0  501 -0.00000000000E+00 -0.00000000000E+00 -0.30515379283E+02  0.30541795507E+02  0.12700000000E+01 0.  1.
         25    2    1    2    0    0  0.00000000000E+00  0.00000000000E+00  0.97377426919E+02  0.15844090722E+03  0.12498463029E+03 0.  0.
    9000005    1    3    3    0    0  0.16562896525E+02 -0.19835221915E+02  0.12080778361E+03  0.12354467269E+03  0.10000000000E+01 0.  0.
    9000005    1    3    3    0    0 -0.16562896525E+02  0.19835221915E+02 -0.23430356693E+02  0.34896234531E+02  0.10000000000E+01 0.  0.
<mgrwt>
<rscale>  0 0.12498463E+03</rscale>
<asrwt>0</asrwt>
<pdfrwt beam="1">  1        4 0.31977291E-01 0.12498463E+03</pdfrwt>
<pdfrwt beam="2">  1       -4 0.76329351E-02 0.12498463E+03</pdfrwt>
<totfact> 0.18137855E+03</totfact>
</mgrwt>
</event>
<event>
 5    1  0.1438401E-002  0.1250005E+03  0.7818608E-02  0.1235069E+00
         -4   -1    0    0    0  501 -0.00000000000E+00  0.00000000000E+00  0.30674743915E+03  0.30675006817E+03  0.12700000000E+01 0. -1.
          4   -1    0    0  501    0  0.00000000000E+00 -0.00000000000E+00 -0.12700162363E+02  0.12763503596E+02  0.12700000000E+01 0. -1.
         25    2    1    2    0    0  0.00000000000E+00  0.00000000000E+00  0.29404727678E+03  0.31951357177E+03  0.12500048624E+03 0.  0.
    9000005    1    3    3    0    0  0.41283299875E+02 -0.44274407595E+02  0.18668407443E+03  0.19625615318E+03  0.10000000000E+01 0.  0.
    9000005    1    3    3    0    0 -0.41283299875E+02  0.44274407595E+02  0.10736320236E+03  0.12325741859E+03  0.10000000000E+01 0.  0.
<mgrwt>
<rscale>  0 0.12500049E+03</rscale>
<asrwt>0</asrwt>
<pdfrwt beam="2">  1        4 0.31832869E-02 0.12500049E+03</pdfrwt>
<pdfrwt beam="1">  1       -4 0.76695106E-01 0.12500049E+03</pdfrwt>
<totfact> 0.12441114E+03</totfact>
</mgrwt>
</event>
<event>
 4    1  0.1438401E-002  0.1258006E+03  0.7818608E-02  0.1233823E+00
         -4   -1    0    0    0  501 -0.00000000000E+00  0.00000000000E+00  0.65878701159E+03  0.65878823574E+03  0.12700000000E+01 0.  1.
          4   -1    0    0  501    0  0.00000000000E+00 -0.00000000000E+00 -0.59372661788E+01  0.60715755516E+01  0.12700000000E+01 0.  1.
    9000005    1    1    2    0    0  0.44390109086E+02  0.29429446376E+02  0.14964310998E+03  0.15884153884E+03  0.10000000000E+01 0.  0.
    9000005    1    1    2    0    0 -0.44390109086E+02 -0.29429446376E+02  0.50320663544E+03  0.50601827244E+03  0.10000000000E+01 0.  0.
<mgrwt>
<rscale>  0 0.12580055E+03</rscale>
<asrwt>0</asrwt>
<pdfrwt beam="2">  1        4 0.15012585E-02 0.12580055E+03</pdfrwt>
<pdfrwt beam="1">  1       -4 0.16471367E+00 0.12580055E+03</pdfrwt>
<totfact> 0.64658472E+02</totfact>
</mgrwt>
</event>
<event>
 5    1  0.1438401E-002  0.1249984E+03  0.7818608E-02  0.1235072E+00
         -4   -1    0    0    0  501 -0.00000000000E+00  0.00000000000E+00  0.56798687767E+02  0.56812884385E+02  0.12700000000E+01 0.  1.
          4   -1    0    0  501    0  0.00000000000E+00 -0.00000000000E+00 -0.68743163293E+02  0.68754893641E+02  0.12700000000E+01 0.  1.
         25    2    1    2    0    0  0.00000000000E+00  0.00000000000E+00 -0.11944475526E+02  0.12556777803E+03  0.12499838552E+03 0.  0.
    9000005    1    3    3    0    0  0.38312698161E+02 -0.63844765280E+01 -0.55149546917E+02  0.67461818135E+02  0.10000000000E+01 0.  0.
    9000005    1    3    3    0    0 -0.38312698161E+02  0.63844765280E+01  0.43205071391E+02  0.58105959891E+02  0.10000000000E+01 0.  0.
<mgrwt>
<rscale>  0 0.12499839E+03</rscale>
<asrwt>0</asrwt>
<pdfrwt beam="2">  1        4 0.17189032E-01 0.12499839E+03</pdfrwt>
<pdfrwt beam="1">  1       -4 0.14202913E-01 0.12499839E+03</pdfrwt>
<totfact> 0.19805043E+03</totfact>
</mgrwt>
</event>
<event>
 5    1  0.1438401E-002  0.1250033E+03  0.7818608E-02  0.1235064E+00
          4   -1    0    0  501    0  0.00000000000E+00  0.00000000000E+00  0.62539427721E+02  0.62552321458E+02  0.12700000000E+01 0.  1.
         -4   -1    0    0    0  501 -0.00000000000E+00 -0.00000000000E+00 -0.62438060167E+02  0.62450974831E+02  0.12700000000E+01 0.  1.
         25    2    1    2    0    0  0.00000000000E+00  0.00000000000E+00  0.10136755462E+00  0.12500329629E+03  0.12500325519E+03 0.  0.
    9000005    1    3    3    0    0 -0.11477884136E+02  0.11517682424E+02  0.60391855572E+02  0.62550579950E+02  0.10000000000E+01 0.  0.
    9000005    1    3    3    0    0  0.11477884136E+02 -0.11517682424E+02 -0.60290488018E+02  0.62452716339E+02  0.10000000000E+01 0.  0.
<mgrwt>
<rscale>  0 0.12500326E+03</rscale>
<asrwt>0</asrwt>
<pdfrwt beam="1">  1        4 0.15638083E-01 0.12500326E+03</pdfrwt>
<pdfrwt beam="2">  1       -4 0.15612741E-01 0.12500326E+03</pdfrwt>
<totfact> 0.19833366E+03</totfact>
</mgrwt>
</event>
<event>
 5    1  0.1438401E-002  0.1250034E+03  0.7818608E-02  0.1235064E+00
          4   -1    0    0  501    0  0.00000000000E+00  0.00000000000E+00  0.29943198484E+02  0.29970119043E+02  0.12700000000E+01 0. -1.
         -4   -1    0    0    0  501 -0.00000000000E+00 -0.00000000000E+00 -0.13037374979E+03  0.13037993532E+03  0.12700000000E+01 0. -1.
         25    2    1    2    0    0  0.00000000000E+00  0.00000000000E+00 -0.10043055130E+03  0.16035005436E+03  0.12500337715E+03 0.  0.
    9000005    1    3    3    0    0  0.50720553617E+02 -0.34392089091E+02 -0.34500964314E+02  0.70332829389E+02  0.10000000000E+01 0.  0.
    9000005    1    3    3    0    0 -0.50720553617E+02  0.34392089091E+02 -0.65929586988E+02  0.90017224972E+02  0.10000000000E+01 0.  0.
<mgrwt>
<rscale>  0 0.12500338E+03</rscale>
<asrwt>0</asrwt>
<pdfrwt beam="1">  1        4 0.74899382E-02 0.12500338E+03</pdfrwt>
<pdfrwt beam="2">  1       -4 0.32597574E-01 0.12500338E+03</pdfrwt>
<totfact> 0.18039877E+03</totfact>
</mgrwt>
</event>
<event>
 5    1  0.1438401E-002  0.1249943E+03  0.7818608E-02  0.1235078E+00
          4   -1    0    0  501    0  0.00000000000E+00  0.00000000000E+00  0.70353472033E+03  0.70353586661E+03  0.12700000000E+01 0.  1.
         -4   -1    0    0    0  501 -0.00000000000E+00 -0.00000000000E+00 -0.54780188635E+01  0.56233078049E+01  0.12700000000E+01 0.  1.
         25    2    1    2    0    0  0.00000000000E+00  0.00000000000E+00  0.69805670146E+03  0.70915917442E+03  0.12499430466E+03 0.  0.
    9000005    1    3    3    0    0  0.17318423643E+02  0.57573122237E+02  0.44569538640E+03  0.44973322054E+03  0.10000000000E+01 0.  0.
    9000005    1    3    3    0    0 -0.17318423643E+02 -0.57573122237E+02  0.25236131507E+03  0.25942595387E+03  0.10000000000E+01 0.  0.
<mgrwt>
<rscale>  0 0.12499430E+03</rscale>
<asrwt>0</asrwt>
<pdfrwt beam="1">  1        4 0.17590196E+00 0.12499430E+03</pdfrwt>
<pdfrwt beam="2">  1       -4 0.13878093E-02 0.12499430E+03</pdfrwt>
<totfact> 0.61124620E+02</totfact>
</mgrwt>
</event>
<event>
 5    1  0.1438401E-002  0.1249985E+03  0.7818608E-02  0.1235072E+00
          4   -1    0    0  501    0  0.00000000000E+00  0.00000000000E+00  0.34836669267E+02  0.34859811038E+02  0.12700000000E+01 0. -1.
         -4   -1    0    0    0  501 -0.00000000000E+00 -0.00000000000E+00 -0.11206377043E+03  0.11207096655E+03  0.12700000000E+01 0. -1.
         25    2    1    2    0    0  0.00000000000E+00  0.00000000000E+00 -0.77227101166E+02  0.14693077759E+03  0.12499851299E+03 0.  0.
    9000005    1    3    3    0    0  0.30584717183E+02  0.50145002911E+02 -0.13534319411E+02  0.60283696336E+02  0.10000000000E+01 0.  0.
    9000005    1    3    3    0    0 -0.30584717183E+02 -0.50145002911E+02 -0.63692781754E+02  0.86647081253E+02  0.10000000000E+01 0.  0.
<mgrwt>
<rscale>  0 0.12499851E+03</rscale>
<asrwt>0</asrwt>
<pdfrwt beam="1">  1        4 0.87129598E-02 0.12499851E+03</pdfrwt>
<pdfrwt beam="2">  1       -4 0.28019734E-01 0.12499851E+03</pdfrwt>
<totfact> 0.18691379E+03</totfact>
</mgrwt>
</event>
<event>
 5    1  0.1438401E-002  0.1250292E+03  0.7818608E-02  0.1235024E+00
         -4   -1    0    0    0  501 -0.00000000000E+00  0.00000000000E+00  0.44761595770E+02  0.44779608706E+02  0.12700000000E+01 0.  1.
          4   -1    0    0  501    0  0.00000000000E+00 -0.00000000000E+00 -0.87268399980E+02  0.87277640522E+02  0.12700000000E+01 0.  1.
         25    2    1    2    0    0  0.00000000000E+00  0.00000000000E+00 -0.42506804210E+02  0.13205724923E+03  0.12502915128E+03 0.  0.
    9000005    1    3    3    0    0  0.32100244929E+02  0.20133884128E+02  0.31252888641E+02  0.49127813538E+02  0.10000000000E+01 0.  0.
    9000005    1    3    3    0    0 -0.32100244929E+02 -0.20133884128E+02 -0.73759692850E+02  0.82929435691E+02  0.10000000000E+01 0.  0.
<mgrwt>
<rscale>  0 0.12502915E+03</rscale>
<asrwt>0</asrwt>
<pdfrwt beam="2">  1        4 0.21820506E-01 0.12502915E+03</pdfrwt>
<pdfrwt beam="1">  1       -4 0.11193806E-01 0.12502915E+03</pdfrwt>
<totfact> 0.19441181E+03</totfact>
</mgrwt>
</event>
<event>
 5    1  0.1438401E-002  0.1250060E+03  0.7818608E-02  0.1235060E+00
         -4   -1    0    0    0  501 -0.00000000000E+00  0.00000000000E+00  0.70041369641E+02  0.70052882604E+02  0.12700000000E+01 0. -1.
          4   -1    0    0  501    0  0.00000000000E+00 -0.00000000000E+00 -0.55752620406E+02  0.55767083321E+02  0.12700000000E+01 0. -1.
         25    2    1    2    0    0  0.00000000000E+00  0.00000000000E+00  0.14288749235E+02  0.12581996593E+03  0.12500598174E+03 0.  0.
    9000005    1    3    3    0    0  0.52695271281E+02 -0.29495715202E+02  0.23337485884E+02  0.64748954262E+02  0.10000000000E+01 0.  0.
    9000005    1    3    3    0    0 -0.52695271281E+02  0.29495715202E+02 -0.90487366492E+01  0.61071011664E+02  0.10000000000E+01 0.  0.
<mgrwt>
<rscale>  0 0.12500598E+03</rscale>
<asrwt>0</asrwt>
<pdfrwt beam="2">  1        4 0.13941402E-01 0.12500598E+03</pdfrwt>
<pdfrwt beam="1">  1       -4 0.17513589E-01 0.12500598E+03</pdfrwt>
<totfact> 0.19787883E+03</totfact>
</mgrwt>
</event>
<event>
 5    1  0.1438401E-002  0.1250017E+03  0.7818608E-02  0.1235067E+00
         -4   -1    0    0    0  501 -0.00000000000E+00  0.00000000000E+00  0.33358339399E+03  0.33358581151E+03  0.12700000000E+01 0. -1.
          4   -1    0    0  501    0  0.00000000000E+00 -0.00000000000E+00 -0.11673384250E+02  0.11742265534E+02  0.12700000000E+01 0. -1.
         25    2    1    2    0    0  0.00000000000E+00  0.00000000000E+00  0.32191000974E+03  0.34532807705E+03  0.12500170570E+03 0.  0.
    9000005    1    3    3    0    0  0.23349166153E+02  0.57930500454E+02  0.16663691776E+03  0.17796063835E+03  0.10000000000E+01 0.  0.
    9000005    1    3    3    0    0 -0.23349166153E+02 -0.57930500454E+02  0.15527309198E+03  0.16736743869E+03  0.10000000000E+01 0.  0.
<mgrwt>
<rscale>  0 0.12500171E+03</rscale>
<asrwt>0</asrwt>
<pdfrwt beam="2">  1        4 0.29272586E-02 0.12500171E+03</pdfrwt>
<pdfrwt beam="1">  1       -4 0.83404756E-01 0.12500171E+03</pdfrwt>
<totfact> 0.11789079E+03</totfact>
</mgrwt>
</event>
<event>
 5    1  0.1438401E-002  0.1249577E+03  0.7818608E-02  0.1235135E+00
         -4   -1    0    0    0  501 -0.00000000000E+00  0.00000000000E+00  0.13880023008E+02  0.13938003397E+02  0.12700000000E+01 0. -1.
          4   -1    0    0  501    0  0.00000000000E+00 -0.00000000000E+00 -0.28059382951E+03  0.28059670358E+03  0.12700000000E+01 0. -1.
         25    2    1    2    0    0  0.00000000000E+00  0.00000000000E+00 -0.26671380650E+03  0.29453470697E+03  0.12495774900E+03 0.  0.
    9000005    1    3    3    0    0  0.31162373703E+02  0.18707305464E+02 -0.25311745910E+03  0.25571567201E+03  0.10000000000E+01 0.  0.
    9000005    1    3    3    0    0 -0.31162373703E+02 -0.18707305464E+02 -0.13596347400E+02  0.38819034959E+02  0.10000000000E+01 0.  0.
<mgrwt>
<rscale>  0 0.12495775E+03</rscale>
<asrwt>0</asrwt>
<pdfrwt beam="2">  1        4 0.70156046E-01 0.12495775E+03</pdfrwt>
<pdfrwt beam="1">  1       -4 0.34776135E-02 0.12495775E+03</pdfrwt>
<totfact> 0.13138346E+03</totfact>
</mgrwt>
</event>
<event>
 5    1  0.1438401E-002  0.1249971E+03  0.7818608E-02  0.1235074E+00
         -4   -1    0    0    0  501 -0.00000000000E+00  0.00000000000E+00  0.17750757791E+03  0.17751212104E+03  0.12700000000E+01 0.  1.
          4   -1    0    0  501    0  0.00000000000E+00 -0.00000000000E+00 -0.21981914861E+02  0.22018571274E+02  0.12700000000E+01 0.  1.
         25    2    1    2    0    0  0.00000000000E+00  0.00000000000E+00  0.15552566305E+03  0.19953069232E+03  0.12499706120E+03 0.  0.
    9000005    1    3    3    0    0  0.25735053326E+02  0.35542829289E+02  0.67420353469E+01  0.44407665151E+02  0.10000000000E+01 0.  0.
    9000005    1    3    3    0    0 -0.25735053326E+02 -0.35542829289E+02  0.14878362771E+03  0.15512302717E+03  0.10000000000E+01 0.  0.
<mgrwt>
<rscale>  0 0.12499706E+03</rscale>
<asrwt>0</asrwt>
<pdfrwt beam="2">  1        4 0.55006289E-02 0.12499706E+03</pdfrwt>
<pdfrwt beam="1">  1       -4 0.44382043E-01 0.12499706E+03</pdfrwt>
<totfact> 0.16341961E+03</totfact>
</mgrwt>
</event>
<event>
 5    1  0.1438401E-002  0.1249992E+03  0.7818608E-02  0.1235071E+00
         -4   -1    0    0    0  501 -0.00000000000E+00  0.00000000000E+00  0.97040232454E+02  0.97048542569E+02  0.12700000000E+01 0. -1.
          4   -1    0    0  501    0  0.00000000000E+00 -0.00000000000E+00 -0.40233338871E+02  0.40253378202E+02  0.12700000000E+01 0. -1.
         25    2    1    2    0    0  0.00000000000E+00  0.00000000000E+00  0.56806893583E+02  0.13730192077E+03  0.12499917715E+03 0.  0.
    9000005    1    3    3    0    0  0.47016794507E+02 -0.28885508664E+02 -0.38132523167E+01  0.55321717884E+02  0.10000000000E+01 0.  0.
    9000005    1    3    3    0    0 -0.47016794507E+02  0.28885508664E+02  0.60620145899E+02  0.81980202887E+02  0.10000000000E+01 0.  0.
<mgrwt>
<rscale>  0 0.12499918E+03</rscale>
<asrwt>0</asrwt>
<pdfrwt beam="2">  1        4 0.10061878E-01 0.12499918E+03</pdfrwt>
<pdfrwt beam="1">  1       -4 0.24263602E-01 0.12499918E+03</pdfrwt>
<totfact> 0.19179602E+03</totfact>
</mgrwt>
</event>
<event>
 5    1  0.1438401E-002  0.1250008E+03  0.7818608E-02  0.1235068E+00
          4   -1    0    0  501    0  0.00000000000E+00  0.00000000000E+00  0.28424602129E+02  0.28452959533E+02  0.12700000000E+01 0.  1.
         -4   -1    0    0    0  501 -0.00000000000E+00 -0.00000000000E+00 -0.13732700098E+03  0.13733287334E+03  0.12700000000E+01 0.  1.
         25    2    1    2    0    0  0.00000000000E+00  0.00000000000E+00 -0.10890239886E+03  0.16578583287E+03  0.12500083961E+03 0.  0.
    9000005    1    3    3    0    0 -0.15755636390E+01 -0.27700497533E+02  0.19814463449E+02  0.34108839414E+02  0.10000000000E+01 0.  0.
    9000005    1    3    3    0    0  0.15755636390E+01  0.27700497533E+02 -0.12871686230E+03  0.13167699346E+03  0.10000000000E+01 0.  0.
<mgrwt>
<rscale>  0 0.12500084E+03</rscale>
<asrwt>0</asrwt>
<pdfrwt beam="1">  1        4 0.71104296E-02 0.12500084E+03</pdfrwt>
<pdfrwt beam="2">  1       -4 0.34336027E-01 0.12500084E+03</pdfrwt>
<totfact> 0.17788469E+03</totfact>
</mgrwt>
</event>
<event>
 5    1  0.1438401E-002  0.1249989E+03  0.7818608E-02  0.1235071E+00
          4   -1    0    0  501    0  0.00000000000E+00  0.00000000000E+00  0.33566802540E+03  0.33567042791E+03  0.12700000000E+01 0.  1.
         -4   -1    0    0    0  501 -0.00000000000E+00 -0.00000000000E+00 -0.11599933552E+02  0.11669248408E+02  0.12700000000E+01 0.  1.
         25    2    1    2    0    0  0.00000000000E+00  0.00000000000E+00  0.32406809185E+03  0.34733967632E+03  0.12499889037E+03 0.  0.
    9000005    1    3    3    0    0 -0.91930783083E+01 -0.57113816182E+02  0.96354554013E+02  0.11239083934E+03  0.10000000000E+01 0.  0.
    9000005    1    3    3    0    0  0.91930783083E+01  0.57113816182E+02  0.22771353783E+03  0.23494883698E+03  0.10000000000E+01 0.  0.
<mgrwt>
<rscale>  0 0.12499889E+03</rscale>
<asrwt>0</asrwt>
<pdfrwt beam="1">  1        4 0.83925971E-01 0.12499889E+03</pdfrwt>
<pdfrwt beam="2">  1       -4 0.29089481E-02 0.12499889E+03</pdfrwt>
<totfact> 0.11741329E+03</totfact>
</mgrwt>
</event>
<event>
 5    1  0.1438401E-002  0.1249999E+03  0.7818608E-02  0.1235069E+00
          4   -1    0    0  501    0  0.00000000000E+00  0.00000000000E+00  0.14858721872E+02  0.14912897628E+02  0.12700000000E+01 0. -1.
         -4   -1    0    0    0  501 -0.00000000000E+00 -0.00000000000E+00 -0.26235816321E+03  0.26236123705E+03  0.12700000000E+01 0. -1.
         25    2    1    2    0    0  0.00000000000E+00  0.00000000000E+00 -0.24749944134E+03  0.27727413467E+03  0.12499988918E+03 0.  0.
    9000005    1    3    3    0    0 -0.19033086839E+02  0.53101903694E+02 -0.64098314879E+02  0.85391243936E+02  0.10000000000E+01 0.  0.
    9000005    1    3    3    0    0  0.19033086839E+02 -0.53101903694E+02 -0.18340112646E+03  0.19188289074E+03  0.10000000000E+01 0.  0.
<mgrwt>
<rscale>  0 0.12499989E+03</rscale>
<asrwt>0</asrwt>
<pdfrwt beam="1">  1        4 0.37218375E-02 0.12499989E+03</pdfrwt>
<pdfrwt beam="2">  1       -4 0.65596682E-01 0.12499989E+03</pdfrwt>
<totfact> 0.13632813E+03</totfact>
</mgrwt>
</event>
<event>
 5    1  0.1438401E-002  0.1249991E+03  0.7818608E-02  0.1235071E+00
          4   -1    0    0  501    0  0.00000000000E+00  0.00000000000E+00  0.44329681559E+02  0.44347869928E+02  0.12700000000E+01 0.  1.
         -4   -1    0    0    0  501 -0.00000000000E+00 -0.00000000000E+00 -0.88076050762E+02  0.88085206577E+02  0.12700000000E+01 0.  1.
         25    2    1    2    0    0  0.00000000000E+00  0.00000000000E+00 -0.43746369203E+02  0.13243307650E+03  0.12499909973E+03 0.  0.
    9000005    1    3    3    0    0 -0.55422181256E+02  0.14865382534E+02  0.43494695605E+01  0.57554458199E+02  0.10000000000E+01 0.  0.
    9000005    1    3    3    0    0  0.55422181256E+02 -0.14865382534E+02 -0.48095838763E+02  0.74878618306E+02  0.10000000000E+01 0.  0.
<mgrwt>
<rscale>  0 0.12499910E+03</rscale>
<asrwt>0</asrwt>
<pdfrwt beam="1">  1        4 0.11085839E-01 0.12499910E+03</pdfrwt>
<pdfrwt beam="2">  1       -4 0.22022430E-01 0.12499910E+03</pdfrwt>
<totfact> 0.19434859E+03</totfact>
</mgrwt>
</event>
<event>
 5    1  0.1438401E-002  0.1249999E+03  0.7818608E-02  0.1235069E+00
          4   -1    0    0  501    0  0.00000000000E+00  0.00000000000E+00  0.17354955075E+02  0.17401361029E+02  0.12700000000E+01 0.  1.
         -4   -1    0    0    0  501 -0.00000000000E+00 -0.00000000000E+00 -0.22473078684E+03  0.22473437533E+03  0.12700000000E+01 0.  1.
         25    2    1    2    0    0  0.00000000000E+00  0.00000000000E+00 -0.20737583177E+03  0.24213573636E+03  0.12499991688E+03 0.  0.
    9000005    1    3    3    0    0 -0.33717109123E+02 -0.41710188990E+02 -0.16581563473E+03  0.17427681439E+03  0.10000000000E+01 0.  0.
    9000005    1    3    3    0    0  0.33717109123E+02  0.41710188990E+02 -0.41560197041E+02  0.67858921973E+02  0.10000000000E+01 0.  0.
<mgrwt>
<rscale>  0 0.12499992E+03</rscale>
<asrwt>0</asrwt>
<pdfrwt beam="1">  1        4 0.43449888E-02 0.12499992E+03</pdfrwt>
<pdfrwt beam="2">  1       -4 0.56188937E-01 0.12499992E+03</pdfrwt>
<totfact> 0.14763184E+03</totfact>
</mgrwt>
</event>
<event>
 5    1  0.1438401E-002  0.1249996E+03  0.7818608E-02  0.1235070E+00
         -4   -1    0    0    0  501 -0.00000000000E+00  0.00000000000E+00  0.19827583892E+03  0.19827990620E+03  0.12700000000E+01 0. -1.
          4   -1    0    0  501    0  0.00000000000E+00 -0.00000000000E+00 -0.19676236863E+02  0.19717180252E+02  0.12700000000E+01 0. -1.
         25    2    1    2    0    0  0.00000000000E+00  0.00000000000E+00  0.17859960206E+03  0.21799708645E+03  0.12499964737E+03 0.  0.
    9000005    1    3    3    0    0 -0.33121449658E+02 -0.46196357859E+02  0.44020246079E+02  0.71902127728E+02  0.10000000000E+01 0.  0.
    9000005    1    3    3    0    0  0.33121449658E+02  0.46196357859E+02  0.13457935598E+03  0.14609495872E+03  0.10000000000E+01 0.  0.
<mgrwt>
<rscale>  0 0.12499965E+03</rscale>
<asrwt>0</asrwt>
<pdfrwt beam="2">  1        4 0.49246855E-02 0.12499965E+03</pdfrwt>
<pdfrwt beam="1">  1       -4 0.49574586E-01 0.12499965E+03</pdfrwt>
<totfact> 0.15626029E+03</totfact>
</mgrwt>
</event>
<event>
 5    1  0.1438401E-002  0.1249996E+03  0.7818608E-02  0.1235070E+00
         -4   -1    0    0    0  501 -0.00000000000E+00  0.00000000000E+00  0.80367501772E+02  0.80377535674E+02  0.12700000000E+01 0. -1.
          4   -1    0    0  501    0  0.00000000000E+00 -0.00000000000E+00 -0.48583137894E+02  0.48599734440E+02  0.12700000000E+01 0. -1.
         25    2    1    2    0    0  0.00000000000E+00  0.00000000000E+00  0.31784363877E+02  0.12897727011E+03  0.12499956168E+03 0.  0.
    9000005    1    3    3    0    0 -0.18898092309E+02  0.39543930751E+02 -0.30071537919E+02  0.53161619097E+02  0.10000000000E+01 0.  0.
    9000005    1    3    3    0    0  0.18898092309E+02 -0.39543930751E+02  0.61855901796E+02  0.75815651018E+02  0.10000000000E+01 0.  0.
<mgrwt>
<rscale>  0 0.12499956E+03</rscale>
<asrwt>0</asrwt>
<pdfrwt beam="2">  1        4 0.12149113E-01 0.12499956E+03</pdfrwt>
<pdfrwt beam="1">  1       -4 0.20095204E-01 0.12499956E+03</pdfrwt>
<totfact> 0.19619725E+03</totfact>
</mgrwt>
</event>
<event>
 5    1  0.1438401E-002  0.1250008E+03  0.7818608E-02  0.1235068E+00
         -4   -1    0    0    0  501 -0.00000000000E+00  0.00000000000E+00  0.43838172357E+02  0.43856564567E+02  0.12700000000E+01 0. -1.
          4   -1    0    0  501    0  0.00000000000E+00 -0.00000000000E+00 -0.89065681564E+02  0.89074735657E+02  0.12700000000E+01 0. -1.
         25    2    1    2    0    0  0.00000000000E+00  0.00000000000E+00 -0.45227509207E+02  0.13293130022E+03  0.12500081196E+03 0.  0.
    9000005    1    3    3    0    0 -0.24037814143E+02  0.49504514772E+02 -0.54102947769E+02  0.77179287693E+02  0.10000000000E+01 0.  0.
    9000005    1    3    3    0    0  0.24037814143E+02 -0.49504514772E+02  0.88754385617E+01  0.55752012531E+02  0.10000000000E+01 0.  0.
<mgrwt>
<rscale>  0 0.12500081E+03</rscale>
<asrwt>0</asrwt>
<pdfrwt beam="2">  1        4 0.22269851E-01 0.12500081E+03</pdfrwt>
<pdfrwt beam="1">  1       -4 0.10962974E-01 0.12500081E+03</pdfrwt>
<totfact> 0.19407682E+03</totfact>
</mgrwt>
</event>
<event>
 5    1  0.1438401E-002  0.1250016E+03  0.7818608E-02  0.1235067E+00
          4   -1    0    0  501    0  0.00000000000E+00  0.00000000000E+00  0.22071743303E+02  0.22108250777E+02  0.12700000000E+01 0. -1.
         -4   -1    0    0    0  501 -0.00000000000E+00 -0.00000000000E+00 -0.17679913808E+03  0.17680369941E+03  0.12700000000E+01 0. -1.
         25    2    1    2    0    0  0.00000000000E+00  0.00000000000E+00 -0.15472739478E+03  0.19891195019E+03  0.12500158892E+03 0.  0.
    9000005    1    3    3    0    0 -0.45202890914E+01  0.27340868911E+02  0.11767515442E+02  0.30123587867E+02  0.10000000000E+01 0.  0.
    9000005    1    3    3    0    0  0.45202890914E+01 -0.27340868911E+02 -0.16649491022E+03  0.16878836232E+03  0.10000000000E+01 0.  0.
<mgrwt>
<rscale>  0 0.12500159E+03</rscale>
<asrwt>0</asrwt>
<pdfrwt beam="1">  1        4 0.55230700E-02 0.12500159E+03</pdfrwt>
<pdfrwt beam="2">  1       -4 0.44204914E-01 0.12500159E+03</pdfrwt>
<totfact> 0.16365100E+03</totfact>
</mgrwt>
</event>
<event>
 5    1  0.1438401E-002  0.1249973E+03  0.7818608E-02  0.1235074E+00
         -4   -1    0    0    0  501 -0.00000000000E+00  0.00000000000E+00  0.13676433801E+03  0.13677023452E+03  0.12700000000E+01 0.  1.
          4   -1    0    0  501    0  0.00000000000E+00 -0.00000000000E+00 -0.28540020138E+02  0.28568262976E+02  0.12700000000E+01 0.  1.
         25    2    1    2    0    0  0.00000000000E+00  0.00000000000E+00  0.10822431787E+03  0.16533849750E+03  0.12499726308E+03 0.  0.
    9000005    1    3    3    0    0 -0.13801061790E+02  0.12267729953E+02  0.13307980295E+03  0.13435847743E+03  0.10000000000E+01 0.  0.
    9000005    1    3    3    0    0  0.13801061790E+02 -0.12267729953E+02 -0.24855485079E+02  0.30980020065E+02  0.10000000000E+01 0.  0.
<mgrwt>
<rscale>  0 0.12499726E+03</rscale>
<asrwt>0</asrwt>
<pdfrwt beam="2">  1        4 0.71392725E-02 0.12499726E+03</pdfrwt>
<pdfrwt beam="1">  1       -4 0.34195351E-01 0.12499726E+03</pdfrwt>
<totfact> 0.17810505E+03</totfact>
</mgrwt>
</event>
<event>
 5    1  0.1438401E-002  0.1249985E+03  0.7818608E-02  0.1235072E+00
         -4   -1    0    0    0  501 -0.00000000000E+00  0.00000000000E+00  0.18674777947E+02  0.18717912046E+02  0.12700000000E+01 0.  1.
          4   -1    0    0  501    0  0.00000000000E+00 -0.00000000000E+00 -0.20888119069E+03  0.20888505146E+03  0.12700000000E+01 0.  1.
         25    2    1    2    0    0  0.00000000000E+00  0.00000000000E+00 -0.19020641275E+03  0.22760296351E+03  0.12499851819E+03 0.  0.
    9000005    1    3    3    0    0  0.33097451929E+02  0.94104740709E+01 -0.11930354035E+00  0.34424011674E+02  0.10000000000E+01 0.  0.
    9000005    1    3    3    0    0 -0.33097451929E+02 -0.94104740709E+01 -0.19008710921E+03  0.19317895184E+03  0.10000000000E+01 0.  0.
<mgrwt>
<rscale>  0 0.12499852E+03</rscale>
<asrwt>0</asrwt>
<pdfrwt beam="2">  1        4 0.52226165E-01 0.12499852E+03</pdfrwt>
<pdfrwt beam="1">  1       -4 0.46745695E-02 0.12499852E+03</pdfrwt>
<totfact> 0.15273866E+03</totfact>
</mgrwt>
</event>
<event>
 5    1  0.1438401E-002  0.1249971E+03  0.7818608E-02  0.1235074E+00
          4   -1    0    0  501    0  0.00000000000E+00  0.00000000000E+00  0.72578778053E+02  0.72589888577E+02  0.12700000000E+01 0. -1.
         -4   -1    0    0    0  501 -0.00000000000E+00 -0.00000000000E+00 -0.53795631875E+02  0.53810620781E+02  0.12700000000E+01 0. -1.
         25    2    1    2    0    0  0.00000000000E+00  0.00000000000E+00  0.18783146178E+02  0.12640050936E+03  0.12499712871E+03 0.  0.
    9000005    1    3    3    0    0 -0.92313887647E+01 -0.61268171948E+02  0.11723965684E+01  0.61978883066E+02  0.10000000000E+01 0.  0.
    9000005    1    3    3    0    0  0.92313887647E+01  0.61268171948E+02  0.17610749610E+02  0.64421626293E+02  0.10000000000E+01 0.  0.
<mgrwt>
<rscale>  0 0.12499713E+03</rscale>
<asrwt>0</asrwt>
<pdfrwt beam="1">  1        4 0.18147957E-01 0.12499713E+03</pdfrwt>
<pdfrwt beam="2">  1       -4 0.13452170E-01 0.12499713E+03</pdfrwt>
<totfact> 0.19760620E+03</totfact>
</mgrwt>
</event>
<event>
 5    1  0.1438401E-002  0.1249958E+03  0.7818608E-02  0.1235076E+00
          4   -1    0    0  501    0  0.00000000000E+00  0.00000000000E+00  0.44293425680E+02  0.44311628930E+02  0.12700000000E+01 0. -1.
         -4   -1    0    0    0  501 -0.00000000000E+00 -0.00000000000E+00 -0.88143410020E+02  0.88152558839E+02  0.12700000000E+01 0. -1.
         25    2    1    2    0    0  0.00000000000E+00  0.00000000000E+00 -0.43849984340E+02  0.13246418777E+03  0.12499575959E+03 0.  0.
    9000005    1    3    3    0    0  0.47891756876E+02 -0.33736437323E+02  0.11283317633E+01  0.58600688669E+02  0.10000000000E+01 0.  0.
    9000005    1    3    3    0    0 -0.47891756876E+02  0.33736437323E+02 -0.44978316103E+02  0.73863499101E+02  0.10000000000E+01 0.  0.
<mgrwt>
<rscale>  0 0.12499576E+03</rscale>
<asrwt>0</asrwt>
<pdfrwt beam="1">  1        4 0.11076776E-01 0.12499576E+03</pdfrwt>
<pdfrwt beam="2">  1       -4 0.22039271E-01 0.12499576E+03</pdfrwt>
<totfact> 0.19434723E+03</totfact>
</mgrwt>
</event>
<event>
 5    1  0.1438401E-002  0.1249979E+03  0.7818608E-02  0.1235072E+00
         -4   -1    0    0    0  501 -0.00000000000E+00  0.00000000000E+00  0.57990427098E+03  0.57990566164E+03  0.12700000000E+01 0.  1.
          4   -1    0    0  501    0  0.00000000000E+00 -0.00000000000E+00 -0.66745301023E+01  0.67942808366E+01  0.12700000000E+01 0.  1.
         25    2    1    2    0    0  0.00000000000E+00  0.00000000000E+00  0.57322974088E+03  0.58669994248E+03  0.12499794668E+03 0.  0.
    9000005    1    3    3    0    0  0.46384330623E+02  0.40938749114E+02  0.32797102611E+03  0.33375661982E+03  0.10000000000E+01 0.  0.
    9000005    1    3    3    0    0 -0.46384330623E+02 -0.40938749114E+02  0.24525871477E+03  0.25294332266E+03  0.10000000000E+01 0.  0.
<mgrwt>
<rscale>  0 0.12499795E+03</rscale>
<asrwt>0</asrwt>
<pdfrwt beam="2">  1        4 0.16837754E-02 0.12499795E+03</pdfrwt>
<pdfrwt beam="1">  1       -4 0.14499119E+00 0.12499795E+03</pdfrwt>
<totfact> 0.75205723E+02</totfact>
</mgrwt>
</event>
<event>
 5    1  0.1438401E-002  0.1249990E+03  0.7818608E-02  0.1235071E+00
          4   -1    0    0  501    0  0.00000000000E+00  0.00000000000E+00  0.13042854075E+02  0.13104539001E+02  0.12700000000E+01 0. -1.
         -4   -1    0    0    0  501 -0.00000000000E+00 -0.00000000000E+00 -0.29871936144E+03  0.29872206112E+03  0.12700000000E+01 0. -1.
         25    2    1    2    0    0  0.00000000000E+00  0.00000000000E+00 -0.28567650737E+03  0.31182660012E+03  0.12499904673E+03 0.  0.
    9000005    1    3    3    0    0  0.59298416046E+02  0.18468033955E+02 -0.12558737462E+03  0.14010909709E+03  0.10000000000E+01 0.  0.
    9000005    1    3    3    0    0 -0.59298416046E+02 -0.18468033955E+02 -0.16008913275E+03  0.17171750303E+03  0.10000000000E+01 0.  0.
<mgrwt>
<rscale>  0 0.12499905E+03</rscale>
<asrwt>0</asrwt>
<pdfrwt beam="1">  1        4 0.32687626E-02 0.12499905E+03</pdfrwt>
<pdfrwt beam="2">  1       -4 0.74687866E-01 0.12499905E+03</pdfrwt>
<totfact> 0.12646227E+03</totfact>
</mgrwt>
</event>
<event>
 5    1  0.1438401E-002  0.1249987E+03  0.7818608E-02  0.1235071E+00
          4   -1    0    0  501    0  0.00000000000E+00  0.00000000000E+00  0.11947620409E+04  0.11947627159E+04  0.12700000000E+01 0. -1.
         -4   -1    0    0    0  501 -0.00000000000E+00 -0.00000000000E+00 -0.31453780466E+01  0.33920941992E+01  0.12700000000E+01 0. -1.
         25    2    1    2    0    0  0.00000000000E+00  0.00000000000E+00  0.11916166629E+04  0.11981548101E+04  0.12499871097E+03 0.  0.
    9000005    1    3    3    0    0 -0.22920836984E+02 -0.76344139246E+01  0.43380102618E+02  0.49663692444E+02  0.10000000000E+01 0.  0.
    9000005    1    3    3    0    0  0.22920836984E+02  0.76344139246E+01  0.11482365602E+04  0.11484911177E+04  0.10000000000E+01 0.  0.
<mgrwt>
<rscale>  0 0.12499871E+03</rscale>
<asrwt>0</asrwt>
<pdfrwt beam="1">  1        4 0.29872139E+00 0.12499871E+03</pdfrwt>
<pdfrwt beam="2">  1       -4 0.81726853E-03 0.12499871E+03</pdfrwt>
<totfact> 0.25300489E+02</totfact>
</mgrwt>
</event>
<event>
 5    1  0.1438401E-002  0.1250046E+03  0.7818608E-02  0.1235062E+00
         -4   -1    0    0    0  501 -0.00000000000E+00  0.00000000000E+00  0.81403011357E+02  0.81412917636E+02  0.12700000000E+01 0. -1.
          4   -1    0    0  501    0  0.00000000000E+00 -0.00000000000E+00 -0.47968830014E+02  0.47985639028E+02  0.12700000000E+01 0. -1.
         25    2    1    2    0    0  0.00000000000E+00  0.00000000000E+00  0.33434181343E+02  0.12939855666E+03  0.12500456785E+03 0.  0.
    9000005    1    3    3    0    0 -0.36301269246E+02 -0.46865949712E+02 -0.37604835205E+01  0.59408253867E+02  0.10000000000E+01 0.  0.
    9000005    1    3    3    0    0  0.36301269246E+02  0.46865949712E+02  0.37194664863E+02  0.69990302796E+02  0.10000000000E+01 0.  0.
<mgrwt>
<rscale>  0 0.12500457E+03</rscale>
<asrwt>0</asrwt>
<pdfrwt beam="2">  1        4 0.11995547E-01 0.12500457E+03</pdfrwt>
<pdfrwt beam="1">  1       -4 0.20354092E-01 0.12500457E+03</pdfrwt>
<totfact> 0.19594681E+03</totfact>
</mgrwt>
</event>
<event>
 5    1  0.1438401E-002  0.1250001E+03  0.7818608E-02  0.1235069E+00
          4   -1    0    0  501    0  0.00000000000E+00  0.00000000000E+00  0.63999119385E+02  0.64011719100E+02  0.12700000000E+01 0. -1.
         -4   -1    0    0    0  501 -0.00000000000E+00 -0.00000000000E+00 -0.61010864019E+02  0.61024080725E+02  0.12700000000E+01 0. -1.
         25    2    1    2    0    0  0.00000000000E+00  0.00000000000E+00  0.29882553667E+01  0.12503579982E+03  0.12500008627E+03 0.  0.
    9000005    1    3    3    0    0  0.92901468766E+01 -0.23691343284E+02  0.58586426357E+02  0.63882360076E+02  0.10000000000E+01 0.  0.
    9000005    1    3    3    0    0 -0.92901468766E+01  0.23691343284E+02 -0.55598170990E+02  0.61153439748E+02  0.10000000000E+01 0.  0.
<mgrwt>
<rscale>  0 0.12500009E+03</rscale>
<asrwt>0</asrwt>
<pdfrwt beam="1">  1        4 0.16003007E-01 0.12500009E+03</pdfrwt>
<pdfrwt beam="2">  1       -4 0.15255943E-01 0.12500009E+03</pdfrwt>
<totfact> 0.19833074E+03</totfact>
</mgrwt>
</event>
<event>
 5    1  0.1438401E-002  0.1250012E+03  0.7818608E-02  0.1235067E+00
         -4   -1    0    0    0  501 -0.00000000000E+00  0.00000000000E+00  0.38413156769E+02  0.38434145144E+02  0.12700000000E+01 0. -1.
          4   -1    0    0  501    0  0.00000000000E+00 -0.00000000000E+00 -0.10163970226E+03  0.10164763635E+03  0.12700000000E+01 0. -1.
         25    2    1    2    0    0  0.00000000000E+00  0.00000000000E+00 -0.63226545493E+02  0.14008178149E+03  0.12500123780E+03 0.  0.
    9000005    1    3    3    0    0  0.18925043497E+02  0.27477883734E+02  0.27602258053E+02  0.43313693163E+02  0.10000000000E+01 0.  0.
    9000005    1    3    3    0    0 -0.18925043497E+02 -0.27477883734E+02 -0.90828803545E+02  0.96768088331E+02  0.10000000000E+01 0.  0.
<mgrwt>
<rscale>  0 0.12500124E+03</rscale>
<asrwt>0</asrwt>
<pdfrwt beam="2">  1        4 0.25413540E-01 0.12500124E+03</pdfrwt>
<pdfrwt beam="1">  1       -4 0.96069047E-02 0.12500124E+03</pdfrwt>
<totfact> 0.19035610E+03</totfact>
</mgrwt>
</event>
<event>
 5    1  0.1438401E-002  0.1249990E+03  0.7818608E-02  0.1235071E+00
         -4   -1    0    0    0  501 -0.00000000000E+00  0.00000000000E+00  0.16119599310E+02  0.16169551073E+02  0.12700000000E+01 0. -1.
          4   -1    0    0  501    0  0.00000000000E+00 -0.00000000000E+00 -0.24189889001E+03  0.24190222382E+03  0.12700000000E+01 0. -1.
         25    2    1    2    0    0  0.00000000000E+00  0.00000000000E+00 -0.22577929070E+03  0.25807177489E+03  0.12499901154E+03 0.  0.
    9000005    1    3    3    0    0  0.52043453048E+02  0.33836511862E+02 -0.98036400627E+02  0.11604122711E+03  0.10000000000E+01 0.  0.
    9000005    1    3    3    0    0 -0.52043453048E+02 -0.33836511862E+02 -0.12774289008E+03  0.14203054779E+03  0.10000000000E+01 0.  0.
<mgrwt>
<rscale>  0 0.12499901E+03</rscale>
<asrwt>0</asrwt>
<pdfrwt beam="2">  1        4 0.60481372E-01 0.12499901E+03</pdfrwt>
<pdfrwt beam="1">  1       -4 0.40365613E-02 0.12499901E+03</pdfrwt>
<totfact> 0.14233603E+03</totfact>
</mgrwt>
</event>
<event>
 5    1  0.1438401E-002  0.1249995E+03  0.7818608E-02  0.1235070E+00
         -4   -1    0    0    0  501 -0.00000000000E+00  0.00000000000E+00  0.30347773090E+02  0.30374335080E+02  0.12700000000E+01 0. -1.
          4   -1    0    0  501    0  0.00000000000E+00 -0.00000000000E+00 -0.12862913701E+03  0.12863540644E+03  0.12700000000E+01 0. -1.
         25    2    1    2    0    0  0.00000000000E+00  0.00000000000E+00 -0.98281363923E+02  0.15900974152E+03  0.12499948561E+03 0.  0.
    9000005    1    3    3    0    0  0.27794531120E+02 -0.35910851389E+02 -0.10375280859E+03  0.11325974792E+03  0.10000000000E+01 0.  0.
    9000005    1    3    3    0    0 -0.27794531120E+02  0.35910851389E+02  0.54714446663E+01  0.45749993600E+02  0.10000000000E+01 0.  0.
<mgrwt>
<rscale>  0 0.12499949E+03</rscale>
<asrwt>0</asrwt>
<pdfrwt beam="2">  1        4 0.32161387E-01 0.12499949E+03</pdfrwt>
<pdfrwt beam="1">  1       -4 0.75910475E-02 0.12499949E+03</pdfrwt>
<totfact> 0.18104674E+03</totfact>
</mgrwt>
</event>
<event>
 5    1  0.1438401E-002  0.1250015E+03  0.7818608E-02  0.1235067E+00
         -4   -1    0    0    0  501 -0.00000000000E+00  0.00000000000E+00  0.36032468808E+03  0.36032692619E+03  0.12700000000E+01 0.  1.
          4   -1    0    0  501    0  0.00000000000E+00 -0.00000000000E+00 -0.10801709370E+02  0.10876112602E+02  0.12700000000E+01 0.  1.
         25    2    1    2    0    0  0.00000000000E+00  0.00000000000E+00  0.34952297870E+03  0.37120303879E+03  0.12500153345E+03 0.  0.
    9000005    1    3    3    0    0 -0.34893127033E+02  0.62706676359E+01  0.21936033574E+02  0.41701812379E+02  0.10000000000E+01 0.  0.
    9000005    1    3    3    0    0  0.34893127033E+02 -0.62706676359E+01  0.32758694513E+03  0.32950122641E+03  0.10000000000E+01 0.  0.
<mgrwt>
<rscale>  0 0.12500153E+03</rscale>
<asrwt>0</asrwt>
<pdfrwt beam="2">  1        4 0.27100076E-02 0.12500153E+03</pdfrwt>
<pdfrwt beam="1">  1       -4 0.90090751E-01 0.12500153E+03</pdfrwt>
<totfact> 0.11187069E+03</totfact>
</mgrwt>
</event>
<event>
 5    1  0.1438401E-002  0.1249855E+03  0.7818608E-02  0.1235092E+00
          4   -1    0    0  501    0  0.00000000000E+00  0.00000000000E+00  0.53653991768E+02  0.53669020232E+02  0.12700000000E+01 0. -1.
         -4   -1    0    0    0  501 -0.00000000000E+00 -0.00000000000E+00 -0.72756794416E+02  0.72767877760E+02  0.12700000000E+01 0. -1.
         25    2    1    2    0    0  0.00000000000E+00  0.00000000000E+00 -0.19102802648E+02  0.12643689799E+03  0.12498548758E+03 0.  0.
    9000005    1    3    3    0    0 -0.80913583288E+01 -0.24655861131E+02  0.47950225557E+02  0.54530777535E+02  0.10000000000E+01 0.  0.
    9000005    1    3    3    0    0  0.80913583288E+01  0.24655861131E+02 -0.67053028205E+02  0.71906120456E+02  0.10000000000E+01 0.  0.
<mgrwt>
<rscale>  0 0.12498549E+03</rscale>
<asrwt>0</asrwt>
<pdfrwt beam="1">  1        4 0.13416762E-01 0.12498549E+03</pdfrwt>
<pdfrwt beam="2">  1       -4 0.18192463E-01 0.12498549E+03</pdfrwt>
<totfact> 0.19764037E+03</totfact>
</mgrwt>
</event>
<event>
 5    1  0.1438401E-002  0.1249972E+03  0.7818608E-02  0.1235074E+00
         -4   -1    0    0    0  501 -0.00000000000E+00  0.00000000000E+00  0.14724133944E+03  0.14724681640E+03  0.12700000000E+01 0.  1.
          4   -1    0    0  501    0  0.00000000000E+00 -0.00000000000E+00 -0.26507204842E+02  0.26537611207E+02  0.12700000000E+01 0.  1.
         25    2    1    2    0    0  0.00000000000E+00  0.00000000000E+00  0.12073413459E+03  0.17378442760E+03  0.12499718405E+03 0.  0.
    9000005    1    3    3    0    0  0.47299138898E+02  0.28590256099E+02  0.19821977249E+02  0.58724118268E+02  0.10000000000E+01 0.  0.
    9000005    1    3    3    0    0 -0.47299138898E+02 -0.28590256099E+02  0.10091215735E+03  0.11506030934E+03  0.10000000000E+01 0.  0.
<mgrwt>
<rscale>  0 0.12499718E+03</rscale>
<asrwt>0</asrwt>
<pdfrwt beam="2">  1        4 0.66312867E-02 0.12499718E+03</pdfrwt>
<pdfrwt beam="1">  1       -4 0.36814820E-01 0.12499718E+03</pdfrwt>
<totfact> 0.17428831E+03</totfact>
</mgrwt>
</event>
<event>
 5    1  0.1438401E-002  0.1250015E+03  0.7818608E-02  0.1235067E+00
         -4   -1    0    0    0  501 -0.00000000000E+00  0.00000000000E+00  0.18343931362E+03  0.18344370984E+03  0.12700000000E+01 0. -1.
          4   -1    0    0  501    0  0.00000000000E+00 -0.00000000000E+00 -0.21271414254E+02  0.21309292911E+02  0.12700000000E+01 0. -1.
         25    2    1    2    0    0  0.00000000000E+00  0.00000000000E+00  0.16216789936E+03  0.20475300275E+03  0.12500145820E+03 0.  0.
    9000005    1    3    3    0    0 -0.84632936007E+01  0.23332449242E+02 -0.12859746490E+02  0.27971478438E+02  0.10000000000E+01 0.  0.
    9000005    1    3    3    0    0  0.84632936007E+01 -0.23332449242E+02  0.17502764585E+03  0.17678152431E+03  0.10000000000E+01 0.  0.
<mgrwt>
<rscale>  0 0.12500146E+03</rscale>
<asrwt>0</asrwt>
<pdfrwt beam="2">  1        4 0.53231379E-02 0.12500146E+03</pdfrwt>
<pdfrwt beam="1">  1       -4 0.45865113E-01 0.12500146E+03</pdfrwt>
<totfact> 0.16132933E+03</totfact>
</mgrwt>
</event>
<event>
 5    1  0.1438401E-002  0.1250014E+03  0.7818608E-02  0.1235067E+00
         -4   -1    0    0    0  501 -0.00000000000E+00  0.00000000000E+00  0.43046095834E+03  0.43046283179E+03  0.12700000000E+01 0. -1.
          4   -1    0    0  501    0  0.00000000000E+00 -0.00000000000E+00 -0.90284417621E+01  0.91173274950E+01  0.12700000000E+01 0. -1.
         25    2    1    2    0    0  0.00000000000E+00  0.00000000000E+00  0.42143251658E+03  0.43958015929E+03  0.12500140163E+03 0.  0.
    9000005    1    3    3    0    0  0.78579144025E+01  0.30553389727E+02  0.40041993577E+03  0.40166202386E+03  0.10000000000E+01 0.  0.
    9000005    1    3    3    0    0 -0.78579144025E+01 -0.30553389727E+02  0.21012580802E+02  0.37918135430E+02  0.10000000000E+01 0.  0.
<mgrwt>
<rscale>  0 0.12500140E+03</rscale>
<asrwt>0</asrwt>
<pdfrwt beam="2">  1        4 0.22684555E-02 0.12500140E+03</pdfrwt>
<pdfrwt beam="1">  1       -4 0.10762658E+00 0.12500140E+03</pdfrwt>
<totfact> 0.97915183E+02</totfact>
</mgrwt>
</event>
<event>
 5    1  0.1438401E-002  0.1250022E+03  0.7818608E-02  0.1235066E+00
          4   -1    0    0  501    0  0.00000000000E+00  0.00000000000E+00  0.76270352120E+03  0.76270457856E+03  0.12700000000E+01 0.  1.
         -4   -1    0    0    0  501 -0.00000000000E+00 -0.00000000000E+00 -0.50419598788E+01  0.51994479918E+01  0.12700000000E+01 0.  1.
         25    2    1    2    0    0  0.00000000000E+00  0.00000000000E+00  0.75766156132E+03  0.76790402655E+03  0.12500220992E+03 0.  0.
    9000005    1    3    3    0    0 -0.29449249671E+02  0.19193308824E+02  0.69624346944E+03  0.69713098493E+03  0.10000000000E+01 0.  0.
    9000005    1    3    3    0    0  0.29449249671E+02 -0.19193308824E+02  0.61418091883E+02  0.70773041622E+02  0.10000000000E+01 0.  0.
<mgrwt>
<rscale>  0 0.12500221E+03</rscale>
<asrwt>0</asrwt>
<pdfrwt beam="1">  1        4 0.19069568E+00 0.12500221E+03</pdfrwt>
<pdfrwt beam="2">  1       -4 0.12803083E-02 0.12500221E+03</pdfrwt>
<totfact> 0.55383754E+02</totfact>
</mgrwt>
</event>
<event>
 5    1  0.1438401E-002  0.1249885E+03  0.7818608E-02  0.1235087E+00
          4   -1    0    0  501    0  0.00000000000E+00  0.00000000000E+00  0.28345476383E+02  0.28373912867E+02  0.12700000000E+01 0.  1.
         -4   -1    0    0    0  501 -0.00000000000E+00 -0.00000000000E+00 -0.13768281407E+03  0.13768867125E+03  0.12700000000E+01 0.  1.
         25    2    1    2    0    0  0.00000000000E+00  0.00000000000E+00 -0.10933733769E+03  0.16606258412E+03  0.12498851320E+03 0.  0.
    9000005    1    3    3    0    0  0.48619240960E+02 -0.19419828937E+02 -0.99989542791E+02  0.11287102824E+03  0.10000000000E+01 0.  0.
    9000005    1    3    3    0    0 -0.48619240960E+02  0.19419828937E+02 -0.93477948972E+01  0.53191555880E+02  0.10000000000E+01 0.  0.
<mgrwt>
<rscale>  0 0.12498851E+03</rscale>
<asrwt>0</asrwt>
<pdfrwt beam="1">  1        4 0.70906562E-02 0.12498851E+03</pdfrwt>
<pdfrwt beam="2">  1       -4 0.34424988E-01 0.12498851E+03</pdfrwt>
<totfact> 0.17780860E+03</totfact>
</mgrwt>
</event>
<event>
 5    1  0.1438401E-002  0.1249957E+03  0.7818608E-02  0.1235076E+00
          4   -1    0    0  501    0  0.00000000000E+00  0.00000000000E+00  0.64599721873E+01  0.65836267103E+01  0.12700000000E+01 0. -1.
         -4   -1    0    0    0  501 -0.00000000000E+00 -0.00000000000E+00 -0.59878761264E+03  0.59878895945E+03  0.12700000000E+01 0. -1.
         25    2    1    2    0    0  0.00000000000E+00  0.00000000000E+00 -0.59232764046E+03  0.60537258616E+03  0.12499573762E+03 0.  0.
    9000005    1    3    3    0    0 -0.55361148931E+02 -0.65423510592E+01 -0.15940823129E+03  0.16887759879E+03  0.10000000000E+01 0.  0.
    9000005    1    3    3    0    0  0.55361148931E+02  0.65423510592E+01 -0.43291940916E+03  0.43649498737E+03  0.10000000000E+01 0.  0.
<mgrwt>
<rscale>  0 0.12499574E+03</rscale>
<asrwt>0</asrwt>
<pdfrwt beam="1">  1        4 0.16306202E-02 0.12499574E+03</pdfrwt>
<pdfrwt beam="2">  1       -4 0.14971234E+00 0.12499574E+03</pdfrwt>
<totfact> 0.72838137E+02</totfact>
</mgrwt>
</event>
<event>
 5    1  0.1438401E-002  0.1249980E+03  0.7818608E-02  0.1235072E+00
          4   -1    0    0  501    0  0.00000000000E+00  0.00000000000E+00  0.33456681586E+02  0.33480777212E+02  0.12700000000E+01 0.  1.
         -4   -1    0    0    0  501 -0.00000000000E+00 -0.00000000000E+00 -0.11668217505E+03  0.11668908635E+03  0.12700000000E+01 0.  1.
         25    2    1    2    0    0  0.00000000000E+00  0.00000000000E+00 -0.83225493464E+02  0.15016986357E+03  0.12499802063E+03 0.  0.
    9000005    1    3    3    0    0  0.59868387525E+02  0.17913718617E+02 -0.41653502279E+02  0.75107518875E+02  0.10000000000E+01 0.  0.
    9000005    1    3    3    0    0 -0.59868387525E+02 -0.17913718617E+02 -0.41571991185E+02  0.75062344692E+02  0.10000000000E+01 0.  0.
<mgrwt>
<rscale>  0 0.12499802E+03</rscale>
<asrwt>0</asrwt>
<pdfrwt beam="1">  1        4 0.83680465E-02 0.12499802E+03</pdfrwt>
<pdfrwt beam="2">  1       -4 0.29174419E-01 0.12499802E+03</pdfrwt>
<totfact> 0.18531285E+03</totfact>
</mgrwt>
</event>
<event>
 5    1  0.1438401E-002  0.1249960E+03  0.7818608E-02  0.1235076E+00
          4   -1    0    0  501    0  0.00000000000E+00  0.00000000000E+00  0.17870509453E+03  0.17870960722E+03  0.12700000000E+01 0.  1.
         -4   -1    0    0    0  501 -0.00000000000E+00 -0.00000000000E+00 -0.21834005292E+02  0.21870909608E+02  0.12700000000E+01 0.  1.
         25    2    1    2    0    0  0.00000000000E+00  0.00000000000E+00  0.15687108924E+03  0.20058051682E+03  0.12499602030E+03 0.  0.
    9000005    1    3    3    0    0  0.42711191812E+02  0.45554982065E+02  0.82198538058E+02  0.10323324056E+03  0.10000000000E+01 0.  0.
    9000005    1    3    3    0    0 -0.42711191812E+02 -0.45554982065E+02  0.74672551181E+02  0.97347276268E+02  0.10000000000E+01 0.  0.
<mgrwt>
<rscale>  0 0.12499602E+03</rscale>
<asrwt>0</asrwt>
<pdfrwt beam="1">  1        4 0.44681450E-01 0.12499602E+03</pdfrwt>
<pdfrwt beam="2">  1       -4 0.54636785E-02 0.12499602E+03</pdfrwt>
<totfact> 0.16300322E+03</totfact>
</mgrwt>
</event>
<event>
 5    1  0.1438401E-002  0.1250009E+03  0.7818608E-02  0.1235068E+00
         -4   -1    0    0    0  501 -0.00000000000E+00  0.00000000000E+00  0.49950794387E+02  0.49966936667E+02  0.12700000000E+01 0. -1.
          4   -1    0    0  501    0  0.00000000000E+00 -0.00000000000E+00 -0.78169197521E+02  0.78179513564E+02  0.12700000000E+01 0. -1.
         25    2    1    2    0    0  0.00000000000E+00  0.00000000000E+00 -0.28218403134E+02  0.12814645023E+03  0.12500093772E+03 0.  0.
    9000005    1    3    3    0    0 -0.40689597084E+02  0.44270727482E+02 -0.31560128893E+02  0.67915994864E+02  0.10000000000E+01 0.  0.
    9000005    1    3    3    0    0  0.40689597084E+02 -0.44270727482E+02  0.33417257590E+01  0.60230455367E+02  0.10000000000E+01 0.  0.
<mgrwt>
<rscale>  0 0.12500094E+03</rscale>
<asrwt>0</asrwt>
<pdfrwt beam="2">  1        4 0.19545607E-01 0.12500094E+03</pdfrwt>
<pdfrwt beam="1">  1       -4 0.12491006E-01 0.12500094E+03</pdfrwt>
<totfact> 0.19664139E+03</totfact>
</mgrwt>
</event>
<event>
 5    1  0.1438401E-002  0.1250021E+03  0.7818608E-02  0.1235066E+00
         -4   -1    0    0    0  501 -0.00000000000E+00  0.00000000000E+00  0.69126365248E+02  0.69138030580E+02  0.12700000000E+01 0. -1.
          4   -1    0    0  501    0  0.00000000000E+00 -0.00000000000E+00 -0.56487126775E+02  0.56501401675E+02  0.12700000000E+01 0. -1.
         25    2    1    2    0    0  0.00000000000E+00  0.00000000000E+00  0.12639238473E+02  0.12563943226E+03  0.12500206634E+03 0.  0.
    9000005    1    3    3    0    0 -0.19802950330E+02  0.26785563148E+02  0.59464128248E+02  0.68166016337E+02  0.10000000000E+01 0.  0.
    9000005    1    3    3    0    0  0.19802950330E+02 -0.26785563148E+02 -0.46824889775E+02  0.57473415918E+02  0.10000000000E+01 0.  0.
<mgrwt>
<rscale>  0 0.12500207E+03</rscale>
<asrwt>0</asrwt>
<pdfrwt beam="2">  1        4 0.14125024E-01 0.12500207E+03</pdfrwt>
<pdfrwt beam="1">  1       -4 0.17284834E-01 0.12500207E+03</pdfrwt>
<totfact> 0.19799460E+03</totfact>
</mgrwt>
</event>
<event>
 5    1  0.1438401E-002  0.1249997E+03  0.7818608E-02  0.1235070E+00
          4   -1    0    0  501    0  0.00000000000E+00  0.00000000000E+00  0.15032917381E+02  0.15086467611E+02  0.12700000000E+01 0. -1.
         -4   -1    0    0    0  501 -0.00000000000E+00 -0.00000000000E+00 -0.25932819566E+03  0.25933130541E+03  0.12700000000E+01 0. -1.
         25    2    1    2    0    0  0.00000000000E+00  0.00000000000E+00 -0.24429527828E+03  0.27441777302E+03  0.12499972464E+03 0.  0.
    9000005    1    3    3    0    0 -0.60940977733E+02  0.11996475620E+02 -0.13728034870E+03  0.15068049752E+03  0.10000000000E+01 0.  0.
    9000005    1    3    3    0    0  0.60940977733E+02 -0.11996475620E+02 -0.10701492958E+03  0.12373727550E+03  0.10000000000E+01 0.  0.
<mgrwt>
<rscale>  0 0.12499972E+03</rscale>
<asrwt>0</asrwt>
<pdfrwt beam="1">  1        4 0.37653127E-02 0.12499972E+03</pdfrwt>
<pdfrwt beam="2">  1       -4 0.64839117E-01 0.12499972E+03</pdfrwt>
<totfact> 0.13719689E+03</totfact>
</mgrwt>
</event>
<event>
 5    1  0.1438401E-002  0.1250010E+03  0.7818608E-02  0.1235068E+00
         -4   -1    0    0    0  501 -0.00000000000E+00  0.00000000000E+00  0.20839192104E+02  0.20877854956E+02  0.12700000000E+01 0.  1.
          4   -1    0    0  501    0  0.00000000000E+00 -0.00000000000E+00 -0.18723562061E+03  0.18723992770E+03  0.12700000000E+01 0.  1.
         25    2    1    2    0    0  0.00000000000E+00  0.00000000000E+00 -0.16639642851E+03  0.20811778266E+03  0.12500096015E+03 0.  0.
    9000005    1    3    3    0    0  0.51009780765E+01 -0.48363630732E+02 -0.14854005201E+03  0.15630165644E+03  0.10000000000E+01 0.  0.
    9000005    1    3    3    0    0 -0.51009780765E+01  0.48363630732E+02 -0.17856376503E+02  0.51816126223E+02  0.10000000000E+01 0.  0.
<mgrwt>
<rscale>  0 0.12500096E+03</rscale>
<asrwt>0</asrwt>
<pdfrwt beam="2">  1        4 0.46814271E-01 0.12500096E+03</pdfrwt>
<pdfrwt beam="1">  1       -4 0.52151698E-02 0.12500096E+03</pdfrwt>
<totfact> 0.16001718E+03</totfact>
</mgrwt>
</event>
<event>
 5    1  0.1438401E-002  0.1249999E+03  0.7818608E-02  0.1235069E+00
          4   -1    0    0  501    0  0.00000000000E+00  0.00000000000E+00  0.15454357957E+02  0.15506452846E+02  0.12700000000E+01 0.  1.
         -4   -1    0    0    0  501 -0.00000000000E+00 -0.00000000000E+00 -0.25228099219E+03  0.25228418880E+03  0.12700000000E+01 0.  1.
         25    2    1    2    0    0  0.00000000000E+00  0.00000000000E+00 -0.23682663423E+03  0.26779064165E+03  0.12499989229E+03 0.  0.
    9000005    1    3    3    0    0 -0.76913726933E+01 -0.30415016065E+02 -0.26282661960E+01  0.31498225337E+02  0.10000000000E+01 0.  0.
    9000005    1    3    3    0    0  0.76913726933E+01  0.30415016065E+02 -0.23419836803E+03  0.23629241631E+03  0.10000000000E+01 0.  0.
<mgrwt>
<rscale>  0 0.12499989E+03</rscale>
<asrwt>0</asrwt>
<pdfrwt beam="1">  1        4 0.38705017E-02 0.12499989E+03</pdfrwt>
<pdfrwt beam="2">  1       -4 0.63077146E-01 0.12499989E+03</pdfrwt>
<totfact> 0.13924392E+03</totfact>
</mgrwt>
</event>
<event>
 5    1  0.1438401E-002  0.1250018E+03  0.7818608E-02  0.1235066E+00
          4   -1    0    0  501    0  0.00000000000E+00  0.00000000000E+00  0.20561897469E+03  0.20562289671E+03  0.12700000000E+01 0.  1.
         -4   -1    0    0    0  501 -0.00000000000E+00 -0.00000000000E+00 -0.18972733298E+02  0.19015191527E+02  0.12700000000E+01 0.  1.
         25    2    1    2    0    0  0.00000000000E+00  0.00000000000E+00  0.18664624139E+03  0.22463808823E+03  0.12500180503E+03 0.  0.
    9000005    1    3    3    0    0 -0.40196449804E+01  0.58331193777E+02  0.53678198771E+02  0.79379057292E+02  0.10000000000E+01 0.  0.
    9000005    1    3    3    0    0  0.40196449804E+01 -0.58331193777E+02  0.13296804262E+03  0.14525903094E+03  0.10000000000E+01 0.  0.
<mgrwt>
<rscale>  0 0.12500181E+03</rscale>
<asrwt>0</asrwt>
<pdfrwt beam="1">  1        4 0.51410541E-01 0.12500181E+03</pdfrwt>
<pdfrwt beam="2">  1       -4 0.47489809E-02 0.12500181E+03</pdfrwt>
<totfact> 0.15380175E+03</totfact>
</mgrwt>
</event>
<event>
 5    1  0.1438401E-002  0.1249952E+03  0.7818608E-02  0.1235077E+00
         -4   -1    0    0    0  501 -0.00000000000E+00  0.00000000000E+00  0.65778115902E+02  0.65790374916E+02  0.12700000000E+01 0. -1.
          4   -1    0    0  501    0  0.00000000000E+00 -0.00000000000E+00 -0.59356118294E+02  0.59369703376E+02  0.12700000000E+01 0. -1.
         25    2    1    2    0    0  0.00000000000E+00  0.00000000000E+00  0.64219976076E+01  0.12516007829E+03  0.12499521249E+03 0.  0.
    9000005    1    3    3    0    0  0.11307849574E+02 -0.44064083531E+02 -0.39687542729E+02  0.60378903330E+02  0.10000000000E+01 0.  0.
    9000005    1    3    3    0    0 -0.11307849574E+02  0.44064083531E+02  0.46109540337E+02  0.64781174962E+02  0.10000000000E+01 0.  0.
<mgrwt>
<rscale>  0 0.12499521E+03</rscale>
<asrwt>0</asrwt>
<pdfrwt beam="2">  1        4 0.14842260E-01 0.12499521E+03</pdfrwt>
<pdfrwt beam="1">  1       -4 0.16447759E-01 0.12499521E+03</pdfrwt>
<totfact> 0.19828597E+03</totfact>
</mgrwt>
</event>
<event>
 5    1  0.1438401E-002  0.1249984E+03  0.7818608E-02  0.1235072E+00
         -4   -1    0    0    0  501 -0.00000000000E+00  0.00000000000E+00  0.12413002479E+02  0.12477801511E+02  0.12700000000E+01 0.  1.
          4   -1    0    0  501    0  0.00000000000E+00 -0.00000000000E+00 -0.31379668988E+03  0.31379925984E+03  0.12700000000E+01 0.  1.
         25    2    1    2    0    0  0.00000000000E+00  0.00000000000E+00 -0.30138368740E+03  0.32627706135E+03  0.12499837493E+03 0.  0.
    9000005    1    3    3    0    0 -0.34967030491E+02 -0.11192401270E+02 -0.18695080853E+02  0.41212487375E+02  0.10000000000E+01 0.  0.
    9000005    1    3    3    0    0  0.34967030491E+02  0.11192401270E+02 -0.28268860654E+03  0.28506457398E+03  0.10000000000E+01 0.  0.
<mgrwt>
<rscale>  0 0.12499837E+03</rscale>
<asrwt>0</asrwt>
<pdfrwt beam="2">  1        4 0.78457568E-01 0.12499837E+03</pdfrwt>
<pdfrwt beam="1">  1       -4 0.31116728E-02 0.12499837E+03</pdfrwt>
<totfact> 0.12265745E+03</totfact>
</mgrwt>
</event>
<event>
 5    1  0.1438401E-002  0.1249973E+03  0.7818608E-02  0.1235073E+00
         -4   -1    0    0    0  501 -0.00000000000E+00  0.00000000000E+00  0.43348626230E+03  0.43348812267E+03  0.12700000000E+01 0. -1.
          4   -1    0    0  501    0  0.00000000000E+00 -0.00000000000E+00 -0.89642197164E+01  0.90537359761E+01  0.12700000000E+01 0. -1.
         25    2    1    2    0    0  0.00000000000E+00  0.00000000000E+00  0.42452204258E+03  0.44254185865E+03  0.12499732806E+03 0.  0.
    9000005    1    3    3    0    0 -0.26956782018E+02  0.32235275993E+02  0.48507871136E+02  0.64185626719E+02  0.10000000000E+01 0.  0.
    9000005    1    3    3    0    0  0.26956782018E+02 -0.32235275993E+02  0.37601417144E+03  0.37835623193E+03  0.10000000000E+01 0.  0.
<mgrwt>
<rscale>  0 0.12499733E+03</rscale>
<asrwt>0</asrwt>
<pdfrwt beam="2">  1        4 0.22524771E-02 0.12499733E+03</pdfrwt>
<pdfrwt beam="1">  1       -4 0.10838299E+00 0.12499733E+03</pdfrwt>
<totfact> 0.97377505E+02</totfact>
</mgrwt>
</event>
<event>
 5    1  0.1438401E-002  0.1249981E+03  0.7818608E-02  0.1235072E+00
          4   -1    0    0  501    0  0.00000000000E+00  0.00000000000E+00  0.36398503060E+02  0.36420652451E+02  0.12700000000E+01 0.  1.
         -4   -1    0    0    0  501 -0.00000000000E+00 -0.00000000000E+00 -0.10725718686E+03  0.10726470544E+03  0.12700000000E+01 0.  1.
         25    2    1    2    0    0  0.00000000000E+00  0.00000000000E+00 -0.70858683797E+02  0.14368535789E+03  0.12499811599E+03 0.  0.
    9000005    1    3    3    0    0  0.36393606284E+02  0.29159529585E+02  0.12387095820E+02  0.48261919635E+02  0.10000000000E+01 0.  0.
    9000005    1    3    3    0    0 -0.36393606284E+02 -0.29159529585E+02 -0.83245779617E+02  0.95423438253E+02  0.10000000000E+01 0.  0.
<mgrwt>
<rscale>  0 0.12499812E+03</rscale>
<asrwt>0</asrwt>
<pdfrwt beam="1">  1        4 0.91033345E-02 0.12499812E+03</pdfrwt>
<pdfrwt beam="2">  1       -4 0.26818005E-01 0.12499812E+03</pdfrwt>
<totfact> 0.18854193E+03</totfact>
</mgrwt>
</event>
<event>
 5    1  0.1438401E-002  0.1250116E+03  0.7818608E-02  0.1235051E+00
          4   -1    0    0  501    0  0.00000000000E+00  0.00000000000E+00  0.26062927699E+01  0.28992519729E+01  0.12700000000E+01 0. -1.
         -4   -1    0    0    0  501 -0.00000000000E+00 -0.00000000000E+00 -0.14189934769E+04  0.14189940452E+04  0.12700000000E+01 0. -1.
         25    2    1    2    0    0  0.00000000000E+00  0.00000000000E+00 -0.14163871841E+04  0.14218932972E+04  0.12501157246E+03 0.  0.
    9000005    1    3    3    0    0  0.53495614381E+02  0.22781275606E+02 -0.96885794488E+03  0.97060160964E+03  0.10000000000E+01 0.  0.
    9000005    1    3    3    0    0 -0.53495614381E+02 -0.22781275606E+02 -0.44752923922E+03  0.45129168753E+03  0.10000000000E+01 0.  0.
<mgrwt>
<rscale>  0 0.12501157E+03</rscale>
<asrwt>0</asrwt>
<pdfrwt beam="1">  1        4 0.68826900E-03 0.12501157E+03</pdfrwt>
<pdfrwt beam="2">  1       -4 0.35478255E+00 0.12501157E+03</pdfrwt>
<totfact> 0.15244424E+02</totfact>
</mgrwt>
</event>
<event>
 5    1  0.1438401E-002  0.1250013E+03  0.7818608E-02  0.1235067E+00
         -4   -1    0    0    0  501 -0.00000000000E+00  0.00000000000E+00  0.52015236289E+02  0.52030738090E+02  0.12700000000E+01 0. -1.
          4   -1    0    0  501    0  0.00000000000E+00 -0.00000000000E+00 -0.75067632844E+02  0.75078375054E+02  0.12700000000E+01 0. -1.
         25    2    1    2    0    0  0.00000000000E+00  0.00000000000E+00 -0.23052396555E+02  0.12710911314E+03  0.12500125462E+03 0.  0.
    9000005    1    3    3    0    0 -0.28947899977E+02 -0.42355677736E+02 -0.47811872808E+02  0.70135294474E+02  0.10000000000E+01 0.  0.
    9000005    1    3    3    0    0  0.28947899977E+02  0.42355677736E+02  0.24759476253E+02  0.56973818670E+02  0.10000000000E+01 0.  0.
<mgrwt>
<rscale>  0 0.12500125E+03</rscale>
<asrwt>0</asrwt>
<pdfrwt beam="2">  1        4 0.18770189E-01 0.12500125E+03</pdfrwt>
<pdfrwt beam="1">  1       -4 0.13007090E-01 0.12500125E+03</pdfrwt>
<totfact> 0.19720506E+03</totfact>
</mgrwt>
</event>
<event>
 5    1  0.1438401E-002  0.1250043E+03  0.7818608E-02  0.1235063E+00
          4   -1    0    0  501    0  0.00000000000E+00  0.00000000000E+00  0.18227724253E+03  0.18228166678E+03  0.12700000000E+01 0. -1.
         -4   -1    0    0    0  501 -0.00000000000E+00 -0.00000000000E+00 -0.21408241240E+02  0.21445878228E+02  0.12700000000E+01 0. -1.
         25    2    1    2    0    0  0.00000000000E+00  0.00000000000E+00  0.16086900129E+03  0.20372754501E+03  0.12500430800E+03 0.  0.
    9000005    1    3    3    0    0 -0.40952896402E+02  0.37692545021E+02  0.12675111388E+03  0.13843667340E+03  0.10000000000E+01 0.  0.
    9000005    1    3    3    0    0  0.40952896402E+02 -0.37692545021E+02  0.34117887418E+02  0.65290871611E+02  0.10000000000E+01 0.  0.
<mgrwt>
<rscale>  0 0.12500431E+03</rscale>
<asrwt>0</asrwt>
<pdfrwt beam="1">  1        4 0.45574569E-01 0.12500431E+03</pdfrwt>
<pdfrwt beam="2">  1       -4 0.53573179E-02 0.12500431E+03</pdfrwt>
<totfact> 0.16172254E+03</totfact>
</mgrwt>
</event>
<event>
 5    1  0.1438401E-002  0.1249962E+03  0.7818608E-02  0.1235075E+00
         -4   -1    0    0    0  501 -0.00000000000E+00  0.00000000000E+00  0.31463171001E+03  0.31463427315E+03  0.12700000000E+01 0. -1.
          4   -1    0    0  501    0  0.00000000000E+00 -0.00000000000E+00 -0.12379460513E+02  0.12444434202E+02  0.12700000000E+01 0. -1.
         25    2    1    2    0    0  0.00000000000E+00  0.00000000000E+00  0.30225224949E+03  0.32707870735E+03  0.12499623386E+03 0.  0.
    9000005    1    3    3    0    0  0.48105338742E+02 -0.24200932926E+02  0.23408881919E+03  0.24020487930E+03  0.10000000000E+01 0.  0.
    9000005    1    3    3    0    0 -0.48105338742E+02  0.24200932926E+02  0.68163430308E+02  0.86873828058E+02  0.10000000000E+01 0.  0.
<mgrwt>
<rscale>  0 0.12499623E+03</rscale>
<asrwt>0</asrwt>
<pdfrwt beam="2">  1        4 0.31033075E-02 0.12499623E+03</pdfrwt>
<pdfrwt beam="1">  1       -4 0.78666363E-01 0.12499623E+03</pdfrwt>
<totfact> 0.12245737E+03</totfact>
</mgrwt>
</event>
<event>
 5    1  0.1438401E-002  0.1250005E+03  0.7818608E-02  0.1235068E+00
         -4   -1    0    0    0  501 -0.00000000000E+00  0.00000000000E+00  0.12695895972E+03  0.12696531162E+03  0.12700000000E+01 0. -1.
          4   -1    0    0  501    0  0.00000000000E+00 -0.00000000000E+00 -0.30747840276E+02  0.30774056958E+02  0.12700000000E+01 0. -1.
         25    2    1    2    0    0  0.00000000000E+00  0.00000000000E+00  0.96211119449E+02  0.15773936858E+03  0.12500051557E+03 0.  0.
    9000005    1    3    3    0    0  0.61646822391E+02 -0.69569612671E+01  0.57595272221E+02  0.84657813598E+02  0.10000000000E+01 0.  0.
    9000005    1    3    3    0    0 -0.61646822391E+02  0.69569612671E+01  0.38615847227E+02  0.73081554978E+02  0.10000000000E+01 0.  0.
<mgrwt>
<rscale>  0 0.12500052E+03</rscale>
<asrwt>0</asrwt>
<pdfrwt beam="2">  1        4 0.76910313E-02 0.12500052E+03</pdfrwt>
<pdfrwt beam="1">  1       -4 0.31743811E-01 0.12500052E+03</pdfrwt>
<totfact> 0.18164447E+03</totfact>
</mgrwt>
</event>
<event>
 5    1  0.1438401E-002  0.1249983E+03  0.7818608E-02  0.1235072E+00
          4   -1    0    0  501    0  0.00000000000E+00  0.00000000000E+00  0.16059273290E+02  0.16109412113E+02  0.12700000000E+01 0. -1.
         -4   -1    0    0    0  501 -0.00000000000E+00 -0.00000000000E+00 -0.24280199466E+03  0.24280531607E+03  0.12700000000E+01 0. -1.
         25    2    1    2    0    0  0.00000000000E+00  0.00000000000E+00 -0.22674272137E+03  0.25891472818E+03  0.12499829909E+03 0.  0.
    9000005    1    3    3    0    0  0.42557650585E+02  0.16949981647E+02 -0.20141424372E+03  0.20656028920E+03  0.10000000000E+01 0.  0.
    9000005    1    3    3    0    0 -0.42557650585E+02 -0.16949981647E+02 -0.25328477654E+02  0.52354438985E+02  0.10000000000E+01 0.  0.
<mgrwt>
<rscale>  0 0.12499830E+03</rscale>
<asrwt>0</asrwt>
<pdfrwt beam="1">  1        4 0.40215016E-02 0.12499830E+03</pdfrwt>
<pdfrwt beam="2">  1       -4 0.60707169E-01 0.12499830E+03</pdfrwt>
<totfact> 0.14206624E+03</totfact>
</mgrwt>
</event>
<event>
 5    1  0.1438401E-002  0.1250004E+03  0.7818608E-02  0.1235069E+00
          4   -1    0    0  501    0  0.00000000000E+00  0.00000000000E+00  0.77742211039E+03  0.77742314772E+03  0.12700000000E+01 0. -1.
         -4   -1    0    0    0  501 -0.00000000000E+00 -0.00000000000E+00 -0.49433448231E+01  0.51038767657E+01  0.12700000000E+01 0. -1.
         25    2    1    2    0    0  0.00000000000E+00  0.00000000000E+00  0.77247876556E+03  0.78252702449E+03  0.12500040324E+03 0.  0.
    9000005    1    3    3    0    0  0.18708900924E+02  0.48697883256E+02  0.17085148316E+03  0.17864136169E+03  0.10000000000E+01 0.  0.
    9000005    1    3    3    0    0 -0.18708900924E+02 -0.48697883256E+02  0.60162728240E+03  0.60388566280E+03  0.10000000000E+01 0.  0.
<mgrwt>
<rscale>  0 0.12500040E+03</rscale>
<asrwt>0</asrwt>
<pdfrwt beam="1">  1        4 0.19437577E+00 0.12500040E+03</pdfrwt>
<pdfrwt beam="2">  1       -4 0.12560321E-02 0.12500040E+03</pdfrwt>
<totfact> 0.54043215E+02</totfact>
</mgrwt>
</event>
<event>
 5    1  0.1438401E-002  0.1250022E+03  0.7818608E-02  0.1235066E+00
          4   -1    0    0  501    0  0.00000000000E+00  0.00000000000E+00  0.42903235560E+02  0.42922028395E+02  0.12700000000E+01 0. -1.
         -4   -1    0    0    0  501 -0.00000000000E+00 -0.00000000000E+00 -0.91007926574E+02  0.91016787458E+02  0.12700000000E+01 0. -1.
         25    2    1    2    0    0  0.00000000000E+00  0.00000000000E+00 -0.48104691014E+02  0.13393881585E+03  0.12500218036E+03 0.  0.
    9000005    1    3    3    0    0 -0.55658018022E+02  0.24906091482E+02 -0.93898141662E+01  0.61703297911E+02  0.10000000000E+01 0.  0.
    9000005    1    3    3    0    0  0.55658018022E+02 -0.24906091482E+02 -0.38714876847E+02  0.72235517942E+02  0.10000000000E+01 0.  0.
<mgrwt>
<rscale>  0 0.12500218E+03</rscale>
<asrwt>0</asrwt>
<pdfrwt beam="1">  1        4 0.10729266E-01 0.12500218E+03</pdfrwt>
<pdfrwt beam="2">  1       -4 0.22755438E-01 0.12500218E+03</pdfrwt>
<totfact> 0.19353881E+03</totfact>
</mgrwt>
</event>
<event>
 5    1  0.1438401E-002  0.1250012E+03  0.7818608E-02  0.1235067E+00
          4   -1    0    0  501    0  0.00000000000E+00  0.00000000000E+00  0.16125594111E+04  0.16125599112E+04  0.12700000000E+01 0.  1.
         -4   -1    0    0    0  501 -0.00000000000E+00 -0.00000000000E+00 -0.22554479544E+01  0.25884252886E+01  0.12700000000E+01 0.  1.
         25    2    1    2    0    0  0.00000000000E+00  0.00000000000E+00  0.16103039632E+04  0.16151483365E+04  0.12500118062E+03 0.  0.
    9000005    1    3    3    0    0  0.58488268338E+02 -0.21753734254E+01  0.10881539779E+04  0.10897273464E+04  0.10000000000E+01 0.  0.
    9000005    1    3    3    0    0 -0.58488268338E+02  0.21753734254E+01  0.52214998524E+03  0.52542099013E+03  0.10000000000E+01 0.  0.
<mgrwt>
<rscale>  0 0.12500118E+03</rscale>
<asrwt>0</asrwt>
<pdfrwt beam="1">  1        4 0.40318163E+00 0.12500118E+03</pdfrwt>
<pdfrwt beam="2">  1       -4 0.60554653E-03 0.12500118E+03</pdfrwt>
<totfact> 0.90981173E+01</totfact>
</mgrwt>
</event>
<event>
 5    1  0.1438401E-002  0.1250001E+03  0.7818608E-02  0.1235069E+00
          4   -1    0    0  501    0  0.00000000000E+00  0.00000000000E+00  0.17818243263E+02  0.17863445720E+02  0.12700000000E+01 0. -1.
         -4   -1    0    0    0  501 -0.00000000000E+00 -0.00000000000E+00 -0.21890326731E+03  0.21890695133E+03  0.12700000000E+01 0. -1.
         25    2    1    2    0    0  0.00000000000E+00  0.00000000000E+00 -0.20108502405E+03  0.23677039705E+03  0.12500013609E+03 0.  0.
    9000005    1    3    3    0    0  0.42780021055E+02 -0.27816699985E+02 -0.16887316344E+03  0.17641724499E+03  0.10000000000E+01 0.  0.
    9000005    1    3    3    0    0 -0.42780021055E+02  0.27816699985E+02 -0.32211860609E+02  0.60353152059E+02  0.10000000000E+01 0.  0.
<mgrwt>
<rscale>  0 0.12500014E+03</rscale>
<asrwt>0</asrwt>
<pdfrwt beam="1">  1        4 0.44606723E-02 0.12500014E+03</pdfrwt>
<pdfrwt beam="2">  1       -4 0.54731919E-01 0.12500014E+03</pdfrwt>
<totfact> 0.14948324E+03</totfact>
</mgrwt>
</event>
<event>
 5    1  0.1438401E-002  0.1249999E+03  0.7818608E-02  0.1235069E+00
          4   -1    0    0  501    0  0.00000000000E+00  0.00000000000E+00  0.11223418875E+03  0.11224137394E+03  0.12700000000E+01 0. -1.
         -4   -1    0    0    0  501 -0.00000000000E+00 -0.00000000000E+00 -0.34784509883E+02  0.34807686332E+02  0.12700000000E+01 0. -1.
         25    2    1    2    0    0  0.00000000000E+00  0.00000000000E+00  0.77449678869E+02  0.14704906028E+03  0.12499989348E+03 0.  0.
    9000005    1    3    3    0    0 -0.23821699784E+02  0.56822820782E+02  0.51003198149E+02  0.79991453066E+02  0.10000000000E+01 0.  0.
    9000005    1    3    3    0    0  0.23821699784E+02 -0.56822820782E+02  0.26446480720E+02  0.67057607209E+02  0.10000000000E+01 0.  0.
<mgrwt>
<rscale>  0 0.12499989E+03</rscale>
<asrwt>0</asrwt>
<pdfrwt beam="1">  1        4 0.28062342E-01 0.12499989E+03</pdfrwt>
<pdfrwt beam="2">  1       -4 0.86999227E-02 0.12499989E+03</pdfrwt>
<totfact> 0.18684883E+03</totfact>
</mgrwt>
</event>
<event>
 5    1  0.1438401E-002  0.1250155E+03  0.7818608E-02  0.1235045E+00
         -4   -1    0    0    0  501 -0.00000000000E+00  0.00000000000E+00  0.15814015197E+02  0.15864929141E+02  0.12700000000E+01 0. -1.
          4   -1    0    0  501    0  0.00000000000E+00 -0.00000000000E+00 -0.24662355239E+03  0.24662682233E+03  0.12700000000E+01 0. -1.
         25    2    1    2    0    0  0.00000000000E+00  0.00000000000E+00 -0.23080953719E+03  0.26249175147E+03  0.12501550757E+03 0.  0.
    9000005    1    3    3    0    0 -0.17928356713E+02  0.36552920070E+02 -0.21497175082E+03  0.21879532808E+03  0.10000000000E+01 0.  0.
    9000005    1    3    3    0    0  0.17928356713E+02 -0.36552920070E+02 -0.15837786376E+02  0.43696423394E+02  0.10000000000E+01 0.  0.
<mgrwt>
<rscale>  0 0.12501551E+03</rscale>
<asrwt>0</asrwt>
<pdfrwt beam="2">  1        4 0.61662649E-01 0.12501551E+03</pdfrwt>
<pdfrwt beam="1">  1       -4 0.39602776E-02 0.12501551E+03</pdfrwt>
<totfact> 0.14086468E+03</totfact>
</mgrwt>
</event>
<event>
 5    1  0.1438401E-002  0.1249999E+03  0.7818608E-02  0.1235070E+00
          4   -1    0    0  501    0  0.00000000000E+00  0.00000000000E+00  0.25265327551E+02  0.25297226651E+02  0.12700000000E+01 0. -1.
         -4   -1    0    0    0  501 -0.00000000000E+00 -0.00000000000E+00 -0.15447669900E+03  0.15448191944E+03  0.12700000000E+01 0. -1.
         25    2    1    2    0    0  0.00000000000E+00  0.00000000000E+00 -0.12921137145E+03  0.17977914609E+03  0.12499985143E+03 0.  0.
    9000005    1    3    3    0    0  0.58904005543E+02 -0.20838102695E+02 -0.62945585444E+02  0.88696421122E+02  0.10000000000E+01 0.  0.
    9000005    1    3    3    0    0 -0.58904005543E+02  0.20838102695E+02 -0.66265786004E+02  0.91082724969E+02  0.10000000000E+01 0.  0.
<mgrwt>
<rscale>  0 0.12499985E+03</rscale>
<asrwt>0</asrwt>
<pdfrwt beam="1">  1        4 0.63209723E-02 0.12499985E+03</pdfrwt>
<pdfrwt beam="2">  1       -4 0.38623812E-01 0.12499985E+03</pdfrwt>
<totfact> 0.17164837E+03</totfact>
</mgrwt>
</event>
<event>
 5    1  0.1438401E-002  0.1250456E+03  0.7818608E-02  0.1234998E+00
         -4   -1    0    0    0  501 -0.00000000000E+00  0.00000000000E+00  0.10185440386E+02  0.10264311758E+02  0.12700000000E+01 0.  1.
          4   -1    0    0  501    0  0.00000000000E+00 -0.00000000000E+00 -0.38223275502E+03  0.38223486485E+03  0.12700000000E+01 0.  1.
         25    2    1    2    0    0  0.00000000000E+00  0.00000000000E+00 -0.37204731463E+03  0.39249917661E+03  0.12504558895E+03 0.  0.
    9000005    1    3    3    0    0  0.49393911584E+02  0.17079983092E+02 -0.78355406597E+02  0.94191581720E+02  0.10000000000E+01 0.  0.
    9000005    1    3    3    0    0 -0.49393911584E+02 -0.17079983092E+02 -0.29369190804E+03  0.29830759489E+03  0.10000000000E+01 0.  0.
<mgrwt>
<rscale>  0 0.12504559E+03</rscale>
<asrwt>0</asrwt>
<pdfrwt beam="2">  1        4 0.95568264E-01 0.12504559E+03</pdfrwt>
<pdfrwt beam="1">  1       -4 0.25564840E-02 0.12504559E+03</pdfrwt>
<totfact> 0.10714225E+03</totfact>
</mgrwt>
</event>
<event>
 5    1  0.1438401E-002  0.1250087E+03  0.7818608E-02  0.1235056E+00
          4   -1    0    0  501    0  0.00000000000E+00  0.00000000000E+00  0.55784955734E+02  0.55799410268E+02  0.12700000000E+01 0. -1.
         -4   -1    0    0    0  501 -0.00000000000E+00 -0.00000000000E+00 -0.70003782915E+02  0.70015302059E+02  0.12700000000E+01 0. -1.
         25    2    1    2    0    0  0.00000000000E+00  0.00000000000E+00 -0.14218827182E+02  0.12581471233E+03  0.12500866687E+03 0.  0.
    9000005    1    3    3    0    0  0.10115549737E+02  0.45830224315E+02 -0.48643628966E+02  0.67601305064E+02  0.10000000000E+01 0.  0.
    9000005    1    3    3    0    0 -0.10115549737E+02 -0.45830224315E+02  0.34424801785E+02  0.58213407263E+02  0.10000000000E+01 0.  0.
<mgrwt>
<rscale>  0 0.12500867E+03</rscale>
<asrwt>0</asrwt>
<pdfrwt beam="1">  1        4 0.13949486E-01 0.12500867E+03</pdfrwt>
<pdfrwt beam="2">  1       -4 0.17504192E-01 0.12500867E+03</pdfrwt>
<totfact> 0.19786924E+03</totfact>
</mgrwt>
</event>
<event>
 5    1  0.1438401E-002  0.1250005E+03  0.7818608E-02  0.1235068E+00
          4   -1    0    0  501    0  0.00000000000E+00  0.00000000000E+00  0.22214421987E+03  0.22214785014E+03  0.12700000000E+01 0.  1.
         -4   -1    0    0    0  501 -0.00000000000E+00 -0.00000000000E+00 -0.17557728652E+02  0.17603600069E+02  0.12700000000E+01 0.  1.
         25    2    1    2    0    0  0.00000000000E+00  0.00000000000E+00  0.20458649122E+03  0.23975145021E+03  0.12500050195E+03 0.  0.
    9000005    1    3    3    0    0 -0.36608261362E+02  0.25632792370E+02  0.18607460069E+03  0.19136865435E+03  0.10000000000E+01 0.  0.
    9000005    1    3    3    0    0  0.36608261362E+02 -0.25632792370E+02  0.18511890531E+02  0.48382795864E+02  0.10000000000E+01 0.  0.
<mgrwt>
<rscale>  0 0.12500050E+03</rscale>
<asrwt>0</asrwt>
<pdfrwt beam="1">  1        4 0.55542242E-01 0.12500050E+03</pdfrwt>
<pdfrwt beam="2">  1       -4 0.43956199E-02 0.12500050E+03</pdfrwt>
<totfact> 0.14844847E+03</totfact>
</mgrwt>
</event>
<event>
 5    1  0.1438401E-002  0.1250074E+03  0.7818608E-02  0.1235058E+00
         -4   -1    0    0    0  501 -0.00000000000E+00  0.00000000000E+00  0.25231089057E+02  0.25263031390E+02  0.12700000000E+01 0.  1.
          4   -1    0    0  501    0  0.00000000000E+00 -0.00000000000E+00 -0.15470479683E+03  0.15471000957E+03  0.12700000000E+01 0.  1.
         25    2    1    2    0    0  0.00000000000E+00  0.00000000000E+00 -0.12947370777E+03  0.17997304096E+03  0.12500741765E+03 0.  0.
    9000005    1    3    3    0    0 -0.35867406053E+02  0.46049394771E+02 -0.96887494547E+02  0.11311588825E+03  0.10000000000E+01 0.  0.
    9000005    1    3    3    0    0  0.35867406053E+02 -0.46049394771E+02 -0.32586213222E+02  0.66857152705E+02  0.10000000000E+01 0.  0.
<mgrwt>
<rscale>  0 0.12500742E+03</rscale>
<asrwt>0</asrwt>
<pdfrwt beam="2">  1        4 0.38680841E-01 0.12500742E+03</pdfrwt>
<pdfrwt beam="1">  1       -4 0.63124171E-02 0.12500742E+03</pdfrwt>
<totfact> 0.17153431E+03</totfact>
</mgrwt>
</event>
<event>
 5    1  0.1438401E-002  0.1250010E+03  0.7818608E-02  0.1235068E+00
          4   -1    0    0  501    0  0.00000000000E+00  0.00000000000E+00  0.13695963931E+02  0.13754720208E+02  0.12700000000E+01 0.  1.
         -4   -1    0    0    0  501 -0.00000000000E+00 -0.00000000000E+00 -0.28454564912E+03  0.28454848327E+03  0.12700000000E+01 0.  1.
         25    2    1    2    0    0  0.00000000000E+00  0.00000000000E+00 -0.27084968519E+03  0.29830320348E+03  0.12500099696E+03 0.  0.
    9000005    1    3    3    0    0 -0.14635767363E+02  0.10769241218E+01 -0.28038695077E+03  0.28077251933E+03  0.10000000000E+01 0.  0.
    9000005    1    3    3    0    0  0.14635767363E+02 -0.10769241218E+01  0.95372655804E+01  0.17530684146E+02  0.10000000000E+01 0.  0.
<mgrwt>
<rscale>  0 0.12500100E+03</rscale>
<asrwt>0</asrwt>
<pdfrwt beam="1">  1        4 0.34316907E-02 0.12500100E+03</pdfrwt>
<pdfrwt beam="2">  1       -4 0.71144092E-01 0.12500100E+03</pdfrwt>
<totfact> 0.13018450E+03</totfact>
</mgrwt>
</event>
<event>
 5    1  0.1438401E-002  0.1250006E+03  0.7818608E-02  0.1235068E+00
         -4   -1    0    0    0  501 -0.00000000000E+00  0.00000000000E+00  0.20234010121E+03  0.20234408679E+03  0.12700000000E+01 0.  1.
          4   -1    0    0  501    0  0.00000000000E+00 -0.00000000000E+00 -0.19280492429E+02  0.19322274408E+02  0.12700000000E+01 0.  1.
         25    2    1    2    0    0  0.00000000000E+00  0.00000000000E+00  0.18305960878E+03  0.22166636120E+03  0.12500062127E+03 0.  0.
    9000005    1    3    3    0    0  0.61506743750E+02  0.10686480770E+02  0.96548159119E+02  0.11497750835E+03  0.10000000000E+01 0.  0.
    9000005    1    3    3    0    0 -0.61506743750E+02 -0.10686480770E+02  0.86511449663E+02  0.10668885284E+03  0.10000000000E+01 0.  0.
<mgrwt>
<rscale>  0 0.12500062E+03</rscale>
<asrwt>0</asrwt>
<pdfrwt beam="2">  1        4 0.48258442E-02 0.12500062E+03</pdfrwt>
<pdfrwt beam="1">  1       -4 0.50590745E-01 0.12500062E+03</pdfrwt>
<totfact> 0.15489512E+03</totfact>
</mgrwt>
</event>
<event>
 5    1  0.1438401E-002  0.1249984E+03  0.7818608E-02  0.1235072E+00
          4   -1    0    0  501    0  0.00000000000E+00  0.00000000000E+00  0.10367690423E+02  0.10445185719E+02  0.12700000000E+01 0.  1.
         -4   -1    0    0    0  501 -0.00000000000E+00 -0.00000000000E+00 -0.37528046825E+03  0.37528261717E+03  0.12700000000E+01 0.  1.
         25    2    1    2    0    0  0.00000000000E+00  0.00000000000E+00 -0.36491277783E+03  0.38572780289E+03  0.12499840999E+03 0.  0.
    9000005    1    3    3    0    0 -0.10072621373E+02  0.56952524569E+02 -0.25548791122E+03  0.26195442454E+03  0.10000000000E+01 0.  0.
    9000005    1    3    3    0    0  0.10072621373E+02 -0.56952524569E+02 -0.10942486660E+03  0.12377337835E+03  0.10000000000E+01 0.  0.
<mgrwt>
<rscale>  0 0.12499841E+03</rscale>
<asrwt>0</asrwt>
<pdfrwt beam="1">  1        4 0.26018794E-02 0.12499841E+03</pdfrwt>
<pdfrwt beam="2">  1       -4 0.93830028E-01 0.12499841E+03</pdfrwt>
<totfact> 0.10869609E+03</totfact>
</mgrwt>
</event>
<event>
 5    1  0.1438401E-002  0.1249948E+03  0.7818608E-02  0.1235077E+00
         -4   -1    0    0    0  501 -0.00000000000E+00  0.00000000000E+00  0.80927471554E+02  0.80937436036E+02  0.12700000000E+01 0.  1.
          4   -1    0    0  501    0  0.00000000000E+00 -0.00000000000E+00 -0.48243240109E+02  0.48259953546E+02  0.12700000000E+01 0.  1.
         25    2    1    2    0    0  0.00000000000E+00  0.00000000000E+00  0.32684231445E+02  0.12919738958E+03  0.12499482585E+03 0.  0.
    9000005    1    3    3    0    0 -0.49349854449E+01  0.10740118759E+02  0.79766610928E+02  0.80643762631E+02  0.10000000000E+01 0.  0.
    9000005    1    3    3    0    0  0.49349854449E+01 -0.10740118759E+02 -0.47082379483E+02  0.48553626951E+02  0.10000000000E+01 0.  0.
<mgrwt>
<rscale>  0 0.12499483E+03</rscale>
<asrwt>0</asrwt>
<pdfrwt beam="2">  1        4 0.12064145E-01 0.12499483E+03</pdfrwt>
<pdfrwt beam="1">  1       -4 0.20235202E-01 0.12499483E+03</pdfrwt>
<totfact> 0.19609997E+03</totfact>
</mgrwt>
</event>
<event>
 5    1  0.1438401E-002  0.1250012E+03  0.7818608E-02  0.1235067E+00
          4   -1    0    0  501    0  0.00000000000E+00  0.00000000000E+00  0.60224137355E+01  0.61548653277E+01  0.12700000000E+01 0. -1.
         -4   -1    0    0    0  501 -0.00000000000E+00 -0.00000000000E+00 -0.64144257966E+03  0.64144383690E+03  0.12700000000E+01 0. -1.
         25    2    1    2    0    0  0.00000000000E+00  0.00000000000E+00 -0.63542016592E+03  0.64759870223E+03  0.12500116746E+03 0.  0.
    9000005    1    3    3    0    0 -0.71155917713E+01  0.60424044193E+02 -0.39163804482E+03  0.39633704711E+03  0.10000000000E+01 0.  0.
    9000005    1    3    3    0    0  0.71155917713E+01 -0.60424044193E+02 -0.24378212110E+03  0.25126165512E+03  0.10000000000E+01 0.  0.
<mgrwt>
<rscale>  0 0.12500117E+03</rscale>
<asrwt>0</asrwt>
<pdfrwt beam="1">  1        4 0.15223192E-02 0.12500117E+03</pdfrwt>
<pdfrwt beam="2">  1       -4 0.16037713E+00 0.12500117E+03</pdfrwt>
<totfact> 0.67784661E+02</totfact>
</mgrwt>
</event>
<event>
 5    1  0.1438401E-002  0.1250038E+03  0.7818608E-02  0.1235063E+00
          4   -1    0    0  501    0  0.00000000000E+00  0.00000000000E+00  0.18868295910E+02  0.18910988619E+02  0.12700000000E+01 0. -1.
         -4   -1    0    0    0  501 -0.00000000000E+00 -0.00000000000E+00 -0.20676122120E+03  0.20676512155E+03  0.12700000000E+01 0. -1.
         25    2    1    2    0    0  0.00000000000E+00  0.00000000000E+00 -0.18789292529E+03  0.22567611017E+03  0.12500382126E+03 0.  0.
    9000005    1    3    3    0    0 -0.34437529637E+02  0.47940894608E+02 -0.13099872520E+03  0.14368694731E+03  0.10000000000E+01 0.  0.
    9000005    1    3    3    0    0  0.34437529637E+02 -0.47940894608E+02 -0.56894200090E+02  0.81989162864E+02  0.10000000000E+01 0.  0.
<mgrwt>
<rscale>  0 0.12500382E+03</rscale>
<asrwt>0</asrwt>
<pdfrwt beam="1">  1        4 0.47228988E-02 0.12500382E+03</pdfrwt>
<pdfrwt beam="2">  1       -4 0.51696122E-01 0.12500382E+03</pdfrwt>
<totfact> 0.15341703E+03</totfact>
</mgrwt>
</event>
<event>
 5    1  0.1438401E-002  0.1249988E+03  0.7818608E-02  0.1235071E+00
         -4   -1    0    0    0  501 -0.00000000000E+00  0.00000000000E+00  0.42994115714E+01  0.44830614384E+01  0.12700000000E+01 0. -1.
          4   -1    0    0  501    0  0.00000000000E+00 -0.00000000000E+00 -0.88935497336E+03  0.88935588014E+03  0.12700000000E+01 0. -1.
         25    2    1    2    0    0  0.00000000000E+00  0.00000000000E+00 -0.88505556179E+03  0.89383894158E+03  0.12499882411E+03 0.  0.
    9000005    1    3    3    0    0 -0.12790428898E+02 -0.11928521002E+01 -0.87984678438E+03  0.87994112414E+03  0.10000000000E+01 0.  0.
    9000005    1    3    3    0    0  0.12790428898E+02  0.11928521002E+01 -0.52087774108E+01  0.13897817442E+02  0.10000000000E+01 0.  0.
<mgrwt>
<rscale>  0 0.12499882E+03</rscale>
<asrwt>0</asrwt>
<pdfrwt beam="2">  1        4 0.22236120E+00 0.12499882E+03</pdfrwt>
<pdfrwt beam="1">  1       -4 0.10979255E-02 0.12499882E+03</pdfrwt>
<totfact> 0.44748326E+02</totfact>
</mgrwt>
</event>
<event>
 5    1  0.1438401E-002  0.1249942E+03  0.7818608E-02  0.1235078E+00
         -4   -1    0    0    0  501 -0.00000000000E+00  0.00000000000E+00  0.70277961280E+02  0.70289435491E+02  0.12700000000E+01 0. -1.
          4   -1    0    0  501    0  0.00000000000E+00 -0.00000000000E+00 -0.55554427429E+02  0.55568941927E+02  0.12700000000E+01 0. -1.
         25    2    1    2    0    0  0.00000000000E+00  0.00000000000E+00  0.14723533851E+02  0.12585837742E+03  0.12499419473E+03 0.  0.
    9000005    1    3    3    0    0 -0.36966017762E+02  0.31048000258E+02  0.47315090645E+02  0.67603125608E+02  0.10000000000E+01 0.  0.
    9000005    1    3    3    0    0  0.36966017762E+02 -0.31048000258E+02 -0.32591556794E+02  0.58255251810E+02  0.10000000000E+01 0.  0.
<mgrwt>
<rscale>  0 0.12499419E+03</rscale>
<asrwt>0</asrwt>
<pdfrwt beam="2">  1        4 0.13891855E-01 0.12499419E+03</pdfrwt>
<pdfrwt beam="1">  1       -4 0.17572739E-01 0.12499419E+03</pdfrwt>
<totfact> 0.19791263E+03</totfact>
</mgrwt>
</event>
<event>
 5    1  0.1438401E-002  0.1250008E+03  0.7818608E-02  0.1235068E+00
         -4   -1    0    0    0  501 -0.00000000000E+00  0.00000000000E+00  0.14775776636E+03  0.14776322418E+03  0.12700000000E+01 0. -1.
          4   -1    0    0  501    0  0.00000000000E+00 -0.00000000000E+00 -0.26415969172E+02  0.26446480433E+02  0.12700000000E+01 0. -1.
         25    2    1    2    0    0  0.00000000000E+00  0.00000000000E+00  0.12134179719E+03  0.17420970461E+03  0.12500075774E+03 0.  0.
    9000005    1    3    3    0    0  0.16639352543E+02 -0.11781503667E+02 -0.21657393908E+02  0.29760957521E+02  0.10000000000E+01 0.  0.
    9000005    1    3    3    0    0 -0.16639352543E+02  0.11781503667E+02  0.14299919110E+03  0.14444874709E+03  0.10000000000E+01 0.  0.
<mgrwt>
<rscale>  0 0.12500076E+03</rscale>
<asrwt>0</asrwt>
<pdfrwt beam="2">  1        4 0.66084885E-02 0.12500076E+03</pdfrwt>
<pdfrwt beam="1">  1       -4 0.36943937E-01 0.12500076E+03</pdfrwt>
<totfact> 0.17408520E+03</totfact>
</mgrwt>
</event>
<event>
 5    1  0.1438401E-002  0.1250004E+03  0.7818608E-02  0.1235069E+00
          4   -1    0    0  501    0  0.00000000000E+00  0.00000000000E+00  0.67535522489E+02  0.67547462556E+02  0.12700000000E+01 0.  1.
         -4   -1    0    0    0  501 -0.00000000000E+00 -0.00000000000E+00 -0.57816249238E+02  0.57830196057E+02  0.12700000000E+01 0.  1.
         25    2    1    2    0    0  0.00000000000E+00  0.00000000000E+00  0.97192732503E+01  0.12537765861E+03  0.12500037203E+03 0.  0.
    9000005    1    3    3    0    0  0.42642009920E+02  0.45269089572E+02 -0.12941704161E+01  0.62211786324E+02  0.10000000000E+01 0.  0.
    9000005    1    3    3    0    0 -0.42642009920E+02 -0.45269089572E+02  0.11013443666E+02  0.63165872289E+02  0.10000000000E+01 0.  0.
<mgrwt>
<rscale>  0 0.12500037E+03</rscale>
<asrwt>0</asrwt>
<pdfrwt beam="1">  1        4 0.16887116E-01 0.12500037E+03</pdfrwt>
<pdfrwt beam="2">  1       -4 0.14457298E-01 0.12500037E+03</pdfrwt>
<totfact> 0.19814415E+03</totfact>
</mgrwt>
</event>
<event>
 5    1  0.1438401E-002  0.1250081E+03  0.7818608E-02  0.1235057E+00
         -4   -1    0    0    0  501 -0.00000000000E+00  0.00000000000E+00  0.20560458263E+02  0.20599644268E+02  0.12700000000E+01 0.  1.
          4   -1    0    0  501    0  0.00000000000E+00 -0.00000000000E+00 -0.18979098982E+03  0.18979523892E+03  0.12700000000E+01 0.  1.
         25    2    1    2    0    0  0.00000000000E+00  0.00000000000E+00 -0.16923053156E+03  0.21039488319E+03  0.12500813598E+03 0.  0.
    9000005    1    3    3    0    0  0.37919898714E+01  0.56075959547E+02 -0.13061107508E+03  0.14219404122E+03  0.10000000000E+01 0.  0.
    9000005    1    3    3    0    0 -0.37919898714E+01 -0.56075959547E+02 -0.38619456486E+02  0.68200841972E+02  0.10000000000E+01 0.  0.
<mgrwt>
<rscale>  0 0.12500814E+03</rscale>
<asrwt>0</asrwt>
<pdfrwt beam="2">  1        4 0.47453172E-01 0.12500814E+03</pdfrwt>
<pdfrwt beam="1">  1       -4 0.51455445E-02 0.12500814E+03</pdfrwt>
<totfact> 0.15911117E+03</totfact>
</mgrwt>
</event>
<event>
 5    1  0.1438401E-002  0.1250024E+03  0.7818608E-02  0.1235065E+00
         -4   -1    0    0    0  501 -0.00000000000E+00  0.00000000000E+00  0.21264370002E+04  0.21264373794E+04  0.12700000000E+01 0. -1.
          4   -1    0    0  501    0  0.00000000000E+00 -0.00000000000E+00 -0.16171456988E+01  0.20562247472E+01  0.12700000000E+01 0. -1.
         25    2    1    2    0    0  0.00000000000E+00  0.00000000000E+00  0.21248198545E+04  0.21284936042E+04  0.12500243607E+03 0.  0.
    9000005    1    3    3    0    0 -0.99007592669E+01 -0.36542262077E+02  0.21580333390E+03  0.21910143969E+03  0.10000000000E+01 0.  0.
    9000005    1    3    3    0    0  0.99007592669E+01  0.36542262077E+02  0.19090165206E+04  0.19093921645E+04  0.10000000000E+01 0.  0.
<mgrwt>
<rscale>  0 0.12500244E+03</rscale>
<asrwt>0</asrwt>
<pdfrwt beam="2">  1        4 0.45921775E-03 0.12500244E+03</pdfrwt>
<pdfrwt beam="1">  1       -4 0.53166530E+00 0.12500244E+03</pdfrwt>
<totfact> 0.15599485E+01</totfact>
</mgrwt>
</event>
<event>
 5    1  0.1438401E-002  0.1250085E+03  0.7818608E-02  0.1235056E+00
          4   -1    0    0  501    0  0.00000000000E+00  0.00000000000E+00  0.15431499345E+03  0.15432021936E+03  0.12700000000E+01 0.  1.
         -4   -1    0    0    0  501 -0.00000000000E+00 -0.00000000000E+00 -0.25295359005E+02  0.25327220282E+02  0.12700000000E+01 0.  1.
         25    2    1    2    0    0  0.00000000000E+00  0.00000000000E+00  0.12901963445E+03  0.17964743964E+03  0.12500854570E+03 0.  0.
    9000005    1    3    3    0    0  0.23579319974E+02 -0.52917468098E+02  0.30821328962E+02  0.65629239516E+02  0.10000000000E+01 0.  0.
    9000005    1    3    3    0    0 -0.23579319974E+02  0.52917468098E+02  0.98198305483E+02  0.11401820013E+03  0.10000000000E+01 0.  0.
<mgrwt>
<rscale>  0 0.12500855E+03</rscale>
<asrwt>0</asrwt>
<pdfrwt beam="1">  1        4 0.38583384E-01 0.12500855E+03</pdfrwt>
<pdfrwt beam="2">  1       -4 0.63284757E-02 0.12500855E+03</pdfrwt>
<totfact> 0.17167083E+03</totfact>
</mgrwt>
</event>
<event>
 5    1  0.1438401E-002  0.1249995E+03  0.7818608E-02  0.1235070E+00
          4   -1    0    0  501    0  0.00000000000E+00  0.00000000000E+00  0.36028804545E+02  0.36051181076E+02  0.12700000000E+01 0. -1.
         -4   -1    0    0    0  501 -0.00000000000E+00 -0.00000000000E+00 -0.10835953001E+03  0.10836697211E+03  0.12700000000E+01 0. -1.
         25    2    1    2    0    0  0.00000000000E+00  0.00000000000E+00 -0.72330725466E+02  0.14441815319E+03  0.12499947649E+03 0.  0.
    9000005    1    3    3    0    0  0.51388508285E+01 -0.44093430172E+01 -0.10794010519E+03  0.10815690640E+03  0.10000000000E+01 0.  0.
    9000005    1    3    3    0    0 -0.51388508285E+01  0.44093430172E+01  0.35609379727E+02  0.36261246782E+02  0.10000000000E+01 0.  0.
<mgrwt>
<rscale>  0 0.12499948E+03</rscale>
<asrwt>0</asrwt>
<pdfrwt beam="1">  1        4 0.90109287E-02 0.12499948E+03</pdfrwt>
<pdfrwt beam="2">  1       -4 0.27093609E-01 0.12499948E+03</pdfrwt>
<totfact> 0.18816781E+03</totfact>
</mgrwt>
</event>
<event>
 5    1  0.1438401E-002  0.1250007E+03  0.7818608E-02  0.1235068E+00
         -4   -1    0    0    0  501 -0.00000000000E+00  0.00000000000E+00  0.26006766292E+03  0.26007076382E+03  0.12700000000E+01 0. -1.
          4   -1    0    0  501    0  0.00000000000E+00 -0.00000000000E+00 -0.14990259217E+02  0.15043961293E+02  0.12700000000E+01 0. -1.
         25    2    1    2    0    0  0.00000000000E+00  0.00000000000E+00  0.24507740370E+03  0.27511472512E+03  0.12500071268E+03 0.  0.
    9000005    1    3    3    0    0  0.26308708784E+02  0.45423307879E+02  0.47906608794E+02  0.71073681645E+02  0.10000000000E+01 0.  0.
    9000005    1    3    3    0    0 -0.26308708784E+02 -0.45423307879E+02  0.19717079491E+03  0.20404104347E+03  0.10000000000E+01 0.  0.
<mgrwt>
<rscale>  0 0.12500071E+03</rscale>
<asrwt>0</asrwt>
<pdfrwt beam="2">  1        4 0.37546653E-02 0.12500071E+03</pdfrwt>
<pdfrwt beam="1">  1       -4 0.65024013E-01 0.12500071E+03</pdfrwt>
<totfact> 0.13698114E+03</totfact>
</mgrwt>
</event>
<event>
 5    1  0.1438401E-002  0.1249870E+03  0.7818608E-02  0.1235090E+00
         -4   -1    0    0    0  501 -0.00000000000E+00  0.00000000000E+00  0.76043684302E+02  0.76054288651E+02  0.12700000000E+01 0. -1.
          4   -1    0    0  501    0  0.00000000000E+00 -0.00000000000E+00 -0.51335774797E+02  0.51351481712E+02  0.12700000000E+01 0. -1.
         25    2    1    2    0    0  0.00000000000E+00  0.00000000000E+00  0.24707909505E+02  0.12740577036E+03  0.12498699744E+03 0.  0.
    9000005    1    3    3    0    0 -0.10684638008E+02  0.61555256603E+02  0.11225150468E+02  0.63483975205E+02  0.10000000000E+01 0.  0.
    9000005    1    3    3    0    0  0.10684638008E+02 -0.61555256603E+02  0.13482759037E+02  0.63921795157E+02  0.10000000000E+01 0.  0.
<mgrwt>
<rscale>  0 0.12498700E+03</rscale>
<asrwt>0</asrwt>
<pdfrwt beam="2">  1        4 0.12837233E-01 0.12498700E+03</pdfrwt>
<pdfrwt beam="1">  1       -4 0.19014210E-01 0.12498700E+03</pdfrwt>
<totfact> 0.19710911E+03</totfact>
</mgrwt>
</event>
<event>
 5    1  0.1438401E-002  0.1250065E+03  0.7818608E-02  0.1235059E+00
          4   -1    0    0  501    0  0.00000000000E+00  0.00000000000E+00  0.89201372238E+01  0.90100914586E+01  0.12700000000E+01 0.  1.
         -4   -1    0    0    0  501 -0.00000000000E+00 -0.00000000000E+00 -0.43567128559E+03  0.43567313663E+03  0.12700000000E+01 0.  1.
         25    2    1    2    0    0  0.00000000000E+00  0.00000000000E+00 -0.42675114836E+03  0.44468322809E+03  0.12500652270E+03 0.  0.
    9000005    1    3    3    0    0 -0.23854399911E+02 -0.49814581179E+02 -0.31739988663E+03  0.32217109263E+03  0.10000000000E+01 0.  0.
    9000005    1    3    3    0    0  0.23854399911E+02  0.49814581179E+02 -0.10935126173E+03  0.12251213546E+03  0.10000000000E+01 0.  0.
<mgrwt>
<rscale>  0 0.12500652E+03</rscale>
<asrwt>0</asrwt>
<pdfrwt beam="1">  1        4 0.22415114E-02 0.12500652E+03</pdfrwt>
<pdfrwt beam="2">  1       -4 0.10892923E+00 0.12500652E+03</pdfrwt>
<totfact> 0.96965106E+02</totfact>
</mgrwt>
</event>
<event>
 5    1  0.1438401E-002  0.1249943E+03  0.7818608E-02  0.1235078E+00
         -4   -1    0    0    0  501 -0.00000000000E+00  0.00000000000E+00  0.29095468736E+02  0.29123172921E+02  0.12700000000E+01 0. -1.
          4   -1    0    0  501    0  0.00000000000E+00 -0.00000000000E+00 -0.13414956855E+03  0.13415557999E+03  0.12700000000E+01 0. -1.
         25    2    1    2    0    0  0.00000000000E+00  0.00000000000E+00 -0.10505409981E+03  0.16327875291E+03  0.12499434893E+03 0.  0.
    9000005    1    3    3    0    0 -0.49958346699E+01 -0.46624684351E+02 -0.10648291291E+03  0.11635476052E+03  0.10000000000E+01 0.  0.
    9000005    1    3    3    0    0  0.49958346699E+01  0.46624684351E+02  0.14288130925E+01  0.46923992389E+02  0.10000000000E+01 0.  0.
<mgrwt>
<rscale>  0 0.12499435E+03</rscale>
<asrwt>0</asrwt>
<pdfrwt beam="2">  1        4 0.33541605E-01 0.12499435E+03</pdfrwt>
<pdfrwt beam="1">  1       -4 0.72780820E-02 0.12499435E+03</pdfrwt>
<totfact> 0.17906885E+03</totfact>
</mgrwt>
</event>
<event>
 5    1  0.1438401E-002  0.1250009E+03  0.7818608E-02  0.1235068E+00
          4   -1    0    0  501    0  0.00000000000E+00  0.00000000000E+00  0.27303852315E+02  0.27333372482E+02  0.12700000000E+01 0. -1.
         -4   -1    0    0    0  501 -0.00000000000E+00 -0.00000000000E+00 -0.14295837123E+03  0.14296401227E+03  0.12700000000E+01 0. -1.
         25    2    1    2    0    0  0.00000000000E+00  0.00000000000E+00 -0.11565451892E+03  0.17029738476E+03  0.12500092603E+03 0.  0.
    9000005    1    3    3    0    0 -0.27774772799E+02 -0.48695562277E+02 -0.95449667605E+02  0.11069929916E+03  0.10000000000E+01 0.  0.
    9000005    1    3    3    0    0  0.27774772799E+02  0.48695562277E+02 -0.20204851311E+02  0.59598085591E+02  0.10000000000E+01 0.  0.
<mgrwt>
<rscale>  0 0.12500093E+03</rscale>
<asrwt>0</asrwt>
<pdfrwt beam="1">  1        4 0.68303586E-02 0.12500093E+03</pdfrwt>
<pdfrwt beam="2">  1       -4 0.35743986E-01 0.12500093E+03</pdfrwt>
<totfact> 0.17583265E+03</totfact>
</mgrwt>
</event>
<event>
 5    1  0.1438401E-002  0.1250022E+03  0.7818608E-02  0.1235066E+00
          4   -1    0    0  501    0  0.00000000000E+00  0.00000000000E+00  0.10422204001E+04  0.10422211739E+04  0.12700000000E+01 0.  1.
         -4   -1    0    0    0  501 -0.00000000000E+00 -0.00000000000E+00 -0.36397608321E+01  0.38549654881E+01  0.12700000000E+01 0.  1.
         25    2    1    2    0    0  0.00000000000E+00  0.00000000000E+00  0.10385806393E+04  0.10460761394E+04  0.12500218036E+03 0.  0.
    9000005    1    3    3    0    0  0.28534164351E+02  0.55530746687E+02  0.49633583609E+03  0.50024806302E+03  0.10000000000E+01 0.  0.
    9000005    1    3    3    0    0 -0.28534164351E+02 -0.55530746687E+02  0.54224480321E+03  0.54582807638E+03  0.10000000000E+01 0.  0.
<mgrwt>
<rscale>  0 0.12500218E+03</rscale>
<asrwt>0</asrwt>
<pdfrwt beam="1">  1        4 0.26058205E+00 0.12500218E+03</pdfrwt>
<pdfrwt beam="2">  1       -4 0.93693767E-03 0.12500218E+03</pdfrwt>
<totfact> 0.34095071E+02</totfact>
</mgrwt>
</event>
<event>
 5    1  0.1438401E-002  0.1249998E+03  0.7818608E-02  0.1235070E+00
          4   -1    0    0  501    0  0.00000000000E+00  0.00000000000E+00  0.10821133018E+03  0.10821878247E+03  0.12700000000E+01 0.  1.
         -4   -1    0    0    0  501 -0.00000000000E+00 -0.00000000000E+00 -0.36078340880E+02  0.36100686706E+02  0.12700000000E+01 0.  1.
         25    2    1    2    0    0  0.00000000000E+00  0.00000000000E+00  0.72132989296E+02  0.14431946917E+03  0.12499976415E+03 0.  0.
    9000005    1    3    3    0    0 -0.52804623061E+02  0.25504072107E+02  0.11131000752E+02  0.59696608685E+02  0.10000000000E+01 0.  0.
    9000005    1    3    3    0    0  0.52804623061E+02 -0.25504072107E+02  0.61001988544E+02  0.84622860487E+02  0.10000000000E+01 0.  0.
<mgrwt>
<rscale>  0 0.12499976E+03</rscale>
<asrwt>0</asrwt>
<pdfrwt beam="1">  1        4 0.27056557E-01 0.12499976E+03</pdfrwt>
<pdfrwt beam="2">  1       -4 0.90233100E-02 0.12499976E+03</pdfrwt>
<totfact> 0.18821605E+03</totfact>
</mgrwt>
</event>
<event>
 5    1  0.1438401E-002  0.1250022E+03  0.7818608E-02  0.1235066E+00
          4   -1    0    0  501    0  0.00000000000E+00  0.00000000000E+00  0.10033308674E+02  0.10113366548E+02  0.12700000000E+01 0. -1.
         -4   -1    0    0    0  501 -0.00000000000E+00 -0.00000000000E+00 -0.38771362580E+03  0.38771570581E+03  0.12700000000E+01 0. -1.
         25    2    1    2    0    0  0.00000000000E+00  0.00000000000E+00 -0.37768031713E+03  0.39782907236E+03  0.12500219545E+03 0.  0.
    9000005    1    3    3    0    0  0.42342157701E+02  0.31873934574E+02 -0.83450190478E+02  0.98862228959E+02  0.10000000000E+01 0.  0.
    9000005    1    3    3    0    0 -0.42342157701E+02 -0.31873934574E+02 -0.29423012665E+03  0.29896684340E+03  0.10000000000E+01 0.  0.
<mgrwt>
<rscale>  0 0.12500220E+03</rscale>
<asrwt>0</asrwt>
<pdfrwt beam="1">  1        4 0.25185957E-02 0.12500220E+03</pdfrwt>
<pdfrwt beam="2">  1       -4 0.96938624E-01 0.12500220E+03</pdfrwt>
<totfact> 0.10613527E+03</totfact>
</mgrwt>
</event>
<event>
 5    1  0.1438401E-002  0.1249970E+03  0.7818608E-02  0.1235074E+00
         -4   -1    0    0    0  501 -0.00000000000E+00  0.00000000000E+00  0.27477824205E+03  0.27478117695E+03  0.12700000000E+01 0.  1.
          4   -1    0    0  501    0  0.00000000000E+00 -0.00000000000E+00 -0.14183953579E+02  0.14240696582E+02  0.12700000000E+01 0.  1.
         25    2    1    2    0    0  0.00000000000E+00  0.00000000000E+00  0.26059428847E+03  0.28902187353E+03  0.12499704074E+03 0.  0.
    9000005    1    3    3    0    0 -0.57409818193E+01 -0.45162617644E+02  0.31317394065E+02  0.55266627143E+02  0.10000000000E+01 0.  0.
    9000005    1    3    3    0    0  0.57409818193E+01  0.45162617644E+02  0.22927689441E+03  0.23375524639E+03  0.10000000000E+01 0.  0.
<mgrwt>
<rscale>  0 0.12499704E+03</rscale>
<asrwt>0</asrwt>
<pdfrwt beam="2">  1        4 0.35534483E-02 0.12499704E+03</pdfrwt>
<pdfrwt beam="1">  1       -4 0.68702018E-01 0.12499704E+03</pdfrwt>
<totfact> 0.13285315E+03</totfact>
</mgrwt>
</event>
<event>
 5    1  0.1438401E-002  0.1249949E+03  0.7818608E-02  0.1235077E+00
          4   -1    0    0  501    0  0.00000000000E+00  0.00000000000E+00  0.31975651824E+01  0.34405411051E+01  0.12700000000E+01 0.  1.
         -4   -1    0    0    0  501 -0.00000000000E+00 -0.00000000000E+00 -0.11765785221E+04  0.11765792075E+04  0.12700000000E+01 0.  1.
         25    2    1    2    0    0  0.00000000000E+00  0.00000000000E+00 -0.11733809569E+04  0.11800197486E+04  0.12499494825E+03 0.  0.
    9000005    1    3    3    0    0  0.58001281753E+02  0.23102186665E+02 -0.56158049225E+03  0.56504115690E+03  0.10000000000E+01 0.  0.
    9000005    1    3    3    0    0 -0.58001281753E+02 -0.23102186665E+02 -0.61180046467E+03  0.61497859173E+03  0.10000000000E+01 0.  0.
<mgrwt>
<rscale>  0 0.12499495E+03</rscale>
<asrwt>0</asrwt>
<pdfrwt beam="1">  1        4 0.82985300E-03 0.12499495E+03</pdfrwt>
<pdfrwt beam="2">  1       -4 0.29417366E+00 0.12499495E+03</pdfrwt>
<totfact> 0.26264536E+02</totfact>
</mgrwt>
</event>
<event>
 5    1  0.1438401E-002  0.1250011E+03  0.7818608E-02  0.1235068E+00
          4   -1    0    0  501    0  0.00000000000E+00  0.00000000000E+00  0.94945952368E+01  0.95791564718E+01  0.12700000000E+01 0.  1.
         -4   -1    0    0    0  501 -0.00000000000E+00 -0.00000000000E+00 -0.40951572941E+03  0.40951769869E+03  0.12700000000E+01 0.  1.
         25    2    1    2    0    0  0.00000000000E+00  0.00000000000E+00 -0.40002113418E+03  0.41909685516E+03  0.12500106486E+03 0.  0.
    9000005    1    3    3    0    0 -0.41891301598E+02 -0.46323305368E+02 -0.20719106957E+03  0.21640210045E+03  0.10000000000E+01 0.  0.
    9000005    1    3    3    0    0  0.41891301598E+02  0.46323305368E+02 -0.19283006461E+03  0.20269475471E+03  0.10000000000E+01 0.  0.
<mgrwt>
<rscale>  0 0.12500106E+03</rscale>
<asrwt>0</asrwt>
<pdfrwt beam="1">  1        4 0.23844665E-02 0.12500106E+03</pdfrwt>
<pdfrwt beam="2">  1       -4 0.10238969E+00 0.12500106E+03</pdfrwt>
<totfact> 0.10183692E+03</totfact>
</mgrwt>
</event>
<event>
 5    1  0.1438401E-002  0.1250044E+03  0.7818608E-02  0.1235062E+00
          4   -1    0    0  501    0  0.00000000000E+00  0.00000000000E+00  0.77989234303E+01  0.79016521483E+01  0.12700000000E+01 0.  1.
         -4   -1    0    0    0  501 -0.00000000000E+00 -0.00000000000E+00 -0.49752491187E+03  0.49752653279E+03  0.12700000000E+01 0.  1.
         25    2    1    2    0    0  0.00000000000E+00  0.00000000000E+00 -0.48972598844E+03  0.50542818494E+03  0.12500442543E+03 0.  0.
    9000005    1    3    3    0    0  0.58851109417E+02  0.15828247583E+02 -0.18890477111E+03  0.19849433002E+03  0.10000000000E+01 0.  0.
    9000005    1    3    3    0    0 -0.58851109417E+02 -0.15828247583E+02 -0.30082121733E+03  0.30693385492E+03  0.10000000000E+01 0.  0.
<mgrwt>
<rscale>  0 0.12500443E+03</rscale>
<asrwt>0</asrwt>
<pdfrwt beam="1">  1        4 0.19627762E-02 0.12500443E+03</pdfrwt>
<pdfrwt beam="2">  1       -4 0.12439417E+00 0.12500443E+03</pdfrwt>
<totfact> 0.86741351E+02</totfact>
</mgrwt>
</event>
<event>
 5    1  0.1438401E-002  0.1250003E+03  0.7818608E-02  0.1235069E+00
          4   -1    0    0  501    0  0.00000000000E+00  0.00000000000E+00  0.22557432136E+02  0.22593154817E+02  0.12700000000E+01 0. -1.
         -4   -1    0    0    0  501 -0.00000000000E+00 -0.00000000000E+00 -0.17299478805E+03  0.17299944969E+03  0.12700000000E+01 0. -1.
         25    2    1    2    0    0  0.00000000000E+00  0.00000000000E+00 -0.15043735592E+03  0.19559260451E+03  0.12500027553E+03 0.  0.
    9000005    1    3    3    0    0 -0.28549257862E+02  0.52118555836E+02 -0.44963630494E+02  0.74526049500E+02  0.10000000000E+01 0.  0.
    9000005    1    3    3    0    0  0.28549257862E+02 -0.52118555836E+02 -0.10547372542E+03  0.12106655501E+03  0.10000000000E+01 0.  0.
<mgrwt>
<rscale>  0 0.12500028E+03</rscale>
<asrwt>0</asrwt>
<pdfrwt beam="1">  1        4 0.56444066E-02 0.12500028E+03</pdfrwt>
<pdfrwt beam="2">  1       -4 0.43253741E-01 0.12500028E+03</pdfrwt>
<totfact> 0.16499950E+03</totfact>
</mgrwt>
</event>
<event>
 5    1  0.1438401E-002  0.1250014E+03  0.7818608E-02  0.1235067E+00
          4   -1    0    0  501    0  0.00000000000E+00  0.00000000000E+00  0.82783959739E+03  0.82784057155E+03  0.12700000000E+01 0. -1.
         -4   -1    0    0    0  501 -0.00000000000E+00 -0.00000000000E+00 -0.46322685421E+01  0.48032084950E+01  0.12700000000E+01 0. -1.
         25    2    1    2    0    0  0.00000000000E+00  0.00000000000E+00  0.82320732885E+03  0.83264378004E+03  0.12500143272E+03 0.  0.
    9000005    1    3    3    0    0 -0.14812307336E+02  0.33305214365E+02  0.73479667452E+02  0.82029892608E+02  0.10000000000E+01 0.  0.
    9000005    1    3    3    0    0  0.14812307336E+02 -0.33305214365E+02  0.74972766139E+03  0.75061388744E+03  0.10000000000E+01 0.  0.
<mgrwt>
<rscale>  0 0.12500143E+03</rscale>
<asrwt>0</asrwt>
<pdfrwt beam="1">  1        4 0.20698138E+00 0.12500143E+03</pdfrwt>
<pdfrwt beam="2">  1       -4 0.11795564E-02 0.12500143E+03</pdfrwt>
<totfact> 0.49667417E+02</totfact>
</mgrwt>
</event>
<event>
 5    1  0.1438401E-002  0.1249987E+03  0.7818608E-02  0.1235071E+00
         -4   -1    0    0    0  501 -0.00000000000E+00  0.00000000000E+00  0.14809304229E+03  0.14809848776E+03  0.12700000000E+01 0. -1.
          4   -1    0    0  501    0  0.00000000000E+00 -0.00000000000E+00 -0.26355210250E+02  0.26385791770E+02  0.12700000000E+01 0. -1.
         25    2    1    2    0    0  0.00000000000E+00  0.00000000000E+00  0.12173783204E+03  0.17448427953E+03  0.12499865620E+03 0.  0.
    9000005    1    3    3    0    0 -0.59355911746E+02  0.16349657795E+02  0.75820606466E+02  0.97673947059E+02  0.10000000000E+01 0.  0.
    9000005    1    3    3    0    0  0.59355911746E+02 -0.16349657795E+02  0.45917225577E+02  0.76810332468E+02  0.10000000000E+01 0.  0.
<mgrwt>
<rscale>  0 0.12499866E+03</rscale>
<asrwt>0</asrwt>
<pdfrwt beam="2">  1        4 0.65933060E-02 0.12499866E+03</pdfrwt>
<pdfrwt beam="1">  1       -4 0.37027763E-01 0.12499866E+03</pdfrwt>
<totfact> 0.17397206E+03</totfact>
</mgrwt>
</event>
<event>
 5    1  0.1438401E-002  0.1250055E+03  0.7818608E-02  0.1235061E+00
          4   -1    0    0  501    0  0.00000000000E+00  0.00000000000E+00  0.18468881086E+03  0.18469317734E+03  0.12700000000E+01 0. -1.
         -4   -1    0    0    0  501 -0.00000000000E+00 -0.00000000000E+00 -0.21128626084E+02  0.21166760267E+02  0.12700000000E+01 0. -1.
         25    2    1    2    0    0  0.00000000000E+00  0.00000000000E+00  0.16356018478E+03  0.20585993761E+03  0.12500551935E+03 0.  0.
    9000005    1    3    3    0    0  0.31584282265E+02  0.53668575779E+02  0.90449252263E+02  0.10981780433E+03  0.10000000000E+01 0.  0.
    9000005    1    3    3    0    0 -0.31584282265E+02 -0.53668575779E+02  0.73110932512E+02  0.96042133281E+02  0.10000000000E+01 0.  0.
<mgrwt>
<rscale>  0 0.12500552E+03</rscale>
<asrwt>0</asrwt>
<pdfrwt beam="1">  1        4 0.46177515E-01 0.12500552E+03</pdfrwt>
<pdfrwt beam="2">  1       -4 0.52874691E-02 0.12500552E+03</pdfrwt>
<totfact> 0.16088007E+03</totfact>
</mgrwt>
</event>
<event>
 5    1  0.1438401E-002  0.1250054E+03  0.7818608E-02  0.1235061E+00
         -4   -1    0    0    0  501 -0.00000000000E+00  0.00000000000E+00  0.40266488783E+02  0.40286511625E+02  0.12700000000E+01 0.  1.
          4   -1    0    0  501    0  0.00000000000E+00 -0.00000000000E+00 -0.96970075895E+02  0.96978392022E+02  0.12700000000E+01 0.  1.
         25    2    1    2    0    0  0.00000000000E+00  0.00000000000E+00 -0.56703587112E+02  0.13726490365E+03  0.12500542781E+03 0.  0.
    9000005    1    3    3    0    0 -0.19778162349E+02 -0.26314144609E+02  0.29980298600E+02  0.44535695981E+02  0.10000000000E+01 0.  0.
    9000005    1    3    3    0    0  0.19778162349E+02  0.26314144609E+02 -0.86683885712E+02  0.92729207666E+02  0.10000000000E+01 0.  0.
<mgrwt>
<rscale>  0 0.12500543E+03</rscale>
<asrwt>0</asrwt>
<pdfrwt beam="2">  1        4 0.24246061E-01 0.12500543E+03</pdfrwt>
<pdfrwt beam="1">  1       -4 0.10070165E-01 0.12500543E+03</pdfrwt>
<totfact> 0.19178723E+03</totfact>
</mgrwt>
</event>
<event>
 5    1  0.1438401E-002  0.1249924E+03  0.7818608E-02  0.1235081E+00
          4   -1    0    0  501    0  0.00000000000E+00  0.00000000000E+00  0.54027025357E+02  0.54041950085E+02  0.12700000000E+01 0.  1.
         -4   -1    0    0    0  501 -0.00000000000E+00 -0.00000000000E+00 -0.72262465464E+02  0.72273624614E+02  0.12700000000E+01 0.  1.
         25    2    1    2    0    0  0.00000000000E+00  0.00000000000E+00 -0.18235440106E+02  0.12631557470E+03  0.12499237231E+03 0.  0.
    9000005    1    3    3    0    0  0.19575114475E+02 -0.56625600972E+02  0.88220931208E+01  0.60567921536E+02  0.10000000000E+01 0.  0.
    9000005    1    3    3    0    0 -0.19575114475E+02  0.56625600972E+02 -0.27057533227E+02  0.65747653163E+02  0.10000000000E+01 0.  0.
<mgrwt>
<rscale>  0 0.12499237E+03</rscale>
<asrwt>0</asrwt>
<pdfrwt beam="1">  1        4 0.13510017E-01 0.12499237E+03</pdfrwt>
<pdfrwt beam="2">  1       -4 0.18068877E-01 0.12499237E+03</pdfrwt>
<totfact> 0.19767403E+03</totfact>
</mgrwt>
</event>
<event>
 5    1  0.1438401E-002  0.1249932E+03  0.7818608E-02  0.1235080E+00
          4   -1    0    0  501    0  0.00000000000E+00  0.00000000000E+00  0.10952804236E+03  0.10953540506E+03  0.12700000000E+01 0.  1.
         -4   -1    0    0    0  501 -0.00000000000E+00 -0.00000000000E+00 -0.35640610648E+02  0.35663230748E+02  0.12700000000E+01 0.  1.
         25    2    1    2    0    0  0.00000000000E+00  0.00000000000E+00  0.73887431709E+02  0.14519863581E+03  0.12499316492E+03 0.  0.
    9000005    1    3    3    0    0 -0.41116047431E+02 -0.19738633469E+02  0.86565183445E+02  0.97850263119E+02  0.10000000000E+01 0.  0.
    9000005    1    3    3    0    0  0.41116047431E+02  0.19738633469E+02 -0.12677751736E+02  0.47348372693E+02  0.10000000000E+01 0.  0.
<mgrwt>
<rscale>  0 0.12499316E+03</rscale>
<asrwt>0</asrwt>
<pdfrwt beam="1">  1        4 0.27385758E-01 0.12499316E+03</pdfrwt>
<pdfrwt beam="2">  1       -4 0.89139006E-02 0.12499316E+03</pdfrwt>
<totfact> 0.18780389E+03</totfact>
</mgrwt>
</event>
<event>
 5    1  0.1438401E-002  0.1249982E+03  0.7818608E-02  0.1235072E+00
         -4   -1    0    0    0  501 -0.00000000000E+00  0.00000000000E+00  0.12187154610E+02  0.12253148064E+02  0.12700000000E+01 0. -1.
          4   -1    0    0  501    0  0.00000000000E+00 -0.00000000000E+00 -0.31957985507E+03  0.31958237853E+03  0.12700000000E+01 0. -1.
         25    2    1    2    0    0  0.00000000000E+00  0.00000000000E+00 -0.30739270046E+03  0.33183552659E+03  0.12499817764E+03 0.  0.
    9000005    1    3    3    0    0 -0.42879704813E+02 -0.61409978453E+01 -0.34123104553E+02  0.55152218484E+02  0.10000000000E+01 0.  0.
    9000005    1    3    3    0    0  0.42879704813E+02  0.61409978453E+01 -0.27326959591E+03  0.27668330811E+03  0.10000000000E+01 0.  0.
<mgrwt>
<rscale>  0 0.12499818E+03</rscale>
<asrwt>0</asrwt>
<pdfrwt beam="2">  1        4 0.79903501E-01 0.12499818E+03</pdfrwt>
<pdfrwt beam="1">  1       -4 0.30553543E-02 0.12499818E+03</pdfrwt>
<totfact> 0.12123996E+03</totfact>
</mgrwt>
</event>
<event>
 5    1  0.1438401E-002  0.1250095E+03  0.7818608E-02  0.1235054E+00
          4   -1    0    0  501    0  0.00000000000E+00  0.00000000000E+00  0.32647570190E+02  0.32672262537E+02  0.12700000000E+01 0.  1.
         -4   -1    0    0    0  501 -0.00000000000E+00 -0.00000000000E+00 -0.11959389833E+03  0.11960064138E+03  0.12700000000E+01 0.  1.
         25    2    1    2    0    0  0.00000000000E+00  0.00000000000E+00 -0.86946328141E+02  0.15227290391E+03  0.12500949280E+03 0.  0.
    9000005    1    3    3    0    0 -0.57756491580E+02 -0.88908355931E+01 -0.70463813026E+02  0.91547846634E+02  0.10000000000E+01 0.  0.
    9000005    1    3    3    0    0  0.57756491580E+02  0.88908355931E+01 -0.16482515115E+02  0.60725057280E+02  0.10000000000E+01 0.  0.
<mgrwt>
<rscale>  0 0.12500949E+03</rscale>
<asrwt>0</asrwt>
<pdfrwt beam="1">  1        4 0.81658222E-02 0.12500949E+03</pdfrwt>
<pdfrwt beam="2">  1       -4 0.29902403E-01 0.12500949E+03</pdfrwt>
<totfact> 0.18423515E+03</totfact>
</mgrwt>
</event>
<event>
 5    1  0.1438401E-002  0.1249911E+03  0.7818608E-02  0.1235083E+00
          4   -1    0    0  501    0  0.00000000000E+00  0.00000000000E+00  0.20299597276E+02  0.20339285867E+02  0.12700000000E+01 0.  1.
         -4   -1    0    0    0  501 -0.00000000000E+00 -0.00000000000E+00 -0.19217276422E+03  0.19217696066E+03  0.12700000000E+01 0.  1.
         25    2    1    2    0    0  0.00000000000E+00  0.00000000000E+00 -0.17187316695E+03  0.21251624653E+03  0.12499107777E+03 0.  0.
    9000005    1    3    3    0    0 -0.34266912333E+02 -0.34905298368E+02 -0.15205190638E+03  0.15972909368E+03  0.10000000000E+01 0.  0.
    9000005    1    3    3    0    0  0.34266912333E+02  0.34905298368E+02 -0.19821260566E+02  0.52787152844E+02  0.10000000000E+01 0.  0.
<mgrwt>
<rscale>  0 0.12499108E+03</rscale>
<asrwt>0</asrwt>
<pdfrwt beam="1">  1        4 0.50803855E-02 0.12499108E+03</pdfrwt>
<pdfrwt beam="2">  1       -4 0.48048671E-01 0.12499108E+03</pdfrwt>
<totfact> 0.15836107E+03</totfact>
</mgrwt>
</event>
<event>
 5    1  0.1438401E-002  0.1249940E+03  0.7818608E-02  0.1235079E+00
          4   -1    0    0  501    0  0.00000000000E+00  0.00000000000E+00  0.63901874305E+02  0.63914493189E+02  0.12700000000E+01 0. -1.
         -4   -1    0    0    0  501 -0.00000000000E+00 -0.00000000000E+00 -0.61097733481E+02  0.61110931400E+02  0.12700000000E+01 0. -1.
         25    2    1    2    0    0  0.00000000000E+00  0.00000000000E+00  0.28041408234E+01  0.12502542459E+03  0.12499397421E+03 0.  0.
    9000005    1    3    3    0    0  0.39449267112E+02  0.12864433318E+02  0.48137857928E+02  0.63560928928E+02  0.10000000000E+01 0.  0.
    9000005    1    3    3    0    0 -0.39449267112E+02 -0.12864433318E+02 -0.45333717105E+02  0.61464495661E+02  0.10000000000E+01 0.  0.
<mgrwt>
<rscale>  0 0.12499397E+03</rscale>
<asrwt>0</asrwt>
<pdfrwt beam="1">  1        4 0.15978696E-01 0.12499397E+03</pdfrwt>
<pdfrwt beam="2">  1       -4 0.15277660E-01 0.12499397E+03</pdfrwt>
<totfact> 0.19836473E+03</totfact>
</mgrwt>
</event>
<event>
 5    1  0.1438401E-002  0.1249989E+03  0.7818608E-02  0.1235071E+00
         -4   -1    0    0    0  501 -0.00000000000E+00  0.00000000000E+00  0.13172604429E+03  0.13173216632E+03  0.12700000000E+01 0.  1.
          4   -1    0    0  501    0  0.00000000000E+00 -0.00000000000E+00 -0.29633437831E+02  0.29660639536E+02  0.12700000000E+01 0.  1.
         25    2    1    2    0    0  0.00000000000E+00  0.00000000000E+00  0.10209260646E+03  0.16139280586E+03  0.12499894995E+03 0.  0.
    9000005    1    3    3    0    0  0.50585286799E+01  0.23300568449E+02  0.12562847617E+03  0.12787501409E+03  0.10000000000E+01 0.  0.
    9000005    1    3    3    0    0 -0.50585286799E+01 -0.23300568449E+02 -0.23535869710E+02  0.33517791775E+02  0.10000000000E+01 0.  0.
<mgrwt>
<rscale>  0 0.12499895E+03</rscale>
<asrwt>0</asrwt>
<pdfrwt beam="2">  1        4 0.74125251E-02 0.12499895E+03</pdfrwt>
<pdfrwt beam="1">  1       -4 0.32935676E-01 0.12499895E+03</pdfrwt>
<totfact> 0.17992842E+03</totfact>
</mgrwt>
</event>
<event>
 5    1  0.1438401E-002  0.1249953E+03  0.7818608E-02  0.1235077E+00
         -4   -1    0    0    0  501 -0.00000000000E+00  0.00000000000E+00  0.12090012267E+02  0.12156533084E+02  0.12700000000E+01 0.  1.
          4   -1    0    0  501    0  0.00000000000E+00 -0.00000000000E+00 -0.32211897051E+03  0.32212147408E+03  0.12700000000E+01 0.  1.
         25    2    1    2    0    0  0.00000000000E+00  0.00000000000E+00 -0.31002895825E+03  0.33427800717E+03  0.12499532441E+03 0.  0.
    9000005    1    3    3    0    0 -0.56866031290E+02 -0.12761984902E+02 -0.94717869862E+02  0.11121640457E+03  0.10000000000E+01 0.  0.
    9000005    1    3    3    0    0  0.56866031290E+02  0.12761984902E+02 -0.21531108838E+03  0.22306160260E+03  0.10000000000E+01 0.  0.
<mgrwt>
<rscale>  0 0.12499532E+03</rscale>
<asrwt>0</asrwt>
<pdfrwt beam="2">  1        4 0.80538342E-01 0.12499532E+03</pdfrwt>
<pdfrwt beam="1">  1       -4 0.30311322E-02 0.12499532E+03</pdfrwt>
<totfact> 0.12063257E+03</totfact>
</mgrwt>
</event>
<event>
 5    1  0.1438401E-002  0.1250013E+03  0.7818608E-02  0.1235067E+00
          4   -1    0    0  501    0  0.00000000000E+00  0.00000000000E+00  0.16766279119E+03  0.16766760107E+03  0.12700000000E+01 0. -1.
         -4   -1    0    0    0  501 -0.00000000000E+00 -0.00000000000E+00 -0.23276290726E+02  0.23310911822E+02  0.12700000000E+01 0. -1.
         25    2    1    2    0    0  0.00000000000E+00  0.00000000000E+00  0.14438650047E+03  0.19097851290E+03  0.12500132348E+03 0.  0.
    9000005    1    3    3    0    0 -0.18630266218E+02 -0.57043447889E+02  0.98844305822E+02  0.11563839570E+03  0.10000000000E+01 0.  0.
    9000005    1    3    3    0    0  0.18630266218E+02  0.57043447889E+02  0.45542194644E+02  0.75340117198E+02  0.10000000000E+01 0.  0.
<mgrwt>
<rscale>  0 0.12500132E+03</rscale>
<asrwt>0</asrwt>
<pdfrwt beam="1">  1        4 0.41920625E-01 0.12500132E+03</pdfrwt>
<pdfrwt beam="2">  1       -4 0.58240018E-02 0.12500132E+03</pdfrwt>
<totfact> 0.16689254E+03</totfact>
</mgrwt>
</event>
<event>
 5    1  0.1438401E-002  0.1250015E+03  0.7818608E-02  0.1235067E+00
          4   -1    0    0  501    0  0.00000000000E+00  0.00000000000E+00  0.80736659625E+02  0.80746647654E+02  0.12700000000E+01 0. -1.
         -4   -1    0    0    0  501 -0.00000000000E+00 -0.00000000000E+00 -0.48362455539E+02  0.48379127790E+02  0.12700000000E+01 0. -1.
         25    2    1    2    0    0  0.00000000000E+00  0.00000000000E+00  0.32374204086E+02  0.12912577544E+03  0.12500150717E+03 0.  0.
    9000005    1    3    3    0    0  0.37011252316E+02  0.22555247374E+02  0.62692157255E+02  0.76222559413E+02  0.10000000000E+01 0.  0.
    9000005    1    3    3    0    0 -0.37011252316E+02 -0.22555247374E+02 -0.30317953169E+02  0.52903216031E+02  0.10000000000E+01 0.  0.
<mgrwt>
<rscale>  0 0.12500151E+03</rscale>
<asrwt>0</asrwt>
<pdfrwt beam="1">  1        4 0.20187497E-01 0.12500151E+03</pdfrwt>
<pdfrwt beam="2">  1       -4 0.12093946E-01 0.12500151E+03</pdfrwt>
<totfact> 0.19610807E+03</totfact>
</mgrwt>
</event>
<event>
 5    1  0.1438401E-002  0.1250026E+03  0.7818608E-02  0.1235065E+00
         -4   -1    0    0    0  501 -0.00000000000E+00  0.00000000000E+00  0.28877114565E+02  0.28905028033E+02  0.12700000000E+01 0.  1.
          4   -1    0    0  501    0  0.00000000000E+00 -0.00000000000E+00 -0.13518092873E+03  0.13518689431E+03  0.12700000000E+01 0.  1.
         25    2    1    2    0    0  0.00000000000E+00  0.00000000000E+00 -0.10630381416E+03  0.16409192234E+03  0.12500263226E+03 0.  0.
    9000005    1    3    3    0    0  0.21211480626E+02  0.33552832996E+02 -0.11651225872E+03  0.12309275342E+03  0.10000000000E+01 0.  0.
    9000005    1    3    3    0    0 -0.21211480626E+02 -0.33552832996E+02  0.10208444550E+02  0.40999168925E+02  0.10000000000E+01 0.  0.
<mgrwt>
<rscale>  0 0.12500263E+03</rscale>
<asrwt>0</asrwt>
<pdfrwt beam="2">  1        4 0.33799465E-01 0.12500263E+03</pdfrwt>
<pdfrwt beam="1">  1       -4 0.72235139E-02 0.12500263E+03</pdfrwt>
<totfact> 0.17865774E+03</totfact>
</mgrwt>
</event>
<event>
 5    1  0.1438401E-002  0.1250023E+03  0.7818608E-02  0.1235066E+00
          4   -1    0    0  501    0  0.00000000000E+00  0.00000000000E+00  0.17777774372E+02  0.17823079465E+02  0.12700000000E+01 0.  1.
         -4   -1    0    0    0  501 -0.00000000000E+00 -0.00000000000E+00 -0.21940777432E+03  0.21941144986E+03  0.12700000000E+01 0.  1.
         25    2    1    2    0    0  0.00000000000E+00  0.00000000000E+00 -0.20162999995E+03  0.23723452933E+03  0.12500226009E+03 0.  0.
    9000005    1    3    3    0    0  0.26232813070E+02  0.54132919617E+02 -0.13295851438E+03  0.14593663013E+03  0.10000000000E+01 0.  0.
    9000005    1    3    3    0    0 -0.26232813070E+02 -0.54132919617E+02 -0.68671485563E+02  0.91297899194E+02  0.10000000000E+01 0.  0.
<mgrwt>
<rscale>  0 0.12500226E+03</rscale>
<asrwt>0</asrwt>
<pdfrwt beam="1">  1        4 0.44505669E-02 0.12500226E+03</pdfrwt>
<pdfrwt beam="2">  1       -4 0.54858058E-01 0.12500226E+03</pdfrwt>
<totfact> 0.14931429E+03</totfact>
</mgrwt>
</event>
<event>
 5    1  0.1438401E-002  0.1250012E+03  0.7818608E-02  0.1235067E+00
         -4   -1    0    0    0  501 -0.00000000000E+00  0.00000000000E+00  0.18339669159E+02  0.18383589553E+02  0.12700000000E+01 0.  1.
          4   -1    0    0  501    0  0.00000000000E+00 -0.00000000000E+00 -0.21269807003E+03  0.21270186152E+03  0.12700000000E+01 0.  1.
         25    2    1    2    0    0  0.00000000000E+00  0.00000000000E+00 -0.19435840087E+03  0.23108545107E+03  0.12500119083E+03 0.  0.
    9000005    1    3    3    0    0 -0.28247113422E+02  0.47690588523E+02 -0.15053596635E+03  0.16041935300E+03  0.10000000000E+01 0.  0.
    9000005    1    3    3    0    0  0.28247113422E+02 -0.47690588523E+02 -0.43822434519E+02  0.70666098077E+02  0.10000000000E+01 0.  0.
<mgrwt>
<rscale>  0 0.12500119E+03</rscale>
<asrwt>0</asrwt>
<pdfrwt beam="2">  1        4 0.53180474E-01 0.12500119E+03</pdfrwt>
<pdfrwt beam="1">  1       -4 0.45908819E-02 0.12500119E+03</pdfrwt>
<totfact> 0.15148189E+03</totfact>
</mgrwt>
</event>
<event>
 5    1  0.1438401E-002  0.1250000E+03  0.7818608E-02  0.1235069E+00
         -4   -1    0    0    0  501 -0.00000000000E+00  0.00000000000E+00  0.50506096683E+02  0.50522061539E+02  0.12700000000E+01 0.  1.
          4   -1    0    0  501    0  0.00000000000E+00 -0.00000000000E+00 -0.77308690866E+02  0.77319121719E+02  0.12700000000E+01 0.  1.
         25    2    1    2    0    0  0.00000000000E+00  0.00000000000E+00 -0.26802594183E+02  0.12784118326E+03  0.12499995633E+03 0.  0.
    9000005    1    3    3    0    0  0.80021732024E+01  0.40088858335E+02  0.34939279839E+02  0.53785728723E+02  0.10000000000E+01 0.  0.
    9000005    1    3    3    0    0 -0.80021732024E+01 -0.40088858335E+02 -0.61741874022E+02  0.74055454535E+02  0.10000000000E+01 0.  0.
<mgrwt>
<rscale>  0 0.12499996E+03</rscale>
<asrwt>0</asrwt>
<pdfrwt beam="2">  1        4 0.19330472E-01 0.12499996E+03</pdfrwt>
<pdfrwt beam="1">  1       -4 0.12629824E-01 0.12499996E+03</pdfrwt>
<totfact> 0.19681200E+03</totfact>
</mgrwt>
</event>
<event>
 5    1  0.1438401E-002  0.1250066E+03  0.7818608E-02  0.1235059E+00
         -4   -1    0    0    0  501 -0.00000000000E+00  0.00000000000E+00  0.58950965004E+03  0.58951101804E+03  0.12700000000E+01 0.  1.
          4   -1    0    0  501    0  0.00000000000E+00 -0.00000000000E+00 -0.65647383345E+01  0.66864556680E+01  0.12700000000E+01 0.  1.
         25    2    1    2    0    0  0.00000000000E+00  0.00000000000E+00  0.58294491171E+03  0.59619747371E+03  0.12500663011E+03 0.  0.
    9000005    1    3    3    0    0  0.38508206314E+02  0.45741301851E+01  0.57733603199E+02  0.69555542977E+02  0.10000000000E+01 0.  0.
    9000005    1    3    3    0    0 -0.38508206314E+02 -0.45741301851E+01  0.52521130851E+03  0.52664193073E+03  0.10000000000E+01 0.  0.
<mgrwt>
<rscale>  0 0.12500663E+03</rscale>
<asrwt>0</asrwt>
<pdfrwt beam="2">  1        4 0.16565701E-02 0.12500663E+03</pdfrwt>
<pdfrwt beam="1">  1       -4 0.14739281E+00 0.12500663E+03</pdfrwt>
<totfact> 0.73972308E+02</totfact>
</mgrwt>
</event>
<event>
 5    1  0.1438401E-002  0.1249971E+03  0.7818608E-02  0.1235074E+00
          4   -1    0    0  501    0  0.00000000000E+00  0.00000000000E+00  0.33232371478E+02  0.33256629625E+02  0.12700000000E+01 0.  1.
         -4   -1    0    0    0  501 -0.00000000000E+00 -0.00000000000E+00 -0.11746754375E+03  0.11747440885E+03  0.12700000000E+01 0.  1.
         25    2    1    2    0    0  0.00000000000E+00  0.00000000000E+00 -0.84235172276E+02  0.15073103848E+03  0.12499712682E+03 0.  0.
    9000005    1    3    3    0    0 -0.25772100838E+02 -0.25863554177E+02 -0.10327281108E+03  0.10954176430E+03  0.10000000000E+01 0.  0.
    9000005    1    3    3    0    0  0.25772100838E+02  0.25863554177E+02  0.19037638807E+02  0.41189274182E+02  0.10000000000E+01 0.  0.
<mgrwt>
<rscale>  0 0.12499713E+03</rscale>
<asrwt>0</asrwt>
<pdfrwt beam="1">  1        4 0.83119836E-02 0.12499713E+03</pdfrwt>
<pdfrwt beam="2">  1       -4 0.29370775E-01 0.12499713E+03</pdfrwt>
<totfact> 0.18504131E+03</totfact>
</mgrwt>
</event>
<event>
 5    1  0.1438401E-002  0.1249968E+03  0.7818608E-02  0.1235074E+00
         -4   -1    0    0    0  501 -0.00000000000E+00  0.00000000000E+00  0.84063616356E+02  0.84073209138E+02  0.12700000000E+01 0.  1.
          4   -1    0    0  501    0  0.00000000000E+00 -0.00000000000E+00 -0.46444504173E+02  0.46461864662E+02  0.12700000000E+01 0.  1.
         25    2    1    2    0    0  0.00000000000E+00  0.00000000000E+00  0.37619112183E+02  0.13053507380E+03  0.12499683152E+03 0.  0.
    9000005    1    3    3    0    0 -0.28826376545E+01 -0.85485420712E+01 -0.45765995003E+02  0.46657405307E+02  0.10000000000E+01 0.  0.
    9000005    1    3    3    0    0  0.28826376545E+01  0.85485420712E+01  0.83385107186E+02  0.83877668493E+02  0.10000000000E+01 0.  0.
<mgrwt>
<rscale>  0 0.12499683E+03</rscale>
<asrwt>0</asrwt>
<pdfrwt beam="2">  1        4 0.11614495E-01 0.12499683E+03</pdfrwt>
<pdfrwt beam="1">  1       -4 0.21019273E-01 0.12499683E+03</pdfrwt>
<totfact> 0.19537106E+03</totfact>
</mgrwt>
</event>
<event>
 5    1  0.1438401E-002  0.1249979E+03  0.7818608E-02  0.1235073E+00
          4   -1    0    0  501    0  0.00000000000E+00  0.00000000000E+00  0.15729479692E+02  0.15780666379E+02  0.12700000000E+01 0. -1.
         -4   -1    0    0    0  501 -0.00000000000E+00 -0.00000000000E+00 -0.24787484385E+03  0.24787809728E+03  0.12700000000E+01 0. -1.
         25    2    1    2    0    0  0.00000000000E+00  0.00000000000E+00 -0.23214536416E+03  0.26365876366E+03  0.12499789421E+03 0.  0.
    9000005    1    3    3    0    0  0.21812587506E+01 -0.15138494288E+02  0.11730815084E+02  0.19301396882E+02  0.10000000000E+01 0.  0.
    9000005    1    3    3    0    0 -0.21812587506E+01  0.15138494288E+02 -0.24387617924E+03  0.24435736678E+03  0.10000000000E+01 0.  0.
<mgrwt>
<rscale>  0 0.12499789E+03</rscale>
<asrwt>0</asrwt>
<pdfrwt beam="1">  1        4 0.39391757E-02 0.12499789E+03</pdfrwt>
<pdfrwt beam="2">  1       -4 0.61975504E-01 0.12499789E+03</pdfrwt>
<totfact> 0.14055094E+03</totfact>
</mgrwt>
</event>
<event>
 5    1  0.1438401E-002  0.1249991E+03  0.7818608E-02  0.1235071E+00
         -4   -1    0    0    0  501 -0.00000000000E+00  0.00000000000E+00  0.75922605248E+02  0.75933226506E+02  0.12700000000E+01 0. -1.
          4   -1    0    0  501    0  0.00000000000E+00 -0.00000000000E+00 -0.51427619628E+02  0.51443298501E+02  0.12700000000E+01 0. -1.
         25    2    1    2    0    0  0.00000000000E+00  0.00000000000E+00  0.24494985620E+02  0.12737652501E+03  0.12499909921E+03 0.  0.
    9000005    1    3    3    0    0 -0.57611463600E+02  0.23897843734E+02  0.16194931383E+02  0.64447369812E+02  0.10000000000E+01 0.  0.
    9000005    1    3    3    0    0  0.57611463600E+02 -0.23897843734E+02  0.83000542366E+01  0.62929155195E+02  0.10000000000E+01 0.  0.
<mgrwt>
<rscale>  0 0.12499910E+03</rscale>
<asrwt>0</asrwt>
<pdfrwt beam="2">  1        4 0.12860192E-01 0.12499910E+03</pdfrwt>
<pdfrwt beam="1">  1       -4 0.18983939E-01 0.12499910E+03</pdfrwt>
<totfact> 0.19706943E+03</totfact>
</mgrwt>
</event>
<event>
 4    1  0.1438401E-002  0.1248822E+03  0.7818608E-02  0.1235254E+00
         -4   -1    0    0    0  501 -0.00000000000E+00  0.00000000000E+00  0.65876561551E+02  0.65888802248E+02  0.12700000000E+01 0. -1.
          4   -1    0    0  501    0  0.00000000000E+00 -0.00000000000E+00 -0.59160214808E+02  0.59173844865E+02  0.12700000000E+01 0. -1.
    9000005    1    1    2    0    0 -0.22562151040E+02 -0.45483062181E+02  0.39744268194E+02  0.64485397256E+02  0.10000000000E+01 0.  0.
    9000005    1    1    2    0    0  0.22562151040E+02  0.45483062181E+02 -0.33027921452E+02  0.60577249858E+02  0.10000000000E+01 0.  0.
<mgrwt>
<rscale>  0 0.12488217E+03</rscale>
<asrwt>0</asrwt>
<pdfrwt beam="2">  1        4 0.14793288E-01 0.12488217E+03</pdfrwt>
<pdfrwt beam="1">  1       -4 0.16472374E-01 0.12488217E+03</pdfrwt>
<totfact> 0.19886432E+03</totfact>
</mgrwt>
</event>
<event>
 5    1  0.1438401E-002  0.1249913E+03  0.7818608E-02  0.1235083E+00
         -4   -1    0    0    0  501 -0.00000000000E+00  0.00000000000E+00  0.30287919497E+03  0.30288185757E+03  0.12700000000E+01 0. -1.
          4   -1    0    0  501    0  0.00000000000E+00 -0.00000000000E+00 -0.12861266950E+02  0.12923818614E+02  0.12700000000E+01 0. -1.
         25    2    1    2    0    0  0.00000000000E+00  0.00000000000E+00  0.29001792802E+03  0.31580567618E+03  0.12499130585E+03 0.  0.
    9000005    1    3    3    0    0  0.40055696993E+02 -0.25339979487E+02  0.24789343654E+03  0.25238607193E+03  0.10000000000E+01 0.  0.
    9000005    1    3    3    0    0 -0.40055696993E+02  0.25339979487E+02  0.42124491478E+02  0.63419604258E+02  0.10000000000E+01 0.  0.
<mgrwt>
<rscale>  0 0.12499131E+03</rscale>
<asrwt>0</asrwt>
<pdfrwt beam="2">  1        4 0.32234687E-02 0.12499131E+03</pdfrwt>
<pdfrwt beam="1">  1       -4 0.75727947E-01 0.12499131E+03</pdfrwt>
<totfact> 0.12541851E+03</totfact>
</mgrwt>
</event>
<event>
 5    1  0.1438401E-002  0.1249935E+03  0.7818608E-02  0.1235079E+00
          4   -1    0    0  501    0  0.00000000000E+00  0.00000000000E+00  0.12868475465E+02  0.12930992259E+02  0.12700000000E+01 0.  1.
         -4   -1    0    0    0  501 -0.00000000000E+00 -0.00000000000E+00 -0.30272116026E+03  0.30272382425E+03  0.12700000000E+01 0.  1.
         25    2    1    2    0    0  0.00000000000E+00  0.00000000000E+00 -0.28985268479E+03  0.31565481651E+03  0.12499353705E+03 0.  0.
    9000005    1    3    3    0    0  0.29376602667E+02  0.47642177699E+02 -0.74755418604E+02  0.93392368483E+02  0.10000000000E+01 0.  0.
    9000005    1    3    3    0    0 -0.29376602667E+02 -0.47642177699E+02 -0.21509726619E+03  0.22226244803E+03  0.10000000000E+01 0.  0.
<mgrwt>
<rscale>  0 0.12499354E+03</rscale>
<asrwt>0</asrwt>
<pdfrwt beam="1">  1        4 0.32252675E-02 0.12499354E+03</pdfrwt>
<pdfrwt beam="2">  1       -4 0.75688414E-01 0.12499354E+03</pdfrwt>
<totfact> 0.12545229E+03</totfact>
</mgrwt>
</event>
<event>
 5    1  0.1438401E-002  0.1250022E+03  0.7818608E-02  0.1235066E+00
         -4   -1    0    0    0  501 -0.00000000000E+00  0.00000000000E+00  0.43929884386E+02  0.43948238215E+02  0.12700000000E+01 0. -1.
          4   -1    0    0  501    0  0.00000000000E+00 -0.00000000000E+00 -0.88881766307E+02  0.88890839134E+02  0.12700000000E+01 0. -1.
         25    2    1    2    0    0  0.00000000000E+00  0.00000000000E+00 -0.44951881921E+02  0.13283907735E+03  0.12500219511E+03 0.  0.
    9000005    1    3    3    0    0  0.10723438713E+02  0.44864121013E+02  0.22329001970E+02  0.51257836679E+02  0.10000000000E+01 0.  0.
    9000005    1    3    3    0    0 -0.10723438713E+02 -0.44864121013E+02 -0.67280883890E+02  0.81581240669E+02  0.10000000000E+01 0.  0.
<mgrwt>
<rscale>  0 0.12500220E+03</rscale>
<asrwt>0</asrwt>
<pdfrwt beam="2">  1        4 0.22223870E-01 0.12500220E+03</pdfrwt>
<pdfrwt beam="1">  1       -4 0.10985900E-01 0.12500220E+03</pdfrwt>
<totfact> 0.19411937E+03</totfact>
</mgrwt>
</event>
<event>
 5    1  0.1438401E-002  0.1249995E+03  0.7818608E-02  0.1235070E+00
         -4   -1    0    0    0  501 -0.00000000000E+00  0.00000000000E+00  0.90508306371E+01  0.91394986308E+01  0.12700000000E+01 0. -1.
          4   -1    0    0  501    0  0.00000000000E+00 -0.00000000000E+00 -0.42939360170E+03  0.42939547981E+03  0.12700000000E+01 0. -1.
         25    2    1    2    0    0  0.00000000000E+00  0.00000000000E+00 -0.42034277107E+03  0.43853497844E+03  0.12499952852E+03 0.  0.
    9000005    1    3    3    0    0 -0.30613034669E+01 -0.35670162425E+02 -0.38986615835E+03  0.39150779493E+03  0.10000000000E+01 0.  0.
    9000005    1    3    3    0    0  0.30613034669E+01  0.35670162425E+02 -0.30476612717E+02  0.47027183512E+02  0.10000000000E+01 0.  0.
<mgrwt>
<rscale>  0 0.12499953E+03</rscale>
<asrwt>0</asrwt>
<pdfrwt beam="2">  1        4 0.10735965E+00 0.12499953E+03</pdfrwt>
<pdfrwt beam="1">  1       -4 0.22740274E-02 0.12499953E+03</pdfrwt>
<totfact> 0.98113535E+02</totfact>
</mgrwt>
</event>
<event>
 5    1  0.1438401E-002  0.1250022E+03  0.7818608E-02  0.1235066E+00
          4   -1    0    0  501    0  0.00000000000E+00  0.00000000000E+00  0.25947998225E+03  0.25948309018E+03  0.12700000000E+01 0. -1.
         -4   -1    0    0    0  501 -0.00000000000E+00 -0.00000000000E+00 -0.15024695768E+02  0.15078275197E+02  0.12700000000E+01 0. -1.
         25    2    1    2    0    0  0.00000000000E+00  0.00000000000E+00  0.24445528649E+03  0.27456136538E+03  0.12500222505E+03 0.  0.
    9000005    1    3    3    0    0 -0.22382695785E+02  0.45419520192E+02  0.41780179623E+02  0.65654408035E+02  0.10000000000E+01 0.  0.
    9000005    1    3    3    0    0  0.22382695785E+02 -0.45419520192E+02  0.20267510686E+03  0.20890695734E+03  0.10000000000E+01 0.  0.
<mgrwt>
<rscale>  0 0.12500223E+03</rscale>
<asrwt>0</asrwt>
<pdfrwt beam="1">  1        4 0.64877082E-01 0.12500223E+03</pdfrwt>
<pdfrwt beam="2">  1       -4 0.37632598E-02 0.12500223E+03</pdfrwt>
<totfact> 0.13714515E+03</totfact>
</mgrwt>
</event>
<event>
 5    1  0.1438401E-002  0.1250023E+03  0.7818608E-02  0.1235066E+00
          4   -1    0    0  501    0  0.00000000000E+00  0.00000000000E+00  0.12347654434E+03  0.12348307536E+03  0.12700000000E+01 0. -1.
         -4   -1    0    0    0  501 -0.00000000000E+00 -0.00000000000E+00 -0.31616606201E+02  0.31642103085E+02  0.12700000000E+01 0. -1.
         25    2    1    2    0    0  0.00000000000E+00  0.00000000000E+00  0.91859938136E+02  0.15512517845E+03  0.12500229100E+03 0.  0.
    9000005    1    3    3    0    0 -0.43554244159E+02 -0.40131429233E+02  0.21175962503E+02  0.62904095133E+02  0.10000000000E+01 0.  0.
    9000005    1    3    3    0    0  0.43554244159E+02  0.40131429233E+02  0.70683975634E+02  0.92221083316E+02  0.10000000000E+01 0.  0.
<mgrwt>
<rscale>  0 0.12500229E+03</rscale>
<asrwt>0</asrwt>
<pdfrwt beam="1">  1        4 0.30873139E-01 0.12500229E+03</pdfrwt>
<pdfrwt beam="2">  1       -4 0.79081551E-02 0.12500229E+03</pdfrwt>
<totfact> 0.18288638E+03</totfact>
</mgrwt>
</event>
<event>
 5    1  0.1438401E-002  0.1249980E+03  0.7818608E-02  0.1235072E+00
          4   -1    0    0  501    0  0.00000000000E+00  0.00000000000E+00  0.49735997634E+01  0.51331856197E+01  0.12700000000E+01 0.  1.
         -4   -1    0    0    0  501 -0.00000000000E+00 -0.00000000000E+00 -0.77281110156E+03  0.77281214509E+03  0.12700000000E+01 0.  1.
         25    2    1    2    0    0  0.00000000000E+00  0.00000000000E+00 -0.76783750180E+03  0.77794533071E+03  0.12499803360E+03 0.  0.
    9000005    1    3    3    0    0  0.58903404276E+02  0.15455800262E+02 -0.29664662806E+03  0.30283446755E+03  0.10000000000E+01 0.  0.
    9000005    1    3    3    0    0 -0.58903404276E+02 -0.15455800262E+02 -0.47119087374E+03  0.47511086316E+03  0.10000000000E+01 0.  0.
<mgrwt>
<rscale>  0 0.12499803E+03</rscale>
<asrwt>0</asrwt>
<pdfrwt beam="1">  1        4 0.12634813E-02 0.12499803E+03</pdfrwt>
<pdfrwt beam="2">  1       -4 0.19322245E+00 0.12499803E+03</pdfrwt>
<totfact> 0.54464217E+02</totfact>
</mgrwt>
</event>
<event>
 5    1  0.1438401E-002  0.1249996E+03  0.7818608E-02  0.1235070E+00
          4   -1    0    0  501    0  0.00000000000E+00  0.00000000000E+00  0.39339107010E+02  0.39359601629E+02  0.12700000000E+01 0.  1.
         -4   -1    0    0    0  501 -0.00000000000E+00 -0.00000000000E+00 -0.99245808173E+02  0.99253933625E+02  0.12700000000E+01 0.  1.
         25    2    1    2    0    0  0.00000000000E+00  0.00000000000E+00 -0.59906701163E+02  0.13861353525E+03  0.12499959724E+03 0.  0.
    9000005    1    3    3    0    0 -0.12904377400E+02 -0.57750730479E+02 -0.52229924238E+02  0.78934370289E+02  0.10000000000E+01 0.  0.
    9000005    1    3    3    0    0  0.12904377400E+02  0.57750730479E+02 -0.76767769247E+01  0.59679164965E+02  0.10000000000E+01 0.  0.
<mgrwt>
<rscale>  0 0.12499960E+03</rscale>
<asrwt>0</asrwt>
<pdfrwt beam="1">  1        4 0.98383544E-02 0.12499960E+03</pdfrwt>
<pdfrwt beam="2">  1       -4 0.24815029E-01 0.12499960E+03</pdfrwt>
<totfact> 0.19111677E+03</totfact>
</mgrwt>
</event>
<event>
 5    1  0.1438401E-002  0.1250031E+03  0.7818608E-02  0.1235064E+00
          4   -1    0    0  501    0  0.00000000000E+00  0.00000000000E+00  0.47760925557E+03  0.47761094408E+03  0.12700000000E+01 0.  1.
         -4   -1    0    0    0  501 -0.00000000000E+00 -0.00000000000E+00 -0.81281537518E+01  0.82267723570E+01  0.12700000000E+01 0.  1.
         25    2    1    2    0    0  0.00000000000E+00  0.00000000000E+00  0.46948110182E+03  0.48583771644E+03  0.12500312696E+03 0.  0.
    9000005    1    3    3    0    0  0.47843549184E+02 -0.38729065584E+02  0.19279047156E+03  0.20238110496E+03  0.10000000000E+01 0.  0.
    9000005    1    3    3    0    0 -0.47843549184E+02  0.38729065584E+02  0.27669063026E+03  0.28345661148E+03  0.10000000000E+01 0.  0.
<mgrwt>
<rscale>  0 0.12500313E+03</rscale>
<asrwt>0</asrwt>
<pdfrwt beam="1">  1        4 0.11941484E+00 0.12500313E+03</pdfrwt>
<pdfrwt beam="2">  1       -4 0.20445770E-02 0.12500313E+03</pdfrwt>
<totfact> 0.89896328E+02</totfact>
</mgrwt>
</event>
<event>
 5    1  0.1438401E-002  0.1250019E+03  0.7818608E-02  0.1235066E+00
         -4   -1    0    0    0  501 -0.00000000000E+00  0.00000000000E+00  0.10250263959E+03  0.10251050689E+03  0.12700000000E+01 0. -1.
          4   -1    0    0  501    0  0.00000000000E+00 -0.00000000000E+00 -0.38090003560E+02  0.38111169901E+02  0.12700000000E+01 0. -1.
         25    2    1    2    0    0  0.00000000000E+00  0.00000000000E+00  0.64412636026E+02  0.14062167679E+03  0.12500187320E+03 0.  0.
    9000005    1    3    3    0    0 -0.38198207808E+02 -0.40440432936E+00 -0.23431859417E+02  0.44825424240E+02  0.10000000000E+01 0.  0.
    9000005    1    3    3    0    0  0.38198207808E+02  0.40440432936E+00  0.87844495443E+02  0.95796252548E+02  0.10000000000E+01 0.  0.
<mgrwt>
<rscale>  0 0.12500187E+03</rscale>
<asrwt>0</asrwt>
<pdfrwt beam="2">  1        4 0.95261302E-02 0.12500187E+03</pdfrwt>
<pdfrwt beam="1">  1       -4 0.25629289E-01 0.12500187E+03</pdfrwt>
<totfact> 0.19007753E+03</totfact>
</mgrwt>
</event>
<event>
 5    1  0.1438401E-002  0.1249986E+03  0.7818608E-02  0.1235071E+00
         -4   -1    0    0    0  501 -0.00000000000E+00  0.00000000000E+00  0.49060678797E+03  0.49060843174E+03  0.12700000000E+01 0.  1.
          4   -1    0    0  501    0  0.00000000000E+00 -0.00000000000E+00 -0.79095917355E+01  0.80109014114E+01  0.12700000000E+01 0.  1.
         25    2    1    2    0    0  0.00000000000E+00  0.00000000000E+00  0.48269719623E+03  0.49861933316E+03  0.12499862458E+03 0.  0.
    9000005    1    3    3    0    0  0.45610250574E+02 -0.20399886887E+02  0.39106702233E+03  0.39424721470E+03  0.10000000000E+01 0.  0.
    9000005    1    3    3    0    0 -0.45610250574E+02  0.20399886887E+02  0.91630173901E+02  0.10437211846E+03  0.10000000000E+01 0.  0.
<mgrwt>
<rscale>  0 0.12499862E+03</rscale>
<asrwt>0</asrwt>
<pdfrwt beam="2">  1        4 0.19902673E-02 0.12499862E+03</pdfrwt>
<pdfrwt beam="1">  1       -4 0.12266455E+00 0.12499862E+03</pdfrwt>
<totfact> 0.87829713E+02</totfact>
</mgrwt>
</event>
<event>
 5    1  0.1438401E-002  0.1250029E+03  0.7818608E-02  0.1235065E+00
         -4   -1    0    0    0  501 -0.00000000000E+00  0.00000000000E+00  0.10590073992E+04  0.10590081607E+04  0.12700000000E+01 0.  1.
          4   -1    0    0  501    0  0.00000000000E+00 -0.00000000000E+00 -0.35786718781E+01  0.37973401758E+01  0.12700000000E+01 0.  1.
         25    2    1    2    0    0  0.00000000000E+00  0.00000000000E+00  0.10554287273E+04  0.10628055009E+04  0.12500293703E+03 0.  0.
    9000005    1    3    3    0    0  0.15485445837E+02 -0.58382232809E+02  0.66405532627E+03  0.66679739089E+03  0.10000000000E+01 0.  0.
    9000005    1    3    3    0    0 -0.15485445837E+02  0.58382232809E+02  0.39137340101E+03  0.39600810997E+03  0.10000000000E+01 0.  0.
<mgrwt>
<rscale>  0 0.12500294E+03</rscale>
<asrwt>0</asrwt>
<pdfrwt beam="2">  1        4 0.92209630E-03 0.12500294E+03</pdfrwt>
<pdfrwt beam="1">  1       -4 0.26477939E+00 0.12500294E+03</pdfrwt>
<totfact> 0.33043425E+02</totfact>
</mgrwt>
</event>
<event>
 5    1  0.1438401E-002  0.1249991E+03  0.7818608E-02  0.1235071E+00
         -4   -1    0    0    0  501 -0.00000000000E+00  0.00000000000E+00  0.40674686084E+03  0.40674884352E+03  0.12700000000E+01 0.  1.
          4   -1    0    0  501    0  0.00000000000E+00 -0.00000000000E+00 -0.95595049860E+01  0.96434970617E+01  0.12700000000E+01 0.  1.
         25    2    1    2    0    0  0.00000000000E+00  0.00000000000E+00  0.39718735585E+03  0.41639234058E+03  0.12499914257E+03 0.  0.
    9000005    1    3    3    0    0  0.29828621112E+02  0.30402251247E+02  0.35092478266E+03  0.35350140962E+03  0.10000000000E+01 0.  0.
    9000005    1    3    3    0    0 -0.29828621112E+02 -0.30402251247E+02  0.46262573190E+02  0.62890930956E+02  0.10000000000E+01 0.  0.
<mgrwt>
<rscale>  0 0.12499914E+03</rscale>
<asrwt>0</asrwt>
<pdfrwt beam="2">  1        4 0.24006231E-02 0.12499914E+03</pdfrwt>
<pdfrwt beam="1">  1       -4 0.10169746E+00 0.12499914E+03</pdfrwt>
<totfact> 0.10237755E+03</totfact>
</mgrwt>
</event>
<event>
 5    1  0.1438401E-002  0.1249981E+03  0.7818608E-02  0.1235072E+00
         -4   -1    0    0    0  501 -0.00000000000E+00  0.00000000000E+00  0.19417822038E+02  0.19459309153E+02  0.12700000000E+01 0.  1.
          4   -1    0    0  501    0  0.00000000000E+00 -0.00000000000E+00 -0.20090404675E+03  0.20090806081E+03  0.12700000000E+01 0.  1.
         25    2    1    2    0    0  0.00000000000E+00  0.00000000000E+00 -0.18148622471E+03  0.22036736997E+03  0.12499811193E+03 0.  0.
    9000005    1    3    3    0    0  0.54553116873E+02 -0.29133624276E+02 -0.74943028353E+02  0.97171333853E+02  0.10000000000E+01 0.  0.
    9000005    1    3    3    0    0 -0.54553116873E+02  0.29133624276E+02 -0.10654319636E+03  0.12319603611E+03  0.10000000000E+01 0.  0.
<mgrwt>
<rscale>  0 0.12499811E+03</rscale>
<asrwt>0</asrwt>
<pdfrwt beam="2">  1        4 0.50231693E-01 0.12499811E+03</pdfrwt>
<pdfrwt beam="1">  1       -4 0.48601438E-02 0.12499811E+03</pdfrwt>
<totfact> 0.15538403E+03</totfact>
</mgrwt>
</event>
<event>
 5    1  0.1438401E-002  0.1250024E+03  0.7818608E-02  0.1235066E+00
         -4   -1    0    0    0  501 -0.00000000000E+00  0.00000000000E+00  0.51336913502E+02  0.51352620069E+02  0.12700000000E+01 0. -1.
          4   -1    0    0  501    0  0.00000000000E+00 -0.00000000000E+00 -0.76060705658E+02  0.76071307635E+02  0.12700000000E+01 0. -1.
         25    2    1    2    0    0  0.00000000000E+00  0.00000000000E+00 -0.24723792156E+02  0.12742392770E+03  0.12500236579E+03 0.  0.
    9000005    1    3    3    0    0  0.31406578678E+02  0.10347945879E+02  0.41693137626E+02  0.53223781276E+02  0.10000000000E+01 0.  0.
    9000005    1    3    3    0    0 -0.31406578678E+02 -0.10347945879E+02 -0.66416929783E+02  0.74200146428E+02  0.10000000000E+01 0.  0.
<mgrwt>
<rscale>  0 0.12500237E+03</rscale>
<asrwt>0</asrwt>
<pdfrwt beam="2">  1        4 0.19018465E-01 0.12500237E+03</pdfrwt>
<pdfrwt beam="1">  1       -4 0.12837517E-01 0.12500237E+03</pdfrwt>
<totfact> 0.19702851E+03</totfact>
</mgrwt>
</event>
<event>
 5    1  0.1438401E-002  0.1249996E+03  0.7818608E-02  0.1235070E+00
         -4   -1    0    0    0  501 -0.00000000000E+00  0.00000000000E+00  0.80078813127E+01  0.81079629451E+01  0.12700000000E+01 0.  1.
          4   -1    0    0  501    0  0.00000000000E+00 -0.00000000000E+00 -0.48466760878E+03  0.48466927270E+03  0.12700000000E+01 0.  1.
         25    2    1    2    0    0  0.00000000000E+00  0.00000000000E+00 -0.47665972747E+03  0.49277723564E+03  0.12499963273E+03 0.  0.
    9000005    1    3    3    0    0 -0.24664910831E+02 -0.11992554873E+02 -0.45969395890E+03  0.46051244831E+03  0.10000000000E+01 0.  0.
    9000005    1    3    3    0    0  0.24664910831E+02  0.11992554873E+02 -0.16965768564E+02  0.32264787333E+02  0.10000000000E+01 0.  0.
<mgrwt>
<rscale>  0 0.12499963E+03</rscale>
<asrwt>0</asrwt>
<pdfrwt beam="2">  1        4 0.12117952E+00 0.12499963E+03</pdfrwt>
<pdfrwt beam="1">  1       -4 0.20146902E-02 0.12499963E+03</pdfrwt>
<totfact> 0.88767776E+02</totfact>
</mgrwt>
</event>
<event>
 5    1  0.1438401E-002  0.1249980E+03  0.7818608E-02  0.1235072E+00
         -4   -1    0    0    0  501 -0.00000000000E+00  0.00000000000E+00  0.74093364763E+01  0.75173909715E+01  0.12700000000E+01 0.  1.
          4   -1    0    0  501    0  0.00000000000E+00 -0.00000000000E+00 -0.52326478837E+03  0.52326632956E+03  0.12700000000E+01 0.  1.
         25    2    1    2    0    0  0.00000000000E+00  0.00000000000E+00 -0.51585545189E+03  0.53078372053E+03  0.12499804290E+03 0.  0.
    9000005    1    3    3    0    0 -0.63843770465E+01 -0.42620926063E+02 -0.45008671404E+03  0.45214638533E+03  0.10000000000E+01 0.  0.
    9000005    1    3    3    0    0  0.63843770465E+01  0.42620926063E+02 -0.65768737854E+02  0.78637335201E+02  0.10000000000E+01 0.  0.
<mgrwt>
<rscale>  0 0.12499804E+03</rscale>
<asrwt>0</asrwt>
<pdfrwt beam="2">  1        4 0.13082977E+00 0.12499804E+03</pdfrwt>
<pdfrwt beam="1">  1       -4 0.18660354E-02 0.12499804E+03</pdfrwt>
<totfact> 0.82913837E+02</totfact>
</mgrwt>
</event>
<event>
 5    1  0.1438401E-002  0.1250009E+03  0.7818608E-02  0.1235068E+00
         -4   -1    0    0    0  501 -0.00000000000E+00  0.00000000000E+00  0.10452895777E+03  0.10453667257E+03  0.12700000000E+01 0. -1.
          4   -1    0    0  501    0  0.00000000000E+00 -0.00000000000E+00 -0.37350670695E+02  0.37372255770E+02  0.12700000000E+01 0. -1.
         25    2    1    2    0    0  0.00000000000E+00  0.00000000000E+00  0.67178287075E+02  0.14190892834E+03  0.12500088675E+03 0.  0.
    9000005    1    3    3    0    0  0.46036629782E+02  0.16540800619E+02 -0.10559847173E+02  0.50054767396E+02  0.10000000000E+01 0.  0.
    9000005    1    3    3    0    0 -0.46036629782E+02 -0.16540800619E+02  0.77738134248E+02  0.91854160946E+02  0.10000000000E+01 0.  0.
<mgrwt>
<rscale>  0 0.12500089E+03</rscale>
<asrwt>0</asrwt>
<pdfrwt beam="2">  1        4 0.93413302E-02 0.12500089E+03</pdfrwt>
<pdfrwt beam="1">  1       -4 0.26135902E-01 0.12500089E+03</pdfrwt>
<totfact> 0.18942715E+03</totfact>
</mgrwt>
</event>
<event>
 5    1  0.1438401E-002  0.1250068E+03  0.7818608E-02  0.1235059E+00
         -4   -1    0    0    0  501 -0.00000000000E+00  0.00000000000E+00  0.63131140608E+02  0.63143913518E+02  0.12700000000E+01 0.  1.
          4   -1    0    0  501    0  0.00000000000E+00 -0.00000000000E+00 -0.61856343118E+02  0.61869379211E+02  0.12700000000E+01 0.  1.
         25    2    1    2    0    0  0.00000000000E+00  0.00000000000E+00  0.12747974897E+01  0.12501329273E+03  0.12500679282E+03 0.  0.
    9000005    1    3    3    0    0 -0.16721343948E+02  0.41525301595E+02 -0.42973589747E+02  0.62061932227E+02  0.10000000000E+01 0.  0.
    9000005    1    3    3    0    0  0.16721343948E+02 -0.41525301595E+02  0.44248387236E+02  0.62951360502E+02  0.10000000000E+01 0.  0.
<mgrwt>
<rscale>  0 0.12500679E+03</rscale>
<asrwt>0</asrwt>
<pdfrwt beam="2">  1        4 0.15467312E-01 0.12500679E+03</pdfrwt>
<pdfrwt beam="1">  1       -4 0.15786011E-01 0.12500679E+03</pdfrwt>
<totfact> 0.19831182E+03</totfact>
</mgrwt>
</event>
<event>
 5    1  0.1438401E-002  0.1250013E+03  0.7818608E-02  0.1235067E+00
         -4   -1    0    0    0  501 -0.00000000000E+00  0.00000000000E+00  0.79629834463E+03  0.79629935737E+03  0.12700000000E+01 0. -1.
          4   -1    0    0  501    0  0.00000000000E+00 -0.00000000000E+00 -0.48223861936E+01  0.49868134716E+01  0.12700000000E+01 0. -1.
         25    2    1    2    0    0  0.00000000000E+00  0.00000000000E+00  0.79147595843E+03  0.80128617085E+03  0.12500133924E+03 0.  0.
    9000005    1    3    3    0    0  0.11124607897E+02  0.51906862409E+02  0.60710565689E+03  0.60942297126E+03  0.10000000000E+01 0.  0.
    9000005    1    3    3    0    0 -0.11124607897E+02 -0.51906862409E+02  0.18437030154E+03  0.19186319959E+03  0.10000000000E+01 0.  0.
<mgrwt>
<rscale>  0 0.12500134E+03</rscale>
<asrwt>0</asrwt>
<pdfrwt beam="2">  1        4 0.12262761E-02 0.12500134E+03</pdfrwt>
<pdfrwt beam="1">  1       -4 0.19909534E+00 0.12500134E+03</pdfrwt>
<totfact> 0.52363210E+02</totfact>
</mgrwt>
</event>
<event>
 5    1  0.1438401E-002  0.1250005E+03  0.7818608E-02  0.1235068E+00
         -4   -1    0    0    0  501 -0.00000000000E+00  0.00000000000E+00  0.40904968251E+02  0.40924678711E+02  0.12700000000E+01 0.  1.
          4   -1    0    0  501    0  0.00000000000E+00 -0.00000000000E+00 -0.95449633000E+02  0.95458081585E+02  0.12700000000E+01 0.  1.
         25    2    1    2    0    0  0.00000000000E+00  0.00000000000E+00 -0.54544664750E+02  0.13638276030E+03  0.12500054741E+03 0.  0.
    9000005    1    3    3    0    0  0.35681031000E+02  0.42028504245E+02  0.48305909499E+01  0.55352197348E+02  0.10000000000E+01 0.  0.
    9000005    1    3    3    0    0 -0.35681031000E+02 -0.42028504245E+02 -0.59375255700E+02  0.81030562948E+02  0.10000000000E+01 0.  0.
<mgrwt>
<rscale>  0 0.12500055E+03</rscale>
<asrwt>0</asrwt>
<pdfrwt beam="2">  1        4 0.23865928E-01 0.12500055E+03</pdfrwt>
<pdfrwt beam="1">  1       -4 0.10229762E-01 0.12500055E+03</pdfrwt>
<totfact> 0.19226707E+03</totfact>
</mgrwt>
</event>
<event>
 5    1  0.1438401E-002  0.1249988E+03  0.7818608E-02  0.1235071E+00
          4   -1    0    0  501    0  0.00000000000E+00  0.00000000000E+00  0.54339799714E+02  0.54354638559E+02  0.12700000000E+01 0. -1.
         -4   -1    0    0    0  501 -0.00000000000E+00 -0.00000000000E+00 -0.71853951165E+02  0.71865173749E+02  0.12700000000E+01 0. -1.
         25    2    1    2    0    0  0.00000000000E+00  0.00000000000E+00 -0.17514151451E+02  0.12621981231E+03  0.12499878207E+03 0.  0.
    9000005    1    3    3    0    0 -0.53479844499E+02 -0.86427646902E+01  0.22698184185E+02  0.58745201629E+02  0.10000000000E+01 0.  0.
    9000005    1    3    3    0    0  0.53479844499E+02  0.86427646902E+01 -0.40212335636E+02  0.67474610680E+02  0.10000000000E+01 0.  0.
<mgrwt>
<rscale>  0 0.12499878E+03</rscale>
<asrwt>0</asrwt>
<pdfrwt beam="1">  1        4 0.13588208E-01 0.12499878E+03</pdfrwt>
<pdfrwt beam="2">  1       -4 0.17966745E-01 0.12499878E+03</pdfrwt>
<totfact> 0.19769609E+03</totfact>
</mgrwt>
</event>
<event>
 5    1  0.1438401E-002  0.1250001E+03  0.7818608E-02  0.1235069E+00
         -4   -1    0    0    0  501 -0.00000000000E+00  0.00000000000E+00  0.25482366578E+02  0.25513994325E+02  0.12700000000E+01 0. -1.
          4   -1    0    0  501    0  0.00000000000E+00 -0.00000000000E+00 -0.15316306886E+03  0.15316833408E+03  0.12700000000E+01 0. -1.
         25    2    1    2    0    0  0.00000000000E+00  0.00000000000E+00 -0.12768070229E+03  0.17868232840E+03  0.12500005099E+03 0.  0.
    9000005    1    3    3    0    0  0.15441189166E+02  0.45254911045E+02 -0.63268054820E+01  0.48243815813E+02  0.10000000000E+01 0.  0.
    9000005    1    3    3    0    0 -0.15441189166E+02 -0.45254911045E+02 -0.12135389680E+03  0.13043851259E+03  0.10000000000E+01 0.  0.
<mgrwt>
<rscale>  0 0.12500005E+03</rscale>
<asrwt>0</asrwt>
<pdfrwt beam="2">  1        4 0.38295376E-01 0.12500005E+03</pdfrwt>
<pdfrwt beam="1">  1       -4 0.63752037E-02 0.12500005E+03</pdfrwt>
<totfact> 0.17212381E+03</totfact>
</mgrwt>
</event>
<event>
 5    1  0.1438401E-002  0.1249971E+03  0.7818608E-02  0.1235074E+00
          4   -1    0    0  501    0  0.00000000000E+00  0.00000000000E+00  0.10633746165E+03  0.10634504525E+03  0.12700000000E+01 0.  1.
         -4   -1    0    0    0  501 -0.00000000000E+00 -0.00000000000E+00 -0.36712908653E+02  0.36734868473E+02  0.12700000000E+01 0.  1.
         25    2    1    2    0    0  0.00000000000E+00  0.00000000000E+00  0.69624552997E+02  0.14307991373E+03  0.12499713330E+03 0.  0.
    9000005    1    3    3    0    0  0.81498125823E+01  0.54594359170E+02  0.12810511966E+01  0.55223225100E+02  0.10000000000E+01 0.  0.
    9000005    1    3    3    0    0 -0.81498125823E+01 -0.54594359170E+02  0.68343501801E+02  0.87856688628E+02  0.10000000000E+01 0.  0.
<mgrwt>
<rscale>  0 0.12499713E+03</rscale>
<asrwt>0</asrwt>
<pdfrwt beam="1">  1        4 0.26588058E-01 0.12499713E+03</pdfrwt>
<pdfrwt beam="2">  1       -4 0.91819202E-02 0.12499713E+03</pdfrwt>
<totfact> 0.18885133E+03</totfact>
</mgrwt>
</event>
<event>
 5    1  0.1438401E-002  0.1249958E+03  0.7818608E-02  0.1235076E+00
          4   -1    0    0  501    0  0.00000000000E+00  0.00000000000E+00  0.17951697066E+02  0.17996564326E+02  0.12700000000E+01 0. -1.
         -4   -1    0    0    0  501 -0.00000000000E+00 -0.00000000000E+00 -0.21726498822E+03  0.21726870001E+03  0.12700000000E+01 0. -1.
         25    2    1    2    0    0  0.00000000000E+00  0.00000000000E+00 -0.19931329115E+03  0.23526526434E+03  0.12499582623E+03 0.  0.
    9000005    1    3    3    0    0  0.15129999940E+02  0.60457573379E+02 -0.91040828705E+02  0.11033343812E+03  0.10000000000E+01 0.  0.
    9000005    1    3    3    0    0 -0.15129999940E+02 -0.60457573379E+02 -0.10827246245E+03  0.12493182621E+03  0.10000000000E+01 0.  0.
<mgrwt>
<rscale>  0 0.12499583E+03</rscale>
<asrwt>0</asrwt>
<pdfrwt beam="1">  1        4 0.44939973E-02 0.12499583E+03</pdfrwt>
<pdfrwt beam="2">  1       -4 0.54322311E-01 0.12499583E+03</pdfrwt>
<totfact> 0.15002423E+03</totfact>
</mgrwt>
</event>
<event>
 5    1  0.1438401E-002  0.1250002E+03  0.7818608E-02  0.1235069E+00
         -4   -1    0    0    0  501 -0.00000000000E+00  0.00000000000E+00  0.14187885760E+04  0.14187891444E+04  0.12700000000E+01 0. -1.
          4   -1    0    0  501    0  0.00000000000E+00 -0.00000000000E+00 -0.26061852627E+01  0.28991553293E+01  0.12700000000E+01 0. -1.
         25    2    1    2    0    0  0.00000000000E+00  0.00000000000E+00  0.14161823907E+04  0.14216882997E+04  0.12500023109E+03 0.  0.
    9000005    1    3    3    0    0 -0.29792791227E+02 -0.52101954007E+02  0.90608146865E+03  0.90806764718E+03  0.10000000000E+01 0.  0.
    9000005    1    3    3    0    0  0.29792791227E+02  0.52101954007E+02  0.51010092209E+03  0.51362065256E+03  0.10000000000E+01 0.  0.
<mgrwt>
<rscale>  0 0.12500023E+03</rscale>
<asrwt>0</asrwt>
<pdfrwt beam="2">  1        4 0.68823889E-03 0.12500023E+03</pdfrwt>
<pdfrwt beam="1">  1       -4 0.35473370E+00 0.12500023E+03</pdfrwt>
<totfact> 0.15255737E+02</totfact>
</mgrwt>
</event>
<event>
 4    1  0.1438401E-002  0.1247815E+03  0.7818608E-02  0.1235411E+00
          4   -1    0    0  501    0  0.00000000000E+00  0.00000000000E+00  0.28060356673E+02  0.28089081804E+02  0.12700000000E+01 0.  1.
         -4   -1    0    0    0  501 -0.00000000000E+00 -0.00000000000E+00 -0.13861992501E+03  0.13862574259E+03  0.12700000000E+01 0.  1.
    9000005    1    1    2    0    0  0.16923048311E+02  0.52083227298E+02 -0.15364357656E+02  0.56886866816E+02  0.10000000000E+01 0.  0.
    9000005    1    1    2    0    0 -0.16923048311E+02 -0.52083227298E+02 -0.95195210678E+02  0.10982795758E+03  0.10000000000E+01 0.  0.
<mgrwt>
<rscale>  0 0.12478147E+03</rscale>
<asrwt>0</asrwt>
<pdfrwt beam="1">  1        4 0.70194074E-02 0.12478147E+03</pdfrwt>
<pdfrwt beam="2">  1       -4 0.34659297E-01 0.12478147E+03</pdfrwt>
<totfact> 0.17836607E+03</totfact>
</mgrwt>
</event>
<event>
 5    1  0.1438401E-002  0.1250034E+03  0.7818608E-02  0.1235064E+00
         -4   -1    0    0    0  501 -0.00000000000E+00  0.00000000000E+00  0.11256071631E+03  0.11256788066E+03  0.12700000000E+01 0.  1.
          4   -1    0    0  501    0  0.00000000000E+00 -0.00000000000E+00 -0.34685478221E+02  0.34708720797E+02  0.12700000000E+01 0.  1.
         25    2    1    2    0    0  0.00000000000E+00  0.00000000000E+00  0.77875238090E+02  0.14727660146E+03  0.12500337847E+03 0.  0.
    9000005    1    3    3    0    0  0.56427140327E+01 -0.58731775486E+02  0.14671681753E+02  0.60807235744E+02  0.10000000000E+01 0.  0.
    9000005    1    3    3    0    0 -0.56427140327E+01  0.58731775486E+02  0.63203556337E+02  0.86469365714E+02  0.10000000000E+01 0.  0.
<mgrwt>
<rscale>  0 0.12500338E+03</rscale>
<asrwt>0</asrwt>
<pdfrwt beam="2">  1        4 0.86751705E-02 0.12500338E+03</pdfrwt>
<pdfrwt beam="1">  1       -4 0.28143980E-01 0.12500338E+03</pdfrwt>
<totfact> 0.18672038E+03</totfact>
</mgrwt>
</event>
<event>
 5    1  0.1438401E-002  0.1250026E+03  0.7818608E-02  0.1235065E+00
          4   -1    0    0  501    0  0.00000000000E+00  0.00000000000E+00  0.58861273492E+02  0.58874972756E+02  0.12700000000E+01 0. -1.
         -4   -1    0    0    0  501 -0.00000000000E+00 -0.00000000000E+00 -0.66338980139E+02  0.66351135528E+02  0.12700000000E+01 0. -1.
         25    2    1    2    0    0  0.00000000000E+00  0.00000000000E+00 -0.74777066469E+01  0.12522610828E+03  0.12500264837E+03 0.  0.
    9000005    1    3    3    0    0  0.52201805632E+02 -0.31733661754E+02  0.94513739859E+01  0.61825417668E+02  0.10000000000E+01 0.  0.
    9000005    1    3    3    0    0 -0.52201805632E+02  0.31733661754E+02 -0.16929080633E+02  0.63400690617E+02  0.10000000000E+01 0.  0.
<mgrwt>
<rscale>  0 0.12500265E+03</rscale>
<asrwt>0</asrwt>
<pdfrwt beam="1">  1        4 0.14718550E-01 0.12500265E+03</pdfrwt>
<pdfrwt beam="2">  1       -4 0.16587977E-01 0.12500265E+03</pdfrwt>
<totfact> 0.19821570E+03</totfact>
</mgrwt>
</event>
<event>
 5    1  0.1438401E-002  0.1250177E+03  0.7818608E-02  0.1235042E+00
         -4   -1    0    0    0  501 -0.00000000000E+00  0.00000000000E+00  0.35037779305E+03  0.35038009471E+03  0.12700000000E+01 0. -1.
          4   -1    0    0  501    0  0.00000000000E+00 -0.00000000000E+00 -0.11113326816E+02  0.11185657465E+02  0.12700000000E+01 0. -1.
         25    2    1    2    0    0  0.00000000000E+00  0.00000000000E+00  0.33926446624E+03  0.36156575217E+03  0.12501765911E+03 0.  0.
    9000005    1    3    3    0    0  0.36197425350E+02 -0.50764824535E+02  0.15701492189E+03  0.16894379749E+03  0.10000000000E+01 0.  0.
    9000005    1    3    3    0    0 -0.36197425350E+02  0.50764824535E+02  0.18224954435E+03  0.19262195468E+03  0.10000000000E+01 0.  0.
<mgrwt>
<rscale>  0 0.12501766E+03</rscale>
<asrwt>0</asrwt>
<pdfrwt beam="2">  1        4 0.27876607E-02 0.12501766E+03</pdfrwt>
<pdfrwt beam="1">  1       -4 0.87603780E-01 0.12501766E+03</pdfrwt>
<totfact> 0.11401657E+03</totfact>
</mgrwt>
</event>
<event>
 5    1  0.1438401E-002  0.1249980E+03  0.7818608E-02  0.1235072E+00
          4   -1    0    0  501    0  0.00000000000E+00  0.00000000000E+00  0.44686350916E+01  0.46456000239E+01  0.12700000000E+01 0.  1.
         -4   -1    0    0    0  501 -0.00000000000E+00 -0.00000000000E+00 -0.85697104433E+03  0.85697198537E+03  0.12700000000E+01 0.  1.
         25    2    1    2    0    0  0.00000000000E+00  0.00000000000E+00 -0.85250240924E+03  0.86161758540E+03  0.12499802284E+03 0.  0.
    9000005    1    3    3    0    0 -0.52848005330E+02  0.30110770565E+02 -0.32742394314E+03  0.33302703901E+03  0.10000000000E+01 0.  0.
    9000005    1    3    3    0    0  0.52848005330E+02 -0.30110770565E+02 -0.52507846610E+03  0.52859054639E+03  0.10000000000E+01 0.  0.
<mgrwt>
<rscale>  0 0.12499802E+03</rscale>
<asrwt>0</asrwt>
<pdfrwt beam="1">  1        4 0.11393999E-02 0.12499802E+03</pdfrwt>
<pdfrwt beam="2">  1       -4 0.21426445E+00 0.12499802E+03</pdfrwt>
<totfact> 0.47288079E+02</totfact>
</mgrwt>
</event>
<event>
 5    1  0.1438401E-002  0.1249921E+03  0.7818608E-02  0.1235082E+00
          4   -1    0    0  501    0  0.00000000000E+00  0.00000000000E+00  0.32475849037E+02  0.32500671850E+02  0.12700000000E+01 0. -1.
         -4   -1    0    0    0  501 -0.00000000000E+00 -0.00000000000E+00 -0.12019236826E+03  0.12019907773E+03  0.12700000000E+01 0. -1.
         25    2    1    2    0    0  0.00000000000E+00  0.00000000000E+00 -0.87716519220E+02  0.15269974958E+03  0.12499210286E+03 0.  0.
    9000005    1    3    3    0    0  0.26976503505E+02 -0.49410866365E+02 -0.10724253334E+02  0.57316446731E+02  0.10000000000E+01 0.  0.
    9000005    1    3    3    0    0 -0.26976503505E+02  0.49410866365E+02 -0.76992265886E+02  0.95383302850E+02  0.10000000000E+01 0.  0.
<mgrwt>
<rscale>  0 0.12499210E+03</rscale>
<asrwt>0</asrwt>
<pdfrwt beam="1">  1        4 0.81229041E-02 0.12499210E+03</pdfrwt>
<pdfrwt beam="2">  1       -4 0.30052033E-01 0.12499210E+03</pdfrwt>
<totfact> 0.18410208E+03</totfact>
</mgrwt>
</event>
<event>
 5    1  0.1438401E-002  0.1250015E+03  0.7818608E-02  0.1235067E+00
         -4   -1    0    0    0  501 -0.00000000000E+00  0.00000000000E+00  0.67277074360E+01  0.68465281234E+01  0.12700000000E+01 0. -1.
          4   -1    0    0  501    0  0.00000000000E+00 -0.00000000000E+00 -0.57543333731E+03  0.57543473878E+03  0.12700000000E+01 0. -1.
         25    2    1    2    0    0  0.00000000000E+00  0.00000000000E+00 -0.56870562988E+03  0.58228126690E+03  0.12500152131E+03 0.  0.
    9000005    1    3    3    0    0  0.61987730276E+02  0.21834290707E+01 -0.24884680221E+03  0.25646242812E+03  0.10000000000E+01 0.  0.
    9000005    1    3    3    0    0 -0.61987730276E+02 -0.21834290707E+01 -0.31985882766E+03  0.32581883878E+03  0.10000000000E+01 0.  0.
<mgrwt>
<rscale>  0 0.12500152E+03</rscale>
<asrwt>0</asrwt>
<pdfrwt beam="2">  1        4 0.14387320E+00 0.12500152E+03</pdfrwt>
<pdfrwt beam="1">  1       -4 0.16969566E-02 0.12500152E+03</pdfrwt>
<totfact> 0.75776001E+02</totfact>
</mgrwt>
</event>
<event>
 5    1  0.1438401E-002  0.1249794E+03  0.7818608E-02  0.1235101E+00
          4   -1    0    0  501    0  0.00000000000E+00  0.00000000000E+00  0.69694426200E+02  0.69705996466E+02  0.12700000000E+01 0.  1.
         -4   -1    0    0    0  501 -0.00000000000E+00 -0.00000000000E+00 -0.56006371018E+02  0.56020768422E+02  0.12700000000E+01 0.  1.
         25    2    1    2    0    0  0.00000000000E+00  0.00000000000E+00  0.13688055182E+02  0.12572676489E+03  0.12497942453E+03 0.  0.
    9000005    1    3    3    0    0  0.39601292655E+02 -0.47001168934E+02  0.18162612699E+02  0.64095653215E+02  0.10000000000E+01 0.  0.
    9000005    1    3    3    0    0 -0.39601292655E+02  0.47001168934E+02 -0.44745575168E+01  0.61631111673E+02  0.10000000000E+01 0.  0.
<mgrwt>
<rscale>  0 0.12497942E+03</rscale>
<asrwt>0</asrwt>
<pdfrwt beam="1">  1        4 0.17426852E-01 0.12497942E+03</pdfrwt>
<pdfrwt beam="2">  1       -4 0.14004839E-01 0.12497942E+03</pdfrwt>
<totfact> 0.19805224E+03</totfact>
</mgrwt>
</event>
<event>
 5    1  0.1438401E-002  0.1250053E+03  0.7818608E-02  0.1235061E+00
          4   -1    0    0  501    0  0.00000000000E+00  0.00000000000E+00  0.30608792931E+03  0.30609056400E+03  0.12700000000E+01 0.  1.
         -4   -1    0    0    0  501 -0.00000000000E+00 -0.00000000000E+00 -0.12728638246E+02  0.12791838476E+02  0.12700000000E+01 0.  1.
         25    2    1    2    0    0  0.00000000000E+00  0.00000000000E+00  0.29335929106E+03  0.31888240247E+03  0.12500525171E+03 0.  0.
    9000005    1    3    3    0    0  0.18532875963E+02  0.56480237533E+02  0.19588681060E+03  0.20470986124E+03  0.10000000000E+01 0.  0.
    9000005    1    3    3    0    0 -0.18532875963E+02 -0.56480237533E+02  0.97472480461E+02  0.11417254123E+03  0.10000000000E+01 0.  0.
<mgrwt>
<rscale>  0 0.12500525E+03</rscale>
<asrwt>0</asrwt>
<pdfrwt beam="1">  1        4 0.76530210E-01 0.12500525E+03</pdfrwt>
<pdfrwt beam="2">  1       -4 0.31903890E-02 0.12500525E+03</pdfrwt>
<totfact> 0.12456372E+03</totfact>
</mgrwt>
</event>
<event>
 5    1  0.1438401E-002  0.1250063E+03  0.7818608E-02  0.1235059E+00
          4   -1    0    0  501    0  0.00000000000E+00  0.00000000000E+00  0.45504951425E+01  0.47243947805E+01  0.12700000000E+01 0. -1.
         -4   -1    0    0    0  501 -0.00000000000E+00 -0.00000000000E+00 -0.84223861657E+03  0.84223957408E+03  0.12700000000E+01 0. -1.
         25    2    1    2    0    0  0.00000000000E+00  0.00000000000E+00 -0.83768812143E+03  0.84696396886E+03  0.12500630289E+03 0.  0.
    9000005    1    3    3    0    0  0.16937047841E+02  0.53012811376E+02 -0.22620154782E+03  0.23294926914E+03  0.10000000000E+01 0.  0.
    9000005    1    3    3    0    0 -0.16937047841E+02 -0.53012811376E+02 -0.61148657361E+03  0.61401469971E+03  0.10000000000E+01 0.  0.
<mgrwt>
<rscale>  0 0.12500630E+03</rscale>
<asrwt>0</asrwt>
<pdfrwt beam="1">  1        4 0.11594838E-02 0.12500630E+03</pdfrwt>
<pdfrwt beam="2">  1       -4 0.21058099E+00 0.12500630E+03</pdfrwt>
<totfact> 0.48473710E+02</totfact>
</mgrwt>
</event>
<event>
 5    1  0.1438401E-002  0.1249954E+03  0.7818608E-02  0.1235076E+00
         -4   -1    0    0    0  501 -0.00000000000E+00  0.00000000000E+00  0.96421930018E+02  0.96430293417E+02  0.12700000000E+01 0.  1.
          4   -1    0    0  501    0  0.00000000000E+00 -0.00000000000E+00 -0.40488990058E+02  0.40508902921E+02  0.12700000000E+01 0.  1.
         25    2    1    2    0    0  0.00000000000E+00  0.00000000000E+00  0.55932939960E+02  0.13693919634E+03  0.12499539880E+03 0.  0.
    9000005    1    3    3    0    0 -0.35643091327E+02  0.23182539259E+02 -0.22203467652E+02  0.47977641268E+02  0.10000000000E+01 0.  0.
    9000005    1    3    3    0    0  0.35643091327E+02 -0.23182539259E+02  0.78136407612E+02  0.88961555070E+02  0.10000000000E+01 0.  0.
<mgrwt>
<rscale>  0 0.12499540E+03</rscale>
<asrwt>0</asrwt>
<pdfrwt beam="2">  1        4 0.10125782E-01 0.12499540E+03</pdfrwt>
<pdfrwt beam="1">  1       -4 0.24109017E-01 0.12499540E+03</pdfrwt>
<totfact> 0.19200101E+03</totfact>
</mgrwt>
</event>
<event>
 5    1  0.1438401E-002  0.1250418E+03  0.7818608E-02  0.1235004E+00
         -4   -1    0    0    0  501 -0.00000000000E+00  0.00000000000E+00  0.14530119056E+03  0.14530674065E+03  0.12700000000E+01 0. -1.
          4   -1    0    0  501    0  0.00000000000E+00 -0.00000000000E+00 -0.26880753506E+02  0.26910737802E+02  0.12700000000E+01 0. -1.
         25    2    1    2    0    0  0.00000000000E+00  0.00000000000E+00  0.11842043705E+03  0.17221747845E+03  0.12504183289E+03 0.  0.
    9000005    1    3    3    0    0  0.10170889791E+01 -0.44449495790E+01 -0.26658155739E+02  0.27063800807E+02  0.10000000000E+01 0.  0.
    9000005    1    3    3    0    0 -0.10170889791E+01  0.44449495790E+01  0.14507859279E+03  0.14515367764E+03  0.10000000000E+01 0.  0.
<mgrwt>
<rscale>  0 0.12504183E+03</rscale>
<asrwt>0</asrwt>
<pdfrwt beam="2">  1        4 0.67246303E-02 0.12504183E+03</pdfrwt>
<pdfrwt beam="1">  1       -4 0.36329739E-01 0.12504183E+03</pdfrwt>
<totfact> 0.17480515E+03</totfact>
</mgrwt>
</event>
<event>
 5    1  0.1438401E-002  0.1249984E+03  0.7818608E-02  0.1235072E+00
         -4   -1    0    0    0  501 -0.00000000000E+00  0.00000000000E+00  0.12491271114E+02  0.12555666212E+02  0.12700000000E+01 0. -1.
          4   -1    0    0  501    0  0.00000000000E+00 -0.00000000000E+00 -0.31184053956E+03  0.31184312564E+03  0.12700000000E+01 0. -1.
         25    2    1    2    0    0  0.00000000000E+00  0.00000000000E+00 -0.29934926844E+03  0.32439879186E+03  0.12499836655E+03 0.  0.
    9000005    1    3    3    0    0 -0.46645608522E+02 -0.41521245157E+02 -0.14368797657E+03  0.15667501780E+03  0.10000000000E+01 0.  0.
    9000005    1    3    3    0    0  0.46645608522E+02  0.41521245157E+02 -0.15566129188E+03  0.16772377405E+03  0.10000000000E+01 0.  0.
<mgrwt>
<rscale>  0 0.12499837E+03</rscale>
<asrwt>0</asrwt>
<pdfrwt beam="2">  1        4 0.77968482E-01 0.12499837E+03</pdfrwt>
<pdfrwt beam="1">  1       -4 0.31311915E-02 0.12499837E+03</pdfrwt>
<totfact> 0.12314235E+03</totfact>
</mgrwt>
</event>
<event>
 5    1  0.1438401E-002  0.1249976E+03  0.7818608E-02  0.1235073E+00
         -4   -1    0    0    0  501 -0.00000000000E+00  0.00000000000E+00  0.95753637473E+02  0.95762059237E+02  0.12700000000E+01 0.  1.
          4   -1    0    0  501    0  0.00000000000E+00 -0.00000000000E+00 -0.40773109492E+02  0.40792883664E+02  0.12700000000E+01 0.  1.
         25    2    1    2    0    0  0.00000000000E+00  0.00000000000E+00  0.54980527981E+02  0.13655494290E+03  0.12499757587E+03 0.  0.
    9000005    1    3    3    0    0  0.90388575697E+01  0.57216028168E+02  0.18762258339E+01  0.57964601688E+02  0.10000000000E+01 0.  0.
    9000005    1    3    3    0    0 -0.90388575697E+01 -0.57216028168E+02  0.53104302147E+02  0.78590341213E+02  0.10000000000E+01 0.  0.
<mgrwt>
<rscale>  0 0.12499758E+03</rscale>
<asrwt>0</asrwt>
<pdfrwt beam="2">  1        4 0.10196802E-01 0.12499758E+03</pdfrwt>
<pdfrwt beam="1">  1       -4 0.23941934E-01 0.12499758E+03</pdfrwt>
<totfact> 0.19219085E+03</totfact>
</mgrwt>
</event>
<event>
 5    1  0.1438401E-002  0.1250023E+03  0.7818608E-02  0.1235066E+00
         -4   -1    0    0    0  501 -0.00000000000E+00  0.00000000000E+00  0.22669538767E+03  0.22669894506E+03  0.12700000000E+01 0. -1.
          4   -1    0    0  501    0  0.00000000000E+00 -0.00000000000E+00 -0.17204809731E+02  0.17251619573E+02  0.12700000000E+01 0. -1.
         25    2    1    2    0    0  0.00000000000E+00  0.00000000000E+00  0.20949057794E+03  0.24395056463E+03  0.12500230293E+03 0.  0.
    9000005    1    3    3    0    0  0.36338278879E+01 -0.36867544764E+01 -0.16795246693E+02  0.17603328525E+02  0.10000000000E+01 0.  0.
    9000005    1    3    3    0    0 -0.36338278879E+01  0.36867544764E+01  0.22628582463E+03  0.22634723610E+03  0.10000000000E+01 0.  0.
<mgrwt>
<rscale>  0 0.12500230E+03</rscale>
<asrwt>0</asrwt>
<pdfrwt beam="2">  1        4 0.43074983E-02 0.12500230E+03</pdfrwt>
<pdfrwt beam="1">  1       -4 0.56680143E-01 0.12500230E+03</pdfrwt>
<totfact> 0.14700534E+03</totfact>
</mgrwt>
</event>
<event>
 5    1  0.1438401E-002  0.1249779E+03  0.7818608E-02  0.1235104E+00
         -4   -1    0    0    0  501 -0.00000000000E+00  0.00000000000E+00  0.66678067354E+02  0.66690160939E+02  0.12700000000E+01 0. -1.
          4   -1    0    0  501    0  0.00000000000E+00 -0.00000000000E+00 -0.58538700242E+02  0.58552474978E+02  0.12700000000E+01 0. -1.
         25    2    1    2    0    0  0.00000000000E+00  0.00000000000E+00  0.81393671115E+01  0.12524263592E+03  0.12497787226E+03 0.  0.
    9000005    1    3    3    0    0  0.31383492313E+02 -0.10311864322E+02  0.57216071597E+02  0.66075237303E+02  0.10000000000E+01 0.  0.
    9000005    1    3    3    0    0 -0.31383492313E+02  0.10311864322E+02 -0.49076704486E+02  0.59167398614E+02  0.10000000000E+01 0.  0.
<mgrwt>
<rscale>  0 0.12497787E+03</rscale>
<asrwt>0</asrwt>
<pdfrwt beam="2">  1        4 0.14637909E-01 0.12497787E+03</pdfrwt>
<pdfrwt beam="1">  1       -4 0.16672750E-01 0.12497787E+03</pdfrwt>
<totfact> 0.19832168E+03</totfact>
</mgrwt>
</event>
<event>
 5    1  0.1438401E-002  0.1250047E+03  0.7818608E-02  0.1235062E+00
         -4   -1    0    0    0  501 -0.00000000000E+00  0.00000000000E+00  0.29841564238E+03  0.29841834481E+03  0.12700000000E+01 0.  1.
          4   -1    0    0  501    0  0.00000000000E+00 -0.00000000000E+00 -0.13057374603E+02  0.13118991254E+02  0.12700000000E+01 0.  1.
         25    2    1    2    0    0  0.00000000000E+00  0.00000000000E+00  0.28535826778E+03  0.31153733606E+03  0.12500468300E+03 0.  0.
    9000005    1    3    3    0    0 -0.42692182222E+02 -0.10866338745E+00  0.25642062333E+03  0.25995224619E+03  0.10000000000E+01 0.  0.
    9000005    1    3    3    0    0  0.42692182222E+02  0.10866338745E+00  0.28937644442E+02  0.51585089866E+02  0.10000000000E+01 0.  0.
<mgrwt>
<rscale>  0 0.12500468E+03</rscale>
<asrwt>0</asrwt>
<pdfrwt beam="2">  1        4 0.32723835E-02 0.12500468E+03</pdfrwt>
<pdfrwt beam="1">  1       -4 0.74611950E-01 0.12500468E+03</pdfrwt>
<totfact> 0.12652396E+03</totfact>
</mgrwt>
</event>
<event>
 5    1  0.1438401E-002  0.1249994E+03  0.7818608E-02  0.1235070E+00
          4   -1    0    0  501    0  0.00000000000E+00  0.00000000000E+00  0.30809698010E+02  0.30835862101E+02  0.12700000000E+01 0. -1.
         -4   -1    0    0    0  501 -0.00000000000E+00 -0.00000000000E+00 -0.12670193524E+03  0.12670830002E+03  0.12700000000E+01 0. -1.
         25    2    1    2    0    0  0.00000000000E+00  0.00000000000E+00 -0.95892237231E+02  0.15754416212E+03  0.12499936743E+03 0.  0.
    9000005    1    3    3    0    0  0.51334911539E+02  0.32047673116E+02 -0.28303746895E+02  0.66816379602E+02  0.10000000000E+01 0.  0.
    9000005    1    3    3    0    0 -0.51334911539E+02 -0.32047673116E+02 -0.67588490336E+02  0.90727782518E+02  0.10000000000E+01 0.  0.
<mgrwt>
<rscale>  0 0.12499937E+03</rscale>
<asrwt>0</asrwt>
<pdfrwt beam="1">  1        4 0.77064909E-02 0.12499937E+03</pdfrwt>
<pdfrwt beam="2">  1       -4 0.31679549E-01 0.12499937E+03</pdfrwt>
<totfact> 0.18174213E+03</totfact>
</mgrwt>
</event>
<event>
 5    1  0.1438401E-002  0.1249993E+03  0.7818608E-02  0.1235070E+00
         -4   -1    0    0    0  501 -0.00000000000E+00  0.00000000000E+00  0.17262819908E+02  0.17309472874E+02  0.12700000000E+01 0. -1.
          4   -1    0    0  501    0  0.00000000000E+00 -0.00000000000E+00 -0.22592463457E+03  0.22592820410E+03  0.12700000000E+01 0. -1.
         25    2    1    2    0    0  0.00000000000E+00  0.00000000000E+00 -0.20866181466E+03  0.24323767697E+03  0.12499925840E+03 0.  0.
    9000005    1    3    3    0    0 -0.54916629813E+02 -0.28026714409E+02 -0.84498750938E+02  0.10460579267E+03  0.10000000000E+01 0.  0.
    9000005    1    3    3    0    0  0.54916629813E+02  0.28026714409E+02 -0.12416306373E+03  0.13863188430E+03  0.10000000000E+01 0.  0.
<mgrwt>
<rscale>  0 0.12499926E+03</rscale>
<asrwt>0</asrwt>
<pdfrwt beam="2">  1        4 0.56487427E-01 0.12499926E+03</pdfrwt>
<pdfrwt beam="1">  1       -4 0.43219835E-02 0.12499926E+03</pdfrwt>
<totfact> 0.14725810E+03</totfact>
</mgrwt>
</event>
<event>
 5    1  0.1438401E-002  0.1250004E+03  0.7818608E-02  0.1235069E+00
         -4   -1    0    0    0  501 -0.00000000000E+00  0.00000000000E+00  0.10941292934E+02  0.11014753336E+02  0.12700000000E+01 0.  1.
          4   -1    0    0  501    0  0.00000000000E+00 -0.00000000000E+00 -0.35575248747E+03  0.35575475435E+03  0.12700000000E+01 0.  1.
         25    2    1    2    0    0  0.00000000000E+00  0.00000000000E+00 -0.34481119453E+03  0.36676950768E+03  0.12500044756E+03 0.  0.
    9000005    1    3    3    0    0 -0.32129581090E+02  0.17435105224E+02 -0.23687970349E+02  0.43570779364E+02  0.10000000000E+01 0.  0.
    9000005    1    3    3    0    0  0.32129581090E+02 -0.17435105224E+02 -0.32112322419E+03  0.32319872832E+03  0.10000000000E+01 0.  0.
<mgrwt>
<rscale>  0 0.12500045E+03</rscale>
<asrwt>0</asrwt>
<pdfrwt beam="2">  1        4 0.88947549E-01 0.12500045E+03</pdfrwt>
<pdfrwt beam="1">  1       -4 0.27447903E-02 0.12500045E+03</pdfrwt>
<totfact> 0.11287222E+03</totfact>
</mgrwt>
</event>
<event>
 5    1  0.1438401E-002  0.1250036E+03  0.7818608E-02  0.1235064E+00
         -4   -1    0    0    0  501 -0.00000000000E+00  0.00000000000E+00  0.17451651536E+04  0.17451656157E+04  0.12700000000E+01 0.  1.
          4   -1    0    0  501    0  0.00000000000E+00 -0.00000000000E+00 -0.20578191050E+01  0.24181644834E+01  0.12700000000E+01 0.  1.
         25    2    1    2    0    0  0.00000000000E+00  0.00000000000E+00  0.17431073345E+04  0.17475837802E+04  0.12500355678E+03 0.  0.
    9000005    1    3    3    0    0  0.30935284379E+02  0.20702899072E+01  0.11297805771E+03  0.11715937625E+03  0.10000000000E+01 0.  0.
    9000005    1    3    3    0    0 -0.30935284379E+02 -0.20702899072E+01  0.16301292768E+04  0.16304244039E+04  0.10000000000E+01 0.  0.
<mgrwt>
<rscale>  0 0.12500356E+03</rscale>
<asrwt>0</asrwt>
<pdfrwt beam="2">  1        4 0.55955508E-03 0.12500356E+03</pdfrwt>
<pdfrwt beam="1">  1       -4 0.43633688E+00 0.12500356E+03</pdfrwt>
<totfact> 0.60973513E+01</totfact>
</mgrwt>
</event>
<event>
 5    1  0.1438401E-002  0.1249983E+03  0.7818608E-02  0.1235072E+00
         -4   -1    0    0    0  501 -0.00000000000E+00  0.00000000000E+00  0.45303456724E+03  0.45303634734E+03  0.12700000000E+01 0. -1.
          4   -1    0    0  501    0  0.00000000000E+00 -0.00000000000E+00 -0.85736070540E+01  0.86671585838E+01  0.12700000000E+01 0. -1.
         25    2    1    2    0    0  0.00000000000E+00  0.00000000000E+00  0.44446096018E+03  0.46170350592E+03  0.12499832901E+03 0.  0.
    9000005    1    3    3    0    0  0.61400573235E+02  0.10910464932E+02  0.20742029579E+03  0.21659466232E+03  0.10000000000E+01 0.  0.
    9000005    1    3    3    0    0 -0.61400573235E+02 -0.10910464932E+02  0.23704066439E+03  0.24510884361E+03  0.10000000000E+01 0.  0.
<mgrwt>
<rscale>  0 0.12499833E+03</rscale>
<asrwt>0</asrwt>
<pdfrwt beam="2">  1        4 0.21553181E-02 0.12499833E+03</pdfrwt>
<pdfrwt beam="1">  1       -4 0.11327056E+00 0.12499833E+03</pdfrwt>
<totfact> 0.93956690E+02</totfact>
</mgrwt>
</event>
<event>
 5    1  0.1438401E-002  0.1249999E+03  0.7818608E-02  0.1235069E+00
         -4   -1    0    0    0  501 -0.00000000000E+00  0.00000000000E+00  0.14851548924E+03  0.14852091922E+03  0.12700000000E+01 0. -1.
          4   -1    0    0  501    0  0.00000000000E+00 -0.00000000000E+00 -0.26280674789E+02  0.26311342941E+02  0.12700000000E+01 0. -1.
         25    2    1    2    0    0  0.00000000000E+00  0.00000000000E+00  0.12223481445E+03  0.17483226216E+03  0.12499988011E+03 0.  0.
    9000005    1    3    3    0    0 -0.28768449638E+02 -0.55249127082E+02  0.68132039032E+02  0.92320444543E+02  0.10000000000E+01 0.  0.
    9000005    1    3    3    0    0  0.28768449638E+02  0.55249127082E+02  0.54102775422E+02  0.82511817616E+02  0.10000000000E+01 0.  0.
<mgrwt>
<rscale>  0 0.12499988E+03</rscale>
<asrwt>0</asrwt>
<pdfrwt beam="2">  1        4 0.65746811E-02 0.12499988E+03</pdfrwt>
<pdfrwt beam="1">  1       -4 0.37133384E-01 0.12499988E+03</pdfrwt>
<totfact> 0.17381317E+03</totfact>
</mgrwt>
</event>
<event>
 5    1  0.1438401E-002  0.1250007E+03  0.7818608E-02  0.1235068E+00
         -4   -1    0    0    0  501 -0.00000000000E+00  0.00000000000E+00  0.11048095327E+02  0.11120850253E+02  0.12700000000E+01 0.  1.
          4   -1    0    0  501    0  0.00000000000E+00 -0.00000000000E+00 -0.35233750754E+03  0.35233979639E+03  0.12700000000E+01 0.  1.
         25    2    1    2    0    0  0.00000000000E+00  0.00000000000E+00 -0.34128941221E+03  0.36346064664E+03  0.12500071508E+03 0.  0.
    9000005    1    3    3    0    0 -0.29698172656E+02  0.27309706179E+02 -0.31881782892E+02  0.51431989958E+02  0.10000000000E+01 0.  0.
    9000005    1    3    3    0    0  0.29698172656E+02 -0.27309706179E+02 -0.30940762932E+03  0.31202865668E+03  0.10000000000E+01 0.  0.
<mgrwt>
<rscale>  0 0.12500072E+03</rscale>
<asrwt>0</asrwt>
<pdfrwt beam="2">  1        4 0.88093720E-01 0.12500072E+03</pdfrwt>
<pdfrwt beam="1">  1       -4 0.27714055E-02 0.12500072E+03</pdfrwt>
<totfact> 0.11362553E+03</totfact>
</mgrwt>
</event>
<event>
 5    1  0.1438401E-002  0.1249995E+03  0.7818608E-02  0.1235070E+00
          4   -1    0    0  501    0  0.00000000000E+00  0.00000000000E+00  0.29761752324E+02  0.29788836859E+02  0.12700000000E+01 0.  1.
         -4   -1    0    0    0  501 -0.00000000000E+00 -0.00000000000E+00 -0.13115968570E+03  0.13116583417E+03  0.12700000000E+01 0.  1.
         25    2    1    2    0    0  0.00000000000E+00  0.00000000000E+00 -0.10139793338E+03  0.16095467103E+03  0.12499946093E+03 0.  0.
    9000005    1    3    3    0    0 -0.41128891355E+02 -0.34880902170E+01 -0.11111486286E+03  0.11853803283E+03  0.10000000000E+01 0.  0.
    9000005    1    3    3    0    0  0.41128891355E+02  0.34880902170E+01  0.97169294868E+01  0.42416638199E+02  0.10000000000E+01 0.  0.
<mgrwt>
<rscale>  0 0.12499946E+03</rscale>
<asrwt>0</asrwt>
<pdfrwt beam="1">  1        4 0.74445926E-02 0.12499946E+03</pdfrwt>
<pdfrwt beam="2">  1       -4 0.32794074E-01 0.12499946E+03</pdfrwt>
<totfact> 0.18013144E+03</totfact>
</mgrwt>
</event>
<event>
 5    1  0.1438401E-002  0.1250440E+03  0.7818608E-02  0.1235001E+00
         -4   -1    0    0    0  501 -0.00000000000E+00  0.00000000000E+00  0.74548526962E+02  0.74559343963E+02  0.12700000000E+01 0. -1.
          4   -1    0    0  501    0  0.00000000000E+00 -0.00000000000E+00 -0.52413348522E+02  0.52428732612E+02  0.12700000000E+01 0. -1.
         25    2    1    2    0    0  0.00000000000E+00  0.00000000000E+00  0.22135178440E+02  0.12698807657E+03  0.12504401412E+03 0.  0.
    9000005    1    3    3    0    0  0.15940327702E+02 -0.57783932800E+02  0.29089598717E+02  0.66635438699E+02  0.10000000000E+01 0.  0.
    9000005    1    3    3    0    0 -0.15940327702E+02  0.57783932800E+02 -0.69544202773E+01  0.60352637875E+02  0.10000000000E+01 0.  0.
<mgrwt>
<rscale>  0 0.12504401E+03</rscale>
<asrwt>0</asrwt>
<pdfrwt beam="2">  1        4 0.13106612E-01 0.12504401E+03</pdfrwt>
<pdfrwt beam="1">  1       -4 0.18640407E-01 0.12504401E+03</pdfrwt>
<totfact> 0.19707328E+03</totfact>
</mgrwt>
</event>
<event>
 5    1  0.1438401E-002  0.1250008E+03  0.7818608E-02  0.1235068E+00
         -4   -1    0    0    0  501 -0.00000000000E+00  0.00000000000E+00  0.41217072510E+02  0.41236633790E+02  0.12700000000E+01 0.  1.
          4   -1    0    0  501    0  0.00000000000E+00 -0.00000000000E+00 -0.94727592463E+02  0.94736105439E+02  0.12700000000E+01 0.  1.
         25    2    1    2    0    0  0.00000000000E+00  0.00000000000E+00 -0.53510519953E+02  0.13597273923E+03  0.12500084027E+03 0.  0.
    9000005    1    3    3    0    0 -0.53771837882E+02  0.28393120508E+02 -0.42432906494E+02  0.74156128506E+02  0.10000000000E+01 0.  0.
    9000005    1    3    3    0    0  0.53771837882E+02 -0.28393120508E+02 -0.11077613459E+02  0.61816610723E+02  0.10000000000E+01 0.  0.
<mgrwt>
<rscale>  0 0.12500084E+03</rscale>
<asrwt>0</asrwt>
<pdfrwt beam="2">  1        4 0.23685407E-01 0.12500084E+03</pdfrwt>
<pdfrwt beam="1">  1       -4 0.10307778E-01 0.12500084E+03</pdfrwt>
<totfact> 0.19247930E+03</totfact>
</mgrwt>
</event>
<event>
 5    1  0.1438401E-002  0.1249987E+03  0.7818608E-02  0.1235071E+00
          4   -1    0    0  501    0  0.00000000000E+00  0.00000000000E+00  0.39427897585E+02  0.39448346074E+02  0.12700000000E+01 0.  1.
         -4   -1    0    0    0  501 -0.00000000000E+00 -0.00000000000E+00 -0.99020962238E+02  0.99029106138E+02  0.12700000000E+01 0.  1.
         25    2    1    2    0    0  0.00000000000E+00  0.00000000000E+00 -0.59593064652E+02  0.13847745221E+03  0.12499868566E+03 0.  0.
    9000005    1    3    3    0    0 -0.61730166643E+02  0.70205078829E+01 -0.22342972322E+02  0.66031124608E+02  0.10000000000E+01 0.  0.
    9000005    1    3    3    0    0  0.61730166643E+02 -0.70205078829E+01 -0.37250092330E+02  0.72446327605E+02  0.10000000000E+01 0.  0.
<mgrwt>
<rscale>  0 0.12499869E+03</rscale>
<asrwt>0</asrwt>
<pdfrwt beam="1">  1        4 0.98605486E-02 0.12499869E+03</pdfrwt>
<pdfrwt beam="2">  1       -4 0.24758814E-01 0.12499869E+03</pdfrwt>
<totfact> 0.19119092E+03</totfact>
</mgrwt>
</event>
<event>
 5    1  0.1438401E-002  0.1249809E+03  0.7818608E-02  0.1235099E+00
          4   -1    0    0  501    0  0.00000000000E+00  0.00000000000E+00  0.30418239959E+02  0.30444740468E+02  0.12700000000E+01 0. -1.
         -4   -1    0    0    0  501 -0.00000000000E+00 -0.00000000000E+00 -0.12829323901E+03  0.12829952484E+03  0.12700000000E+01 0. -1.
         25    2    1    2    0    0  0.00000000000E+00  0.00000000000E+00 -0.97874999049E+02  0.15874426531E+03  0.12498090386E+03 0.  0.
    9000005    1    3    3    0    0  0.35925286908E+02  0.43268402063E+02 -0.14355963988E+02  0.58050620656E+02  0.10000000000E+01 0.  0.
    9000005    1    3    3    0    0 -0.35925286908E+02 -0.43268402063E+02 -0.83519035062E+02  0.10069364466E+03  0.10000000000E+01 0.  0.
<mgrwt>
<rscale>  0 0.12498090E+03</rscale>
<asrwt>0</asrwt>
<pdfrwt beam="1">  1        4 0.76086586E-02 0.12498090E+03</pdfrwt>
<pdfrwt beam="2">  1       -4 0.32077407E-01 0.12498090E+03</pdfrwt>
<totfact> 0.18125056E+03</totfact>
</mgrwt>
</event>
<event>
 5    1  0.1438401E-002  0.1249982E+03  0.7818608E-02  0.1235072E+00
         -4   -1    0    0    0  501 -0.00000000000E+00  0.00000000000E+00  0.45576601659E+01  0.47312964596E+01  0.12700000000E+01 0.  1.
          4   -1    0    0  501    0  0.00000000000E+00 -0.00000000000E+00 -0.84085364316E+03  0.84085460225E+03  0.12700000000E+01 0.  1.
         25    2    1    2    0    0  0.00000000000E+00  0.00000000000E+00 -0.83629598300E+03  0.84558589871E+03  0.12499816365E+03 0.  0.
    9000005    1    3    3    0    0  0.33749235538E+02  0.27049271661E+02 -0.72327370526E+03  0.72456644051E+03  0.10000000000E+01 0.  0.
    9000005    1    3    3    0    0 -0.33749235538E+02 -0.27049271661E+02 -0.11302227774E+03  0.12101945820E+03  0.10000000000E+01 0.  0.
<mgrwt>
<rscale>  0 0.12499816E+03</rscale>
<asrwt>0</asrwt>
<pdfrwt beam="2">  1        4 0.21023472E+00 0.12499816E+03</pdfrwt>
<pdfrwt beam="1">  1       -4 0.11612423E-02 0.12499816E+03</pdfrwt>
<totfact> 0.48596309E+02</totfact>
</mgrwt>
</event>
<event>
 5    1  0.1438401E-002  0.1249982E+03  0.7818608E-02  0.1235072E+00
          4   -1    0    0  501    0  0.00000000000E+00  0.00000000000E+00  0.28342143563E+02  0.28370583388E+02  0.12700000000E+01 0.  1.
         -4   -1    0    0    0  501 -0.00000000000E+00 -0.00000000000E+00 -0.13772027567E+03  0.13772613125E+03  0.12700000000E+01 0.  1.
         25    2    1    2    0    0  0.00000000000E+00  0.00000000000E+00 -0.10937813211E+03  0.16609671464E+03  0.12499817131E+03 0.  0.
    9000005    1    3    3    0    0  0.38905574149E+02 -0.23647545321E+02 -0.11156833005E+03  0.12050453257E+03  0.10000000000E+01 0.  0.
    9000005    1    3    3    0    0 -0.38905574149E+02  0.23647545321E+02  0.21901979394E+01  0.45592182077E+02  0.10000000000E+01 0.  0.
<mgrwt>
<rscale>  0 0.12499817E+03</rscale>
<asrwt>0</asrwt>
<pdfrwt beam="1">  1        4 0.70898232E-02 0.12499817E+03</pdfrwt>
<pdfrwt beam="2">  1       -4 0.34434354E-01 0.12499817E+03</pdfrwt>
<totfact> 0.17775307E+03</totfact>
</mgrwt>
</event>
<event>
 5    1  0.1438401E-002  0.1250014E+03  0.7818608E-02  0.1235067E+00
         -4   -1    0    0    0  501 -0.00000000000E+00  0.00000000000E+00  0.75974820630E+02  0.75985434590E+02  0.12700000000E+01 0.  1.
          4   -1    0    0  501    0  0.00000000000E+00 -0.00000000000E+00 -0.51394154366E+02  0.51409843444E+02  0.12700000000E+01 0.  1.
         25    2    1    2    0    0  0.00000000000E+00  0.00000000000E+00  0.24580666264E+02  0.12739527803E+03  0.12500139084E+03 0.  0.
    9000005    1    3    3    0    0 -0.13354003130E+02  0.28771433161E+01 -0.49858901484E+02  0.51706067443E+02  0.10000000000E+01 0.  0.
    9000005    1    3    3    0    0  0.13354003130E+02 -0.28771433161E+01  0.74439567748E+02  0.75689210591E+02  0.10000000000E+01 0.  0.
<mgrwt>
<rscale>  0 0.12500139E+03</rscale>
<asrwt>0</asrwt>
<pdfrwt beam="2">  1        4 0.12851827E-01 0.12500139E+03</pdfrwt>
<pdfrwt beam="1">  1       -4 0.18996993E-01 0.12500139E+03</pdfrwt>
<totfact> 0.19704864E+03</totfact>
</mgrwt>
</event>
<event>
 5    1  0.1438401E-002  0.1249979E+03  0.7818608E-02  0.1235073E+00
          4   -1    0    0  501    0  0.00000000000E+00  0.00000000000E+00  0.16729671674E+03  0.16730153715E+03  0.12700000000E+01 0. -1.
         -4   -1    0    0    0  501 -0.00000000000E+00 -0.00000000000E+00 -0.23326017390E+02  0.23360564789E+02  0.12700000000E+01 0. -1.
         25    2    1    2    0    0  0.00000000000E+00  0.00000000000E+00  0.14397069935E+03  0.19066210194E+03  0.12499789936E+03 0.  0.
    9000005    1    3    3    0    0 -0.49006762654E+02  0.16580479374E+02  0.12544879643E+03  0.13570178926E+03  0.10000000000E+01 0.  0.
    9000005    1    3    3    0    0  0.49006762654E+02 -0.16580479374E+02  0.18521902921E+02  0.54960312680E+02  0.10000000000E+01 0.  0.
<mgrwt>
<rscale>  0 0.12499790E+03</rscale>
<asrwt>0</asrwt>
<pdfrwt beam="1">  1        4 0.41829099E-01 0.12499790E+03</pdfrwt>
<pdfrwt beam="2">  1       -4 0.58364255E-02 0.12499790E+03</pdfrwt>
<totfact> 0.16703715E+03</totfact>
</mgrwt>
</event>
<event>
 5    1  0.1438401E-002  0.1249951E+03  0.7818608E-02  0.1235077E+00
         -4   -1    0    0    0  501 -0.00000000000E+00  0.00000000000E+00  0.13953289763E+03  0.13953867715E+03  0.12700000000E+01 0.  1.
          4   -1    0    0  501    0  0.00000000000E+00 -0.00000000000E+00 -0.27972229008E+02  0.28001044546E+02  0.12700000000E+01 0.  1.
         25    2    1    2    0    0  0.00000000000E+00  0.00000000000E+00  0.11156066862E+03  0.16753972170E+03  0.12499510216E+03 0.  0.
    9000005    1    3    3    0    0  0.60728271306E+02  0.11333765438E+02  0.43166124086E+02  0.75370361837E+02  0.10000000000E+01 0.  0.
    9000005    1    3    3    0    0 -0.60728271306E+02 -0.11333765438E+02  0.68394544538E+02  0.92169359862E+02  0.10000000000E+01 0.  0.
<mgrwt>
<rscale>  0 0.12499510E+03</rscale>
<asrwt>0</asrwt>
<pdfrwt beam="2">  1        4 0.69973817E-02 0.12499510E+03</pdfrwt>
<pdfrwt beam="1">  1       -4 0.34887548E-01 0.12499510E+03</pdfrwt>
<totfact> 0.17710604E+03</totfact>
</mgrwt>
</event>
<event>
 5    1  0.1438401E-002  0.1250017E+03  0.7818608E-02  0.1235067E+00
         -4   -1    0    0    0  501 -0.00000000000E+00  0.00000000000E+00  0.35609800574E+02  0.35632440233E+02  0.12700000000E+01 0. -1.
          4   -1    0    0  501    0  0.00000000000E+00 -0.00000000000E+00 -0.10963769753E+03  0.10964505287E+03  0.12700000000E+01 0. -1.
         25    2    1    2    0    0  0.00000000000E+00  0.00000000000E+00 -0.74027896957E+02  0.14527749311E+03  0.12500168189E+03 0.  0.
    9000005    1    3    3    0    0 -0.30384566774E+02  0.49394212747E+02 -0.99481846348E+01  0.58847060491E+02  0.10000000000E+01 0.  0.
    9000005    1    3    3    0    0  0.30384566774E+02 -0.49394212747E+02 -0.64079712322E+02  0.86430432616E+02  0.10000000000E+01 0.  0.
<mgrwt>
<rscale>  0 0.12500168E+03</rscale>
<asrwt>0</asrwt>
<pdfrwt beam="2">  1        4 0.27413173E-01 0.12500168E+03</pdfrwt>
<pdfrwt beam="1">  1       -4 0.89061998E-02 0.12500168E+03</pdfrwt>
<totfact> 0.18772711E+03</totfact>
</mgrwt>
</event>
<event>
 5    1  0.1438401E-002  0.1249772E+03  0.7818608E-02  0.1235105E+00
         -4   -1    0    0    0  501 -0.00000000000E+00  0.00000000000E+00  0.66894685251E+03  0.66894805806E+03  0.12700000000E+01 0. -1.
          4   -1    0    0  501    0  0.00000000000E+00 -0.00000000000E+00 -0.57669688278E+01  0.59051527889E+01  0.12700000000E+01 0. -1.
         25    2    1    2    0    0  0.00000000000E+00  0.00000000000E+00  0.66317988368E+03  0.67485321085E+03  0.12497719021E+03 0.  0.
    9000005    1    3    3    0    0 -0.53771620620E+02  0.26327784157E+02  0.23510314287E+03  0.24260879454E+03  0.10000000000E+01 0.  0.
    9000005    1    3    3    0    0  0.53771620620E+02 -0.26327784157E+02  0.42807674081E+03  0.43224441631E+03  0.10000000000E+01 0.  0.
<mgrwt>
<rscale>  0 0.12497719E+03</rscale>
<asrwt>0</asrwt>
<pdfrwt beam="2">  1        4 0.14591665E-02 0.12497719E+03</pdfrwt>
<pdfrwt beam="1">  1       -4 0.16725407E+00 0.12497719E+03</pdfrwt>
<totfact> 0.64770909E+02</totfact>
</mgrwt>
</event>
<event>
 5    1  0.1438401E-002  0.1250025E+03  0.7818608E-02  0.1235065E+00
          4   -1    0    0  501    0  0.00000000000E+00  0.00000000000E+00  0.13886272025E+02  0.13944226431E+02  0.12700000000E+01 0. -1.
         -4   -1    0    0    0  501 -0.00000000000E+00 -0.00000000000E+00 -0.28066919311E+03  0.28067206640E+03  0.12700000000E+01 0. -1.
         25    2    1    2    0    0  0.00000000000E+00  0.00000000000E+00 -0.26678292108E+03  0.29461629284E+03  0.12500253206E+03 0.  0.
    9000005    1    3    3    0    0 -0.75898822697E+01  0.60940087765E+02 -0.16068530547E+03  0.17202345190E+03  0.10000000000E+01 0.  0.
    9000005    1    3    3    0    0  0.75898822697E+01 -0.60940087765E+02 -0.10609761561E+03  0.12259284093E+03  0.10000000000E+01 0.  0.
<mgrwt>
<rscale>  0 0.12500253E+03</rscale>
<asrwt>0</asrwt>
<pdfrwt beam="1">  1        4 0.34791724E-02 0.12500253E+03</pdfrwt>
<pdfrwt beam="2">  1       -4 0.70174883E-01 0.12500253E+03</pdfrwt>
<totfact> 0.13122537E+03</totfact>
</mgrwt>
</event>
<event>
 5    1  0.1438401E-002  0.1249984E+03  0.7818608E-02  0.1235072E+00
          4   -1    0    0  501    0  0.00000000000E+00  0.00000000000E+00  0.36592607190E+02  0.36614639162E+02  0.12700000000E+01 0.  1.
         -4   -1    0    0    0  501 -0.00000000000E+00 -0.00000000000E+00 -0.10668896249E+03  0.10669652111E+03  0.12700000000E+01 0.  1.
         25    2    1    2    0    0  0.00000000000E+00  0.00000000000E+00 -0.70096355295E+02  0.14331116027E+03  0.12499835852E+03 0.  0.
    9000005    1    3    3    0    0 -0.57977935821E+01 -0.50999047706E+02 -0.75916355723E+02  0.91645023561E+02  0.10000000000E+01 0.  0.
    9000005    1    3    3    0    0  0.57977935821E+01  0.50999047706E+02  0.58200004274E+01  0.51666136708E+02  0.10000000000E+01 0.  0.
<mgrwt>
<rscale>  0 0.12499836E+03</rscale>
<asrwt>0</asrwt>
<pdfrwt beam="1">  1        4 0.91518509E-02 0.12499836E+03</pdfrwt>
<pdfrwt beam="2">  1       -4 0.26675939E-01 0.12499836E+03</pdfrwt>
<totfact> 0.18872932E+03</totfact>
</mgrwt>
</event>
<event>
 5    1  0.1438401E-002  0.1249958E+03  0.7818608E-02  0.1235076E+00
          4   -1    0    0  501    0  0.00000000000E+00  0.00000000000E+00  0.30187174647E+03  0.30187441796E+03  0.12700000000E+01 0.  1.
         -4   -1    0    0    0  501 -0.00000000000E+00 -0.00000000000E+00 -0.12905320874E+02  0.12967660038E+02  0.12700000000E+01 0.  1.
         25    2    1    2    0    0  0.00000000000E+00  0.00000000000E+00  0.28896642560E+03  0.31484207800E+03  0.12499575575E+03 0.  0.
    9000005    1    3    3    0    0 -0.56554756398E+02 -0.24491580643E+02  0.17050238286E+03  0.18130179413E+03  0.10000000000E+01 0.  0.
    9000005    1    3    3    0    0  0.56554756398E+02  0.24491580643E+02  0.11846404273E+03  0.13354028386E+03  0.10000000000E+01 0.  0.
<mgrwt>
<rscale>  0 0.12499576E+03</rscale>
<asrwt>0</asrwt>
<pdfrwt beam="1">  1        4 0.75476063E-01 0.12499576E+03</pdfrwt>
<pdfrwt beam="2">  1       -4 0.32344565E-02 0.12499576E+03</pdfrwt>
<totfact> 0.12566263E+03</totfact>
</mgrwt>
</event>
<event>
 5    1  0.1438401E-002  0.1250015E+03  0.7818608E-02  0.1235067E+00
         -4   -1    0    0    0  501 -0.00000000000E+00  0.00000000000E+00  0.10936698514E+02  0.11010189571E+02  0.12700000000E+01 0.  1.
          4   -1    0    0  501    0  0.00000000000E+00 -0.00000000000E+00 -0.35590674147E+03  0.35590900736E+03  0.12700000000E+01 0.  1.
         25    2    1    2    0    0  0.00000000000E+00  0.00000000000E+00 -0.34497004295E+03  0.36691919693E+03  0.12500146616E+03 0.  0.
    9000005    1    3    3    0    0 -0.36424900986E+02 -0.20121980180E+02 -0.35632581034E+02  0.54793688773E+02  0.10000000000E+01 0.  0.
    9000005    1    3    3    0    0  0.36424900986E+02  0.20121980180E+02 -0.30933746192E+03  0.31212550816E+03  0.10000000000E+01 0.  0.
<mgrwt>
<rscale>  0 0.12500147E+03</rscale>
<asrwt>0</asrwt>
<pdfrwt beam="2">  1        4 0.88986116E-01 0.12500147E+03</pdfrwt>
<pdfrwt beam="1">  1       -4 0.27436454E-02 0.12500147E+03</pdfrwt>
<totfact> 0.11283567E+03</totfact>
</mgrwt>
</event>
<event>
 5    1  0.1438401E-002  0.1250017E+03  0.7818608E-02  0.1235067E+00
         -4   -1    0    0    0  501 -0.00000000000E+00  0.00000000000E+00  0.50536338631E+03  0.50536498209E+03  0.12700000000E+01 0.  1.
          4   -1    0    0  501    0  0.00000000000E+00 -0.00000000000E+00 -0.76760169959E+01  0.77803686880E+01  0.12700000000E+01 0.  1.
         25    2    1    2    0    0  0.00000000000E+00  0.00000000000E+00  0.49768736931E+03  0.51314535078E+03  0.12500173379E+03 0.  0.
    9000005    1    3    3    0    0  0.36184308201E+02  0.17751324401E+02  0.52786962110E+02  0.66421962081E+02  0.10000000000E+01 0.  0.
    9000005    1    3    3    0    0 -0.36184308201E+02 -0.17751324401E+02  0.44490040720E+03  0.44672338870E+03  0.10000000000E+01 0.  0.
<mgrwt>
<rscale>  0 0.12500173E+03</rscale>
<asrwt>0</asrwt>
<pdfrwt beam="2">  1        4 0.19322477E-02 0.12500173E+03</pdfrwt>
<pdfrwt beam="1">  1       -4 0.12635409E+00 0.12500173E+03</pdfrwt>
<totfact> 0.85549886E+02</totfact>
</mgrwt>
</event>
<event>
 5    1  0.1438401E-002  0.1249998E+03  0.7818608E-02  0.1235070E+00
         -4   -1    0    0    0  501 -0.00000000000E+00  0.00000000000E+00  0.41370254256E+02  0.41389743140E+02  0.12700000000E+01 0.  1.
          4   -1    0    0  501    0  0.00000000000E+00 -0.00000000000E+00 -0.94375362966E+02  0.94383907711E+02  0.12700000000E+01 0.  1.
         25    2    1    2    0    0  0.00000000000E+00  0.00000000000E+00 -0.53005108710E+02  0.13577365085E+03  0.12499977086E+03 0.  0.
    9000005    1    3    3    0    0  0.40368405931E+01 -0.50961259078E+02  0.12538271137E+02  0.52645553011E+02  0.10000000000E+01 0.  0.
    9000005    1    3    3    0    0 -0.40368405931E+01  0.50961259078E+02 -0.65543379847E+02  0.83128097840E+02  0.10000000000E+01 0.  0.
<mgrwt>
<rscale>  0 0.12499977E+03</rscale>
<asrwt>0</asrwt>
<pdfrwt beam="2">  1        4 0.23597345E-01 0.12499977E+03</pdfrwt>
<pdfrwt beam="1">  1       -4 0.10346068E-01 0.12499977E+03</pdfrwt>
<totfact> 0.19258794E+03</totfact>
</mgrwt>
</event>
<event>
 5    1  0.1438401E-002  0.1249976E+03  0.7818608E-02  0.1235073E+00
          4   -1    0    0  501    0  0.00000000000E+00  0.00000000000E+00  0.19682555081E+03  0.19682964805E+03  0.12700000000E+01 0. -1.
         -4   -1    0    0    0  501 -0.00000000000E+00 -0.00000000000E+00 -0.19820857530E+02  0.19861502794E+02  0.12700000000E+01 0. -1.
         25    2    1    2    0    0  0.00000000000E+00  0.00000000000E+00  0.17700469328E+03  0.21669115084E+03  0.12499757362E+03 0.  0.
    9000005    1    3    3    0    0 -0.90814096309E+01 -0.31571925387E+01  0.19554418180E+03  0.19578295866E+03  0.10000000000E+01 0.  0.
    9000005    1    3    3    0    0  0.90814096309E+01  0.31571925387E+01 -0.18539488523E+02  0.20908192182E+02  0.10000000000E+01 0.  0.
<mgrwt>
<rscale>  0 0.12499757E+03</rscale>
<asrwt>0</asrwt>
<pdfrwt beam="1">  1        4 0.49211981E-01 0.12499757E+03</pdfrwt>
<pdfrwt beam="2">  1       -4 0.49608072E-02 0.12499757E+03</pdfrwt>
<totfact> 0.15675699E+03</totfact>
</mgrwt>
</event>
<event>
 5    1  0.1438401E-002  0.1249945E+03  0.7818608E-02  0.1235078E+00
         -4   -1    0    0    0  501 -0.00000000000E+00  0.00000000000E+00  0.90064560866E+02  0.90073514553E+02  0.12700000000E+01 0. -1.
          4   -1    0    0  501    0  0.00000000000E+00 -0.00000000000E+00 -0.43347429351E+02  0.43366029693E+02  0.12700000000E+01 0. -1.
         25    2    1    2    0    0  0.00000000000E+00  0.00000000000E+00  0.46717131515E+02  0.13343954425E+03  0.12499448625E+03 0.  0.
    9000005    1    3    3    0    0  0.66255331045E+01  0.59546742619E+02  0.44053860204E+01  0.60084271415E+02  0.10000000000E+01 0.  0.
    9000005    1    3    3    0    0 -0.66255331045E+01 -0.59546742619E+02  0.42311745494E+02  0.73355272832E+02  0.10000000000E+01 0.  0.
<mgrwt>
<rscale>  0 0.12499449E+03</rscale>
<asrwt>0</asrwt>
<pdfrwt beam="2">  1        4 0.10840302E-01 0.12499449E+03</pdfrwt>
<pdfrwt beam="1">  1       -4 0.22519584E-01 0.12499449E+03</pdfrwt>
<totfact> 0.19383681E+03</totfact>
</mgrwt>
</event>
<event>
 5    1  0.1438401E-002  0.1249972E+03  0.7818608E-02  0.1235074E+00
          4   -1    0    0  501    0  0.00000000000E+00  0.00000000000E+00  0.75796436048E+02  0.75807074984E+02  0.12700000000E+01 0.  1.
         -4   -1    0    0    0  501 -0.00000000000E+00 -0.00000000000E+00 -0.51511673930E+02  0.51527327226E+02  0.12700000000E+01 0.  1.
         25    2    1    2    0    0  0.00000000000E+00  0.00000000000E+00  0.24284762118E+02  0.12733440221E+03  0.12499720123E+03 0.  0.
    9000005    1    3    3    0    0 -0.10649238191E+02 -0.13289501799E+02  0.73391958429E+02  0.75348501605E+02  0.10000000000E+01 0.  0.
    9000005    1    3    3    0    0  0.10649238191E+02  0.13289501799E+02 -0.49107196311E+02  0.51985900605E+02  0.10000000000E+01 0.  0.
<mgrwt>
<rscale>  0 0.12499720E+03</rscale>
<asrwt>0</asrwt>
<pdfrwt beam="1">  1        4 0.18952396E-01 0.12499720E+03</pdfrwt>
<pdfrwt beam="2">  1       -4 0.12881205E-01 0.12499720E+03</pdfrwt>
<totfact> 0.19710118E+03</totfact>
</mgrwt>
</event>
<event>
 5    1  0.1438401E-002  0.1250004E+03  0.7818608E-02  0.1235069E+00
         -4   -1    0    0    0  501 -0.00000000000E+00  0.00000000000E+00  0.28090149077E+03  0.28090436169E+03  0.12700000000E+01 0.  1.
          4   -1    0    0  501    0  0.00000000000E+00 -0.00000000000E+00 -0.13874272094E+02  0.13932276416E+02  0.12700000000E+01 0.  1.
         25    2    1    2    0    0  0.00000000000E+00  0.00000000000E+00  0.26702721868E+03  0.29483663811E+03  0.12500043062E+03 0.  0.
    9000005    1    3    3    0    0 -0.10737446608E+02 -0.55849546532E+02  0.19460365533E+03  0.20274626328E+03  0.10000000000E+01 0.  0.
    9000005    1    3    3    0    0  0.10737446608E+02  0.55849546532E+02  0.72423563351E+02  0.92090374828E+02  0.10000000000E+01 0.  0.
<mgrwt>
<rscale>  0 0.12500043E+03</rscale>
<asrwt>0</asrwt>
<pdfrwt beam="2">  1        4 0.34761774E-02 0.12500043E+03</pdfrwt>
<pdfrwt beam="1">  1       -4 0.70232982E-01 0.12500043E+03</pdfrwt>
<totfact> 0.13116883E+03</totfact>
</mgrwt>
</event>
<event>
 5    1  0.1438401E-002  0.1249996E+03  0.7818608E-02  0.1235070E+00
         -4   -1    0    0    0  501 -0.00000000000E+00  0.00000000000E+00  0.16006999591E+03  0.16007503394E+03  0.12700000000E+01 0.  1.
          4   -1    0    0  501    0  0.00000000000E+00 -0.00000000000E+00 -0.24381281198E+02  0.24414335397E+02  0.12700000000E+01 0.  1.
         25    2    1    2    0    0  0.00000000000E+00  0.00000000000E+00  0.13568871471E+03  0.18448936934E+03  0.12499960039E+03 0.  0.
    9000005    1    3    3    0    0 -0.42970099678E+02  0.78050236434E+01  0.18742618103E+01  0.43724829534E+02  0.10000000000E+01 0.  0.
    9000005    1    3    3    0    0  0.42970099678E+02 -0.78050236434E+01  0.13381445290E+03  0.14076453980E+03  0.10000000000E+01 0.  0.
<mgrwt>
<rscale>  0 0.12499960E+03</rscale>
<asrwt>0</asrwt>
<pdfrwt beam="2">  1        4 0.61000819E-02 0.12499960E+03</pdfrwt>
<pdfrwt beam="1">  1       -4 0.40022260E-01 0.12499960E+03</pdfrwt>
<totfact> 0.16962705E+03</totfact>
</mgrwt>
</event>
<event>
 5    1  0.1438401E-002  0.1249971E+03  0.7818608E-02  0.1235074E+00
          4   -1    0    0  501    0  0.00000000000E+00  0.00000000000E+00  0.25163157258E+03  0.25163477744E+03  0.12700000000E+01 0. -1.
         -4   -1    0    0    0  501 -0.00000000000E+00 -0.00000000000E+00 -0.15493680632E+02  0.15545643748E+02  0.12700000000E+01 0. -1.
         25    2    1    2    0    0  0.00000000000E+00  0.00000000000E+00  0.23613789194E+03  0.26718042119E+03  0.12499709378E+03 0.  0.
    9000005    1    3    3    0    0 -0.20610340218E+01  0.45972166212E+02  0.27701248979E+02  0.53721942653E+02  0.10000000000E+01 0.  0.
    9000005    1    3    3    0    0  0.20610340218E+01 -0.45972166212E+02  0.20843664296E+03  0.21345847853E+03  0.10000000000E+01 0.  0.
<mgrwt>
<rscale>  0 0.12499709E+03</rscale>
<asrwt>0</asrwt>
<pdfrwt beam="1">  1        4 0.62914787E-01 0.12499709E+03</pdfrwt>
<pdfrwt beam="2">  1       -4 0.38803163E-02 0.12499709E+03</pdfrwt>
<totfact> 0.13944378E+03</totfact>
</mgrwt>
</event>
<event>
 5    1  0.1438401E-002  0.1250001E+03  0.7818608E-02  0.1235069E+00
         -4   -1    0    0    0  501 -0.00000000000E+00  0.00000000000E+00  0.18595250646E+02  0.18638568791E+02  0.12700000000E+01 0. -1.
          4   -1    0    0  501    0  0.00000000000E+00 -0.00000000000E+00 -0.20977782495E+03  0.20978166922E+03  0.12700000000E+01 0. -1.
         25    2    1    2    0    0  0.00000000000E+00  0.00000000000E+00 -0.19118257430E+03  0.22842023801E+03  0.12500011366E+03 0.  0.
    9000005    1    3    3    0    0 -0.29883850290E+02 -0.91284538226E+01 -0.19448649604E+03  0.19698317268E+03  0.10000000000E+01 0.  0.
    9000005    1    3    3    0    0  0.29883850290E+02  0.91284538226E+01  0.33039217422E+01  0.31437065324E+02  0.10000000000E+01 0.  0.
<mgrwt>
<rscale>  0 0.12500011E+03</rscale>
<asrwt>0</asrwt>
<pdfrwt beam="2">  1        4 0.52450344E-01 0.12500011E+03</pdfrwt>
<pdfrwt beam="1">  1       -4 0.46547086E-02 0.12500011E+03</pdfrwt>
<totfact> 0.15243886E+03</totfact>
</mgrwt>
</event>
<event>
 5    1  0.1438401E-002  0.1249978E+03  0.7818608E-02  0.1235073E+00
         -4   -1    0    0    0  501 -0.00000000000E+00  0.00000000000E+00  0.72605722891E+02  0.72616829293E+02  0.12700000000E+01 0. -1.
          4   -1    0    0  501    0  0.00000000000E+00 -0.00000000000E+00 -0.53776262445E+02  0.53791256748E+02  0.12700000000E+01 0. -1.
         25    2    1    2    0    0  0.00000000000E+00  0.00000000000E+00  0.18829460446E+02  0.12640808604E+03  0.12499782252E+03 0.  0.
    9000005    1    3    3    0    0  0.18448301410E+02 -0.48133568927E+02 -0.26309933682E+02  0.57882578492E+02  0.10000000000E+01 0.  0.
    9000005    1    3    3    0    0 -0.18448301410E+02  0.48133568927E+02  0.45139394129E+02  0.68525507549E+02  0.10000000000E+01 0.  0.
<mgrwt>
<rscale>  0 0.12499782E+03</rscale>
<asrwt>0</asrwt>
<pdfrwt beam="2">  1        4 0.13447328E-01 0.12499782E+03</pdfrwt>
<pdfrwt beam="1">  1       -4 0.18154693E-01 0.12499782E+03</pdfrwt>
<totfact> 0.19759890E+03</totfact>
</mgrwt>
</event>
<event>
 5    1  0.1438401E-002  0.1250008E+03  0.7818608E-02  0.1235068E+00
         -4   -1    0    0    0  501 -0.00000000000E+00  0.00000000000E+00  0.10857401946E+03  0.10858144686E+03  0.12700000000E+01 0.  1.
          4   -1    0    0  501    0  0.00000000000E+00 -0.00000000000E+00 -0.35958337575E+02  0.35980757929E+02  0.12700000000E+01 0.  1.
         25    2    1    2    0    0  0.00000000000E+00  0.00000000000E+00  0.72615681884E+02  0.14456220479E+03  0.12500077519E+03 0.  0.
    9000005    1    3    3    0    0 -0.34662941017E+01 -0.52616951927E+02 -0.24775394084E+01  0.52798646066E+02  0.10000000000E+01 0.  0.
    9000005    1    3    3    0    0  0.34662941017E+01  0.52616951927E+02  0.75093221292E+02  0.91763558720E+02  0.10000000000E+01 0.  0.
<mgrwt>
<rscale>  0 0.12500078E+03</rscale>
<asrwt>0</asrwt>
<pdfrwt beam="2">  1        4 0.89933154E-02 0.12500078E+03</pdfrwt>
<pdfrwt beam="1">  1       -4 0.27147236E-01 0.12500078E+03</pdfrwt>
<totfact> 0.18808989E+03</totfact>
</mgrwt>
</event>
<event>
 4    1  0.1438401E-002  0.1251158E+03  0.7818608E-02  0.1234888E+00
          4   -1    0    0  501    0  0.00000000000E+00  0.00000000000E+00  0.10729172617E+03  0.10729924233E+03  0.12700000000E+01 0. -1.
         -4   -1    0    0    0  501 -0.00000000000E+00 -0.00000000000E+00 -0.36455356730E+02  0.36477471600E+02  0.12700000000E+01 0. -1.
    9000005    1    1    2    0    0 -0.40631672652E+02 -0.14228993609E+02 -0.16727013059E+02  0.46197294807E+02  0.10000000000E+01 0.  0.
    9000005    1    1    2    0    0  0.40631672652E+02  0.14228993609E+02  0.87563382500E+02  0.97579419124E+02  0.10000000000E+01 0.  0.
<mgrwt>
<rscale>  0 0.12511576E+03</rscale>
<asrwt>0</asrwt>
<pdfrwt beam="1">  1        4 0.26826635E-01 0.12511576E+03</pdfrwt>
<pdfrwt beam="2">  1       -4 0.91175431E-02 0.12511576E+03</pdfrwt>
<totfact> 0.18798009E+03</totfact>
</mgrwt>
</event>
<event>
 5    1  0.1438401E-002  0.1250041E+03  0.7818608E-02  0.1235063E+00
          4   -1    0    0  501    0  0.00000000000E+00  0.00000000000E+00  0.76533917991E+01  0.77580478234E+01  0.12700000000E+01 0. -1.
         -4   -1    0    0    0  501 -0.00000000000E+00 -0.00000000000E+00 -0.50685636167E+03  0.50685795275E+03  0.12700000000E+01 0. -1.
         25    2    1    2    0    0  0.00000000000E+00  0.00000000000E+00 -0.49920296987E+03  0.51461600057E+03  0.12500409160E+03 0.  0.
    9000005    1    3    3    0    0 -0.22037148276E+02  0.18176407810E+02 -0.20777094100E+02  0.35337025119E+02  0.10000000000E+01 0.  0.
    9000005    1    3    3    0    0  0.22037148276E+02 -0.18176407810E+02 -0.47842587577E+03  0.47927897545E+03  0.10000000000E+01 0.  0.
<mgrwt>
<rscale>  0 0.12500409E+03</rscale>
<asrwt>0</asrwt>
<pdfrwt beam="1">  1        4 0.19266306E-02 0.12500409E+03</pdfrwt>
<pdfrwt beam="2">  1       -4 0.12672726E+00 0.12500409E+03</pdfrwt>
<totfact> 0.85320180E+02</totfact>
</mgrwt>
</event>
<event>
 5    1  0.1438401E-002  0.1250015E+03  0.7818608E-02  0.1235067E+00
         -4   -1    0    0    0  501 -0.00000000000E+00  0.00000000000E+00  0.36664783660E+03  0.36665003611E+03  0.12700000000E+01 0.  1.
          4   -1    0    0  501    0  0.00000000000E+00 -0.00000000000E+00 -0.10614131024E+02  0.10689839914E+02  0.12700000000E+01 0.  1.
         25    2    1    2    0    0  0.00000000000E+00  0.00000000000E+00  0.35603370558E+03  0.37733987603E+03  0.12500153013E+03 0.  0.
    9000005    1    3    3    0    0  0.30558091595E+02 -0.42001648366E+02  0.28290943928E+03  0.28763985513E+03  0.10000000000E+01 0.  0.
    9000005    1    3    3    0    0 -0.30558091595E+02  0.42001648366E+02  0.73124266296E+02  0.89700020896E+02  0.10000000000E+01 0.  0.
<mgrwt>
<rscale>  0 0.12500153E+03</rscale>
<asrwt>0</asrwt>
<pdfrwt beam="2">  1        4 0.26632713E-02 0.12500153E+03</pdfrwt>
<pdfrwt beam="1">  1       -4 0.91671696E-01 0.12500153E+03</pdfrwt>
<totfact> 0.11050965E+03</totfact>
</mgrwt>
</event>
<event>
 5    1  0.1438401E-002  0.1249985E+03  0.7818608E-02  0.1235072E+00
          4   -1    0    0  501    0  0.00000000000E+00  0.00000000000E+00  0.42901031984E+03  0.42901219963E+03  0.12700000000E+01 0. -1.
         -4   -1    0    0    0  501 -0.00000000000E+00 -0.00000000000E+00 -0.90588483774E+01  0.91474386538E+01  0.12700000000E+01 0. -1.
         25    2    1    2    0    0  0.00000000000E+00  0.00000000000E+00  0.41995147147E+03  0.43815963828E+03  0.12499852093E+03 0.  0.
    9000005    1    3    3    0    0 -0.26142642678E+02 -0.44571839482E+02  0.86786306517E+02  0.10100965122E+03  0.10000000000E+01 0.  0.
    9000005    1    3    3    0    0  0.26142642678E+02  0.44571839482E+02  0.33316516495E+03  0.33714998706E+03  0.10000000000E+01 0.  0.
<mgrwt>
<rscale>  0 0.12499852E+03</rscale>
<asrwt>0</asrwt>
<pdfrwt beam="1">  1        4 0.10726388E+00 0.12499852E+03</pdfrwt>
<pdfrwt beam="2">  1       -4 0.22760211E-02 0.12499852E+03</pdfrwt>
<totfact> 0.98185615E+02</totfact>
</mgrwt>
</event>
<event>
 5    1  0.1438401E-002  0.1249901E+03  0.7818608E-02  0.1235085E+00
          4   -1    0    0  501    0  0.00000000000E+00  0.00000000000E+00  0.51482998405E+02  0.51498660417E+02  0.12700000000E+01 0. -1.
         -4   -1    0    0    0  501 -0.00000000000E+00 -0.00000000000E+00 -0.75830000389E+02  0.75840634616E+02  0.12700000000E+01 0. -1.
         25    2    1    2    0    0  0.00000000000E+00  0.00000000000E+00 -0.24347001984E+02  0.12733929503E+03  0.12499007782E+03 0.  0.
    9000005    1    3    3    0    0  0.18527520077E+01  0.38818896090E+01 -0.75683990588E+02  0.75812717853E+02  0.10000000000E+01 0.  0.
    9000005    1    3    3    0    0 -0.18527520077E+01 -0.38818896090E+01  0.51336988604E+02  0.51526577180E+02  0.10000000000E+01 0.  0.
<mgrwt>
<rscale>  0 0.12499008E+03</rscale>
<asrwt>0</asrwt>
<pdfrwt beam="1">  1        4 0.12874037E-01 0.12499008E+03</pdfrwt>
<pdfrwt beam="2">  1       -4 0.18960787E-01 0.12499008E+03</pdfrwt>
<totfact> 0.19713127E+03</totfact>
</mgrwt>
</event>
<event>
 5    1  0.1438401E-002  0.1249875E+03  0.7818608E-02  0.1235089E+00
          4   -1    0    0  501    0  0.00000000000E+00  0.00000000000E+00  0.12318816977E+03  0.12319471608E+03  0.12700000000E+01 0.  1.
         -4   -1    0    0    0  501 -0.00000000000E+00 -0.00000000000E+00 -0.31683162364E+02  0.31708605730E+02  0.12700000000E+01 0.  1.
         25    2    1    2    0    0  0.00000000000E+00  0.00000000000E+00  0.91505007405E+02  0.15490332181E+03  0.12498749029E+03 0.  0.
    9000005    1    3    3    0    0  0.53611773598E+02 -0.16963311389E+02  0.79523204036E+02  0.97400801751E+02  0.10000000000E+01 0.  0.
    9000005    1    3    3    0    0 -0.53611773598E+02  0.16963311389E+02  0.11981803368E+02  0.57502520062E+02  0.10000000000E+01 0.  0.
<mgrwt>
<rscale>  0 0.12498749E+03</rscale>
<asrwt>0</asrwt>
<pdfrwt beam="1">  1        4 0.30801041E-01 0.12498749E+03</pdfrwt>
<pdfrwt beam="2">  1       -4 0.79247895E-02 0.12498749E+03</pdfrwt>
<totfact> 0.18305608E+03</totfact>
</mgrwt>
</event>
<event>
 5    1  0.1438401E-002  0.1250010E+03  0.7818608E-02  0.1235068E+00
         -4   -1    0    0    0  501 -0.00000000000E+00  0.00000000000E+00  0.13531988377E+03  0.13532584322E+03  0.12700000000E+01 0. -1.
          4   -1    0    0  501    0  0.00000000000E+00 -0.00000000000E+00 -0.28846696135E+02  0.28874639009E+02  0.12700000000E+01 0. -1.
         25    2    1    2    0    0  0.00000000000E+00  0.00000000000E+00  0.10647318764E+03  0.16420048223E+03  0.12500103471E+03 0.  0.
    9000005    1    3    3    0    0  0.12114839139E+02 -0.27724371778E+02 -0.18590696413E+02  0.35524978691E+02  0.10000000000E+01 0.  0.
    9000005    1    3    3    0    0 -0.12114839139E+02  0.27724371778E+02  0.12506388405E+03  0.12867550354E+03  0.10000000000E+01 0.  0.
<mgrwt>
<rscale>  0 0.12500103E+03</rscale>
<asrwt>0</asrwt>
<pdfrwt beam="2">  1        4 0.72159120E-02 0.12500103E+03</pdfrwt>
<pdfrwt beam="1">  1       -4 0.33834208E-01 0.12500103E+03</pdfrwt>
<totfact> 0.17861418E+03</totfact>
</mgrwt>
</event>
<event>
 5    1  0.1438401E-002  0.1249990E+03  0.7818608E-02  0.1235071E+00
         -4   -1    0    0    0  501 -0.00000000000E+00  0.00000000000E+00  0.19494977511E+03  0.19495391177E+03  0.12700000000E+01 0.  1.
          4   -1    0    0  501    0  0.00000000000E+00 -0.00000000000E+00 -0.20012420100E+02  0.20052677084E+02  0.12700000000E+01 0.  1.
         25    2    1    2    0    0  0.00000000000E+00  0.00000000000E+00  0.17493735501E+03  0.21500658885E+03  0.12499902029E+03 0.  0.
    9000005    1    3    3    0    0 -0.21830459884E+02  0.58498333855E+02  0.83061571906E+02  0.10391750945E+03  0.10000000000E+01 0.  0.
    9000005    1    3    3    0    0  0.21830459884E+02 -0.58498333855E+02  0.91875783100E+02  0.11108907940E+03  0.10000000000E+01 0.  0.
<mgrwt>
<rscale>  0 0.12499902E+03</rscale>
<asrwt>0</asrwt>
<pdfrwt beam="2">  1        4 0.50086543E-02 0.12499902E+03</pdfrwt>
<pdfrwt beam="1">  1       -4 0.48742993E-01 0.12499902E+03</pdfrwt>
<totfact> 0.15738637E+03</totfact>
</mgrwt>
</event>
<event>
 5    1  0.1438401E-002  0.1250019E+03  0.7818608E-02  0.1235066E+00
          4   -1    0    0  501    0  0.00000000000E+00  0.00000000000E+00  0.50602186096E+02  0.50618120646E+02  0.12700000000E+01 0. -1.
         -4   -1    0    0    0  501 -0.00000000000E+00 -0.00000000000E+00 -0.77164359322E+02  0.77174809683E+02  0.12700000000E+01 0. -1.
         25    2    1    2    0    0  0.00000000000E+00  0.00000000000E+00 -0.26562173226E+02  0.12779293033E+03  0.12500193597E+03 0.  0.
    9000005    1    3    3    0    0  0.30623248851E+02  0.54340831508E+02 -0.17195634924E+02  0.64710116671E+02  0.10000000000E+01 0.  0.
    9000005    1    3    3    0    0 -0.30623248851E+02 -0.54340831508E+02 -0.93665383022E+01  0.63082813657E+02  0.10000000000E+01 0.  0.
<mgrwt>
<rscale>  0 0.12500194E+03</rscale>
<asrwt>0</asrwt>
<pdfrwt beam="1">  1        4 0.12653845E-01 0.12500194E+03</pdfrwt>
<pdfrwt beam="2">  1       -4 0.19294388E-01 0.12500194E+03</pdfrwt>
<totfact> 0.19682919E+03</totfact>
</mgrwt>
</event>
<event>
 5    1  0.1438401E-002  0.1250015E+03  0.7818608E-02  0.1235067E+00
          4   -1    0    0  501    0  0.00000000000E+00  0.00000000000E+00  0.56420178537E+03  0.56420321473E+03  0.12700000000E+01 0.  1.
         -4   -1    0    0    0  501 -0.00000000000E+00 -0.00000000000E+00 -0.68639791820E+01  0.69804806576E+01  0.12700000000E+01 0.  1.
         25    2    1    2    0    0  0.00000000000E+00  0.00000000000E+00  0.55733780618E+03  0.57118369539E+03  0.12500153468E+03 0.  0.
    9000005    1    3    3    0    0  0.26110876333E+02 -0.56306011222E+02  0.24534000232E+03  0.25307086261E+03  0.10000000000E+01 0.  0.
    9000005    1    3    3    0    0 -0.26110876333E+02  0.56306011222E+02  0.31199780386E+03  0.31811283278E+03  0.10000000000E+01 0.  0.
<mgrwt>
<rscale>  0 0.12500153E+03</rscale>
<asrwt>0</asrwt>
<pdfrwt beam="1">  1        4 0.14106517E+00 0.12500153E+03</pdfrwt>
<pdfrwt beam="2">  1       -4 0.17307364E-02 0.12500153E+03</pdfrwt>
<totfact> 0.77249903E+02</totfact>
</mgrwt>
</event>
<event>
 5    1  0.1438401E-002  0.1250006E+03  0.7818608E-02  0.1235068E+00
          4   -1    0    0  501    0  0.00000000000E+00  0.00000000000E+00  0.30927707125E+03  0.30927967877E+03  0.12700000000E+01 0. -1.
         -4   -1    0    0    0  501 -0.00000000000E+00 -0.00000000000E+00 -0.12595785727E+02  0.12659649208E+02  0.12700000000E+01 0. -1.
         25    2    1    2    0    0  0.00000000000E+00  0.00000000000E+00  0.29668128552E+03  0.32193932798E+03  0.12500058288E+03 0.  0.
    9000005    1    3    3    0    0 -0.11690804326E+02 -0.60790702958E+02  0.12632017701E+03  0.14067683389E+03  0.10000000000E+01 0.  0.
    9000005    1    3    3    0    0  0.11690804326E+02  0.60790702958E+02  0.17036110851E+03  0.18126249409E+03  0.10000000000E+01 0.  0.
<mgrwt>
<rscale>  0 0.12500058E+03</rscale>
<asrwt>0</asrwt>
<pdfrwt beam="1">  1        4 0.77327574E-01 0.12500058E+03</pdfrwt>
<pdfrwt beam="2">  1       -4 0.31572554E-02 0.12500058E+03</pdfrwt>
<totfact> 0.12377538E+03</totfact>
</mgrwt>
</event>
<event>
 5    1  0.1438401E-002  0.1249971E+03  0.7818608E-02  0.1235074E+00
         -4   -1    0    0    0  501 -0.00000000000E+00  0.00000000000E+00  0.12225934649E+03  0.12226594253E+03  0.12700000000E+01 0.  1.
          4   -1    0    0  501    0  0.00000000000E+00 -0.00000000000E+00 -0.31928943424E+02  0.31954191089E+02  0.12700000000E+01 0.  1.
         25    2    1    2    0    0  0.00000000000E+00  0.00000000000E+00  0.90330403063E+02  0.15422013362E+03  0.12499707155E+03 0.  0.
    9000005    1    3    3    0    0  0.48826831692E+02 -0.35661762259E+02  0.64643701278E+02  0.88519087746E+02  0.10000000000E+01 0.  0.
    9000005    1    3    3    0    0 -0.48826831692E+02  0.35661762259E+02  0.25686701786E+02  0.65701045876E+02  0.10000000000E+01 0.  0.
<mgrwt>
<rscale>  0 0.12499707E+03</rscale>
<asrwt>0</asrwt>
<pdfrwt beam="2">  1        4 0.79862164E-02 0.12499707E+03</pdfrwt>
<pdfrwt beam="1">  1       -4 0.30568817E-01 0.12499707E+03</pdfrwt>
<totfact> 0.18334453E+03</totfact>
</mgrwt>
</event>
<event>
 5    1  0.1438401E-002  0.1249958E+03  0.7818608E-02  0.1235076E+00
          4   -1    0    0  501    0  0.00000000000E+00  0.00000000000E+00  0.42669001511E+02  0.42687897465E+02  0.12700000000E+01 0.  1.
         -4   -1    0    0    0  501 -0.00000000000E+00 -0.00000000000E+00 -0.91497955538E+02  0.91506768972E+02  0.12700000000E+01 0.  1.
         25    2    1    2    0    0  0.00000000000E+00  0.00000000000E+00 -0.48828954027E+02  0.13419466644E+03  0.12499576692E+03 0.  0.
    9000005    1    3    3    0    0 -0.45853907849E+02 -0.35142033075E+02  0.11596442632E+01  0.57791765231E+02  0.10000000000E+01 0.  0.
    9000005    1    3    3    0    0  0.45853907849E+02  0.35142033075E+02 -0.49988598290E+02  0.76402901206E+02  0.10000000000E+01 0.  0.
<mgrwt>
<rscale>  0 0.12499577E+03</rscale>
<asrwt>0</asrwt>
<pdfrwt beam="1">  1        4 0.10670714E-01 0.12499577E+03</pdfrwt>
<pdfrwt beam="2">  1       -4 0.22877952E-01 0.12499577E+03</pdfrwt>
<totfact> 0.19343313E+03</totfact>
</mgrwt>
</event>
<event>
 5    1  0.1438401E-002  0.1249997E+03  0.7818608E-02  0.1235070E+00
          4   -1    0    0  501    0  0.00000000000E+00  0.00000000000E+00  0.13541703731E+02  0.13601126422E+02  0.12700000000E+01 0.  1.
         -4   -1    0    0    0  501 -0.00000000000E+00 -0.00000000000E+00 -0.28776699364E+03  0.28776979607E+03  0.12700000000E+01 0.  1.
         25    2    1    2    0    0  0.00000000000E+00  0.00000000000E+00 -0.27422528991E+03  0.30137092249E+03  0.12499969318E+03 0.  0.
    9000005    1    3    3    0    0  0.29279089378E+02  0.40507401877E+02 -0.46673307292E+02  0.68392340910E+02  0.10000000000E+01 0.  0.
    9000005    1    3    3    0    0 -0.29279089378E+02 -0.40507401877E+02 -0.22755198262E+03  0.23297858158E+03  0.10000000000E+01 0.  0.
<mgrwt>
<rscale>  0 0.12499969E+03</rscale>
<asrwt>0</asrwt>
<pdfrwt beam="1">  1        4 0.33932050E-02 0.12499969E+03</pdfrwt>
<pdfrwt beam="2">  1       -4 0.71949507E-01 0.12499969E+03</pdfrwt>
<totfact> 0.12932813E+03</totfact>
</mgrwt>
</event>
<event>
 5    1  0.1438401E-002  0.1250026E+03  0.7818608E-02  0.1235065E+00
          4   -1    0    0  501    0  0.00000000000E+00  0.00000000000E+00  0.69230158969E+02  0.69241806814E+02  0.12700000000E+01 0. -1.
         -4   -1    0    0    0  501 -0.00000000000E+00 -0.00000000000E+00 -0.56402888943E+02  0.56417185158E+02  0.12700000000E+01 0. -1.
         25    2    1    2    0    0  0.00000000000E+00  0.00000000000E+00  0.12827270026E+02  0.12565899197E+03  0.12500257360E+03 0.  0.
    9000005    1    3    3    0    0 -0.42143264636E+02 -0.46135380781E+02  0.73581099787E+01  0.62925907991E+02  0.10000000000E+01 0.  0.
    9000005    1    3    3    0    0  0.42143264636E+02  0.46135380781E+02  0.54691600469E+01  0.62733083980E+02  0.10000000000E+01 0.  0.
<mgrwt>
<rscale>  0 0.12500257E+03</rscale>
<asrwt>0</asrwt>
<pdfrwt beam="1">  1        4 0.17310783E-01 0.12500257E+03</pdfrwt>
<pdfrwt beam="2">  1       -4 0.14103965E-01 0.12500257E+03</pdfrwt>
<totfact> 0.19798167E+03</totfact>
</mgrwt>
</event>
<event>
 5    1  0.1438401E-002  0.1249927E+03  0.7818608E-02  0.1235081E+00
         -4   -1    0    0    0  501 -0.00000000000E+00  0.00000000000E+00  0.15479043458E+03  0.15479564444E+03  0.12700000000E+01 0.  1.
          4   -1    0    0  501    0  0.00000000000E+00 -0.00000000000E+00 -0.25211159512E+02  0.25243127063E+02  0.12700000000E+01 0.  1.
         25    2    1    2    0    0  0.00000000000E+00  0.00000000000E+00  0.12957927507E+03  0.18003877150E+03  0.12499268266E+03 0.  0.
    9000005    1    3    3    0    0  0.49440943333E+02 -0.31868776170E+02  0.34412441439E+02  0.68156011459E+02  0.10000000000E+01 0.  0.
    9000005    1    3    3    0    0 -0.49440943333E+02  0.31868776170E+02  0.95166833630E+02  0.11188276005E+03  0.10000000000E+01 0.  0.
<mgrwt>
<rscale>  0 0.12499268E+03</rscale>
<asrwt>0</asrwt>
<pdfrwt beam="2">  1        4 0.63074371E-02 0.12499268E+03</pdfrwt>
<pdfrwt beam="1">  1       -4 0.38702255E-01 0.12499268E+03</pdfrwt>
<totfact> 0.17156446E+03</totfact>
</mgrwt>
</event>
<event>
 5    1  0.1438401E-002  0.1249985E+03  0.7818608E-02  0.1235072E+00
          4   -1    0    0  501    0  0.00000000000E+00  0.00000000000E+00  0.18896963265E+02  0.18939591354E+02  0.12700000000E+01 0. -1.
         -4   -1    0    0    0  501 -0.00000000000E+00 -0.00000000000E+00 -0.20643060331E+03  0.20643450992E+03  0.12700000000E+01 0. -1.
         25    2    1    2    0    0  0.00000000000E+00  0.00000000000E+00 -0.18753364005E+03  0.22537410127E+03  0.12499847748E+03 0.  0.
    9000005    1    3    3    0    0 -0.37825982890E+02  0.14127995319E+02 -0.77732291638E+01  0.41131840768E+02  0.10000000000E+01 0.  0.
    9000005    1    3    3    0    0  0.37825982890E+02 -0.14127995319E+02 -0.17976041088E+03  0.18424226050E+03  0.10000000000E+01 0.  0.
<mgrwt>
<rscale>  0 0.12499848E+03</rscale>
<asrwt>0</asrwt>
<pdfrwt beam="1">  1        4 0.47300583E-02 0.12499848E+03</pdfrwt>
<pdfrwt beam="2">  1       -4 0.51613461E-01 0.12499848E+03</pdfrwt>
<totfact> 0.15354566E+03</totfact>
</mgrwt>
</event>
<event>
 5    1  0.1438401E-002  0.1250062E+03  0.7818608E-02  0.1235060E+00
          4   -1    0    0  501    0  0.00000000000E+00  0.00000000000E+00  0.16362479467E+02  0.16411692001E+02  0.12700000000E+01 0.  1.
         -4   -1    0    0    0  501 -0.00000000000E+00 -0.00000000000E+00 -0.23834650640E+03  0.23834988989E+03  0.12700000000E+01 0.  1.
         25    2    1    2    0    0  0.00000000000E+00  0.00000000000E+00 -0.22198402693E+03  0.25476158189E+03  0.12500622143E+03 0.  0.
    9000005    1    3    3    0    0 -0.37870193321E+02 -0.48252394016E+02 -0.13537935069E+03  0.14863046008E+03  0.10000000000E+01 0.  0.
    9000005    1    3    3    0    0  0.37870193321E+02  0.48252394016E+02 -0.86604676235E+02  0.10613112181E+03  0.10000000000E+01 0.  0.
<mgrwt>
<rscale>  0 0.12500622E+03</rscale>
<asrwt>0</asrwt>
<pdfrwt beam="1">  1        4 0.40971951E-02 0.12500622E+03</pdfrwt>
<pdfrwt beam="2">  1       -4 0.59593190E-01 0.12500622E+03</pdfrwt>
<totfact> 0.14338871E+03</totfact>
</mgrwt>
</event>
<event>
 5    1  0.1438401E-002  0.1250112E+03  0.7818608E-02  0.1235052E+00
         -4   -1    0    0    0  501 -0.00000000000E+00  0.00000000000E+00  0.26844551655E+02  0.26874576342E+02  0.12700000000E+01 0. -1.
          4   -1    0    0  501    0  0.00000000000E+00 -0.00000000000E+00 -0.14542559497E+03  0.14543114031E+03  0.12700000000E+01 0. -1.
         25    2    1    2    0    0  0.00000000000E+00  0.00000000000E+00 -0.11858104331E+03  0.17230571665E+03  0.12501118413E+03 0.  0.
    9000005    1    3    3    0    0  0.49331699346E+02  0.28806594369E+02 -0.24353036405E+02  0.62108830464E+02  0.10000000000E+01 0.  0.
    9000005    1    3    3    0    0 -0.49331699346E+02 -0.28806594369E+02 -0.94228006906E+02  0.11019688619E+03  0.10000000000E+01 0.  0.
<mgrwt>
<rscale>  0 0.12501118E+03</rscale>
<asrwt>0</asrwt>
<pdfrwt beam="2">  1        4 0.36360843E-01 0.12501118E+03</pdfrwt>
<pdfrwt beam="1">  1       -4 0.67155846E-02 0.12501118E+03</pdfrwt>
<totfact> 0.17489009E+03</totfact>
</mgrwt>
</event>
<event>
 5    1  0.1438401E-002  0.1250021E+03  0.7818608E-02  0.1235066E+00
         -4   -1    0    0    0  501 -0.00000000000E+00  0.00000000000E+00  0.44419474530E+03  0.44419656083E+03  0.12700000000E+01 0. -1.
          4   -1    0    0  501    0  0.00000000000E+00 -0.00000000000E+00 -0.87466019534E+01  0.88383225632E+01  0.12700000000E+01 0. -1.
         25    2    1    2    0    0  0.00000000000E+00  0.00000000000E+00  0.43544814335E+03  0.45303488339E+03  0.12500208009E+03 0.  0.
    9000005    1    3    3    0    0 -0.26278826254E+02  0.45840020188E+02  0.33866093614E+03  0.34275955687E+03  0.10000000000E+01 0.  0.
    9000005    1    3    3    0    0  0.26278826254E+02 -0.45840020188E+02  0.96787207205E+02  0.11027532652E+03  0.10000000000E+01 0.  0.
<mgrwt>
<rscale>  0 0.12500208E+03</rscale>
<asrwt>0</asrwt>
<pdfrwt beam="2">  1        4 0.21983428E-02 0.12500208E+03</pdfrwt>
<pdfrwt beam="1">  1       -4 0.11106036E+00 0.12500208E+03</pdfrwt>
<totfact> 0.95470119E+02</totfact>
</mgrwt>
</event>
<event>
 5    1  0.1438401E-002  0.1249963E+03  0.7818608E-02  0.1235075E+00
         -4   -1    0    0    0  501 -0.00000000000E+00  0.00000000000E+00  0.11564772712E+02  0.11634297052E+02  0.12700000000E+01 0. -1.
          4   -1    0    0  501    0  0.00000000000E+00 -0.00000000000E+00 -0.33666865920E+03  0.33667105457E+03  0.12700000000E+01 0. -1.
         25    2    1    2    0    0  0.00000000000E+00  0.00000000000E+00 -0.32510388649E+03  0.34830535163E+03  0.12499632379E+03 0.  0.
    9000005    1    3    3    0    0  0.14911612406E+01  0.61475439962E+02 -0.13157674547E+03  0.14524081116E+03  0.10000000000E+01 0.  0.
    9000005    1    3    3    0    0 -0.14911612406E+01 -0.61475439962E+02 -0.19352714102E+03  0.20306454046E+03  0.10000000000E+01 0.  0.
<mgrwt>
<rscale>  0 0.12499632E+03</rscale>
<asrwt>0</asrwt>
<pdfrwt beam="2">  1        4 0.84176122E-01 0.12499632E+03</pdfrwt>
<pdfrwt beam="1">  1       -4 0.29001843E-02 0.12499632E+03</pdfrwt>
<totfact> 0.11718831E+03</totfact>
</mgrwt>
</event>
<event>
 5    1  0.1438401E-002  0.1249786E+03  0.7818608E-02  0.1235103E+00
         -4   -1    0    0    0  501 -0.00000000000E+00  0.00000000000E+00  0.11454532849E+02  0.11524722244E+02  0.12700000000E+01 0.  1.
          4   -1    0    0  501    0  0.00000000000E+00 -0.00000000000E+00 -0.33979271577E+03  0.33979508912E+03  0.12700000000E+01 0.  1.
         25    2    1    2    0    0  0.00000000000E+00  0.00000000000E+00 -0.32833818292E+03  0.35131981136E+03  0.12497858814E+03 0.  0.
    9000005    1    3    3    0    0 -0.43039334391E+02 -0.16609390248E+02 -0.45715997314E+02  0.64955435182E+02  0.10000000000E+01 0.  0.
    9000005    1    3    3    0    0  0.43039334391E+02  0.16609390248E+02 -0.28262218561E+03  0.28636437618E+03  0.10000000000E+01 0.  0.
<mgrwt>
<rscale>  0 0.12497859E+03</rscale>
<asrwt>0</asrwt>
<pdfrwt beam="2">  1        4 0.84957216E-01 0.12497859E+03</pdfrwt>
<pdfrwt beam="1">  1       -4 0.28727047E-02 0.12497859E+03</pdfrwt>
<totfact> 0.11651602E+03</totfact>
</mgrwt>
</event>
<event>
 5    1  0.1438401E-002  0.1249982E+03  0.7818608E-02  0.1235072E+00
         -4   -1    0    0    0  501 -0.00000000000E+00  0.00000000000E+00  0.79980855636E+01  0.80982882563E+01  0.12700000000E+01 0. -1.
          4   -1    0    0  501    0  0.00000000000E+00 -0.00000000000E+00 -0.48524268818E+03  0.48524435013E+03  0.12700000000E+01 0. -1.
         25    2    1    2    0    0  0.00000000000E+00  0.00000000000E+00 -0.47724460261E+03  0.49334263838E+03  0.12499819248E+03 0.  0.
    9000005    1    3    3    0    0  0.18853773390E+02  0.59517771630E+02 -0.22795344094E+03  0.23635058948E+03  0.10000000000E+01 0.  0.
    9000005    1    3    3    0    0 -0.18853773390E+02 -0.59517771630E+02 -0.24929116167E+03  0.25699204890E+03  0.10000000000E+01 0.  0.
<mgrwt>
<rscale>  0 0.12499819E+03</rscale>
<asrwt>0</asrwt>
<pdfrwt beam="2">  1        4 0.12132331E+00 0.12499819E+03</pdfrwt>
<pdfrwt beam="1">  1       -4 0.20122561E-02 0.12499819E+03</pdfrwt>
<totfact> 0.88679070E+02</totfact>
</mgrwt>
</event>
<event>
 4    1  0.1438401E-002  0.1249294E+03  0.7818608E-02  0.1235180E+00
          4   -1    0    0  501    0  0.00000000000E+00  0.00000000000E+00  0.19960993233E+03  0.19961397242E+03  0.12700000000E+01 0. -1.
         -4   -1    0    0    0  501 -0.00000000000E+00 -0.00000000000E+00 -0.19522461439E+02  0.19563726655E+02  0.12700000000E+01 0. -1.
    9000005    1    1    2    0    0 -0.97506517298E+01  0.33996631701E+02 -0.27006410714E+00  0.35382468976E+02  0.10000000000E+01 0.  0.
    9000005    1    1    2    0    0  0.97506517298E+01 -0.33996631701E+02  0.18035753500E+03  0.18379523010E+03  0.10000000000E+01 0.  0.
<mgrwt>
<rscale>  0 0.12492945E+03</rscale>
<asrwt>0</asrwt>
<pdfrwt beam="1">  1        4 0.49908146E-01 0.12492945E+03</pdfrwt>
<pdfrwt beam="2">  1       -4 0.48862785E-02 0.12492945E+03</pdfrwt>
<totfact> 0.15607280E+03</totfact>
</mgrwt>
</event>
<event>
 5    1  0.1438401E-002  0.1250110E+03  0.7818608E-02  0.1235052E+00
         -4   -1    0    0    0  501 -0.00000000000E+00  0.00000000000E+00  0.22683940706E+01  0.25997137650E+01  0.12700000000E+01 0. -1.
          4   -1    0    0  501    0  0.00000000000E+00 -0.00000000000E+00 -0.16047833456E+04  0.16047838482E+04  0.12700000000E+01 0. -1.
         25    2    1    2    0    0  0.00000000000E+00  0.00000000000E+00 -0.16025149516E+04  0.16073835619E+04  0.12501098020E+03 0.  0.
    9000005    1    3    3    0    0 -0.13325435306E+02 -0.59861849585E+02 -0.95604913598E+03  0.95801459210E+03  0.10000000000E+01 0.  0.
    9000005    1    3    3    0    0  0.13325435306E+02  0.59861849585E+02 -0.64646581559E+03  0.64936896984E+03  0.10000000000E+01 0.  0.
<mgrwt>
<rscale>  0 0.12501098E+03</rscale>
<asrwt>0</asrwt>
<pdfrwt beam="2">  1        4 0.40123368E+00 0.12501098E+03</pdfrwt>
<pdfrwt beam="1">  1       -4 0.60858180E-03 0.12501098E+03</pdfrwt>
<totfact> 0.93013275E+01</totfact>
</mgrwt>
</event>
<event>
 5    1  0.1438401E-002  0.1249962E+03  0.7818608E-02  0.1235075E+00
          4   -1    0    0  501    0  0.00000000000E+00  0.00000000000E+00  0.12223693249E+03  0.12224352974E+03  0.12700000000E+01 0.  1.
         -4   -1    0    0    0  501 -0.00000000000E+00 -0.00000000000E+00 -0.31934342776E+02  0.31959586176E+02  0.12700000000E+01 0.  1.
         25    2    1    2    0    0  0.00000000000E+00  0.00000000000E+00  0.90302589713E+02  0.15420311592E+03  0.12499617294E+03 0.  0.
    9000005    1    3    3    0    0  0.32852273630E+02 -0.50537406814E+02  0.65486511281E+02  0.89010024884E+02  0.10000000000E+01 0.  0.
    9000005    1    3    3    0    0 -0.32852273630E+02  0.50537406814E+02  0.24816078433E+02  0.65193091036E+02  0.10000000000E+01 0.  0.
<mgrwt>
<rscale>  0 0.12499617E+03</rscale>
<asrwt>0</asrwt>
<pdfrwt beam="1">  1        4 0.30563213E-01 0.12499617E+03</pdfrwt>
<pdfrwt beam="2">  1       -4 0.79875659E-02 0.12499617E+03</pdfrwt>
<totfact> 0.18335658E+03</totfact>
</mgrwt>
</event>
<event>
 5    1  0.1438401E-002  0.1249988E+03  0.7818608E-02  0.1235071E+00
          4   -1    0    0  501    0  0.00000000000E+00  0.00000000000E+00  0.31113834143E+03  0.31114093335E+03  0.12700000000E+01 0. -1.
         -4   -1    0    0    0  501 -0.00000000000E+00 -0.00000000000E+00 -0.12519702952E+02  0.12583952559E+02  0.12700000000E+01 0. -1.
         25    2    1    2    0    0  0.00000000000E+00  0.00000000000E+00  0.29861863848E+03  0.32372488591E+03  0.12499884204E+03 0.  0.
    9000005    1    3    3    0    0 -0.16248577181E+02 -0.93768519782E+01  0.30368615120E+03  0.30426669230E+03  0.10000000000E+01 0.  0.
    9000005    1    3    3    0    0  0.16248577181E+02  0.93768519782E+01 -0.50675127210E+01  0.19458193611E+02  0.10000000000E+01 0.  0.
<mgrwt>
<rscale>  0 0.12499884E+03</rscale>
<asrwt>0</asrwt>
<pdfrwt beam="1">  1        4 0.77792936E-01 0.12499884E+03</pdfrwt>
<pdfrwt beam="2">  1       -4 0.31382811E-02 0.12499884E+03</pdfrwt>
<totfact> 0.12331567E+03</totfact>
</mgrwt>
</event>
<event>
 5    1  0.1438401E-002  0.1249999E+03  0.7818608E-02  0.1235069E+00
         -4   -1    0    0    0  501 -0.00000000000E+00  0.00000000000E+00  0.25886804651E+02  0.25917938865E+02  0.12700000000E+01 0.  1.
          4   -1    0    0  501    0  0.00000000000E+00 -0.00000000000E+00 -0.15077254698E+03  0.15077789567E+03  0.12700000000E+01 0.  1.
         25    2    1    2    0    0  0.00000000000E+00  0.00000000000E+00 -0.12488574233E+03  0.17669583454E+03  0.12499987722E+03 0.  0.
    9000005    1    3    3    0    0  0.60659879942E+02 -0.12003679242E+02 -0.49678971737E+02  0.79326600726E+02  0.10000000000E+01 0.  0.
    9000005    1    3    3    0    0 -0.60659879942E+02  0.12003679242E+02 -0.75206770593E+02  0.97369233811E+02  0.10000000000E+01 0.  0.
<mgrwt>
<rscale>  0 0.12499988E+03</rscale>
<asrwt>0</asrwt>
<pdfrwt beam="2">  1        4 0.37697695E-01 0.12499988E+03</pdfrwt>
<pdfrwt beam="1">  1       -4 0.64762619E-02 0.12499988E+03</pdfrwt>
<totfact> 0.17299247E+03</totfact>
</mgrwt>
</event>
<event>
 5    1  0.1438401E-002  0.1249993E+03  0.7818608E-02  0.1235070E+00
          4   -1    0    0  501    0  0.00000000000E+00  0.00000000000E+00  0.71148047272E+02  0.71159381185E+02  0.12700000000E+01 0. -1.
         -4   -1    0    0    0  501 -0.00000000000E+00 -0.00000000000E+00 -0.54879413678E+02  0.54894106657E+02  0.12700000000E+01 0. -1.
         25    2    1    2    0    0  0.00000000000E+00  0.00000000000E+00  0.16268633594E+02  0.12605348784E+03  0.12499925343E+03 0.  0.
    9000005    1    3    3    0    0  0.42610316247E+02  0.45049159393E+02  0.31407413327E+00  0.62017452828E+02  0.10000000000E+01 0.  0.
    9000005    1    3    3    0    0 -0.42610316247E+02 -0.45049159393E+02  0.15954559461E+02  0.64036035014E+02  0.10000000000E+01 0.  0.
<mgrwt>
<rscale>  0 0.12499925E+03</rscale>
<asrwt>0</asrwt>
<pdfrwt beam="1">  1        4 0.17790265E-01 0.12499925E+03</pdfrwt>
<pdfrwt beam="2">  1       -4 0.13723107E-01 0.12499925E+03</pdfrwt>
<totfact> 0.19778375E+03</totfact>
</mgrwt>
</event>
<event>
 5    1  0.1438401E-002  0.1249999E+03  0.7818608E-02  0.1235069E+00
          4   -1    0    0  501    0  0.00000000000E+00  0.00000000000E+00  0.26446139363E+02  0.26476615856E+02  0.12700000000E+01 0. -1.
         -4   -1    0    0    0  501 -0.00000000000E+00 -0.00000000000E+00 -0.14758745754E+03  0.14759292166E+03  0.12700000000E+01 0. -1.
         25    2    1    2    0    0  0.00000000000E+00  0.00000000000E+00 -0.12114131818E+03  0.17406953751E+03  0.12499993968E+03 0.  0.
    9000005    1    3    3    0    0 -0.60464369460E+01 -0.38257014142E+02 -0.12886401127E+03  0.13456259484E+03  0.10000000000E+01 0.  0.
    9000005    1    3    3    0    0  0.60464369460E+01  0.38257014142E+02  0.77226930884E+01  0.39506942672E+02  0.10000000000E+01 0.  0.
<mgrwt>
<rscale>  0 0.12499994E+03</rscale>
<asrwt>0</asrwt>
<pdfrwt beam="1">  1        4 0.66160278E-02 0.12499994E+03</pdfrwt>
<pdfrwt beam="2">  1       -4 0.36901355E-01 0.12499994E+03</pdfrwt>
<totfact> 0.17415065E+03</totfact>
</mgrwt>
</event>
<event>
 5    1  0.1438401E-002  0.1250043E+03  0.7818608E-02  0.1235063E+00
          4   -1    0    0  501    0  0.00000000000E+00  0.00000000000E+00  0.26602892146E+03  0.26603195288E+03  0.12700000000E+01 0.  1.
         -4   -1    0    0    0  501 -0.00000000000E+00 -0.00000000000E+00 -0.14653982236E+02  0.14708912107E+02  0.12700000000E+01 0.  1.
         25    2    1    2    0    0  0.00000000000E+00  0.00000000000E+00  0.25137493923E+03  0.28074086499E+03  0.12500429274E+03 0.  0.
    9000005    1    3    3    0    0 -0.16722419193E+02 -0.14226183820E+02 -0.57186333294E+01  0.22709609791E+02  0.10000000000E+01 0.  0.
    9000005    1    3    3    0    0  0.16722419193E+02  0.14226183820E+02  0.25709357255E+03  0.25803125520E+03  0.10000000000E+01 0.  0.
<mgrwt>
<rscale>  0 0.12500429E+03</rscale>
<asrwt>0</asrwt>
<pdfrwt beam="1">  1        4 0.66514479E-01 0.12500429E+03</pdfrwt>
<pdfrwt beam="2">  1       -4 0.36707406E-02 0.12500429E+03</pdfrwt>
<totfact> 0.13527197E+03</totfact>
</mgrwt>
</event>
<event>
 5    1  0.1438401E-002  0.1250042E+03  0.7818608E-02  0.1235063E+00
         -4   -1    0    0    0  501 -0.00000000000E+00  0.00000000000E+00  0.22047893172E+02  0.22084440072E+02  0.12700000000E+01 0.  1.
          4   -1    0    0  501    0  0.00000000000E+00 -0.00000000000E+00 -0.17699753203E+03  0.17700208825E+03  0.12700000000E+01 0.  1.
         25    2    1    2    0    0  0.00000000000E+00  0.00000000000E+00 -0.15494963886E+03  0.19908652832E+03  0.12500422064E+03 0.  0.
    9000005    1    3    3    0    0 -0.51313798981E+02 -0.31143036538E+02 -0.49773937313E+02  0.77983584980E+02  0.10000000000E+01 0.  0.
    9000005    1    3    3    0    0  0.51313798981E+02  0.31143036538E+02 -0.10517570155E+03  0.12110294334E+03  0.10000000000E+01 0.  0.
<mgrwt>
<rscale>  0 0.12500422E+03</rscale>
<asrwt>0</asrwt>
<pdfrwt beam="2">  1        4 0.44254517E-01 0.12500422E+03</pdfrwt>
<pdfrwt beam="1">  1       -4 0.55171117E-02 0.12500422E+03</pdfrwt>
<totfact> 0.16357087E+03</totfact>
</mgrwt>
</event>
<event>
 5    1  0.1438401E-002  0.1249972E+03  0.7818608E-02  0.1235074E+00
         -4   -1    0    0    0  501 -0.00000000000E+00  0.00000000000E+00  0.13796661151E+02  0.13854990397E+02  0.12700000000E+01 0.  1.
          4   -1    0    0  501    0  0.00000000000E+00 -0.00000000000E+00 -0.28246043449E+03  0.28246328957E+03  0.12700000000E+01 0.  1.
         25    2    1    2    0    0  0.00000000000E+00  0.00000000000E+00 -0.26866377334E+03  0.29631827996E+03  0.12499719971E+03 0.  0.
    9000005    1    3    3    0    0 -0.30738932116E+02  0.45271449714E+02 -0.62792835381E+02  0.83296616270E+02  0.10000000000E+01 0.  0.
    9000005    1    3    3    0    0  0.30738932116E+02 -0.45271449714E+02 -0.20587093796E+03  0.21302166369E+03  0.10000000000E+01 0.  0.
<mgrwt>
<rscale>  0 0.12499720E+03</rscale>
<asrwt>0</asrwt>
<pdfrwt beam="2">  1        4 0.70622738E-01 0.12499720E+03</pdfrwt>
<pdfrwt beam="1">  1       -4 0.34568142E-02 0.12499720E+03</pdfrwt>
<totfact> 0.13075715E+03</totfact>
</mgrwt>
</event>
<event>
 5    1  0.1438401E-002  0.1249956E+03  0.7818608E-02  0.1235076E+00
          4   -1    0    0  501    0  0.00000000000E+00  0.00000000000E+00  0.17336479205E+02  0.17382934482E+02  0.12700000000E+01 0.  1.
         -4   -1    0    0    0  501 -0.00000000000E+00 -0.00000000000E+00 -0.22495424972E+03  0.22495783464E+03  0.12700000000E+01 0.  1.
         25    2    1    2    0    0  0.00000000000E+00  0.00000000000E+00 -0.20761777052E+03  0.24234076913E+03  0.12499563891E+03 0.  0.
    9000005    1    3    3    0    0  0.77975731041E+01 -0.55984081732E+02 -0.52149656993E+02  0.76912978607E+02  0.10000000000E+01 0.  0.
    9000005    1    3    3    0    0 -0.77975731041E+01  0.55984081732E+02 -0.15546811352E+03  0.16542779052E+03  0.10000000000E+01 0.  0.
<mgrwt>
<rscale>  0 0.12499564E+03</rscale>
<asrwt>0</asrwt>
<pdfrwt beam="1">  1        4 0.43403755E-02 0.12499564E+03</pdfrwt>
<pdfrwt beam="2">  1       -4 0.56244808E-01 0.12499564E+03</pdfrwt>
<totfact> 0.14757631E+03</totfact>
</mgrwt>
</event>
<event>
 5    1  0.1438401E-002  0.1250016E+03  0.7818608E-02  0.1235067E+00
         -4   -1    0    0    0  501 -0.00000000000E+00  0.00000000000E+00  0.88685306927E+02  0.88694399850E+02  0.12700000000E+01 0.  1.
          4   -1    0    0  501    0  0.00000000000E+00 -0.00000000000E+00 -0.44026799143E+02  0.44045112586E+02  0.12700000000E+01 0.  1.
         25    2    1    2    0    0  0.00000000000E+00  0.00000000000E+00  0.44658507784E+02  0.13273951244E+03  0.12500158337E+03 0.  0.
    9000005    1    3    3    0    0 -0.63011996578E+01  0.18845039790E+01  0.88321975418E+02  0.88572161620E+02  0.10000000000E+01 0.  0.
    9000005    1    3    3    0    0  0.63011996578E+01 -0.18845039790E+01 -0.43663467633E+02  0.44167350816E+02  0.10000000000E+01 0.  0.
<mgrwt>
<rscale>  0 0.12500158E+03</rscale>
<asrwt>0</asrwt>
<pdfrwt beam="2">  1        4 0.11010126E-01 0.12500158E+03</pdfrwt>
<pdfrwt beam="1">  1       -4 0.22174752E-01 0.12500158E+03</pdfrwt>
<totfact> 0.19417487E+03</totfact>
</mgrwt>
</event>
<event>
 5    1  0.1438401E-002  0.1250014E+03  0.7818608E-02  0.1235067E+00
         -4   -1    0    0    0  501 -0.00000000000E+00  0.00000000000E+00  0.99301311550E+01  0.10011014172E+02  0.12700000000E+01 0.  1.
          4   -1    0    0  501    0  0.00000000000E+00 -0.00000000000E+00 -0.39170448400E+03  0.39170654282E+03  0.12700000000E+01 0.  1.
         25    2    1    2    0    0  0.00000000000E+00  0.00000000000E+00 -0.38177435285E+03  0.40171755699E+03  0.12500135641E+03 0.  0.
    9000005    1    3    3    0    0 -0.12040774110E+02  0.40678159246E+02 -0.33835536437E+03  0.34100593174E+03  0.10000000000E+01 0.  0.
    9000005    1    3    3    0    0  0.12040774110E+02 -0.40678159246E+02 -0.43418988476E+02  0.60711625254E+02  0.10000000000E+01 0.  0.
<mgrwt>
<rscale>  0 0.12500136E+03</rscale>
<asrwt>0</asrwt>
<pdfrwt beam="2">  1        4 0.97936437E-01 0.12500136E+03</pdfrwt>
<pdfrwt beam="1">  1       -4 0.24929018E-02 0.12500136E+03</pdfrwt>
<totfact> 0.10533585E+03</totfact>
</mgrwt>
</event>
<event>
 5    1  0.1438401E-002  0.1249986E+03  0.7818608E-02  0.1235071E+00
         -4   -1    0    0    0  501 -0.00000000000E+00  0.00000000000E+00  0.10850328359E+03  0.10851071583E+03  0.12700000000E+01 0.  1.
          4   -1    0    0  501    0  0.00000000000E+00 -0.00000000000E+00 -0.35980553901E+02  0.36002960420E+02  0.12700000000E+01 0.  1.
         25    2    1    2    0    0  0.00000000000E+00  0.00000000000E+00  0.72522729685E+02  0.14451367625E+03  0.12499862520E+03 0.  0.
    9000005    1    3    3    0    0 -0.63845443031E+01  0.20338921631E+02 -0.31652617660E+02  0.38174891536E+02  0.10000000000E+01 0.  0.
    9000005    1    3    3    0    0  0.63845443031E+01 -0.20338921631E+02  0.10417534734E+03  0.10633878471E+03  0.10000000000E+01 0.  0.
<mgrwt>
<rscale>  0 0.12499863E+03</rscale>
<asrwt>0</asrwt>
<pdfrwt beam="2">  1        4 0.89988684E-02 0.12499863E+03</pdfrwt>
<pdfrwt beam="1">  1       -4 0.27129551E-01 0.12499863E+03</pdfrwt>
<totfact> 0.18812364E+03</totfact>
</mgrwt>
</event>
<event>
 5    1  0.1438401E-002  0.1250000E+03  0.7818608E-02  0.1235069E+00
         -4   -1    0    0    0  501 -0.00000000000E+00  0.00000000000E+00  0.59451968150E+02  0.59465531334E+02  0.12700000000E+01 0. -1.
          4   -1    0    0  501    0  0.00000000000E+00 -0.00000000000E+00 -0.65677155268E+02  0.65689433124E+02  0.12700000000E+01 0. -1.
         25    2    1    2    0    0  0.00000000000E+00  0.00000000000E+00 -0.62251871183E+01  0.12515496446E+03  0.12500004870E+03 0.  0.
    9000005    1    3    3    0    0  0.43638146961E+02  0.44723550424E+02 -0.39907270976E+01  0.62621160445E+02  0.10000000000E+01 0.  0.
    9000005    1    3    3    0    0 -0.43638146961E+02 -0.44723550424E+02 -0.22344600206E+01  0.62533804013E+02  0.10000000000E+01 0.  0.
<mgrwt>
<rscale>  0 0.12500005E+03</rscale>
<asrwt>0</asrwt>
<pdfrwt beam="2">  1        4 0.16422519E-01 0.12500005E+03</pdfrwt>
<pdfrwt beam="1">  1       -4 0.14866222E-01 0.12500005E+03</pdfrwt>
<totfact> 0.19826631E+03</totfact>
</mgrwt>
</event>
<event>
 5    1  0.1438401E-002  0.1249943E+03  0.7818608E-02  0.1235078E+00
          4   -1    0    0  501    0  0.00000000000E+00  0.00000000000E+00  0.78283962799E+02  0.78294263721E+02  0.12700000000E+01 0.  1.
         -4   -1    0    0    0  501 -0.00000000000E+00 -0.00000000000E+00 -0.49872271888E+02  0.49888439576E+02  0.12700000000E+01 0.  1.
         25    2    1    2    0    0  0.00000000000E+00  0.00000000000E+00  0.28411690911E+02  0.12818270330E+03  0.12499432485E+03 0.  0.
    9000005    1    3    3    0    0  0.34732607048E+02 -0.76021545479E+01  0.66904879828E+02  0.75772090448E+02  0.10000000000E+01 0.  0.
    9000005    1    3    3    0    0 -0.34732607048E+02  0.76021545479E+01 -0.38493188917E+02  0.52410612848E+02  0.10000000000E+01 0.  0.
<mgrwt>
<rscale>  0 0.12499432E+03</rscale>
<asrwt>0</asrwt>
<pdfrwt beam="1">  1        4 0.19574299E-01 0.12499432E+03</pdfrwt>
<pdfrwt beam="2">  1       -4 0.12471377E-01 0.12499432E+03</pdfrwt>
<totfact> 0.19665204E+03</totfact>
</mgrwt>
</event>
<event>
 5    1  0.1438401E-002  0.1250158E+03  0.7818608E-02  0.1235045E+00
          4   -1    0    0  501    0  0.00000000000E+00  0.00000000000E+00  0.10066665292E+03  0.10067466370E+03  0.12700000000E+01 0. -1.
         -4   -1    0    0    0  501 -0.00000000000E+00 -0.00000000000E+00 -0.38793675043E+02  0.38814457659E+02  0.12700000000E+01 0. -1.
         25    2    1    2    0    0  0.00000000000E+00  0.00000000000E+00  0.61872977880E+02  0.13948912136E+03  0.12501579734E+03 0.  0.
    9000005    1    3    3    0    0 -0.81146852641E+01 -0.46414302533E+02  0.76752506811E+02  0.90067102198E+02  0.10000000000E+01 0.  0.
    9000005    1    3    3    0    0  0.81146852641E+01  0.46414302533E+02 -0.14879528931E+02  0.49422019159E+02  0.10000000000E+01 0.  0.
<mgrwt>
<rscale>  0 0.12501580E+03</rscale>
<asrwt>0</asrwt>
<pdfrwt beam="1">  1        4 0.25170262E-01 0.12501580E+03</pdfrwt>
<pdfrwt beam="2">  1       -4 0.97020180E-02 0.12501580E+03</pdfrwt>
<totfact> 0.19059486E+03</totfact>
</mgrwt>
</event>
<event>
 5    1  0.1438401E-002  0.1249992E+03  0.7818608E-02  0.1235071E+00
         -4   -1    0    0    0  501 -0.00000000000E+00  0.00000000000E+00  0.10720982217E+03  0.10721734407E+03  0.12700000000E+01 0. -1.
          4   -1    0    0  501    0  0.00000000000E+00 -0.00000000000E+00 -0.36415203879E+02  0.36437343119E+02  0.12700000000E+01 0. -1.
         25    2    1    2    0    0  0.00000000000E+00  0.00000000000E+00  0.70794618293E+02  0.14365468719E+03  0.12499916469E+03 0.  0.
    9000005    1    3    3    0    0 -0.22946951584E+01 -0.59531506571E+02  0.13715468806E+02  0.61142292932E+02  0.10000000000E+01 0.  0.
    9000005    1    3    3    0    0  0.22946951584E+01  0.59531506571E+02  0.57079149486E+02  0.82512394260E+02  0.10000000000E+01 0.  0.
<mgrwt>
<rscale>  0 0.12499916E+03</rscale>
<asrwt>0</asrwt>
<pdfrwt beam="2">  1        4 0.91075087E-02 0.12499916E+03</pdfrwt>
<pdfrwt beam="1">  1       -4 0.26806163E-01 0.12499916E+03</pdfrwt>
<totfact> 0.18855276E+03</totfact>
</mgrwt>
</event>
<event>
 5    1  0.1438401E-002  0.1249990E+03  0.7818608E-02  0.1235071E+00
          4   -1    0    0  501    0  0.00000000000E+00  0.00000000000E+00  0.51223698343E+02  0.51239439614E+02  0.12700000000E+01 0. -1.
         -4   -1    0    0    0  501 -0.00000000000E+00 -0.00000000000E+00 -0.76224728034E+02  0.76235307200E+02  0.12700000000E+01 0. -1.
         25    2    1    2    0    0  0.00000000000E+00  0.00000000000E+00 -0.25001029691E+02  0.12747474681E+03  0.12499903835E+03 0.  0.
    9000005    1    3    3    0    0  0.19550029493E+01  0.32818921806E+02 -0.66697089703E+02  0.74366695771E+02  0.10000000000E+01 0.  0.
    9000005    1    3    3    0    0 -0.19550029493E+01 -0.32818921806E+02  0.41696060012E+02  0.53108051043E+02  0.10000000000E+01 0.  0.
<mgrwt>
<rscale>  0 0.12499904E+03</rscale>
<asrwt>0</asrwt>
<pdfrwt beam="1">  1        4 0.12809215E-01 0.12499904E+03</pdfrwt>
<pdfrwt beam="2">  1       -4 0.19059472E-01 0.12499904E+03</pdfrwt>
<totfact> 0.19701605E+03</totfact>
</mgrwt>
</event>
<event>
 5    1  0.1438401E-002  0.1249999E+03  0.7818608E-02  0.1235069E+00
          4   -1    0    0  501    0  0.00000000000E+00  0.00000000000E+00  0.19292137330E+03  0.19292555345E+03  0.12700000000E+01 0. -1.
         -4   -1    0    0    0  501 -0.00000000000E+00 -0.00000000000E+00 -0.20223532976E+02  0.20263370549E+02  0.12700000000E+01 0. -1.
         25    2    1    2    0    0  0.00000000000E+00  0.00000000000E+00  0.17269784032E+03  0.21318892400E+03  0.12499989306E+03 0.  0.
    9000005    1    3    3    0    0  0.25691886149E+02  0.21467426108E+02 -0.36452886793E+01  0.33692900248E+02  0.10000000000E+01 0.  0.
    9000005    1    3    3    0    0 -0.25691886149E+02 -0.21467426108E+02  0.17634312900E+03  0.17949602375E+03  0.10000000000E+01 0.  0.
<mgrwt>
<rscale>  0 0.12499989E+03</rscale>
<asrwt>0</asrwt>
<pdfrwt beam="1">  1        4 0.48235845E-01 0.12499989E+03</pdfrwt>
<pdfrwt beam="2">  1       -4 0.50613855E-02 0.12499989E+03</pdfrwt>
<totfact> 0.15807252E+03</totfact>
</mgrwt>
</event>
<event>
 5    1  0.1438401E-002  0.1250148E+03  0.7818608E-02  0.1235046E+00
          4   -1    0    0  501    0  0.00000000000E+00  0.00000000000E+00  0.25894129818E+02  0.25925255236E+02  0.12700000000E+01 0.  1.
         -4   -1    0    0    0  501 -0.00000000000E+00 -0.00000000000E+00 -0.15076598107E+03  0.15077133000E+03  0.12700000000E+01 0.  1.
         25    2    1    2    0    0  0.00000000000E+00  0.00000000000E+00 -0.12487185125E+03  0.17669658523E+03  0.12501481511E+03 0.  0.
    9000005    1    3    3    0    0  0.18160617720E+02 -0.55219020114E+02 -0.94889745157E+02  0.11128347566E+03  0.10000000000E+01 0.  0.
    9000005    1    3    3    0    0 -0.18160617720E+02  0.55219020114E+02 -0.29982106097E+02  0.65413109575E+02  0.10000000000E+01 0.  0.
<mgrwt>
<rscale>  0 0.12501482E+03</rscale>
<asrwt>0</asrwt>
<pdfrwt beam="1">  1        4 0.64780922E-02 0.12501482E+03</pdfrwt>
<pdfrwt beam="2">  1       -4 0.37696052E-01 0.12501482E+03</pdfrwt>
<totfact> 0.17293222E+03</totfact>
</mgrwt>
</event>
<event>
 5    1  0.1438401E-002  0.1249964E+03  0.7818608E-02  0.1235075E+00
         -4   -1    0    0    0  501 -0.00000000000E+00  0.00000000000E+00  0.23573392744E+02  0.23607578137E+02  0.12700000000E+01 0. -1.
          4   -1    0    0  501    0  0.00000000000E+00 -0.00000000000E+00 -0.16553963676E+03  0.16554450833E+03  0.12700000000E+01 0. -1.
         25    2    1    2    0    0  0.00000000000E+00  0.00000000000E+00 -0.14196624402E+03  0.18915208647E+03  0.12499638945E+03 0.  0.
    9000005    1    3    3    0    0  0.39807023104E+02 -0.41458424079E+02 -0.33865823244E+02  0.66718018552E+02  0.10000000000E+01 0.  0.
    9000005    1    3    3    0    0 -0.39807023104E+02  0.41458424079E+02 -0.10810042077E+03  0.12243406792E+03  0.10000000000E+01 0.  0.
<mgrwt>
<rscale>  0 0.12499639E+03</rscale>
<asrwt>0</asrwt>
<pdfrwt beam="2">  1        4 0.41389788E-01 0.12499639E+03</pdfrwt>
<pdfrwt beam="1">  1       -4 0.58982308E-02 0.12499639E+03</pdfrwt>
<totfact> 0.16767228E+03</totfact>
</mgrwt>
</event>
<event>
 5    1  0.1438401E-002  0.1250028E+03  0.7818608E-02  0.1235065E+00
          4   -1    0    0  501    0  0.00000000000E+00  0.00000000000E+00  0.12399211348E+03  0.12399861736E+03  0.12700000000E+01 0. -1.
         -4   -1    0    0    0  501 -0.00000000000E+00 -0.00000000000E+00 -0.31485290324E+02  0.31510893463E+02  0.12700000000E+01 0. -1.
         25    2    1    2    0    0  0.00000000000E+00  0.00000000000E+00  0.92506823160E+02  0.15550951082E+03  0.12500278247E+03 0.  0.
    9000005    1    3    3    0    0  0.15499540179E+02 -0.45105207590E+02 -0.39837889521E+01  0.47870513596E+02  0.10000000000E+01 0.  0.
    9000005    1    3    3    0    0 -0.15499540179E+02  0.45105207590E+02  0.96490612113E+02  0.10763899722E+03  0.10000000000E+01 0.  0.
<mgrwt>
<rscale>  0 0.12500278E+03</rscale>
<asrwt>0</asrwt>
<pdfrwt beam="1">  1        4 0.31002042E-01 0.12500278E+03</pdfrwt>
<pdfrwt beam="2">  1       -4 0.78753360E-02 0.12500278E+03</pdfrwt>
<totfact> 0.18269971E+03</totfact>
</mgrwt>
</event>
<event>
 5    1  0.1438401E-002  0.1250004E+03  0.7818608E-02  0.1235069E+00
          4   -1    0    0  501    0  0.00000000000E+00  0.00000000000E+00  0.29038528400E+02  0.29066286857E+02  0.12700000000E+01 0.  1.
         -4   -1    0    0    0  501 -0.00000000000E+00 -0.00000000000E+00 -0.13442537278E+03  0.13443137189E+03  0.12700000000E+01 0.  1.
         25    2    1    2    0    0  0.00000000000E+00  0.00000000000E+00 -0.10538684438E+03  0.16349765875E+03  0.12500038978E+03 0.  0.
    9000005    1    3    3    0    0  0.61245065275E+02  0.49573052640E+01 -0.37795024245E+02  0.72145663444E+02  0.10000000000E+01 0.  0.
    9000005    1    3    3    0    0 -0.61245065275E+02 -0.49573052640E+01 -0.67591820138E+02  0.91351995302E+02  0.10000000000E+01 0.  0.
<mgrwt>
<rscale>  0 0.12500039E+03</rscale>
<asrwt>0</asrwt>
<pdfrwt beam="1">  1        4 0.72638522E-02 0.12500039E+03</pdfrwt>
<pdfrwt beam="2">  1       -4 0.33610561E-01 0.12500039E+03</pdfrwt>
<totfact> 0.17894219E+03</totfact>
</mgrwt>
</event>
<event>
 5    1  0.1438401E-002  0.1250013E+03  0.7818608E-02  0.1235067E+00
          4   -1    0    0  501    0  0.00000000000E+00  0.00000000000E+00  0.29324034483E+02  0.29351522931E+02  0.12700000000E+01 0.  1.
         -4   -1    0    0    0  501 -0.00000000000E+00 -0.00000000000E+00 -0.13311965158E+03  0.13312570953E+03  0.12700000000E+01 0.  1.
         25    2    1    2    0    0  0.00000000000E+00  0.00000000000E+00 -0.10379561710E+03  0.16247723246E+03  0.12500128375E+03 0.  0.
    9000005    1    3    3    0    0 -0.25999075290E+02 -0.31332196484E+02  0.97254254514E+01  0.41871736919E+02  0.10000000000E+01 0.  0.
    9000005    1    3    3    0    0  0.25999075290E+02  0.31332196484E+02 -0.11352104255E+03  0.12060549554E+03  0.10000000000E+01 0.  0.
<mgrwt>
<rscale>  0 0.12500128E+03</rscale>
<asrwt>0</asrwt>
<pdfrwt beam="1">  1        4 0.73352023E-02 0.12500128E+03</pdfrwt>
<pdfrwt beam="2">  1       -4 0.33284105E-01 0.12500128E+03</pdfrwt>
<totfact> 0.17941257E+03</totfact>
</mgrwt>
</event>
<event>
 5    1  0.1438401E-002  0.1250237E+03  0.7818608E-02  0.1235032E+00
          4   -1    0    0  501    0  0.00000000000E+00  0.00000000000E+00  0.19089481339E+02  0.19131680475E+02  0.12700000000E+01 0. -1.
         -4   -1    0    0    0  501 -0.00000000000E+00 -0.00000000000E+00 -0.20443596487E+03  0.20443990959E+03  0.12700000000E+01 0. -1.
         25    2    1    2    0    0  0.00000000000E+00  0.00000000000E+00 -0.18534648353E+03  0.22357159006E+03  0.12502374545E+03 0.  0.
    9000005    1    3    3    0    0  0.80991029565E+01 -0.35121788315E+01 -0.20332431780E+03  0.20351832615E+03  0.10000000000E+01 0.  0.
    9000005    1    3    3    0    0 -0.80991029565E+01  0.35121788315E+01  0.17977834266E+02  0.20053263918E+02  0.10000000000E+01 0.  0.
<mgrwt>
<rscale>  0 0.12502375E+03</rscale>
<asrwt>0</asrwt>
<pdfrwt beam="1">  1        4 0.47781389E-02 0.12502375E+03</pdfrwt>
<pdfrwt beam="2">  1       -4 0.51114752E-01 0.12502375E+03</pdfrwt>
<totfact> 0.15411324E+03</totfact>
</mgrwt>
</event>
<event>
 5    1  0.1438401E-002  0.1249981E+03  0.7818608E-02  0.1235072E+00
          4   -1    0    0  501    0  0.00000000000E+00  0.00000000000E+00  0.10405893374E+03  0.10406668339E+03  0.12700000000E+01 0. -1.
         -4   -1    0    0    0  501 -0.00000000000E+00 -0.00000000000E+00 -0.37517809509E+02  0.37539298480E+02  0.12700000000E+01 0. -1.
         25    2    1    2    0    0  0.00000000000E+00  0.00000000000E+00  0.66541124233E+02  0.14160598187E+03  0.12499813153E+03 0.  0.
    9000005    1    3    3    0    0 -0.19860435318E+02 -0.51569504695E+02  0.21725374881E+00  0.55271130843E+02  0.10000000000E+01 0.  0.
    9000005    1    3    3    0    0  0.19860435318E+02  0.51569504695E+02  0.66323870484E+02  0.86334851025E+02  0.10000000000E+01 0.  0.
<mgrwt>
<rscale>  0 0.12499813E+03</rscale>
<asrwt>0</asrwt>
<pdfrwt beam="1">  1        4 0.26018388E-01 0.12499813E+03</pdfrwt>
<pdfrwt beam="2">  1       -4 0.93831073E-02 0.12499813E+03</pdfrwt>
<totfact> 0.18959308E+03</totfact>
</mgrwt>
</event>
<event>
 5    1  0.1438401E-002  0.1249977E+03  0.7818608E-02  0.1235073E+00
          4   -1    0    0  501    0  0.00000000000E+00  0.00000000000E+00  0.10524476891E+03  0.10525243125E+03  0.12700000000E+01 0. -1.
         -4   -1    0    0    0  501 -0.00000000000E+00 -0.00000000000E+00 -0.37094612736E+02  0.37116346723E+02  0.12700000000E+01 0. -1.
         25    2    1    2    0    0  0.00000000000E+00  0.00000000000E+00  0.68150156175E+02  0.14236877797E+03  0.12499770059E+03 0.  0.
    9000005    1    3    3    0    0 -0.88905121034E+01 -0.56279422687E+02  0.63306760876E+02  0.85177230502E+02  0.10000000000E+01 0.  0.
    9000005    1    3    3    0    0  0.88905121034E+01  0.56279422687E+02  0.48433952990E+01  0.57191547466E+02  0.10000000000E+01 0.  0.
<mgrwt>
<rscale>  0 0.12499770E+03</rscale>
<asrwt>0</asrwt>
<pdfrwt beam="1">  1        4 0.26314867E-01 0.12499770E+03</pdfrwt>
<pdfrwt beam="2">  1       -4 0.92773278E-02 0.12499770E+03</pdfrwt>
<totfact> 0.18920822E+03</totfact>
</mgrwt>
</event>
<event>
 5    1  0.1438401E-002  0.1249975E+03  0.7818608E-02  0.1235073E+00
          4   -1    0    0  501    0  0.00000000000E+00  0.00000000000E+00  0.14000204777E+03  0.14000780792E+03  0.12700000000E+01 0. -1.
         -4   -1    0    0    0  501 -0.00000000000E+00 -0.00000000000E+00 -0.27879453171E+02  0.27908364501E+02  0.12700000000E+01 0. -1.
         25    2    1    2    0    0  0.00000000000E+00  0.00000000000E+00  0.11212259460E+03  0.16791617243E+03  0.12499745894E+03 0.  0.
    9000005    1    3    3    0    0 -0.12892525007E+01  0.15491447362E+01  0.13996496397E+03  0.13998304597E+03  0.10000000000E+01 0.  0.
    9000005    1    3    3    0    0  0.12892525007E+01 -0.15491447362E+01 -0.27842369368E+02  0.27933126453E+02  0.10000000000E+01 0.  0.
<mgrwt>
<rscale>  0 0.12499746E+03</rscale>
<asrwt>0</asrwt>
<pdfrwt beam="1">  1        4 0.35004845E-01 0.12499746E+03</pdfrwt>
<pdfrwt beam="2">  1       -4 0.69741974E-02 0.12499746E+03</pdfrwt>
<totfact> 0.17692492E+03</totfact>
</mgrwt>
</event>
<event>
 5    1  0.1438401E-002  0.1249914E+03  0.7818608E-02  0.1235083E+00
         -4   -1    0    0    0  501 -0.00000000000E+00  0.00000000000E+00  0.21792870685E+02  0.21829844541E+02  0.12700000000E+01 0.  1.
          4   -1    0    0  501    0  0.00000000000E+00 -0.00000000000E+00 -0.17902850852E+03  0.17903301305E+03  0.12700000000E+01 0.  1.
         25    2    1    2    0    0  0.00000000000E+00  0.00000000000E+00 -0.15723563783E+03  0.20086285759E+03  0.12499136672E+03 0.  0.
    9000005    1    3    3    0    0 -0.12838510953E+02  0.92699329836E+01  0.18522830918E+02  0.24389634811E+02  0.10000000000E+01 0.  0.
    9000005    1    3    3    0    0  0.12838510953E+02 -0.92699329836E+01 -0.17575846875E+03  0.17647322278E+03  0.10000000000E+01 0.  0.
<mgrwt>
<rscale>  0 0.12499137E+03</rscale>
<asrwt>0</asrwt>
<pdfrwt beam="2">  1        4 0.44762307E-01 0.12499137E+03</pdfrwt>
<pdfrwt beam="1">  1       -4 0.54534030E-02 0.12499137E+03</pdfrwt>
<totfact> 0.16290801E+03</totfact>
</mgrwt>
</event>
<event>
 5    1  0.1438401E-002  0.1250099E+03  0.7818608E-02  0.1235054E+00
         -4   -1    0    0    0  501 -0.00000000000E+00  0.00000000000E+00  0.11951385429E+03  0.11952060185E+03  0.12700000000E+01 0. -1.
          4   -1    0    0  501    0  0.00000000000E+00 -0.00000000000E+00 -0.32669682029E+02  0.32694357676E+02  0.12700000000E+01 0. -1.
         25    2    1    2    0    0  0.00000000000E+00  0.00000000000E+00  0.86844172263E+02  0.15221495953E+03  0.12500993420E+03 0.  0.
    9000005    1    3    3    0    0 -0.21348867758E+02  0.28553730247E+02 -0.19078644144E+02  0.40448539256E+02  0.10000000000E+01 0.  0.
    9000005    1    3    3    0    0  0.21348867758E+02 -0.28553730247E+02  0.10592281641E+03  0.11176642028E+03  0.10000000000E+01 0.  0.
<mgrwt>
<rscale>  0 0.12500993E+03</rscale>
<asrwt>0</asrwt>
<pdfrwt beam="2">  1        4 0.81713485E-02 0.12500993E+03</pdfrwt>
<pdfrwt beam="1">  1       -4 0.29882391E-01 0.12500993E+03</pdfrwt>
<totfact> 0.18426146E+03</totfact>
</mgrwt>
</event>
<event>
 5    1  0.1438401E-002  0.1249994E+03  0.7818608E-02  0.1235070E+00
         -4   -1    0    0    0  501 -0.00000000000E+00  0.00000000000E+00  0.15052317243E+03  0.15052852999E+03  0.12700000000E+01 0.  1.
          4   -1    0    0  501    0  0.00000000000E+00 -0.00000000000E+00 -0.25929558245E+02  0.25960641186E+02  0.12700000000E+01 0.  1.
         25    2    1    2    0    0  0.00000000000E+00  0.00000000000E+00  0.12459361419E+03  0.17648917117E+03  0.12499943537E+03 0.  0.
    9000005    1    3    3    0    0 -0.29287445057E+02 -0.40955481058E+02  0.10034623991E+02  0.51349776487E+02  0.10000000000E+01 0.  0.
    9000005    1    3    3    0    0  0.29287445057E+02  0.40955481058E+02  0.11455899020E+03  0.12513939468E+03  0.10000000000E+01 0.  0.
<mgrwt>
<rscale>  0 0.12499944E+03</rscale>
<asrwt>0</asrwt>
<pdfrwt beam="2">  1        4 0.64869447E-02 0.12499944E+03</pdfrwt>
<pdfrwt beam="1">  1       -4 0.37635348E-01 0.12499944E+03</pdfrwt>
<totfact> 0.17308495E+03</totfact>
</mgrwt>
</event>
<event>
 5    1  0.1438401E-002  0.1249972E+03  0.7818608E-02  0.1235074E+00
          4   -1    0    0  501    0  0.00000000000E+00  0.00000000000E+00  0.47623285414E+02  0.47640216347E+02  0.12700000000E+01 0.  1.
         -4   -1    0    0    0  501 -0.00000000000E+00 -0.00000000000E+00 -0.81983902676E+02  0.81993738773E+02  0.12700000000E+01 0.  1.
         25    2    1    2    0    0  0.00000000000E+00  0.00000000000E+00 -0.34360617262E+02  0.12963395512E+03  0.12499724118E+03 0.  0.
    9000005    1    3    3    0    0 -0.40764216997E+02  0.46126178142E+02 -0.60233751425E+01  0.61859734444E+02  0.10000000000E+01 0.  0.
    9000005    1    3    3    0    0  0.40764216997E+02 -0.46126178142E+02 -0.28337242119E+02  0.67774220676E+02  0.10000000000E+01 0.  0.
<mgrwt>
<rscale>  0 0.12499724E+03</rscale>
<asrwt>0</asrwt>
<pdfrwt beam="1">  1        4 0.11909167E-01 0.12499724E+03</pdfrwt>
<pdfrwt beam="2">  1       -4 0.20499321E-01 0.12499724E+03</pdfrwt>
<totfact> 0.19585342E+03</totfact>
</mgrwt>
</event>
<event>
 5    1  0.1438401E-002  0.1249981E+03  0.7818608E-02  0.1235072E+00
         -4   -1    0    0    0  501 -0.00000000000E+00  0.00000000000E+00  0.44174796994E+03  0.44174979552E+03  0.12700000000E+01 0.  1.
          4   -1    0    0  501    0  0.00000000000E+00 -0.00000000000E+00 -0.87949951963E+01  0.88862163210E+01  0.12700000000E+01 0.  1.
         25    2    1    2    0    0  0.00000000000E+00  0.00000000000E+00  0.43295297474E+03  0.45063601184E+03  0.12499814732E+03 0.  0.
    9000005    1    3    3    0    0  0.28889075411E+02 -0.26186567770E+02  0.39253217028E+03  0.39446523258E+03  0.10000000000E+01 0.  0.
    9000005    1    3    3    0    0 -0.28889075411E+02  0.26186567770E+02  0.40420804458E+02  0.56170779260E+02  0.10000000000E+01 0.  0.
<mgrwt>
<rscale>  0 0.12499815E+03</rscale>
<asrwt>0</asrwt>
<pdfrwt beam="2">  1        4 0.22103797E-02 0.12499815E+03</pdfrwt>
<pdfrwt beam="1">  1       -4 0.11044862E+00 0.12499815E+03</pdfrwt>
<totfact> 0.95906914E+02</totfact>
</mgrwt>
</event>
<event>
 5    1  0.1438401E-002  0.1249969E+03  0.7818608E-02  0.1235074E+00
         -4   -1    0    0    0  501 -0.00000000000E+00  0.00000000000E+00  0.30229549409E+02  0.30256215188E+02  0.12700000000E+01 0. -1.
          4   -1    0    0  501    0  0.00000000000E+00 -0.00000000000E+00 -0.12912652134E+03  0.12913276661E+03  0.12700000000E+01 0. -1.
         25    2    1    2    0    0  0.00000000000E+00  0.00000000000E+00 -0.98896971928E+02  0.15938898180E+03  0.12499694581E+03 0.  0.
    9000005    1    3    3    0    0 -0.41527165379E+02 -0.25817936996E+02  0.16732334336E+00  0.48909092531E+02  0.10000000000E+01 0.  0.
    9000005    1    3    3    0    0  0.41527165379E+02  0.25817936996E+02 -0.99064295271E+02  0.11047988927E+03  0.10000000000E+01 0.  0.
<mgrwt>
<rscale>  0 0.12499695E+03</rscale>
<asrwt>0</asrwt>
<pdfrwt beam="2">  1        4 0.32285743E-01 0.12499695E+03</pdfrwt>
<pdfrwt beam="1">  1       -4 0.75615016E-02 0.12499695E+03</pdfrwt>
<totfact> 0.18087832E+03</totfact>
</mgrwt>
</event>
<event>
 5    1  0.1438401E-002  0.1249999E+03  0.7818608E-02  0.1235069E+00
         -4   -1    0    0    0  501 -0.00000000000E+00  0.00000000000E+00  0.13843703042E+02  0.13901834912E+02  0.12700000000E+01 0.  1.
          4   -1    0    0  501    0  0.00000000000E+00 -0.00000000000E+00 -0.28151687903E+03  0.28151974368E+03  0.12700000000E+01 0.  1.
         25    2    1    2    0    0  0.00000000000E+00  0.00000000000E+00 -0.26767317599E+03  0.29542157859E+03  0.12499991981E+03 0.  0.
    9000005    1    3    3    0    0  0.45576741629E+01  0.54545700845E+02 -0.62572368173E+02  0.83140285862E+02  0.10000000000E+01 0.  0.
    9000005    1    3    3    0    0 -0.45576741629E+01 -0.54545700845E+02 -0.20510080782E+03  0.21228129273E+03  0.10000000000E+01 0.  0.
<mgrwt>
<rscale>  0 0.12499992E+03</rscale>
<asrwt>0</asrwt>
<pdfrwt beam="2">  1        4 0.70386826E-01 0.12499992E+03</pdfrwt>
<pdfrwt beam="1">  1       -4 0.34685512E-02 0.12499992E+03</pdfrwt>
<totfact> 0.13100378E+03</totfact>
</mgrwt>
</event>
<event>
 5    1  0.1438401E-002  0.1250013E+03  0.7818608E-02  0.1235067E+00
          4   -1    0    0  501    0  0.00000000000E+00  0.00000000000E+00  0.16515755482E+03  0.16516243766E+03  0.12700000000E+01 0.  1.
         -4   -1    0    0    0  501 -0.00000000000E+00 -0.00000000000E+00 -0.23629848036E+02  0.23663951872E+02  0.12700000000E+01 0.  1.
         25    2    1    2    0    0  0.00000000000E+00  0.00000000000E+00  0.14152770678E+03  0.18882638953E+03  0.12500125438E+03 0.  0.
    9000005    1    3    3    0    0 -0.35605246676E+02  0.31361226559E+02  0.13220015084E+03  0.14046045708E+03  0.10000000000E+01 0.  0.
    9000005    1    3    3    0    0  0.35605246676E+02 -0.31361226559E+02  0.93275559496E+01  0.48365932454E+02  0.10000000000E+01 0.  0.
<mgrwt>
<rscale>  0 0.12500125E+03</rscale>
<asrwt>0</asrwt>
<pdfrwt beam="1">  1        4 0.41294261E-01 0.12500125E+03</pdfrwt>
<pdfrwt beam="2">  1       -4 0.59123356E-02 0.12500125E+03</pdfrwt>
<totfact> 0.16778961E+03</totfact>
</mgrwt>
</event>
<event>
 5    1  0.1438401E-002  0.1249962E+03  0.7818608E-02  0.1235075E+00
         -4   -1    0    0    0  501 -0.00000000000E+00  0.00000000000E+00  0.18675665463E+02  0.18718797518E+02  0.12700000000E+01 0.  1.
          4   -1    0    0  501    0  0.00000000000E+00 -0.00000000000E+00 -0.20886340408E+03  0.20886726518E+03  0.12700000000E+01 0.  1.
         25    2    1    2    0    0  0.00000000000E+00  0.00000000000E+00 -0.19018773862E+03  0.22758606270E+03  0.12499616000E+03 0.  0.
    9000005    1    3    3    0    0 -0.10878037460E+02  0.47938101910E+02 -0.16534291569E+03  0.17249832777E+03  0.10000000000E+01 0.  0.
    9000005    1    3    3    0    0  0.10878037460E+02 -0.47938101910E+02 -0.24844822930E+02  0.55087734934E+02  0.10000000000E+01 0.  0.
<mgrwt>
<rscale>  0 0.12499616E+03</rscale>
<asrwt>0</asrwt>
<pdfrwt beam="2">  1        4 0.52221718E-01 0.12499616E+03</pdfrwt>
<pdfrwt beam="1">  1       -4 0.46747912E-02 0.12499616E+03</pdfrwt>
<totfact> 0.15275305E+03</totfact>
</mgrwt>
</event>
<event>
 5    1  0.1438401E-002  0.1250415E+03  0.7818608E-02  0.1235004E+00
         -4   -1    0    0    0  501 -0.00000000000E+00  0.00000000000E+00  0.43060218376E+03  0.43060405660E+03  0.12700000000E+01 0.  1.
          4   -1    0    0  501    0  0.00000000000E+00 -0.00000000000E+00 -0.90313077279E+01  0.91201655290E+01  0.12700000000E+01 0.  1.
         25    2    1    2    0    0  0.00000000000E+00  0.00000000000E+00  0.42157087603E+03  0.43972422213E+03  0.12504154512E+03 0.  0.
    9000005    1    3    3    0    0 -0.15277014858E+02 -0.49682736687E+02  0.88657477454E+02  0.10277601771E+03  0.10000000000E+01 0.  0.
    9000005    1    3    3    0    0  0.15277014858E+02  0.49682736687E+02  0.33291339858E+03  0.33694820442E+03  0.10000000000E+01 0.  0.
<mgrwt>
<rscale>  0 0.12504155E+03</rscale>
<asrwt>0</asrwt>
<pdfrwt beam="2">  1        4 0.22691685E-02 0.12504155E+03</pdfrwt>
<pdfrwt beam="1">  1       -4 0.10766188E+00 0.12504155E+03</pdfrwt>
<totfact> 0.97799203E+02</totfact>
</mgrwt>
</event>
<event>
 5    1  0.1438401E-002  0.1249784E+03  0.7818608E-02  0.1235103E+00
         -4   -1    0    0    0  501 -0.00000000000E+00  0.00000000000E+00  0.21443510783E+03  0.21443886860E+03  0.12700000000E+01 0. -1.
          4   -1    0    0  501    0  0.00000000000E+00 -0.00000000000E+00 -0.18184113044E+02  0.18228408246E+02  0.12700000000E+01 0. -1.
         25    2    1    2    0    0  0.00000000000E+00  0.00000000000E+00  0.19625099478E+03  0.23266727685E+03  0.12497843320E+03 0.  0.
    9000005    1    3    3    0    0 -0.10231977651E+02 -0.59008684012E+02  0.64969973757E+02  0.88367503334E+02  0.10000000000E+01 0.  0.
    9000005    1    3    3    0    0  0.10231977651E+02  0.59008684012E+02  0.13128102103E+03  0.14429977352E+03  0.10000000000E+01 0.  0.
<mgrwt>
<rscale>  0 0.12497843E+03</rscale>
<asrwt>0</asrwt>
<pdfrwt beam="2">  1        4 0.45520353E-02 0.12497843E+03</pdfrwt>
<pdfrwt beam="1">  1       -4 0.53614783E-01 0.12497843E+03</pdfrwt>
<totfact> 0.15099974E+03</totfact>
</mgrwt>
</event>
<event>
 5    1  0.1438401E-002  0.1249920E+03  0.7818608E-02  0.1235082E+00
         -4   -1    0    0    0  501 -0.00000000000E+00  0.00000000000E+00  0.19602594556E+02  0.19643691438E+02  0.12700000000E+01 0. -1.
          4   -1    0    0  501    0  0.00000000000E+00 -0.00000000000E+00 -0.19899471242E+03  0.19899876500E+03  0.12700000000E+01 0. -1.
         25    2    1    2    0    0  0.00000000000E+00  0.00000000000E+00 -0.17939211786E+03  0.21864245643E+03  0.12499196696E+03 0.  0.
    9000005    1    3    3    0    0 -0.66229464374E+01  0.37865711842E+02 -0.17587353315E+03  0.18002826227E+03  0.10000000000E+01 0.  0.
    9000005    1    3    3    0    0  0.66229464374E+01 -0.37865711842E+02 -0.35185847126E+01  0.38614194167E+02  0.10000000000E+01 0.  0.
<mgrwt>
<rscale>  0 0.12499197E+03</rscale>
<asrwt>0</asrwt>
<pdfrwt beam="2">  1        4 0.49754316E-01 0.12499197E+03</pdfrwt>
<pdfrwt beam="1">  1       -4 0.49062929E-02 0.12499197E+03</pdfrwt>
<totfact> 0.15604709E+03</totfact>
</mgrwt>
</event>
<event>
 5    1  0.1438401E-002  0.1249824E+03  0.7818608E-02  0.1235097E+00
          4   -1    0    0  501    0  0.00000000000E+00  0.00000000000E+00  0.90320045166E+01  0.91208555293E+01  0.12700000000E+01 0.  1.
         -4   -1    0    0    0  501 -0.00000000000E+00 -0.00000000000E+00 -0.43016192297E+03  0.43016379773E+03  0.12700000000E+01 0.  1.
         25    2    1    2    0    0  0.00000000000E+00  0.00000000000E+00 -0.42112991846E+03  0.43928465326E+03  0.12498239223E+03 0.  0.
    9000005    1    3    3    0    0 -0.63209904993E+01 -0.13809897078E+02 -0.42359268035E+03  0.42386604844E+03  0.10000000000E+01 0.  0.
    9000005    1    3    3    0    0  0.63209904993E+01  0.13809897078E+02  0.24627618940E+01  0.15418604812E+02  0.10000000000E+01 0.  0.
<mgrwt>
<rscale>  0 0.12498239E+03</rscale>
<asrwt>0</asrwt>
<pdfrwt beam="1">  1        4 0.22693433E-02 0.12498239E+03</pdfrwt>
<pdfrwt beam="2">  1       -4 0.10755175E+00 0.12498239E+03</pdfrwt>
<totfact> 0.98012397E+02</totfact>
</mgrwt>
</event>
<event>
 5    1  0.1438401E-002  0.1249977E+03  0.7818608E-02  0.1235073E+00
         -4   -1    0    0    0  501 -0.00000000000E+00  0.00000000000E+00  0.70698254116E+03  0.70698368185E+03  0.12700000000E+01 0.  1.
          4   -1    0    0  501    0  0.00000000000E+00 -0.00000000000E+00 -0.54508960642E+01  0.55968891272E+01  0.12700000000E+01 0.  1.
         25    2    1    2    0    0  0.00000000000E+00  0.00000000000E+00  0.70153164509E+03  0.71258057098E+03  0.12499768424E+03 0.  0.
    9000005    1    3    3    0    0 -0.42590315637E+01  0.19659394594E+02  0.68804959388E+03  0.68834429959E+03  0.10000000000E+01 0.  0.
    9000005    1    3    3    0    0  0.42590315637E+01 -0.19659394594E+02  0.13482051217E+02  0.24236271386E+02  0.10000000000E+01 0.  0.
<mgrwt>
<rscale>  0 0.12499768E+03</rscale>
<asrwt>0</asrwt>
<pdfrwt beam="2">  1        4 0.13811159E-02 0.12499768E+03</pdfrwt>
<pdfrwt beam="1">  1       -4 0.17676400E+00 0.12499768E+03</pdfrwt>
<totfact> 0.60769392E+02</totfact>
</mgrwt>
</event>
<event>
 5    1  0.1438401E-002  0.1250044E+03  0.7818608E-02  0.1235062E+00
          4   -1    0    0  501    0  0.00000000000E+00  0.00000000000E+00  0.29710661175E+03  0.29710932608E+03  0.12700000000E+01 0. -1.
         -4   -1    0    0    0  501 -0.00000000000E+00 -0.00000000000E+00 -0.13115123236E+02  0.13176469842E+02  0.12700000000E+01 0. -1.
         25    2    1    2    0    0  0.00000000000E+00  0.00000000000E+00  0.28399148851E+03  0.31028579592E+03  0.12500443834E+03 0.  0.
    9000005    1    3    3    0    0 -0.13039147776E+02 -0.18903698752E+02 -0.22743959897E+01  0.23098529788E+02  0.10000000000E+01 0.  0.
    9000005    1    3    3    0    0  0.13039147776E+02  0.18903698752E+02  0.28626588450E+03  0.28718726613E+03  0.10000000000E+01 0.  0.
<mgrwt>
<rscale>  0 0.12500444E+03</rscale>
<asrwt>0</asrwt>
<pdfrwt beam="1">  1        4 0.74284661E-01 0.12500444E+03</pdfrwt>
<pdfrwt beam="2">  1       -4 0.32867884E-02 0.12500444E+03</pdfrwt>
<totfact> 0.12686307E+03</totfact>
</mgrwt>
</event>
<event>
 5    1  0.1438401E-002  0.1250033E+03  0.7818608E-02  0.1235064E+00
          4   -1    0    0  501    0  0.00000000000E+00  0.00000000000E+00  0.89030857269E+02  0.89039914903E+02  0.12700000000E+01 0. -1.
         -4   -1    0    0    0  501 -0.00000000000E+00 -0.00000000000E+00 -0.43857043785E+02  0.43875428084E+02  0.12700000000E+01 0. -1.
         25    2    1    2    0    0  0.00000000000E+00  0.00000000000E+00  0.45173813484E+02  0.13291534299E+03  0.12500325986E+03 0.  0.
    9000005    1    3    3    0    0  0.57589254597E+02  0.17958635293E+02  0.39942373866E+02  0.72356257896E+02  0.10000000000E+01 0.  0.
    9000005    1    3    3    0    0 -0.57589254597E+02 -0.17958635293E+02  0.52314396182E+01  0.60559085091E+02  0.10000000000E+01 0.  0.
<mgrwt>
<rscale>  0 0.12500326E+03</rscale>
<asrwt>0</asrwt>
<pdfrwt beam="1">  1        4 0.22261144E-01 0.12500326E+03</pdfrwt>
<pdfrwt beam="2">  1       -4 0.10967691E-01 0.12500326E+03</pdfrwt>
<totfact> 0.19407418E+03</totfact>
</mgrwt>
</event>
<event>
 5    1  0.1438401E-002  0.1249947E+03  0.7818608E-02  0.1235078E+00
         -4   -1    0    0    0  501 -0.00000000000E+00  0.00000000000E+00  0.51816640968E+02  0.51832202165E+02  0.12700000000E+01 0. -1.
          4   -1    0    0  501    0  0.00000000000E+00 -0.00000000000E+00 -0.75347332636E+02  0.75358034976E+02  0.12700000000E+01 0. -1.
         25    2    1    2    0    0  0.00000000000E+00  0.00000000000E+00 -0.23530691668E+02  0.12719023714E+03  0.12499465178E+03 0.  0.
    9000005    1    3    3    0    0 -0.14808440061E+02 -0.33862012938E+02  0.39508138928E+02  0.54109323215E+02  0.10000000000E+01 0.  0.
    9000005    1    3    3    0    0  0.14808440061E+02  0.33862012938E+02 -0.63038830596E+02  0.73080913925E+02  0.10000000000E+01 0.  0.
<mgrwt>
<rscale>  0 0.12499465E+03</rscale>
<asrwt>0</asrwt>
<pdfrwt beam="2">  1        4 0.18840116E-01 0.12499465E+03</pdfrwt>
<pdfrwt beam="1">  1       -4 0.12957443E-01 0.12499465E+03</pdfrwt>
<totfact> 0.19719143E+03</totfact>
</mgrwt>
</event>
<event>
 5    1  0.1438401E-002  0.1250017E+03  0.7818608E-02  0.1235067E+00
          4   -1    0    0  501    0  0.00000000000E+00  0.00000000000E+00  0.36614854465E+03  0.36615074717E+03  0.12700000000E+01 0.  1.
         -4   -1    0    0    0  501 -0.00000000000E+00 -0.00000000000E+00 -0.10628738240E+02  0.10704343818E+02  0.12700000000E+01 0.  1.
         25    2    1    2    0    0  0.00000000000E+00  0.00000000000E+00  0.35551980641E+03  0.37685509099E+03  0.12500170739E+03 0.  0.
    9000005    1    3    3    0    0  0.30131087739E+02  0.52107503650E+02  0.22841233338E+03  0.23621233758E+03  0.10000000000E+01 0.  0.
    9000005    1    3    3    0    0 -0.30131087739E+02 -0.52107503650E+02  0.12710747303E+03  0.14064275341E+03  0.10000000000E+01 0.  0.
<mgrwt>
<rscale>  0 0.12500171E+03</rscale>
<asrwt>0</asrwt>
<pdfrwt beam="1">  1        4 0.91546853E-01 0.12500171E+03</pdfrwt>
<pdfrwt beam="2">  1       -4 0.26669109E-02 0.12500171E+03</pdfrwt>
<totfact> 0.11061584E+03</totfact>
</mgrwt>
</event>
<event>
 5    1  0.1438401E-002  0.1250009E+03  0.7818608E-02  0.1235068E+00
          4   -1    0    0  501    0  0.00000000000E+00  0.00000000000E+00  0.60781252955E+01  0.62093886260E+01  0.12700000000E+01 0. -1.
         -4   -1    0    0    0  501 -0.00000000000E+00 -0.00000000000E+00 -0.63568494447E+03  0.63568621311E+03  0.12700000000E+01 0. -1.
         25    2    1    2    0    0  0.00000000000E+00  0.00000000000E+00 -0.62960681918E+03  0.64189560173E+03  0.12500086706E+03 0.  0.
    9000005    1    3    3    0    0 -0.61762181520E+02 -0.53955654022E+01 -0.35511499113E+03  0.36048763657E+03  0.10000000000E+01 0.  0.
    9000005    1    3    3    0    0  0.61762181520E+02  0.53955654022E+01 -0.27449182805E+03  0.28140796517E+03  0.10000000000E+01 0.  0.
<mgrwt>
<rscale>  0 0.12500087E+03</rscale>
<asrwt>0</asrwt>
<pdfrwt beam="1">  1        4 0.15361000E-02 0.12500087E+03</pdfrwt>
<pdfrwt beam="2">  1       -4 0.15893758E+00 0.12500087E+03</pdfrwt>
<totfact> 0.68444712E+02</totfact>
</mgrwt>
</event>
<event>
 5    1  0.1438401E-002  0.1249984E+03  0.7818608E-02  0.1235072E+00
         -4   -1    0    0    0  501 -0.00000000000E+00  0.00000000000E+00  0.14122891824E+02  0.14179879176E+02  0.12700000000E+01 0.  1.
          4   -1    0    0  501    0  0.00000000000E+00 -0.00000000000E+00 -0.27596762765E+03  0.27597054989E+03  0.12700000000E+01 0.  1.
         25    2    1    2    0    0  0.00000000000E+00  0.00000000000E+00 -0.26184473582E+03  0.29015042907E+03  0.12499842324E+03 0.  0.
    9000005    1    3    3    0    0  0.59358458737E+02  0.43389451885E+01 -0.17514160032E+03  0.18498062934E+03  0.10000000000E+01 0.  0.
    9000005    1    3    3    0    0 -0.59358458737E+02 -0.43389451885E+01 -0.86703135504E+02  0.10516979973E+03  0.10000000000E+01 0.  0.
<mgrwt>
<rscale>  0 0.12499842E+03</rscale>
<asrwt>0</asrwt>
<pdfrwt beam="2">  1        4 0.68999378E-01 0.12499842E+03</pdfrwt>
<pdfrwt beam="1">  1       -4 0.35382126E-02 0.12499842E+03</pdfrwt>
<totfact> 0.13252149E+03</totfact>
</mgrwt>
</event>
<event>
 5    1  0.1438401E-002  0.1249999E+03  0.7818608E-02  0.1235069E+00
          4   -1    0    0  501    0  0.00000000000E+00  0.00000000000E+00  0.78055521856E+03  0.78055625174E+03  0.12700000000E+01 0.  1.
         -4   -1    0    0    0  501 -0.00000000000E+00 -0.00000000000E+00 -0.49228133948E+01  0.50839936782E+01  0.12700000000E+01 0.  1.
         25    2    1    2    0    0  0.00000000000E+00  0.00000000000E+00  0.77563240517E+03  0.78564024542E+03  0.12499986908E+03 0.  0.
    9000005    1    3    3    0    0  0.20047242413E+02  0.75280444981E+01  0.75680616133E+03  0.75710972072E+03  0.10000000000E+01 0.  0.
    9000005    1    3    3    0    0 -0.20047242413E+02 -0.75280444981E+01  0.18826243840E+02  0.28530524697E+02  0.10000000000E+01 0.  0.
<mgrwt>
<rscale>  0 0.12499987E+03</rscale>
<asrwt>0</asrwt>
<pdfrwt beam="1">  1        4 0.19515912E+00 0.12499987E+03</pdfrwt>
<pdfrwt beam="2">  1       -4 0.12509798E-02 0.12499987E+03</pdfrwt>
<totfact> 0.53761671E+02</totfact>
</mgrwt>
</event>
<event>
 5    1  0.1438401E-002  0.1249983E+03  0.7818608E-02  0.1235072E+00
         -4   -1    0    0    0  501 -0.00000000000E+00  0.00000000000E+00  0.65992329875E+02  0.66004549104E+02  0.12700000000E+01 0. -1.
          4   -1    0    0  501    0  0.00000000000E+00 -0.00000000000E+00 -0.59166336221E+02  0.59179964868E+02  0.12700000000E+01 0. -1.
         25    2    1    2    0    0  0.00000000000E+00  0.00000000000E+00  0.68259936545E+01  0.12518451397E+03  0.12499827338E+03 0.  0.
    9000005    1    3    3    0    0  0.36417392701E+02  0.27950098540E+02  0.45875551512E+02  0.64907632264E+02  0.10000000000E+01 0.  0.
    9000005    1    3    3    0    0 -0.36417392701E+02 -0.27950098540E+02 -0.39049557857E+02  0.60276881708E+02  0.10000000000E+01 0.  0.
<mgrwt>
<rscale>  0 0.12499827E+03</rscale>
<asrwt>0</asrwt>
<pdfrwt beam="2">  1        4 0.14794815E-01 0.12499827E+03</pdfrwt>
<pdfrwt beam="1">  1       -4 0.16501313E-01 0.12499827E+03</pdfrwt>
<totfact> 0.19825853E+03</totfact>
</mgrwt>
</event>
<event>
 5    1  0.1438401E-002  0.1250103E+03  0.7818608E-02  0.1235053E+00
          4   -1    0    0  501    0  0.00000000000E+00  0.00000000000E+00  0.14932788721E+03  0.14933328765E+03  0.12700000000E+01 0.  1.
         -4   -1    0    0    0  501 -0.00000000000E+00 -0.00000000000E+00 -0.26141902529E+02  0.26172733289E+02  0.12700000000E+01 0.  1.
         25    2    1    2    0    0  0.00000000000E+00  0.00000000000E+00  0.12318598468E+03  0.17550602093E+03  0.12501030582E+03 0.  0.
    9000005    1    3    3    0    0  0.50374492437E+02  0.28764812910E+01  0.98179422679E+01  0.51412601794E+02  0.10000000000E+01 0.  0.
    9000005    1    3    3    0    0 -0.50374492437E+02 -0.28764812910E+01  0.11336804242E+03  0.12409341914E+03  0.10000000000E+01 0.  0.
<mgrwt>
<rscale>  0 0.12501031E+03</rscale>
<asrwt>0</asrwt>
<pdfrwt beam="1">  1        4 0.37336500E-01 0.12501031E+03</pdfrwt>
<pdfrwt beam="2">  1       -4 0.65400046E-02 0.12501031E+03</pdfrwt>
<totfact> 0.17347376E+03</totfact>
</mgrwt>
</event>
<event>
 5    1  0.1438401E-002  0.1249975E+03  0.7818608E-02  0.1235073E+00
         -4   -1    0    0    0  501 -0.00000000000E+00  0.00000000000E+00  0.27991901718E+01  0.30738193861E+01  0.12700000000E+01 0. -1.
          4   -1    0    0  501    0  0.00000000000E+00 -0.00000000000E+00 -0.13299100348E+04  0.13299106412E+04  0.12700000000E+01 0. -1.
         25    2    1    2    0    0  0.00000000000E+00  0.00000000000E+00 -0.13271108446E+04  0.13329844606E+04  0.12499751285E+03 0.  0.
    9000005    1    3    3    0    0 -0.28605386125E+02  0.36502537288E+02 -0.11102255784E+04  0.11111941947E+04  0.10000000000E+01 0.  0.
    9000005    1    3    3    0    0  0.28605386125E+02 -0.36502537288E+02 -0.21688526622E+03  0.22179026589E+03  0.10000000000E+01 0.  0.
<mgrwt>
<rscale>  0 0.12499751E+03</rscale>
<asrwt>0</asrwt>
<pdfrwt beam="2">  1        4 0.33250985E+00 0.12499751E+03</pdfrwt>
<pdfrwt beam="1">  1       -4 0.73420655E-03 0.12499751E+03</pdfrwt>
<totfact> 0.18851648E+02</totfact>
</mgrwt>
</event>
<event>
 5    1  0.1438401E-002  0.1250029E+03  0.7818608E-02  0.1235065E+00
         -4   -1    0    0    0  501 -0.00000000000E+00  0.00000000000E+00  0.23170233704E+01  0.26422523155E+01  0.12700000000E+01 0.  1.
          4   -1    0    0  501    0  0.00000000000E+00 -0.00000000000E+00 -0.15750788108E+04  0.15750793228E+04  0.12700000000E+01 0.  1.
         25    2    1    2    0    0  0.00000000000E+00  0.00000000000E+00 -0.15727617875E+04  0.15777215751E+04  0.12500291439E+03 0.  0.
    9000005    1    3    3    0    0  0.33597116701E+02  0.48612953306E+02 -0.10430183110E+04  0.10446914294E+04  0.10000000000E+01 0.  0.
    9000005    1    3    3    0    0 -0.33597116701E+02 -0.48612953306E+02 -0.52974347644E+03  0.53303014578E+03  0.10000000000E+01 0.  0.
<mgrwt>
<rscale>  0 0.12500291E+03</rscale>
<asrwt>0</asrwt>
<pdfrwt beam="2">  1        4 0.39380699E+00 0.12500291E+03</pdfrwt>
<pdfrwt beam="1">  1       -4 0.61997887E-03 0.12500291E+03</pdfrwt>
<totfact> 0.10117070E+02</totfact>
</mgrwt>
</event>
<event>
 5    1  0.1438401E-002  0.1249928E+03  0.7818608E-02  0.1235081E+00
          4   -1    0    0  501    0  0.00000000000E+00  0.00000000000E+00  0.11136231032E+03  0.11136955176E+03  0.12700000000E+01 0. -1.
         -4   -1    0    0    0  501 -0.00000000000E+00 -0.00000000000E+00 -0.35053009207E+02  0.35076008246E+02  0.12700000000E+01 0. -1.
         25    2    1    2    0    0  0.00000000000E+00  0.00000000000E+00  0.76309301111E+02  0.14644556001E+03  0.12499277023E+03 0.  0.
    9000005    1    3    3    0    0 -0.37383846662E+02  0.34683732065E+02  0.80468013907E+02  0.95271268090E+02  0.10000000000E+01 0.  0.
    9000005    1    3    3    0    0  0.37383846662E+02 -0.34683732065E+02 -0.41587127960E+01  0.51174291918E+02  0.10000000000E+01 0.  0.
<mgrwt>
<rscale>  0 0.12499277E+03</rscale>
<asrwt>0</asrwt>
<pdfrwt beam="1">  1        4 0.27844357E-01 0.12499277E+03</pdfrwt>
<pdfrwt beam="2">  1       -4 0.87670324E-02 0.12499277E+03</pdfrwt>
<totfact> 0.18718095E+03</totfact>
</mgrwt>
</event>
<event>
 5    1  0.1438401E-002  0.1249969E+03  0.7818608E-02  0.1235074E+00
         -4   -1    0    0    0  501 -0.00000000000E+00  0.00000000000E+00  0.24059977428E+02  0.24093472432E+02  0.12700000000E+01 0.  1.
          4   -1    0    0  501    0  0.00000000000E+00 -0.00000000000E+00 -0.16219770462E+03  0.16220267656E+03  0.12700000000E+01 0.  1.
         25    2    1    2    0    0  0.00000000000E+00  0.00000000000E+00 -0.13813772719E+03  0.18629614899E+03  0.12499689379E+03 0.  0.
    9000005    1    3    3    0    0 -0.48312285621E+02  0.22987352986E+02 -0.11719215188E+03  0.12883126873E+03  0.10000000000E+01 0.  0.
    9000005    1    3    3    0    0  0.48312285621E+02 -0.22987352986E+02 -0.20945575311E+02  0.57464880269E+02  0.10000000000E+01 0.  0.
<mgrwt>
<rscale>  0 0.12499689E+03</rscale>
<asrwt>0</asrwt>
<pdfrwt beam="2">  1        4 0.40554231E-01 0.12499689E+03</pdfrwt>
<pdfrwt beam="1">  1       -4 0.60198032E-02 0.12499689E+03</pdfrwt>
<totfact> 0.16887097E+03</totfact>
</mgrwt>
</event>
<event>
 5    1  0.1438401E-002  0.1250004E+03  0.7818608E-02  0.1235069E+00
         -4   -1    0    0    0  501 -0.00000000000E+00  0.00000000000E+00  0.13559055725E+02  0.13618402702E+02  0.12700000000E+01 0.  1.
          4   -1    0    0  501    0  0.00000000000E+00 -0.00000000000E+00 -0.28740359779E+03  0.28740640376E+03  0.12700000000E+01 0.  1.
         25    2    1    2    0    0  0.00000000000E+00  0.00000000000E+00 -0.27384454207E+03  0.30102480647E+03  0.12500040355E+03 0.  0.
    9000005    1    3    3    0    0  0.15838181628E+02  0.47630536237E+01 -0.28204929116E+03  0.28253555054E+03  0.10000000000E+01 0.  0.
    9000005    1    3    3    0    0 -0.15838181628E+02 -0.47630536237E+01  0.82047490877E+01  0.18489255926E+02  0.10000000000E+01 0.  0.
<mgrwt>
<rscale>  0 0.12500040E+03</rscale>
<asrwt>0</asrwt>
<pdfrwt beam="2">  1        4 0.71858649E-01 0.12500040E+03</pdfrwt>
<pdfrwt beam="1">  1       -4 0.33975340E-02 0.12500040E+03</pdfrwt>
<totfact> 0.12942265E+03</totfact>
</mgrwt>
</event>
<event>
 5    1  0.1438401E-002  0.1249958E+03  0.7818608E-02  0.1235076E+00
         -4   -1    0    0    0  501 -0.00000000000E+00  0.00000000000E+00  0.37108590902E+02  0.37130316707E+02  0.12700000000E+01 0. -1.
          4   -1    0    0  501    0  0.00000000000E+00 -0.00000000000E+00 -0.10520192699E+03  0.10520959245E+03  0.12700000000E+01 0. -1.
         25    2    1    2    0    0  0.00000000000E+00  0.00000000000E+00 -0.68093336091E+02  0.14233990915E+03  0.12499578920E+03 0.  0.
    9000005    1    3    3    0    0  0.25919847397E+02  0.34893738137E+02  0.17078037975E+02  0.46712641022E+02  0.10000000000E+01 0.  0.
    9000005    1    3    3    0    0 -0.25919847397E+02 -0.34893738137E+02 -0.85171374066E+02  0.95627268132E+02  0.10000000000E+01 0.  0.
<mgrwt>
<rscale>  0 0.12499579E+03</rscale>
<asrwt>0</asrwt>
<pdfrwt beam="2">  1        4 0.26304155E-01 0.12499579E+03</pdfrwt>
<pdfrwt beam="1">  1       -4 0.92808218E-02 0.12499579E+03</pdfrwt>
<totfact> 0.18923127E+03</totfact>
</mgrwt>
</event>
<event>
 5    1  0.1438401E-002  0.1250045E+03  0.7818608E-02  0.1235062E+00
         -4   -1    0    0    0  501 -0.00000000000E+00  0.00000000000E+00  0.11215814666E+03  0.11216533672E+03  0.12700000000E+01 0.  1.
          4   -1    0    0  501    0  0.00000000000E+00 -0.00000000000E+00 -0.34810649447E+02  0.34833808504E+02  0.12700000000E+01 0.  1.
         25    2    1    2    0    0  0.00000000000E+00  0.00000000000E+00  0.77347497212E+02  0.14699914523E+03  0.12500445341E+03 0.  0.
    9000005    1    3    3    0    0 -0.44298035549E+02 -0.50864173421E+01  0.90165655468E+02  0.10059340446E+03  0.10000000000E+01 0.  0.
    9000005    1    3    3    0    0  0.44298035549E+02  0.50864173421E+01 -0.12818158257E+02  0.46405740765E+02  0.10000000000E+01 0.  0.
<mgrwt>
<rscale>  0 0.12500445E+03</rscale>
<asrwt>0</asrwt>
<pdfrwt beam="2">  1        4 0.87064560E-02 0.12500445E+03</pdfrwt>
<pdfrwt beam="1">  1       -4 0.28043330E-01 0.12500445E+03</pdfrwt>
<totfact> 0.18685387E+03</totfact>
</mgrwt>
</event>
<event>
 5    1  0.1438401E-002  0.1250012E+03  0.7818608E-02  0.1235067E+00
         -4   -1    0    0    0  501 -0.00000000000E+00  0.00000000000E+00  0.31051950699E+02  0.31077910840E+02  0.12700000000E+01 0.  1.
          4   -1    0    0  501    0  0.00000000000E+00 -0.00000000000E+00 -0.12571792909E+03  0.12572434368E+03  0.12700000000E+01 0.  1.
         25    2    1    2    0    0  0.00000000000E+00  0.00000000000E+00 -0.94665978389E+02  0.15680225452E+03  0.12500119823E+03 0.  0.
    9000005    1    3    3    0    0 -0.40978174021E+02 -0.29030732282E+02 -0.93988305542E+02  0.10656826799E+03  0.10000000000E+01 0.  0.
    9000005    1    3    3    0    0  0.40978174021E+02  0.29030732282E+02 -0.67767284799E+00  0.50233986537E+02  0.10000000000E+01 0.  0.
<mgrwt>
<rscale>  0 0.12500120E+03</rscale>
<asrwt>0</asrwt>
<pdfrwt beam="2">  1        4 0.31433528E-01 0.12500120E+03</pdfrwt>
<pdfrwt beam="1">  1       -4 0.77670348E-02 0.12500120E+03</pdfrwt>
<totfact> 0.18208784E+03</totfact>
</mgrwt>
</event>
<event>
 5    1  0.1438401E-002  0.1249957E+03  0.7818608E-02  0.1235076E+00
         -4   -1    0    0    0  501 -0.00000000000E+00  0.00000000000E+00  0.14441300477E+03  0.14441858899E+03  0.12700000000E+01 0.  1.
          4   -1    0    0  501    0  0.00000000000E+00 -0.00000000000E+00 -0.27026264516E+02  0.27056087553E+02  0.12700000000E+01 0.  1.
         25    2    1    2    0    0  0.00000000000E+00  0.00000000000E+00  0.11738674025E+03  0.17147467655E+03  0.12499567156E+03 0.  0.
    9000005    1    3    3    0    0  0.32169308252E+02 -0.53567606733E+02  0.57607450485E+02  0.84993948231E+02  0.10000000000E+01 0.  0.
    9000005    1    3    3    0    0 -0.32169308252E+02  0.53567606733E+02  0.59779289769E+02  0.86480728315E+02  0.10000000000E+01 0.  0.
<mgrwt>
<rscale>  0 0.12499567E+03</rscale>
<asrwt>0</asrwt>
<pdfrwt beam="2">  1        4 0.67609922E-02 0.12499567E+03</pdfrwt>
<pdfrwt beam="1">  1       -4 0.36107676E-01 0.12499567E+03</pdfrwt>
<totfact> 0.17532499E+03</totfact>
</mgrwt>
</event>
<event>
 5    1  0.1438401E-002  0.1250076E+03  0.7818608E-02  0.1235057E+00
          4   -1    0    0  501    0  0.00000000000E+00  0.00000000000E+00  0.13058077115E+03  0.13058694687E+03  0.12700000000E+01 0. -1.
         -4   -1    0    0    0  501 -0.00000000000E+00 -0.00000000000E+00 -0.29897722756E+02  0.29924684226E+02  0.12700000000E+01 0. -1.
         25    2    1    2    0    0  0.00000000000E+00  0.00000000000E+00  0.10068304839E+03  0.16051163110E+03  0.12500762970E+03 0.  0.
    9000005    1    3    3    0    0 -0.46265523138E+02  0.86558683918E+01 -0.24485680048E+01  0.47142530417E+02  0.10000000000E+01 0.  0.
    9000005    1    3    3    0    0  0.46265523138E+02 -0.86558683918E+01  0.10313161639E+03  0.11336910068E+03  0.10000000000E+01 0.  0.
<mgrwt>
<rscale>  0 0.12500763E+03</rscale>
<asrwt>0</asrwt>
<pdfrwt beam="1">  1        4 0.32649335E-01 0.12500763E+03</pdfrwt>
<pdfrwt beam="2">  1       -4 0.74785729E-02 0.12500763E+03</pdfrwt>
<totfact> 0.18030505E+03</totfact>
</mgrwt>
</event>
<event>
 5    1  0.1438401E-002  0.1250058E+03  0.7818608E-02  0.1235060E+00
         -4   -1    0    0    0  501 -0.00000000000E+00  0.00000000000E+00  0.29658101642E+03  0.29658373556E+03  0.12700000000E+01 0.  1.
          4   -1    0    0  501    0  0.00000000000E+00 -0.00000000000E+00 -0.13138769737E+02  0.13200006448E+02  0.12700000000E+01 0.  1.
         25    2    1    2    0    0  0.00000000000E+00  0.00000000000E+00  0.28344224668E+03  0.30978374201E+03  0.12500583830E+03 0.  0.
    9000005    1    3    3    0    0  0.57603405767E+02 -0.20964788473E+02  0.17186307796E+03  0.18247079843E+03  0.10000000000E+01 0.  0.
    9000005    1    3    3    0    0 -0.57603405767E+02  0.20964788473E+02  0.11157916871E+03  0.12731294358E+03  0.10000000000E+01 0.  0.
<mgrwt>
<rscale>  0 0.12500584E+03</rscale>
<asrwt>0</asrwt>
<pdfrwt beam="2">  1        4 0.32926868E-02 0.12500584E+03</pdfrwt>
<pdfrwt beam="1">  1       -4 0.74153251E-01 0.12500584E+03</pdfrwt>
<totfact> 0.12699514E+03</totfact>
</mgrwt>
</event>
<event>
 4    1  0.1438401E-002  0.1251927E+03  0.7818608E-02  0.1234768E+00
          4   -1    0    0  501    0  0.00000000000E+00  0.00000000000E+00  0.38799322201E+01  0.40824960542E+01  0.12700000000E+01 0. -1.
         -4   -1    0    0    0  501 -0.00000000000E+00 -0.00000000000E+00 -0.98399437368E+03  0.98399519324E+03  0.12700000000E+01 0. -1.
    9000005    1    1    2    0    0 -0.36812435646E+00  0.10316762050E+02 -0.28471203329E+01  0.10755333046E+02  0.10000000000E+01 0.  0.
    9000005    1    1    2    0    0  0.36812435646E+00 -0.10316762050E+02 -0.97726732112E+03  0.97732235625E+03  0.10000000000E+01 0.  0.
<mgrwt>
<rscale>  0 0.12519266E+03</rscale>
<asrwt>0</asrwt>
<pdfrwt beam="1">  1        4 0.99540935E-03 0.12519266E+03</pdfrwt>
<pdfrwt beam="2">  1       -4 0.24602318E+00 0.12519266E+03</pdfrwt>
<totfact> 0.37752674E+02</totfact>
</mgrwt>
</event>
<event>
 5    1  0.1438401E-002  0.1249955E+03  0.7818608E-02  0.1235076E+00
         -4   -1    0    0    0  501 -0.00000000000E+00  0.00000000000E+00  0.11038772911E+03  0.11039503448E+03  0.12700000000E+01 0.  1.
          4   -1    0    0  501    0  0.00000000000E+00 -0.00000000000E+00 -0.35364197399E+02  0.35386994188E+02  0.12700000000E+01 0.  1.
         25    2    1    2    0    0  0.00000000000E+00  0.00000000000E+00  0.75023531713E+02  0.14578202867E+03  0.12499547821E+03 0.  0.
    9000005    1    3    3    0    0  0.31903435534E+02  0.59884541856E+01 -0.24765474941E+02  0.40841394828E+02  0.10000000000E+01 0.  0.
    9000005    1    3    3    0    0 -0.31903435534E+02 -0.59884541856E+01  0.99789006654E+02  0.10494063384E+03  0.10000000000E+01 0.  0.
<mgrwt>
<rscale>  0 0.12499548E+03</rscale>
<asrwt>0</asrwt>
<pdfrwt beam="2">  1        4 0.88448122E-02 0.12499548E+03</pdfrwt>
<pdfrwt beam="1">  1       -4 0.27600695E-01 0.12499548E+03</pdfrwt>
<totfact> 0.18750116E+03</totfact>
</mgrwt>
</event>
<event>
 5    1  0.1438401E-002  0.1250033E+03  0.7818608E-02  0.1235064E+00
          4   -1    0    0  501    0  0.00000000000E+00  0.00000000000E+00  0.27136171176E+02  0.27165873557E+02  0.12700000000E+01 0. -1.
         -4   -1    0    0    0  501 -0.00000000000E+00 -0.00000000000E+00 -0.14384636171E+03  0.14385196792E+03  0.12700000000E+01 0. -1.
         25    2    1    2    0    0  0.00000000000E+00  0.00000000000E+00 -0.11671019053E+03  0.17101784148E+03  0.12500333408E+03 0.  0.
    9000005    1    3    3    0    0 -0.41331313976E+02 -0.13591107809E+02 -0.11972899778E+03  0.12739320482E+03  0.10000000000E+01 0.  0.
    9000005    1    3    3    0    0  0.41331313976E+02  0.13591107809E+02  0.30188072473E+01  0.43624636659E+02  0.10000000000E+01 0.  0.
<mgrwt>
<rscale>  0 0.12500333E+03</rscale>
<asrwt>0</asrwt>
<pdfrwt beam="1">  1        4 0.67884568E-02 0.12500333E+03</pdfrwt>
<pdfrwt beam="2">  1       -4 0.35966002E-01 0.12500333E+03</pdfrwt>
<totfact> 0.17549878E+03</totfact>
</mgrwt>
</event>
<event>
 5    1  0.1438401E-002  0.1250001E+03  0.7818608E-02  0.1235069E+00
          4   -1    0    0  501    0  0.00000000000E+00  0.00000000000E+00  0.13654158924E+04  0.13654164831E+04  0.12700000000E+01 0. -1.
         -4   -1    0    0    0  501 -0.00000000000E+00 -0.00000000000E+00 -0.27192872858E+01  0.30012369687E+01  0.12700000000E+01 0. -1.
         25    2    1    2    0    0  0.00000000000E+00  0.00000000000E+00  0.13626966052E+04  0.13684177200E+04  0.12500007522E+03 0.  0.
    9000005    1    3    3    0    0 -0.52609468666E+02  0.33503840746E+02  0.72373465867E+03  0.72641800617E+03  0.10000000000E+01 0.  0.
    9000005    1    3    3    0    0  0.52609468666E+02 -0.33503840746E+02  0.63896194649E+03  0.64199971386E+03  0.10000000000E+01 0.  0.
<mgrwt>
<rscale>  0 0.12500008E+03</rscale>
<asrwt>0</asrwt>
<pdfrwt beam="1">  1        4 0.34138886E+00 0.12500008E+03</pdfrwt>
<pdfrwt beam="2">  1       -4 0.71514026E-03 0.12500008E+03</pdfrwt>
<totfact> 0.17354366E+02</totfact>
</mgrwt>
</event>
<event>
 5    1  0.1438401E-002  0.1249985E+03  0.7818608E-02  0.1235072E+00
          4   -1    0    0  501    0  0.00000000000E+00  0.00000000000E+00  0.70463762152E+03  0.70463876600E+03  0.12700000000E+01 0. -1.
         -4   -1    0    0    0  501 -0.00000000000E+00 -0.00000000000E+00 -0.54695902173E+01  0.56150972516E+01  0.12700000000E+01 0. -1.
         25    2    1    2    0    0  0.00000000000E+00  0.00000000000E+00  0.69916803130E+03  0.71025386326E+03  0.12499845711E+03 0.  0.
    9000005    1    3    3    0    0  0.33125148751E+02  0.11812003315E+02  0.56068726038E+02  0.66192907034E+02  0.10000000000E+01 0.  0.
    9000005    1    3    3    0    0 -0.33125148751E+02 -0.11812003315E+02  0.64309930526E+03  0.64406095622E+03  0.10000000000E+01 0.  0.
<mgrwt>
<rscale>  0 0.12499846E+03</rscale>
<asrwt>0</asrwt>
<pdfrwt beam="1">  1        4 0.17617775E+00 0.12499846E+03</pdfrwt>
<pdfrwt beam="2">  1       -4 0.13857289E-02 0.12499846E+03</pdfrwt>
<totfact> 0.61006485E+02</totfact>
</mgrwt>
</event>
<event>
 5    1  0.1438401E-002  0.1250002E+03  0.7818608E-02  0.1235069E+00
          4   -1    0    0  501    0  0.00000000000E+00  0.00000000000E+00  0.57368490424E+02  0.57382546070E+02  0.12700000000E+01 0.  1.
         -4   -1    0    0    0  501 -0.00000000000E+00 -0.00000000000E+00 -0.68062465030E+02  0.68074312673E+02  0.12700000000E+01 0.  1.
         25    2    1    2    0    0  0.00000000000E+00  0.00000000000E+00 -0.10693974606E+02  0.12545685874E+03  0.12500024925E+03 0.  0.
    9000005    1    3    3    0    0  0.16309710132E+02 -0.60297348005E+02 -0.72216317278E+01  0.62888224540E+02  0.10000000000E+01 0.  0.
    9000005    1    3    3    0    0 -0.16309710132E+02  0.60297348005E+02 -0.34723428782E+01  0.62568634203E+02  0.10000000000E+01 0.  0.
<mgrwt>
<rscale>  0 0.12500025E+03</rscale>
<asrwt>0</asrwt>
<pdfrwt beam="1">  1        4 0.14345361E-01 0.12500025E+03</pdfrwt>
<pdfrwt beam="2">  1       -4 0.17018854E-01 0.12500025E+03</pdfrwt>
<totfact> 0.19810184E+03</totfact>
</mgrwt>
</event>
<event>
 5    1  0.1438401E-002  0.1250023E+03  0.7818608E-02  0.1235066E+00
          4   -1    0    0  501    0  0.00000000000E+00  0.00000000000E+00  0.14661474024E+03  0.14662024061E+03  0.12700000000E+01 0.  1.
         -4   -1    0    0    0  501 -0.00000000000E+00 -0.00000000000E+00 -0.26622802058E+02  0.26653076547E+02  0.12700000000E+01 0.  1.
         25    2    1    2    0    0  0.00000000000E+00  0.00000000000E+00  0.11999193819E+03  0.17327331716E+03  0.12500230882E+03 0.  0.
    9000005    1    3    3    0    0 -0.46793480512E+02  0.21159967934E+02  0.10935615061E+03  0.12081863158E+03  0.10000000000E+01 0.  0.
    9000005    1    3    3    0    0  0.46793480512E+02 -0.21159967934E+02  0.10635787576E+02  0.52454685575E+02  0.10000000000E+01 0.  0.
<mgrwt>
<rscale>  0 0.12500231E+03</rscale>
<asrwt>0</asrwt>
<pdfrwt beam="1">  1        4 0.36658156E-01 0.12500231E+03</pdfrwt>
<pdfrwt beam="2">  1       -4 0.66601725E-02 0.12500231E+03</pdfrwt>
<totfact> 0.17449475E+03</totfact>
</mgrwt>
</event>
<event>
 5    1  0.1438401E-002  0.1249920E+03  0.7818608E-02  0.1235082E+00
         -4   -1    0    0    0  501 -0.00000000000E+00  0.00000000000E+00  0.50762910878E+02  0.50778794991E+02  0.12700000000E+01 0. -1.
          4   -1    0    0  501    0  0.00000000000E+00 -0.00000000000E+00 -0.76907861092E+02  0.76918346301E+02  0.12700000000E+01 0. -1.
         25    2    1    2    0    0  0.00000000000E+00  0.00000000000E+00 -0.26144950214E+02  0.12769714129E+03  0.12499200563E+03 0.  0.
    9000005    1    3    3    0    0  0.43030015321E+01 -0.25206642424E+02  0.45177809692E+02  0.51922298996E+02  0.10000000000E+01 0.  0.
    9000005    1    3    3    0    0 -0.43030015321E+01  0.25206642424E+02 -0.71322759906E+02  0.75774842296E+02  0.10000000000E+01 0.  0.
<mgrwt>
<rscale>  0 0.12499201E+03</rscale>
<asrwt>0</asrwt>
<pdfrwt beam="2">  1        4 0.19230261E-01 0.12499201E+03</pdfrwt>
<pdfrwt beam="1">  1       -4 0.12694024E-01 0.12499201E+03</pdfrwt>
<totfact> 0.19692703E+03</totfact>
</mgrwt>
</event>
<event>
 5    1  0.1438401E-002  0.1249728E+03  0.7818608E-02  0.1235112E+00
          4   -1    0    0  501    0  0.00000000000E+00  0.00000000000E+00  0.15245454336E+02  0.15298260617E+02  0.12700000000E+01 0. -1.
         -4   -1    0    0    0  501 -0.00000000000E+00 -0.00000000000E+00 -0.25561533784E+03  0.25561849276E+03  0.12700000000E+01 0. -1.
         25    2    1    2    0    0  0.00000000000E+00  0.00000000000E+00 -0.24036988351E+03  0.27091675338E+03  0.12497282250E+03 0.  0.
    9000005    1    3    3    0    0 -0.52866912749E+02  0.22764851220E+02 -0.67511166953E+02  0.88723765576E+02  0.10000000000E+01 0.  0.
    9000005    1    3    3    0    0  0.52866912749E+02 -0.22764851220E+02 -0.17285871656E+03  0.18219298780E+03  0.10000000000E+01 0.  0.
<mgrwt>
<rscale>  0 0.12497282E+03</rscale>
<asrwt>0</asrwt>
<pdfrwt beam="1">  1        4 0.38183596E-02 0.12497282E+03</pdfrwt>
<pdfrwt beam="2">  1       -4 0.63910816E-01 0.12497282E+03</pdfrwt>
<totfact> 0.13835821E+03</totfact>
</mgrwt>
</event>
<event>
 5    1  0.1438401E-002  0.1250032E+03  0.7818608E-02  0.1235064E+00
          4   -1    0    0  501    0  0.00000000000E+00  0.00000000000E+00  0.46927433793E+02  0.46944615691E+02  0.12700000000E+01 0. -1.
         -4   -1    0    0    0  501 -0.00000000000E+00 -0.00000000000E+00 -0.83207251110E+02  0.83216942609E+02  0.12700000000E+01 0. -1.
         25    2    1    2    0    0  0.00000000000E+00  0.00000000000E+00 -0.36279817317E+02  0.13016155830E+03  0.12500322442E+03 0.  0.
    9000005    1    3    3    0    0  0.22265194909E+02 -0.35058577767E+02  0.30484059558E+02  0.51527863011E+02  0.10000000000E+01 0.  0.
    9000005    1    3    3    0    0 -0.22265194909E+02  0.35058577767E+02 -0.66763876876E+02  0.78633695289E+02  0.10000000000E+01 0.  0.
<mgrwt>
<rscale>  0 0.12500322E+03</rscale>
<asrwt>0</asrwt>
<pdfrwt beam="1">  1        4 0.11735218E-01 0.12500322E+03</pdfrwt>
<pdfrwt beam="2">  1       -4 0.20805172E-01 0.12500322E+03</pdfrwt>
<totfact> 0.19554230E+03</totfact>
</mgrwt>
</event>
<event>
 5    1  0.1438401E-002  0.1250047E+03  0.7818608E-02  0.1235062E+00
         -4   -1    0    0    0  501 -0.00000000000E+00  0.00000000000E+00  0.40626285808E+02  0.40646131409E+02  0.12700000000E+01 0. -1.
          4   -1    0    0  501    0  0.00000000000E+00 -0.00000000000E+00 -0.96110467301E+02  0.96118857800E+02  0.12700000000E+01 0. -1.
         25    2    1    2    0    0  0.00000000000E+00  0.00000000000E+00 -0.55484181493E+02  0.13676498921E+03  0.12500467142E+03 0.  0.
    9000005    1    3    3    0    0  0.25021389314E+02 -0.17389297666E+02 -0.87437957757E+02  0.92600507846E+02  0.10000000000E+01 0.  0.
    9000005    1    3    3    0    0 -0.25021389314E+02  0.17389297666E+02  0.31953776264E+02  0.44164481363E+02  0.10000000000E+01 0.  0.
<mgrwt>
<rscale>  0 0.12500467E+03</rscale>
<asrwt>0</asrwt>
<pdfrwt beam="2">  1        4 0.24031146E-01 0.12500467E+03</pdfrwt>
<pdfrwt beam="1">  1       -4 0.10160101E-01 0.12500467E+03</pdfrwt>
<totfact> 0.19204991E+03</totfact>
</mgrwt>
</event>
<event>
 5    1  0.1438401E-002  0.1249955E+03  0.7818608E-02  0.1235076E+00
         -4   -1    0    0    0  501 -0.00000000000E+00  0.00000000000E+00  0.22391046294E+03  0.22391406457E+03  0.12700000000E+01 0. -1.
          4   -1    0    0  501    0  0.00000000000E+00 -0.00000000000E+00 -0.17417479841E+02  0.17463719650E+02  0.12700000000E+01 0. -1.
         25    2    1    2    0    0  0.00000000000E+00  0.00000000000E+00  0.20649298309E+03  0.24137778422E+03  0.12499553051E+03 0.  0.
    9000005    1    3    3    0    0 -0.46505197401E+02 -0.40546901174E+02  0.84111521934E+02  0.10431937836E+03  0.10000000000E+01 0.  0.
    9000005    1    3    3    0    0  0.46505197401E+02  0.40546901174E+02  0.12238146116E+03  0.13705840586E+03  0.10000000000E+01 0.  0.
<mgrwt>
<rscale>  0 0.12499553E+03</rscale>
<asrwt>0</asrwt>
<pdfrwt beam="2">  1        4 0.43606002E-02 0.12499553E+03</pdfrwt>
<pdfrwt beam="1">  1       -4 0.55983846E-01 0.12499553E+03</pdfrwt>
<totfact> 0.14790625E+03</totfact>
</mgrwt>
</event>
<event>
 5    1  0.1438401E-002  0.1249999E+03  0.7818608E-02  0.1235070E+00
         -4   -1    0    0    0  501 -0.00000000000E+00  0.00000000000E+00  0.40215080379E+03  0.40215280913E+03  0.12700000000E+01 0. -1.
          4   -1    0    0  501    0  0.00000000000E+00 -0.00000000000E+00 -0.96698225442E+01  0.97528646067E+01  0.12700000000E+01 0. -1.
         25    2    1    2    0    0  0.00000000000E+00  0.00000000000E+00  0.39248098124E+03  0.41190567373E+03  0.12499985366E+03 0.  0.
    9000005    1    3    3    0    0  0.36087251499E+02 -0.50854730900E+02  0.20972586403E+03  0.21880226557E+03  0.10000000000E+01 0.  0.
    9000005    1    3    3    0    0 -0.36087251499E+02  0.50854730900E+02  0.18275511722E+03  0.19310340816E+03  0.10000000000E+01 0.  0.
<mgrwt>
<rscale>  0 0.12499985E+03</rscale>
<asrwt>0</asrwt>
<pdfrwt beam="2">  1        4 0.24280869E-02 0.12499985E+03</pdfrwt>
<pdfrwt beam="1">  1       -4 0.10054832E+00 0.12499985E+03</pdfrwt>
<totfact> 0.10327500E+03</totfact>
</mgrwt>
</event>
<event>
 5    1  0.1438401E-002  0.1250229E+03  0.7818608E-02  0.1235034E+00
          4   -1    0    0  501    0  0.00000000000E+00  0.00000000000E+00  0.42845325406E+02  0.42864143630E+02  0.12700000000E+01 0. -1.
         -4   -1    0    0    0  501 -0.00000000000E+00 -0.00000000000E+00 -0.91161093442E+02  0.91169939441E+02  0.12700000000E+01 0. -1.
         25    2    1    2    0    0  0.00000000000E+00  0.00000000000E+00 -0.48315768037E+02  0.13403408307E+03  0.12502288584E+03 0.  0.
    9000005    1    3    3    0    0 -0.39709125285E+02  0.46279261492E+02 -0.94545676648E+01  0.61716882009E+02  0.10000000000E+01 0.  0.
    9000005    1    3    3    0    0  0.39709125285E+02 -0.46279261492E+02 -0.38861200372E+02  0.72317201062E+02  0.10000000000E+01 0.  0.
<mgrwt>
<rscale>  0 0.12502289E+03</rscale>
<asrwt>0</asrwt>
<pdfrwt beam="1">  1        4 0.10714790E-01 0.12502289E+03</pdfrwt>
<pdfrwt beam="2">  1       -4 0.22793731E-01 0.12502289E+03</pdfrwt>
<totfact> 0.19339521E+03</totfact>
</mgrwt>
</event>
<event>
 5    1  0.1438401E-002  0.1249725E+03  0.7818608E-02  0.1235112E+00
          4   -1    0    0  501    0  0.00000000000E+00  0.00000000000E+00  0.31531124052E+03  0.31531379814E+03  0.12700000000E+01 0. -1.
         -4   -1    0    0    0  501 -0.00000000000E+00 -0.00000000000E+00 -0.12347930120E+02  0.12413068849E+02  0.12700000000E+01 0. -1.
         25    2    1    2    0    0  0.00000000000E+00  0.00000000000E+00  0.30296331040E+03  0.32772686698E+03  0.12497252457E+03 0.  0.
    9000005    1    3    3    0    0 -0.45170987514E+02  0.78522043454E+01  0.40177970100E+02  0.60970029584E+02  0.10000000000E+01 0.  0.
    9000005    1    3    3    0    0  0.45170987514E+02 -0.78522043454E+01  0.26278534030E+03  0.26675683740E+03  0.10000000000E+01 0.  0.
<mgrwt>
<rscale>  0 0.12497252E+03</rscale>
<asrwt>0</asrwt>
<pdfrwt beam="1">  1        4 0.78836271E-01 0.12497252E+03</pdfrwt>
<pdfrwt beam="2">  1       -4 0.30954446E-02 0.12497252E+03</pdfrwt>
<totfact> 0.12235746E+03</totfact>
</mgrwt>
</event>
<event>
 5    1  0.1438401E-002  0.1250049E+03  0.7818608E-02  0.1235062E+00
         -4   -1    0    0    0  501 -0.00000000000E+00  0.00000000000E+00  0.25757901174E+02  0.25789191008E+02  0.12700000000E+01 0. -1.
          4   -1    0    0  501    0  0.00000000000E+00 -0.00000000000E+00 -0.15153837858E+03  0.15154370024E+03  0.12700000000E+01 0. -1.
         25    2    1    2    0    0  0.00000000000E+00  0.00000000000E+00 -0.12578047741E+03  0.17733289125E+03  0.12500490319E+03 0.  0.
    9000005    1    3    3    0    0  0.39628949299E+02 -0.47970720169E+02 -0.54629016099E+02  0.82806841602E+02  0.10000000000E+01 0.  0.
    9000005    1    3    3    0    0 -0.39628949299E+02  0.47970720169E+02 -0.71151461311E+02  0.94526049652E+02  0.10000000000E+01 0.  0.
<mgrwt>
<rscale>  0 0.12500490E+03</rscale>
<asrwt>0</asrwt>
<pdfrwt beam="2">  1        4 0.37889169E-01 0.12500490E+03</pdfrwt>
<pdfrwt beam="1">  1       -4 0.64440522E-02 0.12500490E+03</pdfrwt>
<totfact> 0.17269322E+03</totfact>
</mgrwt>
</event>
<event>
 5    1  0.1438401E-002  0.1249978E+03  0.7818608E-02  0.1235073E+00
         -4   -1    0    0    0  501 -0.00000000000E+00  0.00000000000E+00  0.25555565029E+02  0.25587102296E+02  0.12700000000E+01 0.  1.
          4   -1    0    0  501    0  0.00000000000E+00 -0.00000000000E+00 -0.15271934745E+03  0.15272462796E+03  0.12700000000E+01 0.  1.
         25    2    1    2    0    0  0.00000000000E+00  0.00000000000E+00 -0.12716378242E+03  0.17831173025E+03  0.12499778233E+03 0.  0.
    9000005    1    3    3    0    0 -0.39603992912E+02  0.55906513577E+01 -0.13207531000E+03  0.13800224328E+03  0.10000000000E+01 0.  0.
    9000005    1    3    3    0    0  0.39603992912E+02 -0.55906513577E+01  0.49115275834E+01  0.40309486977E+02  0.10000000000E+01 0.  0.
<mgrwt>
<rscale>  0 0.12499778E+03</rscale>
<asrwt>0</asrwt>
<pdfrwt beam="2">  1        4 0.38184436E-01 0.12499778E+03</pdfrwt>
<pdfrwt beam="1">  1       -4 0.63934939E-02 0.12499778E+03</pdfrwt>
<totfact> 0.17229426E+03</totfact>
</mgrwt>
</event>
<event>
 5    1  0.1438401E-002  0.1250018E+03  0.7818608E-02  0.1235066E+00
         -4   -1    0    0    0  501 -0.00000000000E+00  0.00000000000E+00  0.16263328489E+04  0.16263333448E+04  0.12700000000E+01 0.  1.
          4   -1    0    0  501    0  0.00000000000E+00 -0.00000000000E+00 -0.22335419314E+01  0.25693597567E+01  0.12700000000E+01 0.  1.
         25    2    1    2    0    0  0.00000000000E+00  0.00000000000E+00  0.16240993070E+04  0.16289027046E+04  0.12500184766E+03 0.  0.
    9000005    1    3    3    0    0 -0.60229588050E+02  0.13771029746E+02  0.68972379293E+03  0.69248621291E+03  0.10000000000E+01 0.  0.
    9000005    1    3    3    0    0  0.60229588050E+02 -0.13771029746E+02  0.93437551409E+03  0.93641649167E+03  0.10000000000E+01 0.  0.
<mgrwt>
<rscale>  0 0.12500185E+03</rscale>
<asrwt>0</asrwt>
<pdfrwt beam="2">  1        4 0.60042472E-03 0.12500185E+03</pdfrwt>
<pdfrwt beam="1">  1       -4 0.40662523E+00 0.12500185E+03</pdfrwt>
<totfact> 0.87432621E+01</totfact>
</mgrwt>
</event>
<event>
 5    1  0.1438401E-002  0.1250003E+03  0.7818608E-02  0.1235069E+00
          4   -1    0    0  501    0  0.00000000000E+00  0.00000000000E+00  0.36461561028E+02  0.36483672137E+02  0.12700000000E+01 0. -1.
         -4   -1    0    0    0  501 -0.00000000000E+00 -0.00000000000E+00 -0.10707559471E+03  0.10708312604E+03  0.12700000000E+01 0. -1.
         25    2    1    2    0    0  0.00000000000E+00  0.00000000000E+00 -0.70614033684E+02  0.14356679818E+03  0.12500033514E+03 0.  0.
    9000005    1    3    3    0    0  0.15322778934E+01  0.24857202529E+02 -0.10113542258E+03  0.10416142325E+03  0.10000000000E+01 0.  0.
    9000005    1    3    3    0    0 -0.15322778934E+01 -0.24857202529E+02  0.30521388896E+02  0.39405374929E+02  0.10000000000E+01 0.  0.
<mgrwt>
<rscale>  0 0.12500034E+03</rscale>
<asrwt>0</asrwt>
<pdfrwt beam="1">  1        4 0.91190958E-02 0.12500034E+03</pdfrwt>
<pdfrwt beam="2">  1       -4 0.26772603E-01 0.12500034E+03</pdfrwt>
<totfact> 0.18859185E+03</totfact>
</mgrwt>
</event>
<event>
 5    1  0.1438401E-002  0.1250027E+03  0.7818608E-02  0.1235065E+00
          4   -1    0    0  501    0  0.00000000000E+00  0.00000000000E+00  0.72460073379E+02  0.72471202102E+02  0.12700000000E+01 0. -1.
         -4   -1    0    0    0  501 -0.00000000000E+00 -0.00000000000E+00 -0.53888585134E+02  0.53903548192E+02  0.12700000000E+01 0. -1.
         25    2    1    2    0    0  0.00000000000E+00  0.00000000000E+00  0.18571488246E+02  0.12637475029E+03  0.12500270932E+03 0.  0.
    9000005    1    3    3    0    0 -0.10095899352E+02 -0.41512114508E+02  0.55395969027E+02  0.69963534925E+02  0.10000000000E+01 0.  0.
    9000005    1    3    3    0    0  0.10095899352E+02  0.41512114508E+02 -0.36824480782E+02  0.56411215370E+02  0.10000000000E+01 0.  0.
<mgrwt>
<rscale>  0 0.12500271E+03</rscale>
<asrwt>0</asrwt>
<pdfrwt beam="1">  1        4 0.18118280E-01 0.12500271E+03</pdfrwt>
<pdfrwt beam="2">  1       -4 0.13475408E-01 0.12500271E+03</pdfrwt>
<totfact> 0.19759430E+03</totfact>
</mgrwt>
</event>
<event>
 5    1  0.1438401E-002  0.1250011E+03  0.7818608E-02  0.1235068E+00
         -4   -1    0    0    0  501 -0.00000000000E+00  0.00000000000E+00  0.44492066633E+02  0.44510188645E+02  0.12700000000E+01 0. -1.
          4   -1    0    0  501    0  0.00000000000E+00 -0.00000000000E+00 -0.87757490707E+02  0.87766679755E+02  0.12700000000E+01 0. -1.
         25    2    1    2    0    0  0.00000000000E+00  0.00000000000E+00 -0.43265424074E+02  0.13227686840E+03  0.12500109197E+03 0.  0.
    9000005    1    3    3    0    0  0.52318859925E+02 -0.33881129689E+02 -0.26379822758E+02  0.67691130155E+02  0.10000000000E+01 0.  0.
    9000005    1    3    3    0    0 -0.52318859925E+02  0.33881129689E+02 -0.16885601317E+02  0.64585738246E+02  0.10000000000E+01 0.  0.
<mgrwt>
<rscale>  0 0.12500109E+03</rscale>
<asrwt>0</asrwt>
<pdfrwt beam="2">  1        4 0.21942786E-01 0.12500109E+03</pdfrwt>
<pdfrwt beam="1">  1       -4 0.11126431E-01 0.12500109E+03</pdfrwt>
<totfact> 0.19442247E+03</totfact>
</mgrwt>
</event>
<event>
 5    1  0.1438401E-002  0.1250009E+03  0.7818608E-02  0.1235068E+00
          4   -1    0    0  501    0  0.00000000000E+00  0.00000000000E+00  0.38286578433E+03  0.38286789068E+03  0.12700000000E+01 0.  1.
         -4   -1    0    0    0  501 -0.00000000000E+00 -0.00000000000E+00 -0.10161149471E+02  0.10240207936E+02  0.12700000000E+01 0.  1.
         25    2    1    2    0    0  0.00000000000E+00  0.00000000000E+00  0.37270463486E+03  0.39310809861E+03  0.12500092939E+03 0.  0.
    9000005    1    3    3    0    0  0.46139452770E+02 -0.29879678092E+02  0.92867241192E+02  0.10792112282E+03  0.10000000000E+01 0.  0.
    9000005    1    3    3    0    0 -0.46139452770E+02  0.29879678092E+02  0.27983739367E+03  0.28518697579E+03  0.10000000000E+01 0.  0.
<mgrwt>
<rscale>  0 0.12500093E+03</rscale>
<asrwt>0</asrwt>
<pdfrwt beam="1">  1        4 0.95726585E-01 0.12500093E+03</pdfrwt>
<pdfrwt beam="2">  1       -4 0.25504332E-02 0.12500093E+03</pdfrwt>
<totfact> 0.10712325E+03</totfact>
</mgrwt>
</event>
<event>
 5    1  0.1438401E-002  0.1250003E+03  0.7818608E-02  0.1235069E+00
         -4   -1    0    0    0  501 -0.00000000000E+00  0.00000000000E+00  0.37003901606E+03  0.37004119542E+03  0.12700000000E+01 0. -1.
          4   -1    0    0  501    0  0.00000000000E+00 -0.00000000000E+00 -0.10515949479E+02  0.10592360145E+02  0.12700000000E+01 0. -1.
         25    2    1    2    0    0  0.00000000000E+00  0.00000000000E+00  0.35952306658E+03  0.38063355557E+03  0.12500027287E+03 0.  0.
    9000005    1    3    3    0    0  0.37350591363E+02  0.31732154177E+02  0.61698287868E+02  0.78801491164E+02  0.10000000000E+01 0.  0.
    9000005    1    3    3    0    0 -0.37350591363E+02 -0.31732154177E+02  0.29782477872E+03  0.30183206440E+03  0.10000000000E+01 0.  0.
<mgrwt>
<rscale>  0 0.12500027E+03</rscale>
<asrwt>0</asrwt>
<pdfrwt beam="2">  1        4 0.26388111E-02 0.12500027E+03</pdfrwt>
<pdfrwt beam="1">  1       -4 0.92519579E-01 0.12500027E+03</pdfrwt>
<totfact> 0.10979233E+03</totfact>
</mgrwt>
</event>
<event>
 5    1  0.1438401E-002  0.1250016E+03  0.7818608E-02  0.1235067E+00
         -4   -1    0    0    0  501 -0.00000000000E+00  0.00000000000E+00  0.96379421577E+02  0.96387788664E+02  0.12700000000E+01 0.  1.
          4   -1    0    0  501    0  0.00000000000E+00 -0.00000000000E+00 -0.40510864805E+02  0.40530766921E+02  0.12700000000E+01 0.  1.
         25    2    1    2    0    0  0.00000000000E+00  0.00000000000E+00  0.55868556773E+02  0.13691855559E+03  0.12500158090E+03 0.  0.
    9000005    1    3    3    0    0 -0.51736064673E+02  0.15350809814E+02  0.62451763982E+02  0.82543870603E+02  0.10000000000E+01 0.  0.
    9000005    1    3    3    0    0  0.51736064673E+02 -0.15350809814E+02 -0.65832072090E+01  0.54374684982E+02  0.10000000000E+01 0.  0.
<mgrwt>
<rscale>  0 0.12500158E+03</rscale>
<asrwt>0</asrwt>
<pdfrwt beam="2">  1        4 0.10131250E-01 0.12500158E+03</pdfrwt>
<pdfrwt beam="1">  1       -4 0.24098389E-01 0.12500158E+03</pdfrwt>
<totfact> 0.19198403E+03</totfact>
</mgrwt>
</event>
<event>
 5    1  0.1438401E-002  0.1250077E+03  0.7818608E-02  0.1235057E+00
          4   -1    0    0  501    0  0.00000000000E+00  0.00000000000E+00  0.24241983690E+03  0.24242316355E+03  0.12700000000E+01 0.  1.
         -4   -1    0    0    0  501 -0.00000000000E+00 -0.00000000000E+00 -0.16087100205E+02  0.16137152568E+02  0.12700000000E+01 0.  1.
         25    2    1    2    0    0  0.00000000000E+00  0.00000000000E+00  0.22633273670E+03  0.25856031611E+03  0.12500771724E+03 0.  0.
    9000005    1    3    3    0    0 -0.51181349909E+01 -0.39057205408E+02  0.12812321010E+02  0.41434480445E+02  0.10000000000E+01 0.  0.
    9000005    1    3    3    0    0  0.51181349909E+01  0.39057205408E+02  0.21352041569E+03  0.21712583567E+03  0.10000000000E+01 0.  0.
<mgrwt>
<rscale>  0 0.12500772E+03</rscale>
<asrwt>0</asrwt>
<pdfrwt beam="1">  1        4 0.60611630E-01 0.12500772E+03</pdfrwt>
<pdfrwt beam="2">  1       -4 0.40284475E-02 0.12500772E+03</pdfrwt>
<totfact> 0.14214976E+03</totfact>
</mgrwt>
</event>
<event>
 5    1  0.1438401E-002  0.1250002E+03  0.7818608E-02  0.1235069E+00
         -4   -1    0    0    0  501 -0.00000000000E+00  0.00000000000E+00  0.16444071015E+02  0.16493040094E+02  0.12700000000E+01 0.  1.
          4   -1    0    0  501    0  0.00000000000E+00 -0.00000000000E+00 -0.23714466553E+03  0.23714806618E+03  0.12700000000E+01 0.  1.
         25    2    1    2    0    0  0.00000000000E+00  0.00000000000E+00 -0.22070059452E+03  0.25364110627E+03  0.12500023348E+03 0.  0.
    9000005    1    3    3    0    0  0.55480093283E+02 -0.46022105535E+01 -0.52741599983E+02  0.76693529462E+02  0.10000000000E+01 0.  0.
    9000005    1    3    3    0    0 -0.55480093283E+02  0.46022105535E+01 -0.16795899454E+03  0.17694757681E+03  0.10000000000E+01 0.  0.
<mgrwt>
<rscale>  0 0.12500023E+03</rscale>
<asrwt>0</asrwt>
<pdfrwt beam="2">  1        4 0.59292702E-01 0.12500023E+03</pdfrwt>
<pdfrwt beam="1">  1       -4 0.41175647E-02 0.12500023E+03</pdfrwt>
<totfact> 0.14377567E+03</totfact>
</mgrwt>
</event>
<event>
 5    1  0.1438401E-002  0.1250143E+03  0.7818608E-02  0.1235047E+00
         -4   -1    0    0    0  501 -0.00000000000E+00  0.00000000000E+00  0.57537760599E+02  0.57551774905E+02  0.12700000000E+01 0. -1.
          4   -1    0    0  501    0  0.00000000000E+00 -0.00000000000E+00 -0.67877458742E+02  0.67889338672E+02  0.12700000000E+01 0. -1.
         25    2    1    2    0    0  0.00000000000E+00  0.00000000000E+00 -0.10339698143E+02  0.12544111358E+03  0.12501425366E+03 0.  0.
    9000005    1    3    3    0    0  0.55550578707E+02 -0.24332520792E+02 -0.20327803839E+02  0.63969977112E+02  0.10000000000E+01 0.  0.
    9000005    1    3    3    0    0 -0.55550578707E+02  0.24332520792E+02  0.99881056956E+01  0.61471136464E+02  0.10000000000E+01 0.  0.
<mgrwt>
<rscale>  0 0.12501425E+03</rscale>
<asrwt>0</asrwt>
<pdfrwt beam="2">  1        4 0.16972601E-01 0.12501425E+03</pdfrwt>
<pdfrwt beam="1">  1       -4 0.14387677E-01 0.12501425E+03</pdfrwt>
<totfact> 0.19804546E+03</totfact>
</mgrwt>
</event>
<event>
 5    1  0.1438401E-002  0.1250005E+03  0.7818608E-02  0.1235068E+00
          4   -1    0    0  501    0  0.00000000000E+00  0.00000000000E+00  0.12803716873E+03  0.12804346713E+03  0.12700000000E+01 0. -1.
         -4   -1    0    0    0  501 -0.00000000000E+00 -0.00000000000E+00 -0.30488698204E+02  0.30515137525E+02  0.12700000000E+01 0. -1.
         25    2    1    2    0    0  0.00000000000E+00  0.00000000000E+00  0.97548470522E+02  0.15855860466E+03  0.12500050804E+03 0.  0.
    9000005    1    3    3    0    0  0.56308746974E+02 -0.19951033782E+02  0.72045030976E+02  0.93595967985E+02  0.10000000000E+01 0.  0.
    9000005    1    3    3    0    0 -0.56308746974E+02  0.19951033782E+02  0.25503439546E+02  0.64962636672E+02  0.10000000000E+01 0.  0.
<mgrwt>
<rscale>  0 0.12500051E+03</rscale>
<asrwt>0</asrwt>
<pdfrwt beam="1">  1        4 0.32013384E-01 0.12500051E+03</pdfrwt>
<pdfrwt beam="2">  1       -4 0.76262669E-02 0.12500051E+03</pdfrwt>
<totfact> 0.18125586E+03</totfact>
</mgrwt>
</event>
<event>
 5    1  0.1438401E-002  0.1249996E+03  0.7818608E-02  0.1235070E+00
         -4   -1    0    0    0  501 -0.00000000000E+00  0.00000000000E+00  0.23927503372E+01  0.27089027624E+01  0.12700000000E+01 0.  1.
          4   -1    0    0  501    0  0.00000000000E+00 -0.00000000000E+00 -0.15310407514E+04  0.15310412781E+04  0.12700000000E+01 0.  1.
         25    2    1    2    0    0  0.00000000000E+00  0.00000000000E+00 -0.15286480010E+04  0.15337501809E+04  0.12499962497E+03 0.  0.
    9000005    1    3    3    0    0  0.15446604338E+02  0.33405855548E+02 -0.13840129008E+04  0.13845025310E+04  0.10000000000E+01 0.  0.
    9000005    1    3    3    0    0 -0.15446604338E+02 -0.33405855548E+02 -0.14463510024E+03  0.14924764987E+03  0.10000000000E+01 0.  0.
<mgrwt>
<rscale>  0 0.12499962E+03</rscale>
<asrwt>0</asrwt>
<pdfrwt beam="2">  1        4 0.38279662E+00 0.12499962E+03</pdfrwt>
<pdfrwt beam="1">  1       -4 0.63777773E-03 0.12499962E+03</pdfrwt>
<totfact> 0.11417838E+02</totfact>
</mgrwt>
</event>
<event>
 5    1  0.1438401E-002  0.1250002E+03  0.7818608E-02  0.1235069E+00
         -4   -1    0    0    0  501 -0.00000000000E+00  0.00000000000E+00  0.34254643096E+03  0.34254878523E+03  0.12700000000E+01 0. -1.
          4   -1    0    0  501    0  0.00000000000E+00 -0.00000000000E+00 -0.11365848575E+02  0.11436582262E+02  0.12700000000E+01 0. -1.
         25    2    1    2    0    0  0.00000000000E+00  0.00000000000E+00  0.33118058238E+03  0.35398536749E+03  0.12500024900E+03 0.  0.
    9000005    1    3    3    0    0  0.18204963161E+02  0.59531652306E+02  0.18105639990E+03  0.19146241995E+03  0.10000000000E+01 0.  0.
    9000005    1    3    3    0    0 -0.18204963161E+02 -0.59531652306E+02  0.15012418248E+03  0.16252294754E+03  0.10000000000E+01 0.  0.
<mgrwt>
<rscale>  0 0.12500025E+03</rscale>
<asrwt>0</asrwt>
<pdfrwt beam="2">  1        4 0.28505983E-02 0.12500025E+03</pdfrwt>
<pdfrwt beam="1">  1       -4 0.85645740E-01 0.12500025E+03</pdfrwt>
<totfact> 0.11582773E+03</totfact>
</mgrwt>
</event>
<event>
 5    1  0.1438401E-002  0.1249996E+03  0.7818608E-02  0.1235070E+00
          4   -1    0    0  501    0  0.00000000000E+00  0.00000000000E+00  0.30822388714E+01  0.33336311224E+01  0.12700000000E+01 0.  1.
         -4   -1    0    0    0  501 -0.00000000000E+00 -0.00000000000E+00 -0.12174249704E+04  0.12174256329E+04  0.12700000000E+01 0.  1.
         25    2    1    2    0    0  0.00000000000E+00  0.00000000000E+00 -0.12143427316E+04  0.12207592640E+04  0.12499964357E+03 0.  0.
    9000005    1    3    3    0    0  0.59174305105E+02  0.32858656385E+01 -0.80073551286E+03  0.80292637076E+03  0.10000000000E+01 0.  0.
    9000005    1    3    3    0    0 -0.59174305105E+02 -0.32858656385E+01 -0.41360721871E+03  0.41783289324E+03  0.10000000000E+01 0.  0.
<mgrwt>
<rscale>  0 0.12499964E+03</rscale>
<asrwt>0</asrwt>
<pdfrwt beam="1">  1        4 0.80207072E-03 0.12499964E+03</pdfrwt>
<pdfrwt beam="2">  1       -4 0.30438617E+00 0.12499964E+03</pdfrwt>
<totfact> 0.24133537E+02</totfact>
</mgrwt>
</event>
<event>
 5    1  0.1438401E-002  0.1250002E+03  0.7818608E-02  0.1235069E+00
          4   -1    0    0  501    0  0.00000000000E+00  0.00000000000E+00  0.18673538762E+03  0.18673970625E+03  0.12700000000E+01 0.  1.
         -4   -1    0    0    0  501 -0.00000000000E+00 -0.00000000000E+00 -0.20894851258E+02  0.20933411310E+02  0.12700000000E+01 0.  1.
         25    2    1    2    0    0  0.00000000000E+00  0.00000000000E+00  0.16584053637E+03  0.20767311756E+03  0.12500016102E+03 0.  0.
    9000005    1    3    3    0    0  0.53962535287E+02 -0.15194065280E+02  0.37045483822E+02  0.67202549847E+02  0.10000000000E+01 0.  0.
    9000005    1    3    3    0    0 -0.53962535287E+02  0.15194065280E+02  0.12879505254E+03  0.14047056771E+03  0.10000000000E+01 0.  0.
<mgrwt>
<rscale>  0 0.12500016E+03</rscale>
<asrwt>0</asrwt>
<pdfrwt beam="1">  1        4 0.46689206E-01 0.12500016E+03</pdfrwt>
<pdfrwt beam="2">  1       -4 0.52290727E-02 0.12500016E+03</pdfrwt>
<totfact> 0.16019281E+03</totfact>
</mgrwt>
</event>
<event>
 5    1  0.1438401E-002  0.1249986E+03  0.7818608E-02  0.1235071E+00
         -4   -1    0    0    0  501 -0.00000000000E+00  0.00000000000E+00  0.19308820610E+02  0.19350541422E+02  0.12700000000E+01 0.  1.
          4   -1    0    0  501    0  0.00000000000E+00 -0.00000000000E+00 -0.20203736932E+03  0.20204136086E+03  0.12700000000E+01 0.  1.
         25    2    1    2    0    0  0.00000000000E+00  0.00000000000E+00 -0.18272854871E+03  0.22139190229E+03  0.12499860754E+03 0.  0.
    9000005    1    3    3    0    0 -0.58081679565E+02 -0.93234350382E+01 -0.12871654355E+03  0.14152510917E+03  0.10000000000E+01 0.  0.
    9000005    1    3    3    0    0  0.58081679565E+02  0.93234350382E+01 -0.54012005161E+02  0.79866793122E+02  0.10000000000E+01 0.  0.
<mgrwt>
<rscale>  0 0.12499861E+03</rscale>
<asrwt>0</asrwt>
<pdfrwt beam="2">  1        4 0.50515050E-01 0.12499861E+03</pdfrwt>
<pdfrwt beam="1">  1       -4 0.48329198E-02 0.12499861E+03</pdfrwt>
<totfact> 0.15500353E+03</totfact>
</mgrwt>
</event>
<event>
 5    1  0.1438401E-002  0.1250010E+03  0.7818608E-02  0.1235068E+00
         -4   -1    0    0    0  501 -0.00000000000E+00  0.00000000000E+00  0.43428194236E+03  0.43428379933E+03  0.12700000000E+01 0. -1.
          4   -1    0    0  501    0  0.00000000000E+00 -0.00000000000E+00 -0.89481632569E+01  0.90378385509E+01  0.12700000000E+01 0. -1.
         25    2    1    2    0    0  0.00000000000E+00  0.00000000000E+00  0.42533377910E+03  0.44332163788E+03  0.12500100386E+03 0.  0.
    9000005    1    3    3    0    0  0.10166422005E+02 -0.28471949781E+02  0.40663742007E+03  0.40776095872E+03  0.10000000000E+01 0.  0.
    9000005    1    3    3    0    0 -0.10166422005E+02  0.28471949781E+02  0.18696359032E+02  0.35560679152E+02  0.10000000000E+01 0.  0.
<mgrwt>
<rscale>  0 0.12500100E+03</rscale>
<asrwt>0</asrwt>
<pdfrwt beam="2">  1        4 0.22484825E-02 0.12500100E+03</pdfrwt>
<pdfrwt beam="1">  1       -4 0.10858192E+00 0.12500100E+03</pdfrwt>
<totfact> 0.97226269E+02</totfact>
</mgrwt>
</event>
<event>
 5    1  0.1438401E-002  0.1250020E+03  0.7818608E-02  0.1235066E+00
         -4   -1    0    0    0  501 -0.00000000000E+00  0.00000000000E+00  0.49778086450E+03  0.49778248459E+03  0.12700000000E+01 0. -1.
          4   -1    0    0  501    0  0.00000000000E+00 -0.00000000000E+00 -0.77945576093E+01  0.78973431181E+01  0.12700000000E+01 0. -1.
         25    2    1    2    0    0  0.00000000000E+00  0.00000000000E+00  0.48998630689E+03  0.50567982771E+03  0.12500202882E+03 0.  0.
    9000005    1    3    3    0    0 -0.56380832270E+02  0.21966440882E+02  0.18179541183E+03  0.19160348257E+03  0.10000000000E+01 0.  0.
    9000005    1    3    3    0    0  0.56380832270E+02 -0.21966440882E+02  0.30819089506E+03  0.31407634513E+03  0.10000000000E+01 0.  0.
<mgrwt>
<rscale>  0 0.12500203E+03</rscale>
<asrwt>0</asrwt>
<pdfrwt beam="2">  1        4 0.19616903E-02 0.12500203E+03</pdfrwt>
<pdfrwt beam="1">  1       -4 0.12445825E+00 0.12500203E+03</pdfrwt>
<totfact> 0.86706589E+02</totfact>
</mgrwt>
</event>
<event>
 5    1  0.1438401E-002  0.1250089E+03  0.7818608E-02  0.1235055E+00
          4   -1    0    0  501    0  0.00000000000E+00  0.00000000000E+00  0.61510942625E+02  0.61524051903E+02  0.12700000000E+01 0. -1.
         -4   -1    0    0    0  501 -0.00000000000E+00 -0.00000000000E+00 -0.63487787771E+02  0.63500488944E+02  0.12700000000E+01 0. -1.
         25    2    1    2    0    0  0.00000000000E+00  0.00000000000E+00 -0.19768451464E+01  0.12502454085E+03  0.12500891127E+03 0.  0.
    9000005    1    3    3    0    0  0.26704562565E+02  0.41742630798E+02  0.37098172787E+02  0.61910058244E+02  0.10000000000E+01 0.  0.
    9000005    1    3    3    0    0 -0.26704562565E+02 -0.41742630798E+02 -0.39075017933E+02  0.63114482603E+02  0.10000000000E+01 0.  0.
<mgrwt>
<rscale>  0 0.12500891E+03</rscale>
<asrwt>0</asrwt>
<pdfrwt beam="1">  1        4 0.15380962E-01 0.12500891E+03</pdfrwt>
<pdfrwt beam="2">  1       -4 0.15875173E-01 0.12500891E+03</pdfrwt>
<totfact> 0.19829589E+03</totfact>
</mgrwt>
</event>
<event>
 5    1  0.1438401E-002  0.1250001E+03  0.7818608E-02  0.1235069E+00
         -4   -1    0    0    0  501 -0.00000000000E+00  0.00000000000E+00  0.44080238782E+01  0.45873276002E+01  0.12700000000E+01 0. -1.
          4   -1    0    0  501    0  0.00000000000E+00 -0.00000000000E+00 -0.86832602265E+03  0.86832695139E+03  0.12700000000E+01 0. -1.
         25    2    1    2    0    0  0.00000000000E+00  0.00000000000E+00 -0.86391799877E+03  0.87291427899E+03  0.12500011946E+03 0.  0.
    9000005    1    3    3    0    0  0.14359637187E+02 -0.18855511465E+02 -0.83575652202E+03  0.83609311299E+03  0.10000000000E+01 0.  0.
    9000005    1    3    3    0    0 -0.14359637187E+02  0.18855511465E+02 -0.28161476754E+02  0.36821166001E+02  0.10000000000E+01 0.  0.
<mgrwt>
<rscale>  0 0.12500012E+03</rscale>
<asrwt>0</asrwt>
<pdfrwt beam="2">  1        4 0.21710346E+00 0.12500012E+03</pdfrwt>
<pdfrwt beam="1">  1       -4 0.11245380E-02 0.12500012E+03</pdfrwt>
<totfact> 0.46382226E+02</totfact>
</mgrwt>
</event>
<event>
 5    1  0.1438401E-002  0.1249964E+03  0.7818608E-02  0.1235075E+00
         -4   -1    0    0    0  501 -0.00000000000E+00  0.00000000000E+00  0.61741432173E+01  0.63034073696E+01  0.12700000000E+01 0. -1.
          4   -1    0    0  501    0  0.00000000000E+00 -0.00000000000E+00 -0.62595862000E+03  0.62595990834E+03  0.12700000000E+01 0. -1.
         25    2    1    2    0    0  0.00000000000E+00  0.00000000000E+00 -0.61978447678E+03  0.63226331571E+03  0.12499641089E+03 0.  0.
    9000005    1    3    3    0    0  0.29206599904E+02  0.23984334256E+02 -0.58158343506E+02  0.69366178265E+02  0.10000000000E+01 0.  0.
    9000005    1    3    3    0    0 -0.29206599904E+02 -0.23984334256E+02 -0.56162613328E+03  0.56289713745E+03  0.10000000000E+01 0.  0.
<mgrwt>
<rscale>  0 0.12499641E+03</rscale>
<asrwt>0</asrwt>
<pdfrwt beam="2">  1        4 0.15650576E+00 0.12499641E+03</pdfrwt>
<pdfrwt beam="1">  1       -4 0.15598570E-02 0.12499641E+03</pdfrwt>
<totfact> 0.69583335E+02</totfact>
</mgrwt>
</event>
<event>
 5    1  0.1438401E-002  0.1250123E+03  0.7818608E-02  0.1235050E+00
         -4   -1    0    0    0  501 -0.00000000000E+00  0.00000000000E+00  0.16273529431E+02  0.16323010143E+02  0.12700000000E+01 0. -1.
          4   -1    0    0  501    0  0.00000000000E+00 -0.00000000000E+00 -0.23966864090E+03  0.23967200573E+03  0.12700000000E+01 0. -1.
         25    2    1    2    0    0  0.00000000000E+00  0.00000000000E+00 -0.22339511147E+03  0.25599501588E+03  0.12501228869E+03 0.  0.
    9000005    1    3    3    0    0  0.40543028378E+01  0.60958538161E+02 -0.84713926610E+02  0.10445013216E+03  0.10000000000E+01 0.  0.
    9000005    1    3    3    0    0 -0.40543028378E+01 -0.60958538161E+02 -0.13868118486E+03  0.15154488372E+03  0.10000000000E+01 0.  0.
<mgrwt>
<rscale>  0 0.12501229E+03</rscale>
<asrwt>0</asrwt>
<pdfrwt beam="2">  1        4 0.59923755E-01 0.12501229E+03</pdfrwt>
<pdfrwt beam="1">  1       -4 0.40749888E-02 0.12501229E+03</pdfrwt>
<totfact> 0.14296627E+03</totfact>
</mgrwt>
</event>
<event>
 5    1  0.1438401E-002  0.1249996E+03  0.7818608E-02  0.1235070E+00
          4   -1    0    0  501    0  0.00000000000E+00  0.00000000000E+00  0.39842756471E+02  0.39862992150E+02  0.12700000000E+01 0. -1.
         -4   -1    0    0    0  501 -0.00000000000E+00 -0.00000000000E+00 -0.97991767623E+02  0.97999997050E+02  0.12700000000E+01 0. -1.
         25    2    1    2    0    0  0.00000000000E+00  0.00000000000E+00 -0.58149011152E+02  0.13786298920E+03  0.12499958517E+03 0.  0.
    9000005    1    3    3    0    0 -0.51748680462E+02  0.35031599410E+02 -0.28752602830E+02  0.68795719753E+02  0.10000000000E+01 0.  0.
    9000005    1    3    3    0    0  0.51748680462E+02 -0.35031599410E+02 -0.29396408322E+02  0.69067269448E+02  0.10000000000E+01 0.  0.
<mgrwt>
<rscale>  0 0.12499959E+03</rscale>
<asrwt>0</asrwt>
<pdfrwt beam="1">  1        4 0.99642475E-02 0.12499959E+03</pdfrwt>
<pdfrwt beam="2">  1       -4 0.24501500E-01 0.12499959E+03</pdfrwt>
<totfact> 0.19150393E+03</totfact>
</mgrwt>
</event>
<event>
 4    1  0.1438401E-002  0.1252523E+03  0.7818608E-02  0.1234676E+00
          4   -1    0    0  501    0  0.00000000000E+00  0.00000000000E+00  0.14793693719E+02  0.14848106743E+02  0.12700000000E+01 0.  1.
         -4   -1    0    0    0  501 -0.00000000000E+00 -0.00000000000E+00 -0.26457249724E+03  0.26457554535E+03  0.12700000000E+01 0.  1.
    9000005    1    1    2    0    0  0.54118396930E+01  0.40124773901E+02 -0.18325212116E+02  0.44453333830E+02  0.10000000000E+01 0.  0.
    9000005    1    1    2    0    0 -0.54118396930E+01 -0.40124773901E+02 -0.23145359141E+03  0.23497031826E+03  0.10000000000E+01 0.  0.
<mgrwt>
<rscale>  0 0.12525225E+03</rscale>
<asrwt>0</asrwt>
<pdfrwt beam="1">  1        4 0.37056069E-02 0.12525225E+03</pdfrwt>
<pdfrwt beam="2">  1       -4 0.66150292E-01 0.12525225E+03</pdfrwt>
<totfact> 0.13489760E+03</totfact>
</mgrwt>
</event>
<event>
 4    1  0.1438401E-002  0.1352078E+03  0.7818608E-02  0.1219927E+00
         -4   -1    0    0    0  501 -0.00000000000E+00  0.00000000000E+00  0.14112045843E+02  0.14169076818E+02  0.12700000000E+01 0.  1.
          4   -1    0    0  501    0  0.00000000000E+00 -0.00000000000E+00 -0.32314573152E+03  0.32314822713E+03  0.12700000000E+01 0.  1.
    9000005    1    1    2    0    0 -0.10398330748E+02  0.42599129582E+02 -0.26174243993E+02  0.51077413522E+02  0.10000000000E+01 0.  0.
    9000005    1    1    2    0    0  0.10398330748E+02 -0.42599129582E+02 -0.28285944168E+03  0.28623989043E+03  0.10000000000E+01 0.  0.
<mgrwt>
<rscale>  0 0.13520778E+03</rscale>
<asrwt>0</asrwt>
<pdfrwt beam="2">  1        4 0.80793850E-01 0.13520778E+03</pdfrwt>
<pdfrwt beam="1">  1       -4 0.35354533E-02 0.13520778E+03</pdfrwt>
<totfact> 0.95659730E+02</totfact>
</mgrwt>
</event>
<event>
 5    1  0.1438401E-002  0.1250041E+03  0.7818608E-02  0.1235063E+00
          4   -1    0    0  501    0  0.00000000000E+00  0.00000000000E+00  0.16817593541E+03  0.16818073061E+03  0.12700000000E+01 0. -1.
         -4   -1    0    0    0  501 -0.00000000000E+00 -0.00000000000E+00 -0.23206210025E+02  0.23240935518E+02  0.12700000000E+01 0. -1.
         25    2    1    2    0    0  0.00000000000E+00  0.00000000000E+00  0.14496972538E+03  0.19142166613E+03  0.12500413188E+03 0.  0.
    9000005    1    3    3    0    0  0.63559047233E+01  0.51077011987E+02  0.12676046935E+03  0.13681547890E+03  0.10000000000E+01 0.  0.
    9000005    1    3    3    0    0 -0.63559047233E+01 -0.51077011987E+02  0.18209256035E+02  0.54606187230E+02  0.10000000000E+01 0.  0.
<mgrwt>
<rscale>  0 0.12500413E+03</rscale>
<asrwt>0</asrwt>
<pdfrwt beam="1">  1        4 0.42048923E-01 0.12500413E+03</pdfrwt>
<pdfrwt beam="2">  1       -4 0.58064927E-02 0.12500413E+03</pdfrwt>
<totfact> 0.16669799E+03</totfact>
</mgrwt>
</event>
<event>
 5    1  0.1438401E-002  0.1250071E+03  0.7818608E-02  0.1235058E+00
         -4   -1    0    0    0  501 -0.00000000000E+00  0.00000000000E+00  0.51702837206E+01  0.53239772494E+01  0.12700000000E+01 0.  1.
          4   -1    0    0  501    0  0.00000000000E+00 -0.00000000000E+00 -0.74438428889E+03  0.74438537227E+03  0.12700000000E+01 0.  1.
         25    2    1    2    0    0  0.00000000000E+00  0.00000000000E+00 -0.73921400517E+03  0.74970934951E+03  0.12500705306E+03 0.  0.
    9000005    1    3    3    0    0 -0.47632667555E+02  0.37719275925E+02 -0.28185795025E+03  0.28833404051E+03  0.10000000000E+01 0.  0.
    9000005    1    3    3    0    0  0.47632667555E+02 -0.37719275925E+02 -0.45735605492E+03  0.46137530901E+03  0.10000000000E+01 0.  0.
<mgrwt>
<rscale>  0 0.12500705E+03</rscale>
<asrwt>0</asrwt>
<pdfrwt beam="2">  1        4 0.18611506E+00 0.12500705E+03</pdfrwt>
<pdfrwt beam="1">  1       -4 0.13119206E-02 0.12500705E+03</pdfrwt>
<totfact> 0.57089079E+02</totfact>
</mgrwt>
</event>
<event>
 5    1  0.1438401E-002  0.1250113E+03  0.7818608E-02  0.1235052E+00
         -4   -1    0    0    0  501 -0.00000000000E+00  0.00000000000E+00  0.21195707191E+03  0.21196087665E+03  0.12700000000E+01 0.  1.
          4   -1    0    0  501    0  0.00000000000E+00 -0.00000000000E+00 -0.18406921379E+02  0.18450681686E+02  0.12700000000E+01 0.  1.
         25    2    1    2    0    0  0.00000000000E+00  0.00000000000E+00  0.19355015053E+03  0.23041155834E+03  0.12501130128E+03 0.  0.
    9000005    1    3    3    0    0  0.15929137212E+02 -0.29113466386E+02  0.19438464259E+03  0.19719969729E+03  0.10000000000E+01 0.  0.
    9000005    1    3    3    0    0 -0.15929137212E+02  0.29113466386E+02 -0.83449205936E+00  0.33211861049E+02  0.10000000000E+01 0.  0.
<mgrwt>
<rscale>  0 0.12501130E+03</rscale>
<asrwt>0</asrwt>
<pdfrwt beam="2">  1        4 0.46076760E-02 0.12501130E+03</pdfrwt>
<pdfrwt beam="1">  1       -4 0.52995214E-01 0.12501130E+03</pdfrwt>
<totfact> 0.15168665E+03</totfact>
</mgrwt>
</event>
<event>
 5    1  0.1438401E-002  0.1250033E+03  0.7818608E-02  0.1235064E+00
         -4   -1    0    0    0  501 -0.00000000000E+00  0.00000000000E+00  0.69701005320E+01  0.70848571917E+01  0.12700000000E+01 0. -1.
          4   -1    0    0  501    0  0.00000000000E+00 -0.00000000000E+00 -0.55576786574E+03  0.55576931680E+03  0.12700000000E+01 0. -1.
         25    2    1    2    0    0  0.00000000000E+00  0.00000000000E+00 -0.54879776521E+03  0.56285417399E+03  0.12500333626E+03 0.  0.
    9000005    1    3    3    0    0 -0.58870752449E+02  0.99107904470E+01 -0.19119375479E+03  0.20029987801E+03  0.10000000000E+01 0.  0.
    9000005    1    3    3    0    0  0.58870752449E+02 -0.99107904470E+01 -0.35760401043E+03  0.36255429598E+03  0.10000000000E+01 0.  0.
<mgrwt>
<rscale>  0 0.12500334E+03</rscale>
<asrwt>0</asrwt>
<pdfrwt beam="2">  1        4 0.13895634E+00 0.12500334E+03</pdfrwt>
<pdfrwt beam="1">  1       -4 0.17570530E-02 0.12500334E+03</pdfrwt>
<totfact> 0.78378702E+02</totfact>
</mgrwt>
</event>
<event>
 5    1  0.1438401E-002  0.1250044E+03  0.7818608E-02  0.1235062E+00
          4   -1    0    0  501    0  0.00000000000E+00  0.00000000000E+00  0.35633503381E+03  0.35633729698E+03  0.12700000000E+01 0.  1.
         -4   -1    0    0    0  501 -0.00000000000E+00 -0.00000000000E+00 -0.10923988853E+02  0.10997564842E+02  0.12700000000E+01 0.  1.
         25    2    1    2    0    0  0.00000000000E+00  0.00000000000E+00  0.34541104496E+03  0.36733486182E+03  0.12500444285E+03 0.  0.
    9000005    1    3    3    0    0 -0.47501091522E+02 -0.33863883702E+02  0.10683874338E+03  0.12173180932E+03  0.10000000000E+01 0.  0.
    9000005    1    3    3    0    0  0.47501091522E+02  0.33863883702E+02  0.23857230158E+03  0.24560305250E+03  0.10000000000E+01 0.  0.
<mgrwt>
<rscale>  0 0.12500444E+03</rscale>
<asrwt>0</asrwt>
<pdfrwt beam="1">  1        4 0.89093235E-01 0.12500444E+03</pdfrwt>
<pdfrwt beam="2">  1       -4 0.27404772E-02 0.12500444E+03</pdfrwt>
<totfact> 0.11273383E+03</totfact>
</mgrwt>
</event>
<event>
 5    1  0.1438401E-002  0.1250013E+03  0.7818608E-02  0.1235067E+00
         -4   -1    0    0    0  501 -0.00000000000E+00  0.00000000000E+00  0.30194860596E+02  0.30221556982E+02  0.12700000000E+01 0.  1.
          4   -1    0    0  501    0  0.00000000000E+00 -0.00000000000E+00 -0.12928370834E+03  0.12928994602E+03  0.12700000000E+01 0.  1.
         25    2    1    2    0    0  0.00000000000E+00  0.00000000000E+00 -0.99088847741E+02  0.15951150300E+03  0.12500127936E+03 0.  0.
    9000005    1    3    3    0    0 -0.49243883188E+01  0.40633831924E+02 -0.10980416483E+03  0.11718921670E+03  0.10000000000E+01 0.  0.
    9000005    1    3    3    0    0  0.49243883188E+01 -0.40633831924E+02  0.10715317089E+02  0.42322286298E+02  0.10000000000E+01 0.  0.
<mgrwt>
<rscale>  0 0.12500128E+03</rscale>
<asrwt>0</asrwt>
<pdfrwt beam="2">  1        4 0.32325042E-01 0.12500128E+03</pdfrwt>
<pdfrwt beam="1">  1       -4 0.75528322E-02 0.12500128E+03</pdfrwt>
<totfact> 0.18080230E+03</totfact>
</mgrwt>
</event>
<event>
 5    1  0.1438401E-002  0.1250004E+03  0.7818608E-02  0.1235069E+00
         -4   -1    0    0    0  501 -0.00000000000E+00  0.00000000000E+00  0.10044684021E+02  0.10124651949E+02  0.12700000000E+01 0. -1.
          4   -1    0    0  501    0  0.00000000000E+00 -0.00000000000E+00 -0.38726671435E+03  0.38726879676E+03  0.12700000000E+01 0. -1.
         25    2    1    2    0    0  0.00000000000E+00  0.00000000000E+00 -0.37722203033E+03  0.39739344871E+03  0.12500037164E+03 0.  0.
    9000005    1    3    3    0    0 -0.61535161760E+02 -0.73442028915E+01 -0.16302739035E+03  0.17441170676E+03  0.10000000000E+01 0.  0.
    9000005    1    3    3    0    0  0.61535161760E+02  0.73442028915E+01 -0.21419463998E+03  0.22298174195E+03  0.10000000000E+01 0.  0.
<mgrwt>
<rscale>  0 0.12500037E+03</rscale>
<asrwt>0</asrwt>
<pdfrwt beam="2">  1        4 0.96826885E-01 0.12500037E+03</pdfrwt>
<pdfrwt beam="1">  1       -4 0.25214286E-02 0.12500037E+03</pdfrwt>
<totfact> 0.10623002E+03</totfact>
</mgrwt>
</event>
<event>
 5    1  0.1438401E-002  0.1249908E+03  0.7818608E-02  0.1235084E+00
         -4   -1    0    0    0  501 -0.00000000000E+00  0.00000000000E+00  0.35497072227E+03  0.35497299414E+03  0.12700000000E+01 0. -1.
          4   -1    0    0  501    0  0.00000000000E+00 -0.00000000000E+00 -0.10963845515E+02  0.11037155815E+02  0.12700000000E+01 0. -1.
         25    2    1    2    0    0  0.00000000000E+00  0.00000000000E+00  0.34400687676E+03  0.36601014996E+03  0.12499079412E+03 0.  0.
    9000005    1    3    3    0    0 -0.26862368193E+02  0.42358752206E+02  0.62874809431E+02  0.80436884415E+02  0.10000000000E+01 0.  0.
    9000005    1    3    3    0    0  0.26862368193E+02 -0.42358752206E+02  0.28113206733E+03  0.28557326554E+03  0.10000000000E+01 0.  0.
<mgrwt>
<rscale>  0 0.12499079E+03</rscale>
<asrwt>0</asrwt>
<pdfrwt beam="2">  1        4 0.27504092E-02 0.12499079E+03</pdfrwt>
<pdfrwt beam="1">  1       -4 0.88752127E-01 0.12499079E+03</pdfrwt>
<totfact> 0.11306947E+03</totfact>
</mgrwt>
</event>
<event>
 5    1  0.1438401E-002  0.1249983E+03  0.7818608E-02  0.1235072E+00
          4   -1    0    0  501    0  0.00000000000E+00  0.00000000000E+00  0.17264416338E+02  0.17311065001E+02  0.12700000000E+01 0. -1.
         -4   -1    0    0    0  501 -0.00000000000E+00 -0.00000000000E+00 -0.22590017104E+03  0.22590374095E+03  0.12700000000E+01 0. -1.
         25    2    1    2    0    0  0.00000000000E+00  0.00000000000E+00 -0.20863575470E+03  0.24321480595E+03  0.12499825477E+03 0.  0.
    9000005    1    3    3    0    0 -0.59994486848E+02 -0.14965929015E+02 -0.86717380506E+02  0.10650925577E+03  0.10000000000E+01 0.  0.
    9000005    1    3    3    0    0  0.59994486848E+02  0.14965929015E+02 -0.12191837420E+03  0.13670555018E+03  0.10000000000E+01 0.  0.
<mgrwt>
<rscale>  0 0.12499825E+03</rscale>
<asrwt>0</asrwt>
<pdfrwt beam="1">  1        4 0.43223821E-02 0.12499825E+03</pdfrwt>
<pdfrwt beam="2">  1       -4 0.56481311E-01 0.12499825E+03</pdfrwt>
<totfact> 0.14726929E+03</totfact>
</mgrwt>
</event>
<event>
 5    1  0.1438401E-002  0.1249975E+03  0.7818608E-02  0.1235073E+00
          4   -1    0    0  501    0  0.00000000000E+00  0.00000000000E+00  0.12268483025E+02  0.12334041339E+02  0.12700000000E+01 0. -1.
         -4   -1    0    0    0  501 -0.00000000000E+00 -0.00000000000E+00 -0.31746929895E+03  0.31747183919E+03  0.12700000000E+01 0. -1.
         25    2    1    2    0    0  0.00000000000E+00  0.00000000000E+00 -0.30520081593E+03  0.32980588053E+03  0.12499752312E+03 0.  0.
    9000005    1    3    3    0    0 -0.54105907797E+02 -0.15350938266E+02 -0.22447201727E+03  0.23141259063E+03  0.10000000000E+01 0.  0.
    9000005    1    3    3    0    0  0.54105907797E+02  0.15350938266E+02 -0.80728798654E+02  0.98393289895E+02  0.10000000000E+01 0.  0.
<mgrwt>
<rscale>  0 0.12499752E+03</rscale>
<asrwt>0</asrwt>
<pdfrwt beam="1">  1        4 0.30756341E-02 0.12499752E+03</pdfrwt>
<pdfrwt beam="2">  1       -4 0.79375810E-01 0.12499752E+03</pdfrwt>
<totfact> 0.12175668E+03</totfact>
</mgrwt>
</event>
<event>
 4    1  0.1438401E-002  0.1250745E+03  0.7818608E-02  0.1234953E+00
         -4   -1    0    0    0  501 -0.00000000000E+00  0.00000000000E+00  0.15515096606E+03  0.15515616382E+03  0.12700000000E+01 0.  1.
          4   -1    0    0  501    0  0.00000000000E+00 -0.00000000000E+00 -0.25185484361E+02  0.25217484460E+02  0.12700000000E+01 0.  1.
    9000005    1    1    2    0    0  0.16878261548E+02 -0.37956640591E+02  0.13238321229E+03  0.13875120602E+03  0.10000000000E+01 0.  0.
    9000005    1    1    2    0    0 -0.16878261548E+02  0.37956640591E+02 -0.24177305843E+01  0.41622442252E+02  0.10000000000E+01 0.  0.
<mgrwt>
<rscale>  0 0.12507448E+03</rscale>
<asrwt>0</asrwt>
<pdfrwt beam="2">  1        4 0.63010209E-02 0.12507448E+03</pdfrwt>
<pdfrwt beam="1">  1       -4 0.38792391E-01 0.12507448E+03</pdfrwt>
<totfact> 0.17109491E+03</totfact>
</mgrwt>
</event>
<event>
 5    1  0.1438401E-002  0.1249901E+03  0.7818608E-02  0.1235085E+00
          4   -1    0    0  501    0  0.00000000000E+00  0.00000000000E+00  0.30989189474E+03  0.30989449709E+03  0.12700000000E+01 0. -1.
         -4   -1    0    0    0  501 -0.00000000000E+00 -0.00000000000E+00 -0.12568547623E+02  0.12632548806E+02  0.12700000000E+01 0. -1.
         25    2    1    2    0    0  0.00000000000E+00  0.00000000000E+00  0.29732334712E+03  0.32252704589E+03  0.12499008998E+03 0.  0.
    9000005    1    3    3    0    0  0.44768722712E+02 -0.81516302583E+00  0.36191794786E+02  0.57582541051E+02  0.10000000000E+01 0.  0.
    9000005    1    3    3    0    0 -0.44768722712E+02  0.81516302583E+00  0.26113155233E+03  0.26494450484E+03  0.10000000000E+01 0.  0.
<mgrwt>
<rscale>  0 0.12499009E+03</rscale>
<asrwt>0</asrwt>
<pdfrwt beam="1">  1        4 0.77481299E-01 0.12499009E+03</pdfrwt>
<pdfrwt beam="2">  1       -4 0.31504624E-02 0.12499009E+03</pdfrwt>
<totfact> 0.12365183E+03</totfact>
</mgrwt>
</event>
<event>
 5    1  0.1438401E-002  0.1250013E+03  0.7818608E-02  0.1235067E+00
         -4   -1    0    0    0  501 -0.00000000000E+00  0.00000000000E+00  0.14580209197E+03  0.14580762299E+03  0.12700000000E+01 0. -1.
          4   -1    0    0  501    0  0.00000000000E+00 -0.00000000000E+00 -0.26770922706E+02  0.26801029878E+02  0.12700000000E+01 0. -1.
         25    2    1    2    0    0  0.00000000000E+00  0.00000000000E+00  0.11903116926E+03  0.17260865287E+03  0.12500131115E+03 0.  0.
    9000005    1    3    3    0    0 -0.54458975217E+02 -0.25289552006E+02  0.35598856669E+02  0.69811317266E+02  0.10000000000E+01 0.  0.
    9000005    1    3    3    0    0  0.54458975217E+02  0.25289552006E+02  0.83432312594E+02  0.10279733560E+03  0.10000000000E+01 0.  0.
<mgrwt>
<rscale>  0 0.12500131E+03</rscale>
<asrwt>0</asrwt>
<pdfrwt beam="2">  1        4 0.66971855E-02 0.12500131E+03</pdfrwt>
<pdfrwt beam="1">  1       -4 0.36454978E-01 0.12500131E+03</pdfrwt>
<totfact> 0.17479492E+03</totfact>
</mgrwt>
</event>
<event>
 5    1  0.1438401E-002  0.1249985E+03  0.7818608E-02  0.1235072E+00
          4   -1    0    0  501    0  0.00000000000E+00  0.00000000000E+00  0.10853624646E+03  0.10854367644E+03  0.12700000000E+01 0. -1.
         -4   -1    0    0    0  501 -0.00000000000E+00 -0.00000000000E+00 -0.35969539883E+02  0.35991953259E+02  0.12700000000E+01 0. -1.
         25    2    1    2    0    0  0.00000000000E+00  0.00000000000E+00  0.72566706577E+02  0.14453562970E+03  0.12499848539E+03 0.  0.
    9000005    1    3    3    0    0  0.13978049430E+02  0.57020862466E+02  0.11526920043E+02  0.59838403286E+02  0.10000000000E+01 0.  0.
    9000005    1    3    3    0    0 -0.13978049430E+02 -0.57020862466E+02  0.61039786534E+02  0.84697226415E+02  0.10000000000E+01 0.  0.
<mgrwt>
<rscale>  0 0.12499849E+03</rscale>
<asrwt>0</asrwt>
<pdfrwt beam="1">  1        4 0.27137792E-01 0.12499849E+03</pdfrwt>
<pdfrwt beam="2">  1       -4 0.89961154E-02 0.12499849E+03</pdfrwt>
<totfact> 0.18811324E+03</totfact>
</mgrwt>
</event>
<event>
 5    1  0.1438401E-002  0.1250014E+03  0.7818608E-02  0.1235067E+00
         -4   -1    0    0    0  501 -0.00000000000E+00  0.00000000000E+00  0.69706248521E+01  0.70853730197E+01  0.12700000000E+01 0.  1.
          4   -1    0    0  501    0  0.00000000000E+00 -0.00000000000E+00 -0.55570941467E+03  0.55571086587E+03  0.12700000000E+01 0.  1.
         25    2    1    2    0    0  0.00000000000E+00  0.00000000000E+00 -0.54873878981E+03  0.56279623889E+03  0.12500138825E+03 0.  0.
    9000005    1    3    3    0    0 -0.60111793036E+02 -0.16435883004E+02 -0.25336190889E+03  0.26091535560E+03  0.10000000000E+01 0.  0.
    9000005    1    3    3    0    0  0.60111793036E+02  0.16435883004E+02 -0.29537688092E+03  0.30188088329E+03  0.10000000000E+01 0.  0.
<mgrwt>
<rscale>  0 0.12500139E+03</rscale>
<asrwt>0</asrwt>
<pdfrwt beam="2">  1        4 0.13894173E+00 0.12500139E+03</pdfrwt>
<pdfrwt beam="1">  1       -4 0.17571830E-02 0.12500139E+03</pdfrwt>
<totfact> 0.78390110E+02</totfact>
</mgrwt>
</event>
<event>
 5    1  0.1438401E-002  0.1249920E+03  0.7818608E-02  0.1235082E+00
         -4   -1    0    0    0  501 -0.00000000000E+00  0.00000000000E+00  0.14592632254E+03  0.14593184885E+03  0.12700000000E+01 0. -1.
          4   -1    0    0  501    0  0.00000000000E+00 -0.00000000000E+00 -0.26744100412E+02  0.26774237745E+02  0.12700000000E+01 0. -1.
         25    2    1    2    0    0  0.00000000000E+00  0.00000000000E+00  0.11918222213E+03  0.17270608660E+03  0.12499196085E+03 0.  0.
    9000005    1    3    3    0    0 -0.28720839655E+02 -0.67530797089E+01  0.13570286552E+03  0.13887677425E+03  0.10000000000E+01 0.  0.
    9000005    1    3    3    0    0  0.28720839655E+02  0.67530797089E+01 -0.16520643390E+02  0.33829312350E+02  0.10000000000E+01 0.  0.
<mgrwt>
<rscale>  0 0.12499196E+03</rscale>
<asrwt>0</asrwt>
<pdfrwt beam="2">  1        4 0.66904832E-02 0.12499196E+03</pdfrwt>
<pdfrwt beam="1">  1       -4 0.36486038E-01 0.12499196E+03</pdfrwt>
<totfact> 0.17478938E+03</totfact>
</mgrwt>
</event>
<event>
 5    1  0.1438401E-002  0.1249964E+03  0.7818608E-02  0.1235075E+00
         -4   -1    0    0    0  501 -0.00000000000E+00  0.00000000000E+00  0.25760393116E+02  0.25791679928E+02  0.12700000000E+01 0. -1.
          4   -1    0    0  501    0  0.00000000000E+00 -0.00000000000E+00 -0.15150308219E+03  0.15150840509E+03  0.12700000000E+01 0. -1.
         25    2    1    2    0    0  0.00000000000E+00  0.00000000000E+00 -0.12574268907E+03  0.17730008502E+03  0.12499638511E+03 0.  0.
    9000005    1    3    3    0    0  0.43017156812E+02  0.42120068535E+02 -0.39117289603E+02  0.71803469968E+02  0.10000000000E+01 0.  0.
    9000005    1    3    3    0    0 -0.43017156812E+02 -0.42120068535E+02 -0.86625399470E+02  0.10549661505E+03  0.10000000000E+01 0.  0.
<mgrwt>
<rscale>  0 0.12499639E+03</rscale>
<asrwt>0</asrwt>
<pdfrwt beam="2">  1        4 0.37880344E-01 0.12499639E+03</pdfrwt>
<pdfrwt beam="1">  1       -4 0.64446749E-02 0.12499639E+03</pdfrwt>
<totfact> 0.17274170E+03</totfact>
</mgrwt>
</event>
<event>
 5    1  0.1438401E-002  0.1249993E+03  0.7818608E-02  0.1235070E+00
          4   -1    0    0  501    0  0.00000000000E+00  0.00000000000E+00  0.30524045645E+03  0.30524309846E+03  0.12700000000E+01 0.  1.
         -4   -1    0    0    0  501 -0.00000000000E+00 -0.00000000000E+00 -0.12762928815E+02  0.12825960079E+02  0.12700000000E+01 0.  1.
         25    2    1    2    0    0  0.00000000000E+00  0.00000000000E+00  0.29247752764E+03  0.31806905854E+03  0.12499928730E+03 0.  0.
    9000005    1    3    3    0    0  0.31882315552E+02  0.51892567724E+02  0.11062529438E+03  0.12628648536E+03  0.10000000000E+01 0.  0.
    9000005    1    3    3    0    0 -0.31882315552E+02 -0.51892567724E+02  0.18185223326E+03  0.19178257317E+03  0.10000000000E+01 0.  0.
<mgrwt>
<rscale>  0 0.12499929E+03</rscale>
<asrwt>0</asrwt>
<pdfrwt beam="1">  1        4 0.76318326E-01 0.12499929E+03</pdfrwt>
<pdfrwt beam="2">  1       -4 0.31989412E-02 0.12499929E+03</pdfrwt>
<totfact> 0.12479535E+03</totfact>
</mgrwt>
</event>
<event>
 5    1  0.1438401E-002  0.1249994E+03  0.7818608E-02  0.1235070E+00
          4   -1    0    0  501    0  0.00000000000E+00  0.00000000000E+00  0.29299392209E+02  0.29326903754E+02  0.12700000000E+01 0.  1.
         -4   -1    0    0    0  501 -0.00000000000E+00 -0.00000000000E+00 -0.13322746560E+03  0.13323351864E+03  0.12700000000E+01 0.  1.
         25    2    1    2    0    0  0.00000000000E+00  0.00000000000E+00 -0.10392807339E+03  0.16256042240E+03  0.12499938596E+03 0.  0.
    9000005    1    3    3    0    0  0.12019230337E+02 -0.67912626854E+01  0.27297891160E+02  0.30606502717E+02  0.10000000000E+01 0.  0.
    9000005    1    3    3    0    0 -0.12019230337E+02  0.67912626854E+01 -0.13122596455E+03  0.13195391968E+03  0.10000000000E+01 0.  0.
<mgrwt>
<rscale>  0 0.12499939E+03</rscale>
<asrwt>0</asrwt>
<pdfrwt beam="1">  1        4 0.73290440E-02 0.12499939E+03</pdfrwt>
<pdfrwt beam="2">  1       -4 0.33311060E-01 0.12499939E+03</pdfrwt>
<totfact> 0.17938175E+03</totfact>
</mgrwt>
</event>
<event>
 5    1  0.1438401E-002  0.1249944E+03  0.7818608E-02  0.1235078E+00
         -4   -1    0    0    0  501 -0.00000000000E+00  0.00000000000E+00  0.35861347718E+03  0.35861572597E+03  0.12700000000E+01 0.  1.
          4   -1    0    0  501    0  0.00000000000E+00 -0.00000000000E+00 -0.10852351125E+02  0.10926409518E+02  0.12700000000E+01 0.  1.
         25    2    1    2    0    0  0.00000000000E+00  0.00000000000E+00  0.34776112606E+03  0.36954213549E+03  0.12499435631E+03 0.  0.
    9000005    1    3    3    0    0 -0.59020728235E+02  0.18259205347E+02  0.20162296119E+03  0.21087831424E+03  0.10000000000E+01 0.  0.
    9000005    1    3    3    0    0  0.59020728235E+02 -0.18259205347E+02  0.14613816487E+03  0.15866382125E+03  0.10000000000E+01 0.  0.
<mgrwt>
<rscale>  0 0.12499436E+03</rscale>
<asrwt>0</asrwt>
<pdfrwt beam="2">  1        4 0.27226262E-02 0.12499436E+03</pdfrwt>
<pdfrwt beam="1">  1       -4 0.89662907E-01 0.12499436E+03</pdfrwt>
<totfact> 0.11226167E+03</totfact>
</mgrwt>
</event>
<event>
 5    1  0.1438401E-002  0.1250021E+03  0.7818608E-02  0.1235066E+00
          4   -1    0    0  501    0  0.00000000000E+00  0.00000000000E+00  0.73954556545E+02  0.73965460411E+02  0.12700000000E+01 0.  1.
         -4   -1    0    0    0  501 -0.00000000000E+00 -0.00000000000E+00 -0.52798966813E+02  0.52814238577E+02  0.12700000000E+01 0.  1.
         25    2    1    2    0    0  0.00000000000E+00  0.00000000000E+00  0.21155589732E+02  0.12677969899E+03  0.12500213238E+03 0.  0.
    9000005    1    3    3    0    0  0.22453185039E+02  0.23778087593E+02  0.64587670868E+02  0.72402418441E+02  0.10000000000E+01 0.  0.
    9000005    1    3    3    0    0 -0.22453185039E+02 -0.23778087593E+02 -0.43432081136E+02  0.54377280547E+02  0.10000000000E+01 0.  0.
<mgrwt>
<rscale>  0 0.12500213E+03</rscale>
<asrwt>0</asrwt>
<pdfrwt beam="1">  1        4 0.18491911E-01 0.12500213E+03</pdfrwt>
<pdfrwt beam="2">  1       -4 0.13203014E-01 0.12500213E+03</pdfrwt>
<totfact> 0.19737860E+03</totfact>
</mgrwt>
</event>
<event>
 5    1  0.1438401E-002  0.1250018E+03  0.7818608E-02  0.1235066E+00
         -4   -1    0    0    0  501 -0.00000000000E+00  0.00000000000E+00  0.37120453817E+03  0.37120671068E+03  0.12700000000E+01 0. -1.
          4   -1    0    0  501    0  0.00000000000E+00 -0.00000000000E+00 -0.10482956060E+02  0.10559605473E+02  0.12700000000E+01 0. -1.
         25    2    1    2    0    0  0.00000000000E+00  0.00000000000E+00  0.36072158211E+03  0.38176631616E+03  0.12500184140E+03 0.  0.
    9000005    1    3    3    0    0  0.23306769592E+02 -0.40791664779E+02  0.54504313702E+02  0.71964474822E+02  0.10000000000E+01 0.  0.
    9000005    1    3    3    0    0 -0.23306769592E+02  0.40791664779E+02  0.30621726840E+03  0.30980184133E+03  0.10000000000E+01 0.  0.
<mgrwt>
<rscale>  0 0.12500184E+03</rscale>
<asrwt>0</asrwt>
<pdfrwt beam="2">  1        4 0.26305918E-02 0.12500184E+03</pdfrwt>
<pdfrwt beam="1">  1       -4 0.92810987E-01 0.12500184E+03</pdfrwt>
<totfact> 0.10954221E+03</totfact>
</mgrwt>
</event>
<event>
 5    1  0.1438401E-002  0.1250019E+03  0.7818608E-02  0.1235066E+00
          4   -1    0    0  501    0  0.00000000000E+00  0.00000000000E+00  0.59211326774E+03  0.59211462972E+03  0.12700000000E+01 0. -1.
         -4   -1    0    0    0  501 -0.00000000000E+00 -0.00000000000E+00 -0.65348311721E+01  0.66570953462E+01  0.12700000000E+01 0. -1.
         25    2    1    2    0    0  0.00000000000E+00  0.00000000000E+00  0.58557843656E+03  0.59877172507E+03  0.12500189347E+03 0.  0.
    9000005    1    3    3    0    0 -0.58433234720E+02 -0.17416628155E+02  0.22718293013E+03  0.23522513811E+03  0.10000000000E+01 0.  0.
    9000005    1    3    3    0    0  0.58433234720E+02  0.17416628155E+02  0.35839550643E+03  0.36354658696E+03  0.10000000000E+01 0.  0.
<mgrwt>
<rscale>  0 0.12500189E+03</rscale>
<asrwt>0</asrwt>
<pdfrwt beam="1">  1        4 0.14804376E+00 0.12500189E+03</pdfrwt>
<pdfrwt beam="2">  1       -4 0.16491612E-02 0.12500189E+03</pdfrwt>
<totfact> 0.73654497E+02</totfact>
</mgrwt>
</event>
<event>
 5    1  0.1438401E-002  0.1249950E+03  0.7818608E-02  0.1235077E+00
         -4   -1    0    0    0  501 -0.00000000000E+00  0.00000000000E+00  0.44967305616E+02  0.44985236183E+02  0.12700000000E+01 0.  1.
          4   -1    0    0  501    0  0.00000000000E+00 -0.00000000000E+00 -0.86821839642E+02  0.86831127707E+02  0.12700000000E+01 0.  1.
         25    2    1    2    0    0  0.00000000000E+00  0.00000000000E+00 -0.41854534026E+02  0.13181636389E+03  0.12499500698E+03 0.  0.
    9000005    1    3    3    0    0  0.47203642802E+02 -0.90421003619E-01 -0.64110015969E+02  0.79619634622E+02  0.10000000000E+01 0.  0.
    9000005    1    3    3    0    0 -0.47203642802E+02  0.90421003619E-01  0.22255481943E+02  0.52196729268E+02  0.10000000000E+01 0.  0.
<mgrwt>
<rscale>  0 0.12499501E+03</rscale>
<asrwt>0</asrwt>
<pdfrwt beam="2">  1        4 0.21708862E-01 0.12499501E+03</pdfrwt>
<pdfrwt beam="1">  1       -4 0.11245229E-01 0.12499501E+03</pdfrwt>
<totfact> 0.19469493E+03</totfact>
</mgrwt>
</event>
<event>
 5    1  0.1438401E-002  0.1250008E+03  0.7818608E-02  0.1235068E+00
          4   -1    0    0  501    0  0.00000000000E+00  0.00000000000E+00  0.33761044905E+02  0.33784923458E+02  0.12700000000E+01 0. -1.
         -4   -1    0    0    0  501 -0.00000000000E+00 -0.00000000000E+00 -0.11563612220E+03  0.11564309602E+03  0.12700000000E+01 0. -1.
         25    2    1    2    0    0  0.00000000000E+00  0.00000000000E+00 -0.81875077293E+02  0.14942801948E+03  0.12500081889E+03 0.  0.
    9000005    1    3    3    0    0  0.49524703470E+02 -0.10475163469E+02 -0.84743893665E+02  0.98716527577E+02  0.10000000000E+01 0.  0.
    9000005    1    3    3    0    0 -0.49524703470E+02  0.10475163469E+02  0.28688163716E+01  0.50711491901E+02  0.10000000000E+01 0.  0.
<mgrwt>
<rscale>  0 0.12500082E+03</rscale>
<asrwt>0</asrwt>
<pdfrwt beam="1">  1        4 0.84441181E-02 0.12500082E+03</pdfrwt>
<pdfrwt beam="2">  1       -4 0.28912886E-01 0.12500082E+03</pdfrwt>
<totfact> 0.18566587E+03</totfact>
</mgrwt>
</event>
<event>
 5    1  0.1438401E-002  0.1250008E+03  0.7818608E-02  0.1235068E+00
          4   -1    0    0  501    0  0.00000000000E+00  0.00000000000E+00  0.98341968437E+01  0.99158624214E+01  0.12700000000E+01 0. -1.
         -4   -1    0    0    0  501 -0.00000000000E+00 -0.00000000000E+00 -0.39549079240E+03  0.39549283151E+03  0.12700000000E+01 0. -1.
         25    2    1    2    0    0  0.00000000000E+00  0.00000000000E+00 -0.38565659556E+03  0.40540869393E+03  0.12500079766E+03 0.  0.
    9000005    1    3    3    0    0 -0.78239149200E+01 -0.87642012058E+01  0.62362558965E+01  0.13338506478E+02  0.10000000000E+01 0.  0.
    9000005    1    3    3    0    0  0.78239149200E+01  0.87642012058E+01 -0.39189285146E+03  0.39207018745E+03  0.10000000000E+01 0.  0.
<mgrwt>
<rscale>  0 0.12500080E+03</rscale>
<asrwt>0</asrwt>
<pdfrwt beam="1">  1        4 0.24690136E-02 0.12500080E+03</pdfrwt>
<pdfrwt beam="2">  1       -4 0.98883108E-01 0.12500080E+03</pdfrwt>
<totfact> 0.10458445E+03</totfact>
</mgrwt>
</event>
<event>
 5    1  0.1438401E-002  0.1250004E+03  0.7818608E-02  0.1235069E+00
          4   -1    0    0  501    0  0.00000000000E+00  0.00000000000E+00  0.58932263806E+03  0.58932400649E+03  0.12700000000E+01 0. -1.
         -4   -1    0    0    0  501 -0.00000000000E+00 -0.00000000000E+00 -0.65661918898E+01  0.66878827691E+01  0.12700000000E+01 0. -1.
         25    2    1    2    0    0  0.00000000000E+00  0.00000000000E+00  0.58275644617E+03  0.59601188926E+03  0.12500038636E+03 0.  0.
    9000005    1    3    3    0    0 -0.42751200622E+02 -0.94249480089E+01  0.50401425960E+03  0.50591290622E+03  0.10000000000E+01 0.  0.
    9000005    1    3    3    0    0  0.42751200622E+02  0.94249480089E+01  0.78742186570E+02  0.90098983043E+02  0.10000000000E+01 0.  0.
<mgrwt>
<rscale>  0 0.12500039E+03</rscale>
<asrwt>0</asrwt>
<pdfrwt beam="1">  1        4 0.14734602E+00 0.12500039E+03</pdfrwt>
<pdfrwt beam="2">  1       -4 0.16569306E-02 0.12500039E+03</pdfrwt>
<totfact> 0.74006339E+02</totfact>
</mgrwt>
</event>
<event>
 5    1  0.1438401E-002  0.1249966E+03  0.7818608E-02  0.1235075E+00
         -4   -1    0    0    0  501 -0.00000000000E+00  0.00000000000E+00  0.10161192013E+02  0.10240250150E+02  0.12700000000E+01 0.  1.
          4   -1    0    0  501    0  0.00000000000E+00 -0.00000000000E+00 -0.38283770126E+03  0.38283980776E+03  0.12700000000E+01 0.  1.
         25    2    1    2    0    0  0.00000000000E+00  0.00000000000E+00 -0.37267650925E+03  0.39308005791E+03  0.12499660548E+03 0.  0.
    9000005    1    3    3    0    0 -0.32852965352E+02  0.19339274409E+01 -0.19283134229E+02  0.38156214087E+02  0.10000000000E+01 0.  0.
    9000005    1    3    3    0    0  0.32852965352E+02 -0.19339274409E+01 -0.35339337502E+03  0.35492384383E+03  0.10000000000E+01 0.  0.
<mgrwt>
<rscale>  0 0.12499661E+03</rscale>
<asrwt>0</asrwt>
<pdfrwt beam="2">  1        4 0.95719523E-01 0.12499661E+03</pdfrwt>
<pdfrwt beam="1">  1       -4 0.25504449E-02 0.12499661E+03</pdfrwt>
<totfact> 0.10713973E+03</totfact>
</mgrwt>
</event>
<event>
 5    1  0.1438401E-002  0.1250026E+03  0.7818608E-02  0.1235065E+00
         -4   -1    0    0    0  501 -0.00000000000E+00  0.00000000000E+00  0.10848182543E+03  0.10848925914E+03  0.12700000000E+01 0. -1.
          4   -1    0    0  501    0  0.00000000000E+00 -0.00000000000E+00 -0.35989965132E+02  0.36012365796E+02  0.12700000000E+01 0. -1.
         25    2    1    2    0    0  0.00000000000E+00  0.00000000000E+00  0.72491860300E+02  0.14450162494E+03  0.12500259917E+03 0.  0.
    9000005    1    3    3    0    0 -0.20690654564E+02 -0.40494687602E+02 -0.13306633171E+02  0.47391870575E+02  0.10000000000E+01 0.  0.
    9000005    1    3    3    0    0  0.20690654564E+02  0.40494687602E+02  0.85798493471E+02  0.97109754362E+02  0.10000000000E+01 0.  0.
<mgrwt>
<rscale>  0 0.12500260E+03</rscale>
<asrwt>0</asrwt>
<pdfrwt beam="2">  1        4 0.90012207E-02 0.12500260E+03</pdfrwt>
<pdfrwt beam="1">  1       -4 0.27124185E-01 0.12500260E+03</pdfrwt>
<totfact> 0.18811226E+03</totfact>
</mgrwt>
</event>
<event>
 5    1  0.1438401E-002  0.1249979E+03  0.7818608E-02  0.1235073E+00
          4   -1    0    0  501    0  0.00000000000E+00  0.00000000000E+00  0.24309542318E+03  0.24309874058E+03  0.12700000000E+01 0. -1.
         -4   -1    0    0    0  501 -0.00000000000E+00 -0.00000000000E+00 -0.16039713832E+02  0.16089913605E+02  0.12700000000E+01 0. -1.
         25    2    1    2    0    0  0.00000000000E+00  0.00000000000E+00  0.22705570935E+03  0.25918865418E+03  0.12499785322E+03 0.  0.
    9000005    1    3    3    0    0 -0.41533871708E+02  0.39657948740E+02  0.16462718714E+03  0.17435861362E+03  0.10000000000E+01 0.  0.
    9000005    1    3    3    0    0  0.41533871708E+02 -0.39657948740E+02  0.62428522207E+02  0.84830040565E+02  0.10000000000E+01 0.  0.
<mgrwt>
<rscale>  0 0.12499785E+03</rscale>
<asrwt>0</asrwt>
<pdfrwt beam="1">  1        4 0.60780546E-01 0.12499785E+03</pdfrwt>
<pdfrwt beam="2">  1       -4 0.40166181E-02 0.12499785E+03</pdfrwt>
<totfact> 0.14197942E+03</totfact>
</mgrwt>
</event>
<event>
 5    1  0.1438401E-002  0.1250011E+03  0.7818608E-02  0.1235068E+00
          4   -1    0    0  501    0  0.00000000000E+00  0.00000000000E+00  0.23427844892E+02  0.23462242354E+02  0.12700000000E+01 0.  1.
         -4   -1    0    0    0  501 -0.00000000000E+00 -0.00000000000E+00 -0.16657904806E+03  0.16658388923E+03  0.12700000000E+01 0.  1.
         25    2    1    2    0    0  0.00000000000E+00  0.00000000000E+00 -0.14315120316E+03  0.19004613159E+03  0.12500106065E+03 0.  0.
    9000005    1    3    3    0    0 -0.18379020924E+02 -0.30869624632E+01  0.19112063182E+02  0.26713081186E+02  0.10000000000E+01 0.  0.
    9000005    1    3    3    0    0  0.18379020924E+02  0.30869624632E+01 -0.16226326635E+03  0.16333305040E+03  0.10000000000E+01 0.  0.
<mgrwt>
<rscale>  0 0.12500106E+03</rscale>
<asrwt>0</asrwt>
<pdfrwt beam="1">  1        4 0.58618665E-02 0.12500106E+03</pdfrwt>
<pdfrwt beam="2">  1       -4 0.41649663E-01 0.12500106E+03</pdfrwt>
<totfact> 0.16728114E+03</totfact>
</mgrwt>
</event>
<event>
 5    1  0.1438401E-002  0.1250011E+03  0.7818608E-02  0.1235068E+00
          4   -1    0    0  501    0  0.00000000000E+00  0.00000000000E+00  0.24697802303E+03  0.24698128828E+03  0.12700000000E+01 0. -1.
         -4   -1    0    0    0  501 -0.00000000000E+00 -0.00000000000E+00 -0.15787601453E+02  0.15838600306E+02  0.12700000000E+01 0. -1.
         25    2    1    2    0    0  0.00000000000E+00  0.00000000000E+00  0.23119042158E+03  0.26281988859E+03  0.12500113122E+03 0.  0.
    9000005    1    3    3    0    0  0.41933355944E+02  0.18645028286E+02  0.20478052193E+03  0.20986211087E+03  0.10000000000E+01 0.  0.
    9000005    1    3    3    0    0 -0.41933355944E+02 -0.18645028286E+02  0.26409899653E+02  0.52957777712E+02  0.10000000000E+01 0.  0.
<mgrwt>
<rscale>  0 0.12500113E+03</rscale>
<asrwt>0</asrwt>
<pdfrwt beam="1">  1        4 0.61751289E-01 0.12500113E+03</pdfrwt>
<pdfrwt beam="2">  1       -4 0.39536834E-02 0.12500113E+03</pdfrwt>
<totfact> 0.14080681E+03</totfact>
</mgrwt>
</event>
<event>
 5    1  0.1438401E-002  0.1249997E+03  0.7818608E-02  0.1235070E+00
         -4   -1    0    0    0  501 -0.00000000000E+00  0.00000000000E+00  0.11346484471E+03  0.11347195197E+03  0.12700000000E+01 0.  1.
          4   -1    0    0  501    0  0.00000000000E+00 -0.00000000000E+00 -0.34406879293E+02  0.34430309941E+02  0.12700000000E+01 0.  1.
         25    2    1    2    0    0  0.00000000000E+00  0.00000000000E+00  0.79057965417E+02  0.14790226192E+03  0.12499966874E+03 0.  0.
    9000005    1    3    3    0    0 -0.38313781903E+02 -0.59316452684E+01 -0.18462125034E+02  0.42953234570E+02  0.10000000000E+01 0.  0.
    9000005    1    3    3    0    0  0.38313781903E+02  0.59316452684E+01  0.97520090451E+02  0.10494902735E+03  0.10000000000E+01 0.  0.
<mgrwt>
<rscale>  0 0.12499967E+03</rscale>
<asrwt>0</asrwt>
<pdfrwt beam="2">  1        4 0.86055372E-02 0.12499967E+03</pdfrwt>
<pdfrwt beam="1">  1       -4 0.28370028E-01 0.12499967E+03</pdfrwt>
<totfact> 0.18642554E+03</totfact>
</mgrwt>
</event>
<event>
 5    1  0.1438401E-002  0.1249995E+03  0.7818608E-02  0.1235070E+00
         -4   -1    0    0    0  501 -0.00000000000E+00  0.00000000000E+00  0.63036706553E+02  0.63049498594E+02  0.12700000000E+01 0.  1.
          4   -1    0    0  501    0  0.00000000000E+00 -0.00000000000E+00 -0.61941788073E+02  0.61954806187E+02  0.12700000000E+01 0.  1.
         25    2    1    2    0    0  0.00000000000E+00  0.00000000000E+00  0.10949184792E+01  0.12500430478E+03  0.12499950947E+03 0.  0.
    9000005    1    3    3    0    0  0.23124111726E+02  0.19872279556E+00  0.58605308943E+02  0.63010683778E+02  0.10000000000E+01 0.  0.
    9000005    1    3    3    0    0 -0.23124111726E+02 -0.19872279556E+00 -0.57510390464E+02  0.61993621004E+02  0.10000000000E+01 0.  0.
<mgrwt>
<rscale>  0 0.12499951E+03</rscale>
<asrwt>0</asrwt>
<pdfrwt beam="2">  1        4 0.15488673E-01 0.12499951E+03</pdfrwt>
<pdfrwt beam="1">  1       -4 0.15762403E-01 0.12499951E+03</pdfrwt>
<totfact> 0.19835050E+03</totfact>
</mgrwt>
</event>
<event>
 5    1  0.1438401E-002  0.1250009E+03  0.7818608E-02  0.1235068E+00
         -4   -1    0    0    0  501 -0.00000000000E+00  0.00000000000E+00  0.54982654042E+02  0.54997319439E+02  0.12700000000E+01 0. -1.
          4   -1    0    0  501    0  0.00000000000E+00 -0.00000000000E+00 -0.71016300720E+02  0.71027655655E+02  0.12700000000E+01 0. -1.
         25    2    1    2    0    0  0.00000000000E+00  0.00000000000E+00 -0.16033646677E+02  0.12602497509E+03  0.12500086608E+03 0.  0.
    9000005    1    3    3    0    0  0.40600380497E+01  0.31069502278E+02  0.46495615384E+02  0.56077090962E+02  0.10000000000E+01 0.  0.
    9000005    1    3    3    0    0 -0.40600380497E+01 -0.31069502278E+02 -0.62529262061E+02  0.69947884133E+02  0.10000000000E+01 0.  0.
<mgrwt>
<rscale>  0 0.12500087E+03</rscale>
<asrwt>0</asrwt>
<pdfrwt beam="2">  1        4 0.17757328E-01 0.12500087E+03</pdfrwt>
<pdfrwt beam="1">  1       -4 0.13748916E-01 0.12500087E+03</pdfrwt>
<totfact> 0.19779170E+03</totfact>
</mgrwt>
</event>
<event>
 5    1  0.1438401E-002  0.1249924E+03  0.7818608E-02  0.1235081E+00
         -4   -1    0    0    0  501 -0.00000000000E+00  0.00000000000E+00  0.59240545973E+03  0.59240682105E+03  0.12700000000E+01 0.  1.
          4   -1    0    0  501    0  0.00000000000E+00 -0.00000000000E+00 -0.65305372677E+01  0.66528803540E+01  0.12700000000E+01 0.  1.
         25    2    1    2    0    0  0.00000000000E+00  0.00000000000E+00  0.58587492246E+03  0.59905970140E+03  0.12499240404E+03 0.  0.
    9000005    1    3    3    0    0 -0.31549799027E+02  0.51421285775E+02  0.21488198305E+03  0.22319230518E+03  0.10000000000E+01 0.  0.
    9000005    1    3    3    0    0  0.31549799027E+02 -0.51421285775E+02  0.37099293941E+03  0.37586739622E+03  0.10000000000E+01 0.  0.
<mgrwt>
<rscale>  0 0.12499240E+03</rscale>
<asrwt>0</asrwt>
<pdfrwt beam="2">  1        4 0.16480978E-02 0.12499240E+03</pdfrwt>
<pdfrwt beam="1">  1       -4 0.14811679E+00 0.12499240E+03</pdfrwt>
<totfact> 0.73634001E+02</totfact>
</mgrwt>
</event>
<event>
 5    1  0.1438401E-002  0.1250044E+03  0.7818608E-02  0.1235062E+00
         -4   -1    0    0    0  501 -0.00000000000E+00  0.00000000000E+00  0.80276262786E+01  0.81274647750E+01  0.12700000000E+01 0.  1.
          4   -1    0    0  501    0  0.00000000000E+00 -0.00000000000E+00 -0.48352681037E+03  0.48352847822E+03  0.12700000000E+01 0.  1.
         25    2    1    2    0    0  0.00000000000E+00  0.00000000000E+00 -0.47549918409E+03  0.49165594299E+03  0.12500436875E+03 0.  0.
    9000005    1    3    3    0    0  0.39496157922E+01 -0.20401654498E+02 -0.46955950887E+03  0.47002016908E+03  0.10000000000E+01 0.  0.
    9000005    1    3    3    0    0 -0.39496157922E+01  0.20401654498E+02 -0.59396752253E+01  0.21635773916E+02  0.10000000000E+01 0.  0.
<mgrwt>
<rscale>  0 0.12500437E+03</rscale>
<asrwt>0</asrwt>
<pdfrwt beam="2">  1        4 0.12089429E+00 0.12500437E+03</pdfrwt>
<pdfrwt beam="1">  1       -4 0.20195965E-02 0.12500437E+03</pdfrwt>
<totfact> 0.88940299E+02</totfact>
</mgrwt>
</event>
<event>
 5    1  0.1438401E-002  0.1250032E+03  0.7818608E-02  0.1235064E+00
          4   -1    0    0  501    0  0.00000000000E+00  0.00000000000E+00  0.40409008192E+01  0.42357737700E+01  0.12700000000E+01 0. -1.
         -4   -1    0    0    0  501 -0.00000000000E+00 -0.00000000000E+00 -0.94377027725E+03  0.94377113174E+03  0.12700000000E+01 0. -1.
         25    2    1    2    0    0  0.00000000000E+00  0.00000000000E+00 -0.93972937643E+03  0.94800690551E+03  0.12500316789E+03 0.  0.
    9000005    1    3    3    0    0 -0.54186256528E+02  0.10526294148E+02 -0.69207248766E+03  0.69427104321E+03  0.10000000000E+01 0.  0.
    9000005    1    3    3    0    0  0.54186256528E+02 -0.10526294148E+02 -0.24765688876E+03  0.25373586230E+03  0.10000000000E+01 0.  0.
<mgrwt>
<rscale>  0 0.12500317E+03</rscale>
<asrwt>0</asrwt>
<pdfrwt beam="1">  1        4 0.10346944E-02 0.12500317E+03</pdfrwt>
<pdfrwt beam="2">  1       -4 0.23596630E+00 0.12500317E+03</pdfrwt>
<totfact> 0.40717289E+02</totfact>
</mgrwt>
</event>
<event>
 5    1  0.1438401E-002  0.1249956E+03  0.7818608E-02  0.1235076E+00
          4   -1    0    0  501    0  0.00000000000E+00  0.00000000000E+00  0.78149322122E+02  0.78159640788E+02  0.12700000000E+01 0.  1.
         -4   -1    0    0    0  501 -0.00000000000E+00 -0.00000000000E+00 -0.49959223953E+02  0.49975363510E+02  0.12700000000E+01 0.  1.
         25    2    1    2    0    0  0.00000000000E+00  0.00000000000E+00  0.28190098169E+02  0.12813500430E+03  0.12499559069E+03 0.  0.
    9000005    1    3    3    0    0 -0.55783613888E+02  0.27216541840E+02  0.66728471543E+01  0.62434594715E+02  0.10000000000E+01 0.  0.
    9000005    1    3    3    0    0  0.55783613888E+02 -0.27216541840E+02  0.21517251014E+02  0.65700409583E+02  0.10000000000E+01 0.  0.
<mgrwt>
<rscale>  0 0.12499559E+03</rscale>
<asrwt>0</asrwt>
<pdfrwt beam="1">  1        4 0.19540638E-01 0.12499559E+03</pdfrwt>
<pdfrwt beam="2">  1       -4 0.12493113E-01 0.12499559E+03</pdfrwt>
<totfact> 0.19667216E+03</totfact>
</mgrwt>
</event>
<event>
 5    1  0.1438401E-002  0.1249973E+03  0.7818608E-02  0.1235073E+00
         -4   -1    0    0    0  501 -0.00000000000E+00  0.00000000000E+00  0.43661604293E+02  0.43680070849E+02  0.12700000000E+01 0.  1.
          4   -1    0    0  501    0  0.00000000000E+00 -0.00000000000E+00 -0.89420790380E+02  0.89429808521E+02  0.12700000000E+01 0.  1.
         25    2    1    2    0    0  0.00000000000E+00  0.00000000000E+00 -0.45759186087E+02  0.13310987937E+03  0.12499734747E+03 0.  0.
    9000005    1    3    3    0    0 -0.15677828435E+02  0.12490446182E+01  0.41524772038E+02  0.44414649719E+02  0.10000000000E+01 0.  0.
    9000005    1    3    3    0    0  0.15677828435E+02 -0.12490446182E+01 -0.87283958125E+02  0.88695229651E+02  0.10000000000E+01 0.  0.
<mgrwt>
<rscale>  0 0.12499735E+03</rscale>
<asrwt>0</asrwt>
<pdfrwt beam="2">  1        4 0.22358633E-01 0.12499735E+03</pdfrwt>
<pdfrwt beam="1">  1       -4 0.10918837E-01 0.12499735E+03</pdfrwt>
<totfact> 0.19399804E+03</totfact>
</mgrwt>
</event>
<event>
 5    1  0.1438401E-002  0.1249998E+03  0.7818608E-02  0.1235070E+00
          4   -1    0    0  501    0  0.00000000000E+00  0.00000000000E+00  0.30737287849E+02  0.30763513523E+02  0.12700000000E+01 0. -1.
         -4   -1    0    0    0  501 -0.00000000000E+00 -0.00000000000E+00 -0.12700115244E+03  0.12700750223E+03  0.12700000000E+01 0. -1.
         25    2    1    2    0    0  0.00000000000E+00  0.00000000000E+00 -0.96263864595E+02  0.15777101575E+03  0.12499984714E+03 0.  0.
    9000005    1    3    3    0    0 -0.41723264882E+02  0.55330616935E+01  0.10171493009E+02  0.43311717515E+02  0.10000000000E+01 0.  0.
    9000005    1    3    3    0    0  0.41723264882E+02 -0.55330616935E+01 -0.10643535760E+03  0.11445929824E+03  0.10000000000E+01 0.  0.
<mgrwt>
<rscale>  0 0.12499985E+03</rscale>
<asrwt>0</asrwt>
<pdfrwt beam="1">  1        4 0.76883942E-02 0.12499985E+03</pdfrwt>
<pdfrwt beam="2">  1       -4 0.31754359E-01 0.12499985E+03</pdfrwt>
<totfact> 0.18163225E+03</totfact>
</mgrwt>
</event>
<event>
 5    1  0.1438401E-002  0.1249983E+03  0.7818608E-02  0.1235072E+00
         -4   -1    0    0    0  501 -0.00000000000E+00  0.00000000000E+00  0.56629547631E+02  0.56643786640E+02  0.12700000000E+01 0. -1.
          4   -1    0    0  501    0  0.00000000000E+00 -0.00000000000E+00 -0.68948368838E+02  0.68960064280E+02  0.12700000000E+01 0. -1.
         25    2    1    2    0    0  0.00000000000E+00  0.00000000000E+00 -0.12318821207E+02  0.12560385092E+03  0.12499829603E+03 0.  0.
    9000005    1    3    3    0    0  0.49164470690E+02  0.38502827140E+02 -0.85225319454E+01  0.63033692791E+02  0.10000000000E+01 0.  0.
    9000005    1    3    3    0    0 -0.49164470690E+02 -0.38502827140E+02 -0.37962892621E+01  0.62570158129E+02  0.10000000000E+01 0.  0.
<mgrwt>
<rscale>  0 0.12499830E+03</rscale>
<asrwt>0</asrwt>
<pdfrwt beam="2">  1        4 0.17240334E-01 0.12499830E+03</pdfrwt>
<pdfrwt beam="1">  1       -4 0.14160629E-01 0.12499830E+03</pdfrwt>
<totfact> 0.19803132E+03</totfact>
</mgrwt>
</event>
<event>
 5    1  0.1438401E-002  0.1249980E+03  0.7818608E-02  0.1235072E+00
          4   -1    0    0  501    0  0.00000000000E+00  0.00000000000E+00  0.25017251070E+02  0.25049466084E+02  0.12700000000E+01 0.  1.
         -4   -1    0    0    0  501 -0.00000000000E+00 -0.00000000000E+00 -0.15600208070E+03  0.15600725009E+03  0.12700000000E+01 0.  1.
         25    2    1    2    0    0  0.00000000000E+00  0.00000000000E+00 -0.13098482963E+03  0.18105671618E+03  0.12499803551E+03 0.  0.
    9000005    1    3    3    0    0  0.27377864366E+02 -0.55825410922E+02 -0.74550114653E+02  0.97081118435E+02  0.10000000000E+01 0.  0.
    9000005    1    3    3    0    0 -0.27377864366E+02  0.55825410922E+02 -0.56434714972E+02  0.83975597740E+02  0.10000000000E+01 0.  0.
<mgrwt>
<rscale>  0 0.12499804E+03</rscale>
<asrwt>0</asrwt>
<pdfrwt beam="1">  1        4 0.62589863E-02 0.12499804E+03</pdfrwt>
<pdfrwt beam="2">  1       -4 0.39005190E-01 0.12499804E+03</pdfrwt>
<totfact> 0.17110352E+03</totfact>
</mgrwt>
</event>
<event>
 5    1  0.1438401E-002  0.1249994E+03  0.7818608E-02  0.1235070E+00
         -4   -1    0    0    0  501 -0.00000000000E+00  0.00000000000E+00  0.57618848808E+02  0.57632843397E+02  0.12700000000E+01 0.  1.
          4   -1    0    0  501    0  0.00000000000E+00 -0.00000000000E+00 -0.67765829748E+02  0.67777729244E+02  0.12700000000E+01 0.  1.
         25    2    1    2    0    0  0.00000000000E+00  0.00000000000E+00 -0.10146980940E+02  0.12541057264E+03  0.12499940203E+03 0.  0.
    9000005    1    3    3    0    0 -0.50958511408E+02  0.97672767256E+00 -0.41351645721E+02  0.65640555190E+02  0.10000000000E+01 0.  0.
    9000005    1    3    3    0    0  0.50958511408E+02 -0.97672767256E+00  0.31204664781E+02  0.59770017450E+02  0.10000000000E+01 0.  0.
<mgrwt>
<rscale>  0 0.12499940E+03</rscale>
<asrwt>0</asrwt>
<pdfrwt beam="2">  1        4 0.16944694E-01 0.12499940E+03</pdfrwt>
<pdfrwt beam="1">  1       -4 0.14407949E-01 0.12499940E+03</pdfrwt>
<totfact> 0.19813083E+03</totfact>
</mgrwt>
</event>
<event>
 5    1  0.1438401E-002  0.1250010E+03  0.7818608E-02  0.1235068E+00
          4   -1    0    0  501    0  0.00000000000E+00  0.00000000000E+00  0.40437518273E+02  0.40457456471E+02  0.12700000000E+01 0. -1.
         -4   -1    0    0    0  501 -0.00000000000E+00 -0.00000000000E+00 -0.96553204116E+02  0.96561556145E+02  0.12700000000E+01 0. -1.
         25    2    1    2    0    0  0.00000000000E+00  0.00000000000E+00 -0.56115685843E+02  0.13701901262E+03  0.12500095848E+03 0.  0.
    9000005    1    3    3    0    0  0.49871040522E+02 -0.31344625686E+02 -0.50938215706E+02  0.77880087708E+02  0.10000000000E+01 0.  0.
    9000005    1    3    3    0    0 -0.49871040522E+02  0.31344625686E+02 -0.51774701368E+01  0.59138924907E+02  0.10000000000E+01 0.  0.
<mgrwt>
<rscale>  0 0.12500096E+03</rscale>
<asrwt>0</asrwt>
<pdfrwt beam="1">  1        4 0.10112916E-01 0.12500096E+03</pdfrwt>
<pdfrwt beam="2">  1       -4 0.24141837E-01 0.12500096E+03</pdfrwt>
<totfact> 0.19193470E+03</totfact>
</mgrwt>
</event>
<event>
 5    1  0.1438401E-002  0.1250016E+03  0.7818608E-02  0.1235067E+00
         -4   -1    0    0    0  501 -0.00000000000E+00  0.00000000000E+00  0.67916375896E+02  0.67928249019E+02  0.12700000000E+01 0.  1.
          4   -1    0    0  501    0  0.00000000000E+00 -0.00000000000E+00 -0.57493102975E+02  0.57507128164E+02  0.12700000000E+01 0.  1.
         25    2    1    2    0    0  0.00000000000E+00  0.00000000000E+00  0.10423272921E+02  0.12543537718E+03  0.12500155691E+03 0.  0.
    9000005    1    3    3    0    0  0.24447716915E+02  0.50263081623E+02 -0.22836739052E+02  0.60386959578E+02  0.10000000000E+01 0.  0.
    9000005    1    3    3    0    0 -0.24447716915E+02 -0.50263081623E+02  0.33260011973E+02  0.65048417605E+02  0.10000000000E+01 0.  0.
<mgrwt>
<rscale>  0 0.12500156E+03</rscale>
<asrwt>0</asrwt>
<pdfrwt beam="2">  1        4 0.14376513E-01 0.12500156E+03</pdfrwt>
<pdfrwt beam="1">  1       -4 0.16982331E-01 0.12500156E+03</pdfrwt>
<totfact> 0.19810741E+03</totfact>
</mgrwt>
</event>
<event>
 5    1  0.1438401E-002  0.1250079E+03  0.7818608E-02  0.1235057E+00
          4   -1    0    0  501    0  0.00000000000E+00  0.00000000000E+00  0.28127778310E+03  0.28128065018E+03  0.12700000000E+01 0.  1.
         -4   -1    0    0    0  501 -0.00000000000E+00 -0.00000000000E+00 -0.13857292075E+02  0.13915367176E+02  0.12700000000E+01 0.  1.
         25    2    1    2    0    0  0.00000000000E+00  0.00000000000E+00  0.26742049103E+03  0.29519601736E+03  0.12500787832E+03 0.  0.
    9000005    1    3    3    0    0  0.24187906176E+02 -0.46121975425E+02  0.21528868697E+03  0.22150058726E+03  0.10000000000E+01 0.  0.
    9000005    1    3    3    0    0 -0.24187906176E+02  0.46121975425E+02  0.52131804061E+02  0.73695430096E+02  0.10000000000E+01 0.  0.
<mgrwt>
<rscale>  0 0.12500788E+03</rscale>
<asrwt>0</asrwt>
<pdfrwt beam="1">  1        4 0.70327066E-01 0.12500788E+03</pdfrwt>
<pdfrwt beam="2">  1       -4 0.34719407E-02 0.12500788E+03</pdfrwt>
<totfact> 0.13104406E+03</totfact>
</mgrwt>
</event>
<event>
 5    1  0.1438401E-002  0.1249981E+03  0.7818608E-02  0.1235072E+00
          4   -1    0    0  501    0  0.00000000000E+00  0.00000000000E+00  0.51623800837E+03  0.51623957053E+03  0.12700000000E+01 0.  1.
         -4   -1    0    0    0  501 -0.00000000000E+00 -0.00000000000E+00 -0.75116612662E+01  0.76182645647E+01  0.12700000000E+01 0.  1.
         25    2    1    2    0    0  0.00000000000E+00  0.00000000000E+00  0.50872634710E+03  0.52385783510E+03  0.12499814062E+03 0.  0.
    9000005    1    3    3    0    0 -0.54164315287E+02  0.29632321305E+02  0.29484114707E+03  0.30123769606E+03  0.10000000000E+01 0.  0.
    9000005    1    3    3    0    0  0.54164315287E+02 -0.29632321305E+02  0.21388520003E+03  0.22262013904E+03  0.10000000000E+01 0.  0.
<mgrwt>
<rscale>  0 0.12499814E+03</rscale>
<asrwt>0</asrwt>
<pdfrwt beam="1">  1        4 0.12907302E+00 0.12499814E+03</pdfrwt>
<pdfrwt beam="2">  1       -4 0.18914361E-02 0.12499814E+03</pdfrwt>
<totfact> 0.83936574E+02</totfact>
</mgrwt>
</event>
<event>
 5    1  0.1438401E-002  0.1250002E+03  0.7818608E-02  0.1235069E+00
          4   -1    0    0  501    0  0.00000000000E+00  0.00000000000E+00  0.28681898501E+02  0.28710001770E+02  0.12700000000E+01 0. -1.
         -4   -1    0    0    0  501 -0.00000000000E+00 -0.00000000000E+00 -0.13609494428E+03  0.13610086980E+03  0.12700000000E+01 0. -1.
         25    2    1    2    0    0  0.00000000000E+00  0.00000000000E+00 -0.10741304578E+03  0.16481087156E+03  0.12500024393E+03 0.  0.
    9000005    1    3    3    0    0 -0.51972471179E+02  0.23656864564E+02 -0.20234666460E+02  0.60590648852E+02  0.10000000000E+01 0.  0.
    9000005    1    3    3    0    0  0.51972471179E+02 -0.23656864564E+02 -0.87178379320E+02  0.10422022271E+03  0.10000000000E+01 0.  0.
<mgrwt>
<rscale>  0 0.12500024E+03</rscale>
<asrwt>0</asrwt>
<pdfrwt beam="1">  1        4 0.71747286E-02 0.12500024E+03</pdfrwt>
<pdfrwt beam="2">  1       -4 0.34027988E-01 0.12500024E+03</pdfrwt>
<totfact> 0.17833569E+03</totfact>
</mgrwt>
</event>
<event>
 5    1  0.1438401E-002  0.1250013E+03  0.7818608E-02  0.1235067E+00
         -4   -1    0    0    0  501 -0.00000000000E+00  0.00000000000E+00  0.97506397448E+02  0.97514667837E+02  0.12700000000E+01 0.  1.
          4   -1    0    0  501    0  0.00000000000E+00 -0.00000000000E+00 -0.40042277270E+02  0.40062412171E+02  0.12700000000E+01 0.  1.
         25    2    1    2    0    0  0.00000000000E+00  0.00000000000E+00  0.57464120178E+02  0.13757708001E+03  0.12500131134E+03 0.  0.
    9000005    1    3    3    0    0 -0.22975404217E+02  0.32966991276E+00  0.92693733199E+02  0.95504481861E+02  0.10000000000E+01 0.  0.
    9000005    1    3    3    0    0  0.22975404217E+02 -0.32966991276E+00 -0.35229613021E+02  0.42072598146E+02  0.10000000000E+01 0.  0.
<mgrwt>
<rscale>  0 0.12500131E+03</rscale>
<asrwt>0</asrwt>
<pdfrwt beam="2">  1        4 0.10014120E-01 0.12500131E+03</pdfrwt>
<pdfrwt beam="1">  1       -4 0.24380150E-01 0.12500131E+03</pdfrwt>
<totfact> 0.19164403E+03</totfact>
</mgrwt>
</event>
<event>
 5    1  0.1438401E-002  0.1250009E+03  0.7818608E-02  0.1235068E+00
          4   -1    0    0  501    0  0.00000000000E+00  0.00000000000E+00  0.32402944497E+02  0.32427823116E+02  0.12700000000E+01 0. -1.
         -4   -1    0    0    0  501 -0.00000000000E+00 -0.00000000000E+00 -0.12047954713E+03  0.12048624061E+03  0.12700000000E+01 0. -1.
         25    2    1    2    0    0  0.00000000000E+00  0.00000000000E+00 -0.88076602635E+02  0.15291406373E+03  0.12500089182E+03 0.  0.
    9000005    1    3    3    0    0 -0.34707002253E+02 -0.31169649757E+02  0.68308808312E+01  0.47157014370E+02  0.10000000000E+01 0.  0.
    9000005    1    3    3    0    0  0.34707002253E+02  0.31169649757E+02 -0.94907483466E+02  0.10575704936E+03  0.10000000000E+01 0.  0.
<mgrwt>
<rscale>  0 0.12500089E+03</rscale>
<asrwt>0</asrwt>
<pdfrwt beam="1">  1        4 0.81046829E-02 0.12500089E+03</pdfrwt>
<pdfrwt beam="2">  1       -4 0.30123832E-01 0.12500089E+03</pdfrwt>
<totfact> 0.18396037E+03</totfact>
</mgrwt>
</event>
<event>
 5    1  0.1438401E-002  0.1250064E+03  0.7818608E-02  0.1235059E+00
          4   -1    0    0  501    0  0.00000000000E+00  0.00000000000E+00  0.55365417436E+02  0.55379981472E+02  0.12700000000E+01 0.  1.
         -4   -1    0    0    0  501 -0.00000000000E+00 -0.00000000000E+00 -0.70531592472E+02  0.70543025429E+02  0.12700000000E+01 0.  1.
         25    2    1    2    0    0  0.00000000000E+00  0.00000000000E+00 -0.15166175036E+02  0.12592300690E+03  0.12500636304E+03 0.  0.
    9000005    1    3    3    0    0 -0.22633071542E+02 -0.46613564544E+02 -0.42775889354E+02  0.67200126763E+02  0.10000000000E+01 0.  0.
    9000005    1    3    3    0    0  0.22633071542E+02  0.46613564544E+02  0.27609714318E+02  0.58722880138E+02  0.10000000000E+01 0.  0.
<mgrwt>
<rscale>  0 0.12500636E+03</rscale>
<asrwt>0</asrwt>
<pdfrwt beam="1">  1        4 0.13844604E-01 0.12500636E+03</pdfrwt>
<pdfrwt beam="2">  1       -4 0.17636148E-01 0.12500636E+03</pdfrwt>
<totfact> 0.19782136E+03</totfact>
</mgrwt>
</event>
<event>
 5    1  0.1438401E-002  0.1250007E+03  0.7818608E-02  0.1235068E+00
         -4   -1    0    0    0  501 -0.00000000000E+00  0.00000000000E+00  0.86827826253E+01  0.87751703185E+01  0.12700000000E+01 0.  1.
          4   -1    0    0  501    0  0.00000000000E+00 -0.00000000000E+00 -0.44741560161E+03  0.44741740407E+03  0.12700000000E+01 0.  1.
         25    2    1    2    0    0  0.00000000000E+00  0.00000000000E+00 -0.43873281899E+03  0.45619257439E+03  0.12500071389E+03 0.  0.
    9000005    1    3    3    0    0 -0.18817895733E+02  0.50982568478E+02 -0.33196808949E+03  0.33638838852E+03  0.10000000000E+01 0.  0.
    9000005    1    3    3    0    0  0.18817895733E+02 -0.50982568478E+02 -0.10676472949E+03  0.11980418587E+03  0.10000000000E+01 0.  0.
<mgrwt>
<rscale>  0 0.12500071E+03</rscale>
<asrwt>0</asrwt>
<pdfrwt beam="2">  1        4 0.11186560E+00 0.12500071E+03</pdfrwt>
<pdfrwt beam="1">  1       -4 0.21824709E-02 0.12500071E+03</pdfrwt>
<totfact> 0.94914223E+02</totfact>
</mgrwt>
</event>
<event>
 5    1  0.1438401E-002  0.1250008E+03  0.7818608E-02  0.1235068E+00
          4   -1    0    0  501    0  0.00000000000E+00  0.00000000000E+00  0.52699456093E+02  0.52714756686E+02  0.12700000000E+01 0.  1.
         -4   -1    0    0    0  501 -0.00000000000E+00 -0.00000000000E+00 -0.74092594286E+02  0.74103477841E+02  0.12700000000E+01 0.  1.
         25    2    1    2    0    0  0.00000000000E+00  0.00000000000E+00 -0.21393138194E+02  0.12681823453E+03  0.12500079298E+03 0.  0.
    9000005    1    3    3    0    0 -0.45401890752E+02  0.42219219243E+02 -0.18653133343E+02  0.64751320765E+02  0.10000000000E+01 0.  0.
    9000005    1    3    3    0    0  0.45401890752E+02 -0.42219219243E+02 -0.27400048508E+01  0.62066913762E+02  0.10000000000E+01 0.  0.
<mgrwt>
<rscale>  0 0.12500079E+03</rscale>
<asrwt>0</asrwt>
<pdfrwt beam="1">  1        4 0.13178137E-01 0.12500079E+03</pdfrwt>
<pdfrwt beam="2">  1       -4 0.18526422E-01 0.12500079E+03</pdfrwt>
<totfact> 0.19736402E+03</totfact>
</mgrwt>
</event>
<event>
 5    1  0.1438401E-002  0.1249982E+03  0.7818608E-02  0.1235072E+00
         -4   -1    0    0    0  501 -0.00000000000E+00  0.00000000000E+00  0.47973368016E+02  0.47990175441E+02  0.12700000000E+01 0.  1.
          4   -1    0    0  501    0  0.00000000000E+00 -0.00000000000E+00 -0.81387017861E+02  0.81396926086E+02  0.12700000000E+01 0.  1.
         25    2    1    2    0    0  0.00000000000E+00  0.00000000000E+00 -0.33413649844E+02  0.12938710153E+03  0.12499820017E+03 0.  0.
    9000005    1    3    3    0    0  0.23421243592E+02  0.51669453166E+02 -0.43834859113E+02  0.71699246267E+02  0.10000000000E+01 0.  0.
    9000005    1    3    3    0    0 -0.23421243592E+02 -0.51669453166E+02  0.10421209269E+02  0.57687855260E+02  0.10000000000E+01 0.  0.
<mgrwt>
<rscale>  0 0.12499820E+03</rscale>
<asrwt>0</asrwt>
<pdfrwt beam="2">  1        4 0.20350094E-01 0.12499820E+03</pdfrwt>
<pdfrwt beam="1">  1       -4 0.11996682E-01 0.12499820E+03</pdfrwt>
<totfact> 0.19598212E+03</totfact>
</mgrwt>
</event>
<event>
 5    1  0.1438401E-002  0.1250001E+03  0.7818608E-02  0.1235069E+00
         -4   -1    0    0    0  501 -0.00000000000E+00  0.00000000000E+00  0.15846115605E+02  0.15896926740E+02  0.12700000000E+01 0. -1.
          4   -1    0    0  501    0  0.00000000000E+00 -0.00000000000E+00 -0.24606505057E+03  0.24606832794E+03  0.12700000000E+01 0. -1.
         25    2    1    2    0    0  0.00000000000E+00  0.00000000000E+00 -0.23021893497E+03  0.26196525468E+03  0.12500014656E+03 0.  0.
    9000005    1    3    3    0    0  0.28736298745E+02 -0.29869095605E+02 -0.21312377461E+03  0.21711904809E+03  0.10000000000E+01 0.  0.
    9000005    1    3    3    0    0 -0.28736298745E+02  0.29869095605E+02 -0.17095160356E+02  0.44846206589E+02  0.10000000000E+01 0.  0.
<mgrwt>
<rscale>  0 0.12500015E+03</rscale>
<asrwt>0</asrwt>
<pdfrwt beam="2">  1        4 0.61523011E-01 0.12500015E+03</pdfrwt>
<pdfrwt beam="1">  1       -4 0.39682908E-02 0.12500015E+03</pdfrwt>
<totfact> 0.14108215E+03</totfact>
</mgrwt>
</event>
<event>
 5    1  0.1438401E-002  0.1249986E+03  0.7818608E-02  0.1235071E+00
          4   -1    0    0  501    0  0.00000000000E+00  0.00000000000E+00  0.47441067558E+02  0.47458063499E+02  0.12700000000E+01 0.  1.
         -4   -1    0    0    0  501 -0.00000000000E+00 -0.00000000000E+00 -0.82300560603E+02  0.82310358860E+02  0.12700000000E+01 0.  1.
         25    2    1    2    0    0  0.00000000000E+00  0.00000000000E+00 -0.34859493045E+02  0.12976842236E+03  0.12499863674E+03 0.  0.
    9000005    1    3    3    0    0  0.57565237333E+02  0.15529096562E+01  0.77655913137E+01  0.58116026069E+02  0.10000000000E+01 0.  0.
    9000005    1    3    3    0    0 -0.57565237333E+02 -0.15529096562E+01 -0.42625084359E+02  0.71652396290E+02  0.10000000000E+01 0.  0.
<mgrwt>
<rscale>  0 0.12499864E+03</rscale>
<asrwt>0</asrwt>
<pdfrwt beam="1">  1        4 0.11863616E-01 0.12499864E+03</pdfrwt>
<pdfrwt beam="2">  1       -4 0.20578489E-01 0.12499864E+03</pdfrwt>
<totfact> 0.19577463E+03</totfact>
</mgrwt>
</event>
<event>
 5    1  0.1438401E-002  0.1250225E+03  0.7818608E-02  0.1235034E+00
          4   -1    0    0  501    0  0.00000000000E+00  0.00000000000E+00  0.13401104961E+02  0.13461148323E+02  0.12700000000E+01 0.  1.
         -4   -1    0    0    0  501 -0.00000000000E+00 -0.00000000000E+00 -0.29087902933E+03  0.29088180177E+03  0.12700000000E+01 0.  1.
         25    2    1    2    0    0  0.00000000000E+00  0.00000000000E+00 -0.27747792437E+03  0.30434295010E+03  0.12502252902E+03 0.  0.
    9000005    1    3    3    0    0  0.48690891250E+02  0.31774633201E+02 -0.19458108717E+03  0.20308429208E+03  0.10000000000E+01 0.  0.
    9000005    1    3    3    0    0 -0.48690891250E+02 -0.31774633201E+02 -0.82896837198E+02  0.10125865802E+03  0.10000000000E+01 0.  0.
<mgrwt>
<rscale>  0 0.12502253E+03</rscale>
<asrwt>0</asrwt>
<pdfrwt beam="1">  1        4 0.33581292E-02 0.12502253E+03</pdfrwt>
<pdfrwt beam="2">  1       -4 0.72727589E-01 0.12502253E+03</pdfrwt>
<totfact> 0.12843578E+03</totfact>
</mgrwt>
</event>
<event>
 5    1  0.1438401E-002  0.1249976E+03  0.7818608E-02  0.1235073E+00
          4   -1    0    0  501    0  0.00000000000E+00  0.00000000000E+00  0.32855188847E+02  0.32879725275E+02  0.12700000000E+01 0.  1.
         -4   -1    0    0    0  501 -0.00000000000E+00 -0.00000000000E+00 -0.11881599738E+03  0.11882278457E+03  0.12700000000E+01 0.  1.
         25    2    1    2    0    0  0.00000000000E+00  0.00000000000E+00 -0.85960808528E+02  0.15170250984E+03  0.12499756354E+03 0.  0.
    9000005    1    3    3    0    0  0.48475614335E+02 -0.21976678427E+02 -0.32395823961E+01  0.53332489853E+02  0.10000000000E+01 0.  0.
    9000005    1    3    3    0    0 -0.48475614335E+02  0.21976678427E+02 -0.82721226132E+02  0.98370019989E+02  0.10000000000E+01 0.  0.
<mgrwt>
<rscale>  0 0.12499756E+03</rscale>
<asrwt>0</asrwt>
<pdfrwt beam="1">  1        4 0.82177129E-02 0.12499756E+03</pdfrwt>
<pdfrwt beam="2">  1       -4 0.29707914E-01 0.12499756E+03</pdfrwt>
<totfact> 0.18456430E+03</totfact>
</mgrwt>
</event>
<event>
 5    1  0.1438401E-002  0.1249993E+03  0.7818608E-02  0.1235070E+00
         -4   -1    0    0    0  501 -0.00000000000E+00  0.00000000000E+00  0.50715794615E+02  0.50731693481E+02  0.12700000000E+01 0.  1.
          4   -1    0    0  501    0  0.00000000000E+00 -0.00000000000E+00 -0.76988250458E+02  0.76998724720E+02  0.12700000000E+01 0.  1.
         25    2    1    2    0    0  0.00000000000E+00  0.00000000000E+00 -0.26272455843E+02  0.12773041820E+03  0.12499927119E+03 0.  0.
    9000005    1    3    3    0    0  0.57275853102E+02 -0.20683342843E+02 -0.27474213114E+02  0.66814342816E+02  0.10000000000E+01 0.  0.
    9000005    1    3    3    0    0 -0.57275853102E+02  0.20683342843E+02  0.12017572704E+01  0.60916075385E+02  0.10000000000E+01 0.  0.
<mgrwt>
<rscale>  0 0.12499927E+03</rscale>
<asrwt>0</asrwt>
<pdfrwt beam="2">  1        4 0.19250359E-01 0.12499927E+03</pdfrwt>
<pdfrwt beam="1">  1       -4 0.12682245E-01 0.12499927E+03</pdfrwt>
<totfact> 0.19687550E+03</totfact>
</mgrwt>
</event>
<event>
 5    1  0.1438401E-002  0.1250020E+03  0.7818608E-02  0.1235066E+00
         -4   -1    0    0    0  501 -0.00000000000E+00  0.00000000000E+00  0.14333070633E+02  0.14389225614E+02  0.12700000000E+01 0. -1.
          4   -1    0    0  501    0  0.00000000000E+00 -0.00000000000E+00 -0.27195250584E+03  0.27195547124E+03  0.12700000000E+01 0. -1.
         25    2    1    2    0    0  0.00000000000E+00  0.00000000000E+00 -0.25761943521E+03  0.28634469685E+03  0.12500204804E+03 0.  0.
    9000005    1    3    3    0    0  0.17756373856E+02 -0.75814730273E+01  0.73409862620E+01  0.20679884552E+02  0.10000000000E+01 0.  0.
    9000005    1    3    3    0    0 -0.17756373856E+02  0.75814730273E+01 -0.26496042147E+03  0.26566481230E+03  0.10000000000E+01 0.  0.
<mgrwt>
<rscale>  0 0.12500205E+03</rscale>
<asrwt>0</asrwt>
<pdfrwt beam="2">  1        4 0.67995500E-01 0.12500205E+03</pdfrwt>
<pdfrwt beam="1">  1       -4 0.35906586E-02 0.12500205E+03</pdfrwt>
<totfact> 0.13361964E+03</totfact>
</mgrwt>
</event>
<event>
 5    1  0.1438401E-002  0.1250029E+03  0.7818608E-02  0.1235065E+00
         -4   -1    0    0    0  501 -0.00000000000E+00  0.00000000000E+00  0.16005000528E+02  0.16055308839E+02  0.12700000000E+01 0.  1.
          4   -1    0    0  501    0  0.00000000000E+00 -0.00000000000E+00 -0.24364074843E+03  0.24364405841E+03  0.12700000000E+01 0.  1.
         25    2    1    2    0    0  0.00000000000E+00  0.00000000000E+00 -0.22763574790E+03  0.25969936725E+03  0.12500291046E+03 0.  0.
    9000005    1    3    3    0    0  0.46677267455E+02  0.39682653593E+02 -0.88208236909E+02  0.10740192434E+03  0.10000000000E+01 0.  0.
    9000005    1    3    3    0    0 -0.46677267455E+02 -0.39682653593E+02 -0.13942751099E+03  0.15229744291E+03  0.10000000000E+01 0.  0.
<mgrwt>
<rscale>  0 0.12500291E+03</rscale>
<asrwt>0</asrwt>
<pdfrwt beam="2">  1        4 0.60916878E-01 0.12500291E+03</pdfrwt>
<pdfrwt beam="1">  1       -4 0.40079532E-02 0.12500291E+03</pdfrwt>
<totfact> 0.14179863E+03</totfact>
</mgrwt>
</event>
<event>
 5    1  0.1438401E-002  0.1249999E+03  0.7818608E-02  0.1235070E+00
          4   -1    0    0  501    0  0.00000000000E+00  0.00000000000E+00  0.62509392502E+03  0.62509521515E+03  0.12700000000E+01 0. -1.
         -4   -1    0    0    0  501 -0.00000000000E+00 -0.00000000000E+00 -0.61832109729E+01  0.63122894370E+01  0.12700000000E+01 0. -1.
         25    2    1    2    0    0  0.00000000000E+00  0.00000000000E+00  0.61891071405E+03  0.63140750458E+03  0.12499985952E+03 0.  0.
    9000005    1    3    3    0    0  0.49403848828E+02 -0.12960879863E+02  0.49133715731E+03  0.49398575571E+03  0.10000000000E+01 0.  0.
    9000005    1    3    3    0    0 -0.49403848828E+02  0.12960879863E+02  0.12757355674E+03  0.13742174888E+03  0.10000000000E+01 0.  0.
<mgrwt>
<rscale>  0 0.12499986E+03</rscale>
<asrwt>0</asrwt>
<pdfrwt beam="1">  1        4 0.15628973E+00 0.12499986E+03</pdfrwt>
<pdfrwt beam="2">  1       -4 0.15620993E-02 0.12499986E+03</pdfrwt>
<totfact> 0.69679454E+02</totfact>
</mgrwt>
</event>
<event>
 5    1  0.1438401E-002  0.1250007E+03  0.7818608E-02  0.1235068E+00
          4   -1    0    0  501    0  0.00000000000E+00  0.00000000000E+00  0.30460368534E+02  0.30486832424E+02  0.12700000000E+01 0.  1.
         -4   -1    0    0    0  501 -0.00000000000E+00 -0.00000000000E+00 -0.12815645597E+03  0.12816274852E+03  0.12700000000E+01 0.  1.
         25    2    1    2    0    0  0.00000000000E+00  0.00000000000E+00 -0.97696087440E+02  0.15864958094E+03  0.12500065613E+03 0.  0.
    9000005    1    3    3    0    0  0.21737655201E+02 -0.52787797258E+01 -0.12290720803E+03  0.12493027237E+03  0.10000000000E+01 0.  0.
    9000005    1    3    3    0    0 -0.21737655201E+02  0.52787797258E+01  0.25211120591E+02  0.33719308570E+02  0.10000000000E+01 0.  0.
<mgrwt>
<rscale>  0 0.12500066E+03</rscale>
<asrwt>0</asrwt>
<pdfrwt beam="1">  1        4 0.76191870E-02 0.12500066E+03</pdfrwt>
<pdfrwt beam="2">  1       -4 0.32043207E-01 0.12500066E+03</pdfrwt>
<totfact> 0.18121216E+03</totfact>
</mgrwt>
</event>
<event>
 5    1  0.1438401E-002  0.1250009E+03  0.7818608E-02  0.1235068E+00
         -4   -1    0    0    0  501 -0.00000000000E+00  0.00000000000E+00  0.34508845718E+02  0.34532207181E+02  0.12700000000E+01 0.  1.
          4   -1    0    0  501    0  0.00000000000E+00 -0.00000000000E+00 -0.11313195309E+03  0.11313908127E+03  0.12700000000E+01 0.  1.
         25    2    1    2    0    0  0.00000000000E+00  0.00000000000E+00 -0.78623107376E+02  0.14767128845E+03  0.12500086568E+03 0.  0.
    9000005    1    3    3    0    0  0.18750073540E+02 -0.13966179321E+02  0.29153296206E+02  0.37383607401E+02  0.10000000000E+01 0.  0.
    9000005    1    3    3    0    0 -0.18750073540E+02  0.13966179321E+02 -0.10777640358E+03  0.11028768105E+03  0.10000000000E+01 0.  0.
<mgrwt>
<rscale>  0 0.12500087E+03</rscale>
<asrwt>0</asrwt>
<pdfrwt beam="2">  1        4 0.28286799E-01 0.12500087E+03</pdfrwt>
<pdfrwt beam="1">  1       -4 0.86310229E-02 0.12500087E+03</pdfrwt>
<totfact> 0.18653504E+03</totfact>
</mgrwt>
</event>
<event>
 5    1  0.1438401E-002  0.1249944E+03  0.7818608E-02  0.1235078E+00
         -4   -1    0    0    0  501 -0.00000000000E+00  0.00000000000E+00  0.89397145524E+02  0.89406166050E+02  0.12700000000E+01 0. -1.
          4   -1    0    0  501    0  0.00000000000E+00 -0.00000000000E+00 -0.43671084743E+02  0.43689547293E+02  0.12700000000E+01 0. -1.
         25    2    1    2    0    0  0.00000000000E+00  0.00000000000E+00  0.45726060781E+02  0.13309571334E+03  0.12499438498E+03 0.  0.
    9000005    1    3    3    0    0  0.74992271539E+00  0.62451132998E+02  0.25043344261E+02  0.67296920350E+02  0.10000000000E+01 0.  0.
    9000005    1    3    3    0    0 -0.74992271539E+00 -0.62451132998E+02  0.20682716519E+02  0.65798792993E+02  0.10000000000E+01 0.  0.
<mgrwt>
<rscale>  0 0.12499438E+03</rscale>
<asrwt>0</asrwt>
<pdfrwt beam="2">  1        4 0.10921207E-01 0.12499438E+03</pdfrwt>
<pdfrwt beam="1">  1       -4 0.22352721E-01 0.12499438E+03</pdfrwt>
<totfact> 0.19401894E+03</totfact>
</mgrwt>
</event>
<event>
 5    1  0.1438401E-002  0.1250012E+03  0.7818608E-02  0.1235067E+00
          4   -1    0    0  501    0  0.00000000000E+00  0.00000000000E+00  0.17819999453E+03  0.17820452001E+03  0.12700000000E+01 0.  1.
         -4   -1    0    0    0  501 -0.00000000000E+00 -0.00000000000E+00 -0.21897804652E+02  0.21934601628E+02  0.12700000000E+01 0.  1.
         25    2    1    2    0    0  0.00000000000E+00  0.00000000000E+00  0.15630218988E+03  0.20013912164E+03  0.12500117379E+03 0.  0.
    9000005    1    3    3    0    0 -0.36376046386E+02  0.45484990007E+02  0.11442302419E+03  0.12839676605E+03  0.10000000000E+01 0.  0.
    9000005    1    3    3    0    0  0.36376046386E+02 -0.45484990007E+02  0.41879165691E+02  0.71742355589E+02  0.10000000000E+01 0.  0.
<mgrwt>
<rscale>  0 0.12500117E+03</rscale>
<asrwt>0</asrwt>
<pdfrwt beam="1">  1        4 0.44555164E-01 0.12500117E+03</pdfrwt>
<pdfrwt beam="2">  1       -4 0.54796165E-02 0.12500117E+03</pdfrwt>
<totfact> 0.16316029E+03</totfact>
</mgrwt>
</event>
<event>
 5    1  0.1438401E-002  0.1250014E+03  0.7818608E-02  0.1235067E+00
          4   -1    0    0  501    0  0.00000000000E+00  0.00000000000E+00  0.14261171824E+02  0.14317608802E+02  0.12700000000E+01 0.  1.
         -4   -1    0    0    0  501 -0.00000000000E+00 -0.00000000000E+00 -0.27331516284E+03  0.27331811344E+03  0.12700000000E+01 0.  1.
         25    2    1    2    0    0  0.00000000000E+00  0.00000000000E+00 -0.25905399101E+03  0.28763572224E+03  0.12500135380E+03 0.  0.
    9000005    1    3    3    0    0 -0.46664068053E+02  0.14655746643E+02 -0.21903230164E+03  0.22442922118E+03  0.10000000000E+01 0.  0.
    9000005    1    3    3    0    0  0.46664068053E+02 -0.14655746643E+02 -0.40021689371E+02  0.63206501066E+02  0.10000000000E+01 0.  0.
<mgrwt>
<rscale>  0 0.12500135E+03</rscale>
<asrwt>0</asrwt>
<pdfrwt beam="1">  1        4 0.35727173E-02 0.12500135E+03</pdfrwt>
<pdfrwt beam="2">  1       -4 0.68336197E-01 0.12500135E+03</pdfrwt>
<totfact> 0.13324391E+03</totfact>
</mgrwt>
</event>
<event>
 5    1  0.1438401E-002  0.1249990E+03  0.7818608E-02  0.1235071E+00
          4   -1    0    0  501    0  0.00000000000E+00  0.00000000000E+00  0.14021812574E+03  0.14022387701E+03  0.12700000000E+01 0.  1.
         -4   -1    0    0    0  501 -0.00000000000E+00 -0.00000000000E+00 -0.27837135709E+02  0.27866090944E+02  0.12700000000E+01 0.  1.
         25    2    1    2    0    0  0.00000000000E+00  0.00000000000E+00  0.11238099003E+03  0.16808996796E+03  0.12499900163E+03 0.  0.
    9000005    1    3    3    0    0  0.31293970763E+02  0.53906895583E+02  0.50188475417E+02  0.80032175169E+02  0.10000000000E+01 0.  0.
    9000005    1    3    3    0    0 -0.31293970763E+02 -0.53906895583E+02  0.62192514608E+02  0.88057792789E+02  0.10000000000E+01 0.  0.
<mgrwt>
<rscale>  0 0.12499900E+03</rscale>
<asrwt>0</asrwt>
<pdfrwt beam="1">  1        4 0.35058869E-01 0.12499900E+03</pdfrwt>
<pdfrwt beam="2">  1       -4 0.69636224E-02 0.12499900E+03</pdfrwt>
<totfact> 0.17683953E+03</totfact>
</mgrwt>
</event>
<event>
 5    1  0.1438401E-002  0.1249985E+03  0.7818608E-02  0.1235072E+00
         -4   -1    0    0    0  501 -0.00000000000E+00  0.00000000000E+00  0.67391627866E+03  0.67391747532E+03  0.12700000000E+01 0. -1.
          4   -1    0    0  501    0  0.00000000000E+00 -0.00000000000E+00 -0.57254245663E+01  0.58645874931E+01  0.12700000000E+01 0. -1.
         25    2    1    2    0    0  0.00000000000E+00  0.00000000000E+00  0.66819085409E+03  0.67978206281E+03  0.12499854171E+03 0.  0.
    9000005    1    3    3    0    0  0.42848951620E+02  0.38340092914E+02  0.20097723184E+03  0.20904268248E+03  0.10000000000E+01 0.  0.
    9000005    1    3    3    0    0 -0.42848951620E+02 -0.38340092914E+02  0.46721362225E+03  0.47073938033E+03  0.10000000000E+01 0.  0.
<mgrwt>
<rscale>  0 0.12499854E+03</rscale>
<asrwt>0</asrwt>
<pdfrwt beam="2">  1        4 0.14489011E-02 0.12499854E+03</pdfrwt>
<pdfrwt beam="1">  1       -4 0.16849661E+00 0.12499854E+03</pdfrwt>
<totfact> 0.64205769E+02</totfact>
</mgrwt>
</event>
<event>
 5    1  0.1438401E-002  0.1250229E+03  0.7818608E-02  0.1235034E+00
         -4   -1    0    0    0  501 -0.00000000000E+00  0.00000000000E+00  0.16294797285E+03  0.16295292190E+03  0.12700000000E+01 0.  1.
          4   -1    0    0  501    0  0.00000000000E+00 -0.00000000000E+00 -0.23959021558E+02  0.23992657502E+02  0.12700000000E+01 0.  1.
         25    2    1    2    0    0  0.00000000000E+00  0.00000000000E+00  0.13898895129E+03  0.18694557940E+03  0.12502288221E+03 0.  0.
    9000005    1    3    3    0    0  0.60348313804E+02  0.12652947574E+02  0.54196823228E+02  0.82099401394E+02  0.10000000000E+01 0.  0.
    9000005    1    3    3    0    0 -0.60348313804E+02 -0.12652947574E+02  0.84792128064E+02  0.10484617801E+03  0.10000000000E+01 0.  0.
<mgrwt>
<rscale>  0 0.12502288E+03</rscale>
<asrwt>0</asrwt>
<pdfrwt beam="2">  1        4 0.59945786E-02 0.12502288E+03</pdfrwt>
<pdfrwt beam="1">  1       -4 0.40741816E-01 0.12502288E+03</pdfrwt>
<totfact> 0.16849531E+03</totfact>
</mgrwt>
</event>
<event>
 5    1  0.1438401E-002  0.1250016E+03  0.7818608E-02  0.1235067E+00
          4   -1    0    0  501    0  0.00000000000E+00  0.00000000000E+00  0.25371969604E+03  0.25372287453E+03  0.12700000000E+01 0.  1.
         -4   -1    0    0    0  501 -0.00000000000E+00 -0.00000000000E+00 -0.15366839916E+02  0.15419230494E+02  0.12700000000E+01 0.  1.
         25    2    1    2    0    0  0.00000000000E+00  0.00000000000E+00  0.23835285612E+03  0.26914210502E+03  0.12500155468E+03 0.  0.
    9000005    1    3    3    0    0  0.50981087431E+02 -0.64815442647E+01  0.19573350969E+03  0.20237017692E+03  0.10000000000E+01 0.  0.
    9000005    1    3    3    0    0 -0.50981087431E+02  0.64815442647E+01  0.42619346433E+02  0.66771928099E+02  0.10000000000E+01 0.  0.
<mgrwt>
<rscale>  0 0.12500155E+03</rscale>
<asrwt>0</asrwt>
<pdfrwt beam="1">  1        4 0.63436868E-01 0.12500155E+03</pdfrwt>
<pdfrwt beam="2">  1       -4 0.38486563E-02 0.12500155E+03</pdfrwt>
<totfact> 0.13881725E+03</totfact>
</mgrwt>
</event>
<event>
 5    1  0.1438401E-002  0.1250036E+03  0.7818608E-02  0.1235064E+00
         -4   -1    0    0    0  501 -0.00000000000E+00  0.00000000000E+00  0.25297606756E+02  0.25329465205E+02  0.12700000000E+01 0.  1.
          4   -1    0    0  501    0  0.00000000000E+00 -0.00000000000E+00 -0.15428909503E+03  0.15429432181E+03  0.12700000000E+01 0.  1.
         25    2    1    2    0    0  0.00000000000E+00  0.00000000000E+00 -0.12899148827E+03  0.17962378702E+03  0.12500360322E+03 0.  0.
    9000005    1    3    3    0    0 -0.24758518547E+02 -0.55837632246E+02 -0.83485760938E+02  0.10344901012E+03  0.10000000000E+01 0.  0.
    9000005    1    3    3    0    0  0.24758518547E+02  0.55837632246E+02 -0.45505727332E+02  0.76174776898E+02  0.10000000000E+01 0.  0.
<mgrwt>
<rscale>  0 0.12500360E+03</rscale>
<asrwt>0</asrwt>
<pdfrwt beam="2">  1        4 0.38576907E-01 0.12500360E+03</pdfrwt>
<pdfrwt beam="1">  1       -4 0.63290378E-02 0.12500360E+03</pdfrwt>
<totfact> 0.17170076E+03</totfact>
</mgrwt>
</event>
<event>
 5    1  0.1438401E-002  0.1249937E+03  0.7818608E-02  0.1235079E+00
         -4   -1    0    0    0  501 -0.00000000000E+00  0.00000000000E+00  0.44550269279E+02  0.44568367625E+02  0.12700000000E+01 0. -1.
          4   -1    0    0  501    0  0.00000000000E+00 -0.00000000000E+00 -0.87632502370E+02  0.87641704523E+02  0.12700000000E+01 0. -1.
         25    2    1    2    0    0  0.00000000000E+00  0.00000000000E+00 -0.43082233092E+02  0.13221007215E+03  0.12499369732E+03 0.  0.
    9000005    1    3    3    0    0  0.24831158657E+02  0.55643423863E+02 -0.68817093735E+01  0.61328092937E+02  0.10000000000E+01 0.  0.
    9000005    1    3    3    0    0 -0.24831158657E+02 -0.55643423863E+02 -0.36200523718E+02  0.70881979211E+02  0.10000000000E+01 0.  0.
<mgrwt>
<rscale>  0 0.12499370E+03</rscale>
<asrwt>0</asrwt>
<pdfrwt beam="2">  1        4 0.21911538E-01 0.12499370E+03</pdfrwt>
<pdfrwt beam="1">  1       -4 0.11140980E-01 0.12499370E+03</pdfrwt>
<totfact> 0.19449150E+03</totfact>
</mgrwt>
</event>
<event>
 5    1  0.1438401E-002  0.1250003E+03  0.7818608E-02  0.1235069E+00
          4   -1    0    0  501    0  0.00000000000E+00  0.00000000000E+00  0.24242248413E+03  0.24242581074E+03  0.12700000000E+01 0. -1.
         -4   -1    0    0    0  501 -0.00000000000E+00 -0.00000000000E+00 -0.16085006308E+02  0.16135065167E+02  0.12700000000E+01 0. -1.
         25    2    1    2    0    0  0.00000000000E+00  0.00000000000E+00  0.22633747782E+03  0.25856087590E+03  0.12500029073E+03 0.  0.
    9000005    1    3    3    0    0 -0.55768571671E+02  0.33606171531E+01  0.55257116761E+02  0.78586107466E+02  0.10000000000E+01 0.  0.
    9000005    1    3    3    0    0  0.55768571671E+02 -0.33606171531E+01  0.17108036106E+03  0.17997476844E+03  0.10000000000E+01 0.  0.
<mgrwt>
<rscale>  0 0.12500029E+03</rscale>
<asrwt>0</asrwt>
<pdfrwt beam="1">  1        4 0.60612294E-01 0.12500029E+03</pdfrwt>
<pdfrwt beam="2">  1       -4 0.40279248E-02 0.12500029E+03</pdfrwt>
<totfact> 0.14217385E+03</totfact>
</mgrwt>
</event>
<event>
 5    1  0.1438401E-002  0.1249984E+03  0.7818608E-02  0.1235072E+00
          4   -1    0    0  501    0  0.00000000000E+00  0.00000000000E+00  0.29326351345E+02  0.29353837623E+02  0.12700000000E+01 0.  1.
         -4   -1    0    0    0  501 -0.00000000000E+00 -0.00000000000E+00 -0.13310296031E+03  0.13310901902E+03  0.12700000000E+01 0.  1.
         25    2    1    2    0    0  0.00000000000E+00  0.00000000000E+00 -0.10377660897E+03  0.16246285664E+03  0.12499838087E+03 0.  0.
    9000005    1    3    3    0    0  0.26041621762E+02 -0.53407156997E+02 -0.77045799183E+02  0.97301313733E+02  0.10000000000E+01 0.  0.
    9000005    1    3    3    0    0 -0.26041621762E+02  0.53407156997E+02 -0.26730809785E+02  0.65161542909E+02  0.10000000000E+01 0.  0.
<mgrwt>
<rscale>  0 0.12499838E+03</rscale>
<asrwt>0</asrwt>
<pdfrwt beam="1">  1        4 0.73357813E-02 0.12499838E+03</pdfrwt>
<pdfrwt beam="2">  1       -4 0.33279932E-01 0.12499838E+03</pdfrwt>
<totfact> 0.17943136E+03</totfact>
</mgrwt>
</event>
<event>
 5    1  0.1438401E-002  0.1249999E+03  0.7818608E-02  0.1235069E+00
         -4   -1    0    0    0  501 -0.00000000000E+00  0.00000000000E+00  0.59090873371E+03  0.59091009847E+03  0.12700000000E+01 0. -1.
          4   -1    0    0  501    0  0.00000000000E+00 -0.00000000000E+00 -0.65481932323E+01  0.66702124860E+01  0.12700000000E+01 0. -1.
         25    2    1    2    0    0  0.00000000000E+00  0.00000000000E+00  0.58436054048E+03  0.59758031095E+03  0.12499994710E+03 0.  0.
    9000005    1    3    3    0    0 -0.25090514380E+02  0.49252529987E+02  0.43155069999E+03  0.43507740953E+03  0.10000000000E+01 0.  0.
    9000005    1    3    3    0    0  0.25090514380E+02 -0.49252529987E+02  0.15280984049E+03  0.16250290142E+03  0.10000000000E+01 0.  0.
<mgrwt>
<rscale>  0 0.12499995E+03</rscale>
<asrwt>0</asrwt>
<pdfrwt beam="2">  1        4 0.16524715E-02 0.12499995E+03</pdfrwt>
<pdfrwt beam="1">  1       -4 0.14774259E+00 0.12499995E+03</pdfrwt>
<totfact> 0.73808275E+02</totfact>
</mgrwt>
</event>
<event>
 5    1  0.1438401E-002  0.1249985E+03  0.7818608E-02  0.1235072E+00
         -4   -1    0    0    0  501 -0.00000000000E+00  0.00000000000E+00  0.18194685689E+02  0.18238955215E+02  0.12700000000E+01 0. -1.
          4   -1    0    0  501    0  0.00000000000E+00 -0.00000000000E+00 -0.21437969477E+03  0.21438345652E+03  0.12700000000E+01 0. -1.
         25    2    1    2    0    0  0.00000000000E+00  0.00000000000E+00 -0.19618500908E+03  0.23262241174E+03  0.12499851460E+03 0.  0.
    9000005    1    3    3    0    0  0.13436745733E+02  0.12192556568E+02 -0.20937902867E+03  0.21016608246E+03  0.10000000000E+01 0.  0.
    9000005    1    3    3    0    0 -0.13436745733E+02 -0.12192556568E+02  0.13194019587E+02  0.22456329273E+02  0.10000000000E+01 0.  0.
<mgrwt>
<rscale>  0 0.12499851E+03</rscale>
<asrwt>0</asrwt>
<pdfrwt beam="2">  1        4 0.53600920E-01 0.12499851E+03</pdfrwt>
<pdfrwt beam="1">  1       -4 0.45546760E-02 0.12499851E+03</pdfrwt>
<totfact> 0.15094575E+03</totfact>
</mgrwt>
</event>
<event>
 5    1  0.1438401E-002  0.1250015E+03  0.7818608E-02  0.1235067E+00
          4   -1    0    0  501    0  0.00000000000E+00  0.00000000000E+00  0.21015088340E+03  0.21015472085E+03  0.12700000000E+01 0.  1.
         -4   -1    0    0    0  501 -0.00000000000E+00 -0.00000000000E+00 -0.18562575413E+02  0.18605969633E+02  0.12700000000E+01 0.  1.
         25    2    1    2    0    0  0.00000000000E+00  0.00000000000E+00  0.19158830799E+03  0.22876069048E+03  0.12500149500E+03 0.  0.
    9000005    1    3    3    0    0  0.64688125726E+01  0.26203167276E+01 -0.17856066575E+02  0.19197674583E+02  0.10000000000E+01 0.  0.
    9000005    1    3    3    0    0 -0.64688125726E+01 -0.26203167276E+01  0.20944437456E+03  0.20956301590E+03  0.10000000000E+01 0.  0.
<mgrwt>
<rscale>  0 0.12500149E+03</rscale>
<asrwt>0</asrwt>
<pdfrwt beam="1">  1        4 0.52543624E-01 0.12500149E+03</pdfrwt>
<pdfrwt beam="2">  1       -4 0.46465479E-02 0.12500149E+03</pdfrwt>
<totfact> 0.15231171E+03</totfact>
</mgrwt>
</event>
<event>
 5    1  0.1438401E-002  0.1250021E+03  0.7818608E-02  0.1235066E+00
          4   -1    0    0  501    0  0.00000000000E+00  0.00000000000E+00  0.10518365111E+03  0.10519131790E+03  0.12700000000E+01 0. -1.
         -4   -1    0    0    0  501 -0.00000000000E+00 -0.00000000000E+00 -0.37118806222E+02  0.37140526051E+02  0.12700000000E+01 0. -1.
         25    2    1    2    0    0  0.00000000000E+00  0.00000000000E+00  0.68064844890E+02  0.14233184395E+03  0.12500212275E+03 0.  0.
    9000005    1    3    3    0    0 -0.55050578785E+02  0.21604593156E+02  0.57033365226E+02  0.82165256764E+02  0.10000000000E+01 0.  0.
    9000005    1    3    3    0    0  0.55050578785E+02 -0.21604593156E+02  0.11031479663E+02  0.60166587186E+02  0.10000000000E+01 0.  0.
<mgrwt>
<rscale>  0 0.12500212E+03</rscale>
<asrwt>0</asrwt>
<pdfrwt beam="1">  1        4 0.26299586E-01 0.12500212E+03</pdfrwt>
<pdfrwt beam="2">  1       -4 0.92833749E-02 0.12500212E+03</pdfrwt>
<totfact> 0.18920741E+03</totfact>
</mgrwt>
</event>
<event>
 5    1  0.1438401E-002  0.1250048E+03  0.7818608E-02  0.1235062E+00
         -4   -1    0    0    0  501 -0.00000000000E+00  0.00000000000E+00  0.17631902507E+03  0.17632359883E+03  0.12700000000E+01 0. -1.
          4   -1    0    0  501    0  0.00000000000E+00 -0.00000000000E+00 -0.22133065434E+02  0.22169471927E+02  0.12700000000E+01 0. -1.
         25    2    1    2    0    0  0.00000000000E+00  0.00000000000E+00  0.15418595964E+03  0.19849307075E+03  0.12500475586E+03 0.  0.
    9000005    1    3    3    0    0 -0.50563379506E+02 -0.20273779854E+02  0.28464672542E+02  0.61472913381E+02  0.10000000000E+01 0.  0.
    9000005    1    3    3    0    0  0.50563379506E+02  0.20273779854E+02  0.12572128710E+03  0.13702015737E+03  0.10000000000E+01 0.  0.
<mgrwt>
<rscale>  0 0.12500476E+03</rscale>
<asrwt>0</asrwt>
<pdfrwt beam="2">  1        4 0.55383890E-02 0.12500476E+03</pdfrwt>
<pdfrwt beam="1">  1       -4 0.44084878E-01 0.12500476E+03</pdfrwt>
<totfact> 0.16380757E+03</totfact>
</mgrwt>
</event>
<event>
 5    1  0.1438401E-002  0.1249920E+03  0.7818608E-02  0.1235082E+00
         -4   -1    0    0    0  501 -0.00000000000E+00  0.00000000000E+00  0.33031261536E+02  0.33055667270E+02  0.12700000000E+01 0.  1.
          4   -1    0    0  501    0  0.00000000000E+00 -0.00000000000E+00 -0.11817249621E+03  0.11817932036E+03  0.12700000000E+01 0.  1.
         25    2    1    2    0    0  0.00000000000E+00  0.00000000000E+00 -0.85141234671E+02  0.15123498763E+03  0.12499196630E+03 0.  0.
    9000005    1    3    3    0    0 -0.13580922370E+02  0.39664249107E+02 -0.98635593062E+02  0.10718056880E+03  0.10000000000E+01 0.  0.
    9000005    1    3    3    0    0  0.13580922370E+02 -0.39664249107E+02  0.13494358391E+02  0.44054418825E+02  0.10000000000E+01 0.  0.
<mgrwt>
<rscale>  0 0.12499197E+03</rscale>
<asrwt>0</asrwt>
<pdfrwt beam="2">  1        4 0.29547027E-01 0.12499197E+03</pdfrwt>
<pdfrwt beam="1">  1       -4 0.82617194E-02 0.12499197E+03</pdfrwt>
<totfact> 0.18481677E+03</totfact>
</mgrwt>
</event>
<event>
 5    1  0.1438401E-002  0.1250067E+03  0.7818608E-02  0.1235059E+00
         -4   -1    0    0    0  501 -0.00000000000E+00  0.00000000000E+00  0.32083250667E+02  0.32108376997E+02  0.12700000000E+01 0. -1.
          4   -1    0    0  501    0  0.00000000000E+00 -0.00000000000E+00 -0.12169060299E+03  0.12169722986E+03  0.12700000000E+01 0. -1.
         25    2    1    2    0    0  0.00000000000E+00  0.00000000000E+00 -0.89607352324E+02  0.15380560686E+03  0.12500674826E+03 0.  0.
    9000005    1    3    3    0    0 -0.36831389147E+02 -0.65394373860E+01 -0.10640075476E+03  0.11278934383E+03  0.10000000000E+01 0.  0.
    9000005    1    3    3    0    0  0.36831389147E+02  0.65394373860E+01  0.16793402435E+02  0.41016263032E+02  0.10000000000E+01 0.  0.
<mgrwt>
<rscale>  0 0.12500675E+03</rscale>
<asrwt>0</asrwt>
<pdfrwt beam="2">  1        4 0.30426619E-01 0.12500675E+03</pdfrwt>
<pdfrwt beam="1">  1       -4 0.80247821E-02 0.12500675E+03</pdfrwt>
<totfact> 0.18350348E+03</totfact>
</mgrwt>
</event>
<event>
 5    1  0.1438401E-002  0.1249926E+03  0.7818608E-02  0.1235081E+00
          4   -1    0    0  501    0  0.00000000000E+00  0.00000000000E+00  0.44219080249E+02  0.44237314092E+02  0.12700000000E+01 0. -1.
         -4   -1    0    0    0  501 -0.00000000000E+00 -0.00000000000E+00 -0.88287069889E+02  0.88296203823E+02  0.12700000000E+01 0. -1.
         25    2    1    2    0    0  0.00000000000E+00  0.00000000000E+00 -0.44067989640E+02  0.13253351791E+03  0.12499258242E+03 0.  0.
    9000005    1    3    3    0    0 -0.24391428177E+02  0.61319674232E+01  0.38620682950E+02  0.46098806324E+02  0.10000000000E+01 0.  0.
    9000005    1    3    3    0    0  0.24391428177E+02 -0.61319674232E+01 -0.82688672590E+02  0.86434711590E+02  0.10000000000E+01 0.  0.
<mgrwt>
<rscale>  0 0.12499258E+03</rscale>
<asrwt>0</asrwt>
<pdfrwt beam="1">  1        4 0.11058191E-01 0.12499258E+03</pdfrwt>
<pdfrwt beam="2">  1       -4 0.22075188E-01 0.12499258E+03</pdfrwt>
<totfact> 0.19432486E+03</totfact>
</mgrwt>
</event>
<event>
 5    1  0.1438401E-002  0.1249997E+03  0.7818608E-02  0.1235070E+00
          4   -1    0    0  501    0  0.00000000000E+00  0.00000000000E+00  0.12327869283E+02  0.12393113453E+02  0.12700000000E+01 0.  1.
         -4   -1    0    0    0  501 -0.00000000000E+00 -0.00000000000E+00 -0.31595882012E+03  0.31596137250E+03  0.12700000000E+01 0.  1.
         25    2    1    2    0    0  0.00000000000E+00  0.00000000000E+00 -0.30363095084E+03  0.32835448595E+03  0.12499965656E+03 0.  0.
    9000005    1    3    3    0    0  0.29167354068E+02  0.26681719999E+02 -0.27895521926E+03  0.28174396725E+03  0.10000000000E+01 0.  0.
    9000005    1    3    3    0    0 -0.29167354068E+02 -0.26681719999E+02 -0.24675731575E+02  0.46610518707E+02  0.10000000000E+01 0.  0.
<mgrwt>
<rscale>  0 0.12499966E+03</rscale>
<asrwt>0</asrwt>
<pdfrwt beam="1">  1        4 0.30904429E-02 0.12499966E+03</pdfrwt>
<pdfrwt beam="2">  1       -4 0.78998153E-01 0.12499966E+03</pdfrwt>
<totfact> 0.12212096E+03</totfact>
</mgrwt>
</event>
<event>
 5    1  0.1438401E-002  0.1250014E+03  0.7818608E-02  0.1235067E+00
         -4   -1    0    0    0  501 -0.00000000000E+00  0.00000000000E+00  0.30140421522E+02  0.30167166084E+02  0.12700000000E+01 0.  1.
          4   -1    0    0  501    0  0.00000000000E+00 -0.00000000000E+00 -0.12951732493E+03  0.12952355136E+03  0.12700000000E+01 0.  1.
         25    2    1    2    0    0  0.00000000000E+00  0.00000000000E+00 -0.99376903403E+02  0.15969071744E+03  0.12500142522E+03 0.  0.
    9000005    1    3    3    0    0  0.12977881302E+01  0.46125671743E+02  0.41503804079E+01  0.46340991630E+02  0.10000000000E+01 0.  0.
    9000005    1    3    3    0    0 -0.12977881302E+01 -0.46125671743E+02 -0.10352728381E+03  0.11334972581E+03  0.10000000000E+01 0.  0.
<mgrwt>
<rscale>  0 0.12500143E+03</rscale>
<asrwt>0</asrwt>
<pdfrwt beam="2">  1        4 0.32383451E-01 0.12500143E+03</pdfrwt>
<pdfrwt beam="1">  1       -4 0.75392271E-02 0.12500143E+03</pdfrwt>
<totfact> 0.18071721E+03</totfact>
</mgrwt>
</event>
<event>
 5    1  0.1438401E-002  0.1250035E+03  0.7818608E-02  0.1235064E+00
         -4   -1    0    0    0  501 -0.00000000000E+00  0.00000000000E+00  0.63082458945E+02  0.63095241711E+02  0.12700000000E+01 0.  1.
          4   -1    0    0  501    0  0.00000000000E+00 -0.00000000000E+00 -0.61900772210E+02  0.61913798948E+02  0.12700000000E+01 0.  1.
         25    2    1    2    0    0  0.00000000000E+00  0.00000000000E+00  0.11816867356E+01  0.12500904066E+03  0.12500345540E+03 0.  0.
    9000005    1    3    3    0    0 -0.50732937528E+02  0.12105832854E+02  0.35017428005E+02  0.62829948300E+02  0.10000000000E+01 0.  0.
    9000005    1    3    3    0    0  0.50732937528E+02 -0.12105832854E+02 -0.33835741269E+02  0.62179092359E+02  0.10000000000E+01 0.  0.
<mgrwt>
<rscale>  0 0.12500346E+03</rscale>
<asrwt>0</asrwt>
<pdfrwt beam="2">  1        4 0.15478419E-01 0.12500346E+03</pdfrwt>
<pdfrwt beam="1">  1       -4 0.15773841E-01 0.12500346E+03</pdfrwt>
<totfact> 0.19832961E+03</totfact>
</mgrwt>
</event>
<event>
 5    1  0.1438401E-002  0.1249994E+03  0.7818608E-02  0.1235070E+00
         -4   -1    0    0    0  501 -0.00000000000E+00  0.00000000000E+00  0.16457228115E+02  0.16506158161E+02  0.12700000000E+01 0. -1.
          4   -1    0    0  501    0  0.00000000000E+00 -0.00000000000E+00 -0.23695243933E+03  0.23695584273E+03  0.12700000000E+01 0. -1.
         25    2    1    2    0    0  0.00000000000E+00  0.00000000000E+00 -0.22049521122E+03  0.25346200090E+03  0.12499939091E+03 0.  0.
    9000005    1    3    3    0    0  0.15873008592E+00  0.18049247245E+02  0.11066352111E+02  0.21195864464E+02  0.10000000000E+01 0.  0.
    9000005    1    3    3    0    0 -0.15873008592E+00 -0.18049247245E+02 -0.23156156333E+03  0.23226613643E+03  0.10000000000E+01 0.  0.
<mgrwt>
<rscale>  0 0.12499939E+03</rscale>
<asrwt>0</asrwt>
<pdfrwt beam="2">  1        4 0.59244641E-01 0.12499939E+03</pdfrwt>
<pdfrwt beam="1">  1       -4 0.41208495E-02 0.12499939E+03</pdfrwt>
<totfact> 0.14383729E+03</totfact>
</mgrwt>
</event>
<event>
 5    1  0.1438401E-002  0.1249971E+03  0.7818608E-02  0.1235074E+00
         -4   -1    0    0    0  501 -0.00000000000E+00  0.00000000000E+00  0.16492176984E+02  0.16541003648E+02  0.12700000000E+01 0.  1.
          4   -1    0    0  501    0  0.00000000000E+00 -0.00000000000E+00 -0.23644321595E+03  0.23644662668E+03  0.12700000000E+01 0.  1.
         25    2    1    2    0    0  0.00000000000E+00  0.00000000000E+00 -0.21995103896E+03  0.25298763032E+03  0.12499712619E+03 0.  0.
    9000005    1    3    3    0    0  0.44147778376E+02 -0.43834889354E+02 -0.98079505435E+02  0.11615125159E+03  0.10000000000E+01 0.  0.
    9000005    1    3    3    0    0 -0.44147778376E+02  0.43834889354E+02 -0.12187153353E+03  0.13683637873E+03  0.10000000000E+01 0.  0.
<mgrwt>
<rscale>  0 0.12499713E+03</rscale>
<asrwt>0</asrwt>
<pdfrwt beam="2">  1        4 0.59117323E-01 0.12499713E+03</pdfrwt>
<pdfrwt beam="1">  1       -4 0.41295747E-02 0.12499713E+03</pdfrwt>
<totfact> 0.14400080E+03</totfact>
</mgrwt>
</event>
<event>
 5    1  0.1438401E-002  0.1249924E+03  0.7818608E-02  0.1235081E+00
          4   -1    0    0  501    0  0.00000000000E+00  0.00000000000E+00  0.40011765900E+03  0.40011967453E+03  0.12700000000E+01 0.  1.
         -4   -1    0    0    0  501 -0.00000000000E+00 -0.00000000000E+00 -0.97182142038E+01  0.98008462549E+01  0.12700000000E+01 0.  1.
         25    2    1    2    0    0  0.00000000000E+00  0.00000000000E+00  0.39039944479E+03  0.40992052078E+03  0.12499242721E+03 0.  0.
    9000005    1    3    3    0    0 -0.57146999908E+02  0.15241321971E+02  0.26133796161E+03  0.26794889004E+03  0.10000000000E+01 0.  0.
    9000005    1    3    3    0    0  0.57146999908E+02 -0.15241321971E+02  0.12906148318E+03  0.14197163074E+03  0.10000000000E+01 0.  0.
<mgrwt>
<rscale>  0 0.12499243E+03</rscale>
<asrwt>0</asrwt>
<pdfrwt beam="1">  1        4 0.10004000E+00 0.12499243E+03</pdfrwt>
<pdfrwt beam="2">  1       -4 0.24401345E-02 0.12499243E+03</pdfrwt>
<totfact> 0.10369412E+03</totfact>
</mgrwt>
</event>
<event>
 5    1  0.1438401E-002  0.1250001E+03  0.7818608E-02  0.1235069E+00
         -4   -1    0    0    0  501 -0.00000000000E+00  0.00000000000E+00  0.38070680914E+02  0.38091857992E+02  0.12700000000E+01 0. -1.
          4   -1    0    0  501    0  0.00000000000E+00 -0.00000000000E+00 -0.10255175205E+03  0.10255961558E+03  0.12700000000E+01 0. -1.
         25    2    1    2    0    0  0.00000000000E+00  0.00000000000E+00 -0.64481071138E+02  0.14065147358E+03  0.12500011394E+03 0.  0.
    9000005    1    3    3    0    0 -0.54058347593E+00  0.13409006290E+02  0.36435709816E+02  0.38841403553E+02  0.10000000000E+01 0.  0.
    9000005    1    3    3    0    0  0.54058347593E+00 -0.13409006290E+02 -0.10091678095E+03  0.10181007002E+03  0.10000000000E+01 0.  0.
<mgrwt>
<rscale>  0 0.12500011E+03</rscale>
<asrwt>0</asrwt>
<pdfrwt beam="2">  1        4 0.25641568E-01 0.12500011E+03</pdfrwt>
<pdfrwt beam="1">  1       -4 0.95213005E-02 0.12500011E+03</pdfrwt>
<totfact> 0.19007013E+03</totfact>
</mgrwt>
</event>
<event>
 5    1  0.1438401E-002  0.1249973E+03  0.7818608E-02  0.1235073E+00
         -4   -1    0    0    0  501 -0.00000000000E+00  0.00000000000E+00  0.26185411131E+02  0.26216190725E+02  0.12700000000E+01 0.  1.
          4   -1    0    0  501    0  0.00000000000E+00 -0.00000000000E+00 -0.14904913827E+03  0.14905454881E+03  0.12700000000E+01 0.  1.
         25    2    1    2    0    0  0.00000000000E+00  0.00000000000E+00 -0.12286372714E+03  0.17527073953E+03  0.12499734673E+03 0.  0.
    9000005    1    3    3    0    0  0.30704547140E+02  0.47356498099E+02 -0.23815444523E+02  0.61266487782E+02  0.10000000000E+01 0.  0.
    9000005    1    3    3    0    0 -0.30704547140E+02 -0.47356498099E+02 -0.99048282618E+02  0.11400425175E+03  0.10000000000E+01 0.  0.
<mgrwt>
<rscale>  0 0.12499735E+03</rscale>
<asrwt>0</asrwt>
<pdfrwt beam="2">  1        4 0.37266806E-01 0.12499735E+03</pdfrwt>
<pdfrwt beam="1">  1       -4 0.65508770E-02 0.12499735E+03</pdfrwt>
<totfact> 0.17362970E+03</totfact>
</mgrwt>
</event>
<event>
 5    1  0.1438401E-002  0.1249982E+03  0.7818608E-02  0.1235072E+00
         -4   -1    0    0    0  501 -0.00000000000E+00  0.00000000000E+00  0.22149099343E+02  0.22185479524E+02  0.12700000000E+01 0.  1.
          4   -1    0    0  501    0  0.00000000000E+00 -0.00000000000E+00 -0.17617305318E+03  0.17617763073E+03  0.12700000000E+01 0.  1.
         25    2    1    2    0    0  0.00000000000E+00  0.00000000000E+00 -0.15402395384E+03  0.19836311025E+03  0.12499818059E+03 0.  0.
    9000005    1    3    3    0    0  0.24489910423E+02 -0.56391183162E+02 -0.94783801697E+02  0.11298092899E+03  0.10000000000E+01 0.  0.
    9000005    1    3    3    0    0 -0.24489910423E+02  0.56391183162E+02 -0.59240152143E+02  0.85382181261E+02  0.10000000000E+01 0.  0.
<mgrwt>
<rscale>  0 0.12499818E+03</rscale>
<asrwt>0</asrwt>
<pdfrwt beam="2">  1        4 0.44048379E-01 0.12499818E+03</pdfrwt>
<pdfrwt beam="1">  1       -4 0.55423951E-02 0.12499818E+03</pdfrwt>
<totfact> 0.16388485E+03</totfact>
</mgrwt>
</event>
<event>
 5    1  0.1438401E-002  0.1249933E+03  0.7818608E-02  0.1235080E+00
         -4   -1    0    0    0  501 -0.00000000000E+00  0.00000000000E+00  0.35581294524E+03  0.35581521173E+03  0.12700000000E+01 0. -1.
          4   -1    0    0  501    0  0.00000000000E+00 -0.00000000000E+00 -0.10938166589E+02  0.11011647848E+02  0.12700000000E+01 0. -1.
         25    2    1    2    0    0  0.00000000000E+00  0.00000000000E+00  0.34487477865E+03  0.36682685958E+03  0.12499332766E+03 0.  0.
    9000005    1    3    3    0    0 -0.31334564829E+02  0.95061564713E+01  0.16242158887E+02  0.36565416573E+02  0.10000000000E+01 0.  0.
    9000005    1    3    3    0    0  0.31334564829E+02 -0.95061564713E+01  0.32863261976E+03  0.33026144301E+03  0.10000000000E+01 0.  0.
<mgrwt>
<rscale>  0 0.12499333E+03</rscale>
<asrwt>0</asrwt>
<pdfrwt beam="2">  1        4 0.27440101E-02 0.12499333E+03</pdfrwt>
<pdfrwt beam="1">  1       -4 0.88962706E-01 0.12499333E+03</pdfrwt>
<totfact> 0.11287752E+03</totfact>
</mgrwt>
</event>
<event>
 5    1  0.1438401E-002  0.1249969E+03  0.7818608E-02  0.1235074E+00
          4   -1    0    0  501    0  0.00000000000E+00  0.00000000000E+00  0.12767075287E+04  0.12767081604E+04  0.12700000000E+01 0. -1.
         -4   -1    0    0    0  501 -0.00000000000E+00 -0.00000000000E+00 -0.29270200652E+01  0.31906655202E+01  0.12700000000E+01 0. -1.
         25    2    1    2    0    0  0.00000000000E+00  0.00000000000E+00  0.12737805087E+04  0.12798988259E+04  0.12499688125E+03 0.  0.
    9000005    1    3    3    0    0  0.41083511573E+02  0.41601881822E+02  0.41104521314E+03  0.41518398179E+03  0.10000000000E+01 0.  0.
    9000005    1    3    3    0    0 -0.41083511573E+02 -0.41601881822E+02  0.86273529553E+03  0.86471484413E+03  0.10000000000E+01 0.  0.
<mgrwt>
<rscale>  0 0.12499688E+03</rscale>
<asrwt>0</asrwt>
<pdfrwt beam="1">  1        4 0.31920984E+00 0.12499688E+03</pdfrwt>
<pdfrwt beam="2">  1       -4 0.76478984E-03 0.12499688E+03</pdfrwt>
<totfact> 0.21246226E+02</totfact>
</mgrwt>
</event>
<event>
 5    1  0.1438401E-002  0.1249995E+03  0.7818608E-02  0.1235070E+00
         -4   -1    0    0    0  501 -0.00000000000E+00  0.00000000000E+00  0.13191196742E+02  0.13252191196E+02  0.12700000000E+01 0.  1.
          4   -1    0    0  501    0  0.00000000000E+00 -0.00000000000E+00 -0.29537778742E+03  0.29538051764E+03  0.12700000000E+01 0.  1.
         25    2    1    2    0    0  0.00000000000E+00  0.00000000000E+00 -0.28218659067E+03  0.30863270883E+03  0.12499950802E+03 0.  0.
    9000005    1    3    3    0    0  0.31123511218E+02 -0.21634957583E+02 -0.26376601838E+03  0.26647749772E+03  0.10000000000E+01 0.  0.
    9000005    1    3    3    0    0 -0.31123511218E+02  0.21634957583E+02 -0.18420572295E+02  0.42155211111E+02  0.10000000000E+01 0.  0.
<mgrwt>
<rscale>  0 0.12499951E+03</rscale>
<asrwt>0</asrwt>
<pdfrwt beam="2">  1        4 0.73852391E-01 0.12499951E+03</pdfrwt>
<pdfrwt beam="1">  1       -4 0.33057657E-02 0.12499951E+03</pdfrwt>
<totfact> 0.12732657E+03</totfact>
</mgrwt>
</event>
<event>
 5    1  0.1438401E-002  0.1250019E+03  0.7818608E-02  0.1235066E+00
         -4   -1    0    0    0  501 -0.00000000000E+00  0.00000000000E+00  0.18148318726E+02  0.18192701080E+02  0.12700000000E+01 0. -1.
          4   -1    0    0  501    0  0.00000000000E+00 -0.00000000000E+00 -0.21493764467E+03  0.21494139666E+03  0.12700000000E+01 0. -1.
         25    2    1    2    0    0  0.00000000000E+00  0.00000000000E+00 -0.19678932595E+03  0.23313409774E+03  0.12500187487E+03 0.  0.
    9000005    1    3    3    0    0  0.36510930278E+02 -0.24038719870E+02 -0.18168638430E+03  0.18687388882E+03  0.10000000000E+01 0.  0.
    9000005    1    3    3    0    0 -0.36510930278E+02  0.24038719870E+02 -0.15102941647E+02  0.46260208918E+02  0.10000000000E+01 0.  0.
<mgrwt>
<rscale>  0 0.12500187E+03</rscale>
<asrwt>0</asrwt>
<pdfrwt beam="2">  1        4 0.53740420E-01 0.12500187E+03</pdfrwt>
<pdfrwt beam="1">  1       -4 0.45430971E-02 0.12500187E+03</pdfrwt>
<totfact> 0.15075316E+03</totfact>
</mgrwt>
</event>
<event>
 5    1  0.1438401E-002  0.1250001E+03  0.7818608E-02  0.1235069E+00
         -4   -1    0    0    0  501 -0.00000000000E+00  0.00000000000E+00  0.25355640165E+02  0.25387425789E+02  0.12700000000E+01 0. -1.
          4   -1    0    0  501    0  0.00000000000E+00 -0.00000000000E+00 -0.15392765741E+03  0.15393289647E+03  0.12700000000E+01 0. -1.
         25    2    1    2    0    0  0.00000000000E+00  0.00000000000E+00 -0.12857201724E+03  0.17932032226E+03  0.12500005743E+03 0.  0.
    9000005    1    3    3    0    0 -0.59679430628E+02 -0.92537920541E+01 -0.41244135915E+02  0.73139222411E+02  0.10000000000E+01 0.  0.
    9000005    1    3    3    0    0  0.59679430628E+02  0.92537920541E+01 -0.87327881325E+02  0.10618109984E+03  0.10000000000E+01 0.  0.
<mgrwt>
<rscale>  0 0.12500006E+03</rscale>
<asrwt>0</asrwt>
<pdfrwt beam="2">  1        4 0.38486540E-01 0.12500006E+03</pdfrwt>
<pdfrwt beam="1">  1       -4 0.63435386E-02 0.12500006E+03</pdfrwt>
<totfact> 0.17184651E+03</totfact>
</mgrwt>
</event>
<event>
 5    1  0.1438401E-002  0.1250067E+03  0.7818608E-02  0.1235059E+00
         -4   -1    0    0    0  501 -0.00000000000E+00  0.00000000000E+00  0.47561312299E+02  0.47578265286E+02  0.12700000000E+01 0. -1.
          4   -1    0    0  501    0  0.00000000000E+00 -0.00000000000E+00 -0.82103089940E+02  0.82112911760E+02  0.12700000000E+01 0. -1.
         25    2    1    2    0    0  0.00000000000E+00  0.00000000000E+00 -0.34541777641E+02  0.12969117705E+03  0.12500666783E+03 0.  0.
    9000005    1    3    3    0    0  0.46962048572E+02  0.35931410412E+02  0.37149958711E+01  0.59256235576E+02  0.10000000000E+01 0.  0.
    9000005    1    3    3    0    0 -0.46962048572E+02 -0.35931410412E+02 -0.38256773512E+02  0.70434941470E+02  0.10000000000E+01 0.  0.
<mgrwt>
<rscale>  0 0.12500667E+03</rscale>
<asrwt>0</asrwt>
<pdfrwt beam="2">  1        4 0.20529119E-01 0.12500667E+03</pdfrwt>
<pdfrwt beam="1">  1       -4 0.11893675E-01 0.12500667E+03</pdfrwt>
<totfact> 0.19577952E+03</totfact>
</mgrwt>
</event>
<event>
 5    1  0.1438401E-002  0.1250007E+03  0.7818608E-02  0.1235068E+00
         -4   -1    0    0    0  501 -0.00000000000E+00  0.00000000000E+00  0.43793777704E+01  0.45598080723E+01  0.12700000000E+01 0.  1.
          4   -1    0    0  501    0  0.00000000000E+00 -0.00000000000E+00 -0.87379019134E+03  0.87379111427E+03  0.12700000000E+01 0.  1.
         25    2    1    2    0    0  0.00000000000E+00  0.00000000000E+00 -0.86941081357E+03  0.87835092234E+03  0.12500072013E+03 0.  0.
    9000005    1    3    3    0    0 -0.30014631008E+02 -0.39371111050E+02 -0.16673464639E+03  0.17393218439E+03  0.10000000000E+01 0.  0.
    9000005    1    3    3    0    0  0.30014631008E+02  0.39371111050E+02 -0.70267616718E+03  0.70441873796E+03  0.10000000000E+01 0.  0.
<mgrwt>
<rscale>  0 0.12500072E+03</rscale>
<asrwt>0</asrwt>
<pdfrwt beam="2">  1        4 0.21846963E+00 0.12500072E+03</pdfrwt>
<pdfrwt beam="1">  1       -4 0.11175166E-02 0.12500072E+03</pdfrwt>
<totfact> 0.45951997E+02</totfact>
</mgrwt>
</event>
<event>
 5    1  0.1438401E-002  0.1250005E+03  0.7818608E-02  0.1235069E+00
          4   -1    0    0  501    0  0.00000000000E+00  0.00000000000E+00  0.77807949250E+02  0.77818313182E+02  0.12700000000E+01 0. -1.
         -4   -1    0    0    0  501 -0.00000000000E+00 -0.00000000000E+00 -0.50182389743E+02  0.50198457549E+02  0.12700000000E+01 0. -1.
         25    2    1    2    0    0  0.00000000000E+00  0.00000000000E+00  0.27625559507E+02  0.12801677073E+03  0.12500048820E+03 0.  0.
    9000005    1    3    3    0    0 -0.43324312435E+01  0.38383679435E+01  0.77537854494E+02  0.77760027703E+02  0.10000000000E+01 0.  0.
    9000005    1    3    3    0    0  0.43324312435E+01 -0.38383679435E+01 -0.49912294987E+02  0.50256743028E+02  0.10000000000E+01 0.  0.
<mgrwt>
<rscale>  0 0.12500049E+03</rscale>
<asrwt>0</asrwt>
<pdfrwt beam="1">  1        4 0.19455291E-01 0.12500049E+03</pdfrwt>
<pdfrwt beam="2">  1       -4 0.12548902E-01 0.12500049E+03</pdfrwt>
<totfact> 0.19671397E+03</totfact>
</mgrwt>
</event>
<event>
 5    1  0.1438401E-002  0.1250029E+03  0.7818608E-02  0.1235065E+00
          4   -1    0    0  501    0  0.00000000000E+00  0.00000000000E+00  0.11026195524E+02  0.11099094005E+02  0.12700000000E+01 0. -1.
         -4   -1    0    0    0  501 -0.00000000000E+00 -0.00000000000E+00 -0.35304513584E+03  0.35304742010E+03  0.12700000000E+01 0. -1.
         25    2    1    2    0    0  0.00000000000E+00  0.00000000000E+00 -0.34201894031E+03  0.36414651410E+03  0.12500291277E+03 0.  0.
    9000005    1    3    3    0    0  0.55136807322E+02 -0.87073043902E+01 -0.25286445305E+03  0.25895427451E+03  0.10000000000E+01 0.  0.
    9000005    1    3    3    0    0 -0.55136807322E+02  0.87073043902E+01 -0.89154487266E+02  0.10519223960E+03  0.10000000000E+01 0.  0.
<mgrwt>
<rscale>  0 0.12500291E+03</rscale>
<asrwt>0</asrwt>
<pdfrwt beam="1">  1        4 0.27659479E-02 0.12500291E+03</pdfrwt>
<pdfrwt beam="2">  1       -4 0.88270644E-01 0.12500291E+03</pdfrwt>
<totfact> 0.11346294E+03</totfact>
</mgrwt>
</event>
<event>
 5    1  0.1438401E-002  0.1250136E+03  0.7818608E-02  0.1235048E+00
          4   -1    0    0  501    0  0.00000000000E+00  0.00000000000E+00  0.36773149313E+02  0.36795073181E+02  0.12700000000E+01 0.  1.
         -4   -1    0    0    0  501 -0.00000000000E+00 -0.00000000000E+00 -0.10619134097E+03  0.10619893501E+03  0.12700000000E+01 0.  1.
         25    2    1    2    0    0  0.00000000000E+00  0.00000000000E+00 -0.69418191661E+02  0.14299400819E+03  0.12501360344E+03 0.  0.
    9000005    1    3    3    0    0 -0.16936313986E+02 -0.31314100122E+02  0.24047231526E+02  0.42973025748E+02  0.10000000000E+01 0.  0.
    9000005    1    3    3    0    0  0.16936313986E+02  0.31314100122E+02 -0.93465423187E+02  0.10002098245E+03  0.10000000000E+01 0.  0.
<mgrwt>
<rscale>  0 0.12501360E+03</rscale>
<asrwt>0</asrwt>
<pdfrwt beam="1">  1        4 0.91969773E-02 0.12501360E+03</pdfrwt>
<pdfrwt beam="2">  1       -4 0.26551524E-01 0.12501360E+03</pdfrwt>
<totfact> 0.18882219E+03</totfact>
</mgrwt>
</event>
<event>
 5    1  0.1438401E-002  0.1249970E+03  0.7818608E-02  0.1235074E+00
          4   -1    0    0  501    0  0.00000000000E+00  0.00000000000E+00  0.24030446935E+03  0.24030782527E+03  0.12700000000E+01 0.  1.
         -4   -1    0    0    0  501 -0.00000000000E+00 -0.00000000000E+00 -0.16226370759E+02  0.16275994840E+02  0.12700000000E+01 0.  1.
         25    2    1    2    0    0  0.00000000000E+00  0.00000000000E+00  0.22407809859E+03  0.25658382011E+03  0.12499704988E+03 0.  0.
    9000005    1    3    3    0    0  0.20178039977E+02 -0.47541219480E+02  0.39821116287E+02  0.65223018554E+02  0.10000000000E+01 0.  0.
    9000005    1    3    3    0    0 -0.20178039977E+02  0.47541219480E+02  0.18425698230E+03  0.19136080156E+03  0.10000000000E+01 0.  0.
<mgrwt>
<rscale>  0 0.12499705E+03</rscale>
<asrwt>0</asrwt>
<pdfrwt beam="1">  1        4 0.60082740E-01 0.12499705E+03</pdfrwt>
<pdfrwt beam="2">  1       -4 0.40632152E-02 0.12499705E+03</pdfrwt>
<totfact> 0.14282478E+03</totfact>
</mgrwt>
</event>
<event>
 5    1  0.1438401E-002  0.1250004E+03  0.7818608E-02  0.1235069E+00
         -4   -1    0    0    0  501 -0.00000000000E+00  0.00000000000E+00  0.32857712354E+03  0.32857957790E+03  0.12700000000E+01 0. -1.
          4   -1    0    0  501    0  0.00000000000E+00 -0.00000000000E+00 -0.11852027971E+02  0.11919876972E+02  0.12700000000E+01 0. -1.
         25    2    1    2    0    0  0.00000000000E+00  0.00000000000E+00  0.31672509557E+03  0.34049945487E+03  0.12500037042E+03 0.  0.
    9000005    1    3    3    0    0  0.44206890894E+02  0.27922002160E+02  0.25159241983E+03  0.25697010161E+03  0.10000000000E+01 0.  0.
    9000005    1    3    3    0    0 -0.44206890894E+02 -0.27922002160E+02  0.65132675740E+02  0.83529353261E+02  0.10000000000E+01 0.  0.
<mgrwt>
<rscale>  0 0.12500037E+03</rscale>
<asrwt>0</asrwt>
<pdfrwt beam="2">  1        4 0.29717950E-02 0.12500037E+03</pdfrwt>
<pdfrwt beam="1">  1       -4 0.82153067E-01 0.12500037E+03</pdfrwt>
<totfact> 0.11907277E+03</totfact>
</mgrwt>
</event>
<event>
 5    1  0.1438401E-002  0.1250010E+03  0.7818608E-02  0.1235068E+00
          4   -1    0    0  501    0  0.00000000000E+00  0.00000000000E+00  0.29165300317E+03  0.29165576826E+03  0.12700000000E+01 0. -1.
         -4   -1    0    0    0  501 -0.00000000000E+00 -0.00000000000E+00 -0.13360756569E+02  0.13420980445E+02  0.12700000000E+01 0. -1.
         25    2    1    2    0    0  0.00000000000E+00  0.00000000000E+00  0.27829224660E+03  0.30507674870E+03  0.12500099232E+03 0.  0.
    9000005    1    3    3    0    0  0.42393344576E+02 -0.24401409635E+02  0.44223383080E+02  0.65949466014E+02  0.10000000000E+01 0.  0.
    9000005    1    3    3    0    0 -0.42393344576E+02  0.24401409635E+02  0.23406886352E+03  0.23912728269E+03  0.10000000000E+01 0.  0.
<mgrwt>
<rscale>  0 0.12500099E+03</rscale>
<asrwt>0</asrwt>
<pdfrwt beam="1">  1        4 0.72921123E-01 0.12500099E+03</pdfrwt>
<pdfrwt beam="2">  1       -4 0.33480628E-02 0.12500099E+03</pdfrwt>
<totfact> 0.12829663E+03</totfact>
</mgrwt>
</event>
<event>
 5    1  0.1438401E-002  0.1249947E+03  0.7818608E-02  0.1235078E+00
         -4   -1    0    0    0  501 -0.00000000000E+00  0.00000000000E+00  0.57582900213E+02  0.57596903536E+02  0.12700000000E+01 0. -1.
          4   -1    0    0  501    0  0.00000000000E+00 -0.00000000000E+00 -0.67803017920E+02  0.67814910891E+02  0.12700000000E+01 0. -1.
         25    2    1    2    0    0  0.00000000000E+00  0.00000000000E+00 -0.10220117708E+02  0.12541181443E+03  0.12499468945E+03 0.  0.
    9000005    1    3    3    0    0 -0.14093969574E+02  0.52375147871E+02  0.26027713703E+02  0.60168413420E+02  0.10000000000E+01 0.  0.
    9000005    1    3    3    0    0  0.14093969574E+02 -0.52375147871E+02 -0.36247831411E+02  0.65243401006E+02  0.10000000000E+01 0.  0.
<mgrwt>
<rscale>  0 0.12499469E+03</rscale>
<asrwt>0</asrwt>
<pdfrwt beam="2">  1        4 0.16953991E-01 0.12499469E+03</pdfrwt>
<pdfrwt beam="1">  1       -4 0.14398962E-01 0.12499469E+03</pdfrwt>
<totfact> 0.19815200E+03</totfact>
</mgrwt>
</event>
<event>
 5    1  0.1438401E-002  0.1250042E+03  0.7818608E-02  0.1235063E+00
         -4   -1    0    0    0  501 -0.00000000000E+00  0.00000000000E+00  0.43078359735E+01  0.44911413666E+01  0.12700000000E+01 0.  1.
          4   -1    0    0  501    0  0.00000000000E+00 -0.00000000000E+00 -0.88776359268E+03  0.88776450108E+03  0.12700000000E+01 0.  1.
         25    2    1    2    0    0  0.00000000000E+00  0.00000000000E+00 -0.88345575670E+03  0.89225564245E+03  0.12500422965E+03 0.  0.
    9000005    1    3    3    0    0 -0.58682967248E+02  0.21265964230E+02 -0.41963239488E+03  0.42425025482E+03  0.10000000000E+01 0.  0.
    9000005    1    3    3    0    0  0.58682967248E+02 -0.21265964230E+02 -0.46382336182E+03  0.46800538763E+03  0.10000000000E+01 0.  0.
<mgrwt>
<rscale>  0 0.12500423E+03</rscale>
<asrwt>0</asrwt>
<pdfrwt beam="2">  1        4 0.22196331E+00 0.12500423E+03</pdfrwt>
<pdfrwt beam="1">  1       -4 0.10999888E-02 0.12500423E+03</pdfrwt>
<totfact> 0.44864875E+02</totfact>
</mgrwt>
</event>
<event>
 5    1  0.1438401E-002  0.1249981E+03  0.7818608E-02  0.1235072E+00
          4   -1    0    0  501    0  0.00000000000E+00  0.00000000000E+00  0.57854823517E+01  0.59232344240E+01  0.12700000000E+01 0.  1.
         -4   -1    0    0    0  501 -0.00000000000E+00 -0.00000000000E+00 -0.66707944150E+03  0.66708065043E+03  0.12700000000E+01 0.  1.
         25    2    1    2    0    0  0.00000000000E+00  0.00000000000E+00 -0.66129395915E+03  0.67300388485E+03  0.12499811445E+03 0.  0.
    9000005    1    3    3    0    0 -0.29262464925E+02  0.42509194137E+02 -0.14091459681E+03  0.15007080673E+03  0.10000000000E+01 0.  0.
    9000005    1    3    3    0    0  0.29262464925E+02 -0.42509194137E+02 -0.52037936234E+03  0.52293307812E+03  0.10000000000E+01 0.  0.
<mgrwt>
<rscale>  0 0.12499811E+03</rscale>
<asrwt>0</asrwt>
<pdfrwt beam="1">  1        4 0.14637430E-02 0.12499811E+03</pdfrwt>
<pdfrwt beam="2">  1       -4 0.16678697E+00 0.12499811E+03</pdfrwt>
<totfact> 0.64942009E+02</totfact>
</mgrwt>
</event>
<event>
 5    1  0.1438401E-002  0.1249762E+03  0.7818608E-02  0.1235107E+00
         -4   -1    0    0    0  501 -0.00000000000E+00  0.00000000000E+00  0.41770697188E+03  0.41770890254E+03  0.12700000000E+01 0. -1.
          4   -1    0    0  501    0  0.00000000000E+00 -0.00000000000E+00 -0.93029893014E+01  0.93892763268E+01  0.12700000000E+01 0. -1.
         25    2    1    2    0    0  0.00000000000E+00  0.00000000000E+00  0.40840398258E+03  0.42709817886E+03  0.12497616333E+03 0.  0.
    9000005    1    3    3    0    0 -0.29349282307E+02  0.54818195610E+02  0.18331772904E+03  0.19357893667E+03  0.10000000000E+01 0.  0.
    9000005    1    3    3    0    0  0.29349282307E+02 -0.54818195610E+02  0.22508625354E+03  0.23351924220E+03  0.10000000000E+01 0.  0.
<mgrwt>
<rscale>  0 0.12497616E+03</rscale>
<asrwt>0</asrwt>
<pdfrwt beam="2">  1        4 0.23367747E-02 0.12497616E+03</pdfrwt>
<pdfrwt beam="1">  1       -4 0.10443776E+00 0.12497616E+03</pdfrwt>
<totfact> 0.10033269E+03</totfact>
</mgrwt>
</event>
<event>
 5    1  0.1438401E-002  0.1250037E+03  0.7818608E-02  0.1235063E+00
         -4   -1    0    0    0  501 -0.00000000000E+00  0.00000000000E+00  0.56556857434E+02  0.56571114739E+02  0.12700000000E+01 0. -1.
          4   -1    0    0  501    0  0.00000000000E+00 -0.00000000000E+00 -0.69042966397E+02  0.69054645817E+02  0.12700000000E+01 0. -1.
         25    2    1    2    0    0  0.00000000000E+00  0.00000000000E+00 -0.12486108963E+02  0.12562576056E+03  0.12500371514E+03 0.  0.
    9000005    1    3    3    0    0 -0.44443167712E+02  0.15869899636E+02 -0.47415610670E+02  0.66905074591E+02  0.10000000000E+01 0.  0.
    9000005    1    3    3    0    0  0.44443167712E+02 -0.15869899636E+02  0.34929501707E+02  0.58720685965E+02  0.10000000000E+01 0.  0.
<mgrwt>
<rscale>  0 0.12500372E+03</rscale>
<asrwt>0</asrwt>
<pdfrwt beam="2">  1        4 0.17263984E-01 0.12500372E+03</pdfrwt>
<pdfrwt beam="1">  1       -4 0.14142456E-01 0.12500372E+03</pdfrwt>
<totfact> 0.19799436E+03</totfact>
</mgrwt>
</event>
<event>
 5    1  0.1438401E-002  0.1250008E+03  0.7818608E-02  0.1235068E+00
         -4   -1    0    0    0  501 -0.00000000000E+00  0.00000000000E+00  0.14751921692E+02  0.14806488226E+02  0.12700000000E+01 0. -1.
          4   -1    0    0  501    0  0.00000000000E+00 -0.00000000000E+00 -0.26425438636E+03  0.26425743813E+03  0.12700000000E+01 0. -1.
         25    2    1    2    0    0  0.00000000000E+00  0.00000000000E+00 -0.24950246467E+03  0.27906392636E+03  0.12500078048E+03 0.  0.
    9000005    1    3    3    0    0  0.44552617614E+02  0.62204182359E+01 -0.27909479487E+02  0.52948733550E+02  0.10000000000E+01 0.  0.
    9000005    1    3    3    0    0 -0.44552617614E+02 -0.62204182359E+01 -0.22159298518E+03  0.22611519281E+03  0.10000000000E+01 0.  0.
<mgrwt>
<rscale>  0 0.12500078E+03</rscale>
<asrwt>0</asrwt>
<pdfrwt beam="2">  1        4 0.66070784E-01 0.12500078E+03</pdfrwt>
<pdfrwt beam="1">  1       -4 0.36951836E-02 0.12500078E+03</pdfrwt>
<totfact> 0.13578561E+03</totfact>
</mgrwt>
</event>
<event>
 5    1  0.1438401E-002  0.1249972E+03  0.7818608E-02  0.1235074E+00
          4   -1    0    0  501    0  0.00000000000E+00  0.00000000000E+00  0.82197545796E+01  0.83172871388E+01  0.12700000000E+01 0.  1.
         -4   -1    0    0    0  501 -0.00000000000E+00 -0.00000000000E+00 -0.47230462755E+03  0.47230633502E+03  0.12700000000E+01 0.  1.
         25    2    1    2    0    0  0.00000000000E+00  0.00000000000E+00 -0.46408487297E+03  0.48062362216E+03  0.12499718742E+03 0.  0.
    9000005    1    3    3    0    0  0.34668301026E+02  0.23465022861E+02 -0.53646852319E+02  0.68055000975E+02  0.10000000000E+01 0.  0.
    9000005    1    3    3    0    0 -0.34668301026E+02 -0.23465022861E+02 -0.41043802065E+03  0.41256862119E+03  0.10000000000E+01 0.  0.
<mgrwt>
<rscale>  0 0.12499719E+03</rscale>
<asrwt>0</asrwt>
<pdfrwt beam="1">  1        4 0.20673452E-02 0.12499719E+03</pdfrwt>
<pdfrwt beam="2">  1       -4 0.11808847E+00 0.12499719E+03</pdfrwt>
<totfact> 0.90771927E+02</totfact>
</mgrwt>
</event>
<event>
 5    1  0.1438401E-002  0.1250093E+03  0.7818608E-02  0.1235055E+00
          4   -1    0    0  501    0  0.00000000000E+00  0.00000000000E+00  0.10484814932E+03  0.10485584064E+03  0.12700000000E+01 0.  1.
         -4   -1    0    0    0  501 -0.00000000000E+00 -0.00000000000E+00 -0.37241931186E+02  0.37263579249E+02  0.12700000000E+01 0.  1.
         25    2    1    2    0    0  0.00000000000E+00  0.00000000000E+00  0.67606218132E+02  0.14211941988E+03  0.12500931477E+03 0.  0.
    9000005    1    3    3    0    0  0.16376475582E+02 -0.60312815371E+02  0.33704364481E+02  0.71012737136E+02  0.10000000000E+01 0.  0.
    9000005    1    3    3    0    0 -0.16376475582E+02  0.60312815371E+02  0.33901853651E+02  0.71106682748E+02  0.10000000000E+01 0.  0.
<mgrwt>
<rscale>  0 0.12500931E+03</rscale>
<asrwt>0</asrwt>
<pdfrwt beam="1">  1        4 0.26215705E-01 0.12500931E+03</pdfrwt>
<pdfrwt beam="2">  1       -4 0.93141503E-02 0.12500931E+03</pdfrwt>
<totfact> 0.18928326E+03</totfact>
</mgrwt>
</event>
<event>
 5    1  0.1438401E-002  0.1250005E+03  0.7818608E-02  0.1235069E+00
         -4   -1    0    0    0  501 -0.00000000000E+00  0.00000000000E+00  0.42070373446E+01  0.43945492623E+01  0.12700000000E+01 0.  1.
          4   -1    0    0  501    0  0.00000000000E+00 -0.00000000000E+00 -0.90808194378E+03  0.90808283186E+03  0.12700000000E+01 0.  1.
         25    2    1    2    0    0  0.00000000000E+00  0.00000000000E+00 -0.90387490643E+03  0.91247738112E+03  0.12500049831E+03 0.  0.
    9000005    1    3    3    0    0 -0.39211432038E+02  0.44960961558E+02 -0.31610315536E+03  0.32168498457E+03  0.10000000000E+01 0.  0.
    9000005    1    3    3    0    0  0.39211432038E+02 -0.44960961558E+02 -0.58777175107E+03  0.59079239655E+03  0.10000000000E+01 0.  0.
<mgrwt>
<rscale>  0 0.12500050E+03</rscale>
<asrwt>0</asrwt>
<pdfrwt beam="2">  1        4 0.22704338E+00 0.12500050E+03</pdfrwt>
<pdfrwt beam="1">  1       -4 0.10753124E-02 0.12500050E+03</pdfrwt>
<totfact> 0.43330292E+02</totfact>
</mgrwt>
</event>
<event>
 5    1  0.1438401E-002  0.1249977E+03  0.7818608E-02  0.1235073E+00
          4   -1    0    0  501    0  0.00000000000E+00  0.00000000000E+00  0.14769159340E+03  0.14769705367E+03  0.12700000000E+01 0. -1.
         -4   -1    0    0    0  501 -0.00000000000E+00 -0.00000000000E+00 -0.26426503872E+02  0.26457002984E+02  0.12700000000E+01 0. -1.
         25    2    1    2    0    0  0.00000000000E+00  0.00000000000E+00  0.12126508953E+03  0.17415405665E+03  0.12499765402E+03 0.  0.
    9000005    1    3    3    0    0 -0.29284784557E+02 -0.40677923232E+02  0.86355936905E+01  0.50871067646E+02  0.10000000000E+01 0.  0.
    9000005    1    3    3    0    0  0.29284784557E+02  0.40677923232E+02  0.11262949584E+03  0.12328298901E+03  0.10000000000E+01 0.  0.
<mgrwt>
<rscale>  0 0.12499765E+03</rscale>
<asrwt>0</asrwt>
<pdfrwt beam="1">  1        4 0.36927393E-01 0.12499765E+03</pdfrwt>
<pdfrwt beam="2">  1       -4 0.66111210E-02 0.12499765E+03</pdfrwt>
<totfact> 0.17412241E+03</totfact>
</mgrwt>
</event>
<event>
 5    1  0.1438401E-002  0.1250001E+03  0.7818608E-02  0.1235069E+00
          4   -1    0    0  501    0  0.00000000000E+00  0.00000000000E+00  0.32113473693E+02  0.32138576394E+02  0.12700000000E+01 0.  1.
         -4   -1    0    0    0  501 -0.00000000000E+00 -0.00000000000E+00 -0.12156319479E+03  0.12156982861E+03  0.12700000000E+01 0.  1.
         25    2    1    2    0    0  0.00000000000E+00  0.00000000000E+00 -0.89449721097E+02  0.15370840500E+03  0.12500008465E+03 0.  0.
    9000005    1    3    3    0    0 -0.34347454184E+02 -0.25413493207E+02 -0.10080172110E+03  0.10948780856E+03  0.10000000000E+01 0.  0.
    9000005    1    3    3    0    0  0.34347454184E+02  0.25413493207E+02  0.11352000002E+02  0.44220596444E+02  0.10000000000E+01 0.  0.
<mgrwt>
<rscale>  0 0.12500008E+03</rscale>
<asrwt>0</asrwt>
<pdfrwt beam="1">  1        4 0.80323358E-02 0.12500008E+03</pdfrwt>
<pdfrwt beam="2">  1       -4 0.30394765E-01 0.12500008E+03</pdfrwt>
<totfact> 0.18357893E+03</totfact>
</mgrwt>
</event>
<event>
 5    1  0.1438401E-002  0.1249999E+03  0.7818608E-02  0.1235069E+00
         -4   -1    0    0    0  501 -0.00000000000E+00  0.00000000000E+00  0.78452961980E+02  0.78463240715E+02  0.12700000000E+01 0. -1.
          4   -1    0    0  501    0  0.00000000000E+00 -0.00000000000E+00 -0.49769267854E+02  0.49785468991E+02  0.12700000000E+01 0. -1.
         25    2    1    2    0    0  0.00000000000E+00  0.00000000000E+00  0.28683694127E+02  0.12824870971E+03  0.12499990893E+03 0.  0.
    9000005    1    3    3    0    0 -0.52437427579E+02 -0.12774129284E+02 -0.17979002875E+02  0.56895577459E+02  0.10000000000E+01 0.  0.
    9000005    1    3    3    0    0  0.52437427579E+02  0.12774129284E+02  0.46662697001E+02  0.71353132247E+02  0.10000000000E+01 0.  0.
<mgrwt>
<rscale>  0 0.12499991E+03</rscale>
<asrwt>0</asrwt>
<pdfrwt beam="2">  1        4 0.12445627E-01 0.12499991E+03</pdfrwt>
<pdfrwt beam="1">  1       -4 0.19616550E-01 0.12499991E+03</pdfrwt>
<totfact> 0.19659054E+03</totfact>
</mgrwt>
</event>
<event>
 5    1  0.1438401E-002  0.1250031E+03  0.7818608E-02  0.1235064E+00
          4   -1    0    0  501    0  0.00000000000E+00  0.00000000000E+00  0.91594245968E+02  0.91603050137E+02  0.12700000000E+01 0.  1.
         -4   -1    0    0    0  501 -0.00000000000E+00 -0.00000000000E+00 -0.42629156194E+02  0.42648069802E+02  0.12700000000E+01 0.  1.
         25    2    1    2    0    0  0.00000000000E+00  0.00000000000E+00  0.48965089774E+02  0.13425111994E+03  0.12500313271E+03 0.  0.
    9000005    1    3    3    0    0  0.27266582723E+02  0.23533806724E+02  0.79330747973E+02  0.87130213854E+02  0.10000000000E+01 0.  0.
    9000005    1    3    3    0    0 -0.27266582723E+02 -0.23533806724E+02 -0.30365658199E+02  0.47120906084E+02  0.10000000000E+01 0.  0.
<mgrwt>
<rscale>  0 0.12500313E+03</rscale>
<asrwt>0</asrwt>
<pdfrwt beam="1">  1        4 0.22902026E-01 0.12500313E+03</pdfrwt>
<pdfrwt beam="2">  1       -4 0.10660754E-01 0.12500313E+03</pdfrwt>
<totfact> 0.19337021E+03</totfact>
</mgrwt>
</event>
<event>
 5    1  0.1438401E-002  0.1250004E+03  0.7818608E-02  0.1235069E+00
          4   -1    0    0  501    0  0.00000000000E+00  0.00000000000E+00  0.25070249733E+02  0.25102396731E+02  0.12700000000E+01 0.  1.
         -4   -1    0    0    0  501 -0.00000000000E+00 -0.00000000000E+00 -0.15567870961E+03  0.15568388974E+03  0.12700000000E+01 0.  1.
         25    2    1    2    0    0  0.00000000000E+00  0.00000000000E+00 -0.13060845987E+03  0.18078628647E+03  0.12500044634E+03 0.  0.
    9000005    1    3    3    0    0  0.60494897048E+02 -0.94286959126E+00 -0.87930912375E+02  0.10673971577E+03  0.10000000000E+01 0.  0.
    9000005    1    3    3    0    0 -0.60494897048E+02  0.94286959126E+00 -0.42677547498E+02  0.74046570699E+02  0.10000000000E+01 0.  0.
<mgrwt>
<rscale>  0 0.12500045E+03</rscale>
<asrwt>0</asrwt>
<pdfrwt beam="1">  1        4 0.62722288E-02 0.12500045E+03</pdfrwt>
<pdfrwt beam="2">  1       -4 0.38924341E-01 0.12500045E+03</pdfrwt>
<totfact> 0.17121057E+03</totfact>
</mgrwt>
</event>
<event>
 5    1  0.1438401E-002  0.1250006E+03  0.7818608E-02  0.1235068E+00
         -4   -1    0    0    0  501 -0.00000000000E+00  0.00000000000E+00  0.40763400895E+02  0.40783179774E+02  0.12700000000E+01 0.  1.
          4   -1    0    0  501    0  0.00000000000E+00 -0.00000000000E+00 -0.95781121926E+02  0.95789541274E+02  0.12700000000E+01 0.  1.
         25    2    1    2    0    0  0.00000000000E+00  0.00000000000E+00 -0.55017721032E+02  0.13657272105E+03  0.12500063403E+03 0.  0.
    9000005    1    3    3    0    0 -0.44279969713E+02  0.43296408312E+02 -0.18368042610E+02  0.64604022165E+02  0.10000000000E+01 0.  0.
    9000005    1    3    3    0    0  0.44279969713E+02 -0.43296408312E+02 -0.36649678421E+02  0.71968698883E+02  0.10000000000E+01 0.  0.
<mgrwt>
<rscale>  0 0.12500063E+03</rscale>
<asrwt>0</asrwt>
<pdfrwt beam="2">  1        4 0.23948805E-01 0.12500063E+03</pdfrwt>
<pdfrwt beam="1">  1       -4 0.10194375E-01 0.12500063E+03</pdfrwt>
<totfact> 0.19216790E+03</totfact>
</mgrwt>
</event>
<event>
 5    1  0.1438401E-002  0.1250009E+03  0.7818608E-02  0.1235068E+00
         -4   -1    0    0    0  501 -0.00000000000E+00  0.00000000000E+00  0.93385709778E+02  0.93394345068E+02  0.12700000000E+01 0.  1.
          4   -1    0    0  501    0  0.00000000000E+00 -0.00000000000E+00 -0.41809613404E+02  0.41828897583E+02  0.12700000000E+01 0.  1.
         25    2    1    2    0    0  0.00000000000E+00  0.00000000000E+00  0.51576096374E+02  0.13522324265E+03  0.12500092654E+03 0.  0.
    9000005    1    3    3    0    0 -0.31150838885E+02  0.14876395563E+02  0.82140538092E+02  0.89105274290E+02  0.10000000000E+01 0.  0.
    9000005    1    3    3    0    0  0.31150838885E+02 -0.14876395563E+02 -0.30564441718E+02  0.46117968361E+02  0.10000000000E+01 0.  0.
<mgrwt>
<rscale>  0 0.12500093E+03</rscale>
<asrwt>0</asrwt>
<pdfrwt beam="2">  1        4 0.10455893E-01 0.12500093E+03</pdfrwt>
<pdfrwt beam="1">  1       -4 0.23349917E-01 0.12500093E+03</pdfrwt>
<totfact> 0.19287033E+03</totfact>
</mgrwt>
</event>
<event>
 5    1  0.1438401E-002  0.1249963E+03  0.7818608E-02  0.1235075E+00
          4   -1    0    0  501    0  0.00000000000E+00  0.00000000000E+00  0.39399443171E+02  0.39419906420E+02  0.12700000000E+01 0. -1.
         -4   -1    0    0    0  501 -0.00000000000E+00 -0.00000000000E+00 -0.99088676141E+02  0.99096814476E+02  0.12700000000E+01 0. -1.
         25    2    1    2    0    0  0.00000000000E+00  0.00000000000E+00 -0.59689232970E+02  0.13851672090E+03  0.12499630969E+03 0.  0.
    9000005    1    3    3    0    0  0.35142072866E+02  0.39451387655E+02 -0.66825546439E+02  0.85194078022E+02  0.10000000000E+01 0.  0.
    9000005    1    3    3    0    0 -0.35142072866E+02 -0.39451387655E+02  0.71363134696E+01  0.53322642874E+02  0.10000000000E+01 0.  0.
<mgrwt>
<rscale>  0 0.12499631E+03</rscale>
<asrwt>0</asrwt>
<pdfrwt beam="1">  1        4 0.98534362E-02 0.12499631E+03</pdfrwt>
<pdfrwt beam="2">  1       -4 0.24775744E-01 0.12499631E+03</pdfrwt>
<totfact> 0.19118129E+03</totfact>
</mgrwt>
</event>
<event>
 5    1  0.1438401E-002  0.1249999E+03  0.7818608E-02  0.1235069E+00
         -4   -1    0    0    0  501 -0.00000000000E+00  0.00000000000E+00  0.23166876595E+02  0.23201660957E+02  0.12700000000E+01 0.  1.
          4   -1    0    0  501    0  0.00000000000E+00 -0.00000000000E+00 -0.16844958444E+03  0.16845437186E+03  0.12700000000E+01 0.  1.
         25    2    1    2    0    0  0.00000000000E+00  0.00000000000E+00 -0.14528270785E+03  0.19165603282E+03  0.12499987886E+03 0.  0.
    9000005    1    3    3    0    0  0.63303630802E+01  0.62165251044E+02 -0.71404738081E+02  0.94890613627E+02  0.10000000000E+01 0.  0.
    9000005    1    3    3    0    0 -0.63303630802E+01 -0.62165251044E+02 -0.73877969764E+02  0.96765419188E+02  0.10000000000E+01 0.  0.
<mgrwt>
<rscale>  0 0.12499988E+03</rscale>
<asrwt>0</asrwt>
<pdfrwt beam="2">  1        4 0.42117339E-01 0.12499988E+03</pdfrwt>
<pdfrwt beam="1">  1       -4 0.57966661E-02 0.12499988E+03</pdfrwt>
<totfact> 0.16661737E+03</totfact>
</mgrwt>
</event>
<event>
 5    1  0.1438401E-002  0.1249978E+03  0.7818608E-02  0.1235073E+00
         -4   -1    0    0    0  501 -0.00000000000E+00  0.00000000000E+00  0.62901775380E+02  0.62914594857E+02  0.12700000000E+01 0.  1.
          4   -1    0    0  501    0  0.00000000000E+00 -0.00000000000E+00 -0.62072963056E+02  0.62085953666E+02  0.12700000000E+01 0.  1.
         25    2    1    2    0    0  0.00000000000E+00  0.00000000000E+00  0.82881232415E+00  0.12500054852E+03  0.12499780078E+03 0.  0.
    9000005    1    3    3    0    0 -0.62206245238E+02  0.59571087563E+01  0.50638077545E+00  0.62500884096E+02  0.10000000000E+01 0.  0.
    9000005    1    3    3    0    0  0.62206245238E+02 -0.59571087563E+01  0.32243154870E+00  0.62499664426E+02  0.10000000000E+01 0.  0.
<mgrwt>
<rscale>  0 0.12499780E+03</rscale>
<asrwt>0</asrwt>
<pdfrwt beam="2">  1        4 0.15521467E-01 0.12499780E+03</pdfrwt>
<pdfrwt beam="1">  1       -4 0.15728670E-01 0.12499780E+03</pdfrwt>
<totfact> 0.19836046E+03</totfact>
</mgrwt>
</event>
<event>
 5    1  0.1438401E-002  0.1250004E+03  0.7818608E-02  0.1235069E+00
          4   -1    0    0  501    0  0.00000000000E+00  0.00000000000E+00  0.60150906229E+02  0.60164311848E+02  0.12700000000E+01 0.  1.
         -4   -1    0    0    0  501 -0.00000000000E+00 -0.00000000000E+00 -0.64914443060E+02  0.64926865147E+02  0.12700000000E+01 0.  1.
         25    2    1    2    0    0  0.00000000000E+00  0.00000000000E+00 -0.47635368308E+01  0.12509117700E+03  0.12500044511E+03 0.  0.
    9000005    1    3    3    0    0  0.16670501288E+02  0.19587394374E+02  0.54613115578E+02  0.60375193786E+02  0.10000000000E+01 0.  0.
    9000005    1    3    3    0    0 -0.16670501288E+02 -0.19587394374E+02 -0.59376652408E+02  0.64715983210E+02  0.10000000000E+01 0.  0.
<mgrwt>
<rscale>  0 0.12500045E+03</rscale>
<asrwt>0</asrwt>
<pdfrwt beam="1">  1        4 0.15040955E-01 0.12500045E+03</pdfrwt>
<pdfrwt beam="2">  1       -4 0.16231839E-01 0.12500045E+03</pdfrwt>
<totfact> 0.19829905E+03</totfact>
</mgrwt>
</event>
<event>
 5    1  0.1438401E-002  0.1250020E+03  0.7818608E-02  0.1235066E+00
         -4   -1    0    0    0  501 -0.00000000000E+00  0.00000000000E+00  0.17708897772E+02  0.17754378624E+02  0.12700000000E+01 0. -1.
          4   -1    0    0  501    0  0.00000000000E+00 -0.00000000000E+00 -0.22025806556E+03  0.22026172691E+03  0.12700000000E+01 0. -1.
         25    2    1    2    0    0  0.00000000000E+00  0.00000000000E+00 -0.20254916778E+03  0.23801610554E+03  0.12500200448E+03 0.  0.
    9000005    1    3    3    0    0 -0.78404970635E+01  0.61594446430E+02 -0.87807067900E+02  0.10754734027E+03  0.10000000000E+01 0.  0.
    9000005    1    3    3    0    0  0.78404970635E+01 -0.61594446430E+02 -0.11474209988E+03  0.13046876527E+03  0.10000000000E+01 0.  0.
<mgrwt>
<rscale>  0 0.12500200E+03</rscale>
<asrwt>0</asrwt>
<pdfrwt beam="2">  1        4 0.55070651E-01 0.12500200E+03</pdfrwt>
<pdfrwt beam="1">  1       -4 0.44333679E-02 0.12500200E+03</pdfrwt>
<totfact> 0.14904359E+03</totfact>
</mgrwt>
</event>
<event>
 5    1  0.1438401E-002  0.1249998E+03  0.7818608E-02  0.1235070E+00
         -4   -1    0    0    0  501 -0.00000000000E+00  0.00000000000E+00  0.17254849101E+02  0.17301523560E+02  0.12700000000E+01 0.  1.
          4   -1    0    0  501    0  0.00000000000E+00 -0.00000000000E+00 -0.22603050124E+03  0.22603406909E+03  0.12700000000E+01 0.  1.
         25    2    1    2    0    0  0.00000000000E+00  0.00000000000E+00 -0.20877565213E+03  0.24333559265E+03  0.12499975090E+03 0.  0.
    9000005    1    3    3    0    0  0.93886409799E+01  0.30940188265E+02 -0.20849094936E+03  0.21098558670E+03  0.10000000000E+01 0.  0.
    9000005    1    3    3    0    0 -0.93886409799E+01 -0.30940188265E+02 -0.28470277557E+00  0.32350005951E+02  0.10000000000E+01 0.  0.
<mgrwt>
<rscale>  0 0.12499975E+03</rscale>
<asrwt>0</asrwt>
<pdfrwt beam="2">  1        4 0.56513896E-01 0.12499975E+03</pdfrwt>
<pdfrwt beam="1">  1       -4 0.43199933E-02 0.12499975E+03</pdfrwt>
<totfact> 0.14722309E+03</totfact>
</mgrwt>
</event>
<event>
 5    1  0.1438401E-002  0.1249932E+03  0.7818608E-02  0.1235080E+00
          4   -1    0    0  501    0  0.00000000000E+00  0.00000000000E+00  0.24182813348E+03  0.24183146827E+03  0.12700000000E+01 0. -1.
         -4   -1    0    0    0  501 -0.00000000000E+00 -0.00000000000E+00 -0.16122833671E+02  0.16172775444E+02  0.12700000000E+01 0. -1.
         25    2    1    2    0    0  0.00000000000E+00  0.00000000000E+00  0.22570529981E+03  0.25800424371E+03  0.12499322945E+03 0.  0.
    9000005    1    3    3    0    0 -0.53277053606E+02  0.13808940504E+02  0.17393516874E+03  0.18243786395E+03  0.10000000000E+01 0.  0.
    9000005    1    3    3    0    0  0.53277053606E+02 -0.13808940504E+02  0.51770131076E+02  0.75566379762E+02  0.10000000000E+01 0.  0.
<mgrwt>
<rscale>  0 0.12499323E+03</rscale>
<asrwt>0</asrwt>
<pdfrwt beam="1">  1        4 0.60463693E-01 0.12499323E+03</pdfrwt>
<pdfrwt beam="2">  1       -4 0.40373680E-02 0.12499323E+03</pdfrwt>
<totfact> 0.14237678E+03</totfact>
</mgrwt>
</event>
<event>
 5    1  0.1438401E-002  0.1250015E+03  0.7818608E-02  0.1235067E+00
          4   -1    0    0  501    0  0.00000000000E+00  0.00000000000E+00  0.24646724244E+02  0.24679422926E+02  0.12700000000E+01 0. -1.
         -4   -1    0    0    0  501 -0.00000000000E+00 -0.00000000000E+00 -0.15835301686E+03  0.15835810952E+03  0.12700000000E+01 0. -1.
         25    2    1    2    0    0  0.00000000000E+00  0.00000000000E+00 -0.13370629262E+03  0.18303753244E+03  0.12500146238E+03 0.  0.
    9000005    1    3    3    0    0  0.22630039884E+02  0.11563000811E+02  0.16746004139E+02  0.30450785664E+02  0.10000000000E+01 0.  0.
    9000005    1    3    3    0    0 -0.22630039884E+02 -0.11563000811E+02 -0.15045229676E+03  0.15258674678E+03  0.10000000000E+01 0.  0.
<mgrwt>
<rscale>  0 0.12500146E+03</rscale>
<asrwt>0</asrwt>
<pdfrwt beam="1">  1        4 0.61664054E-02 0.12500146E+03</pdfrwt>
<pdfrwt beam="2">  1       -4 0.39592975E-01 0.12500146E+03</pdfrwt>
<totfact> 0.17023950E+03</totfact>
</mgrwt>
</event>
<event>
 5    1  0.1438401E-002  0.1250185E+03  0.7818608E-02  0.1235040E+00
          4   -1    0    0  501    0  0.00000000000E+00  0.00000000000E+00  0.62883345683E+02  0.62896168915E+02  0.12700000000E+01 0. -1.
         -4   -1    0    0    0  501 -0.00000000000E+00 -0.00000000000E+00 -0.62111737351E+02  0.62124719853E+02  0.12700000000E+01 0. -1.
         25    2    1    2    0    0  0.00000000000E+00  0.00000000000E+00  0.77160833140E+00  0.12502088877E+03  0.12501850763E+03 0.  0.
    9000005    1    3    3    0    0 -0.19671390408E+02 -0.11310284584E+02 -0.57852068971E+02  0.62151009824E+02  0.10000000000E+01 0.  0.
    9000005    1    3    3    0    0  0.19671390408E+02  0.11310284584E+02  0.58623677302E+02  0.62869878944E+02  0.10000000000E+01 0.  0.
<mgrwt>
<rscale>  0 0.12501851E+03</rscale>
<asrwt>0</asrwt>
<pdfrwt beam="1">  1        4 0.15724062E-01 0.12501851E+03</pdfrwt>
<pdfrwt beam="2">  1       -4 0.15531160E-01 0.12501851E+03</pdfrwt>
<totfact> 0.19825336E+03</totfact>
</mgrwt>
</event>
<event>
 5    1  0.1438401E-002  0.1250048E+03  0.7818608E-02  0.1235062E+00
         -4   -1    0    0    0  501 -0.00000000000E+00  0.00000000000E+00  0.63678293503E+01  0.64932388401E+01  0.12700000000E+01 0. -1.
          4   -1    0    0  501    0  0.00000000000E+00 -0.00000000000E+00 -0.60737404967E+03  0.60737537744E+03  0.12700000000E+01 0. -1.
         25    2    1    2    0    0  0.00000000000E+00  0.00000000000E+00 -0.60100622032E+03  0.61386861628E+03  0.12500480464E+03 0.  0.
    9000005    1    3    3    0    0 -0.57319090249E+02 -0.21647262255E+02 -0.36094102802E+03  0.36610586963E+03  0.10000000000E+01 0.  0.
    9000005    1    3    3    0    0  0.57319090249E+02  0.21647262255E+02 -0.24006519231E+03  0.24776274665E+03  0.10000000000E+01 0.  0.
<mgrwt>
<rscale>  0 0.12500480E+03</rscale>
<asrwt>0</asrwt>
<pdfrwt beam="2">  1        4 0.15185916E+00 0.12500480E+03</pdfrwt>
<pdfrwt beam="1">  1       -4 0.16078016E-02 0.12500480E+03</pdfrwt>
<totfact> 0.71777252E+02</totfact>
</mgrwt>
</event>
<event>
 5    1  0.1438401E-002  0.1250012E+03  0.7818608E-02  0.1235067E+00
         -4   -1    0    0    0  501 -0.00000000000E+00  0.00000000000E+00  0.36058049870E+02  0.36080408263E+02  0.12700000000E+01 0. -1.
          4   -1    0    0  501    0  0.00000000000E+00 -0.00000000000E+00 -0.10827460861E+03  0.10828205655E+03  0.12700000000E+01 0. -1.
         25    2    1    2    0    0  0.00000000000E+00  0.00000000000E+00 -0.72216558743E+02  0.14436246481E+03  0.12500115955E+03 0.  0.
    9000005    1    3    3    0    0 -0.22785162419E+02  0.58189226644E+02 -0.35628272619E+02  0.71941111569E+02  0.10000000000E+01 0.  0.
    9000005    1    3    3    0    0  0.22785162419E+02 -0.58189226644E+02 -0.36588286124E+02  0.72421353242E+02  0.10000000000E+01 0.  0.
<mgrwt>
<rscale>  0 0.12500116E+03</rscale>
<asrwt>0</asrwt>
<pdfrwt beam="2">  1        4 0.27072377E-01 0.12500116E+03</pdfrwt>
<pdfrwt beam="1">  1       -4 0.90182385E-02 0.12500116E+03</pdfrwt>
<totfact> 0.18818836E+03</totfact>
</mgrwt>
</event>
<event>
 5    1  0.1438401E-002  0.1249975E+03  0.7818608E-02  0.1235073E+00
         -4   -1    0    0    0  501 -0.00000000000E+00  0.00000000000E+00  0.17963703167E+03  0.17964152095E+03  0.12700000000E+01 0. -1.
          4   -1    0    0  501    0  0.00000000000E+00 -0.00000000000E+00 -0.21721050145E+02  0.21758146047E+02  0.12700000000E+01 0. -1.
         25    2    1    2    0    0  0.00000000000E+00  0.00000000000E+00  0.15791598153E+03  0.20139966699E+03  0.12499747455E+03 0.  0.
    9000005    1    3    3    0    0  0.41795925748E+02 -0.10888713008E+01  0.15378929213E+03  0.15937450054E+03  0.10000000000E+01 0.  0.
    9000005    1    3    3    0    0 -0.41795925748E+02  0.10888713008E+01  0.41266894002E+01  0.42025166452E+02  0.10000000000E+01 0.  0.
<mgrwt>
<rscale>  0 0.12499747E+03</rscale>
<asrwt>0</asrwt>
<pdfrwt beam="2">  1        4 0.54354607E-02 0.12499747E+03</pdfrwt>
<pdfrwt beam="1">  1       -4 0.44914456E-01 0.12499747E+03</pdfrwt>
<totfact> 0.16267099E+03</totfact>
</mgrwt>
</event>
<event>
 5    1  0.1438401E-002  0.1249983E+03  0.7818608E-02  0.1235072E+00
          4   -1    0    0  501    0  0.00000000000E+00  0.00000000000E+00  0.10943281791E+02  0.11016728932E+02  0.12700000000E+01 0.  1.
         -4   -1    0    0    0  501 -0.00000000000E+00 -0.00000000000E+00 -0.35567615434E+03  0.35567842170E+03  0.12700000000E+01 0.  1.
         25    2    1    2    0    0  0.00000000000E+00  0.00000000000E+00 -0.34473287255E+03  0.36669515064E+03  0.12499832033E+03 0.  0.
    9000005    1    3    3    0    0 -0.27487723737E+02  0.55839541175E+02 -0.18883533319E+03  0.19883010933E+03  0.10000000000E+01 0.  0.
    9000005    1    3    3    0    0  0.27487723737E+02 -0.55839541175E+02 -0.15589753936E+03  0.16786504131E+03  0.10000000000E+01 0.  0.
<mgrwt>
<rscale>  0 0.12499832E+03</rscale>
<asrwt>0</asrwt>
<pdfrwt beam="1">  1        4 0.27452859E-02 0.12499832E+03</pdfrwt>
<pdfrwt beam="2">  1       -4 0.88928465E-01 0.12499832E+03</pdfrwt>
<totfact> 0.11289456E+03</totfact>
</mgrwt>
</event>
<event>
 5    1  0.1438401E-002  0.1249986E+03  0.7818608E-02  0.1235072E+00
          4   -1    0    0  501    0  0.00000000000E+00  0.00000000000E+00  0.18229965466E+02  0.18274149526E+02  0.12700000000E+01 0. -1.
         -4   -1    0    0    0  501 -0.00000000000E+00 -0.00000000000E+00 -0.21396597179E+03  0.21396974081E+03  0.12700000000E+01 0. -1.
         25    2    1    2    0    0  0.00000000000E+00  0.00000000000E+00 -0.19573600632E+03  0.23224389034E+03  0.12499856171E+03 0.  0.
    9000005    1    3    3    0    0 -0.59683163302E+02  0.81201621162E+01 -0.12879881446E+03  0.14219054687E+03  0.10000000000E+01 0.  0.
    9000005    1    3    3    0    0  0.59683163302E+02 -0.81201621162E+01 -0.66937191864E+02  0.90053343464E+02  0.10000000000E+01 0.  0.
<mgrwt>
<rscale>  0 0.12499856E+03</rscale>
<asrwt>0</asrwt>
<pdfrwt beam="1">  1        4 0.45634862E-02 0.12499856E+03</pdfrwt>
<pdfrwt beam="2">  1       -4 0.53497479E-01 0.12499856E+03</pdfrwt>
<totfact> 0.15107964E+03</totfact>
</mgrwt>
</event>
<event>
 5    1  0.1438401E-002  0.1250006E+03  0.7818608E-02  0.1235068E+00
          4   -1    0    0  501    0  0.00000000000E+00  0.00000000000E+00  0.17963695370E+03  0.17964144298E+03  0.12700000000E+01 0.  1.
         -4   -1    0    0    0  501 -0.00000000000E+00 -0.00000000000E+00 -0.21722141675E+02  0.21759235716E+02  0.12700000000E+01 0.  1.
         25    2    1    2    0    0  0.00000000000E+00  0.00000000000E+00  0.15791481203E+03  0.20140067870E+03  0.12500058208E+03 0.  0.
    9000005    1    3    3    0    0 -0.52000192241E+02 -0.30836758292E+02  0.53463757443E+02  0.80711207493E+02  0.10000000000E+01 0.  0.
    9000005    1    3    3    0    0  0.52000192241E+02  0.30836758292E+02  0.10445105459E+03  0.12068947120E+03  0.10000000000E+01 0.  0.
<mgrwt>
<rscale>  0 0.12500058E+03</rscale>
<asrwt>0</asrwt>
<pdfrwt beam="1">  1        4 0.44914436E-01 0.12500058E+03</pdfrwt>
<pdfrwt beam="2">  1       -4 0.54357334E-02 0.12500058E+03</pdfrwt>
<totfact> 0.16265890E+03</totfact>
</mgrwt>
</event>
<event>
 5    1  0.1438401E-002  0.1250005E+03  0.7818608E-02  0.1235068E+00
         -4   -1    0    0    0  501 -0.00000000000E+00  0.00000000000E+00  0.16067011165E+02  0.16117125915E+02  0.12700000000E+01 0. -1.
          4   -1    0    0  501    0  0.00000000000E+00 -0.00000000000E+00 -0.24269403243E+03  0.24269735532E+03  0.12700000000E+01 0. -1.
         25    2    1    2    0    0  0.00000000000E+00  0.00000000000E+00 -0.22662702126E+03  0.25881448123E+03  0.12500051571E+03 0.  0.
    9000005    1    3    3    0    0 -0.16642665963E+02 -0.55688743248E+02 -0.65778893470E+02  0.87784265567E+02  0.10000000000E+01 0.  0.
    9000005    1    3    3    0    0  0.16642665963E+02  0.55688743248E+02 -0.16084812780E+03  0.17103021566E+03  0.10000000000E+01 0.  0.
<mgrwt>
<rscale>  0 0.12500052E+03</rscale>
<asrwt>0</asrwt>
<pdfrwt beam="2">  1        4 0.60680176E-01 0.12500052E+03</pdfrwt>
<pdfrwt beam="1">  1       -4 0.40234333E-02 0.12500052E+03</pdfrwt>
<totfact> 0.14209132E+03</totfact>
</mgrwt>
</event>
<event>
 5    1  0.1438401E-002  0.1250022E+03  0.7818608E-02  0.1235066E+00
         -4   -1    0    0    0  501 -0.00000000000E+00  0.00000000000E+00  0.99214854849E+01  0.10002438414E+02  0.12700000000E+01 0.  1.
          4   -1    0    0  501    0  0.00000000000E+00 -0.00000000000E+00 -0.39204862213E+03  0.39205067914E+03  0.12700000000E+01 0.  1.
         25    2    1    2    0    0  0.00000000000E+00  0.00000000000E+00 -0.38212713665E+03  0.40205311756E+03  0.12500224308E+03 0.  0.
    9000005    1    3    3    0    0 -0.93234907606E+01 -0.32750838548E+02 -0.35960382838E+03  0.36121386780E+03  0.10000000000E+01 0.  0.
    9000005    1    3    3    0    0  0.93234907606E+01  0.32750838548E+02 -0.22523308275E+02  0.40839249763E+02  0.10000000000E+01 0.  0.
<mgrwt>
<rscale>  0 0.12500224E+03</rscale>
<asrwt>0</asrwt>
<pdfrwt beam="2">  1        4 0.98022480E-01 0.12500224E+03</pdfrwt>
<pdfrwt beam="1">  1       -4 0.24907489E-02 0.12500224E+03</pdfrwt>
<totfact> 0.10526497E+03</totfact>
</mgrwt>
</event>
<event>
 5    1  0.1438401E-002  0.1249942E+03  0.7818608E-02  0.1235078E+00
          4   -1    0    0  501    0  0.00000000000E+00  0.00000000000E+00  0.69669931789E+03  0.69670047542E+03  0.12700000000E+01 0.  1.
         -4   -1    0    0    0  501 -0.00000000000E+00 -0.00000000000E+00 -0.55331718395E+01  0.56770494630E+01  0.12700000000E+01 0.  1.
         25    2    1    2    0    0  0.00000000000E+00  0.00000000000E+00  0.69116614605E+03  0.70237752488E+03  0.12499418391E+03 0.  0.
    9000005    1    3    3    0    0 -0.11470872412E+02 -0.58847393127E+02  0.44456698839E+03  0.44859269249E+03  0.10000000000E+01 0.  0.
    9000005    1    3    3    0    0  0.11470872412E+02  0.58847393127E+02  0.24659915766E+03  0.25378483239E+03  0.10000000000E+01 0.  0.
<mgrwt>
<rscale>  0 0.12499418E+03</rscale>
<asrwt>0</asrwt>
<pdfrwt beam="1">  1        4 0.17419292E+00 0.12499418E+03</pdfrwt>
<pdfrwt beam="2">  1       -4 0.14014227E-02 0.12499418E+03</pdfrwt>
<totfact> 0.61826105E+02</totfact>
</mgrwt>
</event>
<event>
 5    1  0.1438401E-002  0.1249989E+03  0.7818608E-02  0.1235071E+00
         -4   -1    0    0    0  501 -0.00000000000E+00  0.00000000000E+00  0.42957162119E+02  0.42975931373E+02  0.12700000000E+01 0. -1.
          4   -1    0    0  501    0  0.00000000000E+00 -0.00000000000E+00 -0.90888929148E+02  0.90897801632E+02  0.12700000000E+01 0. -1.
         25    2    1    2    0    0  0.00000000000E+00  0.00000000000E+00 -0.47931767028E+02  0.13387373300E+03  0.12499888839E+03 0.  0.
    9000005    1    3    3    0    0  0.38412903995E+02 -0.51536989162E+01  0.28535689773E+02  0.48139353929E+02  0.10000000000E+01 0.  0.
    9000005    1    3    3    0    0 -0.38412903995E+02  0.51536989162E+01 -0.76467456801E+02  0.85734379076E+02  0.10000000000E+01 0.  0.
<mgrwt>
<rscale>  0 0.12499889E+03</rscale>
<asrwt>0</asrwt>
<pdfrwt beam="2">  1        4 0.22725687E-01 0.12499889E+03</pdfrwt>
<pdfrwt beam="1">  1       -4 0.10742746E-01 0.12499889E+03</pdfrwt>
<totfact> 0.19358795E+03</totfact>
</mgrwt>
</event>
<event>
 5    1  0.1438401E-002  0.1249991E+03  0.7818608E-02  0.1235071E+00
          4   -1    0    0  501    0  0.00000000000E+00  0.00000000000E+00  0.21547465149E+02  0.21584859377E+02  0.12700000000E+01 0. -1.
         -4   -1    0    0    0  501 -0.00000000000E+00 -0.00000000000E+00 -0.18108645614E+03  0.18109090949E+03  0.12700000000E+01 0. -1.
         25    2    1    2    0    0  0.00000000000E+00  0.00000000000E+00 -0.15953899099E+03  0.20267576886E+03  0.12499911054E+03 0.  0.
    9000005    1    3    3    0    0  0.29917976957E+02  0.39082168809E+02 -0.14220340727E+03  0.15048358816E+03  0.10000000000E+01 0.  0.
    9000005    1    3    3    0    0 -0.29917976957E+02 -0.39082168809E+02 -0.17335583721E+02  0.52192180707E+02  0.10000000000E+01 0.  0.
<mgrwt>
<rscale>  0 0.12499911E+03</rscale>
<asrwt>0</asrwt>
<pdfrwt beam="1">  1        4 0.53920978E-02 0.12499911E+03</pdfrwt>
<pdfrwt beam="2">  1       -4 0.45276840E-01 0.12499911E+03</pdfrwt>
<totfact> 0.16215791E+03</totfact>
</mgrwt>
</event>
<event>
 5    1  0.1438401E-002  0.1250005E+03  0.7818608E-02  0.1235069E+00
         -4   -1    0    0    0  501 -0.00000000000E+00  0.00000000000E+00  0.18617058076E+03  0.18617491249E+03  0.12700000000E+01 0. -1.
          4   -1    0    0  501    0  0.00000000000E+00 -0.00000000000E+00 -0.20958457498E+02  0.20996900740E+02  0.12700000000E+01 0. -1.
         25    2    1    2    0    0  0.00000000000E+00  0.00000000000E+00  0.16521212326E+03  0.20717181323E+03  0.12500045810E+03 0.  0.
    9000005    1    3    3    0    0 -0.33052027734E+02  0.48172367135E+02  0.11937817606E+03  0.13291035479E+03  0.10000000000E+01 0.  0.
    9000005    1    3    3    0    0  0.33052027734E+02 -0.48172367135E+02  0.45833947207E+02  0.74261458438E+02  0.10000000000E+01 0.  0.
<mgrwt>
<rscale>  0 0.12500046E+03</rscale>
<asrwt>0</asrwt>
<pdfrwt beam="2">  1        4 0.52449613E-02 0.12500046E+03</pdfrwt>
<pdfrwt beam="1">  1       -4 0.46547992E-01 0.12500046E+03</pdfrwt>
<totfact> 0.16038673E+03</totfact>
</mgrwt>
</event>
<event>
 5    1  0.1438401E-002  0.1249965E+03  0.7818608E-02  0.1235075E+00
          4   -1    0    0  501    0  0.00000000000E+00  0.00000000000E+00  0.51421946506E+02  0.51437627108E+02  0.12700000000E+01 0. -1.
         -4   -1    0    0    0  501 -0.00000000000E+00 -0.00000000000E+00 -0.75927818171E+02  0.75938438700E+02  0.12700000000E+01 0. -1.
         25    2    1    2    0    0  0.00000000000E+00  0.00000000000E+00 -0.24505871664E+02  0.12737606581E+03  0.12499649753E+03 0.  0.
    9000005    1    3    3    0    0  0.40922512921E+02 -0.19430061773E+02  0.31611275083E+02  0.55249000684E+02  0.10000000000E+01 0.  0.
    9000005    1    3    3    0    0 -0.40922512921E+02  0.19430061773E+02 -0.56117146747E+02  0.72127065123E+02  0.10000000000E+01 0.  0.
<mgrwt>
<rscale>  0 0.12499650E+03</rscale>
<asrwt>0</asrwt>
<pdfrwt beam="1">  1        4 0.12858774E-01 0.12499650E+03</pdfrwt>
<pdfrwt beam="2">  1       -4 0.18985242E-01 0.12499650E+03</pdfrwt>
<totfact> 0.19708164E+03</totfact>
</mgrwt>
</event>
<event>
 5    1  0.1438401E-002  0.1249981E+03  0.7818608E-02  0.1235072E+00
         -4   -1    0    0    0  501 -0.00000000000E+00  0.00000000000E+00  0.16635261416E+02  0.16683669332E+02  0.12700000000E+01 0.  1.
          4   -1    0    0  501    0  0.00000000000E+00 -0.00000000000E+00 -0.23441892058E+03  0.23442236076E+03  0.12700000000E+01 0.  1.
         25    2    1    2    0    0  0.00000000000E+00  0.00000000000E+00 -0.21778365916E+03  0.25110603009E+03  0.12499806459E+03 0.  0.
    9000005    1    3    3    0    0  0.60767349674E+02 -0.13779014858E+02 -0.99342359888E+02  0.11727078283E+03  0.10000000000E+01 0.  0.
    9000005    1    3    3    0    0 -0.60767349674E+02  0.13779014858E+02 -0.11844129927E+03  0.13383524727E+03  0.10000000000E+01 0.  0.
<mgrwt>
<rscale>  0 0.12499806E+03</rscale>
<asrwt>0</asrwt>
<pdfrwt beam="2">  1        4 0.58611201E-01 0.12499806E+03</pdfrwt>
<pdfrwt beam="1">  1       -4 0.41652971E-02 0.12499806E+03</pdfrwt>
<totfact> 0.14461911E+03</totfact>
</mgrwt>
</event>
<event>
 5    1  0.1438401E-002  0.1249954E+03  0.7818608E-02  0.1235076E+00
         -4   -1    0    0    0  501 -0.00000000000E+00  0.00000000000E+00  0.21664322605E+02  0.21701515475E+02  0.12700000000E+01 0.  1.
          4   -1    0    0  501    0  0.00000000000E+00 -0.00000000000E+00 -0.18010070798E+03  0.18010518570E+03  0.12700000000E+01 0.  1.
         25    2    1    2    0    0  0.00000000000E+00  0.00000000000E+00 -0.15843638538E+03  0.20180670118E+03  0.12499542563E+03 0.  0.
    9000005    1    3    3    0    0 -0.33136879628E+02 -0.47534122789E+02 -0.41443477968E+02  0.71246806854E+02  0.10000000000E+01 0.  0.
    9000005    1    3    3    0    0  0.33136879628E+02  0.47534122789E+02 -0.11699290741E+03  0.13055989432E+03  0.10000000000E+01 0.  0.
<mgrwt>
<rscale>  0 0.12499543E+03</rscale>
<asrwt>0</asrwt>
<pdfrwt beam="2">  1        4 0.45030381E-01 0.12499543E+03</pdfrwt>
<pdfrwt beam="1">  1       -4 0.54212900E-02 0.12499543E+03</pdfrwt>
<totfact> 0.16251672E+03</totfact>
</mgrwt>
</event>
<event>
 5    1  0.1438401E-002  0.1249979E+03  0.7818608E-02  0.1235073E+00
          4   -1    0    0  501    0  0.00000000000E+00  0.00000000000E+00  0.37621095222E+03  0.37621309582E+03  0.12700000000E+01 0. -1.
         -4   -1    0    0    0  501 -0.00000000000E+00 -0.00000000000E+00 -0.10341775391E+02  0.10419463434E+02  0.12700000000E+01 0. -1.
         25    2    1    2    0    0  0.00000000000E+00  0.00000000000E+00  0.36586917683E+03  0.38663255926E+03  0.12499792528E+03 0.  0.
    9000005    1    3    3    0    0 -0.37633942774E+02 -0.38771492783E+02  0.85829692630E+02  0.10142622165E+03  0.10000000000E+01 0.  0.
    9000005    1    3    3    0    0  0.37633942774E+02  0.38771492783E+02  0.28003948420E+03  0.28520633761E+03  0.10000000000E+01 0.  0.
<mgrwt>
<rscale>  0 0.12499793E+03</rscale>
<asrwt>0</asrwt>
<pdfrwt beam="1">  1        4 0.94062714E-01 0.12499793E+03</pdfrwt>
<pdfrwt beam="2">  1       -4 0.25954229E-02 0.12499793E+03</pdfrwt>
<totfact> 0.10850340E+03</totfact>
</mgrwt>
</event>
<event>
 5    1  0.1438401E-002  0.1250005E+03  0.7818608E-02  0.1235068E+00
         -4   -1    0    0    0  501 -0.00000000000E+00  0.00000000000E+00  0.91188531318E+02  0.91197374655E+02  0.12700000000E+01 0. -1.
          4   -1    0    0  501    0  0.00000000000E+00 -0.00000000000E+00 -0.42817096000E+02  0.42835926625E+02  0.12700000000E+01 0. -1.
         25    2    1    2    0    0  0.00000000000E+00  0.00000000000E+00  0.48371435319E+02  0.13403330128E+03  0.12500052039E+03 0.  0.
    9000005    1    3    3    0    0  0.38402754224E+02 -0.17774869415E+02  0.73493039510E+02  0.84811227860E+02  0.10000000000E+01 0.  0.
    9000005    1    3    3    0    0 -0.38402754224E+02  0.17774869415E+02 -0.25121604191E+02  0.49222073421E+02  0.10000000000E+01 0.  0.
<mgrwt>
<rscale>  0 0.12500052E+03</rscale>
<asrwt>0</asrwt>
<pdfrwt beam="2">  1        4 0.10707733E-01 0.12500052E+03</pdfrwt>
<pdfrwt beam="1">  1       -4 0.22800592E-01 0.12500052E+03</pdfrwt>
<totfact> 0.19349657E+03</totfact>
</mgrwt>
</event>
<event>
 5    1  0.1438401E-002  0.1249989E+03  0.7818608E-02  0.1235071E+00
          4   -1    0    0  501    0  0.00000000000E+00  0.00000000000E+00  0.10209291491E+04  0.10209299390E+04  0.12700000000E+01 0. -1.
         -4   -1    0    0    0  501 -0.00000000000E+00 -0.00000000000E+00 -0.37199061361E+01  0.39307253353E+01  0.12700000000E+01 0. -1.
         25    2    1    2    0    0  0.00000000000E+00  0.00000000000E+00  0.10172092429E+04  0.10248606643E+04  0.12499894946E+03 0.  0.
    9000005    1    3    3    0    0  0.59405048854E+02 -0.64904725001E+01  0.35874122169E+03  0.36368578499E+03  0.10000000000E+01 0.  0.
    9000005    1    3    3    0    0 -0.59405048854E+02  0.64904725001E+01  0.65846802125E+03  0.66117487934E+03  0.10000000000E+01 0.  0.
<mgrwt>
<rscale>  0 0.12499895E+03</rscale>
<asrwt>0</asrwt>
<pdfrwt beam="1">  1        4 0.25525873E+00 0.12499895E+03</pdfrwt>
<pdfrwt beam="2">  1       -4 0.95642771E-03 0.12499895E+03</pdfrwt>
<totfact> 0.35462942E+02</totfact>
</mgrwt>
</event>
<event>
 5    1  0.1438401E-002  0.1249978E+03  0.7818608E-02  0.1235073E+00
          4   -1    0    0  501    0  0.00000000000E+00  0.00000000000E+00  0.61641183861E+02  0.61654265447E+02  0.12700000000E+01 0.  1.
         -4   -1    0    0    0  501 -0.00000000000E+00 -0.00000000000E+00 -0.63342389574E+02  0.63355119895E+02  0.12700000000E+01 0.  1.
         25    2    1    2    0    0  0.00000000000E+00  0.00000000000E+00 -0.17012057131E+01  0.12500938534E+03  0.12499780927E+03 0.  0.
    9000005    1    3    3    0    0 -0.15617919742E+01 -0.47104394951E+02  0.40187937085E+02  0.61946214614E+02  0.10000000000E+01 0.  0.
    9000005    1    3    3    0    0  0.15617919742E+01  0.47104394951E+02 -0.41889142798E+02  0.63063170728E+02  0.10000000000E+01 0.  0.
<mgrwt>
<rscale>  0 0.12499781E+03</rscale>
<asrwt>0</asrwt>
<pdfrwt beam="1">  1        4 0.15413522E-01 0.12499781E+03</pdfrwt>
<pdfrwt beam="2">  1       -4 0.15838824E-01 0.12499781E+03</pdfrwt>
<totfact> 0.19835563E+03</totfact>
</mgrwt>
</event>
<event>
 5    1  0.1438401E-002  0.1250284E+03  0.7818608E-02  0.1235025E+00
          4   -1    0    0  501    0  0.00000000000E+00  0.00000000000E+00  0.91470038886E+02  0.91478855009E+02  0.12700000000E+01 0. -1.
         -4   -1    0    0    0  501 -0.00000000000E+00 -0.00000000000E+00 -0.42704331729E+02  0.42723212057E+02  0.12700000000E+01 0. -1.
         25    2    1    2    0    0  0.00000000000E+00  0.00000000000E+00  0.48765707157E+02  0.13420206707E+03  0.12502839922E+03 0.  0.
    9000005    1    3    3    0    0  0.26164754329E+02  0.29690912169E+02 -0.27549757418E+02  0.48230009002E+02  0.10000000000E+01 0.  0.
    9000005    1    3    3    0    0 -0.26164754329E+02 -0.29690912169E+02  0.76315464575E+02  0.85972058064E+02  0.10000000000E+01 0.  0.
<mgrwt>
<rscale>  0 0.12502840E+03</rscale>
<asrwt>0</asrwt>
<pdfrwt beam="1">  1        4 0.22870972E-01 0.12502840E+03</pdfrwt>
<pdfrwt beam="2">  1       -4 0.10679545E-01 0.12502840E+03</pdfrwt>
<totfact> 0.19328202E+03</totfact>
</mgrwt>
</event>
<event>
 5    1  0.1438401E-002  0.1250043E+03  0.7818608E-02  0.1235063E+00
         -4   -1    0    0    0  501 -0.00000000000E+00  0.00000000000E+00  0.70732891872E+02  0.70744292297E+02  0.12700000000E+01 0.  1.
          4   -1    0    0  501    0  0.00000000000E+00 -0.00000000000E+00 -0.55206025793E+02  0.55220631868E+02  0.12700000000E+01 0.  1.
         25    2    1    2    0    0  0.00000000000E+00  0.00000000000E+00  0.15526866079E+02  0.12596492416E+03  0.12500431412E+03 0.  0.
    9000005    1    3    3    0    0  0.63643864663E+01 -0.62132520021E+02  0.99162441293E+01  0.63247824918E+02  0.10000000000E+01 0.  0.
    9000005    1    3    3    0    0 -0.63643864663E+01  0.62132520021E+02  0.56106219498E+01  0.62717099247E+02  0.10000000000E+01 0.  0.
<mgrwt>
<rscale>  0 0.12500431E+03</rscale>
<asrwt>0</asrwt>
<pdfrwt beam="2">  1        4 0.13804757E-01 0.12500431E+03</pdfrwt>
<pdfrwt beam="1">  1       -4 0.17686474E-01 0.12500431E+03</pdfrwt>
<totfact> 0.19780819E+03</totfact>
</mgrwt>
</event>
<event>
 5    1  0.1438401E-002  0.1250019E+03  0.7818608E-02  0.1235066E+00
          4   -1    0    0  501    0  0.00000000000E+00  0.00000000000E+00  0.60206673430E+02  0.60220066635E+02  0.12700000000E+01 0.  1.
         -4   -1    0    0    0  501 -0.00000000000E+00 -0.00000000000E+00 -0.64855812443E+02  0.64868245757E+02  0.12700000000E+01 0.  1.
         25    2    1    2    0    0  0.00000000000E+00  0.00000000000E+00 -0.46491390123E+01  0.12508831239E+03  0.12500188560E+03 0.  0.
    9000005    1    3    3    0    0 -0.28234619098E+02  0.52838798816E+02 -0.20119875599E+02  0.63205551735E+02  0.10000000000E+01 0.  0.
    9000005    1    3    3    0    0  0.28234619098E+02 -0.52838798816E+02  0.15470736587E+02  0.61882760657E+02  0.10000000000E+01 0.  0.
<mgrwt>
<rscale>  0 0.12500189E+03</rscale>
<asrwt>0</asrwt>
<pdfrwt beam="1">  1        4 0.15054897E-01 0.12500189E+03</pdfrwt>
<pdfrwt beam="2">  1       -4 0.16217181E-01 0.12500189E+03</pdfrwt>
<totfact> 0.19829392E+03</totfact>
</mgrwt>
</event>
<event>
 5    1  0.1438401E-002  0.1250018E+03  0.7818608E-02  0.1235067E+00
          4   -1    0    0  501    0  0.00000000000E+00  0.00000000000E+00  0.21366866976E+02  0.21404576716E+02  0.12700000000E+01 0. -1.
         -4   -1    0    0    0  501 -0.00000000000E+00 -0.00000000000E+00 -0.18262212786E+03  0.18262654376E+03  0.12700000000E+01 0. -1.
         25    2    1    2    0    0  0.00000000000E+00  0.00000000000E+00 -0.16125526088E+03  0.20403112047E+03  0.12500175582E+03 0.  0.
    9000005    1    3    3    0    0  0.16124743234E+02  0.59129491840E+02 -0.60700056234E+02  0.86265873765E+02  0.10000000000E+01 0.  0.
    9000005    1    3    3    0    0 -0.16124743234E+02 -0.59129491840E+02 -0.10055520465E+03  0.11776524671E+03  0.10000000000E+01 0.  0.
<mgrwt>
<rscale>  0 0.12500176E+03</rscale>
<asrwt>0</asrwt>
<pdfrwt beam="1">  1        4 0.53469830E-02 0.12500176E+03</pdfrwt>
<pdfrwt beam="2">  1       -4 0.45660793E-01 0.12500176E+03</pdfrwt>
<totfact> 0.16161236E+03</totfact>
</mgrwt>
</event>
<event>
 5    1  0.1438401E-002  0.1250034E+03  0.7818608E-02  0.1235064E+00
         -4   -1    0    0    0  501 -0.00000000000E+00  0.00000000000E+00  0.89746276241E+01  0.90640410961E+01  0.12700000000E+01 0.  1.
          4   -1    0    0  501    0  0.00000000000E+00 -0.00000000000E+00 -0.43303042576E+03  0.43303228810E+03  0.12700000000E+01 0.  1.
         25    2    1    2    0    0  0.00000000000E+00  0.00000000000E+00 -0.42405579813E+03  0.44209632919E+03  0.12500337737E+03 0.  0.
    9000005    1    3    3    0    0  0.49010353209E+02 -0.12365444714E+02 -0.34199972861E+03  0.34571626128E+03  0.10000000000E+01 0.  0.
    9000005    1    3    3    0    0 -0.49010353209E+02  0.12365444714E+02 -0.82056069526E+02  0.96380067912E+02  0.10000000000E+01 0.  0.
<mgrwt>
<rscale>  0 0.12500338E+03</rscale>
<asrwt>0</asrwt>
<pdfrwt beam="2">  1        4 0.10826895E+00 0.12500338E+03</pdfrwt>
<pdfrwt beam="1">  1       -4 0.22550678E-02 0.12500338E+03</pdfrwt>
<totfact> 0.97446079E+02</totfact>
</mgrwt>
</event>
<event>
 5    1  0.1438401E-002  0.1250039E+03  0.7818608E-02  0.1235063E+00
          4   -1    0    0  501    0  0.00000000000E+00  0.00000000000E+00  0.16207132445E+02  0.16256815251E+02  0.12700000000E+01 0.  1.
         -4   -1    0    0    0  501 -0.00000000000E+00 -0.00000000000E+00 -0.24061519034E+03  0.24061854193E+03  0.12700000000E+01 0.  1.
         25    2    1    2    0    0  0.00000000000E+00  0.00000000000E+00 -0.22440805790E+03  0.25687535718E+03  0.12500389066E+03 0.  0.
    9000005    1    3    3    0    0 -0.23047197548E+02  0.34389505359E+01  0.69557359998E+01  0.24338898063E+02  0.10000000000E+01 0.  0.
    9000005    1    3    3    0    0  0.23047197548E+02 -0.34389505359E+01 -0.23136379389E+03  0.23253645912E+03  0.10000000000E+01 0.  0.
<mgrwt>
<rscale>  0 0.12500389E+03</rscale>
<asrwt>0</asrwt>
<pdfrwt beam="1">  1        4 0.40584132E-02 0.12500389E+03</pdfrwt>
<pdfrwt beam="2">  1       -4 0.60160416E-01 0.12500389E+03</pdfrwt>
<totfact> 0.14270764E+03</totfact>
</mgrwt>
</event>
<event>
 5    1  0.1438401E-002  0.1249999E+03  0.7818608E-02  0.1235069E+00
          4   -1    0    0  501    0  0.00000000000E+00  0.00000000000E+00  0.94306009943E+01  0.95157309290E+01  0.12700000000E+01 0. -1.
         -4   -1    0    0    0  501 -0.00000000000E+00 -0.00000000000E+00 -0.41226193106E+03  0.41226388721E+03  0.12700000000E+01 0. -1.
         25    2    1    2    0    0  0.00000000000E+00  0.00000000000E+00 -0.40283133006E+03  0.42177961814E+03  0.12499986320E+03 0.  0.
    9000005    1    3    3    0    0 -0.41746538841E+02  0.12506369625E+02 -0.50286645062E+02  0.66550202539E+02  0.10000000000E+01 0.  0.
    9000005    1    3    3    0    0  0.41746538841E+02 -0.12506369625E+02 -0.35254468500E+03  0.35522941560E+03  0.10000000000E+01 0.  0.
<mgrwt>
<rscale>  0 0.12499986E+03</rscale>
<asrwt>0</asrwt>
<pdfrwt beam="1">  1        4 0.23685374E-02 0.12499986E+03</pdfrwt>
<pdfrwt beam="2">  1       -4 0.10307631E+00 0.12499986E+03</pdfrwt>
<totfact> 0.10131208E+03</totfact>
</mgrwt>
</event>
<event>
 5    1  0.1438401E-002  0.1249997E+03  0.7818608E-02  0.1235070E+00
          4   -1    0    0  501    0  0.00000000000E+00  0.00000000000E+00  0.22492953121E+02  0.22528778043E+02  0.12700000000E+01 0.  1.
         -4   -1    0    0    0  501 -0.00000000000E+00 -0.00000000000E+00 -0.17348844575E+03  0.17349309413E+03  0.12700000000E+01 0.  1.
         25    2    1    2    0    0  0.00000000000E+00  0.00000000000E+00 -0.15099549263E+03  0.19602187217E+03  0.12499974230E+03 0.  0.
    9000005    1    3    3    0    0 -0.43119219534E+02  0.23387726072E+02 -0.13621239540E+03  0.14477938211E+03  0.10000000000E+01 0.  0.
    9000005    1    3    3    0    0  0.43119219534E+02 -0.23387726072E+02 -0.14783097239E+02  0.51242490064E+02  0.10000000000E+01 0.  0.
<mgrwt>
<rscale>  0 0.12499974E+03</rscale>
<asrwt>0</asrwt>
<pdfrwt beam="1">  1        4 0.56282980E-02 0.12499974E+03</pdfrwt>
<pdfrwt beam="2">  1       -4 0.43377167E-01 0.12499974E+03</pdfrwt>
<totfact> 0.16482679E+03</totfact>
</mgrwt>
</event>
<event>
 5    1  0.1438401E-002  0.1249973E+03  0.7818608E-02  0.1235073E+00
         -4   -1    0    0    0  501 -0.00000000000E+00  0.00000000000E+00  0.25710358094E+02  0.25741705719E+02  0.12700000000E+01 0. -1.
          4   -1    0    0  501    0  0.00000000000E+00 -0.00000000000E+00 -0.15179991468E+03  0.15180522717E+03  0.12700000000E+01 0. -1.
         25    2    1    2    0    0  0.00000000000E+00  0.00000000000E+00 -0.12608955658E+03  0.17754693289E+03  0.12499734837E+03 0.  0.
    9000005    1    3    3    0    0  0.16686362893E+02  0.20748215897E+02 -0.14334684176E+03  0.14580205832E+03  0.10000000000E+01 0.  0.
    9000005    1    3    3    0    0 -0.16686362893E+02 -0.20748215897E+02  0.17257285175E+02  0.31744874565E+02  0.10000000000E+01 0.  0.
<mgrwt>
<rscale>  0 0.12499735E+03</rscale>
<asrwt>0</asrwt>
<pdfrwt beam="2">  1        4 0.37954559E-01 0.12499735E+03</pdfrwt>
<pdfrwt beam="1">  1       -4 0.64321725E-02 0.12499735E+03</pdfrwt>
<totfact> 0.17262986E+03</totfact>
</mgrwt>
</event>
<event>
 5    1  0.1438401E-002  0.1250009E+03  0.7818608E-02  0.1235068E+00
         -4   -1    0    0    0  501 -0.00000000000E+00  0.00000000000E+00  0.16929657801E+03  0.16930134148E+03  0.12700000000E+01 0. -1.
          4   -1    0    0  501    0  0.00000000000E+00 -0.00000000000E+00 -0.23051180123E+02  0.23086138808E+02  0.12700000000E+01 0. -1.
         25    2    1    2    0    0  0.00000000000E+00  0.00000000000E+00  0.14624539789E+03  0.19238748029E+03  0.12500090467E+03 0.  0.
    9000005    1    3    3    0    0  0.50928663593E+02 -0.23421366628E+02  0.30608807650E+02  0.63876351617E+02  0.10000000000E+01 0.  0.
    9000005    1    3    3    0    0 -0.50928663593E+02  0.23421366628E+02  0.11563659024E+03  0.12851112867E+03  0.10000000000E+01 0.  0.
<mgrwt>
<rscale>  0 0.12500090E+03</rscale>
<asrwt>0</asrwt>
<pdfrwt beam="2">  1        4 0.57677604E-02 0.12500090E+03</pdfrwt>
<pdfrwt beam="1">  1       -4 0.42329109E-01 0.12500090E+03</pdfrwt>
<totfact> 0.16631118E+03</totfact>
</mgrwt>
</event>
<event>
 5    1  0.1438401E-002  0.1249989E+03  0.7818608E-02  0.1235071E+00
         -4   -1    0    0    0  501 -0.00000000000E+00  0.00000000000E+00  0.97109937770E+02  0.97118241920E+02  0.12700000000E+01 0.  1.
          4   -1    0    0  501    0  0.00000000000E+00 -0.00000000000E+00 -0.40204251992E+02  0.40224305814E+02  0.12700000000E+01 0.  1.
         25    2    1    2    0    0  0.00000000000E+00  0.00000000000E+00  0.56905685778E+02  0.13734254773E+03  0.12499887337E+03 0.  0.
    9000005    1    3    3    0    0  0.31358289088E+02 -0.29263053779E+02 -0.21483042458E+02  0.47981139255E+02  0.10000000000E+01 0.  0.
    9000005    1    3    3    0    0 -0.31358289088E+02  0.29263053779E+02  0.78388728235E+02  0.89361408479E+02  0.10000000000E+01 0.  0.
<mgrwt>
<rscale>  0 0.12499887E+03</rscale>
<asrwt>0</asrwt>
<pdfrwt beam="2">  1        4 0.10054608E-01 0.12499887E+03</pdfrwt>
<pdfrwt beam="1">  1       -4 0.24281029E-01 0.12499887E+03</pdfrwt>
<totfact> 0.19177634E+03</totfact>
</mgrwt>
</event>
<event>
 5    1  0.1438401E-002  0.1250021E+03  0.7818608E-02  0.1235066E+00
          4   -1    0    0  501    0  0.00000000000E+00  0.00000000000E+00  0.39027763097E+02  0.39048421125E+02  0.12700000000E+01 0.  1.
         -4   -1    0    0    0  501 -0.00000000000E+00 -0.00000000000E+00 -0.10004124109E+03  0.10004930194E+03  0.12700000000E+01 0.  1.
         25    2    1    2    0    0  0.00000000000E+00  0.00000000000E+00 -0.61013477989E+02  0.13909772306E+03  0.12500212824E+03 0.  0.
    9000005    1    3    3    0    0  0.20545576830E+02 -0.95583529909E+01 -0.95314071337E+02  0.97975787999E+02  0.10000000000E+01 0.  0.
    9000005    1    3    3    0    0 -0.20545576830E+02  0.95583529909E+01  0.34300593348E+02  0.41121935062E+02  0.10000000000E+01 0.  0.
<mgrwt>
<rscale>  0 0.12500213E+03</rscale>
<asrwt>0</asrwt>
<pdfrwt beam="1">  1        4 0.97605309E-02 0.12500213E+03</pdfrwt>
<pdfrwt beam="2">  1       -4 0.25013900E-01 0.12500213E+03</pdfrwt>
<totfact> 0.19085649E+03</totfact>
</mgrwt>
</event>
<event>
 5    1  0.1438401E-002  0.1250023E+03  0.7818608E-02  0.1235066E+00
         -4   -1    0    0    0  501 -0.00000000000E+00  0.00000000000E+00  0.61238579682E+03  0.61238711371E+03  0.12700000000E+01 0. -1.
          4   -1    0    0  501    0  0.00000000000E+00 -0.00000000000E+00 -0.63144259087E+01  0.64408752943E+01  0.12700000000E+01 0. -1.
         25    2    1    2    0    0  0.00000000000E+00  0.00000000000E+00  0.60607137091E+03  0.61882798901E+03  0.12500229336E+03 0.  0.
    9000005    1    3    3    0    0  0.59011440559E+02  0.18265930233E+02  0.25622787487E+03  0.26357108754E+03  0.10000000000E+01 0.  0.
    9000005    1    3    3    0    0 -0.59011440559E+02 -0.18265930233E+02  0.34984349603E+03  0.35525690147E+03  0.10000000000E+01 0.  0.
<mgrwt>
<rscale>  0 0.12500229E+03</rscale>
<asrwt>0</asrwt>
<pdfrwt beam="2">  1        4 0.15945771E-02 0.12500229E+03</pdfrwt>
<pdfrwt beam="1">  1       -4 0.15311243E+00 0.12500229E+03</pdfrwt>
<totfact> 0.71179628E+02</totfact>
</mgrwt>
</event>
<event>
 5    1  0.1438401E-002  0.1250015E+03  0.7818608E-02  0.1235067E+00
         -4   -1    0    0    0  501 -0.00000000000E+00  0.00000000000E+00  0.37958525638E+03  0.37958738093E+03  0.12700000000E+01 0. -1.
          4   -1    0    0  501    0  0.00000000000E+00 -0.00000000000E+00 -0.10249748214E+02  0.10328128507E+02  0.12700000000E+01 0. -1.
         25    2    1    2    0    0  0.00000000000E+00  0.00000000000E+00  0.36933550817E+03  0.38991550944E+03  0.12500154762E+03 0.  0.
    9000005    1    3    3    0    0  0.30002856537E+02  0.72409843375E+01  0.35416708152E+03  0.35551079433E+03  0.10000000000E+01 0.  0.
    9000005    1    3    3    0    0 -0.30002856537E+02 -0.72409843375E+01  0.15168426648E+02  0.34404715106E+02  0.10000000000E+01 0.  0.
<mgrwt>
<rscale>  0 0.12500155E+03</rscale>
<asrwt>0</asrwt>
<pdfrwt beam="2">  1        4 0.25725004E-02 0.12500155E+03</pdfrwt>
<pdfrwt beam="1">  1       -4 0.94906370E-01 0.12500155E+03</pdfrwt>
<totfact> 0.10779534E+03</totfact>
</mgrwt>
</event>
<event>
 5    1  0.1438401E-002  0.1249981E+03  0.7818608E-02  0.1235072E+00
          4   -1    0    0  501    0  0.00000000000E+00  0.00000000000E+00  0.19638624371E+03  0.19639035012E+03  0.12700000000E+01 0. -1.
         -4   -1    0    0    0  501 -0.00000000000E+00 -0.00000000000E+00 -0.19865465794E+02  0.19906019974E+02  0.12700000000E+01 0. -1.
         25    2    1    2    0    0  0.00000000000E+00  0.00000000000E+00  0.17652077792E+03  0.21629637009E+03  0.12499813870E+03 0.  0.
    9000005    1    3    3    0    0 -0.37524536173E+02  0.24386166398E+02  0.16373341797E+03  0.16974218122E+03  0.10000000000E+01 0.  0.
    9000005    1    3    3    0    0  0.37524536173E+02 -0.24386166398E+02  0.12787359947E+02  0.46554188867E+02  0.10000000000E+01 0.  0.
<mgrwt>
<rscale>  0 0.12499814E+03</rscale>
<asrwt>0</asrwt>
<pdfrwt beam="1">  1        4 0.49102143E-01 0.12499814E+03</pdfrwt>
<pdfrwt beam="2">  1       -4 0.49719491E-02 0.12499814E+03</pdfrwt>
<totfact> 0.15690331E+03</totfact>
</mgrwt>
</event>
<event>
 5    1  0.1438401E-002  0.1250030E+03  0.7818608E-02  0.1235065E+00
         -4   -1    0    0    0  501 -0.00000000000E+00  0.00000000000E+00  0.15053288399E+02  0.15106766418E+02  0.12700000000E+01 0.  1.
          4   -1    0    0  501    0  0.00000000000E+00 -0.00000000000E+00 -0.25899202909E+03  0.25899514287E+03  0.12700000000E+01 0.  1.
         25    2    1    2    0    0  0.00000000000E+00  0.00000000000E+00 -0.24393874069E+03  0.27410190929E+03  0.12500298984E+03 0.  0.
    9000005    1    3    3    0    0  0.32643272739E+02  0.52417622536E+02 -0.10090897531E+03  0.11830812189E+03  0.10000000000E+01 0.  0.
    9000005    1    3    3    0    0 -0.32643272739E+02 -0.52417622536E+02 -0.14302976538E+03  0.15579378740E+03  0.10000000000E+01 0.  0.
<mgrwt>
<rscale>  0 0.12500299E+03</rscale>
<asrwt>0</asrwt>
<pdfrwt beam="2">  1        4 0.64755067E-01 0.12500299E+03</pdfrwt>
<pdfrwt beam="1">  1       -4 0.37703969E-02 0.12500299E+03</pdfrwt>
<totfact> 0.13728314E+03</totfact>
</mgrwt>
</event>
<event>
 5    1  0.1438401E-002  0.1249970E+03  0.7818608E-02  0.1235074E+00
          4   -1    0    0  501    0  0.00000000000E+00  0.00000000000E+00  0.35854239374E+02  0.35876724782E+02  0.12700000000E+01 0.  1.
         -4   -1    0    0    0  501 -0.00000000000E+00 -0.00000000000E+00 -0.10888253429E+03  0.10888994064E+03  0.12700000000E+01 0.  1.
         25    2    1    2    0    0  0.00000000000E+00  0.00000000000E+00 -0.73028294912E+02  0.14476666542E+03  0.12499702220E+03 0.  0.
    9000005    1    3    3    0    0  0.29435547623E+01  0.56302131684E+02 -0.67730168862E+02  0.88130416548E+02  0.10000000000E+01 0.  0.
    9000005    1    3    3    0    0 -0.29435547623E+01 -0.56302131684E+02 -0.52981260491E+01  0.56636248874E+02  0.10000000000E+01 0.  0.
<mgrwt>
<rscale>  0 0.12499702E+03</rscale>
<asrwt>0</asrwt>
<pdfrwt beam="1">  1        4 0.89672966E-02 0.12499702E+03</pdfrwt>
<pdfrwt beam="2">  1       -4 0.27224369E-01 0.12499702E+03</pdfrwt>
<totfact> 0.18800375E+03</totfact>
</mgrwt>
</event>
<event>
 5    1  0.1438401E-002  0.1249993E+03  0.7818608E-02  0.1235070E+00
          4   -1    0    0  501    0  0.00000000000E+00  0.00000000000E+00  0.26219213701E+03  0.26219521279E+03  0.12700000000E+01 0.  1.
         -4   -1    0    0    0  501 -0.00000000000E+00 -0.00000000000E+00 -0.14868026747E+02  0.14922168721E+02  0.12700000000E+01 0.  1.
         25    2    1    2    0    0  0.00000000000E+00  0.00000000000E+00  0.24732411027E+03  0.27711738151E+03  0.12499931047E+03 0.  0.
    9000005    1    3    3    0    0  0.18313816070E+02  0.36937210568E+02  0.19549020756E+02  0.45638992058E+02  0.10000000000E+01 0.  0.
    9000005    1    3    3    0    0 -0.18313816070E+02 -0.36937210568E+02  0.22777508951E+03  0.23147838946E+03  0.10000000000E+01 0.  0.
<mgrwt>
<rscale>  0 0.12499931E+03</rscale>
<asrwt>0</asrwt>
<pdfrwt beam="1">  1        4 0.65555184E-01 0.12499931E+03</pdfrwt>
<pdfrwt beam="2">  1       -4 0.37241590E-02 0.12499931E+03</pdfrwt>
<totfact> 0.13637736E+03</totfact>
</mgrwt>
</event>
<event>
 5    1  0.1438401E-002  0.1250084E+03  0.7818608E-02  0.1235056E+00
         -4   -1    0    0    0  501 -0.00000000000E+00  0.00000000000E+00  0.24646993053E+03  0.24647320251E+03  0.12700000000E+01 0. -1.
          4   -1    0    0  501    0  0.00000000000E+00 -0.00000000000E+00 -0.15822087019E+02  0.15872975072E+02  0.12700000000E+01 0. -1.
         25    2    1    2    0    0  0.00000000000E+00  0.00000000000E+00  0.23064784352E+03  0.26234617759E+03  0.12500835643E+03 0.  0.
    9000005    1    3    3    0    0  0.15431439267E+02  0.10715243837E+02 -0.97661083234E+01  0.21197231898E+02  0.10000000000E+01 0.  0.
    9000005    1    3    3    0    0 -0.15431439267E+02 -0.10715243837E+02  0.24041395184E+03  0.24114894569E+03  0.10000000000E+01 0.  0.
<mgrwt>
<rscale>  0 0.12500836E+03</rscale>
<asrwt>0</asrwt>
<pdfrwt beam="2">  1        4 0.39622917E-02 0.12500836E+03</pdfrwt>
<pdfrwt beam="1">  1       -4 0.61624253E-01 0.12500836E+03</pdfrwt>
<totfact> 0.14093415E+03</totfact>
</mgrwt>
</event>
<event>
 5    1  0.1438401E-002  0.1250035E+03  0.7818608E-02  0.1235064E+00
          4   -1    0    0  501    0  0.00000000000E+00  0.00000000000E+00  0.39125449972E+03  0.39125656091E+03  0.12700000000E+01 0.  1.
         -4   -1    0    0    0  501 -0.00000000000E+00 -0.00000000000E+00 -0.99419925722E+01  0.10022779869E+02  0.12700000000E+01 0.  1.
         25    2    1    2    0    0  0.00000000000E+00  0.00000000000E+00  0.38131250715E+03  0.40127934078E+03  0.12500352485E+03 0.  0.
    9000005    1    3    3    0    0 -0.59652402705E+01  0.46431524023E+02  0.32355776633E+03  0.32692827756E+03  0.10000000000E+01 0.  0.
    9000005    1    3    3    0    0  0.59652402705E+01 -0.46431524023E+02  0.57754740822E+02  0.74351063221E+02  0.10000000000E+01 0.  0.
<mgrwt>
<rscale>  0 0.12500352E+03</rscale>
<asrwt>0</asrwt>
<pdfrwt beam="1">  1        4 0.97823974E-01 0.12500352E+03</pdfrwt>
<pdfrwt beam="2">  1       -4 0.24958544E-02 0.12500352E+03</pdfrwt>
<totfact> 0.10542049E+03</totfact>
</mgrwt>
</event>
<event>
 5    1  0.1438401E-002  0.1249984E+03  0.7818608E-02  0.1235072E+00
          4   -1    0    0  501    0  0.00000000000E+00  0.00000000000E+00  0.83784440874E+02  0.83794065616E+02  0.12700000000E+01 0.  1.
         -4   -1    0    0    0  501 -0.00000000000E+00 -0.00000000000E+00 -0.46600441893E+02  0.46617744311E+02  0.12700000000E+01 0.  1.
         25    2    1    2    0    0  0.00000000000E+00  0.00000000000E+00  0.37183998981E+02  0.13041180993E+03  0.12499836154E+03 0.  0.
    9000005    1    3    3    0    0  0.12625746930E+02  0.60814051676E+02  0.11409883256E+02  0.63158085806E+02  0.10000000000E+01 0.  0.
    9000005    1    3    3    0    0 -0.12625746930E+02 -0.60814051676E+02  0.25774115725E+02  0.67253724121E+02  0.10000000000E+01 0.  0.
<mgrwt>
<rscale>  0 0.12499836E+03</rscale>
<asrwt>0</asrwt>
<pdfrwt beam="1">  1        4 0.20949476E-01 0.12499836E+03</pdfrwt>
<pdfrwt beam="2">  1       -4 0.11653476E-01 0.12499836E+03</pdfrwt>
<totfact> 0.19543017E+03</totfact>
</mgrwt>
</event>
<event>
 5    1  0.1438401E-002  0.1249956E+03  0.7818608E-02  0.1235076E+00
         -4   -1    0    0    0  501 -0.00000000000E+00  0.00000000000E+00  0.39471878586E+02  0.39492304302E+02  0.12700000000E+01 0. -1.
          4   -1    0    0  501    0  0.00000000000E+00 -0.00000000000E+00 -0.98905829818E+02  0.98913983197E+02  0.12700000000E+01 0. -1.
         25    2    1    2    0    0  0.00000000000E+00  0.00000000000E+00 -0.59433951232E+02  0.13840628750E+03  0.12499562337E+03 0.  0.
    9000005    1    3    3    0    0 -0.42152999083E+01  0.50151604609E+02  0.11297948208E+02  0.51590656439E+02  0.10000000000E+01 0.  0.
    9000005    1    3    3    0    0  0.42152999083E+01 -0.50151604609E+02 -0.70731899440E+02  0.86815631061E+02  0.10000000000E+01 0.  0.
<mgrwt>
<rscale>  0 0.12499562E+03</rscale>
<asrwt>0</asrwt>
<pdfrwt beam="2">  1        4 0.24730029E-01 0.12499562E+03</pdfrwt>
<pdfrwt beam="1">  1       -4 0.98715422E-02 0.12499562E+03</pdfrwt>
<totfact> 0.19124125E+03</totfact>
</mgrwt>
</event>
<event>
 5    1  0.1438401E-002  0.1249988E+03  0.7818608E-02  0.1235071E+00
         -4   -1    0    0    0  501 -0.00000000000E+00  0.00000000000E+00  0.12887323874E+03  0.12887949629E+03  0.12700000000E+01 0. -1.
          4   -1    0    0  501    0  0.00000000000E+00 -0.00000000000E+00 -0.30289934233E+02  0.30316546898E+02  0.12700000000E+01 0. -1.
         25    2    1    2    0    0  0.00000000000E+00  0.00000000000E+00  0.98583304510E+02  0.15919604319E+03  0.12499884895E+03 0.  0.
    9000005    1    3    3    0    0  0.30394716564E+02 -0.49084727993E+02  0.79752022716E+02  0.98460826954E+02  0.10000000000E+01 0.  0.
    9000005    1    3    3    0    0 -0.30394716564E+02  0.49084727993E+02  0.18831281794E+02  0.60735216235E+02  0.10000000000E+01 0.  0.
<mgrwt>
<rscale>  0 0.12499885E+03</rscale>
<asrwt>0</asrwt>
<pdfrwt beam="2">  1        4 0.75765924E-02 0.12499885E+03</pdfrwt>
<pdfrwt beam="1">  1       -4 0.32222418E-01 0.12499885E+03</pdfrwt>
<totfact> 0.18096139E+03</totfact>
</mgrwt>
</event>
<event>
 5    1  0.1438401E-002  0.1249984E+03  0.7818608E-02  0.1235072E+00
          4   -1    0    0  501    0  0.00000000000E+00  0.00000000000E+00  0.63539631747E+01  0.64796410414E+01  0.12700000000E+01 0.  1.
         -4   -1    0    0    0  501 -0.00000000000E+00 -0.00000000000E+00 -0.60861106804E+03  0.60861239310E+03  0.12700000000E+01 0.  1.
         25    2    1    2    0    0  0.00000000000E+00  0.00000000000E+00 -0.60225710487E+03  0.61509203415E+03  0.12499836043E+03 0.  0.
    9000005    1    3    3    0    0 -0.28263379867E+02 -0.47598140588E+02 -0.44381021617E+03  0.44725038805E+03  0.10000000000E+01 0.  0.
    9000005    1    3    3    0    0  0.28263379867E+02  0.47598140588E+02 -0.15844688869E+03  0.16784164610E+03  0.10000000000E+01 0.  0.
<mgrwt>
<rscale>  0 0.12499836E+03</rscale>
<asrwt>0</asrwt>
<pdfrwt beam="1">  1        4 0.16043682E-02 0.12499836E+03</pdfrwt>
<pdfrwt beam="2">  1       -4 0.15216845E+00 0.12499836E+03</pdfrwt>
<totfact> 0.71638693E+02</totfact>
</mgrwt>
</event>
<event>
 5    1  0.1438401E-002  0.1249972E+03  0.7818608E-02  0.1235074E+00
         -4   -1    0    0    0  501 -0.00000000000E+00  0.00000000000E+00  0.15853415230E+03  0.15853923913E+03  0.12700000000E+01 0.  1.
          4   -1    0    0  501    0  0.00000000000E+00 -0.00000000000E+00 -0.24616836818E+02  0.24649575147E+02  0.12700000000E+01 0.  1.
         25    2    1    2    0    0  0.00000000000E+00  0.00000000000E+00  0.13391731548E+03  0.18318881428E+03  0.12499717714E+03 0.  0.
    9000005    1    3    3    0    0  0.22341096878E+02  0.58353858965E+02  0.68249756919E+02  0.92538244987E+02  0.10000000000E+01 0.  0.
    9000005    1    3    3    0    0 -0.22341096878E+02 -0.58353858965E+02  0.65667558559E+02  0.90650569292E+02  0.10000000000E+01 0.  0.
<mgrwt>
<rscale>  0 0.12499718E+03</rscale>
<asrwt>0</asrwt>
<pdfrwt beam="2">  1        4 0.61589374E-02 0.12499718E+03</pdfrwt>
<pdfrwt beam="1">  1       -4 0.39638266E-01 0.12499718E+03</pdfrwt>
<totfact> 0.17019169E+03</totfact>
</mgrwt>
</event>
<event>
 5    1  0.1438401E-002  0.1249997E+03  0.7818608E-02  0.1235070E+00
          4   -1    0    0  501    0  0.00000000000E+00  0.00000000000E+00  0.59882142496E+01  0.61214058760E+01  0.12700000000E+01 0.  1.
         -4   -1    0    0    0  501 -0.00000000000E+00 -0.00000000000E+00 -0.64501133228E+03  0.64501258257E+03  0.12700000000E+01 0.  1.
         25    2    1    2    0    0  0.00000000000E+00  0.00000000000E+00 -0.63902311803E+03  0.65113398845E+03  0.12499970211E+03 0.  0.
    9000005    1    3    3    0    0  0.45271517387E+02 -0.15411393548E+02 -0.10996582014E+03  0.11991873472E+03  0.10000000000E+01 0.  0.
    9000005    1    3    3    0    0 -0.45271517387E+02  0.15411393548E+02 -0.52905729790E+03  0.53121525373E+03  0.10000000000E+01 0.  0.
<mgrwt>
<rscale>  0 0.12499970E+03</rscale>
<asrwt>0</asrwt>
<pdfrwt beam="1">  1        4 0.15138610E-02 0.12499970E+03</pdfrwt>
<pdfrwt beam="2">  1       -4 0.16126940E+00 0.12499970E+03</pdfrwt>
<totfact> 0.67381861E+02</totfact>
</mgrwt>
</event>
<event>
 5    1  0.1438401E-002  0.1250012E+03  0.7818608E-02  0.1235067E+00
         -4   -1    0    0    0  501 -0.00000000000E+00  0.00000000000E+00  0.11747948394E+02  0.11816395028E+02  0.12700000000E+01 0. -1.
          4   -1    0    0  501    0  0.00000000000E+00 -0.00000000000E+00 -0.33147587246E+03  0.33147830536E+03  0.12700000000E+01 0. -1.
         25    2    1    2    0    0  0.00000000000E+00  0.00000000000E+00 -0.31972792407E+03  0.34329470039E+03  0.12500122354E+03 0.  0.
    9000005    1    3    3    0    0 -0.67815104654E+01  0.23635797378E+02 -0.20828601559E+01  0.24697734882E+02  0.10000000000E+01 0.  0.
    9000005    1    3    3    0    0  0.67815104654E+01 -0.23635797378E+02 -0.31764506391E+03  0.31859696551E+03  0.10000000000E+01 0.  0.
<mgrwt>
<rscale>  0 0.12500122E+03</rscale>
<asrwt>0</asrwt>
<pdfrwt beam="2">  1        4 0.82877797E-01 0.12500122E+03</pdfrwt>
<pdfrwt beam="1">  1       -4 0.29458481E-02 0.12500122E+03</pdfrwt>
<totfact> 0.11838571E+03</totfact>
</mgrwt>
</event>
<event>
 5    1  0.1438401E-002  0.1249961E+03  0.7818608E-02  0.1235075E+00
         -4   -1    0    0    0  501 -0.00000000000E+00  0.00000000000E+00  0.10857747108E+03  0.10858489824E+03  0.12700000000E+01 0.  1.
          4   -1    0    0  501    0  0.00000000000E+00 -0.00000000000E+00 -0.35954475118E+02  0.35976897880E+02  0.12700000000E+01 0.  1.
         25    2    1    2    0    0  0.00000000000E+00  0.00000000000E+00  0.72622995963E+02  0.14456179612E+03  0.12499605336E+03 0.  0.
    9000005    1    3    3    0    0 -0.33493224452E+02  0.49973355294E+02  0.16757196946E+02  0.62457473316E+02  0.10000000000E+01 0.  0.
    9000005    1    3    3    0    0  0.33493224452E+02 -0.49973355294E+02  0.55865799017E+02  0.82104322806E+02  0.10000000000E+01 0.  0.
<mgrwt>
<rscale>  0 0.12499605E+03</rscale>
<asrwt>0</asrwt>
<pdfrwt beam="2">  1        4 0.89923501E-02 0.12499605E+03</pdfrwt>
<pdfrwt beam="1">  1       -4 0.27148099E-01 0.12499605E+03</pdfrwt>
<totfact> 0.18811079E+03</totfact>
</mgrwt>
</event>
<event>
 5    1  0.1438401E-002  0.1249912E+03  0.7818608E-02  0.1235083E+00
          4   -1    0    0  501    0  0.00000000000E+00  0.00000000000E+00  0.55012733067E+02  0.55027390447E+02  0.12700000000E+01 0.  1.
         -4   -1    0    0    0  501 -0.00000000000E+00 -0.00000000000E+00 -0.70966447368E+02  0.70977810280E+02  0.12700000000E+01 0.  1.
         25    2    1    2    0    0  0.00000000000E+00  0.00000000000E+00 -0.15953714302E+02  0.12600520073E+03  0.12499115813E+03 0.  0.
    9000005    1    3    3    0    0  0.59736946714E+02  0.33199691588E+01 -0.26155690975E+02  0.65304250768E+02  0.10000000000E+01 0.  0.
    9000005    1    3    3    0    0 -0.59736946714E+02 -0.33199691588E+01  0.10201976673E+02  0.60700949959E+02  0.10000000000E+01 0.  0.
<mgrwt>
<rscale>  0 0.12499116E+03</rscale>
<asrwt>0</asrwt>
<pdfrwt beam="1">  1        4 0.13756436E-01 0.12499116E+03</pdfrwt>
<pdfrwt beam="2">  1       -4 0.17744864E-01 0.12499116E+03</pdfrwt>
<totfact> 0.19784731E+03</totfact>
</mgrwt>
</event>
<event>
 5    1  0.1438401E-002  0.1249983E+03  0.7818608E-02  0.1235072E+00
         -4   -1    0    0    0  501 -0.00000000000E+00  0.00000000000E+00  0.17542873857E+03  0.17543333553E+03  0.12700000000E+01 0. -1.
          4   -1    0    0  501    0  0.00000000000E+00 -0.00000000000E+00 -0.22243280492E+02  0.22279506885E+02  0.12700000000E+01 0. -1.
         25    2    1    2    0    0  0.00000000000E+00  0.00000000000E+00  0.15318545808E+03  0.19771284242E+03  0.12499833395E+03 0.  0.
    9000005    1    3    3    0    0 -0.43417541255E+02  0.38797755705E+02  0.40704773646E+02  0.71050878488E+02  0.10000000000E+01 0.  0.
    9000005    1    3    3    0    0  0.43417541255E+02 -0.38797755705E+02  0.11248068443E+03  0.12666196393E+03  0.10000000000E+01 0.  0.
<mgrwt>
<rscale>  0 0.12499833E+03</rscale>
<asrwt>0</asrwt>
<pdfrwt beam="2">  1        4 0.55659231E-02 0.12499833E+03</pdfrwt>
<pdfrwt beam="1">  1       -4 0.43862287E-01 0.12499833E+03</pdfrwt>
<totfact> 0.16414666E+03</totfact>
</mgrwt>
</event>
<event>
 5    1  0.1438401E-002  0.1250009E+03  0.7818608E-02  0.1235068E+00
          4   -1    0    0  501    0  0.00000000000E+00  0.00000000000E+00  0.75788087105E+02  0.75798727213E+02  0.12700000000E+01 0. -1.
         -4   -1    0    0    0  501 -0.00000000000E+00 -0.00000000000E+00 -0.51520416568E+02  0.51536067209E+02  0.12700000000E+01 0. -1.
         25    2    1    2    0    0  0.00000000000E+00  0.00000000000E+00  0.24267670537E+02  0.12733479442E+03  0.12500092014E+03 0.  0.
    9000005    1    3    3    0    0 -0.32128829990E+02 -0.45419755191E+02  0.41127355915E+02  0.69193029148E+02  0.10000000000E+01 0.  0.
    9000005    1    3    3    0    0  0.32128829990E+02  0.45419755191E+02 -0.16859685377E+02  0.58141765274E+02  0.10000000000E+01 0.  0.
<mgrwt>
<rscale>  0 0.12500092E+03</rscale>
<asrwt>0</asrwt>
<pdfrwt beam="1">  1        4 0.18950308E-01 0.12500092E+03</pdfrwt>
<pdfrwt beam="2">  1       -4 0.12883391E-01 0.12500092E+03</pdfrwt>
<totfact> 0.19708386E+03</totfact>
</mgrwt>
</event>
<event>
 5    1  0.1438401E-002  0.1249997E+03  0.7818608E-02  0.1235070E+00
         -4   -1    0    0    0  501 -0.00000000000E+00  0.00000000000E+00  0.79096657007E+02  0.79106852103E+02  0.12700000000E+01 0.  1.
          4   -1    0    0  501    0  0.00000000000E+00 -0.00000000000E+00 -0.49364020253E+02  0.49380354348E+02  0.12700000000E+01 0.  1.
         25    2    1    2    0    0  0.00000000000E+00  0.00000000000E+00  0.29732636754E+02  0.12848720645E+03  0.12499973013E+03 0.  0.
    9000005    1    3    3    0    0 -0.47465830258E+02 -0.31197050929E+02  0.41650401081E+02  0.70441585296E+02  0.10000000000E+01 0.  0.
    9000005    1    3    3    0    0  0.47465830258E+02  0.31197050929E+02 -0.11917764327E+02  0.58045621155E+02  0.10000000000E+01 0.  0.
<mgrwt>
<rscale>  0 0.12499973E+03</rscale>
<asrwt>0</asrwt>
<pdfrwt beam="2">  1        4 0.12344321E-01 0.12499973E+03</pdfrwt>
<pdfrwt beam="1">  1       -4 0.19777480E-01 0.12499973E+03</pdfrwt>
<totfact> 0.19646190E+03</totfact>
</mgrwt>
</event>
<event>
 5    1  0.1438401E-002  0.1249963E+03  0.7818608E-02  0.1235075E+00
          4   -1    0    0  501    0  0.00000000000E+00  0.00000000000E+00  0.14867985291E+03  0.14868527688E+03  0.12700000000E+01 0.  1.
         -4   -1    0    0    0  501 -0.00000000000E+00 -0.00000000000E+00 -0.26250084353E+02  0.26280788203E+02  0.12700000000E+01 0.  1.
         25    2    1    2    0    0  0.00000000000E+00  0.00000000000E+00  0.12242976855E+03  0.17496606508E+03  0.12499630275E+03 0.  0.
    9000005    1    3    3    0    0 -0.56775988230E+02 -0.16598462821E+02  0.89419366599E+02  0.10721867809E+03  0.10000000000E+01 0.  0.
    9000005    1    3    3    0    0  0.56775988230E+02  0.16598462821E+02  0.33010401954E+02  0.67747386995E+02  0.10000000000E+01 0.  0.
<mgrwt>
<rscale>  0 0.12499630E+03</rscale>
<asrwt>0</asrwt>
<pdfrwt beam="1">  1        4 0.37174479E-01 0.12499630E+03</pdfrwt>
<pdfrwt beam="2">  1       -4 0.65670371E-02 0.12499630E+03</pdfrwt>
<totfact> 0.17376845E+03</totfact>
</mgrwt>
</event>
<event>
 5    1  0.1438401E-002  0.1250158E+03  0.7818608E-02  0.1235045E+00
          4   -1    0    0  501    0  0.00000000000E+00  0.00000000000E+00  0.67610782440E+03  0.67610901718E+03  0.12700000000E+01 0. -1.
         -4   -1    0    0    0  501 -0.00000000000E+00 -0.00000000000E+00 -0.57080311888E+01  0.58476080625E+01  0.12700000000E+01 0. -1.
         25    2    1    2    0    0  0.00000000000E+00  0.00000000000E+00  0.67039979321E+03  0.68195662525E+03  0.12501582291E+03 0.  0.
    9000005    1    3    3    0    0  0.97741572568E+01 -0.46239418111E+02  0.11210453088E+03  0.12166365020E+03  0.10000000000E+01 0.  0.
    9000005    1    3    3    0    0 -0.97741572568E+01  0.46239418111E+02  0.55829526234E+03  0.56029297504E+03  0.10000000000E+01 0.  0.
<mgrwt>
<rscale>  0 0.12501582E+03</rscale>
<asrwt>0</asrwt>
<pdfrwt beam="1">  1        4 0.16904452E+00 0.12501582E+03</pdfrwt>
<pdfrwt beam="2">  1       -4 0.14446043E-02 0.12501582E+03</pdfrwt>
<totfact> 0.63946902E+02</totfact>
</mgrwt>
</event>
<event>
 5    1  0.1438401E-002  0.1249953E+03  0.7818608E-02  0.1235077E+00
         -4   -1    0    0    0  501 -0.00000000000E+00  0.00000000000E+00  0.16088385578E+03  0.16088886832E+03  0.12700000000E+01 0.  1.
          4   -1    0    0  501    0  0.00000000000E+00 -0.00000000000E+00 -0.24256108962E+02  0.24289333502E+02  0.12700000000E+01 0.  1.
         25    2    1    2    0    0  0.00000000000E+00  0.00000000000E+00  0.13662774681E+03  0.18517820182E+03  0.12499530084E+03 0.  0.
    9000005    1    3    3    0    0 -0.47709509534E+02  0.37041090138E+02  0.92050729354E+02  0.11010257233E+03  0.10000000000E+01 0.  0.
    9000005    1    3    3    0    0  0.47709509534E+02 -0.37041090138E+02  0.44577017461E+02  0.75075629497E+02  0.10000000000E+01 0.  0.
<mgrwt>
<rscale>  0 0.12499530E+03</rscale>
<asrwt>0</asrwt>
<pdfrwt beam="2">  1        4 0.60688069E-02 0.12499530E+03</pdfrwt>
<pdfrwt beam="1">  1       -4 0.40225743E-01 0.12499530E+03</pdfrwt>
<totfact> 0.16935097E+03</totfact>
</mgrwt>
</event>
<event>
 5    1  0.1438401E-002  0.1249975E+03  0.7818608E-02  0.1235073E+00
         -4   -1    0    0    0  501 -0.00000000000E+00  0.00000000000E+00  0.10946606784E+03  0.10947343471E+03  0.12700000000E+01 0.  1.
          4   -1    0    0  501    0  0.00000000000E+00 -0.00000000000E+00 -0.35663249926E+02  0.35685855676E+02  0.12700000000E+01 0.  1.
         25    2    1    2    0    0  0.00000000000E+00  0.00000000000E+00  0.73802817911E+02  0.14515929039E+03  0.12499745459E+03 0.  0.
    9000005    1    3    3    0    0  0.30878293968E+02 -0.12909823730E+02  0.98186243461E+02  0.10373847402E+03  0.10000000000E+01 0.  0.
    9000005    1    3    3    0    0 -0.30878293968E+02  0.12909823730E+02 -0.24383425549E+02  0.41420816368E+02  0.10000000000E+01 0.  0.
<mgrwt>
<rscale>  0 0.12499745E+03</rscale>
<asrwt>0</asrwt>
<pdfrwt beam="2">  1        4 0.89195591E-02 0.12499745E+03</pdfrwt>
<pdfrwt beam="1">  1       -4 0.27370263E-01 0.12499745E+03</pdfrwt>
<totfact> 0.18780485E+03</totfact>
</mgrwt>
</event>
<event>
 5    1  0.1438401E-002  0.1250000E+03  0.7818608E-02  0.1235069E+00
          4   -1    0    0  501    0  0.00000000000E+00  0.00000000000E+00  0.42996666728E+02  0.43015418744E+02  0.12700000000E+01 0. -1.
         -4   -1    0    0    0  501 -0.00000000000E+00 -0.00000000000E+00 -0.90807093190E+02  0.90815973670E+02  0.12700000000E+01 0. -1.
         25    2    1    2    0    0  0.00000000000E+00  0.00000000000E+00 -0.47810426463E+02  0.13383139241E+03  0.12500001887E+03 0.  0.
    9000005    1    3    3    0    0  0.19728983393E+02 -0.25887259067E+02  0.33210461311E+02  0.46511479316E+02  0.10000000000E+01 0.  0.
    9000005    1    3    3    0    0 -0.19728983393E+02  0.25887259067E+02 -0.81020887773E+02  0.87319913097E+02  0.10000000000E+01 0.  0.
<mgrwt>
<rscale>  0 0.12500002E+03</rscale>
<asrwt>0</asrwt>
<pdfrwt beam="1">  1        4 0.10752621E-01 0.12500002E+03</pdfrwt>
<pdfrwt beam="2">  1       -4 0.22705227E-01 0.12500002E+03</pdfrwt>
<totfact> 0.19360515E+03</totfact>
</mgrwt>
</event>
<event>
 5    1  0.1438401E-002  0.1249886E+03  0.7818608E-02  0.1235087E+00
          4   -1    0    0  501    0  0.00000000000E+00  0.00000000000E+00  0.25161492043E+02  0.25193522616E+02  0.12700000000E+01 0. -1.
         -4   -1    0    0    0  501 -0.00000000000E+00 -0.00000000000E+00 -0.15508556488E+03  0.15509076483E+03  0.12700000000E+01 0. -1.
         25    2    1    2    0    0  0.00000000000E+00  0.00000000000E+00 -0.12992407284E+03  0.18028428745E+03  0.12498863787E+03 0.  0.
    9000005    1    3    3    0    0  0.55289584799E+02 -0.35870221233E+01 -0.23288375833E+02  0.60109511426E+02  0.10000000000E+01 0.  0.
    9000005    1    3    3    0    0 -0.55289584799E+02  0.35870221233E+01 -0.10663569701E+03  0.12017477602E+03  0.10000000000E+01 0.  0.
<mgrwt>
<rscale>  0 0.12498864E+03</rscale>
<asrwt>0</asrwt>
<pdfrwt beam="1">  1        4 0.62950273E-02 0.12498864E+03</pdfrwt>
<pdfrwt beam="2">  1       -4 0.38776042E-01 0.12498864E+03</pdfrwt>
<totfact> 0.17147432E+03</totfact>
</mgrwt>
</event>
<event>
 5    1  0.1438401E-002  0.1249978E+03  0.7818608E-02  0.1235073E+00
          4   -1    0    0  501    0  0.00000000000E+00  0.00000000000E+00  0.57393399698E+02  0.57407449246E+02  0.12700000000E+01 0.  1.
         -4   -1    0    0    0  501 -0.00000000000E+00 -0.00000000000E+00 -0.68030294486E+02  0.68042147731E+02  0.12700000000E+01 0.  1.
         25    2    1    2    0    0  0.00000000000E+00  0.00000000000E+00 -0.10636894788E+02  0.12544959698E+03  0.12499783139E+03 0.  0.
    9000005    1    3    3    0    0 -0.43082654085E+02  0.20307230163E+02  0.35282873192E+02  0.59282204923E+02  0.10000000000E+01 0.  0.
    9000005    1    3    3    0    0  0.43082654085E+02 -0.20307230163E+02 -0.45919767980E+02  0.66167392054E+02  0.10000000000E+01 0.  0.
<mgrwt>
<rscale>  0 0.12499783E+03</rscale>
<asrwt>0</asrwt>
<pdfrwt beam="1">  1        4 0.14351588E-01 0.12499783E+03</pdfrwt>
<pdfrwt beam="2">  1       -4 0.17010811E-01 0.12499783E+03</pdfrwt>
<totfact> 0.19811697E+03</totfact>
</mgrwt>
</event>
<event>
 5    1  0.1438401E-002  0.1250013E+03  0.7818608E-02  0.1235067E+00
         -4   -1    0    0    0  501 -0.00000000000E+00  0.00000000000E+00  0.20299457508E+02  0.20339146372E+02  0.12700000000E+01 0.  1.
          4   -1    0    0  501    0  0.00000000000E+00 -0.00000000000E+00 -0.19220550062E+03  0.19220969634E+03  0.12700000000E+01 0.  1.
         25    2    1    2    0    0  0.00000000000E+00  0.00000000000E+00 -0.17190604311E+03  0.21254884272E+03  0.12500129152E+03 0.  0.
    9000005    1    3    3    0    0  0.12185331767E+02  0.27296366451E+02 -0.17926860880E+03  0.18174654889E+03  0.10000000000E+01 0.  0.
    9000005    1    3    3    0    0 -0.12185331767E+02 -0.27296366451E+02  0.73625656860E+01  0.30802293830E+02  0.10000000000E+01 0.  0.
<mgrwt>
<rscale>  0 0.12500129E+03</rscale>
<asrwt>0</asrwt>
<pdfrwt beam="2">  1        4 0.48056855E-01 0.12500129E+03</pdfrwt>
<pdfrwt beam="1">  1       -4 0.50803505E-02 0.12500129E+03</pdfrwt>
<totfact> 0.15831129E+03</totfact>
</mgrwt>
</event>
<event>
 5    1  0.1438401E-002  0.1249993E+03  0.7818608E-02  0.1235070E+00
          4   -1    0    0  501    0  0.00000000000E+00  0.00000000000E+00  0.19938725352E+02  0.19979130829E+02  0.12700000000E+01 0.  1.
         -4   -1    0    0    0  501 -0.00000000000E+00 -0.00000000000E+00 -0.19566974882E+03  0.19567387026E+03  0.12700000000E+01 0.  1.
         25    2    1    2    0    0  0.00000000000E+00  0.00000000000E+00 -0.17573102347E+03  0.21565300109E+03  0.12499929708E+03 0.  0.
    9000005    1    3    3    0    0 -0.42861434203E+02 -0.27749451794E+02 -0.25707482745E+02  0.57175250641E+02  0.10000000000E+01 0.  0.
    9000005    1    3    3    0    0  0.42861434203E+02  0.27749451794E+02 -0.15002354073E+03  0.15847775045E+03  0.10000000000E+01 0.  0.
<mgrwt>
<rscale>  0 0.12499930E+03</rscale>
<asrwt>0</asrwt>
<pdfrwt beam="1">  1        4 0.49902478E-02 0.12499930E+03</pdfrwt>
<pdfrwt beam="2">  1       -4 0.48922997E-01 0.12499930E+03</pdfrwt>
<totfact> 0.15714138E+03</totfact>
</mgrwt>
</event>
<event>
 5    1  0.1438401E-002  0.1250039E+03  0.7818608E-02  0.1235063E+00
          4   -1    0    0  501    0  0.00000000000E+00  0.00000000000E+00  0.14349697422E+03  0.14350259409E+03  0.12700000000E+01 0. -1.
         -4   -1    0    0    0  501 -0.00000000000E+00 -0.00000000000E+00 -0.27202559646E+02  0.27232189616E+02  0.12700000000E+01 0. -1.
         25    2    1    2    0    0  0.00000000000E+00  0.00000000000E+00  0.11629441457E+03  0.17073478370E+03  0.12500390196E+03 0.  0.
    9000005    1    3    3    0    0  0.13488005704E+02  0.10182337856E+02 -0.24028978648E+02  0.29393844882E+02  0.10000000000E+01 0.  0.
    9000005    1    3    3    0    0 -0.13488005704E+02 -0.10182337856E+02  0.14032339322E+03  0.14134093882E+03  0.10000000000E+01 0.  0.
<mgrwt>
<rscale>  0 0.12500390E+03</rscale>
<asrwt>0</asrwt>
<pdfrwt beam="1">  1        4 0.35878649E-01 0.12500390E+03</pdfrwt>
<pdfrwt beam="2">  1       -4 0.68050462E-02 0.12500390E+03</pdfrwt>
<totfact> 0.17562366E+03</totfact>
</mgrwt>
</event>
<event>
 5    1  0.1438401E-002  0.1250369E+03  0.7818608E-02  0.1235012E+00
          4   -1    0    0  501    0  0.00000000000E+00  0.00000000000E+00  0.28429114553E+02  0.28457467460E+02  0.12700000000E+01 0.  1.
         -4   -1    0    0    0  501 -0.00000000000E+00 -0.00000000000E+00 -0.13738441528E+03  0.13739028518E+03  0.12700000000E+01 0.  1.
         25    2    1    2    0    0  0.00000000000E+00  0.00000000000E+00 -0.10895530073E+03  0.16584775264E+03  0.12503687256E+03 0.  0.
    9000005    1    3    3    0    0  0.47710659121E+02 -0.40310223615E+02 -0.51139529495E+02  0.80730865217E+02  0.10000000000E+01 0.  0.
    9000005    1    3    3    0    0 -0.47710659121E+02  0.40310223615E+02 -0.57815771237E+02  0.85116887428E+02  0.10000000000E+01 0.  0.
<mgrwt>
<rscale>  0 0.12503687E+03</rscale>
<asrwt>0</asrwt>
<pdfrwt beam="1">  1        4 0.71115569E-02 0.12503687E+03</pdfrwt>
<pdfrwt beam="2">  1       -4 0.34350380E-01 0.12503687E+03</pdfrwt>
<totfact> 0.17770751E+03</totfact>
</mgrwt>
</event>
<event>
 5    1  0.1438401E-002  0.1250004E+03  0.7818608E-02  0.1235069E+00
         -4   -1    0    0    0  501 -0.00000000000E+00  0.00000000000E+00  0.16735595804E+04  0.16735600623E+04  0.12700000000E+01 0.  1.
          4   -1    0    0  501    0  0.00000000000E+00 -0.00000000000E+00 -0.21608413016E+01  0.25064187860E+01  0.12700000000E+01 0.  1.
         25    2    1    2    0    0  0.00000000000E+00  0.00000000000E+00  0.16713987391E+04  0.16760664811E+04  0.12500041553E+03 0.  0.
    9000005    1    3    3    0    0 -0.54529885847E+02 -0.98199741366E+01  0.44816494504E+03  0.45157807554E+03  0.10000000000E+01 0.  0.
    9000005    1    3    3    0    0  0.54529885847E+02  0.98199741366E+01  0.12232337941E+04  0.12244884055E+04  0.10000000000E+01 0.  0.
<mgrwt>
<rscale>  0 0.12500042E+03</rscale>
<asrwt>0</asrwt>
<pdfrwt beam="2">  1        4 0.58346766E-03 0.12500042E+03</pdfrwt>
<pdfrwt beam="1">  1       -4 0.41843321E+00 0.12500042E+03</pdfrwt>
<totfact> 0.76050213E+01</totfact>
</mgrwt>
</event>
<event>
 5    1  0.1438401E-002  0.1250027E+03  0.7818608E-02  0.1235065E+00
         -4   -1    0    0    0  501 -0.00000000000E+00  0.00000000000E+00  0.30013424344E+02  0.30040281970E+02  0.12700000000E+01 0. -1.
          4   -1    0    0  501    0  0.00000000000E+00 -0.00000000000E+00 -0.13006757793E+03  0.13007377802E+03  0.12700000000E+01 0. -1.
         25    2    1    2    0    0  0.00000000000E+00  0.00000000000E+00 -0.10005415359E+03  0.16011405999E+03  0.12500271420E+03 0.  0.
    9000005    1    3    3    0    0 -0.13149499140E+02  0.11173584264E+01  0.28214553162E+02  0.31164383961E+02  0.10000000000E+01 0.  0.
    9000005    1    3    3    0    0  0.13149499140E+02 -0.11173584264E+01 -0.12826870675E+03  0.12894967603E+03  0.10000000000E+01 0.  0.
<mgrwt>
<rscale>  0 0.12500271E+03</rscale>
<asrwt>0</asrwt>
<pdfrwt beam="2">  1        4 0.32521025E-01 0.12500271E+03</pdfrwt>
<pdfrwt beam="1">  1       -4 0.75074886E-02 0.12500271E+03</pdfrwt>
<totfact> 0.18051249E+03</totfact>
</mgrwt>
</event>
<event>
 5    1  0.1438401E-002  0.1249928E+03  0.7818608E-02  0.1235081E+00
         -4   -1    0    0    0  501 -0.00000000000E+00  0.00000000000E+00  0.38102087968E+02  0.38123247599E+02  0.12700000000E+01 0.  1.
          4   -1    0    0  501    0  0.00000000000E+00 -0.00000000000E+00 -0.10245526079E+03  0.10246313173E+03  0.12700000000E+01 0.  1.
         25    2    1    2    0    0  0.00000000000E+00  0.00000000000E+00 -0.64353172820E+02  0.14058637932E+03  0.12499279659E+03 0.  0.
    9000005    1    3    3    0    0 -0.10766678371E+02 -0.59509911640E+02 -0.14483606516E+02  0.62194258612E+02  0.10000000000E+01 0.  0.
    9000005    1    3    3    0    0  0.10766678371E+02  0.59509911640E+02 -0.49869566304E+02  0.78392120713E+02  0.10000000000E+01 0.  0.
<mgrwt>
<rscale>  0 0.12499280E+03</rscale>
<asrwt>0</asrwt>
<pdfrwt beam="2">  1        4 0.25617443E-01 0.12499280E+03</pdfrwt>
<pdfrwt beam="1">  1       -4 0.95291510E-02 0.12499280E+03</pdfrwt>
<totfact> 0.19013577E+03</totfact>
</mgrwt>
</event>
<event>
 5    1  0.1438401E-002  0.1250010E+03  0.7818608E-02  0.1235068E+00
         -4   -1    0    0    0  501 -0.00000000000E+00  0.00000000000E+00  0.58790553290E+02  0.58804269029E+02  0.12700000000E+01 0. -1.
          4   -1    0    0  501    0  0.00000000000E+00 -0.00000000000E+00 -0.66416972929E+02  0.66429114047E+02  0.12700000000E+01 0. -1.
         25    2    1    2    0    0  0.00000000000E+00  0.00000000000E+00 -0.76264196397E+01  0.12523338308E+03  0.12500095184E+03 0.  0.
    9000005    1    3    3    0    0 -0.36233139442E+02  0.40169050182E+02  0.27532608929E+02  0.60707804612E+02  0.10000000000E+01 0.  0.
    9000005    1    3    3    0    0  0.36233139442E+02 -0.40169050182E+02 -0.35159028569E+02  0.64525578465E+02  0.10000000000E+01 0.  0.
<mgrwt>
<rscale>  0 0.12500095E+03</rscale>
<asrwt>0</asrwt>
<pdfrwt beam="2">  1        4 0.16607475E-01 0.12500095E+03</pdfrwt>
<pdfrwt beam="1">  1       -4 0.14700870E-01 0.12500095E+03</pdfrwt>
<totfact> 0.19821962E+03</totfact>
</mgrwt>
</event>
<event>
 5    1  0.1438401E-002  0.1249939E+03  0.7818608E-02  0.1235079E+00
          4   -1    0    0  501    0  0.00000000000E+00  0.00000000000E+00  0.22005063083E+01  0.25406943958E+01  0.12700000000E+01 0.  1.
         -4   -1    0    0    0  501 -0.00000000000E+00 -0.00000000000E+00 -0.16472893765E+04  0.16472898661E+04  0.12700000000E+01 0.  1.
         25    2    1    2    0    0  0.00000000000E+00  0.00000000000E+00 -0.16450888702E+04  0.16498305605E+04  0.12499394942E+03 0.  0.
    9000005    1    3    3    0    0  0.37839035746E+02  0.36871289323E+02 -0.12630105232E+04  0.12641154482E+04  0.10000000000E+01 0.  0.
    9000005    1    3    3    0    0 -0.37839035746E+02 -0.36871289323E+02 -0.38207834696E+03  0.38571511225E+03  0.10000000000E+01 0.  0.
<mgrwt>
<rscale>  0 0.12499395E+03</rscale>
<asrwt>0</asrwt>
<pdfrwt beam="1">  1        4 0.59271694E-03 0.12499395E+03</pdfrwt>
<pdfrwt beam="2">  1       -4 0.41186100E+00 0.12499395E+03</pdfrwt>
<totfact> 0.82252838E+01</totfact>
</mgrwt>
</event>
<event>
 5    1  0.1438401E-002  0.1249977E+03  0.7818608E-02  0.1235073E+00
         -4   -1    0    0    0  501 -0.00000000000E+00  0.00000000000E+00  0.11937480004E+03  0.11938155546E+03  0.12700000000E+01 0.  1.
          4   -1    0    0  501    0  0.00000000000E+00 -0.00000000000E+00 -0.32701377122E+02  0.32726028871E+02  0.12700000000E+01 0.  1.
         25    2    1    2    0    0  0.00000000000E+00  0.00000000000E+00  0.86673422920E+02  0.15210758433E+03  0.12499773987E+03 0.  0.
    9000005    1    3    3    0    0  0.57240052750E+02  0.16395785244E+02  0.20252369126E+02  0.62899951255E+02  0.10000000000E+01 0.  0.
    9000005    1    3    3    0    0 -0.57240052750E+02 -0.16395785244E+02  0.66421053794E+02  0.89207633080E+02  0.10000000000E+01 0.  0.
<mgrwt>
<rscale>  0 0.12499774E+03</rscale>
<asrwt>0</asrwt>
<pdfrwt beam="2">  1        4 0.81792703E-02 0.12499774E+03</pdfrwt>
<pdfrwt beam="1">  1       -4 0.29847626E-01 0.12499774E+03</pdfrwt>
<totfact> 0.18436604E+03</totfact>
</mgrwt>
</event>
<event>
 5    1  0.1438401E-002  0.1249981E+03  0.7818608E-02  0.1235072E+00
         -4   -1    0    0    0  501 -0.00000000000E+00  0.00000000000E+00  0.10335134106E+02  0.10412871697E+02  0.12700000000E+01 0.  1.
          4   -1    0    0  501    0  0.00000000000E+00 -0.00000000000E+00 -0.37645206859E+03  0.37645421082E+03  0.12700000000E+01 0.  1.
         25    2    1    2    0    0  0.00000000000E+00  0.00000000000E+00 -0.36611693448E+03  0.38686708252E+03  0.12499811927E+03 0.  0.
    9000005    1    3    3    0    0 -0.31808933774E+02 -0.53774174913E+02 -0.17906809899E+03  0.18965720190E+03  0.10000000000E+01 0.  0.
    9000005    1    3    3    0    0  0.31808933774E+02  0.53774174913E+02 -0.18704883549E+03  0.19720988062E+03  0.10000000000E+01 0.  0.
<mgrwt>
<rscale>  0 0.12499812E+03</rscale>
<asrwt>0</asrwt>
<pdfrwt beam="2">  1        4 0.94122956E-01 0.12499812E+03</pdfrwt>
<pdfrwt beam="1">  1       -4 0.25937698E-02 0.12499812E+03</pdfrwt>
<totfact> 0.10845280E+03</totfact>
</mgrwt>
</event>
<event>
 5    1  0.1438401E-002  0.1250006E+03  0.7818608E-02  0.1235068E+00
          4   -1    0    0  501    0  0.00000000000E+00  0.00000000000E+00  0.56041495452E+02  0.56055883835E+02  0.12700000000E+01 0. -1.
         -4   -1    0    0    0  501 -0.00000000000E+00 -0.00000000000E+00 -0.69674344855E+02  0.69685918456E+02  0.12700000000E+01 0. -1.
         25    2    1    2    0    0  0.00000000000E+00  0.00000000000E+00 -0.13632849403E+02  0.12574180229E+03  0.12500058504E+03 0.  0.
    9000005    1    3    3    0    0  0.49197193085E+02 -0.26970901850E+02 -0.34502220268E+02  0.65872578190E+02  0.10000000000E+01 0.  0.
    9000005    1    3    3    0    0 -0.49197193085E+02  0.26970901850E+02  0.20869370864E+02  0.59869224100E+02  0.10000000000E+01 0.  0.
<mgrwt>
<rscale>  0 0.12500059E+03</rscale>
<asrwt>0</asrwt>
<pdfrwt beam="1">  1        4 0.14013619E-01 0.12500059E+03</pdfrwt>
<pdfrwt beam="2">  1       -4 0.17421831E-01 0.12500059E+03</pdfrwt>
<totfact> 0.19794608E+03</totfact>
</mgrwt>
</event>
<event>
 5    1  0.1438401E-002  0.1250036E+03  0.7818608E-02  0.1235064E+00
         -4   -1    0    0    0  501 -0.00000000000E+00  0.00000000000E+00  0.10426802148E+03  0.10427575559E+03  0.12700000000E+01 0. -1.
          4   -1    0    0  501    0  0.00000000000E+00 -0.00000000000E+00 -0.37445814198E+02  0.37467344461E+02  0.12700000000E+01 0. -1.
         25    2    1    2    0    0  0.00000000000E+00  0.00000000000E+00  0.66822207283E+02  0.14174310005E+03  0.12500359605E+03 0.  0.
    9000005    1    3    3    0    0  0.52663758451E+02 -0.33149809036E+02  0.39934150962E+02  0.73946722080E+02  0.10000000000E+01 0.  0.
    9000005    1    3    3    0    0 -0.52663758451E+02  0.33149809036E+02  0.26888056321E+02  0.67796377971E+02  0.10000000000E+01 0.  0.
<mgrwt>
<rscale>  0 0.12500360E+03</rscale>
<asrwt>0</asrwt>
<pdfrwt beam="2">  1        4 0.93651117E-02 0.12500360E+03</pdfrwt>
<pdfrwt beam="1">  1       -4 0.26070663E-01 0.12500360E+03</pdfrwt>
<totfact> 0.18949932E+03</totfact>
</mgrwt>
</event>
<event>
 5    1  0.1438401E-002  0.1250012E+03  0.7818608E-02  0.1235067E+00
          4   -1    0    0  501    0  0.00000000000E+00  0.00000000000E+00  0.29346332329E+02  0.29373799910E+02  0.12700000000E+01 0.  1.
         -4   -1    0    0    0  501 -0.00000000000E+00 -0.00000000000E+00 -0.13301836101E+03  0.13302442357E+03  0.12700000000E+01 0.  1.
         25    2    1    2    0    0  0.00000000000E+00  0.00000000000E+00 -0.10367202868E+03  0.16239822348E+03  0.12500117383E+03 0.  0.
    9000005    1    3    3    0    0 -0.37185238280E+02 -0.37904544935E+02 -0.90257923914E+01  0.53869856144E+02  0.10000000000E+01 0.  0.
    9000005    1    3    3    0    0  0.37185238280E+02  0.37904544935E+02 -0.94646236289E+02  0.10852836734E+03  0.10000000000E+01 0.  0.
<mgrwt>
<rscale>  0 0.12500117E+03</rscale>
<asrwt>0</asrwt>
<pdfrwt beam="1">  1        4 0.73407747E-02 0.12500117E+03</pdfrwt>
<pdfrwt beam="2">  1       -4 0.33258780E-01 0.12500117E+03</pdfrwt>
<totfact> 0.17944982E+03</totfact>
</mgrwt>
</event>
<event>
 5    1  0.1438401E-002  0.1249956E+03  0.7818608E-02  0.1235076E+00
         -4   -1    0    0    0  501 -0.00000000000E+00  0.00000000000E+00  0.97825233026E+02  0.97833476462E+02  0.12700000000E+01 0.  1.
          4   -1    0    0  501    0  0.00000000000E+00 -0.00000000000E+00 -0.39908044796E+02  0.39928247387E+02  0.12700000000E+01 0.  1.
         25    2    1    2    0    0  0.00000000000E+00  0.00000000000E+00  0.57917188230E+02  0.13776172385E+03  0.12499556738E+03 0.  0.
    9000005    1    3    3    0    0 -0.15509228450E+02  0.58586242541E+01 -0.37445376335E+02  0.40963591812E+02  0.10000000000E+01 0.  0.
    9000005    1    3    3    0    0  0.15509228450E+02 -0.58586242541E+01  0.95362564566E+02  0.96798132037E+02  0.10000000000E+01 0.  0.
<mgrwt>
<rscale>  0 0.12499557E+03</rscale>
<asrwt>0</asrwt>
<pdfrwt beam="2">  1        4 0.99805670E-02 0.12499557E+03</pdfrwt>
<pdfrwt beam="1">  1       -4 0.24459864E-01 0.12499557E+03</pdfrwt>
<totfact> 0.19157421E+03</totfact>
</mgrwt>
</event>
<event>
 5    1  0.1438401E-002  0.1249986E+03  0.7818608E-02  0.1235071E+00
         -4   -1    0    0    0  501 -0.00000000000E+00  0.00000000000E+00  0.49808762587E+01  0.51402362110E+01  0.12700000000E+01 0. -1.
          4   -1    0    0  501    0  0.00000000000E+00 -0.00000000000E+00 -0.77172454819E+03  0.77172559319E+03  0.12700000000E+01 0. -1.
         25    2    1    2    0    0  0.00000000000E+00  0.00000000000E+00 -0.76674367194E+03  0.77686582940E+03  0.12499863375E+03 0.  0.
    9000005    1    3    3    0    0  0.34771756402E+02  0.38028309750E+02 -0.16364411353E+03  0.17156813014E+03  0.10000000000E+01 0.  0.
    9000005    1    3    3    0    0 -0.34771756402E+02 -0.38028309750E+02 -0.60309955841E+03  0.60529769927E+03  0.10000000000E+01 0.  0.
<mgrwt>
<rscale>  0 0.12499863E+03</rscale>
<asrwt>0</asrwt>
<pdfrwt beam="2">  1        4 0.19295079E+00 0.12499863E+03</pdfrwt>
<pdfrwt beam="1">  1       -4 0.12652723E-02 0.12499863E+03</pdfrwt>
<totfact> 0.54562407E+02</totfact>
</mgrwt>
</event>
<event>
 5    1  0.1438401E-002  0.1249756E+03  0.7818608E-02  0.1235107E+00
          4   -1    0    0  501    0  0.00000000000E+00  0.00000000000E+00  0.20493072185E+02  0.20532386797E+02  0.12700000000E+01 0. -1.
         -4   -1    0    0    0  501 -0.00000000000E+00 -0.00000000000E+00 -0.19031472097E+03  0.19031895838E+03  0.12700000000E+01 0. -1.
         25    2    1    2    0    0  0.00000000000E+00  0.00000000000E+00 -0.16982164879E+03  0.21085134518E+03  0.12497558708E+03 0.  0.
    9000005    1    3    3    0    0 -0.56956505054E+02 -0.18321388729E+01 -0.12813337384E+03  0.14023751885E+03  0.10000000000E+01 0.  0.
    9000005    1    3    3    0    0  0.56956505054E+02  0.18321388729E+01 -0.41688274949E+02  0.70613826330E+02  0.10000000000E+01 0.  0.
<mgrwt>
<rscale>  0 0.12497559E+03</rscale>
<asrwt>0</asrwt>
<pdfrwt beam="1">  1        4 0.51287126E-02 0.12497559E+03</pdfrwt>
<pdfrwt beam="2">  1       -4 0.47584119E-01 0.12497559E+03</pdfrwt>
<totfact> 0.15905532E+03</totfact>
</mgrwt>
</event>
<event>
 5    1  0.1438401E-002  0.1249996E+03  0.7818608E-02  0.1235070E+00
          4   -1    0    0  501    0  0.00000000000E+00  0.00000000000E+00  0.26953835726E+02  0.26983738813E+02  0.12700000000E+01 0.  1.
         -4   -1    0    0    0  501 -0.00000000000E+00 -0.00000000000E+00 -0.14480976253E+03  0.14481533146E+03  0.12700000000E+01 0.  1.
         25    2    1    2    0    0  0.00000000000E+00  0.00000000000E+00 -0.11785592681E+03  0.17179907027E+03  0.12499960425E+03 0.  0.
    9000005    1    3    3    0    0  0.18557597486E+02 -0.39807816212E+02 -0.12002572060E+03  0.12781322412E+03  0.10000000000E+01 0.  0.
    9000005    1    3    3    0    0 -0.18557597486E+02  0.39807816212E+02  0.21697937901E+01  0.43985846146E+02  0.10000000000E+01 0.  0.
<mgrwt>
<rscale>  0 0.12499960E+03</rscale>
<asrwt>0</asrwt>
<pdfrwt beam="1">  1        4 0.67428933E-02 0.12499960E+03</pdfrwt>
<pdfrwt beam="2">  1       -4 0.36206873E-01 0.12499960E+03</pdfrwt>
<totfact> 0.17516367E+03</totfact>
</mgrwt>
</event>
<event>
 4    1  0.1438401E-002  0.1249378E+03  0.7818608E-02  0.1235167E+00
         -4   -1    0    0    0  501 -0.00000000000E+00  0.00000000000E+00  0.53192209944E+02  0.53207368838E+02  0.12700000000E+01 0. -1.
          4   -1    0    0  501    0  0.00000000000E+00 -0.00000000000E+00 -0.73332276732E+02  0.73343273111E+02  0.12700000000E+01 0. -1.
    9000005    1    1    2    0    0 -0.21756524594E+02  0.49998357083E+02  0.20789292082E+02  0.58364173417E+02  0.10000000000E+01 0.  0.
    9000005    1    1    2    0    0  0.21756524594E+02 -0.49998357083E+02 -0.40929358870E+02  0.68186468532E+02  0.10000000000E+01 0.  0.
<mgrwt>
<rscale>  0 0.12493776E+03</rscale>
<asrwt>0</asrwt>
<pdfrwt beam="2">  1        4 0.18336339E-01 0.12493776E+03</pdfrwt>
<pdfrwt beam="1">  1       -4 0.13301322E-01 0.12493776E+03</pdfrwt>
<totfact> 0.19779974E+03</totfact>
</mgrwt>
</event>
<event>
 5    1  0.1438401E-002  0.1249967E+03  0.7818608E-02  0.1235074E+00
          4   -1    0    0  501    0  0.00000000000E+00  0.00000000000E+00  0.72801144418E+03  0.72801255192E+03  0.12700000000E+01 0.  1.
         -4   -1    0    0    0  501 -0.00000000000E+00 -0.00000000000E+00 -0.52890817246E+01  0.54394195912E+01  0.12700000000E+01 0.  1.
         25    2    1    2    0    0  0.00000000000E+00  0.00000000000E+00  0.72272236245E+03  0.73345197151E+03  0.12499672525E+03 0.  0.
    9000005    1    3    3    0    0 -0.57212814510E+02  0.22702681393E+02  0.29807423519E+03  0.30436485929E+03  0.10000000000E+01 0.  0.
    9000005    1    3    3    0    0  0.57212814510E+02 -0.22702681393E+02  0.42464812727E+03  0.42908711222E+03  0.10000000000E+01 0.  0.
<mgrwt>
<rscale>  0 0.12499673E+03</rscale>
<asrwt>0</asrwt>
<pdfrwt beam="1">  1        4 0.18202181E+00 0.12499673E+03</pdfrwt>
<pdfrwt beam="2">  1       -4 0.13412010E-02 0.12499673E+03</pdfrwt>
<totfact> 0.58678450E+02</totfact>
</mgrwt>
</event>
<event>
 5    1  0.1438401E-002  0.1250046E+03  0.7818608E-02  0.1235062E+00
          4   -1    0    0  501    0  0.00000000000E+00  0.00000000000E+00  0.51642817038E+01  0.53181486926E+01  0.12700000000E+01 0.  1.
         -4   -1    0    0    0  501 -0.00000000000E+00 -0.00000000000E+00 -0.74519533606E+03  0.74519641826E+03  0.12700000000E+01 0.  1.
         25    2    1    2    0    0  0.00000000000E+00  0.00000000000E+00 -0.74003105435E+03  0.75051456695E+03  0.12500461509E+03 0.  0.
    9000005    1    3    3    0    0  0.27134368339E+02  0.97596644373E+01 -0.70289419194E+03  0.70348615485E+03  0.10000000000E+01 0.  0.
    9000005    1    3    3    0    0 -0.27134368339E+02 -0.97596644373E+01 -0.37136862412E+02  0.47028412102E+02  0.10000000000E+01 0.  0.
<mgrwt>
<rscale>  0 0.12500462E+03</rscale>
<asrwt>0</asrwt>
<pdfrwt beam="1">  1        4 0.13104416E-02 0.12500462E+03</pdfrwt>
<pdfrwt beam="2">  1       -4 0.18631784E+00 0.12500462E+03</pdfrwt>
<totfact> 0.57015342E+02</totfact>
</mgrwt>
</event>
<event>
 5    1  0.1438401E-002  0.1250030E+03  0.7818608E-02  0.1235065E+00
          4   -1    0    0  501    0  0.00000000000E+00  0.00000000000E+00  0.47242824179E+03  0.47242994882E+03  0.12700000000E+01 0. -1.
         -4   -1    0    0    0  501 -0.00000000000E+00 -0.00000000000E+00 -0.82183462459E+01  0.83158953227E+01  0.12700000000E+01 0. -1.
         25    2    1    2    0    0  0.00000000000E+00  0.00000000000E+00  0.46420989555E+03  0.48074584415E+03  0.12500295812E+03 0.  0.
    9000005    1    3    3    0    0 -0.32881907566E+02 -0.22137287887E+02  0.46298772792E+02  0.60957819205E+02  0.10000000000E+01 0.  0.
    9000005    1    3    3    0    0  0.32881907566E+02  0.22137287887E+02  0.41791112276E+03  0.41978802494E+03  0.10000000000E+01 0.  0.
<mgrwt>
<rscale>  0 0.12500296E+03</rscale>
<asrwt>0</asrwt>
<pdfrwt beam="1">  1        4 0.11811947E+00 0.12500296E+03</pdfrwt>
<pdfrwt beam="2">  1       -4 0.20669935E-02 0.12500296E+03</pdfrwt>
<totfact> 0.90739947E+02</totfact>
</mgrwt>
</event>
<event>
 5    1  0.1438401E-002  0.1249949E+03  0.7818608E-02  0.1235077E+00
         -4   -1    0    0    0  501 -0.00000000000E+00  0.00000000000E+00  0.58216981025E+02  0.58230831865E+02  0.12700000000E+01 0.  1.
          4   -1    0    0  501    0  0.00000000000E+00 -0.00000000000E+00 -0.67064827071E+02  0.67076850925E+02  0.12700000000E+01 0.  1.
         25    2    1    2    0    0  0.00000000000E+00  0.00000000000E+00 -0.88478460455E+01  0.12530768279E+03  0.12499492384E+03 0.  0.
    9000005    1    3    3    0    0  0.22329867096E+02  0.11248788164E+02 -0.61836536698E+02  0.66707686742E+02  0.10000000000E+01 0.  0.
    9000005    1    3    3    0    0 -0.22329867096E+02 -0.11248788164E+02  0.52988690653E+02  0.58599996048E+02  0.10000000000E+01 0.  0.
<mgrwt>
<rscale>  0 0.12499492E+03</rscale>
<asrwt>0</asrwt>
<pdfrwt beam="2">  1        4 0.16769441E-01 0.12499492E+03</pdfrwt>
<pdfrwt beam="1">  1       -4 0.14557480E-01 0.12499492E+03</pdfrwt>
<totfact> 0.19820732E+03</totfact>
</mgrwt>
</event>
<event>
 5    1  0.1438401E-002  0.1249938E+03  0.7818608E-02  0.1235079E+00
         -4   -1    0    0    0  501 -0.00000000000E+00  0.00000000000E+00  0.50719316854E+02  0.50735214616E+02  0.12700000000E+01 0. -1.
          4   -1    0    0  501    0  0.00000000000E+00 -0.00000000000E+00 -0.76976158252E+02  0.76986634159E+02  0.12700000000E+01 0. -1.
         25    2    1    2    0    0  0.00000000000E+00  0.00000000000E+00 -0.26256841398E+02  0.12772184878E+03  0.12499379558E+03 0.  0.
    9000005    1    3    3    0    0  0.24223826680E+02 -0.52851346098E+02  0.10280164823E+02  0.59048627014E+02  0.10000000000E+01 0.  0.
    9000005    1    3    3    0    0 -0.24223826680E+02  0.52851346098E+02 -0.36537006221E+02  0.68673221761E+02  0.10000000000E+01 0.  0.
<mgrwt>
<rscale>  0 0.12499380E+03</rscale>
<asrwt>0</asrwt>
<pdfrwt beam="2">  1        4 0.19247336E-01 0.12499380E+03</pdfrwt>
<pdfrwt beam="1">  1       -4 0.12683126E-01 0.12499380E+03</pdfrwt>
<totfact> 0.19690533E+03</totfact>
</mgrwt>
</event>
<event>
 5    1  0.1438401E-002  0.1249982E+03  0.7818608E-02  0.1235072E+00
          4   -1    0    0  501    0  0.00000000000E+00  0.00000000000E+00  0.44653422774E+02  0.44671479329E+02  0.12700000000E+01 0.  1.
         -4   -1    0    0    0  501 -0.00000000000E+00 -0.00000000000E+00 -0.87436461509E+02  0.87445684291E+02  0.12700000000E+01 0.  1.
         25    2    1    2    0    0  0.00000000000E+00  0.00000000000E+00 -0.42783038734E+02  0.13211716362E+03  0.12499822607E+03 0.  0.
    9000005    1    3    3    0    0 -0.61266128595E+02 -0.10841152563E+02 -0.27560901013E+02  0.68056391078E+02  0.10000000000E+01 0.  0.
    9000005    1    3    3    0    0  0.61266128595E+02  0.10841152563E+02 -0.15222137721E+02  0.64060772542E+02  0.10000000000E+01 0.  0.
<mgrwt>
<rscale>  0 0.12499823E+03</rscale>
<asrwt>0</asrwt>
<pdfrwt beam="1">  1        4 0.11166766E-01 0.12499823E+03</pdfrwt>
<pdfrwt beam="2">  1       -4 0.21862525E-01 0.12499823E+03</pdfrwt>
<totfact> 0.19452031E+03</totfact>
</mgrwt>
</event>
<event>
 5    1  0.1438401E-002  0.1249989E+03  0.7818608E-02  0.1235071E+00
          4   -1    0    0  501    0  0.00000000000E+00  0.00000000000E+00  0.16702574191E+03  0.16703057014E+03  0.12700000000E+01 0.  1.
         -4   -1    0    0    0  501 -0.00000000000E+00 -0.00000000000E+00 -0.23364275723E+02  0.23398766635E+02  0.12700000000E+01 0.  1.
         25    2    1    2    0    0  0.00000000000E+00  0.00000000000E+00  0.14366146619E+03  0.19042933677E+03  0.12499886174E+03 0.  0.
    9000005    1    3    3    0    0 -0.32517545720E+02  0.22093720761E+02  0.14583420671E+03  0.15104350077E+03  0.10000000000E+01 0.  0.
    9000005    1    3    3    0    0  0.32517545720E+02 -0.22093720761E+02 -0.21727405226E+01  0.39385836008E+02  0.10000000000E+01 0.  0.
<mgrwt>
<rscale>  0 0.12499886E+03</rscale>
<asrwt>0</asrwt>
<pdfrwt beam="1">  1        4 0.41761351E-01 0.12499886E+03</pdfrwt>
<pdfrwt beam="2">  1       -4 0.58459838E-02 0.12499886E+03</pdfrwt>
<totfact> 0.16713017E+03</totfact>
</mgrwt>
</event>
<event>
 5    1  0.1438401E-002  0.1249965E+03  0.7818608E-02  0.1235075E+00
         -4   -1    0    0    0  501 -0.00000000000E+00  0.00000000000E+00  0.27939163166E+03  0.27939451809E+03  0.12700000000E+01 0.  1.
          4   -1    0    0  501    0  0.00000000000E+00 -0.00000000000E+00 -0.13948675362E+02  0.14006371563E+02  0.12700000000E+01 0.  1.
         25    2    1    2    0    0  0.00000000000E+00  0.00000000000E+00  0.26544295629E+03  0.29340088965E+03  0.12499647597E+03 0.  0.
    9000005    1    3    3    0    0 -0.34428672267E+01  0.23233937961E+02  0.26864786797E+03  0.26967451895E+03  0.10000000000E+01 0.  0.
    9000005    1    3    3    0    0  0.34428672267E+01 -0.23233937961E+02 -0.32049116733E+01  0.23726370704E+02  0.10000000000E+01 0.  0.
<mgrwt>
<rscale>  0 0.12499648E+03</rscale>
<asrwt>0</asrwt>
<pdfrwt beam="2">  1        4 0.34947417E-02 0.12499648E+03</pdfrwt>
<pdfrwt beam="1">  1       -4 0.69855481E-01 0.12499648E+03</pdfrwt>
<totfact> 0.13159107E+03</totfact>
</mgrwt>
</event>
<event>
 5    1  0.1438401E-002  0.1249967E+03  0.7818608E-02  0.1235075E+00
          4   -1    0    0  501    0  0.00000000000E+00  0.00000000000E+00  0.19854716360E+03  0.19855122532E+03  0.12700000000E+01 0.  1.
         -4   -1    0    0    0  501 -0.00000000000E+00 -0.00000000000E+00 -0.19648349914E+02  0.19689351294E+02  0.12700000000E+01 0.  1.
         25    2    1    2    0    0  0.00000000000E+00  0.00000000000E+00  0.17889881369E+03  0.21824057661E+03  0.12499665492E+03 0.  0.
    9000005    1    3    3    0    0  0.46441483619E+02 -0.29773045047E+02  0.14070475360E+03  0.15113594310E+03  0.10000000000E+01 0.  0.
    9000005    1    3    3    0    0 -0.46441483619E+02  0.29773045047E+02  0.38194060090E+02  0.67104633508E+02  0.10000000000E+01 0.  0.
<mgrwt>
<rscale>  0 0.12499665E+03</rscale>
<asrwt>0</asrwt>
<pdfrwt beam="1">  1        4 0.49642424E-01 0.12499665E+03</pdfrwt>
<pdfrwt beam="2">  1       -4 0.49177204E-02 0.12499665E+03</pdfrwt>
<totfact> 0.15618013E+03</totfact>
</mgrwt>
</event>
<event>
 5    1  0.1438401E-002  0.1250010E+03  0.7818608E-02  0.1235068E+00
         -4   -1    0    0    0  501 -0.00000000000E+00  0.00000000000E+00  0.96337129085E+02  0.96345499845E+02  0.12700000000E+01 0. -1.
          4   -1    0    0  501    0  0.00000000000E+00 -0.00000000000E+00 -0.40528285448E+02  0.40548179014E+02  0.12700000000E+01 0. -1.
         25    2    1    2    0    0  0.00000000000E+00  0.00000000000E+00  0.55808843637E+02  0.13689367886E+03  0.12500100913E+03 0.  0.
    9000005    1    3    3    0    0  0.37658117339E+02 -0.15005706290E+02  0.79989935137E+02  0.89681072396E+02  0.10000000000E+01 0.  0.
    9000005    1    3    3    0    0 -0.37658117339E+02  0.15005706290E+02 -0.24181091500E+02  0.47212606462E+02  0.10000000000E+01 0.  0.
<mgrwt>
<rscale>  0 0.12500101E+03</rscale>
<asrwt>0</asrwt>
<pdfrwt beam="2">  1        4 0.10135604E-01 0.12500101E+03</pdfrwt>
<pdfrwt beam="1">  1       -4 0.24087815E-01 0.12500101E+03</pdfrwt>
<totfact> 0.19199950E+03</totfact>
</mgrwt>
</event>
<event>
 5    1  0.1438401E-002  0.1250006E+03  0.7818608E-02  0.1235068E+00
          4   -1    0    0  501    0  0.00000000000E+00  0.00000000000E+00  0.66109006889E+02  0.66121204556E+02  0.12700000000E+01 0. -1.
         -4   -1    0    0    0  501 -0.00000000000E+00 -0.00000000000E+00 -0.59064152706E+02  0.59077804926E+02  0.12700000000E+01 0. -1.
         25    2    1    2    0    0  0.00000000000E+00  0.00000000000E+00  0.70448541829E+01  0.12519900948E+03  0.12500064802E+03 0.  0.
    9000005    1    3    3    0    0 -0.31388369449E+02 -0.87688001597E+01  0.56928415740E+02  0.65604619590E+02  0.10000000000E+01 0.  0.
    9000005    1    3    3    0    0  0.31388369449E+02  0.87688001597E+01 -0.49883561558E+02  0.59594389892E+02  0.10000000000E+01 0.  0.
<mgrwt>
<rscale>  0 0.12500065E+03</rscale>
<asrwt>0</asrwt>
<pdfrwt beam="1">  1        4 0.16530483E-01 0.12500065E+03</pdfrwt>
<pdfrwt beam="2">  1       -4 0.14769269E-01 0.12500065E+03</pdfrwt>
<totfact> 0.19823966E+03</totfact>
</mgrwt>
</event>
<event>
 5    1  0.1438401E-002  0.1250007E+03  0.7818608E-02  0.1235068E+00
         -4   -1    0    0    0  501 -0.00000000000E+00  0.00000000000E+00  0.26563095716E+03  0.26563399312E+03  0.12700000000E+01 0. -1.
          4   -1    0    0  501    0  0.00000000000E+00 -0.00000000000E+00 -0.14675174410E+02  0.14730025254E+02  0.12700000000E+01 0. -1.
         25    2    1    2    0    0  0.00000000000E+00  0.00000000000E+00  0.25095578275E+03  0.28036401837E+03  0.12500071161E+03 0.  0.
    9000005    1    3    3    0    0 -0.58472047046E+02 -0.14914431851E+02  0.16191198911E+03  0.17279442346E+03  0.10000000000E+01 0.  0.
    9000005    1    3    3    0    0  0.58472047046E+02  0.14914431851E+02  0.89043793638E+02  0.10756959491E+03  0.10000000000E+01 0.  0.
<mgrwt>
<rscale>  0 0.12500071E+03</rscale>
<asrwt>0</asrwt>
<pdfrwt beam="2">  1        4 0.36760293E-02 0.12500071E+03</pdfrwt>
<pdfrwt beam="1">  1       -4 0.66414978E-01 0.12500071E+03</pdfrwt>
<totfact> 0.13539581E+03</totfact>
</mgrwt>
</event>
<event>
 5    1  0.1438401E-002  0.1250035E+03  0.7818608E-02  0.1235064E+00
         -4   -1    0    0    0  501 -0.00000000000E+00  0.00000000000E+00  0.12943018488E+02  0.13005176953E+02  0.12700000000E+01 0. -1.
          4   -1    0    0  501    0  0.00000000000E+00 -0.00000000000E+00 -0.30103423865E+03  0.30103691756E+03  0.12700000000E+01 0. -1.
         25    2    1    2    0    0  0.00000000000E+00  0.00000000000E+00 -0.28809122016E+03  0.31404209452E+03  0.12500354394E+03 0.  0.
    9000005    1    3    3    0    0 -0.58022330187E+02  0.24495193207E+01 -0.20203926441E+03  0.21022239488E+03  0.10000000000E+01 0.  0.
    9000005    1    3    3    0    0  0.58022330187E+02 -0.24495193207E+01 -0.86051955745E+02  0.10381969964E+03  0.10000000000E+01 0.  0.
<mgrwt>
<rscale>  0 0.12500354E+03</rscale>
<asrwt>0</asrwt>
<pdfrwt beam="2">  1        4 0.75266641E-01 0.12500354E+03</pdfrwt>
<pdfrwt beam="1">  1       -4 0.32438603E-02 0.12500354E+03</pdfrwt>
<totfact> 0.12585411E+03</totfact>
</mgrwt>
</event>
<event>
 5    1  0.1438401E-002  0.1249979E+03  0.7818608E-02  0.1235073E+00
         -4   -1    0    0    0  501 -0.00000000000E+00  0.00000000000E+00  0.68236342872E+03  0.68236461057E+03  0.12700000000E+01 0. -1.
          4   -1    0    0  501    0  0.00000000000E+00 -0.00000000000E+00 -0.56527585002E+01  0.57936671169E+01  0.12700000000E+01 0. -1.
         25    2    1    2    0    0  0.00000000000E+00  0.00000000000E+00  0.67671067022E+03  0.68815827768E+03  0.12499793581E+03 0.  0.
    9000005    1    3    3    0    0  0.69216050777E+01 -0.76847021273E+01  0.67764606568E+03  0.67772572151E+03  0.10000000000E+01 0.  0.
    9000005    1    3    3    0    0 -0.69216050777E+01  0.76847021273E+01 -0.93539546177E+00  0.10432556173E+02  0.10000000000E+01 0.  0.
<mgrwt>
<rscale>  0 0.12499794E+03</rscale>
<asrwt>0</asrwt>
<pdfrwt beam="2">  1        4 0.14309508E-02 0.12499794E+03</pdfrwt>
<pdfrwt beam="1">  1       -4 0.17060863E+00 0.12499794E+03</pdfrwt>
<totfact> 0.63311077E+02</totfact>
</mgrwt>
</event>
<event>
 5    1  0.1438401E-002  0.1250045E+03  0.7818608E-02  0.1235062E+00
          4   -1    0    0  501    0  0.00000000000E+00  0.00000000000E+00  0.93467333380E+01  0.94326202135E+01  0.12700000000E+01 0. -1.
         -4   -1    0    0    0  501 -0.00000000000E+00 -0.00000000000E+00 -0.41595844523E+03  0.41596038400E+03  0.12700000000E+01 0. -1.
         25    2    1    2    0    0  0.00000000000E+00  0.00000000000E+00 -0.40661171189E+03  0.42539300421E+03  0.12500449507E+03 0.  0.
    9000005    1    3    3    0    0  0.45849471308E+02 -0.34060593246E+02 -0.11699829509E+03  0.13019945885E+03  0.10000000000E+01 0.  0.
    9000005    1    3    3    0    0 -0.45849471308E+02  0.34060593246E+02 -0.28961341680E+03  0.29519354536E+03  0.10000000000E+01 0.  0.
<mgrwt>
<rscale>  0 0.12500450E+03</rscale>
<asrwt>0</asrwt>
<pdfrwt beam="1">  1        4 0.23476629E-02 0.12500450E+03</pdfrwt>
<pdfrwt beam="2">  1       -4 0.10400053E+00 0.12500450E+03</pdfrwt>
<totfact> 0.10059757E+03</totfact>
</mgrwt>
</event>
<event>
 5    1  0.1438401E-002  0.1250009E+03  0.7818608E-02  0.1235068E+00
         -4   -1    0    0    0  501 -0.00000000000E+00  0.00000000000E+00  0.29152197711E+02  0.29179848036E+02  0.12700000000E+01 0.  1.
          4   -1    0    0  501    0  0.00000000000E+00 -0.00000000000E+00 -0.13390277496E+03  0.13390879748E+03  0.12700000000E+01 0.  1.
         25    2    1    2    0    0  0.00000000000E+00  0.00000000000E+00 -0.10475057725E+03  0.16308864551E+03  0.12500089144E+03 0.  0.
    9000005    1    3    3    0    0 -0.57928239470E+02  0.19534079583E+02 -0.35462205023E+02  0.70681179803E+02  0.10000000000E+01 0.  0.
    9000005    1    3    3    0    0  0.57928239470E+02 -0.19534079583E+02 -0.69288372224E+02  0.92407465709E+02  0.10000000000E+01 0.  0.
<mgrwt>
<rscale>  0 0.12500089E+03</rscale>
<asrwt>0</asrwt>
<pdfrwt beam="2">  1        4 0.33479901E-01 0.12500089E+03</pdfrwt>
<pdfrwt beam="1">  1       -4 0.72922589E-02 0.12500089E+03</pdfrwt>
<totfact> 0.17912989E+03</totfact>
</mgrwt>
</event>
<event>
 5    1  0.1438401E-002  0.1249999E+03  0.7818608E-02  0.1235070E+00
         -4   -1    0    0    0  501 -0.00000000000E+00  0.00000000000E+00  0.19899495417E+02  0.19939980387E+02  0.12700000000E+01 0. -1.
          4   -1    0    0  501    0  0.00000000000E+00 -0.00000000000E+00 -0.19605646577E+03  0.19606057908E+03  0.12700000000E+01 0. -1.
         25    2    1    2    0    0  0.00000000000E+00  0.00000000000E+00 -0.17615697035E+03  0.21600055947E+03  0.12499985395E+03 0.  0.
    9000005    1    3    3    0    0 -0.47176630663E+01 -0.23930350659E+02  0.11343068580E+02  0.26918083741E+02  0.10000000000E+01 0.  0.
    9000005    1    3    3    0    0  0.47176630663E+01  0.23930350659E+02 -0.18750003893E+03  0.18908247573E+03  0.10000000000E+01 0.  0.
<mgrwt>
<rscale>  0 0.12499985E+03</rscale>
<asrwt>0</asrwt>
<pdfrwt beam="2">  1        4 0.49019685E-01 0.12499985E+03</pdfrwt>
<pdfrwt beam="1">  1       -4 0.49804492E-02 0.12499985E+03</pdfrwt>
<totfact> 0.15700842E+03</totfact>
</mgrwt>
</event>
<event>
 5    1  0.1438401E-002  0.1250124E+03  0.7818608E-02  0.1235050E+00
         -4   -1    0    0    0  501 -0.00000000000E+00  0.00000000000E+00  0.43800687053E+02  0.43819094996E+02  0.12700000000E+01 0. -1.
          4   -1    0    0  501    0  0.00000000000E+00 -0.00000000000E+00 -0.89158466428E+02  0.89167511100E+02  0.12700000000E+01 0. -1.
         25    2    1    2    0    0  0.00000000000E+00  0.00000000000E+00 -0.45357779375E+02  0.13298660610E+03  0.12501243639E+03 0.  0.
    9000005    1    3    3    0    0  0.50705007255E+02 -0.35847197121E+02 -0.15156177044E+02  0.63927529318E+02  0.10000000000E+01 0.  0.
    9000005    1    3    3    0    0 -0.50705007255E+02  0.35847197121E+02 -0.30201602331E+02  0.69059076778E+02  0.10000000000E+01 0.  0.
<mgrwt>
<rscale>  0 0.12501244E+03</rscale>
<asrwt>0</asrwt>
<pdfrwt beam="2">  1        4 0.22293048E-01 0.12501244E+03</pdfrwt>
<pdfrwt beam="1">  1       -4 0.10953603E-01 0.12501244E+03</pdfrwt>
<totfact> 0.19399492E+03</totfact>
</mgrwt>
</event>
<event>
 5    1  0.1438401E-002  0.1249996E+03  0.7818608E-02  0.1235070E+00
         -4   -1    0    0    0  501 -0.00000000000E+00  0.00000000000E+00  0.30474773084E+02  0.30501224476E+02  0.12700000000E+01 0. -1.
          4   -1    0    0  501    0  0.00000000000E+00 -0.00000000000E+00 -0.12809375729E+03  0.12810005291E+03  0.12700000000E+01 0. -1.
         25    2    1    2    0    0  0.00000000000E+00  0.00000000000E+00 -0.97618984204E+02  0.15860127739E+03  0.12499959645E+03 0.  0.
    9000005    1    3    3    0    0 -0.81192887993E+01 -0.59630478116E+02 -0.27445582359E+02  0.66151165991E+02  0.10000000000E+01 0.  0.
    9000005    1    3    3    0    0  0.81192887993E+01  0.59630478116E+02 -0.70173401845E+02  0.92450111397E+02  0.10000000000E+01 0.  0.
<mgrwt>
<rscale>  0 0.12499960E+03</rscale>
<asrwt>0</asrwt>
<pdfrwt beam="2">  1        4 0.32027531E-01 0.12499960E+03</pdfrwt>
<pdfrwt beam="1">  1       -4 0.76227870E-02 0.12499960E+03</pdfrwt>
<totfact> 0.18123950E+03</totfact>
</mgrwt>
</event>
<event>
 5    1  0.1438401E-002  0.1249992E+03  0.7818608E-02  0.1235071E+00
          4   -1    0    0  501    0  0.00000000000E+00  0.00000000000E+00  0.84851245008E+02  0.84860748756E+02  0.12700000000E+01 0.  1.
         -4   -1    0    0    0  501 -0.00000000000E+00 -0.00000000000E+00 -0.46014998861E+02  0.46032521332E+02  0.12700000000E+01 0.  1.
         25    2    1    2    0    0  0.00000000000E+00  0.00000000000E+00  0.38836246147E+02  0.13089327009E+03  0.12499917656E+03 0.  0.
    9000005    1    3    3    0    0  0.45920245555E+01 -0.61964964664E+02  0.26399972378E+02  0.67518161089E+02  0.10000000000E+01 0.  0.
    9000005    1    3    3    0    0 -0.45920245555E+01  0.61964964664E+02  0.12436273770E+02  0.63375108999E+02  0.10000000000E+01 0.  0.
<mgrwt>
<rscale>  0 0.12499918E+03</rscale>
<asrwt>0</asrwt>
<pdfrwt beam="1">  1        4 0.21216189E-01 0.12499918E+03</pdfrwt>
<pdfrwt beam="2">  1       -4 0.11507128E-01 0.12499918E+03</pdfrwt>
<totfact> 0.19516856E+03</totfact>
</mgrwt>
</event>
<event>
 5    1  0.1438401E-002  0.1249987E+03  0.7818608E-02  0.1235071E+00
          4   -1    0    0  501    0  0.00000000000E+00  0.00000000000E+00  0.25461591139E+03  0.25461907869E+03  0.12700000000E+01 0. -1.
         -4   -1    0    0    0  501 -0.00000000000E+00 -0.00000000000E+00 -0.15311854682E+02  0.15364432752E+02  0.12700000000E+01 0. -1.
         25    2    1    2    0    0  0.00000000000E+00  0.00000000000E+00  0.23930405671E+03  0.26998351144E+03  0.12499865957E+03 0.  0.
    9000005    1    3    3    0    0 -0.19071089527E+02  0.30585435508E+02  0.93919407191E+01  0.37261023488E+02  0.10000000000E+01 0.  0.
    9000005    1    3    3    0    0  0.19071089527E+02 -0.30585435508E+02  0.22991211599E+03  0.23272248795E+03  0.10000000000E+01 0.  0.
<mgrwt>
<rscale>  0 0.12499866E+03</rscale>
<asrwt>0</asrwt>
<pdfrwt beam="1">  1        4 0.63660945E-01 0.12499866E+03</pdfrwt>
<pdfrwt beam="2">  1       -4 0.38349319E-02 0.12499866E+03</pdfrwt>
<totfact> 0.13856512E+03</totfact>
</mgrwt>
</event>
<event>
 5    1  0.1438401E-002  0.1249968E+03  0.7818608E-02  0.1235074E+00
          4   -1    0    0  501    0  0.00000000000E+00  0.00000000000E+00  0.13272129211E+02  0.13332753422E+02  0.12700000000E+01 0. -1.
         -4   -1    0    0    0  501 -0.00000000000E+00 -0.00000000000E+00 -0.29357206720E+03  0.29357481421E+03  0.12700000000E+01 0. -1.
         25    2    1    2    0    0  0.00000000000E+00  0.00000000000E+00 -0.28029993798E+03  0.30690756763E+03  0.12499679930E+03 0.  0.
    9000005    1    3    3    0    0  0.42406971781E+02 -0.43960511994E+02 -0.10774601670E+03  0.12385912152E+03  0.10000000000E+01 0.  0.
    9000005    1    3    3    0    0 -0.42406971781E+02  0.43960511994E+02 -0.17255392129E+03  0.18304844611E+03  0.10000000000E+01 0.  0.
<mgrwt>
<rscale>  0 0.12499680E+03</rscale>
<asrwt>0</asrwt>
<pdfrwt beam="1">  1        4 0.33259547E-02 0.12499680E+03</pdfrwt>
<pdfrwt beam="2">  1       -4 0.73400917E-01 0.12499680E+03</pdfrwt>
<totfact> 0.12780582E+03</totfact>
</mgrwt>
</event>
<event>
 5    1  0.1438401E-002  0.1249996E+03  0.7818608E-02  0.1235070E+00
          4   -1    0    0  501    0  0.00000000000E+00  0.00000000000E+00  0.45452238929E+01  0.47193177723E+01  0.12700000000E+01 0. -1.
         -4   -1    0    0    0  501 -0.00000000000E+00 -0.00000000000E+00 -0.84308953421E+03  0.84309049075E+03  0.12700000000E+01 0. -1.
         25    2    1    2    0    0  0.00000000000E+00  0.00000000000E+00 -0.83854431032E+03  0.84780980852E+03  0.12499964425E+03 0.  0.
    9000005    1    3    3    0    0 -0.19602843479E+02  0.53444447705E+02 -0.59413006511E+03  0.59685183650E+03  0.10000000000E+01 0.  0.
    9000005    1    3    3    0    0  0.19602843479E+02 -0.53444447705E+02 -0.24441424520E+03  0.25095797202E+03  0.10000000000E+01 0.  0.
<mgrwt>
<rscale>  0 0.12499964E+03</rscale>
<asrwt>0</asrwt>
<pdfrwt beam="1">  1        4 0.11581902E-02 0.12499964E+03</pdfrwt>
<pdfrwt beam="2">  1       -4 0.21079374E+00 0.12499964E+03</pdfrwt>
<totfact> 0.48411343E+02</totfact>
</mgrwt>
</event>
<event>
 5    1  0.1438401E-002  0.1249987E+03  0.7818608E-02  0.1235071E+00
          4   -1    0    0  501    0  0.00000000000E+00  0.00000000000E+00  0.23099260207E+01  0.26360307701E+01  0.12700000000E+01 0.  1.
         -4   -1    0    0    0  501 -0.00000000000E+00 -0.00000000000E+00 -0.15792130985E+04  0.15792136091E+04  0.12700000000E+01 0.  1.
         25    2    1    2    0    0  0.00000000000E+00  0.00000000000E+00 -0.15769031725E+04  0.15818496399E+04  0.12499867195E+03 0.  0.
    9000005    1    3    3    0    0  0.56039357208E+02 -0.83864846376E+01 -0.45496969089E+03  0.45848572749E+03  0.10000000000E+01 0.  0.
    9000005    1    3    3    0    0 -0.56039357208E+02  0.83864846376E+01 -0.11219334816E+04  0.11233639124E+04  0.10000000000E+01 0.  0.
<mgrwt>
<rscale>  0 0.12499867E+03</rscale>
<asrwt>0</asrwt>
<pdfrwt beam="1">  1        4 0.61831385E-03 0.12499867E+03</pdfrwt>
<pdfrwt beam="2">  1       -4 0.39484064E+00 0.12499867E+03</pdfrwt>
<totfact> 0.10001753E+02</totfact>
</mgrwt>
</event>
<event>
 5    1  0.1438401E-002  0.1249980E+03  0.7818608E-02  0.1235072E+00
          4   -1    0    0  501    0  0.00000000000E+00  0.00000000000E+00  0.77439010166E+02  0.77449423468E+02  0.12700000000E+01 0. -1.
         -4   -1    0    0    0  501 -0.00000000000E+00 -0.00000000000E+00 -0.50419518895E+02  0.50435511156E+02  0.12700000000E+01 0. -1.
         25    2    1    2    0    0  0.00000000000E+00  0.00000000000E+00  0.27019491271E+02  0.12788493462E+03  0.12499801437E+03 0.  0.
    9000005    1    3    3    0    0 -0.37036853422E+01  0.21334008526E+02 -0.46463814405E+02  0.51271271234E+02  0.10000000000E+01 0.  0.
    9000005    1    3    3    0    0  0.37036853422E+01 -0.21334008526E+02  0.73483305676E+02  0.76613663390E+02  0.10000000000E+01 0.  0.
<mgrwt>
<rscale>  0 0.12499801E+03</rscale>
<asrwt>0</asrwt>
<pdfrwt beam="1">  1        4 0.19363053E-01 0.12499801E+03</pdfrwt>
<pdfrwt beam="2">  1       -4 0.12608181E-01 0.12499801E+03</pdfrwt>
<totfact> 0.19679709E+03</totfact>
</mgrwt>
</event>
<event>
 5    1  0.1438401E-002  0.1249979E+03  0.7818608E-02  0.1235073E+00
          4   -1    0    0  501    0  0.00000000000E+00  0.00000000000E+00  0.45488609389E+02  0.45506334550E+02  0.12700000000E+01 0. -1.
         -4   -1    0    0    0  501 -0.00000000000E+00 -0.00000000000E+00 -0.85831059258E+02  0.85840454527E+02  0.12700000000E+01 0. -1.
         25    2    1    2    0    0  0.00000000000E+00  0.00000000000E+00 -0.40342449869E+02  0.13134678908E+03  0.12499786294E+03 0.  0.
    9000005    1    3    3    0    0 -0.32201573103E+02  0.23375553264E+02  0.30460812881E+02  0.50122040282E+02  0.10000000000E+01 0.  0.
    9000005    1    3    3    0    0  0.32201573103E+02 -0.23375553264E+02 -0.70803262750E+02  0.81224748795E+02  0.10000000000E+01 0.  0.
<mgrwt>
<rscale>  0 0.12499786E+03</rscale>
<asrwt>0</asrwt>
<pdfrwt beam="1">  1        4 0.11375543E-01 0.12499786E+03</pdfrwt>
<pdfrwt beam="2">  1       -4 0.21461155E-01 0.12499786E+03</pdfrwt>
<totfact> 0.19493223E+03</totfact>
</mgrwt>
</event>
<event>
 5    1  0.1438401E-002  0.1249885E+03  0.7818608E-02  0.1235087E+00
          4   -1    0    0  501    0  0.00000000000E+00  0.00000000000E+00  0.11470474656E+03  0.11471177700E+03  0.12700000000E+01 0.  1.
         -4   -1    0    0    0  501 -0.00000000000E+00 -0.00000000000E+00 -0.34028661109E+02  0.34052352002E+02  0.12700000000E+01 0.  1.
         25    2    1    2    0    0  0.00000000000E+00  0.00000000000E+00  0.80676085447E+02  0.14876412900E+03  0.12498854073E+03 0.  0.
    9000005    1    3    3    0    0 -0.37954462859E+02 -0.39490575414E+02  0.76133605794E+02  0.93794310748E+02  0.10000000000E+01 0.  0.
    9000005    1    3    3    0    0  0.37954462859E+02  0.39490575414E+02  0.45424796535E+01  0.54969818254E+02  0.10000000000E+01 0.  0.
<mgrwt>
<rscale>  0 0.12498854E+03</rscale>
<asrwt>0</asrwt>
<pdfrwt beam="1">  1        4 0.28680027E-01 0.12498854E+03</pdfrwt>
<pdfrwt beam="2">  1       -4 0.85110055E-02 0.12498854E+03</pdfrwt>
<totfact> 0.18604678E+03</totfact>
</mgrwt>
</event>
<event>
 5    1  0.1438401E-002  0.1250036E+03  0.7818608E-02  0.1235064E+00
          4   -1    0    0  501    0  0.00000000000E+00  0.00000000000E+00  0.21788337319E+03  0.21788707446E+03  0.12700000000E+01 0. -1.
         -4   -1    0    0    0  501 -0.00000000000E+00 -0.00000000000E+00 -0.17902862694E+02  0.17947852034E+02  0.12700000000E+01 0. -1.
         25    2    1    2    0    0  0.00000000000E+00  0.00000000000E+00  0.19998051050E+03  0.23583492649E+03  0.12500363184E+03 0.  0.
    9000005    1    3    3    0    0  0.45804544134E+02  0.29393696387E+02  0.42041962927E+02  0.68779155980E+02  0.10000000000E+01 0.  0.
    9000005    1    3    3    0    0 -0.45804544134E+02 -0.29393696387E+02  0.15793854757E+03  0.16705577051E+03  0.10000000000E+01 0.  0.
<mgrwt>
<rscale>  0 0.12500363E+03</rscale>
<asrwt>0</asrwt>
<pdfrwt beam="1">  1        4 0.54476929E-01 0.12500363E+03</pdfrwt>
<pdfrwt beam="2">  1       -4 0.44818020E-02 0.12500363E+03</pdfrwt>
<totfact> 0.14979780E+03</totfact>
</mgrwt>
</event>
<event>
 5    1  0.1438401E-002  0.1249923E+03  0.7818608E-02  0.1235081E+00
         -4   -1    0    0    0  501 -0.00000000000E+00  0.00000000000E+00  0.58652921451E+03  0.58653058946E+03  0.12700000000E+01 0. -1.
          4   -1    0    0  501    0  0.00000000000E+00 -0.00000000000E+00 -0.65971777935E+01  0.67183074386E+01  0.12700000000E+01 0. -1.
         25    2    1    2    0    0  0.00000000000E+00  0.00000000000E+00  0.57993203671E+03  0.59324889690E+03  0.12499234562E+03 0.  0.
    9000005    1    3    3    0    0  0.26331636278E+02 -0.16339454954E+02  0.32420033198E+02  0.44859685797E+02  0.10000000000E+01 0.  0.
    9000005    1    3    3    0    0 -0.26331636278E+02  0.16339454954E+02  0.54751200352E+03  0.54838921110E+03  0.10000000000E+01 0.  0.
<mgrwt>
<rscale>  0 0.12499235E+03</rscale>
<asrwt>0</asrwt>
<pdfrwt beam="2">  1        4 0.16646077E-02 0.12499235E+03</pdfrwt>
<pdfrwt beam="1">  1       -4 0.14664760E+00 0.12499235E+03</pdfrwt>
<totfact> 0.74371822E+02</totfact>
</mgrwt>
</event>
<event>
 5    1  0.1438401E-002  0.1250024E+03  0.7818608E-02  0.1235065E+00
          4   -1    0    0  501    0  0.00000000000E+00  0.00000000000E+00  0.81918386902E+03  0.81918485348E+03  0.12700000000E+01 0. -1.
         -4   -1    0    0    0  501 -0.00000000000E+00 -0.00000000000E+00 -0.46830892481E+01  0.48522391641E+01  0.12700000000E+01 0. -1.
         25    2    1    2    0    0  0.00000000000E+00  0.00000000000E+00  0.81450077977E+03  0.82403709264E+03  0.12500243916E+03 0.  0.
    9000005    1    3    3    0    0 -0.85618472601E+01 -0.61790197341E+02  0.38252428156E+03  0.38757858519E+03  0.10000000000E+01 0.  0.
    9000005    1    3    3    0    0  0.85618472601E+01  0.61790197341E+02  0.43197649822E+03  0.43645850745E+03  0.10000000000E+01 0.  0.
<mgrwt>
<rscale>  0 0.12500244E+03</rscale>
<asrwt>0</asrwt>
<pdfrwt beam="1">  1        4 0.20481732E+00 0.12500244E+03</pdfrwt>
<pdfrwt beam="2">  1       -4 0.11920386E-02 0.12500244E+03</pdfrwt>
<totfact> 0.50392898E+02</totfact>
</mgrwt>
</event>
<event>
 5    1  0.1438401E-002  0.1250022E+03  0.7818608E-02  0.1235066E+00
          4   -1    0    0  501    0  0.00000000000E+00  0.00000000000E+00  0.52809259544E+01  0.54314895688E+01  0.12700000000E+01 0.  1.
         -4   -1    0    0    0  501 -0.00000000000E+00 -0.00000000000E+00 -0.72916820601E+03  0.72916931200E+03  0.12700000000E+01 0.  1.
         25    2    1    2    0    0  0.00000000000E+00  0.00000000000E+00 -0.72388728006E+03  0.73460080157E+03  0.12500217371E+03 0.  0.
    9000005    1    3    3    0    0  0.10832652228E+02 -0.60841711212E+02 -0.41654504756E+03  0.42110549370E+03  0.10000000000E+01 0.  0.
    9000005    1    3    3    0    0 -0.10832652228E+02  0.60841711212E+02 -0.30734223250E+03  0.31349530787E+03  0.10000000000E+01 0.  0.
<mgrwt>
<rscale>  0 0.12500217E+03</rscale>
<asrwt>0</asrwt>
<pdfrwt beam="1">  1        4 0.13391927E-02 0.12500217E+03</pdfrwt>
<pdfrwt beam="2">  1       -4 0.18231067E+00 0.12500217E+03</pdfrwt>
<totfact> 0.58558492E+02</totfact>
</mgrwt>
</event>
<event>
 5    1  0.1438401E-002  0.1249997E+03  0.7818608E-02  0.1235070E+00
         -4   -1    0    0    0  501 -0.00000000000E+00  0.00000000000E+00  0.38914233418E+02  0.38934951683E+02  0.12700000000E+01 0. -1.
          4   -1    0    0  501    0  0.00000000000E+00 -0.00000000000E+00 -0.10032900875E+03  0.10033704649E+03  0.12700000000E+01 0. -1.
         25    2    1    2    0    0  0.00000000000E+00  0.00000000000E+00 -0.61414775335E+02  0.13927199817E+03  0.12499965938E+03 0.  0.
    9000005    1    3    3    0    0  0.46126694147E+02 -0.28728975648E+02  0.36737065238E+01  0.54474967410E+02  0.10000000000E+01 0.  0.
    9000005    1    3    3    0    0 -0.46126694147E+02  0.28728975648E+02 -0.65088481858E+02  0.84797030758E+02  0.10000000000E+01 0.  0.
<mgrwt>
<rscale>  0 0.12499966E+03</rscale>
<asrwt>0</asrwt>
<pdfrwt beam="2">  1        4 0.25085846E-01 0.12499966E+03</pdfrwt>
<pdfrwt beam="1">  1       -4 0.97321530E-02 0.12499966E+03</pdfrwt>
<totfact> 0.19077799E+03</totfact>
</mgrwt>
</event>
<event>
 5    1  0.1438401E-002  0.1249981E+03  0.7818608E-02  0.1235072E+00
         -4   -1    0    0    0  501 -0.00000000000E+00  0.00000000000E+00  0.33724149817E+02  0.33748054475E+02  0.12700000000E+01 0. -1.
          4   -1    0    0  501    0  0.00000000000E+00 -0.00000000000E+00 -0.11575758984E+03  0.11576455634E+03  0.12700000000E+01 0. -1.
         25    2    1    2    0    0  0.00000000000E+00  0.00000000000E+00 -0.82033440022E+02  0.14951261082E+03  0.12499814203E+03 0.  0.
    9000005    1    3    3    0    0 -0.43168802911E+02 -0.15044809364E+02 -0.91978142102E+02  0.10271743016E+03  0.10000000000E+01 0.  0.
    9000005    1    3    3    0    0  0.43168802911E+02  0.15044809364E+02  0.99447020802E+01  0.46795180660E+02  0.10000000000E+01 0.  0.
<mgrwt>
<rscale>  0 0.12499814E+03</rscale>
<asrwt>0</asrwt>
<pdfrwt beam="2">  1        4 0.28943255E-01 0.12499814E+03</pdfrwt>
<pdfrwt beam="1">  1       -4 0.84348966E-02 0.12499814E+03</pdfrwt>
<totfact> 0.18563575E+03</totfact>
</mgrwt>
</event>
<event>
 5    1  0.1438401E-002  0.1250052E+03  0.7818608E-02  0.1235061E+00
         -4   -1    0    0    0  501 -0.00000000000E+00  0.00000000000E+00  0.47841864852E+02  0.47858718459E+02  0.12700000000E+01 0. -1.
          4   -1    0    0  501    0  0.00000000000E+00 -0.00000000000E+00 -0.81619811955E+02  0.81629691924E+02  0.12700000000E+01 0. -1.
         25    2    1    2    0    0  0.00000000000E+00  0.00000000000E+00 -0.33777947103E+02  0.12948841038E+03  0.12500519474E+03 0.  0.
    9000005    1    3    3    0    0  0.69507444790E+01  0.14996215967E+02  0.45541725448E+02  0.48458725725E+02  0.10000000000E+01 0.  0.
    9000005    1    3    3    0    0 -0.69507444790E+01 -0.14996215967E+02 -0.79319672551E+02  0.81029684658E+02  0.10000000000E+01 0.  0.
<mgrwt>
<rscale>  0 0.12500519E+03</rscale>
<asrwt>0</asrwt>
<pdfrwt beam="2">  1        4 0.20408295E-01 0.12500519E+03</pdfrwt>
<pdfrwt beam="1">  1       -4 0.11963808E-01 0.12500519E+03</pdfrwt>
<totfact> 0.19589549E+03</totfact>
</mgrwt>
</event>
<event>
 5    1  0.1438401E-002  0.1249990E+03  0.7818608E-02  0.1235071E+00
         -4   -1    0    0    0  501 -0.00000000000E+00  0.00000000000E+00  0.17882815822E+03  0.17883266780E+03  0.12700000000E+01 0.  1.
          4   -1    0    0  501    0  0.00000000000E+00 -0.00000000000E+00 -0.21820001792E+02  0.21856929753E+02  0.12700000000E+01 0.  1.
         25    2    1    2    0    0  0.00000000000E+00  0.00000000000E+00  0.15700815643E+03  0.20068959755E+03  0.12499901352E+03 0.  0.
    9000005    1    3    3    0    0 -0.84215224856E+01 -0.60843289297E+02  0.96975375444E+02  0.11479569389E+03  0.10000000000E+01 0.  0.
    9000005    1    3    3    0    0  0.84215224856E+01  0.60843289297E+02  0.60032780986E+02  0.85893903663E+02  0.10000000000E+01 0.  0.
<mgrwt>
<rscale>  0 0.12499901E+03</rscale>
<asrwt>0</asrwt>
<pdfrwt beam="2">  1        4 0.54601801E-02 0.12499901E+03</pdfrwt>
<pdfrwt beam="1">  1       -4 0.44712219E-01 0.12499901E+03</pdfrwt>
<totfact> 0.16294837E+03</totfact>
</mgrwt>
</event>
<event>
 5    1  0.1438401E-002  0.1250015E+03  0.7818608E-02  0.1235067E+00
         -4   -1    0    0    0  501 -0.00000000000E+00  0.00000000000E+00  0.15408788773E+03  0.15409312134E+03  0.12700000000E+01 0.  1.
          4   -1    0    0  501    0  0.00000000000E+00 -0.00000000000E+00 -0.25329823613E+02  0.25361641593E+02  0.12700000000E+01 0.  1.
         25    2    1    2    0    0  0.00000000000E+00  0.00000000000E+00  0.12875806412E+03  0.17945476294E+03  0.12500149145E+03 0.  0.
    9000005    1    3    3    0    0  0.26468853782E+02  0.52466756116E+02  0.33857902392E+02  0.67828594798E+02  0.10000000000E+01 0.  0.
    9000005    1    3    3    0    0 -0.26468853782E+02 -0.52466756116E+02  0.94900161726E+02  0.11162616814E+03  0.10000000000E+01 0.  0.
<mgrwt>
<rscale>  0 0.12500149E+03</rscale>
<asrwt>0</asrwt>
<pdfrwt beam="2">  1        4 0.63370875E-02 0.12500149E+03</pdfrwt>
<pdfrwt beam="1">  1       -4 0.38526602E-01 0.12500149E+03</pdfrwt>
<totfact> 0.17178246E+03</totfact>
</mgrwt>
</event>
<event>
 5    1  0.1438401E-002  0.1250020E+03  0.7818608E-02  0.1235066E+00
          4   -1    0    0  501    0  0.00000000000E+00  0.00000000000E+00  0.21447231120E+03  0.21447607132E+03  0.12700000000E+01 0.  1.
         -4   -1    0    0    0  501 -0.00000000000E+00 -0.00000000000E+00 -0.18187817225E+02  0.18232103428E+02  0.12700000000E+01 0.  1.
         25    2    1    2    0    0  0.00000000000E+00  0.00000000000E+00  0.19628449397E+03  0.23270817475E+03  0.12500196807E+03 0.  0.
    9000005    1    3    3    0    0 -0.24299243909E+02  0.26173347412E+02  0.19361125168E+03  0.19688020253E+03  0.10000000000E+01 0.  0.
    9000005    1    3    3    0    0  0.24299243909E+02 -0.26173347412E+02  0.26732422902E+01  0.35827972223E+02  0.10000000000E+01 0.  0.
<mgrwt>
<rscale>  0 0.12500197E+03</rscale>
<asrwt>0</asrwt>
<pdfrwt beam="1">  1        4 0.53624083E-01 0.12500197E+03</pdfrwt>
<pdfrwt beam="2">  1       -4 0.45529602E-02 0.12500197E+03</pdfrwt>
<totfact> 0.15090339E+03</totfact>
</mgrwt>
</event>
<event>
 5    1  0.1438401E-002  0.1249997E+03  0.7818608E-02  0.1235070E+00
          4   -1    0    0  501    0  0.00000000000E+00  0.00000000000E+00  0.39417778753E+03  0.39417983343E+03  0.12700000000E+01 0. -1.
         -4   -1    0    0    0  501 -0.00000000000E+00 -0.00000000000E+00 -0.98670556518E+01  0.99484514994E+01  0.12700000000E+01 0. -1.
         25    2    1    2    0    0  0.00000000000E+00  0.00000000000E+00  0.38431073188E+03  0.40412828493E+03  0.12499972817E+03 0.  0.
    9000005    1    3    3    0    0  0.22256143943E+02 -0.93824805643E+01  0.58174464352E+01  0.24863820458E+02  0.10000000000E+01 0.  0.
    9000005    1    3    3    0    0 -0.22256143943E+02  0.93824805643E+01  0.37849328544E+03  0.37926446447E+03  0.10000000000E+01 0.  0.
<mgrwt>
<rscale>  0 0.12499973E+03</rscale>
<asrwt>0</asrwt>
<pdfrwt beam="1">  1        4 0.98554873E-01 0.12499973E+03</pdfrwt>
<pdfrwt beam="2">  1       -4 0.24771942E-02 0.12499973E+03</pdfrwt>
<totfact> 0.10484720E+03</totfact>
</mgrwt>
</event>
<event>
 5    1  0.1438401E-002  0.1250009E+03  0.7818608E-02  0.1235068E+00
         -4   -1    0    0    0  501 -0.00000000000E+00  0.00000000000E+00  0.17509496199E+03  0.17509956772E+03  0.12700000000E+01 0. -1.
          4   -1    0    0  501    0  0.00000000000E+00 -0.00000000000E+00 -0.22286677728E+02  0.22322833695E+02  0.12700000000E+01 0. -1.
         25    2    1    2    0    0  0.00000000000E+00  0.00000000000E+00  0.15280828427E+03  0.19742240141E+03  0.12500093136E+03 0.  0.
    9000005    1    3    3    0    0  0.51345238889E+02  0.34918305888E+02  0.65271386453E+02  0.90094259152E+02  0.10000000000E+01 0.  0.
    9000005    1    3    3    0    0 -0.51345238889E+02 -0.34918305888E+02  0.87536897813E+02  0.10732814226E+03  0.10000000000E+01 0.  0.
<mgrwt>
<rscale>  0 0.12500093E+03</rscale>
<asrwt>0</asrwt>
<pdfrwt beam="2">  1        4 0.55767647E-02 0.12500093E+03</pdfrwt>
<pdfrwt beam="1">  1       -4 0.43778835E-01 0.12500093E+03</pdfrwt>
<totfact> 0.16425421E+03</totfact>
</mgrwt>
</event>
<event>
 5    1  0.1438401E-002  0.1249947E+03  0.7818608E-02  0.1235078E+00
          4   -1    0    0  501    0  0.00000000000E+00  0.00000000000E+00  0.41404465546E+02  0.41423938335E+02  0.12700000000E+01 0.  1.
         -4   -1    0    0    0  501 -0.00000000000E+00 -0.00000000000E+00 -0.94289754453E+02  0.94298306956E+02  0.12700000000E+01 0.  1.
         25    2    1    2    0    0  0.00000000000E+00  0.00000000000E+00 -0.52885288907E+02  0.13572224529E+03  0.12499469622E+03 0.  0.
    9000005    1    3    3    0    0 -0.20575420743E+02  0.13766494185E+02  0.35858057504E+02  0.43585141836E+02  0.10000000000E+01 0.  0.
    9000005    1    3    3    0    0  0.20575420743E+02 -0.13766494185E+02 -0.88743346411E+02  0.92137103455E+02  0.10000000000E+01 0.  0.
<mgrwt>
<rscale>  0 0.12499470E+03</rscale>
<asrwt>0</asrwt>
<pdfrwt beam="1">  1        4 0.10354620E-01 0.12499470E+03</pdfrwt>
<pdfrwt beam="2">  1       -4 0.23575941E-01 0.12499470E+03</pdfrwt>
<totfact> 0.19263757E+03</totfact>
</mgrwt>
</event>
<event>
 5    1  0.1438401E-002  0.1250010E+03  0.7818608E-02  0.1235068E+00
          4   -1    0    0  501    0  0.00000000000E+00  0.00000000000E+00  0.20653750042E+03  0.20654140500E+03  0.12700000000E+01 0.  1.
         -4   -1    0    0    0  501 -0.00000000000E+00 -0.00000000000E+00 -0.18887912074E+02  0.18930560544E+02  0.12700000000E+01 0.  1.
         25    2    1    2    0    0  0.00000000000E+00  0.00000000000E+00  0.18764958835E+03  0.22547196555E+03  0.12500095696E+03 0.  0.
    9000005    1    3    3    0    0 -0.56063564296E+02 -0.98508089839E+01  0.47304934024E+02  0.74019716713E+02  0.10000000000E+01 0.  0.
    9000005    1    3    3    0    0  0.56063564296E+02  0.98508089839E+01  0.14034465432E+03  0.15145224883E+03  0.10000000000E+01 0.  0.
<mgrwt>
<rscale>  0 0.12500096E+03</rscale>
<asrwt>0</asrwt>
<pdfrwt beam="1">  1        4 0.51640193E-01 0.12500096E+03</pdfrwt>
<pdfrwt beam="2">  1       -4 0.47277972E-02 0.12500096E+03</pdfrwt>
<totfact> 0.15350130E+03</totfact>
</mgrwt>
</event>
<event>
 5    1  0.1438401E-002  0.1250023E+03  0.7818608E-02  0.1235066E+00
         -4   -1    0    0    0  501 -0.00000000000E+00  0.00000000000E+00  0.41442791434E+03  0.41442986027E+03  0.12700000000E+01 0.  1.
          4   -1    0    0  501    0  0.00000000000E+00 -0.00000000000E+00 -0.93812295580E+01  0.94668034743E+01  0.12700000000E+01 0.  1.
         25    2    1    2    0    0  0.00000000000E+00  0.00000000000E+00  0.40504668479E+03  0.42389666375E+03  0.12500225871E+03 0.  0.
    9000005    1    3    3    0    0  0.23379268771E+02 -0.51520914970E+02  0.11252165213E+03  0.12594886695E+03  0.10000000000E+01 0.  0.
    9000005    1    3    3    0    0 -0.23379268771E+02  0.51520914970E+02  0.29252503266E+03  0.29794779680E+03  0.10000000000E+01 0.  0.
<mgrwt>
<rscale>  0 0.12500226E+03</rscale>
<asrwt>0</asrwt>
<pdfrwt beam="2">  1        4 0.23562472E-02 0.12500226E+03</pdfrwt>
<pdfrwt beam="1">  1       -4 0.10361793E+00 0.12500226E+03</pdfrwt>
<totfact> 0.10089318E+03</totfact>
</mgrwt>
</event>
<event>
 5    1  0.1438401E-002  0.1250008E+03  0.7818608E-02  0.1235068E+00
         -4   -1    0    0    0  501 -0.00000000000E+00  0.00000000000E+00  0.14935894612E+03  0.14936434543E+03  0.12700000000E+01 0.  1.
          4   -1    0    0  501    0  0.00000000000E+00 -0.00000000000E+00 -0.26132481683E+02  0.26163323545E+02  0.12700000000E+01 0.  1.
         25    2    1    2    0    0  0.00000000000E+00  0.00000000000E+00  0.12322646444E+03  0.17552766898E+03  0.12500080415E+03 0.  0.
    9000005    1    3    3    0    0 -0.38221616112E+02  0.19976102903E+02 -0.18932480667E+01  0.43180099741E+02  0.10000000000E+01 0.  0.
    9000005    1    3    3    0    0  0.38221616112E+02 -0.19976102903E+02  0.12511971251E+03  0.13234756924E+03  0.10000000000E+01 0.  0.
<mgrwt>
<rscale>  0 0.12500080E+03</rscale>
<asrwt>0</asrwt>
<pdfrwt beam="2">  1        4 0.65376507E-02 0.12500080E+03</pdfrwt>
<pdfrwt beam="1">  1       -4 0.37344266E-01 0.12500080E+03</pdfrwt>
<totfact> 0.17350246E+03</totfact>
</mgrwt>
</event>
<event>
 5    1  0.1438401E-002  0.1249996E+03  0.7818608E-02  0.1235070E+00
         -4   -1    0    0    0  501 -0.00000000000E+00  0.00000000000E+00  0.83465120877E+01  0.84425804130E+01  0.12700000000E+01 0.  1.
          4   -1    0    0  501    0  0.00000000000E+00 -0.00000000000E+00 -0.46523206886E+03  0.46523380230E+03  0.12700000000E+01 0.  1.
         25    2    1    2    0    0  0.00000000000E+00  0.00000000000E+00 -0.45688555678E+03  0.47367638271E+03  0.12499961418E+03 0.  0.
    9000005    1    3    3    0    0  0.54020994645E+01 -0.38203928043E+02 -0.41472299591E+03  0.41651516915E+03  0.10000000000E+01 0.  0.
    9000005    1    3    3    0    0 -0.54020994645E+01  0.38203928043E+02 -0.42162560862E+02  0.57161213554E+02  0.10000000000E+01 0.  0.
<mgrwt>
<rscale>  0 0.12499961E+03</rscale>
<asrwt>0</asrwt>
<pdfrwt beam="2">  1        4 0.11632016E+00 0.12499961E+03</pdfrwt>
<pdfrwt beam="1">  1       -4 0.20988548E-02 0.12499961E+03</pdfrwt>
<totfact> 0.91916852E+02</totfact>
</mgrwt>
</event>
<event>
 5    1  0.1438401E-002  0.1249986E+03  0.7818608E-02  0.1235071E+00
          4   -1    0    0  501    0  0.00000000000E+00  0.00000000000E+00  0.40532973792E+02  0.40552865058E+02  0.12700000000E+01 0.  1.
         -4   -1    0    0    0  501 -0.00000000000E+00 -0.00000000000E+00 -0.96322328893E+02  0.96330700939E+02  0.12700000000E+01 0.  1.
         25    2    1    2    0    0  0.00000000000E+00  0.00000000000E+00 -0.55789355101E+02  0.13688356600E+03  0.12499863398E+03 0.  0.
    9000005    1    3    3    0    0  0.46773821808E+02  0.30255205141E+02  0.31175067242E+01  0.55802210465E+02  0.10000000000E+01 0.  0.
    9000005    1    3    3    0    0 -0.46773821808E+02 -0.30255205141E+02 -0.58906861825E+02  0.81081355531E+02  0.10000000000E+01 0.  0.
<mgrwt>
<rscale>  0 0.12499863E+03</rscale>
<asrwt>0</asrwt>
<pdfrwt beam="1">  1        4 0.10136777E-01 0.12499863E+03</pdfrwt>
<pdfrwt beam="2">  1       -4 0.24084115E-01 0.12499863E+03</pdfrwt>
<totfact> 0.19201539E+03</totfact>
</mgrwt>
</event>
<event>
 5    1  0.1438401E-002  0.1249968E+03  0.7818608E-02  0.1235074E+00
         -4   -1    0    0    0  501 -0.00000000000E+00  0.00000000000E+00  0.11109370132E+03  0.11110096027E+03  0.12700000000E+01 0.  1.
          4   -1    0    0  501    0  0.00000000000E+00 -0.00000000000E+00 -0.35140107430E+02  0.35163049500E+02  0.12700000000E+01 0.  1.
         25    2    1    2    0    0  0.00000000000E+00  0.00000000000E+00  0.75953593894E+02  0.14626400977E+03  0.12499684848E+03 0.  0.
    9000005    1    3    3    0    0  0.21002371230E+02  0.23886912395E+02 -0.24965170322E+02  0.40446803461E+02  0.10000000000E+01 0.  0.
    9000005    1    3    3    0    0 -0.21002371230E+02 -0.23886912395E+02  0.10091876422E+03  0.10581720631E+03  0.10000000000E+01 0.  0.
<mgrwt>
<rscale>  0 0.12499685E+03</rscale>
<asrwt>0</asrwt>
<pdfrwt beam="2">  1        4 0.87888020E-02 0.12499685E+03</pdfrwt>
<pdfrwt beam="1">  1       -4 0.27777200E-01 0.12499685E+03</pdfrwt>
<totfact> 0.18725392E+03</totfact>
</mgrwt>
</event>
<event>
 5    1  0.1438401E-002  0.1249852E+03  0.7818608E-02  0.1235092E+00
          4   -1    0    0  501    0  0.00000000000E+00  0.00000000000E+00  0.17773310255E+02  0.17818626698E+02  0.12700000000E+01 0. -1.
         -4   -1    0    0    0  501 -0.00000000000E+00 -0.00000000000E+00 -0.21940280252E+03  0.21940647814E+03  0.12700000000E+01 0. -1.
         25    2    1    2    0    0  0.00000000000E+00  0.00000000000E+00 -0.20162949226E+03  0.23722510484E+03  0.12498519200E+03 0.  0.
    9000005    1    3    3    0    0 -0.40451730844E+02 -0.32941610764E+02 -0.35537221925E+02  0.63129916760E+02  0.10000000000E+01 0.  0.
    9000005    1    3    3    0    0  0.40451730844E+02  0.32941610764E+02 -0.16609227034E+03  0.17409518808E+03  0.10000000000E+01 0.  0.
<mgrwt>
<rscale>  0 0.12498519E+03</rscale>
<asrwt>0</asrwt>
<pdfrwt beam="1">  1        4 0.44494523E-02 0.12498519E+03</pdfrwt>
<pdfrwt beam="2">  1       -4 0.54856816E-01 0.12498519E+03</pdfrwt>
<totfact> 0.14937629E+03</totfact>
</mgrwt>
</event>
<event>
 5    1  0.1438401E-002  0.1250009E+03  0.7818608E-02  0.1235068E+00
         -4   -1    0    0    0  501 -0.00000000000E+00  0.00000000000E+00  0.11262537791E+04  0.11262544952E+04  0.12700000000E+01 0. -1.
          4   -1    0    0  501    0  0.00000000000E+00 -0.00000000000E+00 -0.33514108145E+01  0.35839718816E+01  0.12700000000E+01 0. -1.
         25    2    1    2    0    0  0.00000000000E+00  0.00000000000E+00  0.11229023683E+04  0.11298384670E+04  0.12500093150E+03 0.  0.
    9000005    1    3    3    0    0  0.41242659207E+02 -0.24100361213E+02  0.92564489900E+03  0.92687715659E+03  0.10000000000E+01 0.  0.
    9000005    1    3    3    0    0 -0.41242659207E+02  0.24100361213E+02  0.19725746930E+03  0.20296131046E+03  0.10000000000E+01 0.  0.
<mgrwt>
<rscale>  0 0.12500093E+03</rscale>
<asrwt>0</asrwt>
<pdfrwt beam="2">  1        4 0.86701277E-03 0.12500093E+03</pdfrwt>
<pdfrwt beam="1">  1       -4 0.28159247E+00 0.12500093E+03</pdfrwt>
<totfact> 0.29042843E+02</totfact>
</mgrwt>
</event>
<event>
 5    1  0.1438401E-002  0.1249982E+03  0.7818608E-02  0.1235072E+00
         -4   -1    0    0    0  501 -0.00000000000E+00  0.00000000000E+00  0.12165303510E+02  0.12231414860E+02  0.12700000000E+01 0. -1.
          4   -1    0    0  501    0  0.00000000000E+00 -0.00000000000E+00 -0.32015074781E+03  0.32015326677E+03  0.12700000000E+01 0. -1.
         25    2    1    2    0    0  0.00000000000E+00  0.00000000000E+00 -0.30798544430E+03  0.33238468163E+03  0.12499817071E+03 0.  0.
    9000005    1    3    3    0    0  0.34064698473E+02 -0.16279241418E+02 -0.21577316410E+02  0.43497102969E+02  0.10000000000E+01 0.  0.
    9000005    1    3    3    0    0 -0.34064698473E+02  0.16279241418E+02 -0.28640812789E+03  0.28888757866E+03  0.10000000000E+01 0.  0.
<mgrwt>
<rscale>  0 0.12499817E+03</rscale>
<asrwt>0</asrwt>
<pdfrwt beam="2">  1        4 0.80046238E-01 0.12499817E+03</pdfrwt>
<pdfrwt beam="1">  1       -4 0.30499057E-02 0.12499817E+03</pdfrwt>
<totfact> 0.12110123E+03</totfact>
</mgrwt>
</event>
<event>
 5    1  0.1438401E-002  0.1249996E+03  0.7818608E-02  0.1235070E+00
          4   -1    0    0  501    0  0.00000000000E+00  0.00000000000E+00  0.78126393909E+02  0.78136715603E+02  0.12700000000E+01 0. -1.
         -4   -1    0    0    0  501 -0.00000000000E+00 -0.00000000000E+00 -0.49977070883E+02  0.49993204678E+02  0.12700000000E+01 0. -1.
         25    2    1    2    0    0  0.00000000000E+00  0.00000000000E+00  0.28149323027E+02  0.12812992028E+03  0.12499956834E+03 0.  0.
    9000005    1    3    3    0    0 -0.60077197417E+02  0.16568056345E+02  0.93269442296E+01  0.63021917055E+02  0.10000000000E+01 0.  0.
    9000005    1    3    3    0    0  0.60077197417E+02 -0.16568056345E+02  0.18822378797E+02  0.65108003227E+02  0.10000000000E+01 0.  0.
<mgrwt>
<rscale>  0 0.12499957E+03</rscale>
<asrwt>0</asrwt>
<pdfrwt beam="1">  1        4 0.19534905E-01 0.12499957E+03</pdfrwt>
<pdfrwt beam="2">  1       -4 0.12497575E-01 0.12499957E+03</pdfrwt>
<totfact> 0.19665666E+03</totfact>
</mgrwt>
</event>
<event>
 5    1  0.1438401E-002  0.1250057E+03  0.7818608E-02  0.1235060E+00
         -4   -1    0    0    0  501 -0.00000000000E+00  0.00000000000E+00  0.91258676467E+02  0.91267513007E+02  0.12700000000E+01 0.  1.
          4   -1    0    0  501    0  0.00000000000E+00 -0.00000000000E+00 -0.42787687925E+02  0.42806531487E+02  0.12700000000E+01 0.  1.
         25    2    1    2    0    0  0.00000000000E+00  0.00000000000E+00  0.48470988542E+02  0.13407404449E+03  0.12500565058E+03 0.  0.
    9000005    1    3    3    0    0 -0.39532274153E+02 -0.22927619920E+02  0.69955646996E+02  0.83565955996E+02  0.10000000000E+01 0.  0.
    9000005    1    3    3    0    0  0.39532274153E+02  0.22927619920E+02 -0.21484658454E+02  0.50508088498E+02  0.10000000000E+01 0.  0.
<mgrwt>
<rscale>  0 0.12500565E+03</rscale>
<asrwt>0</asrwt>
<pdfrwt beam="2">  1        4 0.10700382E-01 0.12500565E+03</pdfrwt>
<pdfrwt beam="1">  1       -4 0.22818129E-01 0.12500565E+03</pdfrwt>
<totfact> 0.19345197E+03</totfact>
</mgrwt>
</event>
<event>
 5    1  0.1438401E-002  0.1249990E+03  0.7818608E-02  0.1235071E+00
          4   -1    0    0  501    0  0.00000000000E+00  0.00000000000E+00  0.15386893823E+03  0.15387417929E+03  0.12700000000E+01 0.  1.
         -4   -1    0    0    0  501 -0.00000000000E+00 -0.00000000000E+00 -0.25364906934E+02  0.25396680959E+02  0.12700000000E+01 0.  1.
         25    2    1    2    0    0  0.00000000000E+00  0.00000000000E+00  0.12850403130E+03  0.17927086025E+03  0.12499902110E+03 0.  0.
    9000005    1    3    3    0    0 -0.50087841135E+02 -0.56303917899E+01  0.11270912280E+02  0.51657783585E+02  0.10000000000E+01 0.  0.
    9000005    1    3    3    0    0  0.50087841135E+02  0.56303917899E+01  0.11723311902E+03  0.12761307666E+03  0.10000000000E+01 0.  0.
<mgrwt>
<rscale>  0 0.12499902E+03</rscale>
<asrwt>0</asrwt>
<pdfrwt beam="1">  1        4 0.38471861E-01 0.12499902E+03</pdfrwt>
<pdfrwt beam="2">  1       -4 0.63458536E-02 0.12499902E+03</pdfrwt>
<totfact> 0.17187211E+03</totfact>
</mgrwt>
</event>
<event>
 5    1  0.1438401E-002  0.1250014E+03  0.7818608E-02  0.1235067E+00
         -4   -1    0    0    0  501 -0.00000000000E+00  0.00000000000E+00  0.90081449281E+01  0.90972289762E+01  0.12700000000E+01 0. -1.
          4   -1    0    0  501    0  0.00000000000E+00 -0.00000000000E+00 -0.43142128829E+03  0.43142315757E+03  0.12700000000E+01 0. -1.
         25    2    1    2    0    0  0.00000000000E+00  0.00000000000E+00 -0.42241314336E+03  0.44052038655E+03  0.12500138911E+03 0.  0.
    9000005    1    3    3    0    0  0.56245766636E+02 -0.24077130020E+02 -0.16634593224E+03  0.17724351505E+03  0.10000000000E+01 0.  0.
    9000005    1    3    3    0    0 -0.56245766636E+02  0.24077130020E+02 -0.25606721112E+03  0.26327687149E+03  0.10000000000E+01 0.  0.
<mgrwt>
<rscale>  0 0.12500139E+03</rscale>
<asrwt>0</asrwt>
<pdfrwt beam="2">  1        4 0.10786662E+00 0.12500139E+03</pdfrwt>
<pdfrwt beam="1">  1       -4 0.22634068E-02 0.12500139E+03</pdfrwt>
<totfact> 0.97741156E+02</totfact>
</mgrwt>
</event>
<event>
 5    1  0.1438401E-002  0.1249815E+03  0.7818608E-02  0.1235098E+00
         -4   -1    0    0    0  501 -0.00000000000E+00  0.00000000000E+00  0.24631245786E+03  0.24631573193E+03  0.12700000000E+01 0.  1.
          4   -1    0    0  501    0  0.00000000000E+00 -0.00000000000E+00 -0.15825415328E+02  0.15876292713E+02  0.12700000000E+01 0.  1.
         25    2    1    2    0    0  0.00000000000E+00  0.00000000000E+00  0.23048704253E+03  0.26219202465E+03  0.12498152268E+03 0.  0.
    9000005    1    3    3    0    0 -0.13400914925E+02 -0.23071286368E+01 -0.12693939027E+02  0.18629102270E+02  0.10000000000E+01 0.  0.
    9000005    1    3    3    0    0  0.13400914925E+02  0.23071286368E+01  0.24318098156E+03  0.24356292238E+03  0.10000000000E+01 0.  0.
<mgrwt>
<rscale>  0 0.12498152E+03</rscale>
<asrwt>0</asrwt>
<pdfrwt beam="2">  1        4 0.39631227E-02 0.12498152E+03</pdfrwt>
<pdfrwt beam="1">  1       -4 0.61584885E-01 0.12498152E+03</pdfrwt>
<totfact> 0.14107020E+03</totfact>
</mgrwt>
</event>
<event>
 5    1  0.1438401E-002  0.1250034E+03  0.7818608E-02  0.1235064E+00
         -4   -1    0    0    0  501 -0.00000000000E+00  0.00000000000E+00  0.97727883003E+01  0.98549627682E+01  0.12700000000E+01 0. -1.
          4   -1    0    0  501    0  0.00000000000E+00 -0.00000000000E+00 -0.39797204006E+03  0.39797406646E+03  0.12700000000E+01 0. -1.
         25    2    1    2    0    0  0.00000000000E+00  0.00000000000E+00 -0.38819925176E+03  0.40782902923E+03  0.12500343199E+03 0.  0.
    9000005    1    3    3    0    0 -0.54370137331E+02  0.16539406600E+02 -0.27891322963E+03  0.28464583866E+03  0.10000000000E+01 0.  0.
    9000005    1    3    3    0    0  0.54370137331E+02 -0.16539406600E+02 -0.10928602213E+03  0.12318319057E+03  0.10000000000E+01 0.  0.
<mgrwt>
<rscale>  0 0.12500343E+03</rscale>
<asrwt>0</asrwt>
<pdfrwt beam="2">  1        4 0.99503481E-01 0.12500343E+03</pdfrwt>
<pdfrwt beam="1">  1       -4 0.24537235E-02 0.12500343E+03</pdfrwt>
<totfact> 0.10408882E+03</totfact>
</mgrwt>
</event>
<event>
 5    1  0.1438401E-002  0.1249970E+03  0.7818608E-02  0.1235074E+00
         -4   -1    0    0    0  501 -0.00000000000E+00  0.00000000000E+00  0.13628470834E+03  0.13629062560E+03  0.12700000000E+01 0.  1.
          4   -1    0    0  501    0  0.00000000000E+00 -0.00000000000E+00 -0.28640454704E+02  0.28668598599E+02  0.12700000000E+01 0.  1.
         25    2    1    2    0    0  0.00000000000E+00  0.00000000000E+00  0.10764425363E+03  0.16495922420E+03  0.12499704120E+03 0.  0.
    9000005    1    3    3    0    0  0.43597401626E+02  0.35899719425E+02  0.89123725637E+02  0.10551569435E+03  0.10000000000E+01 0.  0.
    9000005    1    3    3    0    0 -0.43597401626E+02 -0.35899719425E+02  0.18520527997E+02  0.59443529847E+02  0.10000000000E+01 0.  0.
<mgrwt>
<rscale>  0 0.12499704E+03</rscale>
<asrwt>0</asrwt>
<pdfrwt beam="2">  1        4 0.71643714E-02 0.12499704E+03</pdfrwt>
<pdfrwt beam="1">  1       -4 0.34075434E-01 0.12499704E+03</pdfrwt>
<totfact> 0.17828058E+03</totfact>
</mgrwt>
</event>
<event>
 5    1  0.1438401E-002  0.1250173E+03  0.7818608E-02  0.1235042E+00
          4   -1    0    0  501    0  0.00000000000E+00  0.00000000000E+00  0.80951738892E+02  0.80961700387E+02  0.12700000000E+01 0. -1.
         -4   -1    0    0    0  501 -0.00000000000E+00 -0.00000000000E+00 -0.48246115183E+02  0.48262827624E+02  0.12700000000E+01 0. -1.
         25    2    1    2    0    0  0.00000000000E+00  0.00000000000E+00  0.32705623708E+02  0.12922452801E+03  0.12501728208E+03 0.  0.
    9000005    1    3    3    0    0  0.17075062329E+02  0.11550477017E+02  0.77341501499E+02  0.80047980156E+02  0.10000000000E+01 0.  0.
    9000005    1    3    3    0    0 -0.17075062329E+02 -0.11550477017E+02 -0.44635877791E+02  0.49176547856E+02  0.10000000000E+01 0.  0.
<mgrwt>
<rscale>  0 0.12501728E+03</rscale>
<asrwt>0</asrwt>
<pdfrwt beam="1">  1        4 0.20241269E-01 0.12501728E+03</pdfrwt>
<pdfrwt beam="2">  1       -4 0.12064863E-01 0.12501728E+03</pdfrwt>
<totfact> 0.19598256E+03</totfact>
</mgrwt>
</event>
<event>
 5    1  0.1438401E-002  0.1249965E+03  0.7818608E-02  0.1235075E+00
         -4   -1    0    0    0  501 -0.00000000000E+00  0.00000000000E+00  0.61966426636E+01  0.63254470435E+01  0.12700000000E+01 0.  1.
          4   -1    0    0  501    0  0.00000000000E+00 -0.00000000000E+00 -0.62373284045E+03  0.62373413339E+03  0.12700000000E+01 0.  1.
         25    2    1    2    0    0  0.00000000000E+00  0.00000000000E+00 -0.61753619778E+03  0.63005958043E+03  0.12499647723E+03 0.  0.
    9000005    1    3    3    0    0  0.13534516856E+02 -0.60028015922E+02 -0.25390078775E+03  0.26125304948E+03  0.10000000000E+01 0.  0.
    9000005    1    3    3    0    0 -0.13534516856E+02  0.60028015922E+02 -0.36363541004E+03  0.36880653095E+03  0.10000000000E+01 0.  0.
<mgrwt>
<rscale>  0 0.12499648E+03</rscale>
<asrwt>0</asrwt>
<pdfrwt beam="2">  1        4 0.15594926E+00 0.12499648E+03</pdfrwt>
<pdfrwt beam="1">  1       -4 0.15654250E-02 0.12499648E+03</pdfrwt>
<totfact> 0.69845293E+02</totfact>
</mgrwt>
</event>
<event>
 5    1  0.1438401E-002  0.1249922E+03  0.7818608E-02  0.1235081E+00
          4   -1    0    0  501    0  0.00000000000E+00  0.00000000000E+00  0.54990203532E+02  0.55004866916E+02  0.12700000000E+01 0. -1.
         -4   -1    0    0    0  501 -0.00000000000E+00 -0.00000000000E+00 -0.70996728095E+02  0.71008086161E+02  0.12700000000E+01 0. -1.
         25    2    1    2    0    0  0.00000000000E+00  0.00000000000E+00 -0.16006524563E+02  0.12601295308E+03  0.12499222182E+03 0.  0.
    9000005    1    3    3    0    0  0.20340995613E+02 -0.32074186927E+02 -0.58029593517E+02  0.69360963757E+02  0.10000000000E+01 0.  0.
    9000005    1    3    3    0    0 -0.20340995613E+02  0.32074186927E+02  0.42023068954E+02  0.56651989319E+02  0.10000000000E+01 0.  0.
<mgrwt>
<rscale>  0 0.12499222E+03</rscale>
<asrwt>0</asrwt>
<pdfrwt beam="1">  1        4 0.13750804E-01 0.12499222E+03</pdfrwt>
<pdfrwt beam="2">  1       -4 0.17752435E-01 0.12499222E+03</pdfrwt>
<totfact> 0.19783819E+03</totfact>
</mgrwt>
</event>
<event>
 5    1  0.1438401E-002  0.1249962E+03  0.7818608E-02  0.1235075E+00
          4   -1    0    0  501    0  0.00000000000E+00  0.00000000000E+00  0.13128661210E+03  0.13129275463E+03  0.12700000000E+01 0. -1.
         -4   -1    0    0    0  501 -0.00000000000E+00 -0.00000000000E+00 -0.29731422722E+02  0.29758534861E+02  0.12700000000E+01 0. -1.
         25    2    1    2    0    0  0.00000000000E+00  0.00000000000E+00  0.10155518938E+03  0.16105128949E+03  0.12499624537E+03 0.  0.
    9000005    1    3    3    0    0 -0.46835565809E+01  0.46062851768E+02 -0.32957312527E+01  0.46428265741E+02  0.10000000000E+01 0.  0.
    9000005    1    3    3    0    0  0.46835565809E+01 -0.46062851768E+02  0.10485092063E+03  0.11462302375E+03  0.10000000000E+01 0.  0.
<mgrwt>
<rscale>  0 0.12499625E+03</rscale>
<asrwt>0</asrwt>
<pdfrwt beam="1">  1        4 0.32825809E-01 0.12499625E+03</pdfrwt>
<pdfrwt beam="2">  1       -4 0.74370127E-02 0.12499625E+03</pdfrwt>
<totfact> 0.18009962E+03</totfact>
</mgrwt>
</event>
<event>
 5    1  0.1438401E-002  0.1249983E+03  0.7818608E-02  0.1235072E+00
          4   -1    0    0  501    0  0.00000000000E+00  0.00000000000E+00  0.28887329161E+03  0.28887608331E+03  0.12700000000E+01 0. -1.
         -4   -1    0    0    0  501 -0.00000000000E+00 -0.00000000000E+00 -0.13489308218E+02  0.13548960705E+02  0.12700000000E+01 0. -1.
         25    2    1    2    0    0  0.00000000000E+00  0.00000000000E+00  0.27538398340E+03  0.30242504401E+03  0.12499827573E+03 0.  0.
    9000005    1    3    3    0    0 -0.43543519042E+02  0.44371109539E+02  0.15305278984E+03  0.16519984833E+03  0.10000000000E+01 0.  0.
    9000005    1    3    3    0    0  0.43543519042E+02 -0.44371109539E+02  0.12233119356E+03  0.13722519568E+03  0.10000000000E+01 0.  0.
<mgrwt>
<rscale>  0 0.12499828E+03</rscale>
<asrwt>0</asrwt>
<pdfrwt beam="1">  1        4 0.72226126E-01 0.12499828E+03</pdfrwt>
<pdfrwt beam="2">  1       -4 0.33801327E-02 0.12499828E+03</pdfrwt>
<totfact> 0.12903871E+03</totfact>
</mgrwt>
</event>
<event>
 5    1  0.1438401E-002  0.1249957E+03  0.7818608E-02  0.1235076E+00
          4   -1    0    0  501    0  0.00000000000E+00  0.00000000000E+00  0.21420927553E+02  0.21458542291E+02  0.12700000000E+01 0.  1.
         -4   -1    0    0    0  501 -0.00000000000E+00 -0.00000000000E+00 -0.18214450101E+03  0.18214892849E+03  0.12700000000E+01 0.  1.
         25    2    1    2    0    0  0.00000000000E+00  0.00000000000E+00 -0.16072357346E+03  0.20360747078E+03  0.12499574029E+03 0.  0.
    9000005    1    3    3    0    0  0.19110714338E+02 -0.57678455570E+02 -0.10413279763E+03  0.12056808525E+03  0.10000000000E+01 0.  0.
    9000005    1    3    3    0    0 -0.19110714338E+02  0.57678455570E+02 -0.56590775832E+02  0.83039385527E+02  0.10000000000E+01 0.  0.
<mgrwt>
<rscale>  0 0.12499574E+03</rscale>
<asrwt>0</asrwt>
<pdfrwt beam="1">  1        4 0.53604877E-02 0.12499574E+03</pdfrwt>
<pdfrwt beam="2">  1       -4 0.45541376E-01 0.12499574E+03</pdfrwt>
<totfact> 0.16180198E+03</totfact>
</mgrwt>
</event>
<event>
 5    1  0.1438401E-002  0.1250003E+03  0.7818608E-02  0.1235069E+00
          4   -1    0    0  501    0  0.00000000000E+00  0.00000000000E+00  0.49594739235E+03  0.49594901843E+03  0.12700000000E+01 0.  1.
         -4   -1    0    0    0  501 -0.00000000000E+00 -0.00000000000E+00 -0.78235377222E+01  0.79259474191E+01  0.12700000000E+01 0.  1.
         25    2    1    2    0    0  0.00000000000E+00  0.00000000000E+00  0.48812385463E+03  0.50387496585E+03  0.12500033500E+03 0.  0.
    9000005    1    3    3    0    0  0.58382769461E+01 -0.11929551329E+02 -0.20883332607E+01  0.13481869619E+02  0.10000000000E+01 0.  0.
    9000005    1    3    3    0    0 -0.58382769461E+01  0.11929551329E+02  0.49021218789E+03  0.49039309623E+03  0.10000000000E+01 0.  0.
<mgrwt>
<rscale>  0 0.12500033E+03</rscale>
<asrwt>0</asrwt>
<pdfrwt beam="1">  1        4 0.12399986E+00 0.12500033E+03</pdfrwt>
<pdfrwt beam="2">  1       -4 0.19688889E-02 0.12500033E+03</pdfrwt>
<totfact> 0.86993250E+02</totfact>
</mgrwt>
</event>
<event>
 5    1  0.1438401E-002  0.1250016E+03  0.7818608E-02  0.1235067E+00
          4   -1    0    0  501    0  0.00000000000E+00  0.00000000000E+00  0.32408285504E+03  0.32408534344E+03  0.12700000000E+01 0. -1.
         -4   -1    0    0    0  501 -0.00000000000E+00 -0.00000000000E+00 -0.12017561881E+02  0.12084481518E+02  0.12700000000E+01 0. -1.
         25    2    1    2    0    0  0.00000000000E+00  0.00000000000E+00  0.31206529316E+03  0.33616982495E+03  0.12500161605E+03 0.  0.
    9000005    1    3    3    0    0  0.33177848197E+02  0.41251172350E+02  0.66719470397E+02  0.85175797979E+02  0.10000000000E+01 0.  0.
    9000005    1    3    3    0    0 -0.33177848197E+02 -0.41251172350E+02  0.24534582276E+03  0.25099402698E+03  0.10000000000E+01 0.  0.
<mgrwt>
<rscale>  0 0.12500162E+03</rscale>
<asrwt>0</asrwt>
<pdfrwt beam="1">  1        4 0.81029393E-01 0.12500162E+03</pdfrwt>
<pdfrwt beam="2">  1       -4 0.30130664E-02 0.12500162E+03</pdfrwt>
<totfact> 0.12014194E+03</totfact>
</mgrwt>
</event>
<event>
 5    1  0.1438401E-002  0.1249961E+03  0.7818608E-02  0.1235075E+00
         -4   -1    0    0    0  501 -0.00000000000E+00  0.00000000000E+00  0.63783783514E+03  0.63783909949E+03  0.12700000000E+01 0.  1.
          4   -1    0    0  501    0  0.00000000000E+00 -0.00000000000E+00 -0.60566975643E+01  0.61884154180E+01  0.12700000000E+01 0.  1.
         25    2    1    2    0    0  0.00000000000E+00  0.00000000000E+00  0.63178113757E+03  0.64402751490E+03  0.12499613658E+03 0.  0.
    9000005    1    3    3    0    0  0.92456812571E+01  0.60196397315E+02  0.24377204130E+03  0.25126658550E+03  0.10000000000E+01 0.  0.
    9000005    1    3    3    0    0 -0.92456812571E+01 -0.60196397315E+02  0.38800909627E+03  0.39276092940E+03  0.10000000000E+01 0.  0.
<mgrwt>
<rscale>  0 0.12499614E+03</rscale>
<asrwt>0</asrwt>
<pdfrwt beam="2">  1        4 0.15307972E-02 0.12499614E+03</pdfrwt>
<pdfrwt beam="1">  1       -4 0.15947608E+00 0.12499614E+03</pdfrwt>
<totfact> 0.68204440E+02</totfact>
</mgrwt>
</event>
<event>
 5    1  0.1438401E-002  0.1249991E+03  0.7818608E-02  0.1235071E+00
         -4   -1    0    0    0  501 -0.00000000000E+00  0.00000000000E+00  0.15167402523E+02  0.15220479602E+02  0.12700000000E+01 0.  1.
          4   -1    0    0  501    0  0.00000000000E+00 -0.00000000000E+00 -0.25703428294E+03  0.25703742044E+03  0.12700000000E+01 0.  1.
         25    2    1    2    0    0  0.00000000000E+00  0.00000000000E+00 -0.24186688041E+03  0.27225790004E+03  0.12499910517E+03 0.  0.
    9000005    1    3    3    0    0 -0.52171925526E+02  0.34390274542E+02 -0.12261109385E+03  0.13761933415E+03  0.10000000000E+01 0.  0.
    9000005    1    3    3    0    0  0.52171925526E+02 -0.34390274542E+02 -0.11925578657E+03  0.13463856589E+03  0.10000000000E+01 0.  0.
<mgrwt>
<rscale>  0 0.12499911E+03</rscale>
<asrwt>0</asrwt>
<pdfrwt beam="2">  1        4 0.64265584E-01 0.12499911E+03</pdfrwt>
<pdfrwt beam="1">  1       -4 0.37988783E-02 0.12499911E+03</pdfrwt>
<totfact> 0.13786106E+03</totfact>
</mgrwt>
</event>
<event>
 5    1  0.1438401E-002  0.1250035E+03  0.7818608E-02  0.1235064E+00
          4   -1    0    0  501    0  0.00000000000E+00  0.00000000000E+00  0.78498411067E+02  0.78508683851E+02  0.12700000000E+01 0.  1.
         -4   -1    0    0    0  501 -0.00000000000E+00 -0.00000000000E+00 -0.49743312357E+02  0.49759521946E+02  0.12700000000E+01 0.  1.
         25    2    1    2    0    0  0.00000000000E+00  0.00000000000E+00  0.28755098710E+02  0.12826820580E+03  0.12500350762E+03 0.  0.
    9000005    1    3    3    0    0  0.57668756840E+02 -0.23231094744E+02  0.20875385261E+02  0.65590784324E+02  0.10000000000E+01 0.  0.
    9000005    1    3    3    0    0 -0.57668756840E+02  0.23231094744E+02  0.78797134486E+01  0.62677421473E+02  0.10000000000E+01 0.  0.
<mgrwt>
<rscale>  0 0.12500351E+03</rscale>
<asrwt>0</asrwt>
<pdfrwt beam="1">  1        4 0.19627913E-01 0.12500351E+03</pdfrwt>
<pdfrwt beam="2">  1       -4 0.12439138E-01 0.12500351E+03</pdfrwt>
<totfact> 0.19656344E+03</totfact>
</mgrwt>
</event>
<event>
 5    1  0.1438401E-002  0.1249996E+03  0.7818608E-02  0.1235070E+00
          4   -1    0    0  501    0  0.00000000000E+00  0.00000000000E+00  0.18910383057E+02  0.18952980962E+02  0.12700000000E+01 0.  1.
         -4   -1    0    0    0  501 -0.00000000000E+00 -0.00000000000E+00 -0.20628829830E+03  0.20629220760E+03  0.12700000000E+01 0.  1.
         25    2    1    2    0    0  0.00000000000E+00  0.00000000000E+00 -0.18737791524E+03  0.22524518856E+03  0.12499964739E+03 0.  0.
    9000005    1    3    3    0    0 -0.52936449123E+02  0.18629916458E+02 -0.14323112905E+03  0.15383594431E+03  0.10000000000E+01 0.  0.
    9000005    1    3    3    0    0  0.52936449123E+02 -0.18629916458E+02 -0.44146786193E+02  0.71409244248E+02  0.10000000000E+01 0.  0.
<mgrwt>
<rscale>  0 0.12499965E+03</rscale>
<asrwt>0</asrwt>
<pdfrwt beam="1">  1        4 0.47334098E-02 0.12499965E+03</pdfrwt>
<pdfrwt beam="2">  1       -4 0.51577881E-01 0.12499965E+03</pdfrwt>
<totfact> 0.15358838E+03</totfact>
</mgrwt>
</event>
<event>
 5    1  0.1438401E-002  0.1249994E+03  0.7818608E-02  0.1235070E+00
         -4   -1    0    0    0  501 -0.00000000000E+00  0.00000000000E+00  0.13026156179E+03  0.13026775265E+03  0.12700000000E+01 0.  1.
          4   -1    0    0  501    0  0.00000000000E+00 -0.00000000000E+00 -0.29967122308E+02  0.29994021394E+02  0.12700000000E+01 0.  1.
         25    2    1    2    0    0  0.00000000000E+00  0.00000000000E+00  0.10029443948E+03  0.16026177404E+03  0.12499944651E+03 0.  0.
    9000005    1    3    3    0    0  0.20264978037E+02 -0.49598428351E+02  0.89093792401E+01  0.54323571938E+02  0.10000000000E+01 0.  0.
    9000005    1    3    3    0    0 -0.20264978037E+02  0.49598428351E+02  0.91385060242E+02  0.10593820210E+03  0.10000000000E+01 0.  0.
<mgrwt>
<rscale>  0 0.12499945E+03</rscale>
<asrwt>0</asrwt>
<pdfrwt beam="2">  1        4 0.74959169E-02 0.12499945E+03</pdfrwt>
<pdfrwt beam="1">  1       -4 0.32569526E-01 0.12499945E+03</pdfrwt>
<totfact> 0.18045674E+03</totfact>
</mgrwt>
</event>
<event>
 5    1  0.1438401E-002  0.1249988E+03  0.7818608E-02  0.1235071E+00
          4   -1    0    0  501    0  0.00000000000E+00  0.00000000000E+00  0.35502438310E+02  0.35525146389E+02  0.12700000000E+01 0.  1.
         -4   -1    0    0    0  501 -0.00000000000E+00 -0.00000000000E+00 -0.10996407261E+03  0.10997140613E+03  0.12700000000E+01 0.  1.
         25    2    1    2    0    0  0.00000000000E+00  0.00000000000E+00 -0.74461634304E+02  0.14549655252E+03  0.12499884724E+03 0.  0.
    9000005    1    3    3    0    0  0.97839960242E+01 -0.53757622287E+01  0.34338081654E+02  0.36121036107E+02  0.10000000000E+01 0.  0.
    9000005    1    3    3    0    0 -0.97839960242E+01  0.53757622287E+01 -0.10879971596E+03  0.10937551641E+03  0.10000000000E+01 0.  0.
<mgrwt>
<rscale>  0 0.12499885E+03</rscale>
<asrwt>0</asrwt>
<pdfrwt beam="1">  1        4 0.88793650E-02 0.12499885E+03</pdfrwt>
<pdfrwt beam="2">  1       -4 0.27494773E-01 0.12499885E+03</pdfrwt>
<totfact> 0.18762959E+03</totfact>
</mgrwt>
</event>
<event>
 5    1  0.1438401E-002  0.1250014E+03  0.7818608E-02  0.1235067E+00
          4   -1    0    0  501    0  0.00000000000E+00  0.00000000000E+00  0.11314891969E+02  0.11385942221E+02  0.12700000000E+01 0. -1.
         -4   -1    0    0    0  501 -0.00000000000E+00 -0.00000000000E+00 -0.34408603134E+03  0.34408837507E+03  0.12700000000E+01 0. -1.
         25    2    1    2    0    0  0.00000000000E+00  0.00000000000E+00 -0.33277113937E+03  0.35547431730E+03  0.12500143623E+03 0.  0.
    9000005    1    3    3    0    0  0.54877134496E+02 -0.11476497378E+02 -0.24489245022E+03  0.25123001822E+03  0.10000000000E+01 0.  0.
    9000005    1    3    3    0    0 -0.54877134496E+02  0.11476497378E+02 -0.87878689152E+02  0.10424429907E+03  0.10000000000E+01 0.  0.
<mgrwt>
<rscale>  0 0.12500144E+03</rscale>
<asrwt>0</asrwt>
<pdfrwt beam="1">  1        4 0.28378984E-02 0.12500144E+03</pdfrwt>
<pdfrwt beam="2">  1       -4 0.86030647E-01 0.12500144E+03</pdfrwt>
<totfact> 0.11547458E+03</totfact>
</mgrwt>
</event>
<event>
 5    1  0.1438401E-002  0.1249967E+03  0.7818608E-02  0.1235074E+00
          4   -1    0    0  501    0  0.00000000000E+00  0.00000000000E+00  0.22652005863E+02  0.22687579633E+02  0.12700000000E+01 0.  1.
         -4   -1    0    0    0  501 -0.00000000000E+00 -0.00000000000E+00 -0.17226376809E+03  0.17226844951E+03  0.12700000000E+01 0.  1.
         25    2    1    2    0    0  0.00000000000E+00  0.00000000000E+00 -0.14961176223E+03  0.19495602914E+03  0.12499669557E+03 0.  0.
    9000005    1    3    3    0    0  0.16995966640E+02 -0.75157251596E+01 -0.16786190680E+03  0.16889040459E+03  0.10000000000E+01 0.  0.
    9000005    1    3    3    0    0 -0.16995966640E+02  0.75157251596E+01  0.18250144572E+02  0.26065624558E+02  0.10000000000E+01 0.  0.
<mgrwt>
<rscale>  0 0.12499670E+03</rscale>
<asrwt>0</asrwt>
<pdfrwt beam="1">  1        4 0.56680339E-02 0.12499670E+03</pdfrwt>
<pdfrwt beam="2">  1       -4 0.43070970E-01 0.12499670E+03</pdfrwt>
<totfact> 0.16527286E+03</totfact>
</mgrwt>
</event>
<event>
 5    1  0.1438401E-002  0.1249938E+03  0.7818608E-02  0.1235079E+00
          4   -1    0    0  501    0  0.00000000000E+00  0.00000000000E+00  0.89764289893E+02  0.89773273528E+02  0.12700000000E+01 0.  1.
         -4   -1    0    0    0  501 -0.00000000000E+00 -0.00000000000E+00 -0.43491996310E+02  0.43510534852E+02  0.12700000000E+01 0.  1.
         25    2    1    2    0    0  0.00000000000E+00  0.00000000000E+00  0.46272293582E+02  0.13328380838E+03  0.12499379354E+03 0.  0.
    9000005    1    3    3    0    0 -0.39047769951E+02 -0.48680322013E+02  0.19703973844E+02  0.65450352747E+02  0.10000000000E+01 0.  0.
    9000005    1    3    3    0    0  0.39047769951E+02  0.48680322013E+02  0.26568319739E+02  0.67833455633E+02  0.10000000000E+01 0.  0.
<mgrwt>
<rscale>  0 0.12499379E+03</rscale>
<asrwt>0</asrwt>
<pdfrwt beam="1">  1        4 0.22444513E-01 0.12499379E+03</pdfrwt>
<pdfrwt beam="2">  1       -4 0.10876439E-01 0.12499379E+03</pdfrwt>
<totfact> 0.19392219E+03</totfact>
</mgrwt>
</event>
<event>
 5    1  0.1438401E-002  0.1250070E+03  0.7818608E-02  0.1235058E+00
         -4   -1    0    0    0  501 -0.00000000000E+00  0.00000000000E+00  0.49985382623E+02  0.50001513737E+02  0.12700000000E+01 0.  1.
          4   -1    0    0  501    0  0.00000000000E+00 -0.00000000000E+00 -0.78122757622E+02  0.78133079796E+02  0.12700000000E+01 0.  1.
         25    2    1    2    0    0  0.00000000000E+00  0.00000000000E+00 -0.28137374999E+02  0.12813459353E+03  0.12500704855E+03 0.  0.
    9000005    1    3    3    0    0  0.56236896608E+02 -0.23477422409E+02 -0.28268535267E+02  0.67185474540E+02  0.10000000000E+01 0.  0.
    9000005    1    3    3    0    0 -0.56236896608E+02  0.23477422409E+02  0.13116026808E+00  0.60949118993E+02  0.10000000000E+01 0.  0.
<mgrwt>
<rscale>  0 0.12500705E+03</rscale>
<asrwt>0</asrwt>
<pdfrwt beam="2">  1        4 0.19533996E-01 0.12500705E+03</pdfrwt>
<pdfrwt beam="1">  1       -4 0.12499652E-01 0.12500705E+03</pdfrwt>
<totfact> 0.19661979E+03</totfact>
</mgrwt>
</event>
<event>
 5    1  0.1438401E-002  0.1249902E+03  0.7818608E-02  0.1235085E+00
          4   -1    0    0  501    0  0.00000000000E+00  0.00000000000E+00  0.28220015451E+02  0.28248578231E+02  0.12700000000E+01 0. -1.
         -4   -1    0    0    0  501 -0.00000000000E+00 -0.00000000000E+00 -0.13829813061E+03  0.13830396173E+03  0.12700000000E+01 0. -1.
         25    2    1    2    0    0  0.00000000000E+00  0.00000000000E+00 -0.11007811516E+03  0.16655253996E+03  0.12499022814E+03 0.  0.
    9000005    1    3    3    0    0  0.14089400206E+02 -0.59422875569E+02 -0.72669214871E+02  0.94928415814E+02  0.10000000000E+01 0.  0.
    9000005    1    3    3    0    0 -0.14089400206E+02  0.59422875569E+02 -0.37408900288E+02  0.71624124147E+02  0.10000000000E+01 0.  0.
<mgrwt>
<rscale>  0 0.12499023E+03</rscale>
<asrwt>0</asrwt>
<pdfrwt beam="1">  1        4 0.70593035E-02 0.12499023E+03</pdfrwt>
<pdfrwt beam="2">  1       -4 0.34578830E-01 0.12499023E+03</pdfrwt>
<totfact> 0.17757702E+03</totfact>
</mgrwt>
</event>
<event>
 5    1  0.1438401E-002  0.1250232E+03  0.7818608E-02  0.1235033E+00
         -4   -1    0    0    0  501 -0.00000000000E+00  0.00000000000E+00  0.11346674770E+03  0.11347385485E+03  0.12700000000E+01 0. -1.
          4   -1    0    0  501    0  0.00000000000E+00 -0.00000000000E+00 -0.34419282741E+02  0.34442704952E+02  0.12700000000E+01 0. -1.
         25    2    1    2    0    0  0.00000000000E+00  0.00000000000E+00  0.79047464963E+02  0.14791655980E+03  0.12502322563E+03 0.  0.
    9000005    1    3    3    0    0 -0.34365591142E+02  0.14686079730E+01 -0.22220139365E+02  0.40961997721E+02  0.10000000000E+01 0.  0.
    9000005    1    3    3    0    0  0.34365591142E+02 -0.14686079730E+01  0.10126760433E+03  0.10695456208E+03  0.10000000000E+01 0.  0.
<mgrwt>
<rscale>  0 0.12502323E+03</rscale>
<asrwt>0</asrwt>
<pdfrwt beam="2">  1        4 0.86086369E-02 0.12502323E+03</pdfrwt>
<pdfrwt beam="1">  1       -4 0.28370503E-01 0.12502323E+03</pdfrwt>
<totfact> 0.18631626E+03</totfact>
</mgrwt>
</event>
<event>
 5    1  0.1438401E-002  0.1249946E+03  0.7818608E-02  0.1235078E+00
         -4   -1    0    0    0  501 -0.00000000000E+00  0.00000000000E+00  0.35875346634E+03  0.35875571426E+03  0.12700000000E+01 0.  1.
          4   -1    0    0  501    0  0.00000000000E+00 -0.00000000000E+00 -0.10848138121E+02  0.10922225080E+02  0.12700000000E+01 0.  1.
         25    2    1    2    0    0  0.00000000000E+00  0.00000000000E+00  0.34790532822E+03  0.36967793934E+03  0.12499464560E+03 0.  0.
    9000005    1    3    3    0    0  0.26651609706E+02 -0.54157946314E+02  0.22178128120E+03  0.22985066487E+03  0.10000000000E+01 0.  0.
    9000005    1    3    3    0    0 -0.26651609706E+02  0.54157946314E+02  0.12612404702E+03  0.13982727447E+03  0.10000000000E+01 0.  0.
<mgrwt>
<rscale>  0 0.12499465E+03</rscale>
<asrwt>0</asrwt>
<pdfrwt beam="2">  1        4 0.27215764E-02 0.12499465E+03</pdfrwt>
<pdfrwt beam="1">  1       -4 0.89697908E-01 0.12499465E+03</pdfrwt>
<totfact> 0.11223039E+03</totfact>
</mgrwt>
</event>
<event>
 5    1  0.1438401E-002  0.1249975E+03  0.7818608E-02  0.1235073E+00
         -4   -1    0    0    0  501 -0.00000000000E+00  0.00000000000E+00  0.23214046614E+02  0.23248760401E+02  0.12700000000E+01 0. -1.
          4   -1    0    0  501    0  0.00000000000E+00 -0.00000000000E+00 -0.16810149862E+03  0.16810629595E+03  0.12700000000E+01 0. -1.
         25    2    1    2    0    0  0.00000000000E+00  0.00000000000E+00 -0.14488745201E+03  0.19135505635E+03  0.12499753535E+03 0.  0.
    9000005    1    3    3    0    0  0.56879118294E+01 -0.58871683143E+02 -0.41564560884E+02  0.72296888858E+02  0.10000000000E+01 0.  0.
    9000005    1    3    3    0    0 -0.56879118294E+01  0.58871683143E+02 -0.10332289113E+03  0.11905816750E+03  0.10000000000E+01 0.  0.
<mgrwt>
<rscale>  0 0.12499754E+03</rscale>
<asrwt>0</asrwt>
<pdfrwt beam="2">  1        4 0.42030310E-01 0.12499754E+03</pdfrwt>
<pdfrwt beam="1">  1       -4 0.58084510E-02 0.12499754E+03</pdfrwt>
<totfact> 0.16675104E+03</totfact>
</mgrwt>
</event>
<event>
 5    1  0.1438401E-002  0.1250021E+03  0.7818608E-02  0.1235066E+00
          4   -1    0    0  501    0  0.00000000000E+00  0.00000000000E+00  0.35949146416E+01  0.38126514764E+01  0.12700000000E+01 0. -1.
         -4   -1    0    0    0  501 -0.00000000000E+00 -0.00000000000E+00 -0.10544815081E+04  0.10544822729E+04  0.12700000000E+01 0. -1.
         25    2    1    2    0    0  0.00000000000E+00  0.00000000000E+00 -0.10508865934E+04  0.10582949243E+04  0.12500205844E+03 0.  0.
    9000005    1    3    3    0    0 -0.63798091505E+01 -0.37516481037E+02 -0.10577230795E+03  0.11241427598E+03  0.10000000000E+01 0.  0.
    9000005    1    3    3    0    0  0.63798091505E+01  0.37516481037E+02 -0.94511428549E+03  0.94588064836E+03  0.10000000000E+01 0.  0.
<mgrwt>
<rscale>  0 0.12500206E+03</rscale>
<asrwt>0</asrwt>
<pdfrwt beam="1">  1        4 0.92604497E-03 0.12500206E+03</pdfrwt>
<pdfrwt beam="2">  1       -4 0.26364666E+00 0.12500206E+03</pdfrwt>
<totfact> 0.33325571E+02</totfact>
</mgrwt>
</event>
<event>
 5    1  0.1438401E-002  0.1250090E+03  0.7818608E-02  0.1235055E+00
         -4   -1    0    0    0  501 -0.00000000000E+00  0.00000000000E+00  0.14827931127E+02  0.14882218971E+02  0.12700000000E+01 0.  1.
          4   -1    0    0  501    0  0.00000000000E+00 -0.00000000000E+00 -0.26293937537E+03  0.26294244241E+03  0.12700000000E+01 0.  1.
         25    2    1    2    0    0  0.00000000000E+00  0.00000000000E+00 -0.24811144424E+03  0.27782466138E+03  0.12500901450E+03 0.  0.
    9000005    1    3    3    0    0  0.35897125711E+02 -0.51022846370E+02 -0.13233528904E+03  0.14630640182E+03  0.10000000000E+01 0.  0.
    9000005    1    3    3    0    0 -0.35897125711E+02  0.51022846370E+02 -0.11577615520E+03  0.13151825956E+03  0.10000000000E+01 0.  0.
<mgrwt>
<rscale>  0 0.12500901E+03</rscale>
<asrwt>0</asrwt>
<pdfrwt beam="2">  1        4 0.65741998E-01 0.12500901E+03</pdfrwt>
<pdfrwt beam="1">  1       -4 0.37141530E-02 0.12500901E+03</pdfrwt>
<totfact> 0.13613325E+03</totfact>
</mgrwt>
</event>
<event>
 5    1  0.1438401E-002  0.1249986E+03  0.7818608E-02  0.1235071E+00
         -4   -1    0    0    0  501 -0.00000000000E+00  0.00000000000E+00  0.12991331484E+02  0.13053259889E+02  0.12700000000E+01 0.  1.
          4   -1    0    0  501    0  0.00000000000E+00 -0.00000000000E+00 -0.29989623799E+03  0.29989892707E+03  0.12700000000E+01 0.  1.
         25    2    1    2    0    0  0.00000000000E+00  0.00000000000E+00 -0.28690490650E+03  0.31295218696E+03  0.12499858379E+03 0.  0.
    9000005    1    3    3    0    0  0.26125640968E+02  0.19725034049E+02 -0.27672393301E+03  0.27865527302E+03  0.10000000000E+01 0.  0.
    9000005    1    3    3    0    0 -0.26125640968E+02 -0.19725034049E+02 -0.10180973491E+02  0.34296913935E+02  0.10000000000E+01 0.  0.
<mgrwt>
<rscale>  0 0.12499858E+03</rscale>
<asrwt>0</asrwt>
<pdfrwt beam="2">  1        4 0.74982114E-01 0.12499858E+03</pdfrwt>
<pdfrwt beam="1">  1       -4 0.32559110E-02 0.12499858E+03</pdfrwt>
<totfact> 0.12616068E+03</totfact>
</mgrwt>
</event>
<event>
 5    1  0.1438401E-002  0.1250041E+03  0.7818608E-02  0.1235063E+00
          4   -1    0    0  501    0  0.00000000000E+00  0.00000000000E+00  0.12762275862E+03  0.12762907748E+03  0.12700000000E+01 0. -1.
         -4   -1    0    0    0  501 -0.00000000000E+00 -0.00000000000E+00 -0.30589536981E+02  0.30615889220E+02  0.12700000000E+01 0. -1.
         25    2    1    2    0    0  0.00000000000E+00  0.00000000000E+00  0.97033221642E+02  0.15824496670E+03  0.12500409347E+03 0.  0.
    9000005    1    3    3    0    0 -0.24882533374E+02  0.47825986627E+02  0.88529249457E+02  0.10365757798E+03  0.10000000000E+01 0.  0.
    9000005    1    3    3    0    0  0.24882533374E+02 -0.47825986627E+02  0.85039721853E+01  0.54587388717E+02  0.10000000000E+01 0.  0.
<mgrwt>
<rscale>  0 0.12500409E+03</rscale>
<asrwt>0</asrwt>
<pdfrwt beam="1">  1        4 0.31909773E-01 0.12500409E+03</pdfrwt>
<pdfrwt beam="2">  1       -4 0.76514682E-02 0.12500409E+03</pdfrwt>
<totfact> 0.18138936E+03</totfact>
</mgrwt>
</event>
<event>
 5    1  0.1438401E-002  0.1250001E+03  0.7818608E-02  0.1235069E+00
         -4   -1    0    0    0  501 -0.00000000000E+00  0.00000000000E+00  0.89618845861E+01  0.90514239396E+01  0.12700000000E+01 0.  1.
          4   -1    0    0  501    0  0.00000000000E+00 -0.00000000000E+00 -0.43361708907E+03  0.43361894889E+03  0.12700000000E+01 0.  1.
         25    2    1    2    0    0  0.00000000000E+00  0.00000000000E+00 -0.42465520449E+03  0.44267037283E+03  0.12500006513E+03 0.  0.
    9000005    1    3    3    0    0  0.13495082037E+02  0.58796335127E+02 -0.15455587597E+03  0.16591457157E+03  0.10000000000E+01 0.  0.
    9000005    1    3    3    0    0 -0.13495082037E+02 -0.58796335127E+02 -0.27009932852E+03  0.27675580126E+03  0.10000000000E+01 0.  0.
<mgrwt>
<rscale>  0 0.12500007E+03</rscale>
<asrwt>0</asrwt>
<pdfrwt beam="2">  1        4 0.10841563E+00 0.12500007E+03</pdfrwt>
<pdfrwt beam="1">  1       -4 0.22518975E-02 0.12500007E+03</pdfrwt>
<totfact> 0.97347886E+02</totfact>
</mgrwt>
</event>
<event>
 5    1  0.1438401E-002  0.1249984E+03  0.7818608E-02  0.1235072E+00
         -4   -1    0    0    0  501 -0.00000000000E+00  0.00000000000E+00  0.18722088236E+01  0.22623142750E+01  0.12700000000E+01 0.  1.
          4   -1    0    0  501    0  0.00000000000E+00 -0.00000000000E+00 -0.18891383249E+04  0.18891387518E+04  0.12700000000E+01 0.  1.
         25    2    1    2    0    0  0.00000000000E+00  0.00000000000E+00 -0.18872661161E+04  0.18914010661E+04  0.12499839924E+03 0.  0.
    9000005    1    3    3    0    0 -0.25866953017E+02  0.44033231259E+02 -0.14885999682E+04  0.14894760455E+04  0.10000000000E+01 0.  0.
    9000005    1    3    3    0    0  0.25866953017E+02 -0.44033231259E+02 -0.39866614791E+03  0.40192502062E+03  0.10000000000E+01 0.  0.
<mgrwt>
<rscale>  0 0.12499840E+03</rscale>
<asrwt>0</asrwt>
<pdfrwt beam="2">  1        4 0.47232747E+00 0.12499840E+03</pdfrwt>
<pdfrwt beam="1">  1       -4 0.51687523E-03 0.12499840E+03</pdfrwt>
<totfact> 0.37797178E+01</totfact>
</mgrwt>
</event>
<event>
 5    1  0.1438401E-002  0.1250003E+03  0.7818608E-02  0.1235069E+00
         -4   -1    0    0    0  501 -0.00000000000E+00  0.00000000000E+00  0.47029777468E+02  0.47046921989E+02  0.12700000000E+01 0. -1.
          4   -1    0    0  501    0  0.00000000000E+00 -0.00000000000E+00 -0.83022368680E+02  0.83032081759E+02  0.12700000000E+01 0. -1.
         25    2    1    2    0    0  0.00000000000E+00  0.00000000000E+00 -0.35992591212E+02  0.13007900375E+03  0.12500032238E+03 0.  0.
    9000005    1    3    3    0    0 -0.51958881260E+02  0.16735255513E+01 -0.54085947248E+02  0.75025433816E+02  0.10000000000E+01 0.  0.
    9000005    1    3    3    0    0  0.51958881260E+02 -0.16735255513E+01  0.18093356036E+02  0.55053569932E+02  0.10000000000E+01 0.  0.
<mgrwt>
<rscale>  0 0.12500032E+03</rscale>
<asrwt>0</asrwt>
<pdfrwt beam="2">  1        4 0.20758949E-01 0.12500032E+03</pdfrwt>
<pdfrwt beam="1">  1       -4 0.11760802E-01 0.12500032E+03</pdfrwt>
<totfact> 0.19559989E+03</totfact>
</mgrwt>
</event>
<event>
 5    1  0.1438401E-002  0.1250096E+03  0.7818608E-02  0.1235054E+00
         -4   -1    0    0    0  501 -0.00000000000E+00  0.00000000000E+00  0.56094368174E+03  0.56094511940E+03  0.12700000000E+01 0. -1.
          4   -1    0    0  501    0  0.00000000000E+00 -0.00000000000E+00 -0.69054305562E+01  0.70212442749E+01  0.12700000000E+01 0. -1.
         25    2    1    2    0    0  0.00000000000E+00  0.00000000000E+00  0.55403825118E+03  0.56796636368E+03  0.12500962562E+03 0.  0.
    9000005    1    3    3    0    0 -0.48205947403E+02  0.17841968138E+02  0.11550832398E+03  0.12643307360E+03  0.10000000000E+01 0.  0.
    9000005    1    3    3    0    0  0.48205947403E+02 -0.17841968138E+02  0.43852992720E+03  0.44153329008E+03  0.10000000000E+01 0.  0.
<mgrwt>
<rscale>  0 0.12500963E+03</rscale>
<asrwt>0</asrwt>
<pdfrwt beam="2">  1        4 0.17410145E-02 0.12500963E+03</pdfrwt>
<pdfrwt beam="1">  1       -4 0.14025054E+00 0.12500963E+03</pdfrwt>
<totfact> 0.77670269E+02</totfact>
</mgrwt>
</event>
<event>
 5    1  0.1438401E-002  0.1249985E+03  0.7818608E-02  0.1235072E+00
          4   -1    0    0  501    0  0.00000000000E+00  0.00000000000E+00  0.14450804169E+03  0.14451362224E+03  0.12700000000E+01 0.  1.
         -4   -1    0    0    0  501 -0.00000000000E+00 -0.00000000000E+00 -0.27009685323E+02  0.27039526646E+02  0.12700000000E+01 0.  1.
         25    2    1    2    0    0  0.00000000000E+00  0.00000000000E+00  0.11749835636E+03  0.17155314888E+03  0.12499847657E+03 0.  0.
    9000005    1    3    3    0    0 -0.32615602440E+02  0.31875299909E+02  0.11293205613E+00  0.45616060992E+02  0.10000000000E+01 0.  0.
    9000005    1    3    3    0    0  0.32615602440E+02 -0.31875299909E+02  0.11738542431E+03  0.12593708789E+03  0.10000000000E+01 0.  0.
<mgrwt>
<rscale>  0 0.12499848E+03</rscale>
<asrwt>0</asrwt>
<pdfrwt beam="1">  1        4 0.36131438E-01 0.12499848E+03</pdfrwt>
<pdfrwt beam="2">  1       -4 0.67568491E-02 0.12499848E+03</pdfrwt>
<totfact> 0.17527840E+03</totfact>
</mgrwt>
</event>
<event>
 5    1  0.1438401E-002  0.1249888E+03  0.7818608E-02  0.1235087E+00
          4   -1    0    0  501    0  0.00000000000E+00  0.00000000000E+00  0.30439009573E+02  0.30465492016E+02  0.12700000000E+01 0.  1.
         -4   -1    0    0    0  501 -0.00000000000E+00 -0.00000000000E+00 -0.12822197077E+03  0.12822826010E+03  0.12700000000E+01 0.  1.
         25    2    1    2    0    0  0.00000000000E+00  0.00000000000E+00 -0.97782961199E+02  0.15869375212E+03  0.12498879734E+03 0.  0.
    9000005    1    3    3    0    0 -0.70142533538E+01 -0.62054496446E+02 -0.46171439359E+02  0.77670857416E+02  0.10000000000E+01 0.  0.
    9000005    1    3    3    0    0  0.70142533538E+01  0.62054496446E+02 -0.51611521841E+02  0.81022894702E+02  0.10000000000E+01 0.  0.
<mgrwt>
<rscale>  0 0.12498880E+03</rscale>
<asrwt>0</asrwt>
<pdfrwt beam="1">  1        4 0.76138492E-02 0.12498880E+03</pdfrwt>
<pdfrwt beam="2">  1       -4 0.32059588E-01 0.12498880E+03</pdfrwt>
<totfact> 0.18124121E+03</totfact>
</mgrwt>
</event>
<event>
 5    1  0.1438401E-002  0.1250005E+03  0.7818608E-02  0.1235069E+00
          4   -1    0    0  501    0  0.00000000000E+00  0.00000000000E+00  0.16043386807E+03  0.16043889468E+03  0.12700000000E+01 0.  1.
         -4   -1    0    0    0  501 -0.00000000000E+00 -0.00000000000E+00 -0.24326254438E+02  0.24359383305E+02  0.12700000000E+01 0.  1.
         25    2    1    2    0    0  0.00000000000E+00  0.00000000000E+00  0.13610761363E+03  0.18479827798E+03  0.12500048422E+03 0.  0.
    9000005    1    3    3    0    0  0.29804926526E+02  0.22607928177E+02  0.14205894451E+03  0.14690539737E+03  0.10000000000E+01 0.  0.
    9000005    1    3    3    0    0 -0.29804926526E+02 -0.22607928177E+02 -0.59513308755E+01  0.37892880609E+02  0.10000000000E+01 0.  0.
<mgrwt>
<rscale>  0 0.12500048E+03</rscale>
<asrwt>0</asrwt>
<pdfrwt beam="1">  1        4 0.40113236E-01 0.12500048E+03</pdfrwt>
<pdfrwt beam="2">  1       -4 0.60863330E-02 0.12500048E+03</pdfrwt>
<totfact> 0.16949211E+03</totfact>
</mgrwt>
</event>
<event>
 5    1  0.1438401E-002  0.1249970E+03  0.7818608E-02  0.1235074E+00
          4   -1    0    0  501    0  0.00000000000E+00  0.00000000000E+00  0.79398140665E+01  0.80407429639E+01  0.12700000000E+01 0. -1.
         -4   -1    0    0    0  501 -0.00000000000E+00 -0.00000000000E+00 -0.48874986870E+03  0.48875151873E+03  0.12700000000E+01 0. -1.
         25    2    1    2    0    0  0.00000000000E+00  0.00000000000E+00 -0.48081005464E+03  0.49679226169E+03  0.12499697051E+03 0.  0.
    9000005    1    3    3    0    0 -0.42383293903E+02  0.37448552357E+02 -0.13477752656E+03  0.14616675183E+03  0.10000000000E+01 0.  0.
    9000005    1    3    3    0    0  0.42383293903E+02 -0.37448552357E+02 -0.34603252808E+03  0.35062550986E+03  0.10000000000E+01 0.  0.
<mgrwt>
<rscale>  0 0.12499697E+03</rscale>
<asrwt>0</asrwt>
<pdfrwt beam="1">  1        4 0.19977775E-02 0.12499697E+03</pdfrwt>
<pdfrwt beam="2">  1       -4 0.12220019E+00 0.12499697E+03</pdfrwt>
<totfact> 0.88125488E+02</totfact>
</mgrwt>
</event>
<event>
 5    1  0.1438401E-002  0.1249991E+03  0.7818608E-02  0.1235071E+00
          4   -1    0    0  501    0  0.00000000000E+00  0.00000000000E+00  0.12737687916E+03  0.12738321021E+03  0.12700000000E+01 0. -1.
         -4   -1    0    0    0  501 -0.00000000000E+00 -0.00000000000E+00 -0.30646177790E+02  0.30672481366E+02  0.12700000000E+01 0. -1.
         25    2    1    2    0    0  0.00000000000E+00  0.00000000000E+00  0.96730701369E+02  0.15805569158E+03  0.12499909221E+03 0.  0.
    9000005    1    3    3    0    0 -0.96029755790E+01  0.56203801361E+02  0.80704477416E+02  0.98819517821E+02  0.10000000000E+01 0.  0.
    9000005    1    3    3    0    0  0.96029755790E+01 -0.56203801361E+02  0.16026223954E+02  0.59236173759E+02  0.10000000000E+01 0.  0.
<mgrwt>
<rscale>  0 0.12499909E+03</rscale>
<asrwt>0</asrwt>
<pdfrwt beam="1">  1        4 0.31848299E-01 0.12499909E+03</pdfrwt>
<pdfrwt beam="2">  1       -4 0.76656239E-02 0.12499909E+03</pdfrwt>
<totfact> 0.18150025E+03</totfact>
</mgrwt>
</event>
<event>
 5    1  0.1438401E-002  0.1250091E+03  0.7818608E-02  0.1235055E+00
         -4   -1    0    0    0  501 -0.00000000000E+00  0.00000000000E+00  0.24655962325E+03  0.24656289404E+03  0.12700000000E+01 0. -1.
          4   -1    0    0  501    0  0.00000000000E+00 -0.00000000000E+00 -0.15816491178E+02  0.15867397177E+02  0.12700000000E+01 0. -1.
         25    2    1    2    0    0  0.00000000000E+00  0.00000000000E+00  0.23074313208E+03  0.26243029122E+03  0.12500905867E+03 0.  0.
    9000005    1    3    3    0    0 -0.12814388853E+02  0.11889642216E+02 -0.10590114769E+02  0.20462714495E+02  0.10000000000E+01 0.  0.
    9000005    1    3    3    0    0  0.12814388853E+02 -0.11889642216E+02  0.24133324685E+03  0.24196757673E+03  0.10000000000E+01 0.  0.
<mgrwt>
<rscale>  0 0.12500906E+03</rscale>
<asrwt>0</asrwt>
<pdfrwt beam="2">  1        4 0.39608948E-02 0.12500906E+03</pdfrwt>
<pdfrwt beam="1">  1       -4 0.61646680E-01 0.12500906E+03</pdfrwt>
<totfact> 0.14090510E+03</totfact>
</mgrwt>
</event>
<event>
 4    1  0.1438401E-002  0.1248156E+03  0.7818608E-02  0.1235358E+00
         -4   -1    0    0    0  501 -0.00000000000E+00  0.00000000000E+00  0.32447171270E+03  0.32447419812E+03  0.12700000000E+01 0. -1.
          4   -1    0    0  501    0  0.00000000000E+00 -0.00000000000E+00 -0.11967170684E+02  0.12034370535E+02  0.12700000000E+01 0. -1.
    9000005    1    1    2    0    0 -0.28178923676E+02 -0.54300880085E+02  0.18939222723E+03  0.19903028175E+03  0.10000000000E+01 0.  0.
    9000005    1    1    2    0    0  0.28178923676E+02  0.54300880085E+02  0.12311231478E+03  0.13747828690E+03  0.10000000000E+01 0.  0.
<mgrwt>
<rscale>  0 0.12481558E+03</rscale>
<asrwt>0</asrwt>
<pdfrwt beam="2">  1        4 0.30005034E-02 0.12481558E+03</pdfrwt>
<pdfrwt beam="1">  1       -4 0.81126636E-01 0.12481558E+03</pdfrwt>
<totfact> 0.12056939E+03</totfact>
</mgrwt>
</event>
<event>
 5    1  0.1438401E-002  0.1249984E+03  0.7818608E-02  0.1235072E+00
          4   -1    0    0  501    0  0.00000000000E+00  0.00000000000E+00  0.10849738604E+03  0.10850481868E+03  0.12700000000E+01 0.  1.
         -4   -1    0    0    0  501 -0.00000000000E+00 -0.00000000000E+00 -0.35982371171E+02  0.36004776559E+02  0.12700000000E+01 0.  1.
         25    2    1    2    0    0  0.00000000000E+00  0.00000000000E+00  0.72515014869E+02  0.14450959524E+03  0.12499838293E+03 0.  0.
    9000005    1    3    3    0    0  0.22030933883E+02  0.58305158496E+02  0.41465746026E+02  0.74868295349E+02  0.10000000000E+01 0.  0.
    9000005    1    3    3    0    0 -0.22030933883E+02 -0.58305158496E+02  0.31049268844E+02  0.69641299893E+02  0.10000000000E+01 0.  0.
<mgrwt>
<rscale>  0 0.12499838E+03</rscale>
<asrwt>0</asrwt>
<pdfrwt beam="1">  1        4 0.27128076E-01 0.12499838E+03</pdfrwt>
<pdfrwt beam="2">  1       -4 0.89993226E-02 0.12499838E+03</pdfrwt>
<totfact> 0.18812675E+03</totfact>
</mgrwt>
</event>
<event>
 5    1  0.1438401E-002  0.1250006E+03  0.7818608E-02  0.1235068E+00
          4   -1    0    0  501    0  0.00000000000E+00  0.00000000000E+00  0.88730103423E+02  0.88739191755E+02  0.12700000000E+01 0.  1.
         -4   -1    0    0    0  501 -0.00000000000E+00 -0.00000000000E+00 -0.44003901484E+02  0.44022224453E+02  0.12700000000E+01 0.  1.
         25    2    1    2    0    0  0.00000000000E+00  0.00000000000E+00  0.44726201939E+02  0.13276141621E+03  0.12500064197E+03 0.  0.
    9000005    1    3    3    0    0  0.11451966055E+02 -0.24333869108E+02 -0.37548384804E+02  0.46197033603E+02  0.10000000000E+01 0.  0.
    9000005    1    3    3    0    0 -0.11451966055E+02  0.24333869108E+02  0.82274586743E+02  0.86564382606E+02  0.10000000000E+01 0.  0.
<mgrwt>
<rscale>  0 0.12500064E+03</rscale>
<asrwt>0</asrwt>
<pdfrwt beam="1">  1        4 0.22185952E-01 0.12500064E+03</pdfrwt>
<pdfrwt beam="2">  1       -4 0.11004402E-01 0.12500064E+03</pdfrwt>
<totfact> 0.19416753E+03</totfact>
</mgrwt>
</event>
<event>
 5    1  0.1438401E-002  0.1249987E+03  0.7818608E-02  0.1235071E+00
         -4   -1    0    0    0  501 -0.00000000000E+00  0.00000000000E+00  0.44545167451E+03  0.44545348492E+03  0.12700000000E+01 0.  1.
          4   -1    0    0  501    0  0.00000000000E+00 -0.00000000000E+00 -0.87211841411E+01  0.88131692837E+01  0.12700000000E+01 0.  1.
         25    2    1    2    0    0  0.00000000000E+00  0.00000000000E+00  0.43673049037E+03  0.45426665420E+03  0.12499868759E+03 0.  0.
    9000005    1    3    3    0    0  0.30881196888E+02 -0.25275094332E+02  0.43596387817E+02  0.59111113552E+02  0.10000000000E+01 0.  0.
    9000005    1    3    3    0    0 -0.30881196888E+02  0.25275094332E+02  0.39313410255E+03  0.39515554065E+03  0.10000000000E+01 0.  0.
<mgrwt>
<rscale>  0 0.12499869E+03</rscale>
<asrwt>0</asrwt>
<pdfrwt beam="2">  1        4 0.21920205E-02 0.12499869E+03</pdfrwt>
<pdfrwt beam="1">  1       -4 0.11137464E+00 0.12499869E+03</pdfrwt>
<totfact> 0.95258791E+02</totfact>
</mgrwt>
</event>
<event>
 5    1  0.1438401E-002  0.1250045E+03  0.7818608E-02  0.1235062E+00
         -4   -1    0    0    0  501 -0.00000000000E+00  0.00000000000E+00  0.51437168939E+02  0.51452844901E+02  0.12700000000E+01 0. -1.
          4   -1    0    0  501    0  0.00000000000E+00 -0.00000000000E+00 -0.75915116758E+02  0.75925739064E+02  0.12700000000E+01 0. -1.
         25    2    1    2    0    0  0.00000000000E+00  0.00000000000E+00 -0.24477947819E+02  0.12737858396E+03  0.12500453481E+03 0.  0.
    9000005    1    3    3    0    0 -0.41532615812E+02  0.43565524573E+02 -0.29369564775E+02  0.66981224553E+02  0.10000000000E+01 0.  0.
    9000005    1    3    3    0    0  0.41532615812E+02 -0.43565524573E+02  0.48916169560E+01  0.60397359412E+02  0.10000000000E+01 0.  0.
<mgrwt>
<rscale>  0 0.12500453E+03</rscale>
<asrwt>0</asrwt>
<pdfrwt beam="2">  1        4 0.18982066E-01 0.12500453E+03</pdfrwt>
<pdfrwt beam="1">  1       -4 0.12862580E-01 0.12500453E+03</pdfrwt>
<totfact> 0.19704330E+03</totfact>
</mgrwt>
</event>
<event>
 5    1  0.1438401E-002  0.1250006E+03  0.7818608E-02  0.1235068E+00
          4   -1    0    0  501    0  0.00000000000E+00  0.00000000000E+00  0.15412414609E+02  0.15464650791E+02  0.12700000000E+01 0. -1.
         -4   -1    0    0    0  501 -0.00000000000E+00 -0.00000000000E+00 -0.25296823556E+03  0.25297142349E+03  0.12700000000E+01 0. -1.
         25    2    1    2    0    0  0.00000000000E+00  0.00000000000E+00 -0.23755582095E+03  0.26843607428E+03  0.12500063163E+03 0.  0.
    9000005    1    3    3    0    0 -0.40936726923E+02  0.29751963429E+02 -0.19751437109E+03  0.20389684089E+03  0.10000000000E+01 0.  0.
    9000005    1    3    3    0    0  0.40936726923E+02 -0.29751963429E+02 -0.40041449856E+02  0.64539233383E+02  0.10000000000E+01 0.  0.
<mgrwt>
<rscale>  0 0.12500063E+03</rscale>
<asrwt>0</asrwt>
<pdfrwt beam="1">  1        4 0.38600325E-02 0.12500063E+03</pdfrwt>
<pdfrwt beam="2">  1       -4 0.63248974E-01 0.12500063E+03</pdfrwt>
<totfact> 0.13904008E+03</totfact>
</mgrwt>
</event>
<event>
 5    1  0.1438401E-002  0.1249998E+03  0.7818608E-02  0.1235070E+00
          4   -1    0    0  501    0  0.00000000000E+00  0.00000000000E+00  0.31487650483E+02  0.31513251704E+02  0.12700000000E+01 0. -1.
         -4   -1    0    0    0  501 -0.00000000000E+00 -0.00000000000E+00 -0.12397684110E+03  0.12398334578E+03  0.12700000000E+01 0. -1.
         25    2    1    2    0    0  0.00000000000E+00  0.00000000000E+00 -0.92489190619E+02  0.15549659748E+03  0.12499976578E+03 0.  0.
    9000005    1    3    3    0    0 -0.95565375763E+00 -0.55705987206E+02 -0.81455136161E+02  0.98691486419E+02  0.10000000000E+01 0.  0.
    9000005    1    3    3    0    0  0.95565375763E+00  0.55705987206E+02 -0.11034054459E+02  0.56805111060E+02  0.10000000000E+01 0.  0.
<mgrwt>
<rscale>  0 0.12499977E+03</rscale>
<asrwt>0</asrwt>
<pdfrwt beam="1">  1        4 0.78759262E-02 0.12499977E+03</pdfrwt>
<pdfrwt beam="2">  1       -4 0.30998222E-01 0.12499977E+03</pdfrwt>
<totfact> 0.18271873E+03</totfact>
</mgrwt>
</event>
<event>
 5    1  0.1438401E-002  0.1250038E+03  0.7818608E-02  0.1235063E+00
          4   -1    0    0  501    0  0.00000000000E+00  0.00000000000E+00  0.50945278215E+03  0.50945436512E+03  0.12700000000E+01 0. -1.
         -4   -1    0    0    0  501 -0.00000000000E+00 -0.00000000000E+00 -0.76138133184E+01  0.77190059754E+01  0.12700000000E+01 0. -1.
         25    2    1    2    0    0  0.00000000000E+00  0.00000000000E+00  0.50183896883E+03  0.51717337109E+03  0.12500378047E+03 0.  0.
    9000005    1    3    3    0    0  0.20321346393E+02 -0.13648929901E+02  0.13027436594E+02  0.27748234374E+02  0.10000000000E+01 0.  0.
    9000005    1    3    3    0    0 -0.20321346393E+02  0.13648929901E+02  0.48881153223E+03  0.48942513672E+03  0.10000000000E+01 0.  0.
<mgrwt>
<rscale>  0 0.12500378E+03</rscale>
<asrwt>0</asrwt>
<pdfrwt beam="1">  1        4 0.12737653E+00 0.12500378E+03</pdfrwt>
<pdfrwt beam="2">  1       -4 0.19168005E-02 0.12500378E+03</pdfrwt>
<totfact> 0.84931243E+02</totfact>
</mgrwt>
</event>
<event>
 5    1  0.1438401E-002  0.1250033E+03  0.7818608E-02  0.1235064E+00
         -4   -1    0    0    0  501 -0.00000000000E+00  0.00000000000E+00  0.41373173576E+01  0.43278510739E+01  0.12700000000E+01 0.  1.
          4   -1    0    0  501    0  0.00000000000E+00 -0.00000000000E+00 -0.92275716735E+03  0.92275804130E+03  0.12700000000E+01 0.  1.
         25    2    1    2    0    0  0.00000000000E+00  0.00000000000E+00 -0.91861984999E+03  0.92708589238E+03  0.12500329216E+03 0.  0.
    9000005    1    3    3    0    0  0.32747442041E+02 -0.86137132363E+01 -0.69759460740E+02  0.77549812241E+02  0.10000000000E+01 0.  0.
    9000005    1    3    3    0    0 -0.32747442041E+02  0.86137132363E+01 -0.84886038925E+03  0.84953608014E+03  0.10000000000E+01 0.  0.
<mgrwt>
<rscale>  0 0.12500329E+03</rscale>
<asrwt>0</asrwt>
<pdfrwt beam="2">  1        4 0.23071253E+00 0.12500329E+03</pdfrwt>
<pdfrwt beam="1">  1       -4 0.10582585E-02 0.12500329E+03</pdfrwt>
<totfact> 0.42240212E+02</totfact>
</mgrwt>
</event>
<event>
 5    1  0.1438401E-002  0.1250023E+03  0.7818608E-02  0.1235066E+00
          4   -1    0    0  501    0  0.00000000000E+00  0.00000000000E+00  0.95694635568E+02  0.95703062524E+02  0.12700000000E+01 0. -1.
         -4   -1    0    0    0  501 -0.00000000000E+00 -0.00000000000E+00 -0.40801373691E+02  0.40821134171E+02  0.12700000000E+01 0. -1.
         25    2    1    2    0    0  0.00000000000E+00  0.00000000000E+00  0.54893261877E+02  0.13652419670E+03  0.12500234431E+03 0.  0.
    9000005    1    3    3    0    0  0.65569113883E+01 -0.36191153053E+01 -0.40314814046E+02  0.41016768694E+02  0.10000000000E+01 0.  0.
    9000005    1    3    3    0    0 -0.65569113883E+01  0.36191153053E+01  0.95208075923E+02  0.95507428002E+02  0.10000000000E+01 0.  0.
<mgrwt>
<rscale>  0 0.12500234E+03</rscale>
<asrwt>0</asrwt>
<pdfrwt beam="1">  1        4 0.23927182E-01 0.12500234E+03</pdfrwt>
<pdfrwt beam="2">  1       -4 0.10203867E-01 0.12500234E+03</pdfrwt>
<totfact> 0.19218545E+03</totfact>
</mgrwt>
</event>
<event>
 5    1  0.1438401E-002  0.1249996E+03  0.7818608E-02  0.1235070E+00
          4   -1    0    0  501    0  0.00000000000E+00  0.00000000000E+00  0.47347099150E+03  0.47347269476E+03  0.12700000000E+01 0. -1.
         -4   -1    0    0    0  501 -0.00000000000E+00 -0.00000000000E+00 -0.81995811750E+01  0.82973508692E+01  0.12700000000E+01 0. -1.
         25    2    1    2    0    0  0.00000000000E+00  0.00000000000E+00  0.46527141032E+03  0.48177004563E+03  0.12499956643E+03 0.  0.
    9000005    1    3    3    0    0  0.57773151975E+02  0.23320979854E+02  0.25136624072E+03  0.25897411485E+03  0.10000000000E+01 0.  0.
    9000005    1    3    3    0    0 -0.57773151975E+02 -0.23320979854E+02  0.21390516960E+03  0.22279593078E+03  0.10000000000E+01 0.  0.
<mgrwt>
<rscale>  0 0.12499957E+03</rscale>
<asrwt>0</asrwt>
<pdfrwt beam="1">  1        4 0.11838018E+00 0.12499957E+03</pdfrwt>
<pdfrwt beam="2">  1       -4 0.20623295E-02 0.12499957E+03</pdfrwt>
<totfact> 0.90579175E+02</totfact>
</mgrwt>
</event>
<event>
 5    1  0.1438401E-002  0.1249944E+03  0.7818608E-02  0.1235078E+00
          4   -1    0    0  501    0  0.00000000000E+00  0.00000000000E+00  0.42022741351E+02  0.42041927770E+02  0.12700000000E+01 0. -1.
         -4   -1    0    0    0  501 -0.00000000000E+00 -0.00000000000E+00 -0.92902529423E+02  0.92911209621E+02  0.12700000000E+01 0. -1.
         25    2    1    2    0    0  0.00000000000E+00  0.00000000000E+00 -0.50879788073E+02  0.13495313739E+03  0.12499438570E+03 0.  0.
    9000005    1    3    3    0    0  0.96324067494E+01 -0.26613650702E+02  0.34710905412E+02  0.44798622947E+02  0.10000000000E+01 0.  0.
    9000005    1    3    3    0    0 -0.96324067494E+01  0.26613650702E+02 -0.85590693484E+02  0.90154514444E+02  0.10000000000E+01 0.  0.
<mgrwt>
<rscale>  0 0.12499439E+03</rscale>
<asrwt>0</asrwt>
<pdfrwt beam="1">  1        4 0.10509169E-01 0.12499439E+03</pdfrwt>
<pdfrwt beam="2">  1       -4 0.23229115E-01 0.12499439E+03</pdfrwt>
<totfact> 0.19304121E+03</totfact>
</mgrwt>
</event>
<event>
 5    1  0.1438401E-002  0.1249959E+03  0.7818608E-02  0.1235076E+00
         -4   -1    0    0    0  501 -0.00000000000E+00  0.00000000000E+00  0.84323791204E+02  0.84333354392E+02  0.12700000000E+01 0. -1.
          4   -1    0    0  501    0  0.00000000000E+00 -0.00000000000E+00 -0.46300493966E+02  0.46317908432E+02  0.12700000000E+01 0. -1.
         25    2    1    2    0    0  0.00000000000E+00  0.00000000000E+00  0.38023297238E+02  0.13065126282E+03  0.12499592531E+03 0.  0.
    9000005    1    3    3    0    0  0.47793276044E+02  0.27479941511E+02 -0.11741469218E+02  0.56375584430E+02  0.10000000000E+01 0.  0.
    9000005    1    3    3    0    0 -0.47793276044E+02 -0.27479941511E+02  0.49764766456E+02  0.74275678394E+02  0.10000000000E+01 0.  0.
<mgrwt>
<rscale>  0 0.12499593E+03</rscale>
<asrwt>0</asrwt>
<pdfrwt beam="2">  1        4 0.11578496E-01 0.12499593E+03</pdfrwt>
<pdfrwt beam="1">  1       -4 0.21084320E-01 0.12499593E+03</pdfrwt>
<totfact> 0.19531293E+03</totfact>
</mgrwt>
</event>
<event>
 5    1  0.1438401E-002  0.1249887E+03  0.7818608E-02  0.1235087E+00
         -4   -1    0    0    0  501 -0.00000000000E+00  0.00000000000E+00  0.14296351534E+02  0.14352650180E+02  0.12700000000E+01 0.  1.
          4   -1    0    0  501    0  0.00000000000E+00 -0.00000000000E+00 -0.27258994738E+03  0.27259290584E+03  0.12700000000E+01 0.  1.
         25    2    1    2    0    0  0.00000000000E+00  0.00000000000E+00 -0.25829359585E+03  0.28694555602E+03  0.12498868134E+03 0.  0.
    9000005    1    3    3    0    0  0.54922932993E+02  0.30065959131E+01 -0.61082881150E+02  0.82205149213E+02  0.10000000000E+01 0.  0.
    9000005    1    3    3    0    0 -0.54922932993E+02 -0.30065959131E+01 -0.19721071470E+03  0.20474040681E+03  0.10000000000E+01 0.  0.
<mgrwt>
<rscale>  0 0.12498868E+03</rscale>
<asrwt>0</asrwt>
<pdfrwt beam="2">  1        4 0.68154877E-01 0.12498868E+03</pdfrwt>
<pdfrwt beam="1">  1       -4 0.35814959E-02 0.12498868E+03</pdfrwt>
<totfact> 0.13348449E+03</totfact>
</mgrwt>
</event>
<event>
 5    1  0.1438401E-002  0.1250069E+03  0.7818608E-02  0.1235059E+00
         -4   -1    0    0    0  501 -0.00000000000E+00  0.00000000000E+00  0.24757304498E+02  0.24789857321E+02  0.12700000000E+01 0. -1.
          4   -1    0    0  501    0  0.00000000000E+00 -0.00000000000E+00 -0.15766024053E+03  0.15766535556E+03  0.12700000000E+01 0. -1.
         25    2    1    2    0    0  0.00000000000E+00  0.00000000000E+00 -0.13290293603E+03  0.18245521288E+03  0.12500685702E+03 0.  0.
    9000005    1    3    3    0    0 -0.27067449509E+02 -0.50520582711E+02 -0.10281484249E+03  0.11771519841E+03  0.10000000000E+01 0.  0.
    9000005    1    3    3    0    0  0.27067449509E+02  0.50520582711E+02 -0.30088093537E+02  0.64740014466E+02  0.10000000000E+01 0.  0.
<mgrwt>
<rscale>  0 0.12500686E+03</rscale>
<asrwt>0</asrwt>
<pdfrwt beam="2">  1        4 0.39419766E-01 0.12500686E+03</pdfrwt>
<pdfrwt beam="1">  1       -4 0.61940351E-02 0.12500686E+03</pdfrwt>
<totfact> 0.17046760E+03</totfact>
</mgrwt>
</event>
<event>
 5    1  0.1438401E-002  0.1249996E+03  0.7818608E-02  0.1235070E+00
         -4   -1    0    0    0  501 -0.00000000000E+00  0.00000000000E+00  0.54208621729E+01  0.55676428314E+01  0.12700000000E+01 0. -1.
          4   -1    0    0  501    0  0.00000000000E+00 -0.00000000000E+00 -0.71081865739E+03  0.71081979193E+03  0.12700000000E+01 0. -1.
         25    2    1    2    0    0  0.00000000000E+00  0.00000000000E+00 -0.70539779522E+03  0.71638743476E+03  0.12499962872E+03 0.  0.
    9000005    1    3    3    0    0 -0.35182062119E+02  0.10234580661E+02 -0.62571764511E+02  0.72517238297E+02  0.10000000000E+01 0.  0.
    9000005    1    3    3    0    0  0.35182062119E+02 -0.10234580661E+02 -0.64282603071E+03  0.64387019646E+03  0.10000000000E+01 0.  0.
<mgrwt>
<rscale>  0 0.12499963E+03</rscale>
<asrwt>0</asrwt>
<pdfrwt beam="2">  1        4 0.17772284E+00 0.12499963E+03</pdfrwt>
<pdfrwt beam="1">  1       -4 0.13737074E-02 0.12499963E+03</pdfrwt>
<totfact> 0.60379320E+02</totfact>
</mgrwt>
</event>
<event>
 5    1  0.1438401E-002  0.1249972E+03  0.7818608E-02  0.1235074E+00
         -4   -1    0    0    0  501 -0.00000000000E+00  0.00000000000E+00  0.66678919899E+02  0.66691013329E+02  0.12700000000E+01 0.  1.
          4   -1    0    0  501    0  0.00000000000E+00 -0.00000000000E+00 -0.58556034873E+02  0.58569805532E+02  0.12700000000E+01 0.  1.
         25    2    1    2    0    0  0.00000000000E+00  0.00000000000E+00  0.81228850254E+01  0.12526081886E+03  0.12499716589E+03 0.  0.
    9000005    1    3    3    0    0 -0.51591408985E+02 -0.33507938930E+02 -0.69443188997E+01  0.61916710324E+02  0.10000000000E+01 0.  0.
    9000005    1    3    3    0    0  0.51591408985E+02  0.33507938930E+02  0.15067203925E+02  0.63344108538E+02  0.10000000000E+01 0.  0.
<mgrwt>
<rscale>  0 0.12499717E+03</rscale>
<asrwt>0</asrwt>
<pdfrwt beam="2">  1        4 0.14642242E-01 0.12499717E+03</pdfrwt>
<pdfrwt beam="1">  1       -4 0.16672963E-01 0.12499717E+03</pdfrwt>
<totfact> 0.19822232E+03</totfact>
</mgrwt>
</event>
<event>
 5    1  0.1438401E-002  0.1250000E+03  0.7818608E-02  0.1235069E+00
         -4   -1    0    0    0  501 -0.00000000000E+00  0.00000000000E+00  0.10215274152E+03  0.10216063577E+03  0.12700000000E+01 0.  1.
          4   -1    0    0  501    0  0.00000000000E+00 -0.00000000000E+00 -0.38219402177E+02  0.38240496895E+02  0.12700000000E+01 0.  1.
         25    2    1    2    0    0  0.00000000000E+00  0.00000000000E+00  0.63933339343E+02  0.14040113266E+03  0.12500002469E+03 0.  0.
    9000005    1    3    3    0    0 -0.21809086352E+02  0.43642357392E+02  0.75828800883E+02  0.90173713740E+02  0.10000000000E+01 0.  0.
    9000005    1    3    3    0    0  0.21809086352E+02 -0.43642357392E+02 -0.11895461541E+02  0.50227418921E+02  0.10000000000E+01 0.  0.
<mgrwt>
<rscale>  0 0.12500002E+03</rscale>
<asrwt>0</asrwt>
<pdfrwt beam="2">  1        4 0.95584743E-02 0.12500002E+03</pdfrwt>
<pdfrwt beam="1">  1       -4 0.25541809E-01 0.12500002E+03</pdfrwt>
<totfact> 0.19019829E+03</totfact>
</mgrwt>
</event>
<event>
 5    1  0.1438401E-002  0.1250011E+03  0.7818608E-02  0.1235067E+00
         -4   -1    0    0    0  501 -0.00000000000E+00  0.00000000000E+00  0.19676181415E+02  0.19717124919E+02  0.12700000000E+01 0. -1.
          4   -1    0    0  501    0  0.00000000000E+00 -0.00000000000E+00 -0.19828114685E+03  0.19828521402E+03  0.12700000000E+01 0. -1.
         25    2    1    2    0    0  0.00000000000E+00  0.00000000000E+00 -0.17860496544E+03  0.21800233893E+03  0.12500114440E+03 0.  0.
    9000005    1    3    3    0    0 -0.19644544978E+01 -0.52201177322E+02 -0.29482946289E+02  0.59992217138E+02  0.10000000000E+01 0.  0.
    9000005    1    3    3    0    0  0.19644544978E+01  0.52201177322E+02 -0.14912201915E+03  0.15801012180E+03  0.10000000000E+01 0.  0.
<mgrwt>
<rscale>  0 0.12500114E+03</rscale>
<asrwt>0</asrwt>
<pdfrwt beam="2">  1        4 0.49575907E-01 0.12500114E+03</pdfrwt>
<pdfrwt beam="1">  1       -4 0.49246723E-02 0.12500114E+03</pdfrwt>
<totfact> 0.15625294E+03</totfact>
</mgrwt>
</event>
<event>
 5    1  0.1438401E-002  0.1250017E+03  0.7818608E-02  0.1235067E+00
         -4   -1    0    0    0  501 -0.00000000000E+00  0.00000000000E+00  0.19237199147E+02  0.19279074953E+02  0.12700000000E+01 0. -1.
          4   -1    0    0  501    0  0.00000000000E+00 -0.00000000000E+00 -0.20279797709E+03  0.20280195367E+03  0.12700000000E+01 0. -1.
         25    2    1    2    0    0  0.00000000000E+00  0.00000000000E+00 -0.18356077794E+03  0.22208102862E+03  0.12500169629E+03 0.  0.
    9000005    1    3    3    0    0 -0.52092306815E+02 -0.29429747239E+02 -0.12384033628E+03  0.13753962099E+03  0.10000000000E+01 0.  0.
    9000005    1    3    3    0    0  0.52092306815E+02  0.29429747239E+02 -0.59720441659E+02  0.84541407628E+02  0.10000000000E+01 0.  0.
<mgrwt>
<rscale>  0 0.12500170E+03</rscale>
<asrwt>0</asrwt>
<pdfrwt beam="2">  1        4 0.50705219E-01 0.12500170E+03</pdfrwt>
<pdfrwt beam="1">  1       -4 0.48150320E-02 0.12500170E+03</pdfrwt>
<totfact> 0.15473858E+03</totfact>
</mgrwt>
</event>
<event>
 5    1  0.1438401E-002  0.1250016E+03  0.7818608E-02  0.1235067E+00
          4   -1    0    0  501    0  0.00000000000E+00  0.00000000000E+00  0.25305837854E+02  0.25337685954E+02  0.12700000000E+01 0. -1.
         -4   -1    0    0    0  501 -0.00000000000E+00 -0.00000000000E+00 -0.15423411084E+03  0.15423933950E+03  0.12700000000E+01 0. -1.
         25    2    1    2    0    0  0.00000000000E+00  0.00000000000E+00 -0.12892827299E+03  0.17957702545E+03  0.12500163396E+03 0.  0.
    9000005    1    3    3    0    0 -0.28203244922E+02 -0.51976085954E+01 -0.14422976399E+03  0.14705666589E+03  0.10000000000E+01 0.  0.
    9000005    1    3    3    0    0  0.28203244922E+02  0.51976085954E+01  0.15301491004E+02  0.32520359564E+02  0.10000000000E+01 0.  0.
<mgrwt>
<rscale>  0 0.12500163E+03</rscale>
<asrwt>0</asrwt>
<pdfrwt beam="1">  1        4 0.63310945E-02 0.12500163E+03</pdfrwt>
<pdfrwt beam="2">  1       -4 0.38563160E-01 0.12500163E+03</pdfrwt>
<totfact> 0.17172887E+03</totfact>
</mgrwt>
</event>
<event>
 5    1  0.1438401E-002  0.1250225E+03  0.7818608E-02  0.1235034E+00
          4   -1    0    0  501    0  0.00000000000E+00  0.00000000000E+00  0.26691300372E+02  0.26721497255E+02  0.12700000000E+01 0.  1.
         -4   -1    0    0    0  501 -0.00000000000E+00 -0.00000000000E+00 -0.14628617291E+03  0.14629168563E+03  0.12700000000E+01 0.  1.
         25    2    1    2    0    0  0.00000000000E+00  0.00000000000E+00 -0.11959487253E+03  0.17301318288E+03  0.12502250963E+03 0.  0.
    9000005    1    3    3    0    0 -0.15668874280E+02  0.81737788287E+01  0.23168557624E+02  0.29156583200E+02  0.10000000000E+01 0.  0.
    9000005    1    3    3    0    0  0.15668874280E+02 -0.81737788287E+01 -0.14276343016E+03  0.14385659968E+03  0.10000000000E+01 0.  0.
<mgrwt>
<rscale>  0 0.12502251E+03</rscale>
<asrwt>0</asrwt>
<pdfrwt beam="1">  1        4 0.66772892E-02 0.12502251E+03</pdfrwt>
<pdfrwt beam="2">  1       -4 0.36576005E-01 0.12502251E+03</pdfrwt>
<totfact> 0.17452873E+03</totfact>
</mgrwt>
</event>
<event>
 5    1  0.1438401E-002  0.1249960E+03  0.7818608E-02  0.1235076E+00
          4   -1    0    0  501    0  0.00000000000E+00  0.00000000000E+00  0.11797540483E+02  0.11865701051E+02  0.12700000000E+01 0. -1.
         -4   -1    0    0    0  501 -0.00000000000E+00 -0.00000000000E+00 -0.33006270052E+03  0.33006514383E+03  0.12700000000E+01 0. -1.
         25    2    1    2    0    0  0.00000000000E+00  0.00000000000E+00 -0.31826516004E+03  0.34193084488E+03  0.12499596230E+03 0.  0.
    9000005    1    3    3    0    0  0.31786472185E+01  0.61946677302E+02 -0.17987634699E+03  0.19027347380E+03  0.10000000000E+01 0.  0.
    9000005    1    3    3    0    0 -0.31786472185E+01 -0.61946677302E+02 -0.13838881305E+03  0.15165737108E+03  0.10000000000E+01 0.  0.
<mgrwt>
<rscale>  0 0.12499596E+03</rscale>
<asrwt>0</asrwt>
<pdfrwt beam="1">  1        4 0.29582117E-02 0.12499596E+03</pdfrwt>
<pdfrwt beam="2">  1       -4 0.82524470E-01 0.12499596E+03</pdfrwt>
<totfact> 0.11873334E+03</totfact>
</mgrwt>
</event>
<event>
 5    1  0.1438401E-002  0.1250003E+03  0.7818608E-02  0.1235069E+00
         -4   -1    0    0    0  501 -0.00000000000E+00  0.00000000000E+00  0.29791186320E+02  0.29818244119E+02  0.12700000000E+01 0. -1.
          4   -1    0    0  501    0  0.00000000000E+00 -0.00000000000E+00 -0.13103202463E+03  0.13103817909E+03  0.12700000000E+01 0. -1.
         25    2    1    2    0    0  0.00000000000E+00  0.00000000000E+00 -0.10124083831E+03  0.16085642321E+03  0.12500032618E+03 0.  0.
    9000005    1    3    3    0    0 -0.89580268518E+01 -0.13116039642E+02 -0.12839751443E+03  0.12938005431E+03  0.10000000000E+01 0.  0.
    9000005    1    3    3    0    0  0.89580268518E+01  0.13116039642E+02  0.27156676122E+02  0.31476368897E+02  0.10000000000E+01 0.  0.
<mgrwt>
<rscale>  0 0.12500033E+03</rscale>
<asrwt>0</asrwt>
<pdfrwt beam="2">  1        4 0.32762156E-01 0.12500033E+03</pdfrwt>
<pdfrwt beam="1">  1       -4 0.74519484E-02 0.12500033E+03</pdfrwt>
<totfact> 0.18017388E+03</totfact>
</mgrwt>
</event>
<event>
 5    1  0.1438401E-002  0.1250028E+03  0.7818608E-02  0.1235065E+00
         -4   -1    0    0    0  501 -0.00000000000E+00  0.00000000000E+00  0.39223076885E+03  0.39223282491E+03  0.12700000000E+01 0.  1.
          4   -1    0    0  501    0  0.00000000000E+00 -0.00000000000E+00 -0.99169329585E+01  0.99979227494E+01  0.12700000000E+01 0.  1.
         25    2    1    2    0    0  0.00000000000E+00  0.00000000000E+00  0.38231383590E+03  0.40223074766E+03  0.12500282095E+03 0.  0.
    9000005    1    3    3    0    0 -0.44789472175E+02  0.38583761112E+02  0.12595250032E+03  0.13913962691E+03  0.10000000000E+01 0.  0.
    9000005    1    3    3    0    0  0.44789472175E+02 -0.38583761112E+02  0.25636133557E+03  0.26309112075E+03  0.10000000000E+01 0.  0.
<mgrwt>
<rscale>  0 0.12500282E+03</rscale>
<asrwt>0</asrwt>
<pdfrwt beam="2">  1        4 0.24896140E-02 0.12500282E+03</pdfrwt>
<pdfrwt beam="1">  1       -4 0.98068072E-01 0.12500282E+03</pdfrwt>
<totfact> 0.10522718E+03</totfact>
</mgrwt>
</event>
<event>
 5    1  0.1438401E-002  0.1249961E+03  0.7818608E-02  0.1235075E+00
          4   -1    0    0  501    0  0.00000000000E+00  0.00000000000E+00  0.13149553705E+02  0.13210740427E+02  0.12700000000E+01 0. -1.
         -4   -1    0    0    0  501 -0.00000000000E+00 -0.00000000000E+00 -0.29629296587E+03  0.29629568766E+03  0.12700000000E+01 0. -1.
         25    2    1    2    0    0  0.00000000000E+00  0.00000000000E+00 -0.28314341217E+03  0.30950642808E+03  0.12499614863E+03 0.  0.
    9000005    1    3    3    0    0  0.94989666947E+01  0.19613184212E+01  0.11286461842E+02  0.14915138589E+02  0.10000000000E+01 0.  0.
    9000005    1    3    3    0    0 -0.94989666947E+01 -0.19613184212E+01 -0.29442987401E+03  0.29459128950E+03  0.10000000000E+01 0.  0.
<mgrwt>
<rscale>  0 0.12499615E+03</rscale>
<asrwt>0</asrwt>
<pdfrwt beam="1">  1        4 0.32953780E-02 0.12499615E+03</pdfrwt>
<pdfrwt beam="2">  1       -4 0.74081208E-01 0.12499615E+03</pdfrwt>
<totfact> 0.12709865E+03</totfact>
</mgrwt>
</event>
<event>
 5    1  0.1438401E-002  0.1250005E+03  0.7818608E-02  0.1235068E+00
         -4   -1    0    0    0  501 -0.00000000000E+00  0.00000000000E+00  0.29508044505E+02  0.29535361696E+02  0.12700000000E+01 0. -1.
          4   -1    0    0  501    0  0.00000000000E+00 -0.00000000000E+00 -0.13228869080E+03  0.13229478680E+03  0.12700000000E+01 0. -1.
         25    2    1    2    0    0  0.00000000000E+00  0.00000000000E+00 -0.10278064630E+03  0.16183014850E+03  0.12500054283E+03 0.  0.
    9000005    1    3    3    0    0 -0.46534907503E+02  0.18680064726E+02 -0.31082007314E+01  0.50250406429E+02  0.10000000000E+01 0.  0.
    9000005    1    3    3    0    0  0.46534907503E+02 -0.18680064726E+02 -0.99672445567E+02  0.11157974207E+03  0.10000000000E+01 0.  0.
<mgrwt>
<rscale>  0 0.12500054E+03</rscale>
<asrwt>0</asrwt>
<pdfrwt beam="2">  1        4 0.33076348E-01 0.12500054E+03</pdfrwt>
<pdfrwt beam="1">  1       -4 0.73811881E-02 0.12500054E+03</pdfrwt>
<totfact> 0.17971737E+03</totfact>
</mgrwt>
</event>
<event>
 5    1  0.1438401E-002  0.1250001E+03  0.7818608E-02  0.1235069E+00
         -4   -1    0    0    0  501 -0.00000000000E+00  0.00000000000E+00  0.22545728219E+03  0.22546085911E+03  0.12700000000E+01 0.  1.
          4   -1    0    0  501    0  0.00000000000E+00 -0.00000000000E+00 -0.17298921557E+02  0.17345477423E+02  0.12700000000E+01 0.  1.
         25    2    1    2    0    0  0.00000000000E+00  0.00000000000E+00  0.20815836063E+03  0.24280633653E+03  0.12500005584E+03 0.  0.
    9000005    1    3    3    0    0  0.29755070108E+02  0.18956250203E+02  0.20427174909E+03  0.20729845898E+03  0.10000000000E+01 0.  0.
    9000005    1    3    3    0    0 -0.29755070108E+02 -0.18956250203E+02  0.38866115356E+01  0.35507877550E+02  0.10000000000E+01 0.  0.
<mgrwt>
<rscale>  0 0.12500006E+03</rscale>
<asrwt>0</asrwt>
<pdfrwt beam="2">  1        4 0.43309970E-02 0.12500006E+03</pdfrwt>
<pdfrwt beam="1">  1       -4 0.56370587E-01 0.12500006E+03</pdfrwt>
<totfact> 0.14740238E+03</totfact>
</mgrwt>
</event>
<event>
 5    1  0.1438401E-002  0.1250070E+03  0.7818608E-02  0.1235058E+00
          4   -1    0    0  501    0  0.00000000000E+00  0.00000000000E+00  0.35612798921E+02  0.35635436675E+02  0.12700000000E+01 0. -1.
         -4   -1    0    0    0  501 -0.00000000000E+00 -0.00000000000E+00 -0.10963775726E+03  0.10964511260E+03  0.12700000000E+01 0. -1.
         25    2    1    2    0    0  0.00000000000E+00  0.00000000000E+00 -0.74024958338E+02  0.14528054927E+03  0.12500697397E+03 0.  0.
    9000005    1    3    3    0    0  0.42829785414E+02  0.41239336789E+02 -0.14639014453E+02  0.61240298510E+02  0.10000000000E+01 0.  0.
    9000005    1    3    3    0    0 -0.42829785414E+02 -0.41239336789E+02 -0.59385943886E+02  0.84040250765E+02  0.10000000000E+01 0.  0.
<mgrwt>
<rscale>  0 0.12500697E+03</rscale>
<asrwt>0</asrwt>
<pdfrwt beam="1">  1        4 0.89069491E-02 0.12500697E+03</pdfrwt>
<pdfrwt beam="2">  1       -4 0.27413188E-01 0.12500697E+03</pdfrwt>
<totfact> 0.18770244E+03</totfact>
</mgrwt>
</event>
<event>
 5    1  0.1438401E-002  0.1250000E+03  0.7818608E-02  0.1235069E+00
         -4   -1    0    0    0  501 -0.00000000000E+00  0.00000000000E+00  0.67175022415E+02  0.67187026549E+02  0.12700000000E+01 0.  1.
          4   -1    0    0  501    0  0.00000000000E+00 -0.00000000000E+00 -0.58126242545E+02  0.58140115001E+02  0.12700000000E+01 0.  1.
         25    2    1    2    0    0  0.00000000000E+00  0.00000000000E+00  0.90487798706E+01  0.12532714155E+03  0.12500004797E+03 0.  0.
    9000005    1    3    3    0    0  0.49476680793E+02 -0.14091779747E+02 -0.31047073213E+02  0.60095265652E+02  0.10000000000E+01 0.  0.
    9000005    1    3    3    0    0 -0.49476680793E+02  0.14091779747E+02  0.40095853084E+02  0.65231875898E+02  0.10000000000E+01 0.  0.
<mgrwt>
<rscale>  0 0.12500005E+03</rscale>
<asrwt>0</asrwt>
<pdfrwt beam="2">  1        4 0.14534795E-01 0.12500005E+03</pdfrwt>
<pdfrwt beam="1">  1       -4 0.16796990E-01 0.12500005E+03</pdfrwt>
<totfact> 0.19817302E+03</totfact>
</mgrwt>
</event>
<event>
 5    1  0.1438401E-002  0.1249989E+03  0.7818608E-02  0.1235071E+00
          4   -1    0    0  501    0  0.00000000000E+00  0.00000000000E+00  0.48616139372E+02  0.48632724656E+02  0.12700000000E+01 0. -1.
         -4   -1    0    0    0  501 -0.00000000000E+00 -0.00000000000E+00 -0.80312170154E+02  0.80322210968E+02  0.12700000000E+01 0. -1.
         25    2    1    2    0    0  0.00000000000E+00  0.00000000000E+00 -0.31696030782E+02  0.12895493562E+03  0.12499894821E+03 0.  0.
    9000005    1    3    3    0    0  0.15990474952E+02 -0.60153728355E+02 -0.10102379749E+02  0.63065239243E+02  0.10000000000E+01 0.  0.
    9000005    1    3    3    0    0 -0.15990474952E+02  0.60153728355E+02 -0.21593651033E+02  0.65889696381E+02  0.10000000000E+01 0.  0.
<mgrwt>
<rscale>  0 0.12499895E+03</rscale>
<asrwt>0</asrwt>
<pdfrwt beam="1">  1        4 0.12157363E-01 0.12499895E+03</pdfrwt>
<pdfrwt beam="2">  1       -4 0.20081371E-01 0.12499895E+03</pdfrwt>
<totfact> 0.19621214E+03</totfact>
</mgrwt>
</event>
<event>
 5    1  0.1438401E-002  0.1249926E+03  0.7818608E-02  0.1235081E+00
          4   -1    0    0  501    0  0.00000000000E+00  0.00000000000E+00  0.15365738535E+03  0.15366263362E+03  0.12700000000E+01 0.  1.
         -4   -1    0    0    0  501 -0.00000000000E+00 -0.00000000000E+00 -0.25397270424E+02  0.25429004011E+02  0.12700000000E+01 0.  1.
         25    2    1    2    0    0  0.00000000000E+00  0.00000000000E+00  0.12826011493E+03  0.17909163764E+03  0.12499263014E+03 0.  0.
    9000005    1    3    3    0    0  0.17259138384E+02 -0.31772584991E+02  0.13715336859E+03  0.14184294671E+03  0.10000000000E+01 0.  0.
    9000005    1    3    3    0    0 -0.17259138384E+02  0.31772584991E+02 -0.88932536687E+01  0.37248690925E+02  0.10000000000E+01 0.  0.
<mgrwt>
<rscale>  0 0.12499263E+03</rscale>
<asrwt>0</asrwt>
<pdfrwt beam="1">  1        4 0.38418969E-01 0.12499263E+03</pdfrwt>
<pdfrwt beam="2">  1       -4 0.63539404E-02 0.12499263E+03</pdfrwt>
<totfact> 0.17197543E+03</totfact>
</mgrwt>
</event>
<event>
 5    1  0.1438401E-002  0.1250054E+03  0.7818608E-02  0.1235061E+00
          4   -1    0    0  501    0  0.00000000000E+00  0.00000000000E+00  0.20461855480E+02  0.20501229956E+02  0.12700000000E+01 0.  1.
         -4   -1    0    0    0  501 -0.00000000000E+00 -0.00000000000E+00 -0.19069548768E+03  0.19069971663E+03  0.12700000000E+01 0.  1.
         25    2    1    2    0    0  0.00000000000E+00  0.00000000000E+00 -0.17023363220E+03  0.21120094658E+03  0.12500540110E+03 0.  0.
    9000005    1    3    3    0    0  0.55557475131E+02  0.27736403249E+02 -0.97021318907E+02  0.11519582211E+03  0.10000000000E+01 0.  0.
    9000005    1    3    3    0    0 -0.55557475131E+02 -0.27736403249E+02 -0.73212313291E+02  0.96005124476E+02  0.10000000000E+01 0.  0.
<mgrwt>
<rscale>  0 0.12500540E+03</rscale>
<asrwt>0</asrwt>
<pdfrwt beam="1">  1        4 0.51209149E-02 0.12500540E+03</pdfrwt>
<pdfrwt beam="2">  1       -4 0.47679317E-01 0.12500540E+03</pdfrwt>
<totfact> 0.15881171E+03</totfact>
</mgrwt>
</event>
<event>
 5    1  0.1438401E-002  0.1249811E+03  0.7818608E-02  0.1235099E+00
         -4   -1    0    0    0  501 -0.00000000000E+00  0.00000000000E+00  0.75400238527E+01  0.76462317320E+01  0.12700000000E+01 0. -1.
          4   -1    0    0  501    0  0.00000000000E+00 -0.00000000000E+00 -0.51418280713E+03  0.51418437554E+03  0.12700000000E+01 0. -1.
         25    2    1    2    0    0  0.00000000000E+00  0.00000000000E+00 -0.50664278327E+03  0.52183060727E+03  0.12498108992E+03 0.  0.
    9000005    1    3    3    0    0 -0.48451648536E+02 -0.23571848203E+02 -0.38541290949E+03  0.38916231199E+03  0.10000000000E+01 0.  0.
    9000005    1    3    3    0    0  0.48451648536E+02  0.23571848203E+02 -0.12122987378E+03  0.13266829528E+03  0.10000000000E+01 0.  0.
<mgrwt>
<rscale>  0 0.12498109E+03</rscale>
<asrwt>0</asrwt>
<pdfrwt beam="2">  1        4 0.12855906E+00 0.12498109E+03</pdfrwt>
<pdfrwt beam="1">  1       -4 0.18984797E-02 0.12498109E+03</pdfrwt>
<totfact> 0.84272243E+02</totfact>
</mgrwt>
</event>
<event>
 5    1  0.1438401E-002  0.1250002E+03  0.7818608E-02  0.1235069E+00
          4   -1    0    0  501    0  0.00000000000E+00  0.00000000000E+00  0.22061179301E+02  0.22097704228E+02  0.12700000000E+01 0. -1.
         -4   -1    0    0    0  501 -0.00000000000E+00 -0.00000000000E+00 -0.17687965241E+03  0.17688421167E+03  0.12700000000E+01 0. -1.
         25    2    1    2    0    0  0.00000000000E+00  0.00000000000E+00 -0.15481847311E+03  0.19898191590E+03  0.12500017295E+03 0.  0.
    9000005    1    3    3    0    0 -0.17966469906E+01  0.44965456643E+02 -0.14643292379E+03  0.15319504366E+03  0.10000000000E+01 0.  0.
    9000005    1    3    3    0    0  0.17966469906E+01 -0.44965456643E+02 -0.83855493150E+01  0.45786872233E+02  0.10000000000E+01 0.  0.
<mgrwt>
<rscale>  0 0.12500017E+03</rscale>
<asrwt>0</asrwt>
<pdfrwt beam="1">  1        4 0.55204309E-02 0.12500017E+03</pdfrwt>
<pdfrwt beam="2">  1       -4 0.44225044E-01 0.12500017E+03</pdfrwt>
<totfact> 0.16362823E+03</totfact>
</mgrwt>
</event>
<event>
 5    1  0.1438401E-002  0.1249992E+03  0.7818608E-02  0.1235071E+00
          4   -1    0    0  501    0  0.00000000000E+00  0.00000000000E+00  0.49910025780E+02  0.49926181241E+02  0.12700000000E+01 0.  1.
         -4   -1    0    0    0  501 -0.00000000000E+00 -0.00000000000E+00 -0.78230818145E+02  0.78241126063E+02  0.12700000000E+01 0.  1.
         25    2    1    2    0    0  0.00000000000E+00  0.00000000000E+00 -0.28320792365E+02  0.12816730730E+03  0.12499916552E+03 0.  0.
    9000005    1    3    3    0    0  0.56083248551E+02  0.25251842355E+02 -0.28252729510E+01  0.61578961323E+02  0.10000000000E+01 0.  0.
    9000005    1    3    3    0    0 -0.56083248551E+02 -0.25251842355E+02 -0.25495519414E+02  0.66588345981E+02  0.10000000000E+01 0.  0.
<mgrwt>
<rscale>  0 0.12499917E+03</rscale>
<asrwt>0</asrwt>
<pdfrwt beam="1">  1        4 0.12480814E-01 0.12499917E+03</pdfrwt>
<pdfrwt beam="2">  1       -4 0.19561012E-01 0.12499917E+03</pdfrwt>
<totfact> 0.19663819E+03</totfact>
</mgrwt>
</event>
<event>
 5    1  0.1438401E-002  0.1249977E+03  0.7818608E-02  0.1235073E+00
          4   -1    0    0  501    0  0.00000000000E+00  0.00000000000E+00  0.13409509333E+03  0.13410110721E+03  0.12700000000E+01 0.  1.
         -4   -1    0    0    0  501 -0.00000000000E+00 -0.00000000000E+00 -0.29108859267E+02  0.29136550720E+02  0.12700000000E+01 0.  1.
         25    2    1    2    0    0  0.00000000000E+00  0.00000000000E+00  0.10498623406E+03  0.16323765793E+03  0.12499769447E+03 0.  0.
    9000005    1    3    3    0    0 -0.17236906237E+01 -0.25129561046E+02 -0.22192112750E+02  0.33585053461E+02  0.10000000000E+01 0.  0.
    9000005    1    3    3    0    0  0.17236906237E+01  0.25129561046E+02  0.12717834681E+03  0.12965260447E+03  0.10000000000E+01 0.  0.
<mgrwt>
<rscale>  0 0.12499769E+03</rscale>
<asrwt>0</asrwt>
<pdfrwt beam="1">  1        4 0.33527986E-01 0.12499769E+03</pdfrwt>
<pdfrwt beam="2">  1       -4 0.72814281E-02 0.12499769E+03</pdfrwt>
<totfact> 0.17907401E+03</totfact>
</mgrwt>
</event>
<event>
 5    1  0.1438401E-002  0.1249977E+03  0.7818608E-02  0.1235073E+00
          4   -1    0    0  501    0  0.00000000000E+00  0.00000000000E+00  0.28060516929E+02  0.28089241897E+02  0.12700000000E+01 0.  1.
         -4   -1    0    0    0  501 -0.00000000000E+00 -0.00000000000E+00 -0.13910016243E+03  0.13910595993E+03  0.12700000000E+01 0.  1.
         25    2    1    2    0    0  0.00000000000E+00  0.00000000000E+00 -0.11103964550E+03  0.16719520183E+03  0.12499773054E+03 0.  0.
    9000005    1    3    3    0    0  0.68451321021E+01  0.57457111673E+02 -0.87086074759E+02  0.10456175177E+03  0.10000000000E+01 0.  0.
    9000005    1    3    3    0    0 -0.68451321021E+01 -0.57457111673E+02 -0.23953570740E+02  0.62633450060E+02  0.10000000000E+01 0.  0.
<mgrwt>
<rscale>  0 0.12499773E+03</rscale>
<asrwt>0</asrwt>
<pdfrwt beam="1">  1        4 0.70194449E-02 0.12499773E+03</pdfrwt>
<pdfrwt beam="2">  1       -4 0.34779354E-01 0.12499773E+03</pdfrwt>
<totfact> 0.17725237E+03</totfact>
</mgrwt>
</event>
<event>
 5    1  0.1438401E-002  0.1249942E+03  0.7818608E-02  0.1235078E+00
         -4   -1    0    0    0  501 -0.00000000000E+00  0.00000000000E+00  0.11051706664E+03  0.11052436347E+03  0.12700000000E+01 0. -1.
          4   -1    0    0  501    0  0.00000000000E+00 -0.00000000000E+00 -0.35322050254E+02  0.35344874227E+02  0.12700000000E+01 0. -1.
         25    2    1    2    0    0  0.00000000000E+00  0.00000000000E+00  0.75195016391E+02  0.14586923769E+03  0.12499417593E+03 0.  0.
    9000005    1    3    3    0    0  0.55552857618E+02  0.46898472466E+01  0.70538812404E+02  0.89915731171E+02  0.10000000000E+01 0.  0.
    9000005    1    3    3    0    0 -0.55552857618E+02 -0.46898472466E+01  0.46562039869E+01  0.55953506523E+02  0.10000000000E+01 0.  0.
<mgrwt>
<rscale>  0 0.12499418E+03</rscale>
<asrwt>0</asrwt>
<pdfrwt beam="2">  1        4 0.88342778E-02 0.12499418E+03</pdfrwt>
<pdfrwt beam="1">  1       -4 0.27633031E-01 0.12499418E+03</pdfrwt>
<totfact> 0.18746315E+03</totfact>
</mgrwt>
</event>
<event>
 5    1  0.1438401E-002  0.1249989E+03  0.7818608E-02  0.1235071E+00
          4   -1    0    0  501    0  0.00000000000E+00  0.00000000000E+00  0.17866972246E+03  0.17867423604E+03  0.12700000000E+01 0.  1.
         -4   -1    0    0    0  501 -0.00000000000E+00 -0.00000000000E+00 -0.21839334004E+02  0.21876229330E+02  0.12700000000E+01 0.  1.
         25    2    1    2    0    0  0.00000000000E+00  0.00000000000E+00  0.15683038845E+03  0.20055046537E+03  0.12499887366E+03 0.  0.
    9000005    1    3    3    0    0 -0.51424368694E+02  0.28015057760E+02  0.43415686034E+02  0.72905630446E+02  0.10000000000E+01 0.  0.
    9000005    1    3    3    0    0  0.51424368694E+02 -0.28015057760E+02  0.11341470242E+03  0.12764483492E+03  0.10000000000E+01 0.  0.
<mgrwt>
<rscale>  0 0.12499887E+03</rscale>
<asrwt>0</asrwt>
<pdfrwt beam="1">  1        4 0.44672606E-01 0.12499887E+03</pdfrwt>
<pdfrwt beam="2">  1       -4 0.54650097E-02 0.12499887E+03</pdfrwt>
<totfact> 0.16300448E+03</totfact>
</mgrwt>
</event>
<event>
 5    1  0.1438401E-002  0.1250023E+03  0.7818608E-02  0.1235066E+00
          4   -1    0    0  501    0  0.00000000000E+00  0.00000000000E+00  0.24707636428E+03  0.24707962823E+03  0.12700000000E+01 0. -1.
         -4   -1    0    0    0  501 -0.00000000000E+00 -0.00000000000E+00 -0.15781584398E+02  0.15832602632E+02  0.12700000000E+01 0. -1.
         25    2    1    2    0    0  0.00000000000E+00  0.00000000000E+00  0.23129477988E+03  0.26291223086E+03  0.12500226372E+03 0.  0.
    9000005    1    3    3    0    0  0.41840006076E+02  0.31577555551E+01  0.18240483541E+02  0.45763225065E+02  0.10000000000E+01 0.  0.
    9000005    1    3    3    0    0 -0.41840006076E+02 -0.31577555551E+01  0.21305429634E+03  0.21714900579E+03  0.10000000000E+01 0.  0.
<mgrwt>
<rscale>  0 0.12500226E+03</rscale>
<asrwt>0</asrwt>
<pdfrwt beam="1">  1        4 0.61775878E-01 0.12500226E+03</pdfrwt>
<pdfrwt beam="2">  1       -4 0.39521813E-02 0.12500226E+03</pdfrwt>
<totfact> 0.14077379E+03</totfact>
</mgrwt>
</event>
<event>
 5    1  0.1438401E-002  0.1250131E+03  0.7818608E-02  0.1235049E+00
         -4   -1    0    0    0  501 -0.00000000000E+00  0.00000000000E+00  0.74057900227E+02  0.74068788879E+02  0.12700000000E+01 0. -1.
          4   -1    0    0  501    0  0.00000000000E+00 -0.00000000000E+00 -0.52734512379E+02  0.52749802804E+02  0.12700000000E+01 0. -1.
         25    2    1    2    0    0  0.00000000000E+00  0.00000000000E+00  0.21323387847E+02  0.12681859168E+03  0.12501307263E+03 0.  0.
    9000005    1    3    3    0    0  0.10072743386E+02 -0.33837381218E+02  0.62978208943E+02  0.72205839990E+02  0.10000000000E+01 0.  0.
    9000005    1    3    3    0    0 -0.10072743386E+02  0.33837381218E+02 -0.41654821095E+02  0.54612751693E+02  0.10000000000E+01 0.  0.
<mgrwt>
<rscale>  0 0.12501307E+03</rscale>
<asrwt>0</asrwt>
<pdfrwt beam="2">  1        4 0.13186901E-01 0.12501307E+03</pdfrwt>
<pdfrwt beam="1">  1       -4 0.18517747E-01 0.12501307E+03</pdfrwt>
<totfact> 0.19730716E+03</totfact>
</mgrwt>
</event>
<event>
 5    1  0.1438401E-002  0.1249981E+03  0.7818608E-02  0.1235072E+00
          4   -1    0    0  501    0  0.00000000000E+00  0.00000000000E+00  0.18138412923E+03  0.18138857527E+03  0.12700000000E+01 0.  1.
         -4   -1    0    0    0  501 -0.00000000000E+00 -0.00000000000E+00 -0.21511710651E+02  0.21549166925E+02  0.12700000000E+01 0.  1.
         25    2    1    2    0    0  0.00000000000E+00  0.00000000000E+00  0.15987241858E+03  0.20293774219E+03  0.12499814792E+03 0.  0.
    9000005    1    3    3    0    0  0.31703392397E+02  0.13219501490E+02 -0.48185954181E+01  0.34699843961E+02  0.10000000000E+01 0.  0.
    9000005    1    3    3    0    0 -0.31703392397E+02 -0.13219501490E+02  0.16469101400E+03  0.16823789823E+03  0.10000000000E+01 0.  0.
<mgrwt>
<rscale>  0 0.12499815E+03</rscale>
<asrwt>0</asrwt>
<pdfrwt beam="1">  1        4 0.45351270E-01 0.12499815E+03</pdfrwt>
<pdfrwt beam="2">  1       -4 0.53831655E-02 0.12499815E+03</pdfrwt>
<totfact> 0.16205775E+03</totfact>
</mgrwt>
</event>
<event>
 5    1  0.1438401E-002  0.1249969E+03  0.7818608E-02  0.1235074E+00
         -4   -1    0    0    0  501 -0.00000000000E+00  0.00000000000E+00  0.94297845328E+02  0.94306397098E+02  0.12700000000E+01 0.  1.
          4   -1    0    0  501    0  0.00000000000E+00 -0.00000000000E+00 -0.41402375912E+02  0.41421849683E+02  0.12700000000E+01 0.  1.
         25    2    1    2    0    0  0.00000000000E+00  0.00000000000E+00  0.52895469417E+02  0.13572824678E+03  0.12499690512E+03 0.  0.
    9000005    1    3    3    0    0 -0.52316155214E+02  0.14965693465E+02  0.59811957444E+02  0.80866694817E+02  0.10000000000E+01 0.  0.
    9000005    1    3    3    0    0  0.52316155214E+02 -0.14965693465E+02 -0.69164880275E+01  0.54861551964E+02  0.10000000000E+01 0.  0.
<mgrwt>
<rscale>  0 0.12499691E+03</rscale>
<asrwt>0</asrwt>
<pdfrwt beam="2">  1        4 0.10354097E-01 0.12499691E+03</pdfrwt>
<pdfrwt beam="1">  1       -4 0.23577964E-01 0.12499691E+03</pdfrwt>
<totfact> 0.19262451E+03</totfact>
</mgrwt>
</event>
<event>
 5    1  0.1438401E-002  0.1250078E+03  0.7818608E-02  0.1235057E+00
         -4   -1    0    0    0  501 -0.00000000000E+00  0.00000000000E+00  0.27457291623E+03  0.27457585332E+03  0.12700000000E+01 0.  1.
          4   -1    0    0  501    0  0.00000000000E+00 -0.00000000000E+00 -0.14197058318E+02  0.14253749152E+02  0.12700000000E+01 0.  1.
         25    2    1    2    0    0  0.00000000000E+00  0.00000000000E+00  0.26037585791E+03  0.28882960247E+03  0.12500780728E+03 0.  0.
    9000005    1    3    3    0    0 -0.33342542694E+02  0.30555851063E+02  0.30532211711E+02  0.54576562180E+02  0.10000000000E+01 0.  0.
    9000005    1    3    3    0    0  0.33342542694E+02 -0.30555851063E+02  0.22984364620E+03  0.23425304029E+03  0.10000000000E+01 0.  0.
<mgrwt>
<rscale>  0 0.12500781E+03</rscale>
<asrwt>0</asrwt>
<pdfrwt beam="2">  1        4 0.35567181E-02 0.12500781E+03</pdfrwt>
<pdfrwt beam="1">  1       -4 0.68650683E-01 0.12500781E+03</pdfrwt>
<totfact> 0.13287626E+03</totfact>
</mgrwt>
</event>
<event>
 5    1  0.1438401E-002  0.1250012E+03  0.7818608E-02  0.1235067E+00
          4   -1    0    0  501    0  0.00000000000E+00  0.00000000000E+00  0.14666561982E+02  0.14721444915E+02  0.12700000000E+01 0. -1.
         -4   -1    0    0    0  501 -0.00000000000E+00 -0.00000000000E+00 -0.26578823021E+03  0.26579126438E+03  0.12700000000E+01 0. -1.
         25    2    1    2    0    0  0.00000000000E+00  0.00000000000E+00 -0.25112166823E+03  0.28051270929E+03  0.12500115127E+03 0.  0.
    9000005    1    3    3    0    0 -0.56307173975E+02  0.20524858569E+02 -0.16529781859E+03  0.17582985096E+03  0.10000000000E+01 0.  0.
    9000005    1    3    3    0    0  0.56307173975E+02 -0.20524858569E+02 -0.85823849644E+02  0.10468285833E+03  0.10000000000E+01 0.  0.
<mgrwt>
<rscale>  0 0.12500115E+03</rscale>
<asrwt>0</asrwt>
<pdfrwt beam="1">  1        4 0.36738810E-02 0.12500115E+03</pdfrwt>
<pdfrwt beam="2">  1       -4 0.66454282E-01 0.12500115E+03</pdfrwt>
<totfact> 0.13534997E+03</totfact>
</mgrwt>
</event>
<event>
 5    1  0.1438401E-002  0.1250017E+03  0.7818608E-02  0.1235067E+00
          4   -1    0    0  501    0  0.00000000000E+00  0.00000000000E+00  0.33110631088E+03  0.33110874650E+03  0.12700000000E+01 0.  1.
         -4   -1    0    0    0  501 -0.00000000000E+00 -0.00000000000E+00 -0.11761226464E+02  0.11829596272E+02  0.12700000000E+01 0.  1.
         25    2    1    2    0    0  0.00000000000E+00  0.00000000000E+00  0.31934508442E+03  0.34293834277E+03  0.12500169598E+03 0.  0.
    9000005    1    3    3    0    0  0.12878670288E+02 -0.16287461310E+02 -0.20343203013E+01  0.20887316807E+02  0.10000000000E+01 0.  0.
    9000005    1    3    3    0    0 -0.12878670288E+02  0.16287461310E+02  0.32137940472E+03  0.32205102596E+03  0.10000000000E+01 0.  0.
<mgrwt>
<rscale>  0 0.12500170E+03</rscale>
<asrwt>0</asrwt>
<pdfrwt beam="1">  1        4 0.82785428E-01 0.12500170E+03</pdfrwt>
<pdfrwt beam="2">  1       -4 0.29491573E-02 0.12500170E+03</pdfrwt>
<totfact> 0.11847137E+03</totfact>
</mgrwt>
</event>
<event>
 5    1  0.1438401E-002  0.1249967E+03  0.7818608E-02  0.1235074E+00
          4   -1    0    0  501    0  0.00000000000E+00  0.00000000000E+00  0.38177878137E+02  0.38198995786E+02  0.12700000000E+01 0. -1.
         -4   -1    0    0    0  501 -0.00000000000E+00 -0.00000000000E+00 -0.10225830377E+03  0.10226618986E+03  0.12700000000E+01 0. -1.
         25    2    1    2    0    0  0.00000000000E+00  0.00000000000E+00 -0.64080425630E+02  0.14046518565E+03  0.12499666968E+03 0.  0.
    9000005    1    3    3    0    0  0.54062378244E+02  0.27454498516E+02 -0.49029001505E+02  0.77982903375E+02  0.10000000000E+01 0.  0.
    9000005    1    3    3    0    0 -0.54062378244E+02 -0.27454498516E+02 -0.15051424125E+02  0.62482282276E+02  0.10000000000E+01 0.  0.
<mgrwt>
<rscale>  0 0.12499667E+03</rscale>
<asrwt>0</asrwt>
<pdfrwt beam="1">  1        4 0.95480952E-02 0.12499667E+03</pdfrwt>
<pdfrwt beam="2">  1       -4 0.25568201E-01 0.12499667E+03</pdfrwt>
<totfact> 0.19018046E+03</totfact>
</mgrwt>
</event>
<event>
 5    1  0.1438401E-002  0.1249969E+03  0.7818608E-02  0.1235074E+00
         -4   -1    0    0    0  501 -0.00000000000E+00  0.00000000000E+00  0.51507582407E+02  0.51523236946E+02  0.12700000000E+01 0.  1.
          4   -1    0    0  501    0  0.00000000000E+00 -0.00000000000E+00 -0.75802060610E+02  0.75812698756E+02  0.12700000000E+01 0.  1.
         25    2    1    2    0    0  0.00000000000E+00  0.00000000000E+00 -0.24294478203E+02  0.12733593570E+03  0.12499687536E+03 0.  0.
    9000005    1    3    3    0    0  0.98398424804E+01  0.36608706562E+02  0.38461727356E+02  0.54012261269E+02  0.10000000000E+01 0.  0.
    9000005    1    3    3    0    0 -0.98398424804E+01 -0.36608706562E+02 -0.62756205559E+02  0.73323674433E+02  0.10000000000E+01 0.  0.
<mgrwt>
<rscale>  0 0.12499688E+03</rscale>
<asrwt>0</asrwt>
<pdfrwt beam="2">  1        4 0.18953802E-01 0.12499688E+03</pdfrwt>
<pdfrwt beam="1">  1       -4 0.12880182E-01 0.12499688E+03</pdfrwt>
<totfact> 0.19710184E+03</totfact>
</mgrwt>
</event>
<event>
 5    1  0.1438401E-002  0.1249992E+03  0.7818608E-02  0.1235071E+00
          4   -1    0    0  501    0  0.00000000000E+00  0.00000000000E+00  0.10094105402E+04  0.10094113391E+04  0.12700000000E+01 0. -1.
         -4   -1    0    0    0  501 -0.00000000000E+00 -0.00000000000E+00 -0.37647640444E+01  0.39732037841E+01  0.12700000000E+01 0. -1.
         25    2    1    2    0    0  0.00000000000E+00  0.00000000000E+00  0.10056457761E+04  0.10133845429E+04  0.12499921888E+03 0.  0.
    9000005    1    3    3    0    0  0.45663092112E+02  0.17784917010E+02  0.18843984155E+03  0.19471002835E+03  0.10000000000E+01 0.  0.
    9000005    1    3    3    0    0 -0.45663092112E+02 -0.17784917010E+02  0.81720593457E+03  0.81867451454E+03  0.10000000000E+01 0.  0.
<mgrwt>
<rscale>  0 0.12499922E+03</rscale>
<asrwt>0</asrwt>
<pdfrwt beam="1">  1        4 0.25237870E+00 0.12499922E+03</pdfrwt>
<pdfrwt beam="2">  1       -4 0.96734618E-03 0.12499922E+03</pdfrwt>
<totfact> 0.36216724E+02</totfact>
</mgrwt>
</event>
<event>
 5    1  0.1438401E-002  0.1250149E+03  0.7818608E-02  0.1235046E+00
         -4   -1    0    0    0  501 -0.00000000000E+00  0.00000000000E+00  0.53083829566E+01  0.54581892248E+01  0.12700000000E+01 0.  1.
          4   -1    0    0  501    0  0.00000000000E+00 -0.00000000000E+00 -0.72564819018E+03  0.72564930153E+03  0.12700000000E+01 0.  1.
         25    2    1    2    0    0  0.00000000000E+00  0.00000000000E+00 -0.72033980722E+03  0.73110749075E+03  0.12501489978E+03 0.  0.
    9000005    1    3    3    0    0  0.42044779704E+02  0.19560223468E+02 -0.60522226371E+03  0.60699699697E+03  0.10000000000E+01 0.  0.
    9000005    1    3    3    0    0 -0.42044779704E+02 -0.19560223468E+02 -0.11511754351E+03  0.12411049378E+03  0.10000000000E+01 0.  0.
<mgrwt>
<rscale>  0 0.12501490E+03</rscale>
<asrwt>0</asrwt>
<pdfrwt beam="2">  1        4 0.18143058E+00 0.12501490E+03</pdfrwt>
<pdfrwt beam="1">  1       -4 0.13459629E-02 0.12501490E+03</pdfrwt>
<totfact> 0.58885509E+02</totfact>
</mgrwt>
</event>
<event>
 5    1  0.1438401E-002  0.1249975E+03  0.7818608E-02  0.1235073E+00
          4   -1    0    0  501    0  0.00000000000E+00  0.00000000000E+00  0.97742863560E+02  0.97751113942E+02  0.12700000000E+01 0.  1.
         -4   -1    0    0    0  501 -0.00000000000E+00 -0.00000000000E+00 -0.39942948868E+02  0.39963133814E+02  0.12700000000E+01 0.  1.
         25    2    1    2    0    0  0.00000000000E+00  0.00000000000E+00  0.57799914692E+02  0.13771424776E+03  0.12499753556E+03 0.  0.
    9000005    1    3    3    0    0 -0.91144974876E+00  0.14138414674E+01  0.97723317846E+02  0.97742910429E+02  0.10000000000E+01 0.  0.
    9000005    1    3    3    0    0  0.91144974876E+00 -0.14138414674E+01 -0.39923403154E+02  0.39971337327E+02  0.10000000000E+01 0.  0.
<mgrwt>
<rscale>  0 0.12499754E+03</rscale>
<asrwt>0</asrwt>
<pdfrwt beam="1">  1        4 0.24439270E-01 0.12499754E+03</pdfrwt>
<pdfrwt beam="2">  1       -4 0.99892917E-02 0.12499754E+03</pdfrwt>
<totfact> 0.19158996E+03</totfact>
</mgrwt>
</event>
<event>
 5    1  0.1438401E-002  0.1249980E+03  0.7818608E-02  0.1235072E+00
         -4   -1    0    0    0  501 -0.00000000000E+00  0.00000000000E+00  0.27653877713E+03  0.27654169334E+03  0.12700000000E+01 0.  1.
          4   -1    0    0  501    0  0.00000000000E+00 -0.00000000000E+00 -0.14093504589E+02  0.14150610291E+02  0.12700000000E+01 0.  1.
         25    2    1    2    0    0  0.00000000000E+00  0.00000000000E+00  0.26244527254E+03  0.29069230363E+03  0.12499797723E+03 0.  0.
    9000005    1    3    3    0    0 -0.54582243067E+02  0.15084608611E+02  0.69765932445E+02  0.89861293142E+02  0.10000000000E+01 0.  0.
    9000005    1    3    3    0    0  0.54582243067E+02 -0.15084608611E+02  0.19267934009E+03  0.20083101049E+03  0.10000000000E+01 0.  0.
<mgrwt>
<rscale>  0 0.12499798E+03</rscale>
<asrwt>0</asrwt>
<pdfrwt beam="2">  1        4 0.35308791E-02 0.12499798E+03</pdfrwt>
<pdfrwt beam="1">  1       -4 0.69142194E-01 0.12499798E+03</pdfrwt>
<totfact> 0.13236604E+03</totfact>
</mgrwt>
</event>
<event>
 5    1  0.1438401E-002  0.1250091E+03  0.7818608E-02  0.1235055E+00
         -4   -1    0    0    0  501 -0.00000000000E+00  0.00000000000E+00  0.56196569767E+03  0.56196713272E+03  0.12700000000E+01 0. -1.
          4   -1    0    0  501    0  0.00000000000E+00 -0.00000000000E+00 -0.68925981823E+01  0.70086239521E+01  0.12700000000E+01 0. -1.
         25    2    1    2    0    0  0.00000000000E+00  0.00000000000E+00  0.55507309948E+03  0.56897575667E+03  0.12500906329E+03 0.  0.
    9000005    1    3    3    0    0  0.58450750423E+02  0.22029591572E+02  0.28666602850E+03  0.29339428254E+03  0.10000000000E+01 0.  0.
    9000005    1    3    3    0    0 -0.58450750423E+02 -0.22029591572E+02  0.26840707098E+03  0.27558147413E+03  0.10000000000E+01 0.  0.
<mgrwt>
<rscale>  0 0.12500906E+03</rscale>
<asrwt>0</asrwt>
<pdfrwt beam="2">  1        4 0.17378321E-02 0.12500906E+03</pdfrwt>
<pdfrwt beam="1">  1       -4 0.14050611E+00 0.12500906E+03</pdfrwt>
<totfact> 0.77534563E+02</totfact>
</mgrwt>
</event>
<event>
 5    1  0.1438401E-002  0.1250013E+03  0.7818608E-02  0.1235067E+00
          4   -1    0    0  501    0  0.00000000000E+00  0.00000000000E+00  0.44844865582E+02  0.44862845084E+02  0.12700000000E+01 0. -1.
         -4   -1    0    0    0  501 -0.00000000000E+00 -0.00000000000E+00 -0.87067535509E+02  0.87076797366E+02  0.12700000000E+01 0. -1.
         25    2    1    2    0    0  0.00000000000E+00  0.00000000000E+00 -0.42222669927E+02  0.13193964245E+03  0.12500126157E+03 0.  0.
    9000005    1    3    3    0    0 -0.52236802645E+02  0.34272534076E+02 -0.19604248378E+02  0.65487530852E+02  0.10000000000E+01 0.  0.
    9000005    1    3    3    0    0  0.52236802645E+02 -0.34272534076E+02 -0.22618421549E+02  0.66452111599E+02  0.10000000000E+01 0.  0.
<mgrwt>
<rscale>  0 0.12500126E+03</rscale>
<asrwt>0</asrwt>
<pdfrwt beam="1">  1        4 0.11214622E-01 0.12500126E+03</pdfrwt>
<pdfrwt beam="2">  1       -4 0.21770289E-01 0.12500126E+03</pdfrwt>
<totfact> 0.19460092E+03</totfact>
</mgrwt>
</event>
<event>
 5    1  0.1438401E-002  0.1250011E+03  0.7818608E-02  0.1235067E+00
          4   -1    0    0  501    0  0.00000000000E+00  0.00000000000E+00  0.51242598334E+02  0.51258333801E+02  0.12700000000E+01 0.  1.
         -4   -1    0    0    0  501 -0.00000000000E+00 -0.00000000000E+00 -0.76199192478E+02  0.76209775188E+02  0.12700000000E+01 0.  1.
         25    2    1    2    0    0  0.00000000000E+00  0.00000000000E+00 -0.24956594144E+02  0.12746810899E+03  0.12500114887E+03 0.  0.
    9000005    1    3    3    0    0 -0.56060799129E+02 -0.24229061904E+02  0.10292982978E+01  0.61089443398E+02  0.10000000000E+01 0.  0.
    9000005    1    3    3    0    0  0.56060799129E+02  0.24229061904E+02 -0.25985892441E+02  0.66378665591E+02  0.10000000000E+01 0.  0.
<mgrwt>
<rscale>  0 0.12500115E+03</rscale>
<asrwt>0</asrwt>
<pdfrwt beam="1">  1        4 0.12813939E-01 0.12500115E+03</pdfrwt>
<pdfrwt beam="2">  1       -4 0.19053088E-01 0.12500115E+03</pdfrwt>
<totfact> 0.19700997E+03</totfact>
</mgrwt>
</event>
<event>
 5    1  0.1438401E-002  0.1249922E+03  0.7818608E-02  0.1235082E+00
         -4   -1    0    0    0  501 -0.00000000000E+00  0.00000000000E+00  0.19457823855E+03  0.19458238311E+03  0.12700000000E+01 0. -1.
          4   -1    0    0  501    0  0.00000000000E+00 -0.00000000000E+00 -0.20048502689E+02  0.20088687365E+02  0.12700000000E+01 0. -1.
         25    2    1    2    0    0  0.00000000000E+00  0.00000000000E+00  0.17452973586E+03  0.21467107048E+03  0.12499215895E+03 0.  0.
    9000005    1    3    3    0    0 -0.48125944434E+02 -0.23846371002E+02  0.32412965803E+02  0.62740388027E+02  0.10000000000E+01 0.  0.
    9000005    1    3    3    0    0  0.48125944434E+02  0.23846371002E+02  0.14211677006E+03  0.15193068245E+03  0.10000000000E+01 0.  0.
<mgrwt>
<rscale>  0 0.12499216E+03</rscale>
<asrwt>0</asrwt>
<pdfrwt beam="2">  1        4 0.50176670E-02 0.12499216E+03</pdfrwt>
<pdfrwt beam="1">  1       -4 0.48650100E-01 0.12499216E+03</pdfrwt>
<totfact> 0.15753821E+03</totfact>
</mgrwt>
</event>
<event>
 5    1  0.1438401E-002  0.1249994E+03  0.7818608E-02  0.1235070E+00
         -4   -1    0    0    0  501 -0.00000000000E+00  0.00000000000E+00  0.12066262012E+03  0.12066930345E+03  0.12700000000E+01 0. -1.
          4   -1    0    0  501    0  0.00000000000E+00 -0.00000000000E+00 -0.32352997653E+02  0.32377914650E+02  0.12700000000E+01 0. -1.
         25    2    1    2    0    0  0.00000000000E+00  0.00000000000E+00  0.88309622466E+02  0.15304721810E+03  0.12499944619E+03 0.  0.
    9000005    1    3    3    0    0 -0.15080653765E+02 -0.28154559347E+02 -0.21610751925E+02  0.38576287130E+02  0.10000000000E+01 0.  0.
    9000005    1    3    3    0    0  0.15080653765E+02  0.28154559347E+02  0.10992037439E+03  0.11447093097E+03  0.10000000000E+01 0.  0.
<mgrwt>
<rscale>  0 0.12499945E+03</rscale>
<asrwt>0</asrwt>
<pdfrwt beam="2">  1        4 0.80921995E-02 0.12499945E+03</pdfrwt>
<pdfrwt beam="1">  1       -4 0.30169605E-01 0.12499945E+03</pdfrwt>
<totfact> 0.18390194E+03</totfact>
</mgrwt>
</event>
<event>
 5    1  0.1438401E-002  0.1249979E+03  0.7818608E-02  0.1235073E+00
         -4   -1    0    0    0  501 -0.00000000000E+00  0.00000000000E+00  0.28874968202E+02  0.28902883744E+02  0.12700000000E+01 0.  1.
          4   -1    0    0  501    0  0.00000000000E+00 -0.00000000000E+00 -0.13518077222E+03  0.13518673781E+03  0.12700000000E+01 0.  1.
         25    2    1    2    0    0  0.00000000000E+00  0.00000000000E+00 -0.10630580402E+03  0.16408962155E+03  0.12499791971E+03 0.  0.
    9000005    1    3    3    0    0  0.44801982495E+02 -0.19580040365E+02 -0.20651891085E+01  0.48947529276E+02  0.10000000000E+01 0.  0.
    9000005    1    3    3    0    0 -0.44801982495E+02  0.19580040365E+02 -0.10424061491E+03  0.11514209227E+03  0.10000000000E+01 0.  0.
<mgrwt>
<rscale>  0 0.12499792E+03</rscale>
<asrwt>0</asrwt>
<pdfrwt beam="2">  1        4 0.33799427E-01 0.12499792E+03</pdfrwt>
<pdfrwt beam="1">  1       -4 0.72229775E-02 0.12499792E+03</pdfrwt>
<totfact> 0.17867836E+03</totfact>
</mgrwt>
</event>
<event>
 5    1  0.1438401E-002  0.1249981E+03  0.7818608E-02  0.1235072E+00
          4   -1    0    0  501    0  0.00000000000E+00  0.00000000000E+00  0.23881147610E+03  0.23881485301E+03  0.12700000000E+01 0. -1.
         -4   -1    0    0    0  501 -0.00000000000E+00 -0.00000000000E+00 -0.16328403417E+02  0.16377718344E+02  0.12700000000E+01 0. -1.
         25    2    1    2    0    0  0.00000000000E+00  0.00000000000E+00  0.22248307268E+03  0.25519257135E+03  0.12499812336E+03 0.  0.
    9000005    1    3    3    0    0  0.57668432885E+02  0.11787283934E+02  0.15409238478E+03  0.16495469457E+03  0.10000000000E+01 0.  0.
    9000005    1    3    3    0    0 -0.57668432885E+02 -0.11787283934E+02  0.68390687900E+02  0.90237876778E+02  0.10000000000E+01 0.  0.
<mgrwt>
<rscale>  0 0.12499812E+03</rscale>
<asrwt>0</asrwt>
<pdfrwt beam="1">  1        4 0.59709455E-01 0.12499812E+03</pdfrwt>
<pdfrwt beam="2">  1       -4 0.40886874E-02 0.12499812E+03</pdfrwt>
<totfact> 0.14327453E+03</totfact>
</mgrwt>
</event>
<event>
 5    1  0.1438401E-002  0.1250059E+03  0.7818608E-02  0.1235060E+00
         -4   -1    0    0    0  501 -0.00000000000E+00  0.00000000000E+00  0.56541208652E+02  0.56555469902E+02  0.12700000000E+01 0. -1.
          4   -1    0    0  501    0  0.00000000000E+00 -0.00000000000E+00 -0.69064492633E+02  0.69076168413E+02  0.12700000000E+01 0. -1.
         25    2    1    2    0    0  0.00000000000E+00  0.00000000000E+00 -0.12523283981E+02  0.12563163832E+03  0.12500590348E+03 0.  0.
    9000005    1    3    3    0    0 -0.61934359980E+02 -0.82406826641E+01 -0.76268152230E+01  0.62951903127E+02  0.10000000000E+01 0.  0.
    9000005    1    3    3    0    0  0.61934359980E+02  0.82406826641E+01 -0.48964687575E+01  0.62679735188E+02  0.10000000000E+01 0.  0.
<mgrwt>
<rscale>  0 0.12500590E+03</rscale>
<asrwt>0</asrwt>
<pdfrwt beam="2">  1        4 0.17269365E-01 0.12500590E+03</pdfrwt>
<pdfrwt beam="1">  1       -4 0.14138544E-01 0.12500590E+03</pdfrwt>
<totfact> 0.19798104E+03</totfact>
</mgrwt>
</event>
<event>
 5    1  0.1438401E-002  0.1249989E+03  0.7818608E-02  0.1235071E+00
         -4   -1    0    0    0  501 -0.00000000000E+00  0.00000000000E+00  0.84030979540E+03  0.84031075511E+03  0.12700000000E+01 0.  1.
          4   -1    0    0  501    0  0.00000000000E+00 -0.00000000000E+00 -0.45607787485E+01  0.47343006656E+01  0.12700000000E+01 0.  1.
         25    2    1    2    0    0  0.00000000000E+00  0.00000000000E+00  0.83574901665E+03  0.84504505577E+03  0.12499890979E+03 0.  0.
    9000005    1    3    3    0    0  0.33202706630E+02 -0.38214453922E+02  0.66556963727E+03  0.66749285110E+03  0.10000000000E+01 0.  0.
    9000005    1    3    3    0    0 -0.33202706630E+02  0.38214453922E+02  0.17017937938E+03  0.17755220467E+03  0.10000000000E+01 0.  0.
<mgrwt>
<rscale>  0 0.12499891E+03</rscale>
<asrwt>0</asrwt>
<pdfrwt beam="2">  1        4 0.11620049E-02 0.12499891E+03</pdfrwt>
<pdfrwt beam="1">  1       -4 0.21009926E+00 0.12499891E+03</pdfrwt>
<totfact> 0.48639862E+02</totfact>
</mgrwt>
</event>
<event>
 5    1  0.1438401E-002  0.1249982E+03  0.7818608E-02  0.1235072E+00
          4   -1    0    0  501    0  0.00000000000E+00  0.00000000000E+00  0.44896176075E+02  0.44914135037E+02  0.12700000000E+01 0. -1.
         -4   -1    0    0    0  501 -0.00000000000E+00 -0.00000000000E+00 -0.86963812200E+02  0.86973085103E+02  0.12700000000E+01 0. -1.
         25    2    1    2    0    0  0.00000000000E+00  0.00000000000E+00 -0.42067636125E+02  0.13188722014E+03  0.12499821130E+03 0.  0.
    9000005    1    3    3    0    0 -0.33483100072E+02 -0.52716295663E+02 -0.23396043027E+02  0.66697081257E+02  0.10000000000E+01 0.  0.
    9000005    1    3    3    0    0  0.33483100072E+02  0.52716295663E+02 -0.18671593098E+02  0.65190138883E+02  0.10000000000E+01 0.  0.
<mgrwt>
<rscale>  0 0.12499821E+03</rscale>
<asrwt>0</asrwt>
<pdfrwt beam="1">  1        4 0.11227448E-01 0.12499821E+03</pdfrwt>
<pdfrwt beam="2">  1       -4 0.21744357E-01 0.12499821E+03</pdfrwt>
<totfact> 0.19464266E+03</totfact>
</mgrwt>
</event>
<event>
 5    1  0.1438401E-002  0.1250013E+03  0.7818608E-02  0.1235067E+00
          4   -1    0    0  501    0  0.00000000000E+00  0.00000000000E+00  0.25003667731E+02  0.25035900223E+02  0.12700000000E+01 0.  1.
         -4   -1    0    0    0  501 -0.00000000000E+00 -0.00000000000E+00 -0.15609484527E+03  0.15610001159E+03  0.12700000000E+01 0.  1.
         25    2    1    2    0    0  0.00000000000E+00  0.00000000000E+00 -0.13109117754E+03  0.18113591182E+03  0.12500128688E+03 0.  0.
    9000005    1    3    3    0    0 -0.64915247917E+01 -0.54831908809E+01 -0.15526090190E+03  0.15549647242E+03  0.10000000000E+01 0.  0.
    9000005    1    3    3    0    0  0.64915247917E+01  0.54831908809E+01  0.24169724367E+02  0.25639439392E+02  0.10000000000E+01 0.  0.
<mgrwt>
<rscale>  0 0.12500129E+03</rscale>
<asrwt>0</asrwt>
<pdfrwt beam="1">  1        4 0.62555922E-02 0.12500129E+03</pdfrwt>
<pdfrwt beam="2">  1       -4 0.39028383E-01 0.12500129E+03</pdfrwt>
<totfact> 0.17105650E+03</totfact>
</mgrwt>
</event>
<event>
 5    1  0.1438401E-002  0.1250008E+03  0.7818608E-02  0.1235068E+00
          4   -1    0    0  501    0  0.00000000000E+00  0.00000000000E+00  0.47032527533E+03  0.47032698999E+03  0.12700000000E+01 0.  1.
         -4   -1    0    0    0  501 -0.00000000000E+00 -0.00000000000E+00 -0.82552354852E+01  0.83523537350E+01  0.12700000000E+01 0.  1.
         25    2    1    2    0    0  0.00000000000E+00  0.00000000000E+00  0.46207003984E+03  0.47867934372E+03  0.12500076955E+03 0.  0.
    9000005    1    3    3    0    0  0.51241644282E+02  0.30718161788E+02  0.16084216122E+03  0.17158237788E+03  0.10000000000E+01 0.  0.
    9000005    1    3    3    0    0 -0.51241644282E+02 -0.30718161788E+02  0.30122787862E+03  0.30709696584E+03  0.10000000000E+01 0.  0.
<mgrwt>
<rscale>  0 0.12500077E+03</rscale>
<asrwt>0</asrwt>
<pdfrwt beam="1">  1        4 0.11759366E+00 0.12500077E+03</pdfrwt>
<pdfrwt beam="2">  1       -4 0.20761632E-02 0.12500077E+03</pdfrwt>
<totfact> 0.91084035E+02</totfact>
</mgrwt>
</event>
<event>
 5    1  0.1438401E-002  0.1250014E+03  0.7818608E-02  0.1235067E+00
         -4   -1    0    0    0  501 -0.00000000000E+00  0.00000000000E+00  0.76010355859E+03  0.76010461956E+03  0.12700000000E+01 0.  1.
          4   -1    0    0  501    0  0.00000000000E+00 -0.00000000000E+00 -0.50596772122E+01  0.52166304730E+01  0.12700000000E+01 0.  1.
         25    2    1    2    0    0  0.00000000000E+00  0.00000000000E+00  0.75504388138E+03  0.76532125003E+03  0.12500141179E+03 0.  0.
    9000005    1    3    3    0    0 -0.31154189666E+02 -0.53936332813E+02  0.34652811028E+03  0.35208300548E+03  0.10000000000E+01 0.  0.
    9000005    1    3    3    0    0  0.31154189666E+02  0.53936332813E+02  0.40851577109E+03  0.41323824456E+03  0.10000000000E+01 0.  0.
<mgrwt>
<rscale>  0 0.12500141E+03</rscale>
<asrwt>0</asrwt>
<pdfrwt beam="2">  1        4 0.12846706E-02 0.12500141E+03</pdfrwt>
<pdfrwt beam="1">  1       -4 0.19004571E+00 0.12500141E+03</pdfrwt>
<totfact> 0.55624438E+02</totfact>
</mgrwt>
</event>
<event>
 5    1  0.1438401E-002  0.1249991E+03  0.7818608E-02  0.1235071E+00
          4   -1    0    0  501    0  0.00000000000E+00  0.00000000000E+00  0.33625241911E+03  0.33625481745E+03  0.12700000000E+01 0. -1.
         -4   -1    0    0    0  501 -0.00000000000E+00 -0.00000000000E+00 -0.11579682877E+02  0.11649118229E+02  0.12700000000E+01 0. -1.
         25    2    1    2    0    0  0.00000000000E+00  0.00000000000E+00  0.32467273623E+03  0.34790393568E+03  0.12499905122E+03 0.  0.
    9000005    1    3    3    0    0 -0.33807503985E+02  0.45624767761E+02  0.89724729689E+02  0.10618895365E+03  0.10000000000E+01 0.  0.
    9000005    1    3    3    0    0  0.33807503985E+02 -0.45624767761E+02  0.23494800655E+03  0.24171498203E+03  0.10000000000E+01 0.  0.
<mgrwt>
<rscale>  0 0.12499905E+03</rscale>
<asrwt>0</asrwt>
<pdfrwt beam="1">  1        4 0.84072081E-01 0.12499905E+03</pdfrwt>
<pdfrwt beam="2">  1       -4 0.29039000E-02 0.12499905E+03</pdfrwt>
<totfact> 0.11727729E+03</totfact>
</mgrwt>
</event>
<event>
 5    1  0.1438401E-002  0.1250087E+03  0.7818608E-02  0.1235056E+00
          4   -1    0    0  501    0  0.00000000000E+00  0.00000000000E+00  0.76993450899E+03  0.76993555641E+03  0.12700000000E+01 0. -1.
         -4   -1    0    0    0  501 -0.00000000000E+00 -0.00000000000E+00 -0.49936600565E+01  0.51526246477E+01  0.12700000000E+01 0. -1.
         25    2    1    2    0    0  0.00000000000E+00  0.00000000000E+00  0.76494084893E+03  0.77508818106E+03  0.12500874392E+03 0.  0.
    9000005    1    3    3    0    0 -0.50689781178E+02 -0.36831635228E+01  0.60797430774E+03  0.61009571256E+03  0.10000000000E+01 0.  0.
    9000005    1    3    3    0    0  0.50689781178E+02  0.36831635228E+01  0.15696654119E+03  0.16499246850E+03  0.10000000000E+01 0.  0.
<mgrwt>
<rscale>  0 0.12500874E+03</rscale>
<asrwt>0</asrwt>
<pdfrwt beam="1">  1        4 0.19250365E+00 0.12500874E+03</pdfrwt>
<pdfrwt beam="2">  1       -4 0.12684164E-02 0.12500874E+03</pdfrwt>
<totfact> 0.54713047E+02</totfact>
</mgrwt>
</event>
<event>
 5    1  0.1438401E-002  0.1250008E+03  0.7818608E-02  0.1235068E+00
         -4   -1    0    0    0  501 -0.00000000000E+00  0.00000000000E+00  0.10153572269E+03  0.10154366490E+03  0.12700000000E+01 0. -1.
          4   -1    0    0  501    0  0.00000000000E+00 -0.00000000000E+00 -0.38452243348E+02  0.38473210400E+02  0.12700000000E+01 0. -1.
         25    2    1    2    0    0  0.00000000000E+00  0.00000000000E+00  0.63083479340E+02  0.14001687530E+03  0.12500080001E+03 0.  0.
    9000005    1    3    3    0    0 -0.45024743508E+02 -0.31385318413E+02  0.65015280107E+02  0.85089672624E+02  0.10000000000E+01 0.  0.
    9000005    1    3    3    0    0  0.45024743508E+02  0.31385318413E+02 -0.19318007672E+01  0.54927202678E+02  0.10000000000E+01 0.  0.
<mgrwt>
<rscale>  0 0.12500080E+03</rscale>
<asrwt>0</asrwt>
<pdfrwt beam="2">  1        4 0.96166745E-02 0.12500080E+03</pdfrwt>
<pdfrwt beam="1">  1       -4 0.25387544E-01 0.12500080E+03</pdfrwt>
<totfact> 0.19039124E+03</totfact>
</mgrwt>
</event>
<event>
 5    1  0.1438401E-002  0.1250010E+03  0.7818608E-02  0.1235068E+00
          4   -1    0    0  501    0  0.00000000000E+00  0.00000000000E+00  0.24162163326E+02  0.24195516870E+02  0.12700000000E+01 0.  1.
         -4   -1    0    0    0  501 -0.00000000000E+00 -0.00000000000E+00 -0.16152337605E+03  0.16152836875E+03  0.12700000000E+01 0.  1.
         25    2    1    2    0    0  0.00000000000E+00  0.00000000000E+00 -0.13736121272E+03  0.18572388562E+03  0.12500103571E+03 0.  0.
    9000005    1    3    3    0    0  0.52868834409E+02 -0.31184929204E+02 -0.51245559305E+02  0.79966998254E+02  0.10000000000E+01 0.  0.
    9000005    1    3    3    0    0 -0.52868834409E+02  0.31184929204E+02 -0.86115653416E+02  0.10575688736E+03  0.10000000000E+01 0.  0.
<mgrwt>
<rscale>  0 0.12500104E+03</rscale>
<asrwt>0</asrwt>
<pdfrwt beam="1">  1        4 0.60453346E-02 0.12500104E+03</pdfrwt>
<pdfrwt beam="2">  1       -4 0.40385634E-01 0.12500104E+03</pdfrwt>
<totfact> 0.16909699E+03</totfact>
</mgrwt>
</event>
<event>
 5    1  0.1438401E-002  0.1249989E+03  0.7818608E-02  0.1235071E+00
          4   -1    0    0  501    0  0.00000000000E+00  0.00000000000E+00  0.27195834041E+02  0.27225471331E+02  0.12700000000E+01 0.  1.
         -4   -1    0    0    0  501 -0.00000000000E+00 -0.00000000000E+00 -0.14352092875E+03  0.14352654768E+03  0.12700000000E+01 0.  1.
         25    2    1    2    0    0  0.00000000000E+00  0.00000000000E+00 -0.11632509471E+03  0.17075201901E+03  0.12499889734E+03 0.  0.
    9000005    1    3    3    0    0 -0.11649536726E+02  0.56092157019E+02 -0.24062715584E+02  0.62145442844E+02  0.10000000000E+01 0.  0.
    9000005    1    3    3    0    0  0.11649536726E+02 -0.56092157019E+02 -0.92262379124E+02  0.10860657617E+03  0.10000000000E+01 0.  0.
<mgrwt>
<rscale>  0 0.12499890E+03</rscale>
<asrwt>0</asrwt>
<pdfrwt beam="1">  1        4 0.68033659E-02 0.12499890E+03</pdfrwt>
<pdfrwt beam="2">  1       -4 0.35884637E-01 0.12499890E+03</pdfrwt>
<totfact> 0.17563631E+03</totfact>
</mgrwt>
</event>
<event>
 5    1  0.1438401E-002  0.1249974E+03  0.7818608E-02  0.1235073E+00
          4   -1    0    0  501    0  0.00000000000E+00  0.00000000000E+00  0.75834884530E+03  0.75834990872E+03  0.12700000000E+01 0. -1.
         -4   -1    0    0    0  501 -0.00000000000E+00 -0.00000000000E+00 -0.50714082307E+01  0.52280093193E+01  0.12700000000E+01 0. -1.
         25    2    1    2    0    0  0.00000000000E+00  0.00000000000E+00  0.75327743707E+03  0.76357791804E+03  0.12499735890E+03 0.  0.
    9000005    1    3    3    0    0 -0.62310030742E+02  0.47273532342E+01  0.37392645159E+03  0.37911327990E+03  0.10000000000E+01 0.  0.
    9000005    1    3    3    0    0  0.62310030742E+02 -0.47273532342E+01  0.37935098547E+03  0.38446463814E+03  0.10000000000E+01 0.  0.
<mgrwt>
<rscale>  0 0.12499736E+03</rscale>
<asrwt>0</asrwt>
<pdfrwt beam="1">  1        4 0.18960694E+00 0.12499736E+03</pdfrwt>
<pdfrwt beam="2">  1       -4 0.12875600E-02 0.12499736E+03</pdfrwt>
<totfact> 0.55791959E+02</totfact>
</mgrwt>
</event>
<event>
 5    1  0.1438401E-002  0.1250151E+03  0.7818608E-02  0.1235046E+00
         -4   -1    0    0    0  501 -0.00000000000E+00  0.00000000000E+00  0.50456786440E+03  0.50456946269E+03  0.12700000000E+01 0.  1.
          4   -1    0    0  501    0  0.00000000000E+00 -0.00000000000E+00 -0.76899517494E+01  0.77941168780E+01  0.12700000000E+01 0.  1.
         25    2    1    2    0    0  0.00000000000E+00  0.00000000000E+00  0.49687791265E+03  0.51236357957E+03  0.12501510946E+03 0.  0.
    9000005    1    3    3    0    0  0.35227977289E+02  0.50706815755E+02  0.28817514941E+03  0.29471699694E+03  0.10000000000E+01 0.  0.
    9000005    1    3    3    0    0 -0.35227977289E+02 -0.50706815755E+02  0.20870276324E+03  0.21764658263E+03  0.10000000000E+01 0.  0.
<mgrwt>
<rscale>  0 0.12501511E+03</rscale>
<asrwt>0</asrwt>
<pdfrwt beam="2">  1        4 0.19357083E-02 0.12501511E+03</pdfrwt>
<pdfrwt beam="1">  1       -4 0.12615519E+00 0.12501511E+03</pdfrwt>
<totfact> 0.85643997E+02</totfact>
</mgrwt>
</event>
<event>
 5    1  0.1438401E-002  0.1249968E+03  0.7818608E-02  0.1235074E+00
         -4   -1    0    0    0  501 -0.00000000000E+00  0.00000000000E+00  0.87994331978E+01  0.88906087870E+01  0.12700000000E+01 0. -1.
          4   -1    0    0  501    0  0.00000000000E+00 -0.00000000000E+00 -0.44151792915E+03  0.44151975568E+03  0.12700000000E+01 0. -1.
         25    2    1    2    0    0  0.00000000000E+00  0.00000000000E+00 -0.43271849595E+03  0.45041036447E+03  0.12499679870E+03 0.  0.
    9000005    1    3    3    0    0 -0.25704474253E+02 -0.42446569107E+02 -0.35322199835E+03  0.35669203992E+03  0.10000000000E+01 0.  0.
    9000005    1    3    3    0    0  0.25704474253E+02  0.42446569107E+02 -0.79496497601E+02  0.93718324550E+02  0.10000000000E+01 0.  0.
<mgrwt>
<rscale>  0 0.12499680E+03</rscale>
<asrwt>0</asrwt>
<pdfrwt beam="2">  1        4 0.11039103E+00 0.12499680E+03</pdfrwt>
<pdfrwt beam="1">  1       -4 0.22114851E-02 0.12499680E+03</pdfrwt>
<totfact> 0.95950354E+02</totfact>
</mgrwt>
</event>
<event>
 5    1  0.1438401E-002  0.1250029E+03  0.7818608E-02  0.1235065E+00
         -4   -1    0    0    0  501 -0.00000000000E+00  0.00000000000E+00  0.10265122108E+02  0.10343385901E+02  0.12700000000E+01 0.  1.
          4   -1    0    0  501    0  0.00000000000E+00 -0.00000000000E+00 -0.37902948973E+03  0.37903161740E+03  0.12700000000E+01 0.  1.
         25    2    1    2    0    0  0.00000000000E+00  0.00000000000E+00 -0.36876436763E+03  0.38937500330E+03  0.12500293742E+03 0.  0.
    9000005    1    3    3    0    0 -0.37916483202E+02 -0.35458000799E+02 -0.76006718166E+02  0.92048632393E+02  0.10000000000E+01 0.  0.
    9000005    1    3    3    0    0  0.37916483202E+02  0.35458000799E+02 -0.29275764946E+03  0.29732637091E+03  0.10000000000E+01 0.  0.
<mgrwt>
<rscale>  0 0.12500294E+03</rscale>
<asrwt>0</asrwt>
<pdfrwt beam="2">  1        4 0.94767375E-01 0.12500294E+03</pdfrwt>
<pdfrwt beam="1">  1       -4 0.25763307E-02 0.12500294E+03</pdfrwt>
<totfact> 0.10790661E+03</totfact>
</mgrwt>
</event>
<event>
 5    1  0.1438401E-002  0.1249991E+03  0.7818608E-02  0.1235071E+00
          4   -1    0    0  501    0  0.00000000000E+00  0.00000000000E+00  0.28399747447E+03  0.28400031409E+03  0.12700000000E+01 0. -1.
         -4   -1    0    0    0  501 -0.00000000000E+00 -0.00000000000E+00 -0.13722089022E+02  0.13780733911E+02  0.12700000000E+01 0. -1.
         25    2    1    2    0    0  0.00000000000E+00  0.00000000000E+00  0.27027538545E+03  0.29778104800E+03  0.12499907428E+03 0.  0.
    9000005    1    3    3    0    0 -0.46120338703E+02 -0.28243999795E+02  0.60546399287E+02  0.81189134946E+02  0.10000000000E+01 0.  0.
    9000005    1    3    3    0    0  0.46120338703E+02  0.28243999795E+02  0.20972898616E+03  0.21659191306E+03  0.10000000000E+01 0.  0.
<mgrwt>
<rscale>  0 0.12499907E+03</rscale>
<asrwt>0</asrwt>
<pdfrwt beam="1">  1        4 0.71007054E-01 0.12499907E+03</pdfrwt>
<pdfrwt beam="2">  1       -4 0.34382078E-02 0.12499907E+03</pdfrwt>
<totfact> 0.13033751E+03</totfact>
</mgrwt>
</event>
<event>
 5    1  0.1438401E-002  0.1249976E+03  0.7818608E-02  0.1235073E+00
          4   -1    0    0  501    0  0.00000000000E+00  0.00000000000E+00  0.15563003266E+02  0.15614735689E+02  0.12700000000E+01 0. -1.
         -4   -1    0    0    0  501 -0.00000000000E+00 -0.00000000000E+00 -0.25051643782E+03  0.25051965695E+03  0.12700000000E+01 0. -1.
         25    2    1    2    0    0  0.00000000000E+00  0.00000000000E+00 -0.23495343456E+03  0.26613439264E+03  0.12499759412E+03 0.  0.
    9000005    1    3    3    0    0  0.39126357250E+02 -0.12118374989E+02 -0.16992974498E+02  0.44356375261E+02  0.10000000000E+01 0.  0.
    9000005    1    3    3    0    0 -0.39126357250E+02  0.12118374989E+02 -0.21796046006E+03  0.22177801738E+03  0.10000000000E+01 0.  0.
<mgrwt>
<rscale>  0 0.12499759E+03</rscale>
<asrwt>0</asrwt>
<pdfrwt beam="1">  1        4 0.38976206E-02 0.12499759E+03</pdfrwt>
<pdfrwt beam="2">  1       -4 0.62635966E-01 0.12499759E+03</pdfrwt>
<totfact> 0.13977039E+03</totfact>
</mgrwt>
</event>
<event>
 5    1  0.1438401E-002  0.1250016E+03  0.7818608E-02  0.1235067E+00
         -4   -1    0    0    0  501 -0.00000000000E+00  0.00000000000E+00  0.69644785756E+03  0.69644901551E+03  0.12700000000E+01 0. -1.
          4   -1    0    0  501    0  0.00000000000E+00 -0.00000000000E+00 -0.55358938890E+01  0.56797025583E+01  0.12700000000E+01 0. -1.
         25    2    1    2    0    0  0.00000000000E+00  0.00000000000E+00  0.69091196367E+03  0.70212871807E+03  0.12500158074E+03 0.  0.
    9000005    1    3    3    0    0  0.24024331515E+02  0.33585121373E+02  0.60892786602E+03  0.61032718676E+03  0.10000000000E+01 0.  0.
    9000005    1    3    3    0    0 -0.24024331515E+02 -0.33585121373E+02  0.81984097653E+02  0.91801531307E+02  0.10000000000E+01 0.  0.
<mgrwt>
<rscale>  0 0.12500158E+03</rscale>
<asrwt>0</asrwt>
<pdfrwt beam="2">  1        4 0.14020945E-02 0.12500158E+03</pdfrwt>
<pdfrwt beam="1">  1       -4 0.17413006E+00 0.12500158E+03</pdfrwt>
<totfact> 0.61841658E+02</totfact>
</mgrwt>
</event>
<event>
 5    1  0.1438401E-002  0.1250007E+03  0.7818608E-02  0.1235068E+00
          4   -1    0    0  501    0  0.00000000000E+00  0.00000000000E+00  0.17401777178E+03  0.17402240601E+03  0.12700000000E+01 0.  1.
         -4   -1    0    0    0  501 -0.00000000000E+00 -0.00000000000E+00 -0.22424765679E+02  0.22460699361E+02  0.12700000000E+01 0.  1.
         25    2    1    2    0    0  0.00000000000E+00  0.00000000000E+00  0.15159300610E+03  0.19648310537E+03  0.12500068479E+03 0.  0.
    9000005    1    3    3    0    0 -0.15133558016E-01  0.62322364273E+02  0.83036514843E+02  0.10382745357E+03  0.10000000000E+01 0.  0.
    9000005    1    3    3    0    0  0.15133558016E-01 -0.62322364273E+02  0.68556491254E+02  0.92655651801E+02  0.10000000000E+01 0.  0.
<mgrwt>
<rscale>  0 0.12500068E+03</rscale>
<asrwt>0</asrwt>
<pdfrwt beam="1">  1        4 0.43509513E-01 0.12500068E+03</pdfrwt>
<pdfrwt beam="2">  1       -4 0.56112625E-02 0.12500068E+03</pdfrwt>
<totfact> 0.16463577E+03</totfact>
</mgrwt>
</event>
<event>
 5    1  0.1438401E-002  0.1250018E+03  0.7818608E-02  0.1235067E+00
         -4   -1    0    0    0  501 -0.00000000000E+00  0.00000000000E+00  0.84866050388E+01  0.85811051203E+01  0.12700000000E+01 0.  1.
          4   -1    0    0  501    0  0.00000000000E+00 -0.00000000000E+00 -0.45765331446E+03  0.45765507660E+03  0.12700000000E+01 0.  1.
         25    2    1    2    0    0  0.00000000000E+00  0.00000000000E+00 -0.44916670942E+03  0.46623618172E+03  0.12500177715E+03 0.  0.
    9000005    1    3    3    0    0  0.25175728987E+02  0.56941555317E+02 -0.20442738603E+03  0.21370005664E+03  0.10000000000E+01 0.  0.
    9000005    1    3    3    0    0 -0.25175728987E+02 -0.56941555317E+02 -0.24473932339E+03  0.25253612507E+03  0.10000000000E+01 0.  0.
<mgrwt>
<rscale>  0 0.12500178E+03</rscale>
<asrwt>0</asrwt>
<pdfrwt beam="2">  1        4 0.11442528E+00 0.12500178E+03</pdfrwt>
<pdfrwt beam="1">  1       -4 0.21336856E-02 0.12500178E+03</pdfrwt>
<totfact> 0.93169668E+02</totfact>
</mgrwt>
</event>
<event>
 5    1  0.1438401E-002  0.1250012E+03  0.7818608E-02  0.1235067E+00
         -4   -1    0    0    0  501 -0.00000000000E+00  0.00000000000E+00  0.83842968770E+01  0.84799371531E+01  0.12700000000E+01 0. -1.
          4   -1    0    0  501    0  0.00000000000E+00 -0.00000000000E+00 -0.46317099802E+03  0.46317273916E+03  0.12700000000E+01 0. -1.
         25    2    1    2    0    0  0.00000000000E+00  0.00000000000E+00 -0.45478670114E+03  0.47165267632E+03  0.12500121416E+03 0.  0.
    9000005    1    3    3    0    0  0.25629372583E+02  0.15615781707E+02 -0.20568833919E+02  0.36397723914E+02  0.10000000000E+01 0.  0.
    9000005    1    3    3    0    0 -0.25629372583E+02 -0.15615781707E+02 -0.43421786722E+03  0.43525495240E+03  0.10000000000E+01 0.  0.
<mgrwt>
<rscale>  0 0.12500121E+03</rscale>
<asrwt>0</asrwt>
<pdfrwt beam="2">  1        4 0.11580484E+00 0.12500121E+03</pdfrwt>
<pdfrwt beam="1">  1       -4 0.21082485E-02 0.12500121E+03</pdfrwt>
<totfact> 0.92252795E+02</totfact>
</mgrwt>
</event>
<event>
 5    1  0.1438401E-002  0.1250024E+03  0.7818608E-02  0.1235066E+00
         -4   -1    0    0    0  501 -0.00000000000E+00  0.00000000000E+00  0.31316248228E+03  0.31316505745E+03  0.12700000000E+01 0. -1.
          4   -1    0    0  501    0  0.00000000000E+00 -0.00000000000E+00 -0.12439073306E+02  0.12503737230E+02  0.12700000000E+01 0. -1.
         25    2    1    2    0    0  0.00000000000E+00  0.00000000000E+00  0.30072340897E+03  0.32566879468E+03  0.12500238047E+03 0.  0.
    9000005    1    3    3    0    0 -0.47696931754E+02  0.39001399415E+02  0.12312511674E+03  0.13768406163E+03  0.10000000000E+01 0.  0.
    9000005    1    3    3    0    0  0.47696931754E+02 -0.39001399415E+02  0.17759829223E+03  0.18798473304E+03  0.10000000000E+01 0.  0.
<mgrwt>
<rscale>  0 0.12500238E+03</rscale>
<asrwt>0</asrwt>
<pdfrwt beam="2">  1        4 0.31181733E-02 0.12500238E+03</pdfrwt>
<pdfrwt beam="1">  1       -4 0.78299023E-01 0.12500238E+03</pdfrwt>
<totfact> 0.12280289E+03</totfact>
</mgrwt>
</event>
<event>
 5    1  0.1438401E-002  0.1250082E+03  0.7818608E-02  0.1235056E+00
         -4   -1    0    0    0  501 -0.00000000000E+00  0.00000000000E+00  0.93524499225E+03  0.93524585453E+03  0.12700000000E+01 0.  1.
          4   -1    0    0  501    0  0.00000000000E+00 -0.00000000000E+00 -0.40798514372E+01  0.42729483673E+01  0.12700000000E+01 0.  1.
         25    2    1    2    0    0  0.00000000000E+00  0.00000000000E+00  0.93116514081E+03  0.93951880290E+03  0.12500824591E+03 0.  0.
    9000005    1    3    3    0    0  0.24763069660E+01 -0.26663789217E+02  0.88997925894E+03  0.89038259815E+03  0.10000000000E+01 0.  0.
    9000005    1    3    3    0    0 -0.24763069660E+01  0.26663789217E+02  0.41185881870E+02  0.49136204748E+02  0.10000000000E+01 0.  0.
<mgrwt>
<rscale>  0 0.12500825E+03</rscale>
<asrwt>0</asrwt>
<pdfrwt beam="2">  1        4 0.10442077E-02 0.12500825E+03</pdfrwt>
<pdfrwt beam="1">  1       -4 0.23383551E+00 0.12500825E+03</pdfrwt>
<totfact> 0.41325161E+02</totfact>
</mgrwt>
</event>
<event>
 5    1  0.1438401E-002  0.1250003E+03  0.7818608E-02  0.1235069E+00
         -4   -1    0    0    0  501 -0.00000000000E+00  0.00000000000E+00  0.13899519496E+02  0.13957418896E+02  0.12700000000E+01 0.  1.
          4   -1    0    0  501    0  0.00000000000E+00 -0.00000000000E+00 -0.28039292636E+03  0.28039580249E+03  0.12700000000E+01 0.  1.
         25    2    1    2    0    0  0.00000000000E+00  0.00000000000E+00 -0.26649340687E+03  0.29435322139E+03  0.12500033215E+03 0.  0.
    9000005    1    3    3    0    0 -0.12325918076E+02  0.45742593867E+02 -0.22921701403E+03  0.23406356545E+03  0.10000000000E+01 0.  0.
    9000005    1    3    3    0    0  0.12325918076E+02 -0.45742593867E+02 -0.37276392838E+02  0.60289655938E+02  0.10000000000E+01 0.  0.
<mgrwt>
<rscale>  0 0.12500033E+03</rscale>
<asrwt>0</asrwt>
<pdfrwt beam="2">  1        4 0.70105810E-01 0.12500033E+03</pdfrwt>
<pdfrwt beam="1">  1       -4 0.34824777E-02 0.12500033E+03</pdfrwt>
<totfact> 0.13130708E+03</totfact>
</mgrwt>
</event>
<event>
 5    1  0.1438401E-002  0.1250016E+03  0.7818608E-02  0.1235067E+00
         -4   -1    0    0    0  501 -0.00000000000E+00  0.00000000000E+00  0.58235876708E+02  0.58249723055E+02  0.12700000000E+01 0. -1.
          4   -1    0    0  501    0  0.00000000000E+00 -0.00000000000E+00 -0.67050265793E+02  0.67062292258E+02  0.12700000000E+01 0. -1.
         25    2    1    2    0    0  0.00000000000E+00  0.00000000000E+00 -0.88143890849E+01  0.12531201531E+03  0.12500163090E+03 0.  0.
    9000005    1    3    3    0    0  0.68740552472E+01 -0.15629035056E+02  0.55857234795E+02  0.58417035625E+02  0.10000000000E+01 0.  0.
    9000005    1    3    3    0    0 -0.68740552472E+01  0.15629035056E+02 -0.64671623879E+02  0.66894979688E+02  0.10000000000E+01 0.  0.
<mgrwt>
<rscale>  0 0.12500163E+03</rscale>
<asrwt>0</asrwt>
<pdfrwt beam="2">  1        4 0.16765801E-01 0.12500163E+03</pdfrwt>
<pdfrwt beam="1">  1       -4 0.14562203E-01 0.12500163E+03</pdfrwt>
<totfact> 0.19817387E+03</totfact>
</mgrwt>
</event>
<event>
 5    1  0.1438401E-002  0.1249987E+03  0.7818608E-02  0.1235071E+00
         -4   -1    0    0    0  501 -0.00000000000E+00  0.00000000000E+00  0.13250847376E+02  0.13311568510E+02  0.12700000000E+01 0.  1.
          4   -1    0    0  501    0  0.00000000000E+00 -0.00000000000E+00 -0.29405042328E+03  0.29405316583E+03  0.12700000000E+01 0.  1.
         25    2    1    2    0    0  0.00000000000E+00  0.00000000000E+00 -0.28079957591E+03  0.30736473434E+03  0.12499871233E+03 0.  0.
    9000005    1    3    3    0    0  0.15704416164E+02 -0.11804609804E+02  0.54715545786E+01  0.20418506537E+02  0.10000000000E+01 0.  0.
    9000005    1    3    3    0    0 -0.15704416164E+02  0.11804609804E+02 -0.28627113049E+03  0.28694622780E+03  0.10000000000E+01 0.  0.
<mgrwt>
<rscale>  0 0.12499871E+03</rscale>
<asrwt>0</asrwt>
<pdfrwt beam="2">  1        4 0.73520518E-01 0.12499871E+03</pdfrwt>
<pdfrwt beam="1">  1       -4 0.33206458E-02 0.12499871E+03</pdfrwt>
<totfact> 0.12767506E+03</totfact>
</mgrwt>
</event>
<event>
 5    1  0.1438401E-002  0.1249988E+03  0.7818608E-02  0.1235071E+00
          4   -1    0    0  501    0  0.00000000000E+00  0.00000000000E+00  0.94172707920E+02  0.94181271052E+02  0.12700000000E+01 0. -1.
         -4   -1    0    0    0  501 -0.00000000000E+00 -0.00000000000E+00 -0.41458656486E+02  0.41478103834E+02  0.12700000000E+01 0. -1.
         25    2    1    2    0    0  0.00000000000E+00  0.00000000000E+00  0.52714051434E+02  0.13565937489E+03  0.12499877910E+03 0.  0.
    9000005    1    3    3    0    0  0.36404957437E+02  0.50285230011E+02  0.34126367751E+02  0.70848671541E+02  0.10000000000E+01 0.  0.
    9000005    1    3    3    0    0 -0.36404957437E+02 -0.50285230011E+02  0.18587683684E+02  0.64810703345E+02  0.10000000000E+01 0.  0.
<mgrwt>
<rscale>  0 0.12499878E+03</rscale>
<asrwt>0</asrwt>
<pdfrwt beam="1">  1        4 0.23546678E-01 0.12499878E+03</pdfrwt>
<pdfrwt beam="2">  1       -4 0.10368166E-01 0.12499878E+03</pdfrwt>
<totfact> 0.19265204E+03</totfact>
</mgrwt>
</event>
<event>
 5    1  0.1438401E-002  0.1249994E+03  0.7818608E-02  0.1235070E+00
         -4   -1    0    0    0  501 -0.00000000000E+00  0.00000000000E+00  0.11308483506E+04  0.11308490638E+04  0.12700000000E+01 0.  1.
          4   -1    0    0  501    0  0.00000000000E+00 -0.00000000000E+00 -0.33367591755E+01  0.35702747507E+01  0.12700000000E+01 0.  1.
         25    2    1    2    0    0  0.00000000000E+00  0.00000000000E+00  0.11275115914E+04  0.11344193385E+04  0.12499938695E+03 0.  0.
    9000005    1    3    3    0    0 -0.55040411649E+02 -0.25831388189E+02  0.69480159213E+03  0.69745749688E+03  0.10000000000E+01 0.  0.
    9000005    1    3    3    0    0  0.55040411649E+02  0.25831388189E+02  0.43270999932E+03  0.43696184163E+03  0.10000000000E+01 0.  0.
<mgrwt>
<rscale>  0 0.12499939E+03</rscale>
<asrwt>0</asrwt>
<pdfrwt beam="2">  1        4 0.86346885E-03 0.12499939E+03</pdfrwt>
<pdfrwt beam="1">  1       -4 0.28274121E+00 0.12499939E+03</pdfrwt>
<totfact> 0.28782639E+02</totfact>
</mgrwt>
</event>
<event>
 5    1  0.1438401E-002  0.1249994E+03  0.7818608E-02  0.1235070E+00
         -4   -1    0    0    0  501 -0.00000000000E+00  0.00000000000E+00  0.42972013266E+03  0.42972200934E+03  0.12700000000E+01 0. -1.
          4   -1    0    0  501    0  0.00000000000E+00 -0.00000000000E+00 -0.90438690987E+01  0.91326046819E+01  0.12700000000E+01 0. -1.
         25    2    1    2    0    0  0.00000000000E+00  0.00000000000E+00  0.42067626356E+03  0.43885461402E+03  0.12499941410E+03 0.  0.
    9000005    1    3    3    0    0  0.58962544275E+02 -0.15714299807E+02  0.16301415479E+03  0.17406359616E+03  0.10000000000E+01 0.  0.
    9000005    1    3    3    0    0 -0.58962544275E+02  0.15714299807E+02  0.25766210877E+03  0.26479101787E+03  0.10000000000E+01 0.  0.
<mgrwt>
<rscale>  0 0.12499941E+03</rscale>
<asrwt>0</asrwt>
<pdfrwt beam="2">  1        4 0.22722939E-02 0.12499941E+03</pdfrwt>
<pdfrwt beam="1">  1       -4 0.10744136E+00 0.12499941E+03</pdfrwt>
<totfact> 0.98054304E+02</totfact>
</mgrwt>
</event>
<event>
 5    1  0.1438401E-002  0.1250001E+03  0.7818608E-02  0.1235069E+00
          4   -1    0    0  501    0  0.00000000000E+00  0.00000000000E+00  0.11723287451E+02  0.11791877233E+02  0.12700000000E+01 0.  1.
         -4   -1    0    0    0  501 -0.00000000000E+00 -0.00000000000E+00 -0.33216313027E+03  0.33216555814E+03  0.12700000000E+01 0.  1.
         25    2    1    2    0    0  0.00000000000E+00  0.00000000000E+00 -0.32043984282E+03  0.34395743537E+03  0.12500009792E+03 0.  0.
    9000005    1    3    3    0    0 -0.42288127149E+02  0.40242802964E+02 -0.22159404707E+03  0.22915647620E+03  0.10000000000E+01 0.  0.
    9000005    1    3    3    0    0  0.42288127149E+02 -0.40242802964E+02 -0.98845795750E+02  0.11480095917E+03  0.10000000000E+01 0.  0.
<mgrwt>
<rscale>  0 0.12500010E+03</rscale>
<asrwt>0</asrwt>
<pdfrwt beam="1">  1        4 0.29397002E-02 0.12500010E+03</pdfrwt>
<pdfrwt beam="2">  1       -4 0.83049629E-01 0.12500010E+03</pdfrwt>
<totfact> 0.11822733E+03</totfact>
</mgrwt>
</event>
<event>
 5    1  0.1438401E-002  0.1249959E+03  0.7818608E-02  0.1235076E+00
          4   -1    0    0  501    0  0.00000000000E+00  0.00000000000E+00  0.16008229777E+02  0.16058527971E+02  0.12700000000E+01 0. -1.
         -4   -1    0    0    0  501 -0.00000000000E+00 -0.00000000000E+00 -0.24356431423E+03  0.24356762525E+03  0.12700000000E+01 0. -1.
         25    2    1    2    0    0  0.00000000000E+00  0.00000000000E+00 -0.22755608446E+03  0.25962615322E+03  0.12499587138E+03 0.  0.
    9000005    1    3    3    0    0 -0.55243629725E+02 -0.28494520847E+02 -0.12710952028E+03  0.14149779677E+03  0.10000000000E+01 0.  0.
    9000005    1    3    3    0    0  0.55243629725E+02  0.28494520847E+02 -0.10044656417E+03  0.11812835645E+03  0.10000000000E+01 0.  0.
<mgrwt>
<rscale>  0 0.12499587E+03</rscale>
<asrwt>0</asrwt>
<pdfrwt beam="1">  1        4 0.40087594E-02 0.12499587E+03</pdfrwt>
<pdfrwt beam="2">  1       -4 0.60897768E-01 0.12499587E+03</pdfrwt>
<totfact> 0.14184511E+03</totfact>
</mgrwt>
</event>
<event>
 5    1  0.1438401E-002  0.1249981E+03  0.7818608E-02  0.1235072E+00
         -4   -1    0    0    0  501 -0.00000000000E+00  0.00000000000E+00  0.64698533159E+01  0.65933225258E+01  0.12700000000E+01 0. -1.
          4   -1    0    0  501    0  0.00000000000E+00 -0.00000000000E+00 -0.59791246114E+03  0.59791380992E+03  0.12700000000E+01 0. -1.
         25    2    1    2    0    0  0.00000000000E+00  0.00000000000E+00 -0.59144260783E+03  0.60450713244E+03  0.12499805927E+03 0.  0.
    9000005    1    3    3    0    0 -0.49781085197E+02 -0.16201492201E+02 -0.13069054162E+03  0.14078942596E+03  0.10000000000E+01 0.  0.
    9000005    1    3    3    0    0  0.49781085197E+02  0.16201492201E+02 -0.46075206620E+03  0.46371770648E+03  0.10000000000E+01 0.  0.
<mgrwt>
<rscale>  0 0.12499806E+03</rscale>
<asrwt>0</asrwt>
<pdfrwt beam="2">  1        4 0.14949353E+00 0.12499806E+03</pdfrwt>
<pdfrwt beam="1">  1       -4 0.16330676E-02 0.12499806E+03</pdfrwt>
<totfact> 0.72941992E+02</totfact>
</mgrwt>
</event>
<event>
 5    1  0.1438401E-002  0.1250006E+03  0.7818608E-02  0.1235068E+00
          4   -1    0    0  501    0  0.00000000000E+00  0.00000000000E+00  0.55335620727E+02  0.55350192603E+02  0.12700000000E+01 0.  1.
         -4   -1    0    0    0  501 -0.00000000000E+00 -0.00000000000E+00 -0.70563083689E+02  0.70574511544E+02  0.12700000000E+01 0.  1.
         25    2    1    2    0    0  0.00000000000E+00  0.00000000000E+00 -0.15227462963E+02  0.12592470415E+03  0.12500062194E+03 0.  0.
    9000005    1    3    3    0    0  0.16527137465E+02 -0.53715807154E+02  0.19915097398E+02  0.59633424482E+02  0.10000000000E+01 0.  0.
    9000005    1    3    3    0    0 -0.16527137465E+02  0.53715807154E+02 -0.35142560361E+02  0.66291279666E+02  0.10000000000E+01 0.  0.
<mgrwt>
<rscale>  0 0.12500062E+03</rscale>
<asrwt>0</asrwt>
<pdfrwt beam="1">  1        4 0.13837155E-01 0.12500062E+03</pdfrwt>
<pdfrwt beam="2">  1       -4 0.17644021E-01 0.12500062E+03</pdfrwt>
<totfact> 0.19784702E+03</totfact>
</mgrwt>
</event>
<event>
 5    1  0.1438401E-002  0.1250012E+03  0.7818608E-02  0.1235067E+00
         -4   -1    0    0    0  501 -0.00000000000E+00  0.00000000000E+00  0.10861797512E+04  0.10861804936E+04  0.12700000000E+01 0. -1.
          4   -1    0    0  501    0  0.00000000000E+00 -0.00000000000E+00 -0.34835035583E+01  0.37077886996E+01  0.12700000000E+01 0. -1.
         25    2    1    2    0    0  0.00000000000E+00  0.00000000000E+00  0.10826962476E+04  0.10898882823E+04  0.12500121350E+03 0.  0.
    9000005    1    3    3    0    0 -0.49348501208E+02  0.38255381742E+02  0.51898754667E+03  0.52273111865E+03  0.10000000000E+01 0.  0.
    9000005    1    3    3    0    0  0.49348501208E+02 -0.38255381742E+02  0.56370870095E+03  0.56715716369E+03  0.10000000000E+01 0.  0.
<mgrwt>
<rscale>  0 0.12500121E+03</rscale>
<asrwt>0</asrwt>
<pdfrwt beam="2">  1        4 0.89900425E-03 0.12500121E+03</pdfrwt>
<pdfrwt beam="1">  1       -4 0.27157309E+00 0.12500121E+03</pdfrwt>
<totfact> 0.31386780E+02</totfact>
</mgrwt>
</event>
<event>
 5    1  0.1438401E-002  0.1250044E+03  0.7818608E-02  0.1235062E+00
          4   -1    0    0  501    0  0.00000000000E+00  0.00000000000E+00  0.10032365398E+02  0.10112430740E+02  0.12700000000E+01 0. -1.
         -4   -1    0    0    0  501 -0.00000000000E+00 -0.00000000000E+00 -0.38776320992E+03  0.38776528966E+03  0.12700000000E+01 0. -1.
         25    2    1    2    0    0  0.00000000000E+00  0.00000000000E+00 -0.37773084452E+03  0.39787772040E+03  0.12500435788E+03 0.  0.
    9000005    1    3    3    0    0 -0.50378784749E+01  0.72810440075E+01  0.80415038609E+01  0.12002483314E+02  0.10000000000E+01 0.  0.
    9000005    1    3    3    0    0  0.50378784749E+01 -0.72810440075E+01 -0.38577234838E+03  0.38587523709E+03  0.10000000000E+01 0.  0.
<mgrwt>
<rscale>  0 0.12500436E+03</rscale>
<asrwt>0</asrwt>
<pdfrwt beam="1">  1        4 0.25183608E-02 0.12500436E+03</pdfrwt>
<pdfrwt beam="2">  1       -4 0.96951021E-01 0.12500436E+03</pdfrwt>
<totfact> 0.10611997E+03</totfact>
</mgrwt>
</event>
<event>
 5    1  0.1438401E-002  0.1249991E+03  0.7818608E-02  0.1235071E+00
         -4   -1    0    0    0  501 -0.00000000000E+00  0.00000000000E+00  0.80813903511E+02  0.80823881995E+02  0.12700000000E+01 0.  1.
          4   -1    0    0  501    0  0.00000000000E+00 -0.00000000000E+00 -0.48314378790E+02  0.48331067626E+02  0.12700000000E+01 0.  1.
         25    2    1    2    0    0  0.00000000000E+00  0.00000000000E+00  0.32499524721E+02  0.12915494962E+03  0.12499912761E+03 0.  0.
    9000005    1    3    3    0    0  0.13009413311E+02 -0.34963891918E+02 -0.35551640556E+02  0.51542581610E+02  0.10000000000E+01 0.  0.
    9000005    1    3    3    0    0 -0.13009413311E+02  0.34963891918E+02  0.68051165277E+02  0.77612368011E+02  0.10000000000E+01 0.  0.
<mgrwt>
<rscale>  0 0.12499913E+03</rscale>
<asrwt>0</asrwt>
<pdfrwt beam="2">  1        4 0.12081928E-01 0.12499913E+03</pdfrwt>
<pdfrwt beam="1">  1       -4 0.20206809E-01 0.12499913E+03</pdfrwt>
<totfact> 0.19610320E+03</totfact>
</mgrwt>
</event>
<event>
 5    1  0.1438401E-002  0.1250058E+03  0.7818608E-02  0.1235060E+00
         -4   -1    0    0    0  501 -0.00000000000E+00  0.00000000000E+00  0.16977446467E+02  0.17024881455E+02  0.12700000000E+01 0.  1.
          4   -1    0    0  501    0  0.00000000000E+00 -0.00000000000E+00 -0.22973594099E+03  0.22973945129E+03  0.12700000000E+01 0.  1.
         25    2    1    2    0    0  0.00000000000E+00  0.00000000000E+00 -0.21275849452E+03  0.24676433275E+03  0.12500583557E+03 0.  0.
    9000005    1    3    3    0    0 -0.32231839899E+02  0.37478400932E+02 -0.18186057882E+03  0.18846164641E+03  0.10000000000E+01 0.  0.
    9000005    1    3    3    0    0  0.32231839899E+02 -0.37478400932E+02 -0.30897915703E+02  0.58302686340E+02  0.10000000000E+01 0.  0.
<mgrwt>
<rscale>  0 0.12500584E+03</rscale>
<asrwt>0</asrwt>
<pdfrwt beam="2">  1        4 0.57440343E-01 0.12500584E+03</pdfrwt>
<pdfrwt beam="1">  1       -4 0.42507305E-02 0.12500584E+03</pdfrwt>
<totfact> 0.14604262E+03</totfact>
</mgrwt>
</event>
<event>
 5    1  0.1438401E-002  0.1250101E+03  0.7818608E-02  0.1235054E+00
          4   -1    0    0  501    0  0.00000000000E+00  0.00000000000E+00  0.48483314675E+01  0.50119076227E+01  0.12700000000E+01 0.  1.
         -4   -1    0    0    0  501 -0.00000000000E+00 -0.00000000000E+00 -0.79228731424E+03  0.79228833211E+03  0.12700000000E+01 0.  1.
         25    2    1    2    0    0  0.00000000000E+00  0.00000000000E+00 -0.78743898277E+03  0.79730023974E+03  0.12501008238E+03 0.  0.
    9000005    1    3    3    0    0 -0.12443954728E+02  0.58362210392E+02 -0.27527599674E+03  0.28167157115E+03  0.10000000000E+01 0.  0.
    9000005    1    3    3    0    0  0.12443954728E+02 -0.58362210392E+02 -0.51216298603E+03  0.51562866859E+03  0.10000000000E+01 0.  0.
<mgrwt>
<rscale>  0 0.12501008E+03</rscale>
<asrwt>0</asrwt>
<pdfrwt beam="1">  1        4 0.12326598E-02 0.12501008E+03</pdfrwt>
<pdfrwt beam="2">  1       -4 0.19809197E+00 0.12501008E+03</pdfrwt>
<totfact> 0.52705422E+02</totfact>
</mgrwt>
</event>
<event>
 5    1  0.1438401E-002  0.1250017E+03  0.7818608E-02  0.1235067E+00
         -4   -1    0    0    0  501 -0.00000000000E+00  0.00000000000E+00  0.24695210631E+02  0.24727845198E+02  0.12700000000E+01 0. -1.
          4   -1    0    0  501    0  0.00000000000E+00 -0.00000000000E+00 -0.15804311960E+03  0.15804822224E+03  0.12700000000E+01 0. -1.
         25    2    1    2    0    0  0.00000000000E+00  0.00000000000E+00 -0.13334790897E+03  0.18277606744E+03  0.12500170399E+03 0.  0.
    9000005    1    3    3    0    0  0.49271704928E+02  0.13605406021E+02 -0.11924260436E+03  0.12974053598E+03  0.10000000000E+01 0.  0.
    9000005    1    3    3    0    0 -0.49271704928E+02 -0.13605406021E+02 -0.14105304605E+02  0.53035531463E+02  0.10000000000E+01 0.  0.
<mgrwt>
<rscale>  0 0.12500170E+03</rscale>
<asrwt>0</asrwt>
<pdfrwt beam="2">  1        4 0.39515494E-01 0.12500170E+03</pdfrwt>
<pdfrwt beam="1">  1       -4 0.61785203E-02 0.12500170E+03</pdfrwt>
<totfact> 0.17035047E+03</totfact>
</mgrwt>
</event>
<event>
 5    1  0.1438401E-002  0.1250008E+03  0.7818608E-02  0.1235068E+00
          4   -1    0    0  501    0  0.00000000000E+00  0.00000000000E+00  0.23765811764E+03  0.23766151094E+03  0.12700000000E+01 0. -1.
         -4   -1    0    0    0  501 -0.00000000000E+00 -0.00000000000E+00 -0.16408587989E+02  0.16457662647E+02  0.12700000000E+01 0. -1.
         25    2    1    2    0    0  0.00000000000E+00  0.00000000000E+00  0.22124952965E+03  0.25411917358E+03  0.12500080004E+03 0.  0.
    9000005    1    3    3    0    0  0.62384985448E+01 -0.19082625355E+02  0.23093352621E+03  0.23180672764E+03  0.10000000000E+01 0.  0.
    9000005    1    3    3    0    0 -0.62384985448E+01  0.19082625355E+02 -0.96839965553E+01  0.22312445940E+02  0.10000000000E+01 0.  0.
<mgrwt>
<rscale>  0 0.12500080E+03</rscale>
<asrwt>0</asrwt>
<pdfrwt beam="1">  1        4 0.59421088E-01 0.12500080E+03</pdfrwt>
<pdfrwt beam="2">  1       -4 0.41087055E-02 0.12500080E+03</pdfrwt>
<totfact> 0.14361693E+03</totfact>
</mgrwt>
</event>
<event>
 5    1  0.1438401E-002  0.1249835E+03  0.7818608E-02  0.1235095E+00
          4   -1    0    0  501    0  0.00000000000E+00  0.00000000000E+00  0.88611775496E+01  0.89517242789E+01  0.12700000000E+01 0.  1.
         -4   -1    0    0    0  501 -0.00000000000E+00 -0.00000000000E+00 -0.43837963728E+03  0.43838147690E+03  0.12700000000E+01 0.  1.
         25    2    1    2    0    0  0.00000000000E+00  0.00000000000E+00 -0.42951845973E+03  0.44733320117E+03  0.12498354140E+03 0.  0.
    9000005    1    3    3    0    0  0.22895307627E+02  0.57315313058E+02 -0.24964088575E+03  0.25715911818E+03  0.10000000000E+01 0.  0.
    9000005    1    3    3    0    0 -0.22895307627E+02 -0.57315313058E+02 -0.17987757398E+03  0.19017408300E+03  0.10000000000E+01 0.  0.
<mgrwt>
<rscale>  0 0.12498354E+03</rscale>
<asrwt>0</asrwt>
<pdfrwt beam="1">  1        4 0.22268442E-02 0.12498354E+03</pdfrwt>
<pdfrwt beam="2">  1       -4 0.10960638E+00 0.12498354E+03</pdfrwt>
<totfact> 0.96533883E+02</totfact>
</mgrwt>
</event>
<event>
 5    1  0.1438401E-002  0.1250005E+03  0.7818608E-02  0.1235068E+00
          4   -1    0    0  501    0  0.00000000000E+00  0.00000000000E+00  0.19114284131E+02  0.19156428629E+02  0.12700000000E+01 0. -1.
         -4   -1    0    0    0  501 -0.00000000000E+00 -0.00000000000E+00 -0.20409534961E+03  0.20409930091E+03  0.12700000000E+01 0. -1.
         25    2    1    2    0    0  0.00000000000E+00  0.00000000000E+00 -0.18498106548E+03  0.22325572954E+03  0.12500050474E+03 0.  0.
    9000005    1    3    3    0    0 -0.43830765444E+02  0.31002380935E+02 -0.14961579707E+03  0.15895965009E+03  0.10000000000E+01 0.  0.
    9000005    1    3    3    0    0  0.43830765444E+02 -0.31002380935E+02 -0.35365268404E+02  0.64296079448E+02  0.10000000000E+01 0.  0.
<mgrwt>
<rscale>  0 0.12500050E+03</rscale>
<asrwt>0</asrwt>
<pdfrwt beam="1">  1        4 0.47843336E-02 0.12500050E+03</pdfrwt>
<pdfrwt beam="2">  1       -4 0.51029593E-01 0.12500050E+03</pdfrwt>
<totfact> 0.15431152E+03</totfact>
</mgrwt>
</event>
<event>
 5    1  0.1438401E-002  0.1250087E+03  0.7818608E-02  0.1235056E+00
          4   -1    0    0  501    0  0.00000000000E+00  0.00000000000E+00  0.24504704020E+03  0.24505033117E+03  0.12700000000E+01 0.  1.
         -4   -1    0    0    0  501 -0.00000000000E+00 -0.00000000000E+00 -0.15914343290E+02  0.15964937280E+02  0.12700000000E+01 0.  1.
         25    2    1    2    0    0  0.00000000000E+00  0.00000000000E+00  0.22913269691E+03  0.26101526845E+03  0.12500871000E+03 0.  0.
    9000005    1    3    3    0    0 -0.58325917230E+01 -0.64945971553E+01  0.24377812267E+03  0.24393640976E+03  0.10000000000E+01 0.  0.
    9000005    1    3    3    0    0  0.58325917230E+01  0.64945971553E+01 -0.14645425761E+02  0.17078858689E+02  0.10000000000E+01 0.  0.
<mgrwt>
<rscale>  0 0.12500871E+03</rscale>
<asrwt>0</asrwt>
<pdfrwt beam="1">  1        4 0.61268494E-01 0.12500871E+03</pdfrwt>
<pdfrwt beam="2">  1       -4 0.39853216E-02 0.12500871E+03</pdfrwt>
<totfact> 0.14135778E+03</totfact>
</mgrwt>
</event>
