<event>
 6    4  0.2103460E-003  0.1394720E+03  0.7818608E-02  0.1214041E+00
         -4   -1    0    0    0  501 -0.00000000000E+00  0.00000000000E+00  0.27280801113E+03  0.27281096723E+03  0.12700000000E+01 0. -1.
          4   -1    0    0  502    0  0.00000000000E+00 -0.00000000000E+00 -0.37138124229E+02  0.37159832766E+02  0.12700000000E+01 0. -1.
         25    2    1    2    0    0  0.61855784485E+02  0.14065276447E+01  0.16432052423E+03  0.21553114758E+03  0.12499729796E+03 0.  0.
    9000005    1    3    3    0    0  0.31513645241E+02 -0.28115309979E+02 -0.35583704292E+01  0.42393896869E+02  0.10000000000E+01 0.  0.
    9000005    1    3    3    0    0  0.30342139244E+02  0.29521837624E+02  0.16787889466E+03  0.17313725071E+03  0.10000000000E+01 0.  0.
         21    1    1    2  502  501 -0.61855784485E+02 -0.14065276447E+01  0.71349362675E+02  0.94439652416E+02  0.00000000000E+00 0. -1.
<mgrwt>
<rscale>  1 0.13947201E+03</rscale>
<asrwt>0</asrwt>
<pdfrwt beam="2">  1        4 0.57154549E-02 0.13947201E+03</pdfrwt>
<pdfrwt beam="1">  1       -4 0.41972360E-01 0.13947201E+03</pdfrwt>
<totfact> 0.17589198E+03</totfact>
</mgrwt>
</event>
<event>
 6    4  0.2103460E-003  0.1364302E+03  0.7818608E-02  0.1218215E+00
         -4   -1    0    0    0  501 -0.00000000000E+00  0.00000000000E+00  0.71234524208E+03  0.71234637418E+03  0.12700000000E+01 0. -1.
          4   -1    0    0  502    0  0.00000000000E+00 -0.00000000000E+00 -0.13066249790E+02  0.13127824785E+02  0.12700000000E+01 0. -1.
         25    2    1    2    0    0 -0.80648107385E+00 -0.54656252157E+02  0.44774214143E+03  0.46806646083E+03  0.12500092093E+03 0.  0.
    9000005    1    3    3    0    0  0.44724780131E+02 -0.38743218501E+01  0.32108031887E+03  0.32420500843E+03  0.10000000000E+01 0.  0.
    9000005    1    3    3    0    0 -0.45531261205E+02 -0.50781930306E+02  0.12666182256E+03  0.14386145240E+03  0.10000000000E+01 0.  0.
         21    1    1    2  502  501  0.80648107385E+00  0.54656252157E+02  0.25153685086E+03  0.25740773813E+03  0.00000000000E+00 0. -1.
<mgrwt>
<rscale>  1 0.13643015E+03</rscale>
<asrwt>0</asrwt>
<pdfrwt beam="2">  1        4 0.20150149E-02 0.13643015E+03</pdfrwt>
<pdfrwt beam="1">  1       -4 0.10959645E+00 0.13643015E+03</pdfrwt>
<totfact> 0.11476207E+03</totfact>
</mgrwt>
</event>
<event>
 6    4  0.2103460E-003  0.1274270E+03  0.7818608E-02  0.1231324E+00
         -4   -1    0    0    0  501 -0.00000000000E+00  0.00000000000E+00  0.63420459082E+02  0.63433173736E+02  0.12700000000E+01 0. -1.
          4   -1    0    0  502    0  0.00000000000E+00 -0.00000000000E+00 -0.12128849726E+03  0.12129514610E+03  0.12700000000E+01 0. -1.
         25    2    1    2    0    0 -0.24655490268E+02  0.21448586323E+01 -0.80885191819E+02  0.15093064269E+03  0.12500060411E+03 0.  0.
    9000005    1    3    3    0    0  0.48483586417E+02 -0.11937186795E+02 -0.48799246120E+02  0.69824931094E+02  0.10000000000E+01 0.  0.
    9000005    1    3    3    0    0 -0.73139076685E+02  0.14082045427E+02 -0.32085945700E+02  0.81105711594E+02  0.10000000000E+01 0.  0.
         21    1    1    2  502  501  0.24655490268E+02 -0.21448586323E+01  0.23017153641E+02  0.33797677149E+02  0.00000000000E+00 0.  1.
<mgrwt>
<rscale>  1 0.12742702E+03</rscale>
<asrwt>0</asrwt>
<pdfrwt beam="2">  1        4 0.18661258E-01 0.12742702E+03</pdfrwt>
<pdfrwt beam="1">  1       -4 0.97584832E-02 0.12742702E+03</pdfrwt>
<totfact> 0.32616652E+03</totfact>
</mgrwt>
</event>
<event>
 6    4  0.2103460E-003  0.1276998E+03  0.7818608E-02  0.1230909E+00
         -4   -1    0    0    0  501 -0.00000000000E+00  0.00000000000E+00  0.39074069732E+02  0.39094703291E+02  0.12700000000E+01 0. -1.
          4   -1    0    0  502    0  0.00000000000E+00 -0.00000000000E+00 -0.17416330092E+03  0.17416793129E+03  0.12700000000E+01 0. -1.
         25    2    1    2    0    0  0.23920357910E+02 -0.10467081540E+02 -0.13674490961E+03  0.18709997819E+03  0.12500195284E+03 0.  0.
    9000005    1    3    3    0    0  0.72694763531E+02 -0.14341511916E+02 -0.10590163055E+03  0.12925309653E+03  0.10000000000E+01 0.  0.
    9000005    1    3    3    0    0 -0.48774405621E+02  0.38744303753E+01 -0.30843279057E+02  0.57846881656E+02  0.10000000000E+01 0.  0.
         21    1    1    2  502  501 -0.23920357910E+02  0.10467081540E+02  0.16556784151E+01  0.26162656393E+02  0.00000000000E+00 0. -1.
<mgrwt>
<rscale>  1 0.12769977E+03</rscale>
<asrwt>0</asrwt>
<pdfrwt beam="2">  1        4 0.26796297E-01 0.12769977E+03</pdfrwt>
<pdfrwt beam="1">  1       -4 0.60133388E-02 0.12769977E+03</pdfrwt>
<totfact> 0.37552024E+03</totfact>
</mgrwt>
</event>
<event>
 6    4  0.2103460E-003  0.1295880E+03  0.7818608E-02  0.1228068E+00
          4   -1    0    0  502    0  0.00000000000E+00  0.00000000000E+00  0.13335570484E+02  0.13395907589E+02  0.12700000000E+01 0.  1.
         -4   -1    0    0    0  501 -0.00000000000E+00 -0.00000000000E+00 -0.50936105154E+03  0.50936263480E+03  0.12700000000E+01 0.  1.
         25    2    1    2    0    0  0.17062599134E+02 -0.29610736899E+02 -0.36391362025E+03  0.38629802870E+03  0.12500046378E+03 0.  0.
    9000005    1    3    3    0    0  0.29791489001E+02 -0.21680890308E+02 -0.19770074781E+02  0.41826423207E+02  0.10000000000E+01 0.  0.
    9000005    1    3    3    0    0 -0.12728889867E+02 -0.79298465911E+01 -0.34414354547E+03  0.34447160550E+03  0.10000000000E+01 0.  0.
         21    1    1    2  502  501 -0.17062599134E+02  0.29610736899E+02 -0.13211186081E+03  0.13646051368E+03  0.00000000000E+00 0. -1.
<mgrwt>
<rscale>  1 0.12958798E+03</rscale>
<asrwt>0</asrwt>
<pdfrwt beam="1">  1        4 0.20563897E-02 0.12958798E+03</pdfrwt>
<pdfrwt beam="2">  1       -4 0.78367987E-01 0.12958798E+03</pdfrwt>
<totfact> 0.23590349E+03</totfact>
</mgrwt>
</event>
<event>
 6    4  0.2103460E-003  0.1272587E+03  0.7818608E-02  0.1231581E+00
          4   -1    0    0  502    0  0.00000000000E+00  0.00000000000E+00  0.38072906672E+02  0.38094082513E+02  0.12700000000E+01 0. -1.
         -4   -1    0    0    0  501 -0.00000000000E+00 -0.00000000000E+00 -0.15120830195E+03  0.15121363523E+03  0.12700000000E+01 0. -1.
         25    2    1    2    0    0 -0.14228959913E+02 -0.19164971594E+02 -0.88508789228E+02  0.15501152026E+03  0.12500002482E+03 0.  0.
    9000005    1    3    3    0    0 -0.35537616068E+02  0.43724631527E+02 -0.20526137820E+02  0.59975727522E+02  0.10000000000E+01 0.  0.
    9000005    1    3    3    0    0  0.21308656155E+02 -0.62889603122E+02 -0.67982651408E+02  0.95035792733E+02  0.10000000000E+01 0.  0.
         21    1    1    2  502  501  0.14228959913E+02  0.19164971594E+02 -0.24626606053E+02  0.34296197487E+02  0.00000000000E+00 0.  1.
<mgrwt>
<rscale>  1 0.12725866E+03</rscale>
<asrwt>0</asrwt>
<pdfrwt beam="1">  1        4 0.58594095E-02 0.12725866E+03</pdfrwt>
<pdfrwt beam="2">  1       -4 0.23264855E-01 0.12725866E+03</pdfrwt>
<totfact> 0.50776985E+03</totfact>
</mgrwt>
</event>
<event>
 6    4  0.2103460E-003  0.1298736E+03  0.7818608E-02  0.1227643E+00
          4   -1    0    0  502    0  0.00000000000E+00  0.00000000000E+00  0.73250800959E+01  0.74343593141E+01  0.12700000000E+01 0. -1.
         -4   -1    0    0    0  501 -0.00000000000E+00 -0.00000000000E+00 -0.11337956392E+04  0.11337963504E+04  0.12700000000E+01 0. -1.
         25    2    1    2    0    0 -0.20691275464E+02 -0.28527809465E+02 -0.61583890152E+03  0.62938439056E+03  0.12500077463E+03 0.  0.
    9000005    1    3    3    0    0  0.18714629379E+02 -0.51558342415E+02 -0.52359739366E+03  0.52646341817E+03  0.10000000000E+01 0.  0.
    9000005    1    3    3    0    0 -0.39405904842E+02  0.23030532949E+02 -0.92241507860E+02  0.10292097238E+03  0.10000000000E+01 0.  0.
         21    1    1    2  502  501  0.20691275464E+02  0.28527809465E+02 -0.51063165753E+03  0.51184631919E+03  0.00000000000E+00 0. -1.
<mgrwt>
<rscale>  1 0.12987362E+03</rscale>
<asrwt>0</asrwt>
<pdfrwt beam="1">  1        4 0.11353971E-02 0.12987362E+03</pdfrwt>
<pdfrwt beam="2">  1       -4 0.17443842E+00 0.12987362E+03</pdfrwt>
<totfact> 0.85354761E+02</totfact>
</mgrwt>
</event>
<event>
 6    4  0.2103460E-003  0.1272359E+03  0.7818608E-02  0.1231616E+00
         -4   -1    0    0    0  501 -0.00000000000E+00  0.00000000000E+00  0.67990811347E+02  0.68002671474E+02  0.12700000000E+01 0.  1.
          4   -1    0    0  502    0  0.00000000000E+00 -0.00000000000E+00 -0.10439963682E+03  0.10440736117E+03  0.12700000000E+01 0.  1.
         25    2    1    2    0    0 -0.17461640715E+02 -0.16112498087E+02 -0.58433576466E+02  0.14001232984E+03  0.12499779261E+03 0.  0.
    9000005    1    3    3    0    0  0.86628525616E+01  0.23478997408E+02  0.30348149918E+02  0.39348678977E+02  0.10000000000E+01 0.  0.
    9000005    1    3    3    0    0 -0.26124493277E+02 -0.39591495495E+02 -0.88781726384E+02  0.10066365086E+03  0.10000000000E+01 0.  0.
         21    1    1    2  502  501  0.17461640715E+02  0.16112498087E+02  0.22024750996E+02  0.32397702812E+02  0.00000000000E+00 0.  1.
<mgrwt>
<rscale>  1 0.12723588E+03</rscale>
<asrwt>0</asrwt>
<pdfrwt beam="2">  1        4 0.16062989E-01 0.12723588E+03</pdfrwt>
<pdfrwt beam="1">  1       -4 0.10461631E-01 0.12723588E+03</pdfrwt>
<totfact> 0.37806265E+03</totfact>
</mgrwt>
</event>
<event>
 6    4  0.2103460E-003  0.1468212E+03  0.7818608E-02  0.1204434E+00
          4   -1    0    0  502    0  0.00000000000E+00  0.00000000000E+00  0.46220891737E+02  0.46238336183E+02  0.12700000000E+01 0.  1.
         -4   -1    0    0    0  501 -0.00000000000E+00 -0.00000000000E+00 -0.27091667242E+03  0.27091964915E+03  0.12700000000E+01 0.  1.
         25    2    1    2    0    0 -0.49553956775E+02 -0.58950175755E+02 -0.14722827453E+03  0.20792460050E+03  0.12500302723E+03 0.  0.
    9000005    1    3    3    0    0 -0.42624446733E+02 -0.82498958302E+02 -0.45765196783E+02  0.10352958426E+03  0.10000000000E+01 0.  0.
    9000005    1    3    3    0    0 -0.69295100412E+01  0.23548782546E+02 -0.10146307775E+03  0.10439501624E+03  0.10000000000E+01 0.  0.
         21    1    1    2  502  501  0.49553956775E+02  0.58950175755E+02 -0.77467506148E+02  0.10923338483E+03  0.00000000000E+00 0.  1.
<mgrwt>
<rscale>  1 0.14682123E+03</rscale>
<asrwt>0</asrwt>
<pdfrwt beam="1">  1        4 0.71124775E-02 0.14682123E+03</pdfrwt>
<pdfrwt beam="2">  1       -4 0.41681058E-01 0.14682123E+03</pdfrwt>
<totfact> 0.12614085E+03</totfact>
</mgrwt>
</event>
<event>
 6    4  0.2103460E-003  0.1300321E+03  0.7818608E-02  0.1227408E+00
         -4   -1    0    0    0  501 -0.00000000000E+00  0.00000000000E+00  0.72930858441E+03  0.72930969018E+03  0.12700000000E+01 0. -1.
          4   -1    0    0  502    0  0.00000000000E+00 -0.00000000000E+00 -0.14272042856E+02  0.14328437015E+02  0.12700000000E+01 0. -1.
         25    2    1    2    0    0  0.97608147523E+01  0.34457955708E+02  0.29885099727E+03  0.32591449668E+03  0.12500286543E+03 0.  0.
    9000005    1    3    3    0    0 -0.19887688453E+02  0.17234690410E+02  0.28903871316E+03  0.29023599434E+03  0.10000000000E+01 0.  0.
    9000005    1    3    3    0    0  0.29648503205E+02  0.17223265298E+02  0.98122841022E+01  0.35678502339E+02  0.10000000000E+01 0.  0.
         21    1    1    2  502  501 -0.97608147523E+01 -0.34457955708E+02  0.41618554429E+03  0.41772363052E+03  0.00000000000E+00 0.  1.
<mgrwt>
<rscale>  1 0.13003208E+03</rscale>
<asrwt>0</asrwt>
<pdfrwt beam="2">  1        4 0.22001214E-02 0.13003208E+03</pdfrwt>
<pdfrwt beam="1">  1       -4 0.11220577E+00 0.13003208E+03</pdfrwt>
<totfact> 0.93857472E+02</totfact>
</mgrwt>
</event>
<event>
 6    4  0.2103460E-003  0.1271093E+03  0.7818608E-02  0.1231809E+00
         -4   -1    0    0    0  501 -0.00000000000E+00  0.00000000000E+00  0.29435123631E+02  0.29462508433E+02  0.12700000000E+01 0. -1.
          4   -1    0    0  502    0  0.00000000000E+00 -0.00000000000E+00 -0.20765732064E+03  0.20766120417E+03  0.12700000000E+01 0. -1.
         25    2    1    2    0    0 -0.14601709724E+02  0.17838628320E+02 -0.17079714114E+03  0.21290475222E+03  0.12500137403E+03 0.  0.
    9000005    1    3    3    0    0  0.65445844448E+01  0.68912545102E+01  0.19185141935E+02  0.21433400228E+02  0.10000000000E+01 0.  0.
    9000005    1    3    3    0    0 -0.21146294169E+02  0.10947373809E+02 -0.18998228308E+03  0.19147135199E+03  0.10000000000E+01 0.  0.
         21    1    1    2  502  501  0.14601709724E+02 -0.17838628320E+02 -0.74250558670E+01  0.24218960379E+02  0.00000000000E+00 0. -1.
<mgrwt>
<rscale>  1 0.12710928E+03</rscale>
<asrwt>0</asrwt>
<pdfrwt beam="2">  1        4 0.31949684E-01 0.12710928E+03</pdfrwt>
<pdfrwt beam="1">  1       -4 0.45308859E-02 0.12710928E+03</pdfrwt>
<totfact> 0.42491013E+03</totfact>
</mgrwt>
</event>
<event>
 6    4  0.2103460E-003  0.1314193E+03  0.7818608E-02  0.1225365E+00
         -4   -1    0    0    0  501 -0.00000000000E+00  0.00000000000E+00  0.79270641969E+01  0.80281533855E+01  0.12700000000E+01 0.  1.
          4   -1    0    0  502    0  0.00000000000E+00 -0.00000000000E+00 -0.10150196586E+04  0.10150204531E+04  0.12700000000E+01 0.  1.
         25    2    1    2    0    0 -0.33309174153E+02 -0.23207237574E+02 -0.87632351446E+03  0.88612297257E+03  0.12499177398E+03 0.  0.
    9000005    1    3    3    0    0  0.41124244366E+02 -0.35450493369E+02 -0.43818247048E+03  0.44153461743E+03  0.10000000000E+01 0.  0.
    9000005    1    3    3    0    0 -0.74433418519E+02  0.12243255795E+02 -0.43814104398E+03  0.44458835514E+03  0.10000000000E+01 0.  0.
         21    1    1    2  502  501  0.33309174153E+02  0.23207237574E+02 -0.13076907996E+03  0.13692563395E+03  0.00000000000E+00 0.  1.
<mgrwt>
<rscale>  1 0.13141925E+03</rscale>
<asrwt>0</asrwt>
<pdfrwt beam="2">  1        4 0.15616461E+00 0.13141925E+03</pdfrwt>
<pdfrwt beam="1">  1       -4 0.12273863E-02 0.13141925E+03</pdfrwt>
<totfact> 0.10174198E+03</totfact>
</mgrwt>
</event>
<event>
 6    4  0.2103460E-003  0.1279375E+03  0.7818608E-02  0.1230549E+00
          4   -1    0    0  502    0  0.00000000000E+00  0.00000000000E+00  0.49191467351E+03  0.49191631292E+03  0.12700000000E+01 0. -1.
         -4   -1    0    0    0  501 -0.00000000000E+00 -0.00000000000E+00 -0.13904773695E+02  0.13962651306E+02  0.12700000000E+01 0. -1.
         25    2    1    2    0    0  0.20958344838E+02  0.17328400549E+02  0.44543963344E+03  0.46344845709E+03  0.12501391785E+03 0.  0.
    9000005    1    3    3    0    0 -0.27891548095E+02  0.56803675344E+01  0.19406980129E+02  0.34464995404E+02  0.10000000000E+01 0.  0.
    9000005    1    3    3    0    0  0.48849892933E+02  0.11648033015E+02  0.42603265331E+03  0.42898346168E+03  0.10000000000E+01 0.  0.
         21    1    1    2  502  501 -0.20958344838E+02 -0.17328400549E+02  0.32570266378E+02  0.42430507137E+02  0.00000000000E+00 0.  1.
<mgrwt>
<rscale>  1 0.12793751E+03</rscale>
<asrwt>0</asrwt>
<pdfrwt beam="1">  1        4 0.75683773E-01 0.12793751E+03</pdfrwt>
<pdfrwt beam="2">  1       -4 0.21437738E-02 0.12793751E+03</pdfrwt>
<totfact> 0.23809724E+03</totfact>
</mgrwt>
</event>
<event>
 6    4  0.2103460E-003  0.1289275E+03  0.7818608E-02  0.1229056E+00
          4   -1    0    0  502    0  0.00000000000E+00  0.00000000000E+00  0.33294995495E+02  0.33319208049E+02  0.12700000000E+01 0.  1.
         -4   -1    0    0    0  501 -0.00000000000E+00 -0.00000000000E+00 -0.26028033166E+03  0.26028343003E+03  0.12700000000E+01 0.  1.
         25    2    1    2    0    0  0.77837455209E+01  0.30568204151E+02 -0.10114092852E+03  0.16386514644E+03  0.12500918766E+03 0.  0.
    9000005    1    3    3    0    0 -0.41404338314E+02  0.18719764072E+02  0.55432989404E+01  0.45787301311E+02  0.10000000000E+01 0.  0.
    9000005    1    3    3    0    0  0.49188083835E+02  0.11848440078E+02 -0.10668422746E+03  0.11807784513E+03  0.10000000000E+01 0.  0.
         21    1    1    2  502  501 -0.77837455209E+01 -0.30568204151E+02 -0.12584440764E+03  0.12973749163E+03  0.00000000000E+00 0.  1.
<mgrwt>
<rscale>  1 0.12892749E+03</rscale>
<asrwt>0</asrwt>
<pdfrwt beam="1">  1        4 0.51244080E-02 0.12892749E+03</pdfrwt>
<pdfrwt beam="2">  1       -4 0.40045227E-01 0.12892749E+03</pdfrwt>
<totfact> 0.22617206E+03</totfact>
</mgrwt>
</event>
<event>
 6    4  0.2103460E-003  0.1271599E+03  0.7818608E-02  0.1231732E+00
          4   -1    0    0  502    0  0.00000000000E+00  0.00000000000E+00  0.14441898444E+03  0.14442456843E+03  0.12700000000E+01 0. -1.
         -4   -1    0    0    0  501 -0.00000000000E+00 -0.00000000000E+00 -0.46527622818E+02  0.46544952305E+02  0.12700000000E+01 0. -1.
         25    2    1    2    0    0 -0.80126882806E+01  0.21917599593E+02  0.10673060310E+03  0.16601523182E+03  0.12500020485E+03 0.  0.
    9000005    1    3    3    0    0  0.16193006951E+01 -0.33778266790E+02 -0.10867880971E+02  0.35534550495E+02  0.10000000000E+01 0.  0.
    9000005    1    3    3    0    0 -0.96319889756E+01  0.55695866383E+02  0.11759848407E+03  0.13048068133E+03  0.10000000000E+01 0.  0.
         21    1    1    2  502  501  0.80126882806E+01 -0.21917599593E+02 -0.88392414767E+01  0.24954288916E+02  0.00000000000E+00 0. -1.
<mgrwt>
<rscale>  1 0.12715988E+03</rscale>
<asrwt>0</asrwt>
<pdfrwt beam="1">  1        4 0.22220068E-01 0.12715988E+03</pdfrwt>
<pdfrwt beam="2">  1       -4 0.71598584E-02 0.12715988E+03</pdfrwt>
<totfact> 0.39808345E+03</totfact>
</mgrwt>
</event>
<event>
 6    4  0.2103460E-003  0.1281091E+03  0.7818608E-02  0.1230289E+00
         -4   -1    0    0    0  501 -0.00000000000E+00  0.00000000000E+00  0.73543797079E+01  0.74632299233E+01  0.12700000000E+01 0.  1.
          4   -1    0    0  502    0  0.00000000000E+00 -0.00000000000E+00 -0.86618765530E+03  0.86618858634E+03  0.12700000000E+01 0.  1.
         25    2    1    2    0    0 -0.25164251690E+02  0.12386977299E+02 -0.76718784569E+03  0.77781048075E+03  0.12500110648E+03 0.  0.
    9000005    1    3    3    0    0 -0.41406045840E+02  0.49545539897E+02 -0.66085413232E+03  0.66400181126E+03  0.10000000000E+01 0.  0.
    9000005    1    3    3    0    0  0.16241794150E+02 -0.37158562597E+02 -0.10633371337E+03  0.11380866949E+03  0.10000000000E+01 0.  0.
         21    1    1    2  502  501  0.25164251690E+02 -0.12386977299E+02 -0.91645429902E+02  0.95841335506E+02  0.00000000000E+00 0.  1.
<mgrwt>
<rscale>  1 0.12810915E+03</rscale>
<asrwt>0</asrwt>
<pdfrwt beam="2">  1        4 0.13326800E+00 0.12810915E+03</pdfrwt>
<pdfrwt beam="1">  1       -4 0.11398884E-02 0.12810915E+03</pdfrwt>
<totfact> 0.16863064E+03</totfact>
</mgrwt>
</event>
<event>
 6    4  0.2103460E-003  0.1318929E+03  0.7818608E-02  0.1224674E+00
          4   -1    0    0  502    0  0.00000000000E+00  0.00000000000E+00  0.55434594084E+03  0.55434739562E+03  0.12700000000E+01 0.  1.
         -4   -1    0    0    0  501 -0.00000000000E+00 -0.00000000000E+00 -0.13634820970E+02  0.13693839596E+02  0.12700000000E+01 0.  1.
         25    2    1    2    0    0  0.27607924119E+02 -0.31764827227E+02  0.41788172415E+03  0.43820186454E+03  0.12499814793E+03 0.  0.
    9000005    1    3    3    0    0 -0.44023738427E+02 -0.17781934536E+02  0.84568342382E+02  0.96990160708E+02  0.10000000000E+01 0.  0.
    9000005    1    3    3    0    0  0.71631662547E+02 -0.13982892692E+02  0.33331338176E+03  0.34121170383E+03  0.10000000000E+01 0.  0.
         21    1    1    2  502  501 -0.27607924119E+02  0.31764827227E+02  0.12282939573E+03  0.12983937067E+03  0.00000000000E+00 0. -1.
<mgrwt>
<rscale>  1 0.13189291E+03</rscale>
<asrwt>0</asrwt>
<pdfrwt beam="1">  1        4 0.85288622E-01 0.13189291E+03</pdfrwt>
<pdfrwt beam="2">  1       -4 0.21023171E-02 0.13189291E+03</pdfrwt>
<totfact> 0.18976412E+03</totfact>
</mgrwt>
</event>
<event>
 6    4  0.2103460E-003  0.1282834E+03  0.7818608E-02  0.1230025E+00
          4   -1    0    0  502    0  0.00000000000E+00  0.00000000000E+00  0.56528830941E+03  0.56528973602E+03  0.12700000000E+01 0.  1.
         -4   -1    0    0    0  501 -0.00000000000E+00 -0.00000000000E+00 -0.10986379432E+02  0.11059540362E+02  0.12700000000E+01 0.  1.
         25    2    1    2    0    0 -0.28397834744E+02  0.50282888676E+01  0.42889799360E+03  0.44767189700E+03  0.12499967097E+03 0.  0.
    9000005    1    3    3    0    0  0.19080340172E+02 -0.47987098679E+02  0.11935680444E+03  0.13005332670E+03  0.10000000000E+01 0.  0.
    9000005    1    3    3    0    0 -0.47478174916E+02  0.53015387547E+02  0.30954118917E+03  0.31761857030E+03  0.10000000000E+01 0.  0.
         21    1    1    2  502  501  0.28397834744E+02 -0.50282888676E+01  0.12540393637E+03  0.12867737938E+03  0.00000000000E+00 0.  1.
<mgrwt>
<rscale>  1 0.12828343E+03</rscale>
<asrwt>0</asrwt>
<pdfrwt beam="1">  1        4 0.86973148E-01 0.12828343E+03</pdfrwt>
<pdfrwt beam="2">  1       -4 0.16959501E-02 0.12828343E+03</pdfrwt>
<totfact> 0.25100064E+03</totfact>
</mgrwt>
</event>
<event>
 6    4  0.2103460E-003  0.1330491E+03  0.7818608E-02  0.1223000E+00
         -4   -1    0    0    0  501 -0.00000000000E+00  0.00000000000E+00  0.74150701496E+02  0.74161576523E+02  0.12700000000E+01 0.  1.
          4   -1    0    0  502    0  0.00000000000E+00 -0.00000000000E+00 -0.10821917607E+03  0.10822662782E+03  0.12700000000E+01 0.  1.
         25    2    1    2    0    0  0.43942678966E+02  0.12054378112E+02 -0.19021386546E+02  0.13440193626E+03  0.12500320099E+03 0.  0.
    9000005    1    3    3    0    0  0.59242364035E+02  0.36114527755E+02 -0.54957966316E+02  0.88517201001E+02  0.10000000000E+01 0.  0.
    9000005    1    3    3    0    0 -0.15299685070E+02 -0.24060149643E+02  0.35936579770E+02  0.45884735257E+02  0.10000000000E+01 0.  0.
         21    1    1    2  502  501 -0.43942678966E+02 -0.12054378112E+02 -0.15047088023E+02  0.47986268081E+02  0.00000000000E+00 0.  1.
<mgrwt>
<rscale>  1 0.13304912E+03</rscale>
<asrwt>0</asrwt>
<pdfrwt beam="2">  1        4 0.16650514E-01 0.13304912E+03</pdfrwt>
<pdfrwt beam="1">  1       -4 0.11409210E-01 0.13304912E+03</pdfrwt>
<totfact> 0.30972655E+03</totfact>
</mgrwt>
</event>
<event>
 6    4  0.2103460E-003  0.1273937E+03  0.7818608E-02  0.1231375E+00
         -4   -1    0    0    0  501 -0.00000000000E+00  0.00000000000E+00  0.27979029171E+02  0.28007837713E+02  0.12700000000E+01 0. -1.
          4   -1    0    0  502    0  0.00000000000E+00 -0.00000000000E+00 -0.24235291864E+03  0.24235624620E+03  0.12700000000E+01 0. -1.
         25    2    1    2    0    0  0.22794264404E+02 -0.90265137211E+01 -0.20976366370E+03  0.24541792947E+03  0.12501243562E+03 0.  0.
    9000005    1    3    3    0    0 -0.23286250594E+02 -0.48633938423E+02 -0.46495224002E+02  0.71206146422E+02  0.10000000000E+01 0.  0.
    9000005    1    3    3    0    0  0.46080514998E+02  0.39607424702E+02 -0.16326843969E+03  0.17421178305E+03  0.10000000000E+01 0.  0.
         21    1    1    2  502  501 -0.22794264404E+02  0.90265137211E+01 -0.46102257712E+01  0.24946154440E+02  0.00000000000E+00 0. -1.
<mgrwt>
<rscale>  1 0.12739374E+03</rscale>
<asrwt>0</asrwt>
<pdfrwt beam="2">  1        4 0.37287535E-01 0.12739374E+03</pdfrwt>
<pdfrwt beam="1">  1       -4 0.43069382E-02 0.12739374E+03</pdfrwt>
<totfact> 0.34242319E+03</totfact>
</mgrwt>
</event>
<event>
 6    4  0.2103460E-003  0.1285440E+03  0.7818608E-02  0.1229632E+00
          4   -1    0    0  502    0  0.00000000000E+00  0.00000000000E+00  0.22068745868E+03  0.22069111291E+03  0.12700000000E+01 0. -1.
         -4   -1    0    0    0  501 -0.00000000000E+00 -0.00000000000E+00 -0.28729450469E+02  0.28757507268E+02  0.12700000000E+01 0. -1.
         25    2    1    2    0    0 -0.27569846118E+02  0.11757262509E+02  0.14536383622E+03  0.19404693699E+03  0.12500095695E+03 0.  0.
    9000005    1    3    3    0    0 -0.69006083963E+02  0.38583066948E+02  0.93286262459E+02  0.12228581047E+03  0.10000000000E+01 0.  0.
    9000005    1    3    3    0    0  0.41436237845E+02 -0.26825804438E+02  0.52077573759E+02  0.71761126518E+02  0.10000000000E+01 0.  0.
         21    1    1    2  502  501  0.27569846118E+02 -0.11757262509E+02  0.46594171989E+02  0.55401683188E+02  0.00000000000E+00 0. -1.
<mgrwt>
<rscale>  1 0.12854403E+03</rscale>
<asrwt>0</asrwt>
<pdfrwt beam="1">  1        4 0.33954357E-01 0.12854403E+03</pdfrwt>
<pdfrwt beam="2">  1       -4 0.44223547E-02 0.12854403E+03</pdfrwt>
<totfact> 0.39426961E+03</totfact>
</mgrwt>
</event>
<event>
 6    4  0.2103460E-003  0.1314637E+03  0.7818608E-02  0.1225300E+00
          4   -1    0    0  502    0  0.00000000000E+00  0.00000000000E+00  0.10949904818E+03  0.10950641283E+03  0.12700000000E+01 0.  1.
         -4   -1    0    0    0  501 -0.00000000000E+00 -0.00000000000E+00 -0.75948260968E+02  0.75958878639E+02  0.12700000000E+01 0.  1.
         25    2    1    2    0    0  0.32052189136E+02  0.25105897085E+02  0.51210845449E+02  0.14108594319E+03  0.12500017511E+03 0.  0.
    9000005    1    3    3    0    0  0.12439993234E+02  0.39745996517E+02 -0.33151130841E+02  0.53239976961E+02  0.10000000000E+01 0.  0.
    9000005    1    3    3    0    0  0.19612195902E+02 -0.14640099433E+02  0.84361976290E+02  0.87845966231E+02  0.10000000000E+01 0.  0.
         21    1    1    2  502  501 -0.32052189136E+02 -0.25105897085E+02 -0.17660058239E+02  0.44379348281E+02  0.00000000000E+00 0.  1.
<mgrwt>
<rscale>  1 0.13146366E+03</rscale>
<asrwt>0</asrwt>
<pdfrwt beam="1">  1        4 0.16847391E-01 0.13146366E+03</pdfrwt>
<pdfrwt beam="2">  1       -4 0.11685731E-01 0.13146366E+03</pdfrwt>
<totfact> 0.29041454E+03</totfact>
</mgrwt>
</event>
<event>
 6    4  0.2103460E-003  0.1267098E+03  0.7818608E-02  0.1232421E+00
          4   -1    0    0  502    0  0.00000000000E+00  0.00000000000E+00  0.81064900793E+02  0.81074848384E+02  0.12700000000E+01 0.  1.
         -4   -1    0    0    0  501 -0.00000000000E+00 -0.00000000000E+00 -0.90364905185E+02  0.90373829116E+02  0.12700000000E+01 0.  1.
         25    2    1    2    0    0 -0.18476142270E+02  0.96158066805E+01  0.27039918148E+02  0.12956286198E+03  0.12498618508E+03 0.  0.
    9000005    1    3    3    0    0  0.88306854846E+01  0.61530472489E+02 -0.56118202379E+01  0.62421731610E+02  0.10000000000E+01 0.  0.
    9000005    1    3    3    0    0 -0.27306827755E+02 -0.51914665809E+02  0.32651738386E+02  0.67141130372E+02  0.10000000000E+01 0.  0.
         21    1    1    2  502  501  0.18476142270E+02 -0.96158066805E+01 -0.36339922540E+02  0.41885815517E+02  0.00000000000E+00 0. -1.
<mgrwt>
<rscale>  1 0.12670982E+03</rscale>
<asrwt>0</asrwt>
<pdfrwt beam="1">  1        4 0.12472975E-01 0.12670982E+03</pdfrwt>
<pdfrwt beam="2">  1       -4 0.13903745E-01 0.12670982E+03</pdfrwt>
<totfact> 0.36016066E+03</totfact>
</mgrwt>
</event>
<event>
 6    4  0.2103460E-003  0.1266019E+03  0.7818608E-02  0.1232587E+00
          4   -1    0    0  502    0  0.00000000000E+00  0.00000000000E+00  0.22975456739E+02  0.23010530467E+02  0.12700000000E+01 0. -1.
         -4   -1    0    0    0  501 -0.00000000000E+00 -0.00000000000E+00 -0.25680845816E+03  0.25681159842E+03  0.12700000000E+01 0. -1.
         25    2    1    2    0    0  0.16601152737E+02  0.11290225393E+02 -0.16412231942E+03  0.20727802749E+03  0.12499990995E+03 0.  0.
    9000005    1    3    3    0    0  0.47730293781E+02 -0.42287411457E+02 -0.95233301222E+02  0.11461582689E+03  0.10000000000E+01 0.  0.
    9000005    1    3    3    0    0 -0.31129141043E+02  0.53577636850E+02 -0.68889018199E+02  0.92662200605E+02  0.10000000000E+01 0.  0.
         21    1    1    2  502  501 -0.16601152737E+02 -0.11290225393E+02 -0.69710681998E+02  0.72544101388E+02  0.00000000000E+00 0. -1.
<mgrwt>
<rscale>  1 0.12660192E+03</rscale>
<asrwt>0</asrwt>
<pdfrwt beam="1">  1        4 0.35376254E-02 0.12660192E+03</pdfrwt>
<pdfrwt beam="2">  1       -4 0.39511931E-01 0.12660192E+03</pdfrwt>
<totfact> 0.41698975E+03</totfact>
</mgrwt>
</event>
<event>
 6    4  0.2103460E-003  0.1347477E+03  0.7818608E-02  0.1220576E+00
          4   -1    0    0  502    0  0.00000000000E+00  0.00000000000E+00  0.61890810281E+02  0.61903839116E+02  0.12700000000E+01 0. -1.
         -4   -1    0    0    0  501 -0.00000000000E+00 -0.00000000000E+00 -0.21980487841E+03  0.21980854731E+03  0.12700000000E+01 0. -1.
         25    2    1    2    0    0 -0.43252401030E+02 -0.25708497446E+02 -0.21676226998E+02  0.13647999889E+03  0.12500093697E+03 0.  0.
    9000005    1    3    3    0    0 -0.74192779708E+02  0.14419217752E+01 -0.47278357947E+02  0.87993697669E+02  0.10000000000E+01 0.  0.
    9000005    1    3    3    0    0  0.30940378678E+02 -0.27150419221E+02  0.25602130949E+02  0.48486301218E+02  0.10000000000E+01 0.  0.
         21    1    1    2  502  501  0.43252401030E+02  0.25708497446E+02 -0.13623784113E+03  0.14523238754E+03  0.00000000000E+00 0. -1.
<mgrwt>
<rscale>  1 0.13474766E+03</rscale>
<asrwt>0</asrwt>
<pdfrwt beam="1">  1        4 0.95229477E-02 0.13474766E+03</pdfrwt>
<pdfrwt beam="2">  1       -4 0.33817419E-01 0.13474766E+03</pdfrwt>
<totfact> 0.11472194E+03</totfact>
</mgrwt>
</event>
<event>
 6    4  0.2103460E-003  0.1287969E+03  0.7818608E-02  0.1229252E+00
         -4   -1    0    0    0  501 -0.00000000000E+00  0.00000000000E+00  0.17421223648E+03  0.17421686554E+03  0.12700000000E+01 0. -1.
          4   -1    0    0  502    0  0.00000000000E+00 -0.00000000000E+00 -0.43915526452E+02  0.43933886279E+02  0.12700000000E+01 0. -1.
         25    2    1    2    0    0  0.19091295117E+02 -0.24497288774E+02  0.61621222108E+02  0.14277889137E+03  0.12499616835E+03 0.  0.
    9000005    1    3    3    0    0 -0.76531843952E+00 -0.55365636575E+02 -0.15376318947E+02  0.57474956373E+02  0.10000000000E+01 0.  0.
    9000005    1    3    3    0    0  0.19856613556E+02  0.30868347801E+02  0.76997541055E+02  0.85303935000E+02  0.10000000000E+01 0.  0.
         21    1    1    2  502  501 -0.19091295117E+02  0.24497288774E+02  0.68675487916E+02  0.75371860446E+02  0.00000000000E+00 0. -1.
<mgrwt>
<rscale>  1 0.12879688E+03</rscale>
<asrwt>0</asrwt>
<pdfrwt beam="2">  1        4 0.67580032E-02 0.12879688E+03</pdfrwt>
<pdfrwt beam="1">  1       -4 0.26803651E-01 0.12879688E+03</pdfrwt>
<totfact> 0.31095001E+03</totfact>
</mgrwt>
</event>
<event>
 6    4  0.2103460E-003  0.1308925E+03  0.7818608E-02  0.1226137E+00
          4   -1    0    0  502    0  0.00000000000E+00  0.00000000000E+00  0.14598656551E+04  0.14598662076E+04  0.12700000000E+01 0. -1.
         -4   -1    0    0    0  501 -0.00000000000E+00 -0.00000000000E+00 -0.52789979937E+01  0.54296150708E+01  0.12700000000E+01 0. -1.
         25    2    1    2    0    0  0.21407769278E+02  0.32390081286E+02  0.12663601029E+04  0.12731067343E+04  0.12500174690E+03 0.  0.
    9000005    1    3    3    0    0  0.62791442123E+02  0.12570230611E+02  0.10490356653E+04  0.10509888691E+04  0.10000000000E+01 0.  0.
    9000005    1    3    3    0    0 -0.41383672844E+02  0.19819850675E+02  0.21732443763E+03  0.22211786522E+03  0.10000000000E+01 0.  0.
         21    1    1    2  502  501 -0.21407769278E+02 -0.32390081286E+02  0.18822655425E+03  0.19218908834E+03  0.00000000000E+00 0.  1.
<mgrwt>
<rscale>  1 0.13089250E+03</rscale>
<asrwt>0</asrwt>
<pdfrwt beam="1">  1        4 0.22460650E+00 0.13089250E+03</pdfrwt>
<pdfrwt beam="2">  1       -4 0.82378140E-03 0.13089250E+03</pdfrwt>
<totfact> 0.67359054E+02</totfact>
</mgrwt>
</event>
<event>
 6    4  0.2103460E-003  0.1268642E+03  0.7818608E-02  0.1232184E+00
          4   -1    0    0  502    0  0.00000000000E+00  0.00000000000E+00  0.69521422913E+02  0.69533021967E+02  0.12700000000E+01 0.  1.
         -4   -1    0    0    0  501 -0.00000000000E+00 -0.00000000000E+00 -0.12467438324E+03  0.12468085152E+03  0.12700000000E+01 0.  1.
         25    2    1    2    0    0  0.52690160304E+01 -0.21079512127E+02  0.83083266726E+01  0.12713598362E+03  0.12498968629E+03 0.  0.
    9000005    1    3    3    0    0 -0.35068434753E+01  0.35900223929E+02  0.45838380686E+02  0.58337647992E+02  0.10000000000E+01 0.  0.
    9000005    1    3    3    0    0  0.87758595057E+01 -0.56979736056E+02 -0.37530054014E+02  0.68798335629E+02  0.10000000000E+01 0.  0.
         21    1    1    2  502  501 -0.52690160304E+01  0.21079512127E+02 -0.63461286995E+02  0.67077889863E+02  0.00000000000E+00 0.  1.
<mgrwt>
<rscale>  1 0.12686422E+03</rscale>
<asrwt>0</asrwt>
<pdfrwt beam="1">  1        4 0.10696993E-01 0.12686422E+03</pdfrwt>
<pdfrwt beam="2">  1       -4 0.19182064E-01 0.12686422E+03</pdfrwt>
<totfact> 0.26571308E+03</totfact>
</mgrwt>
</event>
<event>
 6    4  0.2103460E-003  0.1782201E+03  0.7818608E-02  0.1169537E+00
         -4   -1    0    0    0  501 -0.00000000000E+00  0.00000000000E+00  0.33871632197E+03  0.33871870286E+03  0.12700000000E+01 0. -1.
          4   -1    0    0  502    0  0.00000000000E+00 -0.00000000000E+00 -0.91618320768E+02  0.91627122624E+02  0.12700000000E+01 0. -1.
         25    2    1    2    0    0  0.10912515850E+03 -0.65028256571E+02  0.32780998576E+02  0.18120981447E+03  0.12500171448E+03 0.  0.
    9000005    1    3    3    0    0 -0.24205435529E+02  0.84980367818E+01  0.83613984793E+01  0.27000605971E+02  0.10000000000E+01 0.  0.
    9000005    1    3    3    0    0  0.13333059403E+03 -0.73526293353E+02  0.24419600097E+02  0.15420920850E+03  0.10000000000E+01 0.  0.
         21    1    1    2  502  501 -0.10912515850E+03  0.65028256571E+02  0.21431700262E+03  0.24913601101E+03  0.00000000000E+00 0. -1.
<mgrwt>
<rscale>  1 0.17822010E+03</rscale>
<asrwt>0</asrwt>
<pdfrwt beam="2">  1        4 0.14095987E-01 0.17822010E+03</pdfrwt>
<pdfrwt beam="1">  1       -4 0.52111063E-01 0.17822010E+03</pdfrwt>
<totfact> 0.26147064E+02</totfact>
</mgrwt>
</event>
<event>
 6    4  0.2103460E-003  0.1286837E+03  0.7818608E-02  0.1229422E+00
          4   -1    0    0  502    0  0.00000000000E+00  0.00000000000E+00  0.18342407532E+02  0.18386321385E+02  0.12700000000E+01 0. -1.
         -4   -1    0    0    0  501 -0.00000000000E+00 -0.00000000000E+00 -0.43506839857E+03  0.43507025218E+03  0.12700000000E+01 0. -1.
         25    2    1    2    0    0  0.30570786208E+02  0.28036512862E+00 -0.22409393584E+03  0.25841360327E+03  0.12499938679E+03 0.  0.
    9000005    1    3    3    0    0 -0.44629231339E+02  0.21214244359E+02 -0.70226692980E+02  0.85875496276E+02  0.10000000000E+01 0.  0.
    9000005    1    3    3    0    0  0.75200017547E+02 -0.20933879231E+02 -0.15386724286E+03  0.17253810699E+03  0.10000000000E+01 0.  0.
         21    1    1    2  502  501 -0.30570786208E+02 -0.28036512862E+00 -0.19263205520E+03  0.19504297030E+03  0.00000000000E+00 0. -1.
<mgrwt>
<rscale>  1 0.12868371E+03</rscale>
<asrwt>0</asrwt>
<pdfrwt beam="1">  1        4 0.28254298E-02 0.12868371E+03</pdfrwt>
<pdfrwt beam="2">  1       -4 0.66937113E-01 0.12868371E+03</pdfrwt>
<totfact> 0.20258628E+03</totfact>
</mgrwt>
</event>
<event>
 6    4  0.2103460E-003  0.1270860E+03  0.7818608E-02  0.1231845E+00
         -4   -1    0    0    0  501 -0.00000000000E+00  0.00000000000E+00  0.33143133084E+02  0.33167456499E+02  0.12700000000E+01 0.  1.
          4   -1    0    0  502    0  0.00000000000E+00 -0.00000000000E+00 -0.17053148543E+03  0.17053621441E+03  0.12700000000E+01 0.  1.
         25    2    1    2    0    0  0.50698590121E+01 -0.22351588653E+02 -0.11084145314E+03  0.16863181833E+03  0.12500226171E+03 0.  0.
    9000005    1    3    3    0    0  0.39773032852E+02 -0.60928122821E+02 -0.48195079520E+02  0.87280559019E+02  0.10000000000E+01 0.  0.
    9000005    1    3    3    0    0 -0.34703173840E+02  0.38576534168E+02 -0.62646373620E+02  0.81351259306E+02  0.10000000000E+01 0.  0.
         21    1    1    2  502  501 -0.50698590121E+01  0.22351588653E+02 -0.26546899209E+02  0.35071852579E+02  0.00000000000E+00 0.  1.
<mgrwt>
<rscale>  1 0.12708604E+03</rscale>
<asrwt>0</asrwt>
<pdfrwt beam="2">  1        4 0.26237847E-01 0.12708604E+03</pdfrwt>
<pdfrwt beam="1">  1       -4 0.51011784E-02 0.12708604E+03</pdfrwt>
<totfact> 0.50873270E+03</totfact>
</mgrwt>
</event>
<event>
 6    4  0.2103460E-003  0.1307363E+03  0.7818608E-02  0.1226367E+00
          4   -1    0    0  502    0  0.00000000000E+00  0.00000000000E+00  0.41143932588E+03  0.41144128594E+03  0.12700000000E+01 0. -1.
         -4   -1    0    0    0  501 -0.00000000000E+00 -0.00000000000E+00 -0.18112180530E+02  0.18156651221E+02  0.12700000000E+01 0. -1.
         25    2    1    2    0    0  0.18377478040E+02  0.33593181717E+02  0.33716373530E+03  0.36162321991E+03  0.12500294086E+03 0.  0.
    9000005    1    3    3    0    0 -0.17073155714E+02 -0.35820581925E+02  0.19961201735E+03  0.20352042700E+03  0.10000000000E+01 0.  0.
    9000005    1    3    3    0    0  0.35450633755E+02  0.69413763642E+02  0.13755171795E+03  0.15810279291E+03  0.10000000000E+01 0.  0.
         21    1    1    2  502  501 -0.18377478040E+02 -0.33593181717E+02  0.56163410051E+02  0.67974717252E+02  0.00000000000E+00 0. -1.
<mgrwt>
<rscale>  1 0.13073626E+03</rscale>
<asrwt>0</asrwt>
<pdfrwt beam="1">  1        4 0.63301931E-01 0.13073626E+03</pdfrwt>
<pdfrwt beam="2">  1       -4 0.27900608E-02 0.13073626E+03</pdfrwt>
<totfact> 0.23353253E+03</totfact>
</mgrwt>
</event>
<event>
 6    4  0.2103460E-003  0.1283235E+03  0.7818608E-02  0.1229965E+00
         -4   -1    0    0    0  501 -0.00000000000E+00  0.00000000000E+00  0.78431573222E+02  0.78441854760E+02  0.12700000000E+01 0.  1.
          4   -1    0    0  502    0  0.00000000000E+00 -0.00000000000E+00 -0.79470547967E+02  0.79480695104E+02  0.12700000000E+01 0.  1.
         25    2    1    2    0    0  0.12521054862E+02 -0.26255835196E+02 -0.57632933900E+01  0.12845282161E+03  0.12498306338E+03 0.  0.
    9000005    1    3    3    0    0  0.12483022564E+02  0.21345995321E+02  0.49600421075E+02  0.55431752086E+02  0.10000000000E+01 0.  0.
    9000005    1    3    3    0    0  0.38032298167E-01 -0.47601830517E+02 -0.55363714465E+02  0.73021069523E+02  0.10000000000E+01 0.  0.
         21    1    1    2  502  501 -0.12521054862E+02  0.26255835196E+02  0.47243186448E+01  0.29469728254E+02  0.00000000000E+00 0.  1.
<mgrwt>
<rscale>  1 0.12832347E+03</rscale>
<asrwt>0</asrwt>
<pdfrwt beam="2">  1        4 0.12227810E-01 0.12832347E+03</pdfrwt>
<pdfrwt beam="1">  1       -4 0.12067967E-01 0.12832347E+03</pdfrwt>
<totfact> 0.47686928E+03</totfact>
</mgrwt>
</event>
<event>
 6    4  0.2103460E-003  0.1290954E+03  0.7818608E-02  0.1228804E+00
         -4   -1    0    0    0  501 -0.00000000000E+00  0.00000000000E+00  0.12851234875E+03  0.12851862387E+03  0.12700000000E+01 0.  1.
          4   -1    0    0  502    0  0.00000000000E+00 -0.00000000000E+00 -0.50644750856E+02  0.50660672018E+02  0.12700000000E+01 0.  1.
         25    2    1    2    0    0  0.16648373746E+02  0.27654325421E+02  0.62104119197E+02  0.14325691674E+03  0.12499476993E+03 0.  0.
    9000005    1    3    3    0    0  0.60976966861E+02  0.29931396825E+02  0.12725382324E+01  0.67946290238E+02  0.10000000000E+01 0.  0.
    9000005    1    3    3    0    0 -0.44328593115E+02 -0.22770714040E+01  0.60831580964E+02  0.75310626504E+02  0.10000000000E+01 0.  0.
         21    1    1    2  502  501 -0.16648373746E+02 -0.27654325421E+02  0.15763478697E+02  0.35922379146E+02  0.00000000000E+00 0.  1.
<mgrwt>
<rscale>  1 0.12909540E+03</rscale>
<asrwt>0</asrwt>
<pdfrwt beam="2">  1        4 0.77932075E-02 0.12909540E+03</pdfrwt>
<pdfrwt beam="1">  1       -4 0.19772838E-01 0.12909540E+03</pdfrwt>
<totfact> 0.42906096E+03</totfact>
</mgrwt>
</event>
<event>
 6    4  0.2103460E-003  0.1292863E+03  0.7818608E-02  0.1228519E+00
          4   -1    0    0  502    0  0.00000000000E+00  0.00000000000E+00  0.74127470166E+02  0.74138348600E+02  0.12700000000E+01 0. -1.
         -4   -1    0    0    0  501 -0.00000000000E+00 -0.00000000000E+00 -0.11478035376E+03  0.11478737958E+03  0.12700000000E+01 0. -1.
         25    2    1    2    0    0 -0.23766165675E+02  0.22924302906E+02  0.86625872296E+01  0.12957617083E+03  0.12499835733E+03 0.  0.
    9000005    1    3    3    0    0 -0.10183403875E+02 -0.43867606300E+02 -0.27129952807E+02  0.52584246084E+02  0.10000000000E+01 0.  0.
    9000005    1    3    3    0    0 -0.13582761800E+02  0.66791909205E+02  0.35792540037E+02  0.76991924743E+02  0.10000000000E+01 0.  0.
         21    1    1    2  502  501  0.23766165675E+02 -0.22924302906E+02 -0.49315470828E+02  0.59349557350E+02  0.00000000000E+00 0. -1.
<mgrwt>
<rscale>  1 0.12928629E+03</rscale>
<asrwt>0</asrwt>
<pdfrwt beam="1">  1        4 0.11405603E-01 0.12928629E+03</pdfrwt>
<pdfrwt beam="2">  1       -4 0.17659893E-01 0.12928629E+03</pdfrwt>
<totfact> 0.27736265E+03</totfact>
</mgrwt>
</event>
<event>
 6    4  0.2103460E-003  0.1273559E+03  0.7818608E-02  0.1231433E+00
         -4   -1    0    0    0  501 -0.00000000000E+00  0.00000000000E+00  0.22200783453E+02  0.22237079078E+02  0.12700000000E+01 0. -1.
          4   -1    0    0  502    0  0.00000000000E+00 -0.00000000000E+00 -0.26448841985E+03  0.26449146892E+03  0.12700000000E+01 0. -1.
         25    2    1    2    0    0  0.61321629038E+01  0.23595254033E+02 -0.21693760596E+03  0.25155805642E+03  0.12500076575E+03 0.  0.
    9000005    1    3    3    0    0  0.16745939992E+02  0.11942995581E+02  0.10814015552E+02  0.23259505197E+02  0.10000000000E+01 0.  0.
    9000005    1    3    3    0    0 -0.10613777088E+02  0.11652258452E+02 -0.22775162151E+03  0.22829855123E+03  0.10000000000E+01 0.  0.
         21    1    1    2  502  501 -0.61321629038E+01 -0.23595254033E+02 -0.25350030436E+02  0.35170491579E+02  0.00000000000E+00 0.  1.
<mgrwt>
<rscale>  1 0.12735592E+03</rscale>
<asrwt>0</asrwt>
<pdfrwt beam="2">  1        4 0.40693551E-01 0.12735592E+03</pdfrwt>
<pdfrwt beam="1">  1       -4 0.34185318E-02 0.12735592E+03</pdfrwt>
<totfact> 0.41594376E+03</totfact>
</mgrwt>
</event>
<event>
 6    4  0.2103460E-003  0.1280809E+03  0.7818608E-02  0.1230331E+00
          4   -1    0    0  502    0  0.00000000000E+00  0.00000000000E+00  0.45370290680E+01  0.47114257677E+01  0.12700000000E+01 0. -1.
         -4   -1    0    0    0  501 -0.00000000000E+00 -0.00000000000E+00 -0.13190656986E+04  0.13190663100E+04  0.12700000000E+01 0. -1.
         25    2    1    2    0    0 -0.12168369230E+01  0.27856697124E+02 -0.11067188655E+04  0.11141056324E+04  0.12500894626E+03 0.  0.
    9000005    1    3    3    0    0  0.44640589622E+02  0.57964777807E+02 -0.61782110455E+03  0.62213874251E+03  0.10000000000E+01 0.  0.
    9000005    1    3    3    0    0 -0.45857426545E+02 -0.30108080683E+02 -0.48889776098E+03  0.49196688992E+03  0.10000000000E+01 0.  0.
         21    1    1    2  502  501  0.12168369230E+01 -0.27856697124E+02 -0.20780980404E+03  0.20967210334E+03  0.00000000000E+00 0. -1.
<mgrwt>
<rscale>  1 0.12808088E+03</rscale>
<asrwt>0</asrwt>
<pdfrwt beam="1">  1        4 0.71146768E-03 0.12808088E+03</pdfrwt>
<pdfrwt beam="2">  1       -4 0.20294635E+00 0.12808088E+03</pdfrwt>
<totfact> 0.11274200E+03</totfact>
</mgrwt>
</event>
<event>
 6    4  0.2103460E-003  0.1407854E+03  0.7818608E-02  0.1212276E+00
         -4   -1    0    0    0  501 -0.00000000000E+00  0.00000000000E+00  0.75850078634E+01  0.76905945340E+01  0.12700000000E+01 0.  1.
          4   -1    0    0  502    0  0.00000000000E+00 -0.00000000000E+00 -0.18258362575E+04  0.18258366992E+04  0.12700000000E+01 0.  1.
         25    2    1    2    0    0  0.19805472921E+02 -0.61671737386E+02 -0.15912368616E+04  0.15974527455E+04  0.12499945755E+03 0.  0.
    9000005    1    3    3    0    0 -0.32317687159E+02  0.16772639248E+02 -0.76462646903E+03  0.76549356070E+03  0.10000000000E+01 0.  0.
    9000005    1    3    3    0    0  0.52123160080E+02 -0.78444376634E+02 -0.82661039259E+03  0.83195918480E+03  0.10000000000E+01 0.  0.
         21    1    1    2  502  501 -0.19805472921E+02  0.61671737386E+02 -0.22701438800E+03  0.23607454820E+03  0.00000000000E+00 0.  1.
<mgrwt>
<rscale>  1 0.14078538E+03</rscale>
<asrwt>0</asrwt>
<pdfrwt beam="2">  1        4 0.28090569E+00 0.14078538E+03</pdfrwt>
<pdfrwt beam="1">  1       -4 0.11750818E-02 0.14078538E+03</pdfrwt>
<totfact> 0.18849504E+02</totfact>
</mgrwt>
</event>
<event>
 6    4  0.2103460E-003  0.1390738E+03  0.7818608E-02  0.1214581E+00
          4   -1    0    0  502    0  0.00000000000E+00  0.00000000000E+00  0.11666188443E+02  0.11735111963E+02  0.12700000000E+01 0. -1.
         -4   -1    0    0    0  501 -0.00000000000E+00 -0.00000000000E+00 -0.12013591934E+04  0.12013598647E+04  0.12700000000E+01 0. -1.
         25    2    1    2    0    0  0.33836537679E+02  0.50705164325E+02 -0.45259154194E+03  0.47347717551E+03  0.12500242767E+03 0.  0.
    9000005    1    3    3    0    0 -0.39433659429E+02  0.41471513466E+02 -0.27928431305E+03  0.28508880624E+03  0.10000000000E+01 0.  0.
    9000005    1    3    3    0    0  0.73270197108E+02  0.92336508595E+01 -0.17330722889E+03  0.18838836927E+03  0.10000000000E+01 0.  0.
         21    1    1    2  502  501 -0.33836537679E+02 -0.50705164325E+02 -0.73710146307E+03  0.73961780118E+03  0.00000000000E+00 0. -1.
<mgrwt>
<rscale>  1 0.13907384E+03</rscale>
<asrwt>0</asrwt>
<pdfrwt beam="1">  1        4 0.18001526E-02 0.13907384E+03</pdfrwt>
<pdfrwt beam="2">  1       -4 0.18482975E+00 0.13907384E+03</pdfrwt>
<totfact> 0.36608628E+02</totfact>
</mgrwt>
</event>
<event>
 6    4  0.2103460E-003  0.1267971E+03  0.7818608E-02  0.1232287E+00
          4   -1    0    0  502    0  0.00000000000E+00  0.00000000000E+00  0.25275894085E+03  0.25276213142E+03  0.12700000000E+01 0. -1.
         -4   -1    0    0    0  501 -0.00000000000E+00 -0.00000000000E+00 -0.38794791649E+02  0.38815573667E+02  0.12700000000E+01 0. -1.
         25    2    1    2    0    0 -0.14481591615E+02  0.15587531706E+02  0.23153686874E+03  0.26398263102E+03  0.12499928101E+03 0.  0.
    9000005    1    3    3    0    0 -0.54512522095E+02 -0.31092559196E+02  0.14313559992E+03  0.15629191363E+03  0.10000000000E+01 0.  0.
    9000005    1    3    3    0    0  0.40030930480E+02  0.46680090902E+02  0.88401268822E+02  0.10769071739E+03  0.10000000000E+01 0.  0.
         21    1    1    2  502  501  0.14481591615E+02 -0.15587531706E+02 -0.17572719544E+02  0.27595074064E+02  0.00000000000E+00 0. -1.
<mgrwt>
<rscale>  1 0.12679711E+03</rscale>
<asrwt>0</asrwt>
<pdfrwt beam="1">  1        4 0.38887833E-01 0.12679711E+03</pdfrwt>
<pdfrwt beam="2">  1       -4 0.59702739E-02 0.12679711E+03</pdfrwt>
<totfact> 0.18645318E+03</totfact>
</mgrwt>
</event>
<event>
 6    4  0.2103460E-003  0.1283478E+03  0.7818608E-02  0.1229928E+00
         -4   -1    0    0    0  501 -0.00000000000E+00  0.00000000000E+00  0.51122050626E+03  0.51122208375E+03  0.12700000000E+01 0. -1.
          4   -1    0    0  502    0  0.00000000000E+00 -0.00000000000E+00 -0.12718303583E+02  0.12781554915E+02  0.12700000000E+01 0. -1.
         25    2    1    2    0    0 -0.21810198335E+02 -0.19307855940E+02  0.35286904887E+03  0.37548598471E+03  0.12499872402E+03 0.  0.
    9000005    1    3    3    0    0  0.86979461251E+01 -0.21762062574E+02  0.34228150326E+03  0.34308434693E+03  0.10000000000E+01 0.  0.
    9000005    1    3    3    0    0 -0.30508144460E+02  0.24542066338E+01  0.10587545614E+02  0.32401637778E+02  0.10000000000E+01 0.  0.
         21    1    1    2  502  501  0.21810198335E+02  0.19307855940E+02  0.14563315380E+03  0.14851765396E+03  0.00000000000E+00 0. -1.
<mgrwt>
<rscale>  1 0.12834781E+03</rscale>
<asrwt>0</asrwt>
<pdfrwt beam="2">  1        4 0.19616486E-02 0.12834781E+03</pdfrwt>
<pdfrwt beam="1">  1       -4 0.78654308E-01 0.12834781E+03</pdfrwt>
<totfact> 0.25106930E+03</totfact>
</mgrwt>
</event>
<event>
 6    4  0.2103460E-003  0.1274388E+03  0.7818608E-02  0.1231306E+00
         -4   -1    0    0    0  501 -0.00000000000E+00  0.00000000000E+00  0.16013927335E+03  0.16014430920E+03  0.12700000000E+01 0. -1.
          4   -1    0    0  502    0  0.00000000000E+00 -0.00000000000E+00 -0.37319312369E+02  0.37340915571E+02  0.12700000000E+01 0. -1.
         25    2    1    2    0    0  0.19078068443E+02  0.15869972813E+02  0.88588335153E+02  0.15520481631E+03  0.12499925259E+03 0.  0.
    9000005    1    3    3    0    0  0.21573100453E+01 -0.36477367888E+02 -0.13715159997E+02  0.39043027142E+02  0.10000000000E+01 0.  0.
    9000005    1    3    3    0    0  0.16920758398E+02  0.52347340701E+02  0.10230349515E+03  0.11616178917E+03  0.10000000000E+01 0.  0.
         21    1    1    2  502  501 -0.19078068443E+02 -0.15869972813E+02  0.34231625830E+02  0.42280408460E+02  0.00000000000E+00 0.  1.
<mgrwt>
<rscale>  1 0.12743878E+03</rscale>
<asrwt>0</asrwt>
<pdfrwt beam="2">  1        4 0.57434819E-02 0.12743878E+03</pdfrwt>
<pdfrwt beam="1">  1       -4 0.24638860E-01 0.12743878E+03</pdfrwt>
<totfact> 0.47224916E+03</totfact>
</mgrwt>
</event>
<event>
 6    4  0.2103460E-003  0.1266782E+03  0.7818608E-02  0.1232470E+00
          4   -1    0    0  502    0  0.00000000000E+00  0.00000000000E+00  0.12627127242E+03  0.12627765891E+03  0.12700000000E+01 0.  1.
         -4   -1    0    0    0  501 -0.00000000000E+00 -0.00000000000E+00 -0.42901502380E+02  0.42920295974E+02  0.12700000000E+01 0.  1.
         25    2    1    2    0    0  0.10509047602E+02 -0.17660046043E+02  0.72163199235E+02  0.14579059414E+03  0.12500021083E+03 0.  0.
    9000005    1    3    3    0    0  0.53757416139E+02  0.30589387835E+02  0.36398997734E+02  0.71773654457E+02  0.10000000000E+01 0.  0.
    9000005    1    3    3    0    0 -0.43248368537E+02 -0.48249433878E+02  0.35764201501E+02  0.74016939680E+02  0.10000000000E+01 0.  0.
         21    1    1    2  502  501 -0.10509047602E+02  0.17660046043E+02  0.11206570807E+02  0.23407360744E+02  0.00000000000E+00 0.  1.
<mgrwt>
<rscale>  1 0.12667821E+03</rscale>
<asrwt>0</asrwt>
<pdfrwt beam="1">  1        4 0.19428286E-01 0.12667821E+03</pdfrwt>
<pdfrwt beam="2">  1       -4 0.66021681E-02 0.12667821E+03</pdfrwt>
<totfact> 0.57866451E+03</totfact>
</mgrwt>
</event>
<event>
 6    4  0.2103460E-003  0.1270802E+03  0.7818608E-02  0.1231854E+00
         -4   -1    0    0    0  501 -0.00000000000E+00  0.00000000000E+00  0.37479839514E+02  0.37501350243E+02  0.12700000000E+01 0.  1.
          4   -1    0    0  502    0  0.00000000000E+00 -0.00000000000E+00 -0.20422081296E+03  0.20422476184E+03  0.12700000000E+01 0.  1.
         25    2    1    2    0    0  0.84985394371E+01  0.21254533090E+02 -0.17595780243E+03  0.21704959924E+03  0.12500159977E+03 0.  0.
    9000005    1    3    3    0    0 -0.57822902440E+02  0.17587819307E+01 -0.76174911932E+02  0.95656670276E+02  0.10000000000E+01 0.  0.
    9000005    1    3    3    0    0  0.66321441877E+02  0.19495751160E+02 -0.99782890500E+02  0.12139292896E+03  0.10000000000E+01 0.  0.
         21    1    1    2  502  501 -0.84985394371E+01 -0.21254533090E+02  0.92168289828E+01  0.24676512840E+02  0.00000000000E+00 0.  1.
<mgrwt>
<rscale>  1 0.12708021E+03</rscale>
<asrwt>0</asrwt>
<pdfrwt beam="2">  1        4 0.31420544E-01 0.12708021E+03</pdfrwt>
<pdfrwt beam="1">  1       -4 0.57680877E-02 0.12708021E+03</pdfrwt>
<totfact> 0.29751257E+03</totfact>
</mgrwt>
</event>
<event>
 6    4  0.2103460E-003  0.1272466E+03  0.7818608E-02  0.1231599E+00
         -4   -1    0    0    0  501 -0.00000000000E+00  0.00000000000E+00  0.76511069928E+02  0.76521609507E+02  0.12700000000E+01 0.  1.
          4   -1    0    0  502    0  0.00000000000E+00 -0.00000000000E+00 -0.77922617686E+02  0.77932966368E+02  0.12700000000E+01 0.  1.
         25    2    1    2    0    0  0.21832856792E+02  0.89133989447E+01 -0.13488915840E+02  0.12795957378E+03  0.12504231026E+03 0.  0.
    9000005    1    3    3    0    0  0.32439480846E+02  0.49229491221E+02 -0.46242014609E+02  0.74934549031E+02  0.10000000000E+01 0.  0.
    9000005    1    3    3    0    0 -0.10606624054E+02 -0.40316092276E+02  0.32753098768E+02  0.53025024745E+02  0.10000000000E+01 0.  0.
         21    1    1    2  502  501 -0.21832856792E+02 -0.89133989447E+01  0.12077368083E+02  0.26495002100E+02  0.00000000000E+00 0.  1.
<mgrwt>
<rscale>  1 0.12724662E+03</rscale>
<asrwt>0</asrwt>
<pdfrwt beam="2">  1        4 0.11989702E-01 0.12724662E+03</pdfrwt>
<pdfrwt beam="1">  1       -4 0.11772541E-01 0.12724662E+03</pdfrwt>
<totfact> 0.51339735E+03</totfact>
</mgrwt>
</event>
<event>
 6    4  0.2103460E-003  0.1272130E+03  0.7818608E-02  0.1231651E+00
          4   -1    0    0  502    0  0.00000000000E+00  0.00000000000E+00  0.24425975358E+03  0.24426305517E+03  0.12700000000E+01 0.  1.
         -4   -1    0    0    0  501 -0.00000000000E+00 -0.00000000000E+00 -0.35476348510E+02  0.35499073278E+02  0.12700000000E+01 0.  1.
         25    2    1    2    0    0  0.18987767691E+02  0.14069250819E+02  0.21958926567E+03  0.25377663703E+03  0.12499862705E+03 0.  0.
    9000005    1    3    3    0    0  0.64191275182E+02 -0.26110788963E+01  0.63181353759E+02  0.90112268895E+02  0.10000000000E+01 0.  0.
    9000005    1    3    3    0    0 -0.45203507491E+02  0.16680329715E+02  0.15640791191E+03  0.16366436814E+03  0.10000000000E+01 0.  0.
         21    1    1    2  502  501 -0.18987767691E+02 -0.14069250819E+02 -0.10805860603E+02  0.25985491411E+02  0.00000000000E+00 0.  1.
<mgrwt>
<rscale>  1 0.12721295E+03</rscale>
<asrwt>0</asrwt>
<pdfrwt beam="1">  1        4 0.37580424E-01 0.12721295E+03</pdfrwt>
<pdfrwt beam="2">  1       -4 0.54599020E-02 0.12721295E+03</pdfrwt>
<totfact> 0.23050447E+03</totfact>
</mgrwt>
</event>
<event>
 6    4  0.2103460E-003  0.1286145E+03  0.7818608E-02  0.1229526E+00
          4   -1    0    0  502    0  0.00000000000E+00  0.00000000000E+00  0.14094349908E+03  0.14094922076E+03  0.12700000000E+01 0. -1.
         -4   -1    0    0    0  501 -0.00000000000E+00 -0.00000000000E+00 -0.62987172092E+02  0.62999974192E+02  0.12700000000E+01 0. -1.
         25    2    1    2    0    0  0.14588907354E+02  0.26507912331E+02  0.10291869243E+03  0.16472388014E+03  0.12500477511E+03 0.  0.
    9000005    1    3    3    0    0 -0.38632712578E+02 -0.85900691996E+01  0.91838236691E+02  0.10000768715E+03  0.10000000000E+01 0.  0.
    9000005    1    3    3    0    0  0.53221619932E+02  0.35097981530E+02  0.11080455743E+02  0.64716192990E+02  0.10000000000E+01 0.  0.
         21    1    1    2  502  501 -0.14588907354E+02 -0.26507912331E+02 -0.24962365444E+02  0.39225314817E+02  0.00000000000E+00 0. -1.
<mgrwt>
<rscale>  1 0.12861454E+03</rscale>
<asrwt>0</asrwt>
<pdfrwt beam="1">  1        4 0.21685040E-01 0.12861454E+03</pdfrwt>
<pdfrwt beam="2">  1       -4 0.96917592E-02 0.12861454E+03</pdfrwt>
<totfact> 0.25243113E+03</totfact>
</mgrwt>
</event>
<event>
 6    4  0.2103460E-003  0.1280507E+03  0.7818608E-02  0.1230377E+00
          4   -1    0    0  502    0  0.00000000000E+00  0.00000000000E+00  0.55106897677E+03  0.55107044019E+03  0.12700000000E+01 0. -1.
         -4   -1    0    0    0  501 -0.00000000000E+00 -0.00000000000E+00 -0.17835468259E+02  0.17880627170E+02  0.12700000000E+01 0. -1.
         25    2    1    2    0    0 -0.25656969443E+02 -0.10673936737E+02  0.52437672013E+03  0.53978506478E+03  0.12499903415E+03 0.  0.
    9000005    1    3    3    0    0 -0.39279869789E+02  0.28169984307E+02  0.79783112394E+02  0.93288805383E+02  0.10000000000E+01 0.  0.
    9000005    1    3    3    0    0  0.13622900346E+02 -0.38843921044E+02  0.44459360773E+03  0.44649625939E+03  0.10000000000E+01 0.  0.
         21    1    1    2  502  501  0.25656969443E+02  0.10673936737E+02  0.88567883820E+01  0.29166002587E+02  0.00000000000E+00 0. -1.
<mgrwt>
<rscale>  1 0.12805066E+03</rscale>
<asrwt>0</asrwt>
<pdfrwt beam="1">  1        4 0.84783441E-01 0.12805066E+03</pdfrwt>
<pdfrwt beam="2">  1       -4 0.27475041E-02 0.12805066E+03</pdfrwt>
<totfact> 0.12614764E+03</totfact>
</mgrwt>
</event>
<event>
 6    4  0.2103460E-003  0.1464417E+03  0.7818608E-02  0.1204915E+00
         -4   -1    0    0    0  501 -0.00000000000E+00  0.00000000000E+00  0.45524343397E+03  0.45524520543E+03  0.12700000000E+01 0. -1.
          4   -1    0    0  502    0  0.00000000000E+00 -0.00000000000E+00 -0.27322509663E+02  0.27352009694E+02  0.12700000000E+01 0. -1.
         25    2    1    2    0    0  0.66635130340E+02 -0.37150423696E+02  0.26758397156E+03  0.30503502041E+03  0.12499914906E+03 0.  0.
    9000005    1    3    3    0    0  0.89632231796E+02 -0.61812207262E+02  0.23037117780E+03  0.25480691808E+03  0.10000000000E+01 0.  0.
    9000005    1    3    3    0    0 -0.22997101456E+02  0.24661783567E+02  0.37212793763E+02  0.50228102330E+02  0.10000000000E+01 0.  0.
         21    1    1    2  502  501 -0.66635130340E+02  0.37150423696E+02  0.16033695274E+03  0.17756219471E+03  0.00000000000E+00 0. -1.
<mgrwt>
<rscale>  1 0.14644174E+03</rscale>
<asrwt>0</asrwt>
<pdfrwt beam="2">  1        4 0.42058684E-02 0.14644174E+03</pdfrwt>
<pdfrwt beam="1">  1       -4 0.70039859E-01 0.14644174E+03</pdfrwt>
<totfact> 0.10089652E+03</totfact>
</mgrwt>
</event>
<event>
 6    4  0.2103460E-003  0.1271100E+03  0.7818608E-02  0.1231808E+00
          4   -1    0    0  502    0  0.00000000000E+00  0.00000000000E+00  0.46426305429E+02  0.46443672721E+02  0.12700000000E+01 0.  1.
         -4   -1    0    0    0  501 -0.00000000000E+00 -0.00000000000E+00 -0.13574557673E+03  0.13575151750E+03  0.12700000000E+01 0.  1.
         25    2    1    2    0    0 -0.23019871342E+02 -0.14584231132E+01 -0.49961475451E+02  0.13657636111E+03  0.12499964764E+03 0.  0.
    9000005    1    3    3    0    0 -0.21272987843E+02 -0.58077061245E+02 -0.50600957565E+02  0.79918345586E+02  0.10000000000E+01 0.  0.
    9000005    1    3    3    0    0 -0.17468834991E+01  0.56618638132E+02  0.63948211470E+00  0.56658015525E+02  0.10000000000E+01 0.  0.
         21    1    1    2  502  501  0.23019871342E+02  0.14584231132E+01 -0.39357795853E+02  0.45618829106E+02  0.00000000000E+00 0.  1.
<mgrwt>
<rscale>  1 0.12711001E+03</rscale>
<asrwt>0</asrwt>
<pdfrwt beam="1">  1        4 0.71443015E-02 0.12711001E+03</pdfrwt>
<pdfrwt beam="2">  1       -4 0.20885728E-01 0.12711001E+03</pdfrwt>
<totfact> 0.44689610E+03</totfact>
</mgrwt>
</event>
<event>
 6    4  0.2103460E-003  0.1267567E+03  0.7818608E-02  0.1232349E+00
         -4   -1    0    0    0  501 -0.00000000000E+00  0.00000000000E+00  0.14911687213E+02  0.14965671236E+02  0.12700000000E+01 0.  1.
          4   -1    0    0  502    0  0.00000000000E+00 -0.00000000000E+00 -0.66243570877E+03  0.66243692617E+03  0.12700000000E+01 0.  1.
         25    2    1    2    0    0  0.86393582874E+01  0.19183679180E+02 -0.64364620585E+03  0.65600891813E+03  0.12499844119E+03 0.  0.
    9000005    1    3    3    0    0  0.24652329210E+02 -0.49635004639E+02 -0.31661982958E+03  0.32143504399E+03  0.10000000000E+01 0.  0.
    9000005    1    3    3    0    0 -0.16012970922E+02  0.68818683819E+02 -0.32702637627E+03  0.33457387414E+03  0.10000000000E+01 0.  0.
         21    1    1    2  502  501 -0.86393582874E+01 -0.19183679180E+02 -0.38778157106E+01  0.21393679281E+02  0.00000000000E+00 0.  1.
<mgrwt>
<rscale>  1 0.12675671E+03</rscale>
<asrwt>0</asrwt>
<pdfrwt beam="2">  1        4 0.10191741E+00 0.12675671E+03</pdfrwt>
<pdfrwt beam="1">  1       -4 0.22983525E-02 0.12675671E+03</pdfrwt>
<totfact> 0.10929633E+03</totfact>
</mgrwt>
</event>
<event>
 6    4  0.2103460E-003  0.1300887E+03  0.7818608E-02  0.1227324E+00
         -4   -1    0    0    0  501 -0.00000000000E+00  0.00000000000E+00  0.65945918296E+02  0.65958146123E+02  0.12700000000E+01 0.  1.
          4   -1    0    0  502    0  0.00000000000E+00 -0.00000000000E+00 -0.13307386144E+04  0.13307392204E+04  0.12700000000E+01 0.  1.
         25    2    1    2    0    0  0.12351874594E+02 -0.33817354929E+02 -0.13223902112E+04  0.13287734676E+04  0.12500750079E+03 0.  0.
    9000005    1    3    3    0    0 -0.49039968803E+02 -0.88106063430E+01 -0.28952258201E+03  0.29378031047E+03  0.10000000000E+01 0.  0.
    9000005    1    3    3    0    0  0.61391843398E+02 -0.25006748586E+02 -0.10328676292E+04  0.10349931572E+04  0.10000000000E+01 0.  0.
         21    1    1    2  502  501 -0.12351874594E+02  0.33817354929E+02  0.57597515095E+02  0.67923898928E+02  0.00000000000E+00 0.  1.
<mgrwt>
<rscale>  1 0.13008865E+03</rscale>
<asrwt>0</asrwt>
<pdfrwt beam="2">  1        4 0.20472998E+00 0.13008865E+03</pdfrwt>
<pdfrwt beam="1">  1       -4 0.10146514E-01 0.13008865E+03</pdfrwt>
<totfact> 0.17116960E+01</totfact>
</mgrwt>
</event>
<event>
 6    4  0.2103460E-003  0.1280882E+03  0.7818608E-02  0.1230320E+00
         -4   -1    0    0    0  501 -0.00000000000E+00  0.00000000000E+00  0.71207276357E+01  0.72330949158E+01  0.12700000000E+01 0.  1.
          4   -1    0    0  502    0  0.00000000000E+00 -0.00000000000E+00 -0.92606687072E+03  0.92606774155E+03  0.12700000000E+01 0.  1.
         25    2    1    2    0    0  0.14258291321E+02 -0.24038480280E+02 -0.83641076204E+03  0.84616165740E+03  0.12500176072E+03 0.  0.
    9000005    1    3    3    0    0 -0.41563247647E+02 -0.34237252956E+02 -0.19676035966E+03  0.20399836317E+03  0.10000000000E+01 0.  0.
    9000005    1    3    3    0    0  0.55821538968E+02  0.10198772676E+02 -0.63965040239E+03  0.64216329423E+03  0.10000000000E+01 0.  0.
         21    1    1    2  502  501 -0.14258291321E+02  0.24038480280E+02 -0.82535381043E+02  0.87139179073E+02  0.00000000000E+00 0.  1.
<mgrwt>
<rscale>  1 0.12808820E+03</rscale>
<asrwt>0</asrwt>
<pdfrwt beam="2">  1        4 0.14248044E+00 0.12808820E+03</pdfrwt>
<pdfrwt beam="1">  1       -4 0.11042079E-02 0.12808820E+03</pdfrwt>
<totfact> 0.14986154E+03</totfact>
</mgrwt>
</event>
<event>
 6    4  0.2103460E-003  0.1268320E+03  0.7818608E-02  0.1232234E+00
         -4   -1    0    0    0  501 -0.00000000000E+00  0.00000000000E+00  0.66721926128E+03  0.66722046995E+03  0.12700000000E+01 0.  1.
          4   -1    0    0  502    0  0.00000000000E+00 -0.00000000000E+00 -0.10654269853E+02  0.10729695527E+02  0.12700000000E+01 0.  1.
         25    2    1    2    0    0  0.43194043460E+01  0.21033371730E+02  0.38113066298E+03  0.40168013585E+03  0.12500115719E+03 0.  0.
    9000005    1    3    3    0    0  0.32564494149E+02 -0.15804587992E+02  0.28702919386E+02  0.46207021783E+02  0.10000000000E+01 0.  0.
    9000005    1    3    3    0    0 -0.28245089803E+02  0.36837959722E+02  0.35242774359E+03  0.35547311407E+03  0.10000000000E+01 0.  0.
         21    1    1    2  502  501 -0.43194043460E+01 -0.21033371730E+02  0.27543432845E+03  0.27627002963E+03  0.00000000000E+00 0. -1.
<mgrwt>
<rscale>  1 0.12683197E+03</rscale>
<asrwt>0</asrwt>
<pdfrwt beam="2">  1        4 0.16450131E-02 0.12683197E+03</pdfrwt>
<pdfrwt beam="1">  1       -4 0.10265503E+00 0.12683197E+03</pdfrwt>
<totfact> 0.17971983E+03</totfact>
</mgrwt>
</event>
<event>
 6    4  0.2103460E-003  0.1273568E+03  0.7818608E-02  0.1231431E+00
         -4   -1    0    0    0  501 -0.00000000000E+00  0.00000000000E+00  0.95771169256E+02  0.95779589479E+02  0.12700000000E+01 0. -1.
          4   -1    0    0  502    0  0.00000000000E+00 -0.00000000000E+00 -0.60180816689E+02  0.60194215647E+02  0.12700000000E+01 0. -1.
         25    2    1    2    0    0 -0.24380341578E+02 -0.57090803358E+00  0.32084135318E+02  0.13133601807E+03  0.12500012365E+03 0.  0.
    9000005    1    3    3    0    0 -0.46116363762E+02  0.45195230929E+02 -0.10146995431E+02  0.65370401724E+02  0.10000000000E+01 0.  0.
    9000005    1    3    3    0    0  0.21736022184E+02 -0.45766138963E+02  0.42231130749E+02  0.65965616349E+02  0.10000000000E+01 0.  0.
         21    1    1    2  502  501  0.24380341578E+02  0.57090803358E+00  0.35062172496E+01  0.24637787052E+02  0.00000000000E+00 0. -1.
<mgrwt>
<rscale>  1 0.12735681E+03</rscale>
<asrwt>0</asrwt>
<pdfrwt beam="2">  1        4 0.92602657E-02 0.12735681E+03</pdfrwt>
<pdfrwt beam="1">  1       -4 0.14735704E-01 0.12735681E+03</pdfrwt>
<totfact> 0.53972116E+03</totfact>
</mgrwt>
</event>
<event>
 6    4  0.2103460E-003  0.1425436E+03  0.7818608E-02  0.1209947E+00
          4   -1    0    0  502    0  0.00000000000E+00  0.00000000000E+00  0.76623145869E+02  0.76633670034E+02  0.12700000000E+01 0.  1.
         -4   -1    0    0    0  501 -0.00000000000E+00 -0.00000000000E+00 -0.20616629124E+03  0.20617020285E+03  0.12700000000E+01 0.  1.
         25    2    1    2    0    0  0.23255935080E+02  0.64416907507E+02 -0.73572663987E+01  0.14273329957E+03  0.12501315510E+03 0.  0.
    9000005    1    3    3    0    0  0.44489710491E+02  0.83185642126E+02  0.27053952493E+02  0.98143271501E+02  0.10000000000E+01 0.  0.
    9000005    1    3    3    0    0 -0.21233775411E+02 -0.18768734618E+02 -0.34411218892E+02  0.44590028067E+02  0.10000000000E+01 0.  0.
         21    1    1    2  502  501 -0.23255935080E+02 -0.64416907507E+02 -0.12218587897E+03  0.14007057331E+03  0.00000000000E+00 0.  1.
<mgrwt>
<rscale>  1 0.14254356E+03</rscale>
<asrwt>0</asrwt>
<pdfrwt beam="1">  1        4 0.11789287E-01 0.14254356E+03</pdfrwt>
<pdfrwt beam="2">  1       -4 0.31719001E-01 0.14254356E+03</pdfrwt>
<totfact> 0.91382749E+02</totfact>
</mgrwt>
</event>
<event>
 6    4  0.2103460E-003  0.1295435E+03  0.7818608E-02  0.1228135E+00
          4   -1    0    0  502    0  0.00000000000E+00  0.00000000000E+00  0.54724199560E+02  0.54738934201E+02  0.12700000000E+01 0.  1.
         -4   -1    0    0    0  501 -0.00000000000E+00 -0.00000000000E+00 -0.17866180492E+03  0.17866631870E+03  0.12700000000E+01 0.  1.
         25    2    1    2    0    0  0.18423880600E+01 -0.33977882099E+02 -0.29271704934E+02  0.13280941020E+03  0.12499446332E+03 0.  0.
    9000005    1    3    3    0    0  0.28230844347E+02  0.90160146216E+01 -0.64690500240E+02  0.71162700297E+02  0.10000000000E+01 0.  0.
    9000005    1    3    3    0    0 -0.26388456287E+02 -0.42993896720E+02  0.35418795306E+02  0.61646709899E+02  0.10000000000E+01 0.  0.
         21    1    1    2  502  501 -0.18423880600E+01  0.33977882099E+02 -0.94665900427E+02  0.10059584270E+03  0.00000000000E+00 0.  1.
<mgrwt>
<rscale>  1 0.12954345E+03</rscale>
<asrwt>0</asrwt>
<pdfrwt beam="1">  1        4 0.84205884E-02 0.12954345E+03</pdfrwt>
<pdfrwt beam="2">  1       -4 0.27487912E-01 0.12954345E+03</pdfrwt>
<totfact> 0.20674648E+03</totfact>
</mgrwt>
</event>
<event>
 6    4  0.2103460E-003  0.1282885E+03  0.7818608E-02  0.1230018E+00
          4   -1    0    0  502    0  0.00000000000E+00  0.00000000000E+00  0.41684071564E+03  0.41684265031E+03  0.12700000000E+01 0.  1.
         -4   -1    0    0    0  501 -0.00000000000E+00 -0.00000000000E+00 -0.14843558314E+02  0.14897789212E+02  0.12700000000E+01 0.  1.
         25    2    1    2    0    0  0.26397496989E+02 -0.12219610289E+02  0.33342243905E+03  0.35725125433E+03  0.12494714538E+03 0.  0.
    9000005    1    3    3    0    0 -0.77122687330E+01 -0.57128210077E+02  0.86393305835E+02  0.10386488708E+03  0.10000000000E+01 0.  0.
    9000005    1    3    3    0    0  0.34109765722E+02  0.44908599788E+02  0.24702913321E+03  0.25338636725E+03  0.10000000000E+01 0.  0.
         21    1    1    2  502  501 -0.26397496989E+02  0.12219610289E+02  0.68574718283E+02  0.74489185191E+02  0.00000000000E+00 0.  1.
<mgrwt>
<rscale>  1 0.12828849E+03</rscale>
<asrwt>0</asrwt>
<pdfrwt beam="1">  1        4 0.64133670E-01 0.12828849E+03</pdfrwt>
<pdfrwt beam="2">  1       -4 0.22879445E-02 0.12828849E+03</pdfrwt>
<totfact> 0.30776940E+03</totfact>
</mgrwt>
</event>
<event>
 6    4  0.2103460E-003  0.1282539E+03  0.7818608E-02  0.1230070E+00
         -4   -1    0    0    0  501 -0.00000000000E+00  0.00000000000E+00  0.43656654866E+02  0.43675123516E+02  0.12700000000E+01 0.  1.
          4   -1    0    0  502    0  0.00000000000E+00 -0.00000000000E+00 -0.14220274555E+03  0.14220841657E+03  0.12700000000E+01 0.  1.
         25    2    1    2    0    0 -0.24398244147E+02 -0.15117093337E+02 -0.86831236841E+02  0.15488291704E+03  0.12500101388E+03 0.  0.
    9000005    1    3    3    0    0 -0.74810685882E+01 -0.54078553266E+02 -0.96893989471E+02  0.11122005892E+03  0.10000000000E+01 0.  0.
    9000005    1    3    3    0    0 -0.16917175559E+02  0.38961459928E+02  0.10062752630E+02  0.43662858119E+02  0.10000000000E+01 0.  0.
         21    1    1    2  502  501  0.24398244147E+02  0.15117093337E+02 -0.11714853844E+02  0.31000623042E+02  0.00000000000E+00 0. -1.
<mgrwt>
<rscale>  1 0.12825387E+03</rscale>
<asrwt>0</asrwt>
<pdfrwt beam="2">  1        4 0.21879202E-01 0.12825387E+03</pdfrwt>
<pdfrwt beam="1">  1       -4 0.67182654E-02 0.12825387E+03</pdfrwt>
<totfact> 0.45540207E+03</totfact>
</mgrwt>
</event>
<event>
 6    4  0.2103460E-003  0.1401056E+03  0.7818608E-02  0.1213187E+00
          4   -1    0    0  502    0  0.00000000000E+00  0.00000000000E+00  0.22765561727E+04  0.22765565269E+04  0.12700000000E+01 0. -1.
         -4   -1    0    0    0  501 -0.00000000000E+00 -0.00000000000E+00 -0.52794024898E+01  0.54300083471E+01  0.12700000000E+01 0. -1.
         25    2    1    2    0    0  0.28382701767E+02  0.56562870783E+02  0.19161326713E+04  0.19212480329E+04  0.12499861524E+03 0.  0.
    9000005    1    3    3    0    0 -0.36273832700E+02  0.33022563826E+02  0.13584289712E+04  0.13593147356E+04  0.10000000000E+01 0.  0.
    9000005    1    3    3    0    0  0.64656534467E+02  0.23540306956E+02  0.55770370010E+03  0.56193329729E+03  0.10000000000E+01 0.  0.
         21    1    1    2  502  501 -0.28382701767E+02 -0.56562870783E+02  0.35514409895E+03  0.36073850242E+03  0.00000000000E+00 0. -1.
<mgrwt>
<rscale>  1 0.14010564E+03</rscale>
<asrwt>0</asrwt>
<pdfrwt beam="1">  1        4 0.35025055E+00 0.14010564E+03</pdfrwt>
<pdfrwt beam="2">  1       -4 0.82382921E-03 0.14010564E+03</pdfrwt>
<totfact> 0.12574104E+02</totfact>
</mgrwt>
</event>
<event>
 6    4  0.2103460E-003  0.1269334E+03  0.7818608E-02  0.1232078E+00
          4   -1    0    0  502    0  0.00000000000E+00  0.00000000000E+00  0.42471137222E+02  0.42490121169E+02  0.12700000000E+01 0. -1.
         -4   -1    0    0    0  501 -0.00000000000E+00 -0.00000000000E+00 -0.17063805923E+03  0.17064278525E+03  0.12700000000E+01 0. -1.
         25    2    1    2    0    0  0.18314191581E+01 -0.21986731204E+02 -0.57958556445E+02  0.13953953008E+03  0.12500126298E+03 0.  0.
    9000005    1    3    3    0    0  0.48682018500E+02  0.26578793518E+01  0.13504027986E+02  0.50600019958E+02  0.10000000000E+01 0.  0.
    9000005    1    3    3    0    0 -0.46850599342E+02 -0.24644610556E+02 -0.71462584430E+02  0.88939510127E+02  0.10000000000E+01 0.  0.
         21    1    1    2  502  501 -0.18314191581E+01  0.21986731204E+02 -0.70208365568E+02  0.73593376339E+02  0.00000000000E+00 0.  1.
<mgrwt>
<rscale>  1 0.12693339E+03</rscale>
<asrwt>0</asrwt>
<pdfrwt beam="1">  1        4 0.65358450E-02 0.12693339E+03</pdfrwt>
<pdfrwt beam="2">  1       -4 0.26253833E-01 0.12693339E+03</pdfrwt>
<totfact> 0.34008726E+03</totfact>
</mgrwt>
</event>
<event>
 6    4  0.2103460E-003  0.1275908E+03  0.7818608E-02  0.1231075E+00
          4   -1    0    0  502    0  0.00000000000E+00  0.00000000000E+00  0.28256473613E+03  0.28256759015E+03  0.12700000000E+01 0. -1.
         -4   -1    0    0    0  501 -0.00000000000E+00 -0.00000000000E+00 -0.21835030731E+02  0.21871933317E+02  0.12700000000E+01 0. -1.
         25    2    1    2    0    0  0.11643554552E+02 -0.22756473381E+02  0.23884694174E+03  0.27079008382E+03  0.12500391383E+03 0.  0.
    9000005    1    3    3    0    0  0.42845392273E+02 -0.32268921377E+02  0.23110424859E+03  0.23724920367E+03  0.10000000000E+01 0.  0.
    9000005    1    3    3    0    0 -0.31201837721E+02  0.95124479968E+01  0.77426931516E+01  0.33540880151E+02  0.10000000000E+01 0.  0.
         21    1    1    2  502  501 -0.11643554552E+02  0.22756473381E+02  0.21882763660E+02  0.33649439650E+02  0.00000000000E+00 0. -1.
<mgrwt>
<rscale>  1 0.12759078E+03</rscale>
<asrwt>0</asrwt>
<pdfrwt beam="1">  1        4 0.43474549E-01 0.12759078E+03</pdfrwt>
<pdfrwt beam="2">  1       -4 0.33622942E-02 0.12759078E+03</pdfrwt>
<totfact> 0.37473041E+03</totfact>
</mgrwt>
</event>
<event>
 6    4  0.2103460E-003  0.1271722E+03  0.7818608E-02  0.1231713E+00
          4   -1    0    0  502    0  0.00000000000E+00  0.00000000000E+00  0.18425580250E+03  0.18426017925E+03  0.12700000000E+01 0. -1.
         -4   -1    0    0    0  501 -0.00000000000E+00 -0.00000000000E+00 -0.31386545181E+02  0.31412228804E+02  0.12700000000E+01 0. -1.
         25    2    1    2    0    0 -0.57036630573E+01  0.22692100858E+02  0.11674762529E+03  0.17263480224E+03  0.12500121487E+03 0.  0.
    9000005    1    3    3    0    0 -0.51143618191E+02 -0.10649925799E+02  0.10162807012E+03  0.11427316062E+03  0.10000000000E+01 0.  0.
    9000005    1    3    3    0    0  0.45439955133E+02  0.33342026657E+02  0.15119555173E+02  0.58361641621E+02  0.10000000000E+01 0.  0.
         21    1    1    2  502  501  0.57036630573E+01 -0.22692100858E+02  0.36121632031E+02  0.43037605814E+02  0.00000000000E+00 0. -1.
<mgrwt>
<rscale>  1 0.12717219E+03</rscale>
<asrwt>0</asrwt>
<pdfrwt beam="1">  1        4 0.28349359E-01 0.12717219E+03</pdfrwt>
<pdfrwt beam="2">  1       -4 0.48310116E-02 0.12717219E+03</pdfrwt>
<totfact> 0.48065600E+03</totfact>
</mgrwt>
</event>
<event>
 6    4  0.2103460E-003  0.1272685E+03  0.7818608E-02  0.1231566E+00
         -4   -1    0    0    0  501 -0.00000000000E+00  0.00000000000E+00  0.55120025666E+03  0.55120171974E+03  0.12700000000E+01 0. -1.
          4   -1    0    0  502    0  0.00000000000E+00 -0.00000000000E+00 -0.10631446024E+02  0.10707032482E+02  0.12700000000E+01 0. -1.
         25    2    1    2    0    0 -0.10069027382E+02 -0.22025905182E+02  0.41699281623E+03  0.43598197903E+03  0.12494299278E+03 0.  0.
    9000005    1    3    3    0    0 -0.22841072010E+02 -0.29502453312E+01  0.53071463247E+01  0.23655534663E+02  0.10000000000E+01 0.  0.
    9000005    1    3    3    0    0  0.12772044628E+02 -0.19075659851E+02  0.41168566990E+03  0.41232644437E+03  0.10000000000E+01 0.  0.
         21    1    1    2  502  501  0.10069027382E+02  0.22025905182E+02  0.12357599441E+03  0.12592677319E+03  0.00000000000E+00 0. -1.
<mgrwt>
<rscale>  1 0.12726852E+03</rscale>
<asrwt>0</asrwt>
<pdfrwt beam="2">  1        4 0.16415335E-02 0.12726852E+03</pdfrwt>
<pdfrwt beam="1">  1       -4 0.84805989E-01 0.12726852E+03</pdfrwt>
<totfact> 0.27861946E+03</totfact>
</mgrwt>
</event>
<event>
 6    4  0.2103460E-003  0.1270147E+03  0.7818608E-02  0.1231954E+00
         -4   -1    0    0    0  501 -0.00000000000E+00  0.00000000000E+00  0.14588565760E+03  0.14589118546E+03  0.12700000000E+01 0. -1.
          4   -1    0    0  502    0  0.00000000000E+00 -0.00000000000E+00 -0.38327091249E+02  0.38348126729E+02  0.12700000000E+01 0. -1.
         25    2    1    2    0    0  0.22259419483E+02  0.33588453957E+01  0.89508699822E+02  0.15538517418E+03  0.12500392559E+03 0.  0.
    9000005    1    3    3    0    0  0.62582492056E+02  0.24979864786E+02  0.86317489222E+02  0.10950922748E+03  0.10000000000E+01 0.  0.
    9000005    1    3    3    0    0 -0.40323072573E+02 -0.21621019390E+02  0.31912105996E+01  0.45875946707E+02  0.10000000000E+01 0.  0.
         21    1    1    2  502  501 -0.22259419483E+02 -0.33588453957E+01  0.18049866534E+02  0.28854138005E+02  0.00000000000E+00 0. -1.
<mgrwt>
<rscale>  1 0.12701474E+03</rscale>
<asrwt>0</asrwt>
<pdfrwt beam="2">  1        4 0.58985189E-02 0.12701474E+03</pdfrwt>
<pdfrwt beam="1">  1       -4 0.22445991E-01 0.12701474E+03</pdfrwt>
<totfact> 0.53598991E+03</totfact>
</mgrwt>
</event>
<event>
 6    4  0.2103460E-003  0.1267668E+03  0.7818608E-02  0.1232334E+00
         -4   -1    0    0    0  501 -0.00000000000E+00  0.00000000000E+00  0.14147735800E+03  0.14148305809E+03  0.12700000000E+01 0. -1.
          4   -1    0    0  502    0  0.00000000000E+00 -0.00000000000E+00 -0.42877934359E+02  0.42896738278E+02  0.12700000000E+01 0. -1.
         25    2    1    2    0    0  0.15158775343E+02  0.14666360534E+02  0.59680548308E+02  0.14011277186E+03  0.12499972157E+03 0.  0.
    9000005    1    3    3    0    0 -0.46956929039E+02 -0.20487271261E+02  0.77118612580E+01  0.51818474240E+02  0.10000000000E+01 0.  0.
    9000005    1    3    3    0    0  0.62115704382E+02  0.35153631795E+02  0.51968687050E+02  0.88294297625E+02  0.10000000000E+01 0.  0.
         21    1    1    2  502  501 -0.15158775343E+02 -0.14666360534E+02  0.38918875335E+02  0.44267024505E+02  0.00000000000E+00 0. -1.
<mgrwt>
<rscale>  1 0.12676680E+03</rscale>
<asrwt>0</asrwt>
<pdfrwt beam="2">  1        4 0.65984902E-02 0.12676680E+03</pdfrwt>
<pdfrwt beam="1">  1       -4 0.21767632E-01 0.12676680E+03</pdfrwt>
<totfact> 0.47197610E+03</totfact>
</mgrwt>
</event>
<event>
 6    4  0.2103460E-003  0.1325315E+03  0.7818608E-02  0.1223747E+00
          4   -1    0    0  502    0  0.00000000000E+00  0.00000000000E+00  0.20196474917E+02  0.20236365757E+02  0.12700000000E+01 0. -1.
         -4   -1    0    0    0  501 -0.00000000000E+00 -0.00000000000E+00 -0.38556736427E+03  0.38556945586E+03  0.12700000000E+01 0. -1.
         25    2    1    2    0    0  0.39052045249E+02  0.20361339256E+02 -0.27633017622E+03  0.30646854277E+03  0.12499982016E+03 0.  0.
    9000005    1    3    3    0    0  0.60837357941E+02  0.37011743265E+02 -0.26871652982E+03  0.27799393277E+03  0.10000000000E+01 0.  0.
    9000005    1    3    3    0    0 -0.21785312692E+02 -0.16650404009E+02 -0.76136464070E+01  0.28474609995E+02  0.10000000000E+01 0.  0.
         21    1    1    2  502  501 -0.39052045249E+02 -0.20361339256E+02 -0.89040713131E+02  0.99337278850E+02  0.00000000000E+00 0.  1.
<mgrwt>
<rscale>  1 0.13253151E+03</rscale>
<asrwt>0</asrwt>
<pdfrwt beam="1">  1        4 0.31103797E-02 0.13253151E+03</pdfrwt>
<pdfrwt beam="2">  1       -4 0.59321280E-01 0.13253151E+03</pdfrwt>
<totfact> 0.22662638E+03</totfact>
</mgrwt>
</event>
<event>
 6    4  0.2103460E-003  0.1289044E+03  0.7818608E-02  0.1229091E+00
         -4   -1    0    0    0  501 -0.00000000000E+00  0.00000000000E+00  0.13248161614E+03  0.13248770326E+03  0.12700000000E+01 0.  1.
          4   -1    0    0  502    0  0.00000000000E+00 -0.00000000000E+00 -0.52992348359E+02  0.53007564410E+02  0.12700000000E+01 0.  1.
         25    2    1    2    0    0 -0.22106081366E+02  0.22448103668E+02  0.39979263485E+02  0.13496174779E+03  0.12499494256E+03 0.  0.
    9000005    1    3    3    0    0  0.11374547312E+02 -0.46256980716E+01  0.77115321430E+02  0.78093214868E+02  0.10000000000E+01 0.  0.
    9000005    1    3    3    0    0 -0.33480628678E+02  0.27073801740E+02 -0.37136057945E+02  0.56868532925E+02  0.10000000000E+01 0.  0.
         21    1    1    2  502  501  0.22106081366E+02 -0.22448103668E+02  0.39510004295E+02  0.50533519876E+02  0.00000000000E+00 0.  1.
<mgrwt>
<rscale>  1 0.12890435E+03</rscale>
<asrwt>0</asrwt>
<pdfrwt beam="2">  1        4 0.81543078E-02 0.12890435E+03</pdfrwt>
<pdfrwt beam="1">  1       -4 0.20383426E-01 0.12890435E+03</pdfrwt>
<totfact> 0.37676407E+03</totfact>
</mgrwt>
</event>
<event>
 6    4  0.2103460E-003  0.1274732E+03  0.7818608E-02  0.1231254E+00
         -4   -1    0    0    0  501 -0.00000000000E+00  0.00000000000E+00  0.11022138769E+03  0.11022870409E+03  0.12700000000E+01 0. -1.
          4   -1    0    0  502    0  0.00000000000E+00 -0.00000000000E+00 -0.56756776018E+02  0.56770983116E+02  0.12700000000E+01 0. -1.
         25    2    1    2    0    0  0.25000454223E+02  0.31057778324E+01  0.26692166107E+02  0.13023785361E+03  0.12495902614E+03 0.  0.
    9000005    1    3    3    0    0  0.29188792377E+02 -0.58150647707E+02  0.21834667518E+02  0.68638445020E+02  0.10000000000E+01 0.  0.
    9000005    1    3    3    0    0 -0.41883381539E+01  0.61256425540E+02  0.48574985884E+01  0.61599408592E+02  0.10000000000E+01 0.  0.
         21    1    1    2  502  501 -0.25000454223E+02 -0.31057778324E+01  0.26772445568E+02  0.36761833591E+02  0.00000000000E+00 0.  1.
<mgrwt>
<rscale>  1 0.12747324E+03</rscale>
<asrwt>0</asrwt>
<pdfrwt beam="2">  1        4 0.87334673E-02 0.12747324E+03</pdfrwt>
<pdfrwt beam="1">  1       -4 0.16958792E-01 0.12747324E+03</pdfrwt>
<totfact> 0.46533352E+03</totfact>
</mgrwt>
</event>
<event>
 6    4  0.2103460E-003  0.1284243E+03  0.7818608E-02  0.1229813E+00
         -4   -1    0    0    0  501 -0.00000000000E+00  0.00000000000E+00  0.28669765178E+03  0.28670046466E+03  0.12700000000E+01 0.  1.
          4   -1    0    0  502    0  0.00000000000E+00 -0.00000000000E+00 -0.27079902252E+02  0.27109666283E+02  0.12700000000E+01 0.  1.
         25    2    1    2    0    0  0.13608960662E+00 -0.29455837192E+02  0.13731924259E+03  0.18801430563E+03  0.12500055949E+03 0.  0.
    9000005    1    3    3    0    0 -0.32820512581E+02 -0.33141003447E+02 -0.93437563345E-01  0.46653198027E+02  0.10000000000E+01 0.  0.
    9000005    1    3    3    0    0  0.32956602187E+02  0.36851662555E+01  0.13741268015E+03  0.14136110761E+03  0.10000000000E+01 0.  0.
         21    1    1    2  502  501 -0.13608960662E+00  0.29455837192E+02  0.12229850694E+03  0.12579582531E+03  0.00000000000E+00 0.  1.
<mgrwt>
<rscale>  1 0.12842432E+03</rscale>
<asrwt>0</asrwt>
<pdfrwt beam="2">  1        4 0.41686446E-02 0.12842432E+03</pdfrwt>
<pdfrwt beam="1">  1       -4 0.44109838E-01 0.12842432E+03</pdfrwt>
<totfact> 0.25956196E+03</totfact>
</mgrwt>
</event>
<event>
 6    4  0.2103460E-003  0.1288879E+03  0.7818608E-02  0.1229115E+00
         -4   -1    0    0    0  501 -0.00000000000E+00  0.00000000000E+00  0.32251204860E+02  0.32276200441E+02  0.12700000000E+01 0.  1.
          4   -1    0    0  502    0  0.00000000000E+00 -0.00000000000E+00 -0.51618092829E+03  0.51618249062E+03  0.12700000000E+01 0.  1.
         25    2    1    2    0    0 -0.30805108623E+02 -0.61937800071E+01 -0.49772488642E+03  0.51414216225E+03  0.12499913124E+03 0.  0.
    9000005    1    3    3    0    0 -0.23942630167E+02 -0.62546631662E+02 -0.19619794097E+03  0.20731609371E+03  0.10000000000E+01 0.  0.
    9000005    1    3    3    0    0 -0.68624784559E+01  0.56352851655E+02 -0.30152694545E+03  0.30682606854E+03  0.10000000000E+01 0.  0.
         21    1    1    2  502  501  0.30805108623E+02  0.61937800071E+01  0.13795162993E+02  0.34316528817E+02  0.00000000000E+00 0.  1.
<mgrwt>
<rscale>  1 0.12888794E+03</rscale>
<asrwt>0</asrwt>
<pdfrwt beam="2">  1        4 0.79414487E-01 0.12888794E+03</pdfrwt>
<pdfrwt beam="1">  1       -4 0.49637671E-02 0.12888794E+03</pdfrwt>
<totfact> 0.57340499E+02</totfact>
</mgrwt>
</event>
<event>
 6    4  0.2103460E-003  0.1323848E+03  0.7818608E-02  0.1223959E+00
         -4   -1    0    0    0  501 -0.00000000000E+00  0.00000000000E+00  0.34575409302E+03  0.34575642545E+03  0.12700000000E+01 0.  1.
          4   -1    0    0  502    0  0.00000000000E+00 -0.00000000000E+00 -0.22619418499E+02  0.22655043439E+02  0.12700000000E+01 0.  1.
         25    2    1    2    0    0  0.40843131865E+02 -0.15251539949E+02  0.25882448043E+03  0.29071608965E+03  0.12499984888E+03 0.  0.
    9000005    1    3    3    0    0 -0.25160269057E+02 -0.41081777773E+02  0.46860349648E+02  0.67213421079E+02  0.10000000000E+01 0.  0.
    9000005    1    3    3    0    0  0.66003400922E+02  0.25830237824E+02  0.21196413078E+03  0.22350266857E+03  0.10000000000E+01 0.  0.
         21    1    1    2  502  501 -0.40843131865E+02  0.15251539949E+02  0.64310194088E+02  0.77695379238E+02  0.00000000000E+00 0.  1.
<mgrwt>
<rscale>  1 0.13238479E+03</rscale>
<asrwt>0</asrwt>
<pdfrwt beam="2">  1        4 0.34828307E-02 0.13238479E+03</pdfrwt>
<pdfrwt beam="1">  1       -4 0.53195852E-01 0.13238479E+03</pdfrwt>
<totfact> 0.23779298E+03</totfact>
</mgrwt>
</event>
<event>
 6    4  0.2103460E-003  0.1270940E+03  0.7818608E-02  0.1231833E+00
          4   -1    0    0  502    0  0.00000000000E+00  0.00000000000E+00  0.17363967076E+03  0.17364431508E+03  0.12700000000E+01 0. -1.
         -4   -1    0    0    0  501 -0.00000000000E+00 -0.00000000000E+00 -0.36919010439E+02  0.36940847740E+02  0.12700000000E+01 0. -1.
         25    2    1    2    0    0 -0.20728850965E+02  0.99181160087E+01  0.13795167857E+03  0.18757278152E+03  0.12499931383E+03 0.  0.
    9000005    1    3    3    0    0 -0.22859064306E+02  0.66570133803E+02  0.76670522967E+02  0.10408404598E+03  0.10000000000E+01 0.  0.
    9000005    1    3    3    0    0  0.21302133412E+01 -0.56652017794E+02  0.61281155607E+02  0.83488735537E+02  0.10000000000E+01 0.  0.
         21    1    1    2  502  501  0.20728850965E+02 -0.99181160087E+01 -0.12310182550E+01  0.23012381307E+02  0.00000000000E+00 0. -1.
<mgrwt>
<rscale>  1 0.12709399E+03</rscale>
<asrwt>0</asrwt>
<pdfrwt beam="1">  1        4 0.26715832E-01 0.12709399E+03</pdfrwt>
<pdfrwt beam="2">  1       -4 0.56818849E-02 0.12709399E+03</pdfrwt>
<totfact> 0.41347368E+03</totfact>
</mgrwt>
</event>
<event>
 6    4  0.2103460E-003  0.1475329E+03  0.7818608E-02  0.1203538E+00
          4   -1    0    0  502    0  0.00000000000E+00  0.00000000000E+00  0.34674681787E+03  0.34674914362E+03  0.12700000000E+01 0.  1.
         -4   -1    0    0    0  501 -0.00000000000E+00 -0.00000000000E+00 -0.42095045422E+02  0.42114198901E+02  0.12700000000E+01 0.  1.
         25    2    1    2    0    0  0.35856776354E+02  0.69681359350E+02  0.12689075693E+03  0.19459502579E+03  0.12499903845E+03 0.  0.
    9000005    1    3    3    0    0  0.33676303911E+02 -0.29582134906E+02  0.21250919371E+02  0.49616506576E+02  0.10000000000E+01 0.  0.
    9000005    1    3    3    0    0  0.21804724437E+01  0.99263494256E+02  0.10563983756E+03  0.14497851921E+03  0.10000000000E+01 0.  0.
         21    1    1    2  502  501 -0.35856776354E+02 -0.69681359350E+02  0.17776101551E+03  0.19426831674E+03  0.00000000000E+00 0.  1.
<mgrwt>
<rscale>  1 0.14753291E+03</rscale>
<asrwt>0</asrwt>
<pdfrwt beam="1">  1        4 0.53347315E-01 0.14753291E+03</pdfrwt>
<pdfrwt beam="2">  1       -4 0.64778132E-02 0.14753291E+03</pdfrwt>
<totfact> 0.89372384E+02</totfact>
</mgrwt>
</event>
<event>
 6    4  0.2103460E-003  0.1270255E+03  0.7818608E-02  0.1231937E+00
         -4   -1    0    0    0  501 -0.00000000000E+00  0.00000000000E+00  0.18354276162E+02  0.18398161686E+02  0.12700000000E+01 0.  1.
          4   -1    0    0  502    0  0.00000000000E+00 -0.00000000000E+00 -0.39916293543E+03  0.39916495578E+03  0.12700000000E+01 0.  1.
         25    2    1    2    0    0  0.20648236334E+01 -0.22516548712E+02 -0.37235135379E+03  0.39342218794E+03  0.12499691527E+03 0.  0.
    9000005    1    3    3    0    0 -0.41811409480E+01 -0.64067419792E+02 -0.31953876396E+03  0.32592658359E+03  0.10000000000E+01 0.  0.
    9000005    1    3    3    0    0  0.62459645814E+01  0.41550871080E+02 -0.52812589830E+02  0.67495604342E+02  0.10000000000E+01 0.  0.
         21    1    1    2  502  501 -0.20648236334E+01  0.22516548712E+02 -0.84573054758E+01  0.24140929527E+02  0.00000000000E+00 0.  1.
<mgrwt>
<rscale>  1 0.12702554E+03</rscale>
<asrwt>0</asrwt>
<pdfrwt beam="2">  1        4 0.61413207E-01 0.12702554E+03</pdfrwt>
<pdfrwt beam="1">  1       -4 0.28272663E-02 0.12702554E+03</pdfrwt>
<totfact> 0.24221752E+03</totfact>
</mgrwt>
</event>
<event>
 6    4  0.2103460E-003  0.1267619E+03  0.7818608E-02  0.1232341E+00
          4   -1    0    0  502    0  0.00000000000E+00  0.00000000000E+00  0.19448035292E+02  0.19489458092E+02  0.12700000000E+01 0. -1.
         -4   -1    0    0    0  501 -0.00000000000E+00 -0.00000000000E+00 -0.31354899341E+03  0.31355156540E+03  0.12700000000E+01 0. -1.
         25    2    1    2    0    0 -0.92936986715E+01  0.18884095497E+02 -0.20132972125E+03  0.23791224611E+03  0.12500239314E+03 0.  0.
    9000005    1    3    3    0    0  0.21252803949E+02 -0.44879423085E+02 -0.48036327833E+02  0.69096549001E+02  0.10000000000E+01 0.  0.
    9000005    1    3    3    0    0 -0.30546502620E+02  0.63763518582E+02 -0.15329339342E+03  0.16881569711E+03  0.10000000000E+01 0.  0.
         21    1    1    2  502  501  0.92936986715E+01 -0.18884095497E+02 -0.92771236863E+02  0.95128777385E+02  0.00000000000E+00 0.  1.
<mgrwt>
<rscale>  1 0.12676190E+03</rscale>
<asrwt>0</asrwt>
<pdfrwt beam="1">  1        4 0.29953899E-02 0.12676190E+03</pdfrwt>
<pdfrwt beam="2">  1       -4 0.48241688E-01 0.12676190E+03</pdfrwt>
<totfact> 0.36398444E+03</totfact>
</mgrwt>
</event>
<event>
 6    4  0.2103460E-003  0.1284579E+03  0.7818608E-02  0.1229762E+00
          4   -1    0    0  502    0  0.00000000000E+00  0.00000000000E+00  0.55779667241E+02  0.55794123145E+02  0.12700000000E+01 0. -1.
         -4   -1    0    0    0  501 -0.00000000000E+00 -0.00000000000E+00 -0.28103712768E+03  0.28103999721E+03  0.12700000000E+01 0. -1.
         25    2    1    2    0    0  0.22777627976E+02  0.18946272061E+02 -0.20667274200E+02  0.13010984538E+03  0.12499461621E+03 0.  0.
    9000005    1    3    3    0    0 -0.26209023211E+02 -0.45746185716E+00 -0.59249544426E+02  0.64796841618E+02  0.10000000000E+01 0.  0.
    9000005    1    3    3    0    0  0.48986651187E+02  0.19403733918E+02  0.38582270226E+02  0.65313003761E+02  0.10000000000E+01 0.  0.
         21    1    1    2  502  501 -0.22777627976E+02 -0.18946272061E+02 -0.20459018624E+03  0.20672427498E+03  0.00000000000E+00 0. -1.
<mgrwt>
<rscale>  1 0.12845791E+03</rscale>
<asrwt>0</asrwt>
<pdfrwt beam="1">  1        4 0.85828201E-02 0.12845791E+03</pdfrwt>
<pdfrwt beam="2">  1       -4 0.43237813E-01 0.12845791E+03</pdfrwt>
<totfact> 0.83584587E+02</totfact>
</mgrwt>
</event>
<event>
 6    4  0.2103460E-003  0.1482087E+03  0.7818608E-02  0.1202692E+00
          4   -1    0    0  502    0  0.00000000000E+00  0.00000000000E+00  0.15267924180E+02  0.15320653013E+02  0.12700000000E+01 0. -1.
         -4   -1    0    0    0  501 -0.00000000000E+00 -0.00000000000E+00 -0.97899080462E+03  0.97899162838E+03  0.12700000000E+01 0. -1.
         25    2    1    2    0    0  0.76015400903E+02 -0.23629669124E+02 -0.78197325722E+03  0.79589446975E+03  0.12501651701E+03 0.  0.
    9000005    1    3    3    0    0  0.79234443829E+02  0.34511569652E+02 -0.54845710064E+03  0.55522548282E+03  0.10000000000E+01 0.  0.
    9000005    1    3    3    0    0 -0.32190429261E+01 -0.58141238776E+02 -0.23351615658E+03  0.24066898693E+03  0.10000000000E+01 0.  0.
         21    1    1    2  502  501 -0.76015400903E+02  0.23629669124E+02 -0.18174962322E+03  0.19841781165E+03  0.00000000000E+00 0. -1.
<mgrwt>
<rscale>  1 0.14820874E+03</rscale>
<asrwt>0</asrwt>
<pdfrwt beam="1">  1        4 0.23530316E-02 0.14820874E+03</pdfrwt>
<pdfrwt beam="2">  1       -4 0.15061804E+00 0.14820874E+03</pdfrwt>
<totfact> 0.42112034E+02</totfact>
</mgrwt>
</event>
<event>
 6    4  0.2103460E-003  0.1275995E+03  0.7818608E-02  0.1231062E+00
          4   -1    0    0  502    0  0.00000000000E+00  0.00000000000E+00  0.16620256088E+03  0.16620741302E+03  0.12700000000E+01 0. -1.
         -4   -1    0    0    0  501 -0.00000000000E+00 -0.00000000000E+00 -0.44659860493E+02  0.44677914447E+02  0.12700000000E+01 0. -1.
         25    2    1    2    0    0  0.98389486605E+00 -0.25611007862E+02  0.13164543867E+03  0.18333615155E+03  0.12499892467E+03 0.  0.
    9000005    1    3    3    0    0 -0.17987823635E+02 -0.50552769238E+02  0.61906131767E+01  0.54022846725E+02  0.10000000000E+01 0.  0.
    9000005    1    3    3    0    0  0.18971718501E+02  0.24941761376E+02  0.12545482550E+03  0.12931330482E+03  0.10000000000E+01 0.  0.
         21    1    1    2  502  501 -0.98389486605E+00  0.25611007862E+02 -0.10102738290E+02  0.27549175918E+02  0.00000000000E+00 0. -1.
<mgrwt>
<rscale>  1 0.12759946E+03</rscale>
<asrwt>0</asrwt>
<pdfrwt beam="1">  1        4 0.25571387E-01 0.12759946E+03</pdfrwt>
<pdfrwt beam="2">  1       -4 0.68725097E-02 0.12759946E+03</pdfrwt>
<totfact> 0.32935703E+03</totfact>
</mgrwt>
</event>
<event>
 6    4  0.2103460E-003  0.1469755E+03  0.7818608E-02  0.1204240E+00
          4   -1    0    0  502    0  0.00000000000E+00  0.00000000000E+00  0.30485158059E+03  0.30485422596E+03  0.12700000000E+01 0. -1.
         -4   -1    0    0    0  501 -0.00000000000E+00 -0.00000000000E+00 -0.60958743969E+02  0.60971971973E+02  0.12700000000E+01 0. -1.
         25    2    1    2    0    0  0.64692934195E+02 -0.42322085560E+02  0.24814180931E+03  0.28840276202E+03  0.12500184379E+03 0.  0.
    9000005    1    3    3    0    0  0.44516766325E+01 -0.77089524265E+02  0.13784552670E+03  0.15800316898E+03  0.10000000000E+01 0.  0.
    9000005    1    3    3    0    0  0.60241257563E+02  0.34767438705E+02  0.11029628260E+03  0.13039959303E+03  0.10000000000E+01 0.  0.
         21    1    1    2  502  501 -0.64692934195E+02  0.42322085560E+02 -0.42489726877E+01  0.77423435921E+02  0.00000000000E+00 0.  1.
<mgrwt>
<rscale>  1 0.14697549E+03</rscale>
<asrwt>0</asrwt>
<pdfrwt beam="1">  1        4 0.46901464E-01 0.14697549E+03</pdfrwt>
<pdfrwt beam="2">  1       -4 0.93794894E-02 0.14697549E+03</pdfrwt>
<totfact> 0.62902370E+02</totfact>
</mgrwt>
</event>
<event>
 6    4  0.2103460E-003  0.1269693E+03  0.7818608E-02  0.1232023E+00
         -4   -1    0    0    0  501 -0.00000000000E+00  0.00000000000E+00  0.24512359238E+03  0.24512688233E+03  0.12700000000E+01 0. -1.
          4   -1    0    0  502    0  0.00000000000E+00 -0.00000000000E+00 -0.22980146402E+02  0.23015212983E+02  0.12700000000E+01 0. -1.
         25    2    1    2    0    0 -0.18728225360E+02  0.12054984726E+02  0.17732882184E+03  0.21809791865E+03  0.12500048792E+03 0.  0.
    9000005    1    3    3    0    0  0.69685216839E+01 -0.47503835107E+02  0.12766011855E+03  0.13639384338E+03  0.10000000000E+01 0.  0.
    9000005    1    3    3    0    0 -0.25696747044E+02  0.59558819833E+02  0.49668703299E+02  0.81704075271E+02  0.10000000000E+01 0.  0.
         21    1    1    2  502  501  0.18728225360E+02 -0.12054984726E+02  0.44814624137E+02  0.50044176668E+02  0.00000000000E+00 0. -1.
<mgrwt>
<rscale>  1 0.12696925E+03</rscale>
<asrwt>0</asrwt>
<pdfrwt beam="2">  1        4 0.35383575E-02 0.12696925E+03</pdfrwt>
<pdfrwt beam="1">  1       -4 0.37714274E-01 0.12696925E+03</pdfrwt>
<totfact> 0.45690121E+03</totfact>
</mgrwt>
</event>
<event>
 6    4  0.2103460E-003  0.1278213E+03  0.7818608E-02  0.1230725E+00
         -4   -1    0    0    0  501 -0.00000000000E+00  0.00000000000E+00  0.47592140064E+03  0.47592309514E+03  0.12700000000E+01 0.  1.
          4   -1    0    0  502    0  0.00000000000E+00 -0.00000000000E+00 -0.14737624417E+02  0.14792243692E+02  0.12700000000E+01 0.  1.
         25    2    1    2    0    0  0.22263389232E+02 -0.14780879610E+02  0.43465633318E+03  0.45306114735E+03  0.12499656938E+03 0.  0.
    9000005    1    3    3    0    0  0.61147273753E+02 -0.17552628163E+02  0.38347334987E+03  0.38871569804E+03  0.10000000000E+01 0.  0.
    9000005    1    3    3    0    0 -0.38883884522E+02  0.27717485530E+01  0.51182983315E+02  0.64345449307E+02  0.10000000000E+01 0.  0.
         21    1    1    2  502  501 -0.22263389232E+02  0.14780879610E+02  0.26527443038E+02  0.37654191483E+02  0.00000000000E+00 0. -1.
<mgrwt>
<rscale>  1 0.12782126E+03</rscale>
<asrwt>0</asrwt>
<pdfrwt beam="2">  1        4 0.22716586E-02 0.12782126E+03</pdfrwt>
<pdfrwt beam="1">  1       -4 0.73223012E-01 0.12782126E+03</pdfrwt>
<totfact> 0.23392406E+03</totfact>
</mgrwt>
</event>
<event>
 6    4  0.2103460E-003  0.1330464E+03  0.7818608E-02  0.1223004E+00
         -4   -1    0    0    0  501 -0.00000000000E+00  0.00000000000E+00  0.12930353035E+03  0.12930976707E+03  0.12700000000E+01 0. -1.
          4   -1    0    0  502    0  0.00000000000E+00 -0.00000000000E+00 -0.64294518768E+02  0.64307060605E+02  0.12700000000E+01 0. -1.
         25    2    1    2    0    0 -0.42484932217E+02 -0.16467316361E+02  0.64946783926E+02  0.14805208423E+03  0.12500077171E+03 0.  0.
    9000005    1    3    3    0    0  0.30571545235E+02 -0.42177534648E+02  0.99123368075E+01  0.53036008787E+02  0.10000000000E+01 0.  0.
    9000005    1    3    3    0    0 -0.73056477452E+02  0.25710218287E+02  0.55034447119E+02  0.95016075438E+02  0.10000000000E+01 0.  0.
         21    1    1    2  502  501  0.42484932217E+02  0.16467316361E+02  0.62227653131E-01  0.45564743453E+02  0.00000000000E+00 0. -1.
<mgrwt>
<rscale>  1 0.13304636E+03</rscale>
<asrwt>0</asrwt>
<pdfrwt beam="2">  1        4 0.98929090E-02 0.13304636E+03</pdfrwt>
<pdfrwt beam="1">  1       -4 0.19894295E-01 0.13304636E+03</pdfrwt>
<totfact> 0.28721595E+03</totfact>
</mgrwt>
</event>
<event>
 6    4  0.2103460E-003  0.1275673E+03  0.7818608E-02  0.1231111E+00
         -4   -1    0    0    0  501 -0.00000000000E+00  0.00000000000E+00  0.30980021363E+03  0.30980281674E+03  0.12700000000E+01 0. -1.
          4   -1    0    0  502    0  0.00000000000E+00 -0.00000000000E+00 -0.20897680410E+02  0.20936235252E+02  0.12700000000E+01 0. -1.
         25    2    1    2    0    0  0.20541964361E+02  0.15056851126E+02  0.19177860910E+03  0.23033119523E+03  0.12499897408E+03 0.  0.
    9000005    1    3    3    0    0  0.62226508470E+02 -0.27346026995E+02  0.10727088080E+03  0.12699600551E+03  0.10000000000E+01 0.  0.
    9000005    1    3    3    0    0 -0.41684544109E+02  0.42402878121E+02  0.84507728303E+02  0.10333518972E+03  0.10000000000E+01 0.  0.
         21    1    1    2  502  501 -0.20541964361E+02 -0.15056851126E+02  0.97123924116E+02  0.10040785677E+03  0.00000000000E+00 0. -1.
<mgrwt>
<rscale>  1 0.12756733E+03</rscale>
<asrwt>0</asrwt>
<pdfrwt beam="2">  1        4 0.32181936E-02 0.12756733E+03</pdfrwt>
<pdfrwt beam="1">  1       -4 0.47664739E-01 0.12756733E+03</pdfrwt>
<totfact> 0.33380319E+03</totfact>
</mgrwt>
</event>
<event>
 6    4  0.2103460E-003  0.1269404E+03  0.7818608E-02  0.1232068E+00
         -4   -1    0    0    0  501 -0.00000000000E+00  0.00000000000E+00  0.19079066700E+03  0.19079489384E+03  0.12700000000E+01 0. -1.
          4   -1    0    0  502    0  0.00000000000E+00 -0.00000000000E+00 -0.32237273663E+02  0.32262280038E+02  0.12700000000E+01 0. -1.
         25    2    1    2    0    0  0.22034037197E+02 -0.16005702715E+01  0.10366997223E+03  0.16389425869E+03  0.12500321704E+03 0.  0.
    9000005    1    3    3    0    0 -0.18718067341E+02  0.40346680304E+02 -0.42593774353E+00  0.44490471783E+02  0.10000000000E+01 0.  0.
    9000005    1    3    3    0    0  0.40752104538E+02 -0.41947250576E+02  0.10409590997E+03  0.11940378691E+03  0.10000000000E+01 0.  0.
         21    1    1    2  502  501 -0.22034037197E+02  0.16005702715E+01  0.54883421115E+02  0.59162915189E+02  0.00000000000E+00 0.  1.
<mgrwt>
<rscale>  1 0.12694040E+03</rscale>
<asrwt>0</asrwt>
<pdfrwt beam="2">  1        4 0.49618293E-02 0.12694040E+03</pdfrwt>
<pdfrwt beam="1">  1       -4 0.29354659E-01 0.12694040E+03</pdfrwt>
<totfact> 0.43113485E+03</totfact>
</mgrwt>
</event>
<event>
 6    4  0.2103460E-003  0.1331702E+03  0.7818608E-02  0.1222826E+00
          4   -1    0    0  502    0  0.00000000000E+00  0.00000000000E+00  0.29359921389E+02  0.29387376269E+02  0.12700000000E+01 0. -1.
         -4   -1    0    0    0  501 -0.00000000000E+00 -0.00000000000E+00 -0.42714408759E+03  0.42714597559E+03  0.12700000000E+01 0. -1.
         25    2    1    2    0    0  0.40762216947E+02  0.21149184663E+02 -0.13449785094E+03  0.18927218718E+03  0.12500177035E+03 0.  0.
    9000005    1    3    3    0    0 -0.36938374181E+02  0.18891266152E+02 -0.10315476640E+02  0.42763681814E+02  0.10000000000E+01 0.  0.
    9000005    1    3    3    0    0  0.77700591129E+02  0.22579185113E+01 -0.12418237430E+03  0.14650850536E+03  0.10000000000E+01 0.  0.
         21    1    1    2  502  501 -0.40762216947E+02 -0.21149184663E+02 -0.26328631527E+03  0.26726116469E+03  0.00000000000E+00 0. -1.
<mgrwt>
<rscale>  1 0.13317015E+03</rscale>
<asrwt>0</asrwt>
<pdfrwt beam="1">  1        4 0.45191684E-02 0.13317015E+03</pdfrwt>
<pdfrwt beam="2">  1       -4 0.65716728E-01 0.13317015E+03</pdfrwt>
<totfact> 0.10115944E+03</totfact>
</mgrwt>
</event>
<event>
 6    4  0.2103460E-003  0.1302034E+03  0.7818608E-02  0.1227154E+00
          4   -1    0    0  502    0  0.00000000000E+00  0.00000000000E+00  0.40648475883E+03  0.40648674279E+03  0.12700000000E+01 0.  1.
         -4   -1    0    0    0  501 -0.00000000000E+00 -0.00000000000E+00 -0.39208223520E+02  0.39228786517E+02  0.12700000000E+01 0.  1.
         25    2    1    2    0    0 -0.27915876458E+02 -0.23372581509E+02  0.38412905818E+03  0.40559594242E+03  0.12500944545E+03 0.  0.
    9000005    1    3    3    0    0  0.24744253922E+02 -0.57219426878E+02  0.24869051288E+03  0.25638703577E+03  0.10000000000E+01 0.  0.
    9000005    1    3    3    0    0 -0.52660130380E+02  0.33846845368E+02  0.13543854529E+03  0.14920890665E+03  0.10000000000E+01 0.  0.
         21    1    1    2  502  501  0.27915876458E+02  0.23372581509E+02 -0.16852522862E+02  0.40119586883E+02  0.00000000000E+00 0.  1.
<mgrwt>
<rscale>  1 0.13020344E+03</rscale>
<asrwt>0</asrwt>
<pdfrwt beam="1">  1        4 0.62537851E-01 0.13020344E+03</pdfrwt>
<pdfrwt beam="2">  1       -4 0.60337688E-02 0.13020344E+03</pdfrwt>
<totfact> 0.70217624E+02</totfact>
</mgrwt>
</event>
<event>
 6    4  0.2103460E-003  0.1284554E+03  0.7818608E-02  0.1229766E+00
         -4   -1    0    0    0  501 -0.00000000000E+00  0.00000000000E+00  0.66909546149E+01  0.68104165554E+01  0.12700000000E+01 0. -1.
          4   -1    0    0  502    0  0.00000000000E+00 -0.00000000000E+00 -0.93361916760E+03  0.93362003139E+03  0.12700000000E+01 0. -1.
         25    2    1    2    0    0 -0.29422499420E+02 -0.31566210363E+01 -0.71517473167E+03  0.72661935240E+03  0.12500055494E+03 0.  0.
    9000005    1    3    3    0    0  0.16912540000E+02  0.36761287519E+02 -0.92767955512E+02  0.10121422745E+03  0.10000000000E+01 0.  0.
    9000005    1    3    3    0    0 -0.46335039420E+02 -0.39917908555E+02 -0.62240677615E+03  0.62540512494E+03  0.10000000000E+01 0.  0.
         21    1    1    2  502  501  0.29422499420E+02  0.31566210363E+01 -0.21175348132E+03  0.21381109555E+03  0.00000000000E+00 0.  1.
<mgrwt>
<rscale>  1 0.12845539E+03</rscale>
<asrwt>0</asrwt>
<pdfrwt beam="2">  1        4 0.14364287E+00 0.12845539E+03</pdfrwt>
<pdfrwt beam="1">  1       -4 0.10386342E-02 0.12845539E+03</pdfrwt>
<totfact> 0.16112690E+03</totfact>
</mgrwt>
</event>
<event>
 6    4  0.2103460E-003  0.1433635E+03  0.7818608E-02  0.1208873E+00
         -4   -1    0    0    0  501 -0.00000000000E+00  0.00000000000E+00  0.65218598922E+02  0.65230963087E+02  0.12700000000E+01 0.  1.
          4   -1    0    0  502    0  0.00000000000E+00 -0.00000000000E+00 -0.18292591342E+03  0.18293032198E+03  0.12700000000E+01 0.  1.
         25    2    1    2    0    0 -0.18056157933E+02 -0.67840809149E+02 -0.10275228922E+03  0.17638348205E+03  0.12499879829E+03 0.  0.
    9000005    1    3    3    0    0 -0.37359092711E+02  0.22202538434E+02 -0.61889482005E+02  0.75630433715E+02  0.10000000000E+01 0.  0.
    9000005    1    3    3    0    0  0.19302934778E+02 -0.90043347583E+02 -0.40862807213E+02  0.10075304833E+03  0.10000000000E+01 0.  0.
         21    1    1    2  502  501  0.18056157933E+02  0.67840809149E+02 -0.14955025277E+02  0.71777803020E+02  0.00000000000E+00 0. -1.
<mgrwt>
<rscale>  1 0.14336352E+03</rscale>
<asrwt>0</asrwt>
<pdfrwt beam="2">  1        4 0.28143738E-01 0.14336352E+03</pdfrwt>
<pdfrwt beam="1">  1       -4 0.10034921E-01 0.14336352E+03</pdfrwt>
<totfact> 0.15081120E+03</totfact>
</mgrwt>
</event>
<event>
 6    4  0.2103460E-003  0.1376654E+03  0.7818608E-02  0.1216505E+00
          4   -1    0    0  502    0  0.00000000000E+00  0.00000000000E+00  0.11453477920E+04  0.11453484961E+04  0.12700000000E+01 0.  1.
         -4   -1    0    0    0  501 -0.00000000000E+00 -0.00000000000E+00 -0.87629658787E+01  0.88545169824E+01  0.12700000000E+01 0.  1.
         25    2    1    2    0    0 -0.21247137932E+02 -0.53628085246E+02  0.91184525092E+03  0.92217868450E+03  0.12499740845E+03 0.  0.
    9000005    1    3    3    0    0 -0.72616888684E+01 -0.93540254752E+02  0.68833073786E+03  0.69469613218E+03  0.10000000000E+01 0.  0.
    9000005    1    3    3    0    0 -0.13985449064E+02  0.39912169506E+02  0.22351451306E+03  0.22748255232E+03  0.10000000000E+01 0.  0.
         21    1    1    2  502  501  0.21247137932E+02  0.53628085246E+02  0.22473957519E+03  0.23202432859E+03  0.00000000000E+00 0.  1.
<mgrwt>
<rscale>  1 0.13766541E+03</rscale>
<asrwt>0</asrwt>
<pdfrwt beam="1">  1        4 0.17621433E+00 0.13766541E+03</pdfrwt>
<pdfrwt beam="2">  1       -4 0.13552461E-02 0.13766541E+03</pdfrwt>
<totfact> 0.64226577E+02</totfact>
</mgrwt>
</event>
<event>
 6    4  0.2103460E-003  0.1270139E+03  0.7818608E-02  0.1231955E+00
         -4   -1    0    0    0  501 -0.00000000000E+00  0.00000000000E+00  0.41174135780E+02  0.41193717448E+02  0.12700000000E+01 0. -1.
          4   -1    0    0  502    0  0.00000000000E+00 -0.00000000000E+00 -0.14348081990E+03  0.14348644040E+03  0.12700000000E+01 0. -1.
         25    2    1    2    0    0  0.21681438793E+02 -0.61101091508E+01 -0.10071352694E+03  0.16209794423E+03  0.12500044318E+03 0.  0.
    9000005    1    3    3    0    0  0.66132653867E+02  0.22182036530E+02 -0.35568315164E+02  0.78305017053E+02  0.10000000000E+01 0.  0.
    9000005    1    3    3    0    0 -0.44451215074E+02 -0.28292145681E+02 -0.65145211772E+02  0.83792927181E+02  0.10000000000E+01 0.  0.
         21    1    1    2  502  501 -0.21681438793E+02  0.61101091508E+01 -0.15931571833E+01  0.22582213615E+02  0.00000000000E+00 0. -1.
<mgrwt>
<rscale>  1 0.12701389E+03</rscale>
<asrwt>0</asrwt>
<pdfrwt beam="2">  1        4 0.22075911E-01 0.12701389E+03</pdfrwt>
<pdfrwt beam="1">  1       -4 0.63364211E-02 0.12701389E+03</pdfrwt>
<totfact> 0.49175650E+03</totfact>
</mgrwt>
</event>
<event>
 6    4  0.2103460E-003  0.1272383E+03  0.7818608E-02  0.1231612E+00
          4   -1    0    0  502    0  0.00000000000E+00  0.00000000000E+00  0.18706550005E+02  0.18749611012E+02  0.12700000000E+01 0. -1.
         -4   -1    0    0    0  501 -0.00000000000E+00 -0.00000000000E+00 -0.10649167053E+04  0.10649174626E+04  0.12700000000E+01 0. -1.
         25    2    1    2    0    0 -0.18023401907E+02  0.15468607343E+02 -0.19948626915E+03  0.23661013325E+03  0.12500185098E+03 0.  0.
    9000005    1    3    3    0    0 -0.50940344231E+02 -0.26456891072E+02 -0.44279311571E+02  0.72502021963E+02  0.10000000000E+01 0.  0.
    9000005    1    3    3    0    0  0.32916942324E+02  0.41925498415E+02 -0.15520695758E+03  0.16410811129E+03  0.10000000000E+01 0.  0.
         21    1    1    2  502  501  0.18023401907E+02 -0.15468607343E+02 -0.84672388611E+03  0.84705694031E+03  0.00000000000E+00 0. -1.
<mgrwt>
<rscale>  1 0.12723829E+03</rscale>
<asrwt>0</asrwt>
<pdfrwt beam="1">  1        4 0.28813022E-02 0.12723829E+03</pdfrwt>
<pdfrwt beam="2">  1       -4 0.16383666E+00 0.12723829E+03</pdfrwt>
<totfact> 0.24061388E+02</totfact>
</mgrwt>
</event>
<event>
 6    4  0.2103460E-003  0.1268192E+03  0.7818608E-02  0.1232253E+00
          4   -1    0    0  502    0  0.00000000000E+00  0.00000000000E+00  0.45284896366E+02  0.45302701232E+02  0.12700000000E+01 0. -1.
         -4   -1    0    0    0  501 -0.00000000000E+00 -0.00000000000E+00 -0.15157481644E+03  0.15158013683E+03  0.12700000000E+01 0. -1.
         25    2    1    2    0    0 -0.20352750878E+02 -0.65913234946E+01 -0.49395796998E+02  0.13609944185E+03  0.12500173317E+03 0.  0.
    9000005    1    3    3    0    0 -0.86521854503E-01 -0.26085865465E+02 -0.86031498411E+02  0.89904941922E+02  0.10000000000E+01 0.  0.
    9000005    1    3    3    0    0 -0.20266229023E+02  0.19494541971E+02  0.36635701413E+02  0.46194499927E+02  0.10000000000E+01 0.  0.
         21    1    1    2  502  501  0.20352750878E+02  0.65913234946E+01 -0.56894123079E+02  0.60783396209E+02  0.00000000000E+00 0. -1.
<mgrwt>
<rscale>  1 0.12681922E+03</rscale>
<asrwt>0</asrwt>
<pdfrwt beam="1">  1        4 0.69686861E-02 0.12681922E+03</pdfrwt>
<pdfrwt beam="2">  1       -4 0.23320981E-01 0.12681922E+03</pdfrwt>
<totfact> 0.38078317E+03</totfact>
</mgrwt>
</event>
<event>
 6    4  0.2103460E-003  0.1286204E+03  0.7818608E-02  0.1229517E+00
         -4   -1    0    0    0  501 -0.00000000000E+00  0.00000000000E+00  0.20764775076E+02  0.20803576230E+02  0.12700000000E+01 0. -1.
          4   -1    0    0  502    0  0.00000000000E+00 -0.00000000000E+00 -0.38195851343E+03  0.38196062478E+03  0.12700000000E+01 0. -1.
         25    2    1    2    0    0  0.16673739073E+02 -0.25247926118E+02 -0.34553162981E+03  0.36869408225E+03  0.12501099048E+03 0.  0.
    9000005    1    3    3    0    0 -0.92302314040E+01 -0.37782383960E+02 -0.33617290542E+03  0.33841679634E+03  0.10000000000E+01 0.  0.
    9000005    1    3    3    0    0  0.25903970477E+02  0.12534457842E+02 -0.93587243909E+01  0.30277285910E+02  0.10000000000E+01 0.  0.
         21    1    1    2  502  501 -0.16673739073E+02  0.25247926118E+02 -0.15662108542E+02  0.34070118754E+02  0.00000000000E+00 0. -1.
<mgrwt>
<rscale>  1 0.12862045E+03</rscale>
<asrwt>0</asrwt>
<pdfrwt beam="2">  1        4 0.58765990E-01 0.12862045E+03</pdfrwt>
<pdfrwt beam="1">  1       -4 0.31977282E-02 0.12862045E+03</pdfrwt>
<totfact> 0.21975837E+03</totfact>
</mgrwt>
</event>
<event>
 6    4  0.2103460E-003  0.1344913E+03  0.7818608E-02  0.1220940E+00
         -4   -1    0    0    0  501 -0.00000000000E+00  0.00000000000E+00  0.10670053193E+02  0.10745368078E+02  0.12700000000E+01 0.  1.
          4   -1    0    0  502    0  0.00000000000E+00 -0.00000000000E+00 -0.12335420874E+04  0.12335427411E+04  0.12700000000E+01 0.  1.
         25    2    1    2    0    0  0.24622891861E+02  0.43086109337E+02 -0.11384051087E+04  0.11463219869E+04  0.12500082604E+03 0.  0.
    9000005    1    3    3    0    0  0.14787560434E+02 -0.36961831980E+02 -0.65709850029E+03  0.65830409998E+03  0.10000000000E+01 0.  0.
    9000005    1    3    3    0    0  0.98353314269E+01  0.80047941317E+02 -0.48130660844E+03  0.48801788695E+03  0.10000000000E+01 0.  0.
         21    1    1    2  502  501 -0.24622891861E+02 -0.43086109337E+02 -0.84466925438E+02  0.97966122279E+02  0.00000000000E+00 0.  1.
<mgrwt>
<rscale>  1 0.13449129E+03</rscale>
<asrwt>0</asrwt>
<pdfrwt beam="2">  1        4 0.18978144E+00 0.13449129E+03</pdfrwt>
<pdfrwt beam="1">  1       -4 0.16473914E-02 0.13449129E+03</pdfrwt>
<totfact> 0.38755609E+02</totfact>
</mgrwt>
</event>
<event>
 6    4  0.2103460E-003  0.1300375E+03  0.7818608E-02  0.1227400E+00
          4   -1    0    0  502    0  0.00000000000E+00  0.00000000000E+00  0.44544488201E+02  0.44562588896E+02  0.12700000000E+01 0. -1.
         -4   -1    0    0    0  501 -0.00000000000E+00 -0.00000000000E+00 -0.16562859973E+03  0.16563346868E+03  0.12700000000E+01 0. -1.
         25    2    1    2    0    0  0.88327071079E+01 -0.34736673756E+02 -0.69679497199E+02  0.14752957856E+03  0.12500036401E+03 0.  0.
    9000005    1    3    3    0    0  0.37213890315E+02 -0.10773431670E+02  0.24796607532E+02  0.46008827495E+02  0.10000000000E+01 0.  0.
    9000005    1    3    3    0    0 -0.28381183208E+02 -0.23963242086E+02 -0.94476104732E+02  0.10152075107E+03  0.10000000000E+01 0.  0.
         21    1    1    2  502  501 -0.88327071079E+01  0.34736673756E+02 -0.51404614329E+02  0.62666479020E+02  0.00000000000E+00 0.  1.
<mgrwt>
<rscale>  1 0.13003747E+03</rscale>
<asrwt>0</asrwt>
<pdfrwt beam="1">  1        4 0.68547652E-02 0.13003747E+03</pdfrwt>
<pdfrwt beam="2">  1       -4 0.25483090E-01 0.13003747E+03</pdfrwt>
<totfact> 0.33441165E+03</totfact>
</mgrwt>
</event>
<event>
 6    4  0.2103460E-003  0.1298062E+03  0.7818608E-02  0.1227744E+00
          4   -1    0    0  502    0  0.00000000000E+00  0.00000000000E+00  0.78401687459E+02  0.78411972915E+02  0.12700000000E+01 0.  1.
         -4   -1    0    0    0  501 -0.00000000000E+00 -0.00000000000E+00 -0.14210517689E+03  0.14211085180E+03  0.12700000000E+01 0.  1.
         25    2    1    2    0    0  0.27275864696E+02 -0.21926111934E+02  0.18558493424E+02  0.13112617487E+03  0.12499971552E+03 0.  0.
    9000005    1    3    3    0    0  0.70759090207E+02  0.27606346770E+01  0.34308225830E+02  0.78692593745E+02  0.10000000000E+01 0.  0.
    9000005    1    3    3    0    0 -0.43483225511E+02 -0.24686746611E+02 -0.15749732406E+02  0.52433581128E+02  0.10000000000E+01 0.  0.
         21    1    1    2  502  501 -0.27275864696E+02  0.21926111934E+02 -0.82261982852E+02  0.89396649838E+02  0.00000000000E+00 0.  1.
<mgrwt>
<rscale>  1 0.12980623E+03</rscale>
<asrwt>0</asrwt>
<pdfrwt beam="1">  1        4 0.12063026E-01 0.12980623E+03</pdfrwt>
<pdfrwt beam="2">  1       -4 0.21863563E-01 0.12980623E+03</pdfrwt>
<totfact> 0.17202921E+03</totfact>
</mgrwt>
</event>
<event>
 6    4  0.2103460E-003  0.1266495E+03  0.7818608E-02  0.1232514E+00
         -4   -1    0    0    0  501 -0.00000000000E+00  0.00000000000E+00  0.15220089378E+03  0.15220619228E+03  0.12700000000E+01 0. -1.
          4   -1    0    0  502    0  0.00000000000E+00 -0.00000000000E+00 -0.37319794954E+02  0.37341397877E+02  0.12700000000E+01 0. -1.
         25    2    1    2    0    0 -0.26940832562E+01  0.20210631284E+02  0.82065077566E+02  0.15091316311E+03  0.12499751255E+03 0.  0.
    9000005    1    3    3    0    0  0.57700119172E+02  0.24373388916E+02  0.24181764764E+02  0.67150008092E+02  0.10000000000E+01 0.  0.
    9000005    1    3    3    0    0 -0.60394202428E+02 -0.41627576318E+01  0.57883312802E+02  0.83763155020E+02  0.10000000000E+01 0.  0.
         21    1    1    2  502  501  0.26940832562E+01 -0.20210631284E+02  0.32816021261E+02  0.38634427043E+02  0.00000000000E+00 0. -1.
<mgrwt>
<rscale>  1 0.12664954E+03</rscale>
<asrwt>0</asrwt>
<pdfrwt beam="2">  1        4 0.57435763E-02 0.12664954E+03</pdfrwt>
<pdfrwt beam="1">  1       -4 0.23417591E-01 0.12664954E+03</pdfrwt>
<totfact> 0.51759069E+03</totfact>
</mgrwt>
</event>
<event>
 6    4  0.2103460E-003  0.1339260E+03  0.7818608E-02  0.1221744E+00
          4   -1    0    0  502    0  0.00000000000E+00  0.00000000000E+00  0.28728643780E+03  0.28728924492E+03  0.12700000000E+01 0.  1.
         -4   -1    0    0    0  501 -0.00000000000E+00 -0.00000000000E+00 -0.29031496058E+02  0.29059261232E+02  0.12700000000E+01 0.  1.
         25    2    1    2    0    0  0.43608120142E+02  0.20227320901E+02  0.17729890512E+03  0.22219601006E+03  0.12500140991E+03 0.  0.
    9000005    1    3    3    0    0 -0.56298529153E+01  0.34497467912E+02 -0.26657541644E+01  0.35069599106E+02  0.10000000000E+01 0.  0.
    9000005    1    3    3    0    0  0.49237973057E+02 -0.14270147011E+02  0.17996465928E+03  0.18712641096E+03  0.10000000000E+01 0.  0.
         21    1    1    2  502  501 -0.43608120142E+02 -0.20227320901E+02  0.80956036626E+02  0.94152496087E+02  0.00000000000E+00 0.  1.
<mgrwt>
<rscale>  1 0.13392597E+03</rscale>
<asrwt>0</asrwt>
<pdfrwt beam="1">  1        4 0.44200265E-01 0.13392597E+03</pdfrwt>
<pdfrwt beam="2">  1       -4 0.44687358E-02 0.13392597E+03</pdfrwt>
<totfact> 0.23367362E+03</totfact>
</mgrwt>
</event>
<event>
 6    4  0.2103460E-003  0.1299189E+03  0.7818608E-02  0.1227576E+00
          4   -1    0    0  502    0  0.00000000000E+00  0.00000000000E+00  0.16226623005E+02  0.16276246316E+02  0.12700000000E+01 0.  1.
         -4   -1    0    0    0  501 -0.00000000000E+00 -0.00000000000E+00 -0.44168358367E+03  0.44168540952E+03  0.12700000000E+01 0.  1.
         25    2    1    2    0    0  0.15758310108E+01 -0.35359185251E+02 -0.28672535641E+03  0.31478619270E+03  0.12500464744E+03 0.  0.
    9000005    1    3    3    0    0 -0.22532746818E+02  0.42383254412E+02 -0.93238439823E+02  0.10487359818E+03  0.10000000000E+01 0.  0.
    9000005    1    3    3    0    0  0.24108577829E+02 -0.77742439663E+02 -0.19348691659E+03  0.20991259453E+03  0.10000000000E+01 0.  0.
         21    1    1    2  502  501 -0.15758310108E+01  0.35359185251E+02 -0.13873160425E+03  0.14317546313E+03  0.00000000000E+00 0.  1.
<mgrwt>
<rscale>  1 0.12991889E+03</rscale>
<asrwt>0</asrwt>
<pdfrwt beam="1">  1        4 0.25003615E-02 0.12991889E+03</pdfrwt>
<pdfrwt beam="2">  1       -4 0.67955269E-01 0.12991889E+03</pdfrwt>
<totfact> 0.23777350E+03</totfact>
</mgrwt>
</event>
<event>
 6    4  0.2103460E-003  0.1401978E+03  0.7818608E-02  0.1213063E+00
         -4   -1    0    0    0  501 -0.00000000000E+00  0.00000000000E+00  0.14197879625E+03  0.14198447621E+03  0.12700000000E+01 0. -1.
          4   -1    0    0  502    0  0.00000000000E+00 -0.00000000000E+00 -0.13825998420E+03  0.13826581693E+03  0.12700000000E+01 0. -1.
         25    2    1    2    0    0 -0.33798549932E+02 -0.53734984133E+02 -0.90333131770E+02  0.16677977436E+03  0.12500251174E+03 0.  0.
    9000005    1    3    3    0    0  0.17287656620E+02 -0.26051153963E+02 -0.10270557056E+03  0.10736368062E+03  0.10000000000E+01 0.  0.
    9000005    1    3    3    0    0 -0.51086206552E+02 -0.27683830170E+02  0.12372438785E+02  0.59416093731E+02  0.10000000000E+01 0.  0.
         21    1    1    2  502  501  0.33798549932E+02  0.53734984133E+02  0.94051943815E+02  0.11347051878E+03  0.00000000000E+00 0. -1.
<mgrwt>
<rscale>  1 0.14019778E+03</rscale>
<asrwt>0</asrwt>
<pdfrwt beam="2">  1        4 0.21271652E-01 0.14019778E+03</pdfrwt>
<pdfrwt beam="1">  1       -4 0.21843777E-01 0.14019778E+03</pdfrwt>
<totfact> 0.64587512E+02</totfact>
</mgrwt>
</event>
<event>
 6    4  0.2103460E-003  0.1290967E+03  0.7818608E-02  0.1228802E+00
          4   -1    0    0  502    0  0.00000000000E+00  0.00000000000E+00  0.22977181628E+02  0.23012252727E+02  0.12700000000E+01 0. -1.
         -4   -1    0    0    0  501 -0.00000000000E+00 -0.00000000000E+00 -0.37843111632E+03  0.37843324735E+03  0.12700000000E+01 0. -1.
         25    2    1    2    0    0  0.26373980238E+02 -0.18586069558E+02 -0.17136550877E+03  0.21455093790E+03  0.12499975416E+03 0.  0.
    9000005    1    3    3    0    0 -0.10129810722E+02  0.46194886548E+02 -0.33686078631E+02  0.58071787487E+02  0.10000000000E+01 0.  0.
    9000005    1    3    3    0    0  0.36503790960E+02 -0.64780956106E+02 -0.13767943014E+03  0.15647915041E+03  0.10000000000E+01 0.  0.
         21    1    1    2  502  501 -0.26373980238E+02  0.18586069558E+02 -0.18408842592E+03  0.18689456218E+03  0.00000000000E+00 0. -1.
<mgrwt>
<rscale>  1 0.12909674E+03</rscale>
<asrwt>0</asrwt>
<pdfrwt beam="1">  1        4 0.35378130E-02 0.12909674E+03</pdfrwt>
<pdfrwt beam="2">  1       -4 0.58223029E-01 0.12909674E+03</pdfrwt>
<totfact> 0.19128787E+03</totfact>
</mgrwt>
</event>
<event>
 6    4  0.2103460E-003  0.1287385E+03  0.7818608E-02  0.1229340E+00
          4   -1    0    0  502    0  0.00000000000E+00  0.00000000000E+00  0.11588355520E+04  0.11588362479E+04  0.12700000000E+01 0. -1.
         -4   -1    0    0    0  501 -0.00000000000E+00 -0.00000000000E+00 -0.57333328304E+01  0.58723083489E+01  0.12700000000E+01 0. -1.
         25    2    1    2    0    0  0.29829373639E+02 -0.76803790498E+01  0.10198036789E+04  0.10278974435E+04  0.12499932390E+03 0.  0.
    9000005    1    3    3    0    0 -0.46892382530E+02 -0.48419363189E+01  0.26155564732E+03  0.26577188815E+03  0.10000000000E+01 0.  0.
    9000005    1    3    3    0    0  0.76721756168E+02 -0.28384427309E+01  0.75824803162E+03  0.76212555533E+03  0.10000000000E+01 0.  0.
         21    1    1    2  502  501 -0.29829373639E+02  0.76803790498E+01  0.13329854024E+03  0.13681111279E+03  0.00000000000E+00 0. -1.
<mgrwt>
<rscale>  1 0.12873854E+03</rscale>
<asrwt>0</asrwt>
<pdfrwt beam="1">  1        4 0.17829350E+00 0.12873854E+03</pdfrwt>
<pdfrwt beam="2">  1       -4 0.89279336E-03 0.12873854E+03</pdfrwt>
<totfact> 0.11532211E+03</totfact>
</mgrwt>
</event>
<event>
 6    4  0.2103460E-003  0.1309228E+03  0.7818608E-02  0.1226093E+00
          4   -1    0    0  502    0  0.00000000000E+00  0.00000000000E+00  0.47745122064E+03  0.47745290971E+03  0.12700000000E+01 0.  1.
         -4   -1    0    0    0  501 -0.00000000000E+00 -0.00000000000E+00 -0.15818656903E+02  0.15869555955E+02  0.12700000000E+01 0.  1.
         25    2    1    2    0    0 -0.30043422445E+02  0.24739983102E+02  0.39528615269E+03  0.41640354566E+03  0.12500438525E+03 0.  0.
    9000005    1    3    3    0    0  0.23257192894E+02  0.42609195491E+02  0.63753646120E+02  0.80137182102E+02  0.10000000000E+01 0.  0.
    9000005    1    3    3    0    0 -0.53300615339E+02 -0.17869212389E+02  0.33153250657E+03  0.33626636356E+03  0.10000000000E+01 0.  0.
         21    1    1    2  502  501  0.30043422445E+02 -0.24739983102E+02  0.66346411043E+02  0.76918920003E+02  0.00000000000E+00 0.  1.
<mgrwt>
<rscale>  1 0.13092276E+03</rscale>
<asrwt>0</asrwt>
<pdfrwt beam="1">  1        4 0.73458071E-01 0.13092276E+03</pdfrwt>
<pdfrwt beam="2">  1       -4 0.24376850E-02 0.13092276E+03</pdfrwt>
<totfact> 0.20942699E+03</totfact>
</mgrwt>
</event>
<event>
 6    4  0.2103460E-003  0.1328404E+03  0.7818608E-02  0.1223301E+00
          4   -1    0    0  502    0  0.00000000000E+00  0.00000000000E+00  0.32660376303E+03  0.32660623222E+03  0.12700000000E+01 0.  1.
         -4   -1    0    0    0  501 -0.00000000000E+00 -0.00000000000E+00 -0.24220655758E+02  0.24253928864E+02  0.12700000000E+01 0.  1.
         25    2    1    2    0    0 -0.24877396445E+02 -0.37450734427E+02  0.23209974513E+03  0.26742639480E+03  0.12500057032E+03 0.  0.
    9000005    1    3    3    0    0  0.40232295884E+02 -0.52287237326E+02  0.11976473610E+03  0.13673764966E+03  0.10000000000E+01 0.  0.
    9000005    1    3    3    0    0 -0.65109692329E+02  0.14836502899E+02  0.11233500903E+03  0.13068874514E+03  0.10000000000E+01 0.  0.
         21    1    1    2  502  501  0.24877396445E+02  0.37450734427E+02  0.70283362139E+02  0.83433766286E+02  0.00000000000E+00 0.  1.
<mgrwt>
<rscale>  1 0.13284045E+03</rscale>
<asrwt>0</asrwt>
<pdfrwt beam="1">  1        4 0.50249482E-01 0.13284045E+03</pdfrwt>
<pdfrwt beam="2">  1       -4 0.37290041E-02 0.13284045E+03</pdfrwt>
<totfact> 0.24008116E+03</totfact>
</mgrwt>
</event>
<event>
 6    4  0.2103460E-003  0.1292417E+03  0.7818608E-02  0.1228585E+00
         -4   -1    0    0    0  501 -0.00000000000E+00  0.00000000000E+00  0.88611901925E+03  0.88611992935E+03  0.12700000000E+01 0.  1.
          4   -1    0    0  502    0  0.00000000000E+00 -0.00000000000E+00 -0.73576670811E+01  0.74664693716E+01  0.12700000000E+01 0.  1.
         25    2    1    2    0    0 -0.27609996881E+01  0.32720689289E+02  0.69541151606E+03  0.70731930815E+03  0.12500064153E+03 0.  0.
    9000005    1    3    3    0    0  0.30221662912E+02 -0.38911219237E+02  0.22404511319E+03  0.22940062039E+03  0.10000000000E+01 0.  0.
    9000005    1    3    3    0    0 -0.32982662600E+02  0.71631908527E+02  0.47136640287E+03  0.47791868776E+03  0.10000000000E+01 0.  0.
         21    1    1    2  502  501  0.27609996881E+01 -0.32720689289E+02  0.18334983611E+03  0.18626709057E+03  0.00000000000E+00 0.  1.
<mgrwt>
<rscale>  1 0.12924174E+03</rscale>
<asrwt>0</asrwt>
<pdfrwt beam="2">  1        4 0.11403880E-02 0.12924174E+03</pdfrwt>
<pdfrwt beam="1">  1       -4 0.13633446E+00 0.12924174E+03</pdfrwt>
<totfact> 0.15965266E+03</totfact>
</mgrwt>
</event>
<event>
 6    4  0.2103460E-003  0.1314203E+03  0.7818608E-02  0.1225363E+00
         -4   -1    0    0    0  501 -0.00000000000E+00  0.00000000000E+00  0.15887829280E+03  0.15888336862E+03  0.12700000000E+01 0. -1.
          4   -1    0    0  502    0  0.00000000000E+00 -0.00000000000E+00 -0.47035319020E+02  0.47052461523E+02  0.12700000000E+01 0. -1.
         25    2    1    2    0    0 -0.37762221547E+02 -0.14798404023E+02  0.94266799108E+02  0.16173288845E+03  0.12500527851E+03 0.  0.
    9000005    1    3    3    0    0 -0.16605943258E+02  0.43597283946E+02  0.87606124695E+02  0.99258821286E+02  0.10000000000E+01 0.  0.
    9000005    1    3    3    0    0 -0.21156278290E+02 -0.58395687970E+02  0.66606744131E+01  0.62474067165E+02  0.10000000000E+01 0.  0.
         21    1    1    2  502  501  0.37762221547E+02  0.14798404023E+02  0.17576174672E+02  0.44202941688E+02  0.00000000000E+00 0.  1.
<mgrwt>
<rscale>  1 0.13142031E+03</rscale>
<asrwt>0</asrwt>
<pdfrwt beam="2">  1        4 0.72379121E-02 0.13142031E+03</pdfrwt>
<pdfrwt beam="1">  1       -4 0.24444523E-01 0.13142031E+03</pdfrwt>
<totfact> 0.33110287E+03</totfact>
</mgrwt>
</event>
<event>
 6    4  0.2103460E-003  0.1271446E+03  0.7818608E-02  0.1231755E+00
         -4   -1    0    0    0  501 -0.00000000000E+00  0.00000000000E+00  0.81406515970E+03  0.81406615035E+03  0.12700000000E+01 0. -1.
          4   -1    0    0  502    0  0.00000000000E+00 -0.00000000000E+00 -0.94158150667E+01  0.95010774847E+01  0.12700000000E+01 0. -1.
         25    2    1    2    0    0  0.18207989003E+02 -0.14480638351E+02  0.43536793970E+03  0.45355374729E+03  0.12499815604E+03 0.  0.
    9000005    1    3    3    0    0  0.20579885975E+02 -0.64322064265E+02  0.33158966344E+03  0.33839852919E+03  0.10000000000E+01 0.  0.
    9000005    1    3    3    0    0 -0.23718969722E+01  0.49841425915E+02  0.10377827627E+03  0.11515521811E+03  0.10000000000E+01 0.  0.
         21    1    1    2  502  501 -0.18207989003E+02  0.14480638351E+02  0.36928140493E+03  0.37001348054E+03  0.00000000000E+00 0. -1.
<mgrwt>
<rscale>  1 0.12714464E+03</rscale>
<asrwt>0</asrwt>
<pdfrwt beam="2">  1        4 0.14552212E-02 0.12714464E+03</pdfrwt>
<pdfrwt beam="1">  1       -4 0.12524748E+00 0.12714464E+03</pdfrwt>
<totfact> 0.13528979E+03</totfact>
</mgrwt>
</event>
<event>
 6    4  0.2103460E-003  0.1274734E+03  0.7818608E-02  0.1231254E+00
          4   -1    0    0  502    0  0.00000000000E+00  0.00000000000E+00  0.12975868356E+03  0.12976489841E+03  0.12700000000E+01 0. -1.
         -4   -1    0    0    0  501 -0.00000000000E+00 -0.00000000000E+00 -0.48332824692E+02  0.48349507161E+02  0.12700000000E+01 0. -1.
         25    2    1    2    0    0  0.15907049121E+02  0.19250305866E+02  0.84524896616E+02  0.15295069116E+03  0.12500338912E+03 0.  0.
    9000005    1    3    3    0    0 -0.46245315152E+02  0.32062521484E+02  0.13849324032E+02  0.57960661086E+02  0.10000000000E+01 0.  0.
    9000005    1    3    3    0    0  0.62152364273E+02 -0.12812215618E+02  0.70675572584E+02  0.94990030076E+02  0.10000000000E+01 0.  0.
         21    1    1    2  502  501 -0.15907049121E+02 -0.19250305866E+02 -0.30990377516E+01  0.25163714405E+02  0.00000000000E+00 0.  1.
<mgrwt>
<rscale>  1 0.12747335E+03</rscale>
<asrwt>0</asrwt>
<pdfrwt beam="1">  1        4 0.19964635E-01 0.12747335E+03</pdfrwt>
<pdfrwt beam="2">  1       -4 0.74375806E-02 0.12747335E+03</pdfrwt>
<totfact> 0.45401464E+03</totfact>
</mgrwt>
</event>
<event>
 6    4  0.2103460E-003  0.1277665E+03  0.7818608E-02  0.1230808E+00
          4   -1    0    0  502    0  0.00000000000E+00  0.00000000000E+00  0.98357777832E+02  0.98365976639E+02  0.12700000000E+01 0. -1.
         -4   -1    0    0    0  501 -0.00000000000E+00 -0.00000000000E+00 -0.74791919678E+02  0.74802701482E+02  0.12700000000E+01 0. -1.
         25    2    1    2    0    0  0.18240243808E+02  0.19157008796E+02  0.48649045662E+02  0.13671509427E+03  0.12499835950E+03 0.  0.
    9000005    1    3    3    0    0  0.71254597211E+02  0.21892310779E+02  0.31369240165E+02  0.80879664462E+02  0.10000000000E+01 0.  0.
    9000005    1    3    3    0    0 -0.53014353403E+02 -0.27353019830E+01  0.17279805497E+02  0.55835429807E+02  0.10000000000E+01 0.  0.
         21    1    1    2  502  501 -0.18240243808E+02 -0.19157008796E+02 -0.25083187507E+02  0.36453583852E+02  0.00000000000E+00 0.  1.
<mgrwt>
<rscale>  1 0.12776653E+03</rscale>
<asrwt>0</asrwt>
<pdfrwt beam="1">  1        4 0.15133426E-01 0.12776653E+03</pdfrwt>
<pdfrwt beam="2">  1       -4 0.11507909E-01 0.12776653E+03</pdfrwt>
<totfact> 0.35738644E+03</totfact>
</mgrwt>
</event>
<event>
 6    4  0.2103460E-003  0.1289233E+03  0.7818608E-02  0.1229062E+00
          4   -1    0    0  502    0  0.00000000000E+00  0.00000000000E+00  0.59610781269E+02  0.59624308327E+02  0.12700000000E+01 0.  1.
         -4   -1    0    0    0  501 -0.00000000000E+00 -0.00000000000E+00 -0.11075419664E+03  0.11076147784E+03  0.12700000000E+01 0.  1.
         25    2    1    2    0    0 -0.29800427972E+02  0.10467818367E+02 -0.29972554104E+02  0.13236150320E+03  0.12499429107E+03 0.  0.
    9000005    1    3    3    0    0  0.18353777940E+02 -0.44336422955E+01 -0.67123007985E+02  0.69735332147E+02  0.10000000000E+01 0.  0.
    9000005    1    3    3    0    0 -0.48154205912E+02  0.14901460662E+02  0.37150453881E+02  0.62626171050E+02  0.10000000000E+01 0.  0.
         21    1    1    2  502  501  0.29800427972E+02 -0.10467818367E+02 -0.21170861271E+02  0.38024282973E+02  0.00000000000E+00 0.  1.
<mgrwt>
<rscale>  1 0.12892329E+03</rscale>
<asrwt>0</asrwt>
<pdfrwt beam="1">  1        4 0.91724900E-02 0.12892329E+03</pdfrwt>
<pdfrwt beam="2">  1       -4 0.17040708E-01 0.12892329E+03</pdfrwt>
<totfact> 0.42634066E+03</totfact>
</mgrwt>
</event>
<event>
 6    4  0.2103460E-003  0.1293797E+03  0.7818608E-02  0.1228379E+00
         -4   -1    0    0    0  501 -0.00000000000E+00  0.00000000000E+00  0.81773487143E+03  0.81773585763E+03  0.12700000000E+01 0. -1.
          4   -1    0    0  502    0  0.00000000000E+00 -0.00000000000E+00 -0.12466545273E+02  0.12531067434E+02  0.12700000000E+01 0. -1.
         25    2    1    2    0    0 -0.30844828577E+02 -0.12455806335E+02  0.33957792186E+03  0.36338995710E+03  0.12503017774E+03 0.  0.
    9000005    1    3    3    0    0  0.22175100767E+02 -0.56178724244E+02  0.17002747670E+03  0.18043870701E+03  0.10000000000E+01 0.  0.
    9000005    1    3    3    0    0 -0.53019929344E+02  0.43722917909E+02  0.16955044515E+03  0.18295125009E+03  0.10000000000E+01 0.  0.
         21    1    1    2  502  501  0.30844828577E+02  0.12455806335E+02  0.46569040430E+03  0.46687696797E+03  0.00000000000E+00 0. -1.
<mgrwt>
<rscale>  1 0.12937966E+03</rscale>
<asrwt>0</asrwt>
<pdfrwt beam="2">  1        4 0.19229696E-02 0.12937966E+03</pdfrwt>
<pdfrwt beam="1">  1       -4 0.12581037E+00 0.12937966E+03</pdfrwt>
<totfact> 0.87722307E+02</totfact>
</mgrwt>
</event>
<event>
 6    4  0.2103460E-003  0.1360218E+03  0.7818608E-02  0.1218784E+00
         -4   -1    0    0    0  501 -0.00000000000E+00  0.00000000000E+00  0.26110310529E+02  0.26141178549E+02  0.12700000000E+01 0. -1.
          4   -1    0    0  502    0  0.00000000000E+00 -0.00000000000E+00 -0.37942268232E+03  0.37942480778E+03  0.12700000000E+01 0. -1.
         25    2    1    2    0    0 -0.37300585564E+02 -0.38555539391E+02 -0.30250430878E+03  0.33167875761E+03  0.12499631241E+03 0.  0.
    9000005    1    3    3    0    0 -0.50077849983E+02 -0.74244864282E+02 -0.25857650733E+03  0.27364740283E+03  0.10000000000E+01 0.  0.
    9000005    1    3    3    0    0  0.12777264419E+02  0.35689324891E+02 -0.43927801446E+02  0.58031354776E+02  0.10000000000E+01 0.  0.
         21    1    1    2  502  501  0.37300585564E+02  0.38555539391E+02 -0.50808063006E+02  0.73887228717E+02  0.00000000000E+00 0. -1.
<mgrwt>
<rscale>  1 0.13602184E+03</rscale>
<asrwt>0</asrwt>
<pdfrwt beam="2">  1        4 0.58375255E-01 0.13602184E+03</pdfrwt>
<pdfrwt beam="1">  1       -4 0.40195091E-02 0.13602184E+03</pdfrwt>
<totfact> 0.15726740E+03</totfact>
</mgrwt>
</event>
<event>
 6    4  0.2103460E-003  0.1318032E+03  0.7818608E-02  0.1224804E+00
          4   -1    0    0  502    0  0.00000000000E+00  0.00000000000E+00  0.70043296609E+02  0.70054809255E+02  0.12700000000E+01 0. -1.
         -4   -1    0    0    0  501 -0.00000000000E+00 -0.00000000000E+00 -0.11409800382E+03  0.11410507165E+03  0.12700000000E+01 0. -1.
         25    2    1    2    0    0 -0.18816383409E+02 -0.37321399462E+02 -0.51863741847E+02  0.14164018942E+03  0.12500060959E+03 0.  0.
    9000005    1    3    3    0    0  0.25426169950E+02 -0.65695364074E+02 -0.54400689883E+02  0.89010145708E+02  0.10000000000E+01 0.  0.
    9000005    1    3    3    0    0 -0.44242553360E+02  0.28373964612E+02  0.25369480360E+01  0.52630043710E+02  0.10000000000E+01 0.  0.
         21    1    1    2  502  501  0.18816383409E+02  0.37321399462E+02  0.78090346318E+01  0.42519691489E+02  0.00000000000E+00 0. -1.
<mgrwt>
<rscale>  1 0.13180325E+03</rscale>
<asrwt>0</asrwt>
<pdfrwt beam="1">  1        4 0.10777321E-01 0.13180325E+03</pdfrwt>
<pdfrwt beam="2">  1       -4 0.17554968E-01 0.13180325E+03</pdfrwt>
<totfact> 0.31004202E+03</totfact>
</mgrwt>
</event>
<event>
 6    4  0.2103460E-003  0.1317738E+03  0.7818608E-02  0.1224847E+00
          4   -1    0    0  502    0  0.00000000000E+00  0.00000000000E+00  0.37710286362E+03  0.37710500216E+03  0.12700000000E+01 0.  1.
         -4   -1    0    0    0  501 -0.00000000000E+00 -0.00000000000E+00 -0.29400545467E+02  0.29427962447E+02  0.12700000000E+01 0.  1.
         25    2    1    2    0    0 -0.34885627524E-01  0.41698793669E+02  0.33930805282E+03  0.36399763457E+03  0.12500213059E+03 0.  0.
    9000005    1    3    3    0    0  0.33544489343E+02 -0.76249141177E+01  0.27148395276E+03  0.27365655243E+03  0.10000000000E+01 0.  0.
    9000005    1    3    3    0    0 -0.33579374971E+02  0.49323707787E+02  0.67824100065E+02  0.90341082144E+02  0.10000000000E+01 0.  0.
         21    1    1    2  502  501  0.34885627524E-01 -0.41698793669E+02  0.83942653292E+01  0.42535330032E+02  0.00000000000E+00 0.  1.
<mgrwt>
<rscale>  1 0.13177376E+03</rscale>
<asrwt>0</asrwt>
<pdfrwt beam="1">  1        4 0.58018095E-01 0.13177376E+03</pdfrwt>
<pdfrwt beam="2">  1       -4 0.45254346E-02 0.13177376E+03</pdfrwt>
<totfact> 0.13097876E+03</totfact>
</mgrwt>
</event>
<event>
 6    4  0.2103460E-003  0.1320700E+03  0.7818608E-02  0.1224416E+00
         -4   -1    0    0    0  501 -0.00000000000E+00  0.00000000000E+00  0.72187582813E+01  0.73296228501E+01  0.12700000000E+01 0. -1.
          4   -1    0    0  502    0  0.00000000000E+00 -0.00000000000E+00 -0.14170957807E+04  0.14170963498E+04  0.12700000000E+01 0. -1.
         25    2    1    2    0    0  0.41907730677E+02 -0.81146968147E+01 -0.12976771763E+04  0.13043805160E+04  0.12498148013E+03 0.  0.
    9000005    1    3    3    0    0  0.45392261728E+02 -0.38213022253E+02 -0.27849362243E+03  0.28474618563E+03  0.10000000000E+01 0.  0.
    9000005    1    3    3    0    0 -0.34845310505E+01  0.30098325439E+02 -0.10191835539E+04  0.10196343304E+04  0.10000000000E+01 0.  0.
         21    1    1    2  502  501 -0.41907730677E+02  0.81146968147E+01 -0.11219984608E+03  0.12004545662E+03  0.00000000000E+00 0.  1.
<mgrwt>
<rscale>  1 0.13206997E+03</rscale>
<asrwt>0</asrwt>
<pdfrwt beam="2">  1        4 0.21802309E+00 0.13206997E+03</pdfrwt>
<pdfrwt beam="1">  1       -4 0.11191511E-02 0.13206997E+03</pdfrwt>
<totfact> 0.46578824E+02</totfact>
</mgrwt>
</event>
<event>
 6    4  0.2103460E-003  0.1271224E+03  0.7818608E-02  0.1231789E+00
         -4   -1    0    0    0  501 -0.00000000000E+00  0.00000000000E+00  0.17961287643E+03  0.17961736631E+03  0.12700000000E+01 0.  1.
          4   -1    0    0  502    0  0.00000000000E+00 -0.00000000000E+00 -0.32537641055E+02  0.32562416763E+02  0.12700000000E+01 0.  1.
         25    2    1    2    0    0 -0.23096969425E+02 -0.15121832279E+01  0.10819794241E+03  0.16693378211E+03  0.12499734466E+03 0.  0.
    9000005    1    3    3    0    0 -0.38345843169E+02  0.43774769906E+02  0.11872032100E+02  0.59401846056E+02  0.10000000000E+01 0.  0.
    9000005    1    3    3    0    0  0.15248873744E+02 -0.45286953134E+02  0.96325910311E+02  0.10753193606E+03  0.10000000000E+01 0.  0.
         21    1    1    2  502  501  0.23096969425E+02  0.15121832279E+01  0.38877292966E+02  0.45246000963E+02  0.00000000000E+00 0.  1.
<mgrwt>
<rscale>  1 0.12712235E+03</rscale>
<asrwt>0</asrwt>
<pdfrwt beam="2">  1        4 0.50080421E-02 0.12712235E+03</pdfrwt>
<pdfrwt beam="1">  1       -4 0.27635001E-01 0.12712235E+03</pdfrwt>
<totfact> 0.47582930E+03</totfact>
</mgrwt>
</event>
<event>
 6    4  0.2103460E-003  0.1279831E+03  0.7818608E-02  0.1230479E+00
         -4   -1    0    0    0  501 -0.00000000000E+00  0.00000000000E+00  0.27554509441E+02  0.27583761356E+02  0.12700000000E+01 0.  1.
          4   -1    0    0  502    0  0.00000000000E+00 -0.00000000000E+00 -0.28443040991E+03  0.28443324522E+03  0.12700000000E+01 0.  1.
         25    2    1    2    0    0 -0.24786148024E+02 -0.12323307864E+02 -0.25370128142E+03  0.28415493097E+03  0.12495386170E+03 0.  0.
    9000005    1    3    3    0    0 -0.26416976871E+02 -0.64540840856E+02 -0.18591589826E+03  0.19856761577E+03  0.10000000000E+01 0.  0.
    9000005    1    3    3    0    0  0.16308288465E+01  0.52217532992E+02 -0.67785383157E+02  0.85587315206E+02  0.10000000000E+01 0.  0.
         21    1    1    2  502  501  0.24786148024E+02  0.12323307864E+02 -0.31746190575E+01  0.27862075600E+02  0.00000000000E+00 0.  1.
<mgrwt>
<rscale>  1 0.12798314E+03</rscale>
<asrwt>0</asrwt>
<pdfrwt beam="2">  1        4 0.43760991E-01 0.12798314E+03</pdfrwt>
<pdfrwt beam="1">  1       -4 0.42416237E-02 0.12798314E+03</pdfrwt>
<totfact> 0.25631403E+03</totfact>
</mgrwt>
</event>
<event>
 6    4  0.2103460E-003  0.1272602E+03  0.7818608E-02  0.1231579E+00
          4   -1    0    0  502    0  0.00000000000E+00  0.00000000000E+00  0.13557852149E+04  0.13557858098E+04  0.12700000000E+01 0.  1.
         -4   -1    0    0    0  501 -0.00000000000E+00 -0.00000000000E+00 -0.47355604468E+01  0.49029004421E+01  0.12700000000E+01 0.  1.
         25    2    1    2    0    0  0.12878859298E+02 -0.20068487294E+02  0.12653520740E+04  0.12717354388E+04  0.12500618307E+03 0.  0.
    9000005    1    3    3    0    0  0.63787616246E+02  0.90696108786E+01  0.49939948535E+03  0.50353943619E+03  0.10000000000E+01 0.  0.
    9000005    1    3    3    0    0 -0.50908756949E+02 -0.29138098173E+02  0.76595258868E+03  0.76819600260E+03  0.10000000000E+01 0.  0.
         21    1    1    2  502  501 -0.12878859298E+02  0.20068487294E+02  0.85697580467E+02  0.88953271424E+02  0.00000000000E+00 0. -1.
<mgrwt>
<rscale>  1 0.12726019E+03</rscale>
<asrwt>0</asrwt>
<pdfrwt beam="1">  1        4 0.20859538E+00 0.12726019E+03</pdfrwt>
<pdfrwt beam="2">  1       -4 0.74146538E-03 0.12726019E+03</pdfrwt>
<totfact> 0.97790374E+02</totfact>
</mgrwt>
</event>
<event>
 6    4  0.2103460E-003  0.1276434E+03  0.7818608E-02  0.1230995E+00
         -4   -1    0    0    0  501 -0.00000000000E+00  0.00000000000E+00  0.50001695782E+03  0.50001857067E+03  0.12700000000E+01 0.  1.
          4   -1    0    0  502    0  0.00000000000E+00 -0.00000000000E+00 -0.13537941912E+02  0.13597381042E+02  0.12700000000E+01 0.  1.
         25    2    1    2    0    0 -0.49254320352E+01  0.25365463181E+02  0.30992383893E+03  0.33517997685E+03  0.12500065737E+03 0.  0.
    9000005    1    3    3    0    0  0.18032260902E+02 -0.40627308254E+02  0.20032240020E+03  0.20519698982E+03  0.10000000000E+01 0.  0.
    9000005    1    3    3    0    0 -0.22957692938E+02  0.65992771435E+02  0.10960143873E+03  0.12998298703E+03  0.10000000000E+01 0.  0.
         21    1    1    2  502  501  0.49254320352E+01 -0.25365463181E+02  0.17655517698E+03  0.17843597486E+03  0.00000000000E+00 0.  1.
<mgrwt>
<rscale>  1 0.12764337E+03</rscale>
<asrwt>0</asrwt>
<pdfrwt beam="2">  1        4 0.20874566E-02 0.12764337E+03</pdfrwt>
<pdfrwt beam="1">  1       -4 0.76930380E-01 0.12764337E+03</pdfrwt>
<totfact> 0.23923073E+03</totfact>
</mgrwt>
</event>
<event>
 6    4  0.2103460E-003  0.1269631E+03  0.7818608E-02  0.1232033E+00
          4   -1    0    0  502    0  0.00000000000E+00  0.00000000000E+00  0.12967728790E+03  0.12968350665E+03  0.12700000000E+01 0. -1.
         -4   -1    0    0    0  501 -0.00000000000E+00 -0.00000000000E+00 -0.42904681944E+02  0.42923474145E+02  0.12700000000E+01 0. -1.
         25    2    1    2    0    0 -0.13586905215E+02  0.17614704237E+02  0.74081197308E+02  0.14699538865E+03  0.12499895476E+03 0.  0.
    9000005    1    3    3    0    0  0.21116432938E+02 -0.45647080335E+02  0.49986559960E+02  0.70916964542E+02  0.10000000000E+01 0.  0.
    9000005    1    3    3    0    0 -0.34703338152E+02  0.63261784572E+02  0.24094637348E+02  0.76078424110E+02  0.10000000000E+01 0.  0.
         21    1    1    2  502  501  0.13586905215E+02 -0.17614704237E+02  0.12691408648E+02  0.25611592144E+02  0.00000000000E+00 0. -1.
<mgrwt>
<rscale>  1 0.12696307E+03</rscale>
<asrwt>0</asrwt>
<pdfrwt beam="1">  1        4 0.19952276E-01 0.12696307E+03</pdfrwt>
<pdfrwt beam="2">  1       -4 0.66026443E-02 0.12696307E+03</pdfrwt>
<totfact> 0.55194642E+03</totfact>
</mgrwt>
</event>
<event>
 6    4  0.2103460E-003  0.1286682E+03  0.7818608E-02  0.1229445E+00
         -4   -1    0    0    0  501 -0.00000000000E+00  0.00000000000E+00  0.56807450802E+02  0.56821645229E+02  0.12700000000E+01 0. -1.
          4   -1    0    0  502    0  0.00000000000E+00 -0.00000000000E+00 -0.18955986551E+03  0.18956411979E+03  0.12700000000E+01 0. -1.
         25    2    1    2    0    0  0.29520167211E+02  0.76912863062E+01 -0.16011409862E+03  0.20540701560E+03  0.12499968528E+03 0.  0.
    9000005    1    3    3    0    0 -0.45059585062E+02 -0.19416110447E+02 -0.67261124775E+02  0.83261098100E+02  0.10000000000E+01 0.  0.
    9000005    1    3    3    0    0  0.74579752274E+02  0.27107396753E+02 -0.92852973850E+02  0.12214591750E+03  0.10000000000E+01 0.  0.
         21    1    1    2  502  501 -0.29520167211E+02 -0.76912863062E+01  0.27361683920E+02  0.40978749422E+02  0.00000000000E+00 0. -1.
<mgrwt>
<rscale>  1 0.12866825E+03</rscale>
<asrwt>0</asrwt>
<pdfrwt beam="2">  1        4 0.29164475E-01 0.12866825E+03</pdfrwt>
<pdfrwt beam="1">  1       -4 0.87410270E-02 0.12866825E+03</pdfrwt>
<totfact> 0.17362110E+03</totfact>
</mgrwt>
</event>
<event>
 6    4  0.2103460E-003  0.1278310E+03  0.7818608E-02  0.1230710E+00
         -4   -1    0    0    0  501 -0.00000000000E+00  0.00000000000E+00  0.37288115478E+02  0.37309736744E+02  0.12700000000E+01 0. -1.
          4   -1    0    0  502    0  0.00000000000E+00 -0.00000000000E+00 -0.19451223692E+03  0.19451638289E+03  0.12700000000E+01 0. -1.
         25    2    1    2    0    0  0.13030180484E+02  0.23359737855E+02 -0.16015761897E+03  0.20491760121E+03  0.12500118966E+03 0.  0.
    9000005    1    3    3    0    0 -0.42111760198E+02 -0.28111668425E+02 -0.48182994047E+02  0.69901839489E+02  0.10000000000E+01 0.  0.
    9000005    1    3    3    0    0  0.55141940682E+02  0.51471406280E+02 -0.11197462492E+03  0.13501576172E+03  0.10000000000E+01 0.  0.
         21    1    1    2  502  501 -0.13030180484E+02 -0.23359737855E+02  0.29334975236E+01  0.26908518425E+02  0.00000000000E+00 0. -1.
<mgrwt>
<rscale>  1 0.12783098E+03</rscale>
<asrwt>0</asrwt>
<pdfrwt beam="2">  1        4 0.29926941E-01 0.12783098E+03</pdfrwt>
<pdfrwt beam="1">  1       -4 0.57386153E-02 0.12783098E+03</pdfrwt>
<totfact> 0.32943047E+03</totfact>
</mgrwt>
</event>
<event>
 6    4  0.2103460E-003  0.1268644E+03  0.7818608E-02  0.1232184E+00
          4   -1    0    0  502    0  0.00000000000E+00  0.00000000000E+00  0.10348025178E+03  0.10348804476E+03  0.12700000000E+01 0. -1.
         -4   -1    0    0    0  501 -0.00000000000E+00 -0.00000000000E+00 -0.60873419366E+02  0.60886665908E+02  0.12700000000E+01 0. -1.
         25    2    1    2    0    0  0.11380751302E+02 -0.18439716000E+02  0.56242524667E+02  0.13877243090E+03  0.12500008548E+03 0.  0.
    9000005    1    3    3    0    0  0.20718617725E+02 -0.68204302594E+01  0.94873171012E+02  0.97353469210E+02  0.10000000000E+01 0.  0.
    9000005    1    3    3    0    0 -0.93378664230E+01 -0.11619285741E+02 -0.38630646345E+02  0.41418961690E+02  0.10000000000E+01 0.  0.
         21    1    1    2  502  501 -0.11380751302E+02  0.18439716000E+02 -0.13635692250E+02  0.25602279772E+02  0.00000000000E+00 0. -1.
<mgrwt>
<rscale>  1 0.12686436E+03</rscale>
<asrwt>0</asrwt>
<pdfrwt beam="1">  1        4 0.15921657E-01 0.12686436E+03</pdfrwt>
<pdfrwt beam="2">  1       -4 0.93667600E-02 0.12686436E+03</pdfrwt>
<totfact> 0.46206217E+03</totfact>
</mgrwt>
</event>
<event>
 6    4  0.2103460E-003  0.1279876E+03  0.7818608E-02  0.1230473E+00
          4   -1    0    0  502    0  0.00000000000E+00  0.00000000000E+00  0.19207035019E+03  0.19207454887E+03  0.12700000000E+01 0. -1.
         -4   -1    0    0    0  501 -0.00000000000E+00 -0.00000000000E+00 -0.33831201141E+02  0.33855030212E+02  0.12700000000E+01 0. -1.
         25    2    1    2    0    0 -0.27402885418E+02  0.25017638776E+01  0.15004944894E+03  0.19721985704E+03  0.12499463161E+03 0.  0.
    9000005    1    3    3    0    0 -0.21838018086E+02  0.18989502753E+02 -0.14058289518E+02  0.32189062629E+02  0.10000000000E+01 0.  0.
    9000005    1    3    3    0    0 -0.55648673318E+01 -0.16487738876E+02  0.16410773846E+03  0.16503079441E+03  0.10000000000E+01 0.  0.
         21    1    1    2  502  501  0.27402885418E+02 -0.25017638776E+01  0.81897001094E+01  0.28709722040E+02  0.00000000000E+00 0. -1.
<mgrwt>
<rscale>  1 0.12798764E+03</rscale>
<asrwt>0</asrwt>
<pdfrwt beam="1">  1        4 0.29551441E-01 0.12798764E+03</pdfrwt>
<pdfrwt beam="2">  1       -4 0.52069561E-02 0.12798764E+03</pdfrwt>
<totfact> 0.39480230E+03</totfact>
</mgrwt>
</event>
<event>
 6    4  0.2103460E-003  0.1266622E+03  0.7818608E-02  0.1232494E+00
         -4   -1    0    0    0  501 -0.00000000000E+00  0.00000000000E+00  0.28798143247E+02  0.28826133187E+02  0.12700000000E+01 0.  1.
          4   -1    0    0  502    0  0.00000000000E+00 -0.00000000000E+00 -0.19200652789E+03  0.19201072796E+03  0.12700000000E+01 0.  1.
         25    2    1    2    0    0 -0.75692031682E+01 -0.18945376602E+02 -0.15088820419E+03  0.19700396419E+03  0.12500836616E+03 0.  0.
    9000005    1    3    3    0    0 -0.88052767974E+00  0.53604435582E+02 -0.69141166813E+02  0.87496924468E+02  0.10000000000E+01 0.  0.
    9000005    1    3    3    0    0 -0.66886754885E+01 -0.72549812184E+02 -0.81747037379E+02  0.10950703972E+03  0.10000000000E+01 0.  0.
         21    1    1    2  502  501  0.75692031682E+01  0.18945376602E+02 -0.12320180447E+02  0.23832896958E+02  0.00000000000E+00 0. -1.
<mgrwt>
<rscale>  1 0.12666220E+03</rscale>
<asrwt>0</asrwt>
<pdfrwt beam="2">  1        4 0.29541941E-01 0.12666220E+03</pdfrwt>
<pdfrwt beam="1">  1       -4 0.44329598E-02 0.12666220E+03</pdfrwt>
<totfact> 0.50989129E+03</totfact>
</mgrwt>
</event>
<event>
 6    4  0.2103460E-003  0.1272687E+03  0.7818608E-02  0.1231566E+00
         -4   -1    0    0    0  501 -0.00000000000E+00  0.00000000000E+00  0.75071970539E+03  0.75072077962E+03  0.12700000000E+01 0.  1.
          4   -1    0    0  502    0  0.00000000000E+00 -0.00000000000E+00 -0.76078896113E+01  0.77131630566E+01  0.12700000000E+01 0.  1.
         25    2    1    2    0    0  0.60471566239E+01  0.23152488168E+02  0.60177259292E+03  0.61508338730E+03  0.12499885569E+03 0.  0.
    9000005    1    3    3    0    0  0.60710672289E+01  0.61030390657E+02  0.15483711284E+03  0.16654458248E+03  0.10000000000E+01 0.  0.
    9000005    1    3    3    0    0 -0.23910605017E-01 -0.37877902490E+02  0.44693548009E+03  0.44853880482E+03  0.10000000000E+01 0.  0.
         21    1    1    2  502  501 -0.60471566239E+01 -0.23152488168E+02  0.14133922285E+03  0.14335055538E+03  0.00000000000E+00 0.  1.
<mgrwt>
<rscale>  1 0.12726869E+03</rscale>
<asrwt>0</asrwt>
<pdfrwt beam="2">  1        4 0.11786252E-02 0.12726869E+03</pdfrwt>
<pdfrwt beam="1">  1       -4 0.11550351E+00 0.12726869E+03</pdfrwt>
<totfact> 0.22626093E+03</totfact>
</mgrwt>
</event>
<event>
 6    4  0.2103460E-003  0.1273065E+03  0.7818608E-02  0.1231508E+00
          4   -1    0    0  502    0  0.00000000000E+00  0.00000000000E+00  0.77060340637E+03  0.77060445289E+03  0.12700000000E+01 0.  1.
         -4   -1    0    0    0  501 -0.00000000000E+00 -0.00000000000E+00 -0.73843674666E+01  0.74927820522E+01  0.12700000000E+01 0.  1.
         25    2    1    2    0    0  0.18328720138E+02 -0.15668939551E+02  0.64539772725E+03  0.65783369463E+03  0.12500194318E+03 0.  0.
    9000005    1    3    3    0    0 -0.43082748213E+02  0.21065862410E+02  0.37773442746E+03  0.38076789707E+03  0.10000000000E+01 0.  0.
    9000005    1    3    3    0    0  0.61411468351E+02 -0.36734801961E+02  0.26766329979E+03  0.27706579755E+03  0.10000000000E+01 0.  0.
         21    1    1    2  502  501 -0.18328720138E+02  0.15668939551E+02  0.11782131166E+03  0.12026354032E+03  0.00000000000E+00 0.  1.
<mgrwt>
<rscale>  1 0.12730649E+03</rscale>
<asrwt>0</asrwt>
<pdfrwt beam="1">  1        4 0.11856280E+00 0.12730649E+03</pdfrwt>
<pdfrwt beam="2">  1       -4 0.11444766E-02 0.12730649E+03</pdfrwt>
<totfact> 0.22230217E+03</totfact>
</mgrwt>
</event>
<event>
 6    4  0.2103460E-003  0.1275464E+03  0.7818608E-02  0.1231143E+00
          4   -1    0    0  502    0  0.00000000000E+00  0.00000000000E+00  0.40852342211E+02  0.40872078050E+02  0.12700000000E+01 0. -1.
         -4   -1    0    0    0  501 -0.00000000000E+00 -0.00000000000E+00 -0.24023332483E+03  0.24023668175E+03  0.12700000000E+01 0. -1.
         25    2    1    2    0    0  0.20289042753E+02 -0.15217405701E+02 -0.62754947862E+02  0.14214873654E+03  0.12499946050E+03 0.  0.
    9000005    1    3    3    0    0  0.38882783627E+02  0.43871538806E+02 -0.53757621994E+02  0.79545362544E+02  0.10000000000E+01 0.  0.
    9000005    1    3    3    0    0 -0.18593740874E+02 -0.59088944507E+02 -0.89973258680E+01  0.62603373994E+02  0.10000000000E+01 0.  0.
         21    1    1    2  502  501 -0.20289042753E+02  0.15217405701E+02 -0.13662603476E+03  0.13896002326E+03  0.00000000000E+00 0. -1.
<mgrwt>
<rscale>  1 0.12754638E+03</rscale>
<asrwt>0</asrwt>
<pdfrwt beam="1">  1        4 0.62867522E-02 0.12754638E+03</pdfrwt>
<pdfrwt beam="2">  1       -4 0.36960749E-01 0.12754638E+03</pdfrwt>
<totfact> 0.18955637E+03</totfact>
</mgrwt>
</event>
<event>
 6    4  0.2103460E-003  0.1271648E+03  0.7818608E-02  0.1231724E+00
         -4   -1    0    0    0  501 -0.00000000000E+00  0.00000000000E+00  0.22964189552E+02  0.22999280463E+02  0.12700000000E+01 0.  1.
          4   -1    0    0  502    0  0.00000000000E+00 -0.00000000000E+00 -0.25842794551E+03  0.25843106609E+03  0.12700000000E+01 0.  1.
         25    2    1    2    0    0  0.21144190437E+02 -0.99217148148E+01 -0.21757140590E+03  0.25200835810E+03  0.12500151467E+03 0.  0.
    9000005    1    3    3    0    0 -0.25713669200E+02  0.44010896698E+02 -0.58319883629E+02  0.77461994800E+02  0.10000000000E+01 0.  0.
    9000005    1    3    3    0    0  0.46857859637E+02 -0.53932611512E+02 -0.15925152227E+03  0.17454636330E+03  0.10000000000E+01 0.  0.
         21    1    1    2  502  501 -0.21144190437E+02  0.99217148148E+01 -0.17892350056E+02  0.29421988454E+02  0.00000000000E+00 0. -1.
<mgrwt>
<rscale>  1 0.12716484E+03</rscale>
<asrwt>0</asrwt>
<pdfrwt beam="2">  1        4 0.39761083E-01 0.12716484E+03</pdfrwt>
<pdfrwt beam="1">  1       -4 0.35358918E-02 0.12716484E+03</pdfrwt>
<totfact> 0.41265033E+03</totfact>
</mgrwt>
</event>
<event>
 6    4  0.2103460E-003  0.1295276E+03  0.7818608E-02  0.1228158E+00
         -4   -1    0    0    0  501 -0.00000000000E+00  0.00000000000E+00  0.56028402616E+03  0.56028546552E+03  0.12700000000E+01 0. -1.
          4   -1    0    0  502    0  0.00000000000E+00 -0.00000000000E+00 -0.12822176134E+02  0.12884917571E+02  0.12700000000E+01 0. -1.
         25    2    1    2    0    0 -0.66807567704E+01 -0.33294617562E+02  0.35851057322E+03  0.38119187108E+03  0.12499698953E+03 0.  0.
    9000005    1    3    3    0    0  0.45438400938E+02 -0.41112927542E+02  0.27999208570E+03  0.28662081074E+03  0.10000000000E+01 0.  0.
    9000005    1    3    3    0    0 -0.52119157708E+02  0.78183099806E+01  0.78518487520E+02  0.94571060339E+02  0.10000000000E+01 0.  0.
         21    1    1    2  502  501  0.66807567704E+01  0.33294617562E+02  0.18895127680E+03  0.19197851201E+03  0.00000000000E+00 0. -1.
<mgrwt>
<rscale>  1 0.12952765E+03</rscale>
<asrwt>0</asrwt>
<pdfrwt beam="2">  1        4 0.19775800E-02 0.12952765E+03</pdfrwt>
<pdfrwt beam="1">  1       -4 0.86202458E-01 0.12952765E+03</pdfrwt>
<totfact> 0.20275791E+03</totfact>
</mgrwt>
</event>
<event>
 6    4  0.2103460E-003  0.1267705E+03  0.7818608E-02  0.1232328E+00
          4   -1    0    0  502    0  0.00000000000E+00  0.00000000000E+00  0.75926574494E+02  0.75937195197E+02  0.12700000000E+01 0. -1.
         -4   -1    0    0    0  501 -0.00000000000E+00 -0.00000000000E+00 -0.78730917060E+02  0.78741159511E+02  0.12700000000E+01 0. -1.
         25    2    1    2    0    0 -0.15968126916E+02 -0.13922823286E+02  0.14131222270E+02  0.12755568077E+03  0.12498773607E+03 0.  0.
    9000005    1    3    3    0    0  0.85595213282E+00 -0.31177214695E+02 -0.50056125120E+02  0.58986159667E+02  0.10000000000E+01 0.  0.
    9000005    1    3    3    0    0 -0.16824079049E+02  0.17254391409E+02  0.64187347391E+02  0.68569521099E+02  0.10000000000E+01 0.  0.
         21    1    1    2  502  501  0.15968126916E+02  0.13922823286E+02 -0.16935564836E+02  0.27122673942E+02  0.00000000000E+00 0. -1.
<mgrwt>
<rscale>  1 0.12677050E+03</rscale>
<asrwt>0</asrwt>
<pdfrwt beam="1">  1        4 0.11682616E-01 0.12677050E+03</pdfrwt>
<pdfrwt beam="2">  1       -4 0.12114054E-01 0.12677050E+03</pdfrwt>
<totfact> 0.51057775E+03</totfact>
</mgrwt>
</event>
<event>
 6    4  0.2103460E-003  0.1271067E+03  0.7818608E-02  0.1231813E+00
         -4   -1    0    0    0  501 -0.00000000000E+00  0.00000000000E+00  0.67029094979E+01  0.68221621014E+01  0.12700000000E+01 0. -1.
          4   -1    0    0  502    0  0.00000000000E+00 -0.00000000000E+00 -0.10201350720E+04  0.10201358626E+04  0.12700000000E+01 0. -1.
         25    2    1    2    0    0  0.17385663718E+02 -0.15068997457E+02 -0.96504361451E+03  0.97337829373E+03  0.12500715505E+03 0.  0.
    9000005    1    3    3    0    0  0.42825931924E+02 -0.46258951327E+02 -0.83176654696E+03  0.83415258776E+03  0.10000000000E+01 0.  0.
    9000005    1    3    3    0    0 -0.25440268206E+02  0.31189953870E+02 -0.13327706755E+03  0.13922570597E+03  0.10000000000E+01 0.  0.
         21    1    1    2  502  501 -0.17385663718E+02  0.15068997457E+02 -0.48388548037E+02  0.53579730947E+02  0.00000000000E+00 0. -1.
<mgrwt>
<rscale>  1 0.12710675E+03</rscale>
<asrwt>0</asrwt>
<pdfrwt beam="2">  1        4 0.15695297E+00 0.12710675E+03</pdfrwt>
<pdfrwt beam="1">  1       -4 0.10404517E-02 0.12710675E+03</pdfrwt>
<totfact> 0.12798311E+03</totfact>
</mgrwt>
</event>
<event>
 6    4  0.2103460E-003  0.1276671E+03  0.7818608E-02  0.1230959E+00
          4   -1    0    0  502    0  0.00000000000E+00  0.00000000000E+00  0.78442086058E+02  0.78452366217E+02  0.12700000000E+01 0.  1.
         -4   -1    0    0    0  501 -0.00000000000E+00 -0.00000000000E+00 -0.91147494818E+02  0.91156342136E+02  0.12700000000E+01 0.  1.
         25    2    1    2    0    0  0.21102999031E+01 -0.25748519169E+02  0.18605268188E+02  0.12901562894E+03  0.12502574496E+03 0.  0.
    9000005    1    3    3    0    0 -0.58139841370E+02 -0.26038076133E+02 -0.58566557648E+01  0.63980645355E+02  0.10000000000E+01 0.  0.
    9000005    1    3    3    0    0  0.60250141274E+02  0.28955696404E+00  0.24461923953E+02  0.65034983587E+02  0.10000000000E+01 0.  0.
         21    1    1    2  502  501 -0.21102999031E+01  0.25748519169E+02 -0.31310676948E+02  0.40593079411E+02  0.00000000000E+00 0.  1.
<mgrwt>
<rscale>  1 0.12766705E+03</rscale>
<asrwt>0</asrwt>
<pdfrwt beam="1">  1        4 0.12069485E-01 0.12766705E+03</pdfrwt>
<pdfrwt beam="2">  1       -4 0.14024163E-01 0.12766705E+03</pdfrwt>
<totfact> 0.37605698E+03</totfact>
</mgrwt>
</event>
<event>
 6    4  0.2103460E-003  0.1288621E+03  0.7818608E-02  0.1229154E+00
          4   -1    0    0  502    0  0.00000000000E+00  0.00000000000E+00  0.20516987031E+03  0.20517380092E+03  0.12700000000E+01 0. -1.
         -4   -1    0    0    0  501 -0.00000000000E+00 -0.00000000000E+00 -0.61176500566E+02  0.61189681495E+02  0.12700000000E+01 0. -1.
         25    2    1    2    0    0 -0.22511746275E+02 -0.21754306839E+02  0.17825389897E+03  0.21995429745E+03  0.12500164751E+03 0.  0.
    9000005    1    3    3    0    0  0.43744021217E+02 -0.19694270743E+02  0.12819927297E+03  0.13688483218E+03  0.10000000000E+01 0.  0.
    9000005    1    3    3    0    0 -0.66255767492E+02 -0.20600360955E+01  0.50054626003E+02  0.83069465262E+02  0.10000000000E+01 0.  0.
         21    1    1    2  502  501  0.22511746275E+02  0.21754306839E+02 -0.34260529227E+02  0.46409184967E+02  0.00000000000E+00 0. -1.
<mgrwt>
<rscale>  1 0.12886210E+03</rscale>
<asrwt>0</asrwt>
<pdfrwt beam="1">  1        4 0.31565911E-01 0.12886210E+03</pdfrwt>
<pdfrwt beam="2">  1       -4 0.94130858E-02 0.12886210E+03</pdfrwt>
<totfact> 0.13214311E+03</totfact>
</mgrwt>
</event>
<event>
 6    4  0.2103460E-003  0.1265952E+03  0.7818608E-02  0.1232597E+00
          4   -1    0    0  502    0  0.00000000000E+00  0.00000000000E+00  0.17862895004E+02  0.17907984754E+02  0.12700000000E+01 0.  1.
         -4   -1    0    0    0  501 -0.00000000000E+00 -0.00000000000E+00 -0.37889803159E+03  0.37890015999E+03  0.12700000000E+01 0.  1.
         25    2    1    2    0    0  0.19168636325E+02 -0.59116389441E+01 -0.21578156759E+03  0.25017600843E+03  0.12499586470E+03 0.  0.
    9000005    1    3    3    0    0 -0.40500771818E+02 -0.15016127111E+02 -0.24663231953E+02  0.49750091473E+02  0.10000000000E+01 0.  0.
    9000005    1    3    3    0    0  0.59669408143E+02  0.91044881671E+01 -0.19111833564E+03  0.20042591696E+03  0.10000000000E+01 0.  0.
         21    1    1    2  502  501 -0.19168636325E+02  0.59116389441E+01 -0.14525356899E+03  0.14663213631E+03  0.00000000000E+00 0. -1.
<mgrwt>
<rscale>  1 0.12659522E+03</rscale>
<asrwt>0</asrwt>
<pdfrwt beam="1">  1        4 0.27517701E-02 0.12659522E+03</pdfrwt>
<pdfrwt beam="2">  1       -4 0.58295631E-01 0.12659522E+03</pdfrwt>
<totfact> 0.28157888E+03</totfact>
</mgrwt>
</event>
<event>
 6    4  0.2103460E-003  0.1266162E+03  0.7818608E-02  0.1232565E+00
          4   -1    0    0  502    0  0.00000000000E+00  0.00000000000E+00  0.19905252400E+03  0.19905657540E+03  0.12700000000E+01 0.  1.
         -4   -1    0    0    0  501 -0.00000000000E+00 -0.00000000000E+00 -0.33583625872E+02  0.33607630483E+02  0.12700000000E+01 0.  1.
         25    2    1    2    0    0  0.19665915778E+02  0.44811717162E+01  0.17002016734E+03  0.21198708822E+03  0.12499935651E+03 0.  0.
    9000005    1    3    3    0    0 -0.37101796373E+02  0.42293955972E+02  0.57849061496E+02  0.80702143229E+02  0.10000000000E+01 0.  0.
    9000005    1    3    3    0    0  0.56767712151E+02 -0.37812784255E+02  0.11217110584E+03  0.13128494499E+03  0.10000000000E+01 0.  0.
         21    1    1    2  502  501 -0.19665915778E+02 -0.44811717162E+01 -0.45512692115E+01  0.20677117661E+02  0.00000000000E+00 0.  1.
<mgrwt>
<rscale>  1 0.12661622E+03</rscale>
<asrwt>0</asrwt>
<pdfrwt beam="1">  1        4 0.30625623E-01 0.12661622E+03</pdfrwt>
<pdfrwt beam="2">  1       -4 0.51688700E-02 0.12661622E+03</pdfrwt>
<totfact> 0.37245946E+03</totfact>
</mgrwt>
</event>
<event>
 6    4  0.2103460E-003  0.1296123E+03  0.7818608E-02  0.1228032E+00
          4   -1    0    0  502    0  0.00000000000E+00  0.00000000000E+00  0.29853414992E+03  0.29853685127E+03  0.12700000000E+01 0.  1.
         -4   -1    0    0    0  501 -0.00000000000E+00 -0.00000000000E+00 -0.23192069469E+02  0.23226816102E+02  0.12700000000E+01 0.  1.
         25    2    1    2    0    0  0.11405691815E+02  0.32332715030E+02  0.23845137046E+03  0.27140079662E+03  0.12499536818E+03 0.  0.
    9000005    1    3    3    0    0 -0.55998390573E+02  0.19351765141E+02  0.88811644144E+02  0.10676525042E+03  0.10000000000E+01 0.  0.
    9000005    1    3    3    0    0  0.67404082388E+02  0.12980949889E+02  0.14963972631E+03  0.16463554620E+03  0.10000000000E+01 0.  0.
         21    1    1    2  502  501 -0.11405691815E+02 -0.32332715030E+02  0.36890709993E+02  0.50362870756E+02  0.00000000000E+00 0.  1.
<mgrwt>
<rscale>  1 0.12961225E+03</rscale>
<asrwt>0</asrwt>
<pdfrwt beam="1">  1        4 0.45931213E-01 0.12961225E+03</pdfrwt>
<pdfrwt beam="2">  1       -4 0.35708912E-02 0.12961225E+03</pdfrwt>
<totfact> 0.30653668E+03</totfact>
</mgrwt>
</event>
<event>
 6    4  0.2103460E-003  0.1449617E+03  0.7818608E-02  0.1206804E+00
         -4   -1    0    0    0  501 -0.00000000000E+00  0.00000000000E+00  0.82607083880E+02  0.82616845783E+02  0.12700000000E+01 0. -1.
          4   -1    0    0  502    0  0.00000000000E+00 -0.00000000000E+00 -0.14468856572E+03  0.14469413931E+03  0.12700000000E+01 0. -1.
         25    2    1    2    0    0  0.62783307121E+02 -0.37944864211E+02 -0.35130242679E+02  0.14915776593E+03  0.12502939180E+03 0.  0.
    9000005    1    3    3    0    0  0.37490377400E+02 -0.42837121035E+02  0.40095934095E+02  0.69636421987E+02  0.10000000000E+01 0.  0.
    9000005    1    3    3    0    0  0.25292929721E+02  0.48922568244E+01 -0.75226176774E+02  0.79521343945E+02  0.10000000000E+01 0.  0.
         21    1    1    2  502  501 -0.62783307121E+02  0.37944864211E+02 -0.26951239166E+02  0.78153219164E+02  0.00000000000E+00 0. -1.
<mgrwt>
<rscale>  1 0.14496174E+03</rscale>
<asrwt>0</asrwt>
<pdfrwt beam="2">  1        4 0.22260959E-01 0.14496174E+03</pdfrwt>
<pdfrwt beam="1">  1       -4 0.12709962E-01 0.14496174E+03</pdfrwt>
<totfact> 0.15591420E+03</totfact>
</mgrwt>
</event>
<event>
 6    4  0.2103460E-003  0.1266193E+03  0.7818608E-02  0.1232560E+00
          4   -1    0    0  502    0  0.00000000000E+00  0.00000000000E+00  0.50329091362E+02  0.50345112348E+02  0.12700000000E+01 0. -1.
         -4   -1    0    0    0  501 -0.00000000000E+00 -0.00000000000E+00 -0.13464755735E+03  0.13465354656E+03  0.12700000000E+01 0. -1.
         25    2    1    2    0    0 -0.14173476763E+02 -0.14391370421E+02 -0.34491221363E+02  0.13123293290E+03  0.12499775734E+03 0.  0.
    9000005    1    3    3    0    0  0.47976272634E+02 -0.32593953991E+02 -0.32370570248E+02  0.66429981114E+02  0.10000000000E+01 0.  0.
    9000005    1    3    3    0    0 -0.62149749398E+02  0.18202583570E+02 -0.21206511149E+01  0.64802951784E+02  0.10000000000E+01 0.  0.
         21    1    1    2  502  501  0.14173476763E+02  0.14391370421E+02 -0.49827244627E+02  0.53765726009E+02  0.00000000000E+00 0. -1.
<mgrwt>
<rscale>  1 0.12661927E+03</rscale>
<asrwt>0</asrwt>
<pdfrwt beam="1">  1        4 0.77446302E-02 0.12661927E+03</pdfrwt>
<pdfrwt beam="2">  1       -4 0.20716702E-01 0.12661927E+03</pdfrwt>
<totfact> 0.39671697E+03</totfact>
</mgrwt>
</event>
<event>
 6    4  0.2103460E-003  0.1266625E+03  0.7818608E-02  0.1232494E+00
         -4   -1    0    0    0  501 -0.00000000000E+00  0.00000000000E+00  0.13940165456E+02  0.13997896733E+02  0.12700000000E+01 0.  1.
          4   -1    0    0  502    0  0.00000000000E+00 -0.00000000000E+00 -0.40511054104E+03  0.40511253172E+03  0.12700000000E+01 0.  1.
         25    2    1    2    0    0  0.20415216903E+02 -0.11292028062E+01 -0.36174257436E+03  0.38327676182E+03  0.12500131945E+03 0.  0.
    9000005    1    3    3    0    0  0.32325068584E+02  0.57696187443E+02 -0.17269238935E+03  0.18492544834E+03  0.10000000000E+01 0.  0.
    9000005    1    3    3    0    0 -0.11909851681E+02 -0.58825390250E+02 -0.18905018501E+03  0.19835131348E+03  0.10000000000E+01 0.  0.
         21    1    1    2  502  501 -0.20415216903E+02  0.11292028062E+01 -0.29427801219E+02  0.35833666638E+02  0.00000000000E+00 0.  1.
<mgrwt>
<rscale>  1 0.12666249E+03</rscale>
<asrwt>0</asrwt>
<pdfrwt beam="2">  1        4 0.62329284E-01 0.12666249E+03</pdfrwt>
<pdfrwt beam="1">  1       -4 0.21492351E-02 0.12666249E+03</pdfrwt>
<totfact> 0.35897441E+03</totfact>
</mgrwt>
</event>
<event>
 6    4  0.2103460E-003  0.1300978E+03  0.7818608E-02  0.1227311E+00
         -4   -1    0    0    0  501 -0.00000000000E+00  0.00000000000E+00  0.93047945867E+02  0.93056612500E+02  0.12700000000E+01 0. -1.
          4   -1    0    0  502    0  0.00000000000E+00 -0.00000000000E+00 -0.93358873677E+02  0.93367511450E+02  0.12700000000E+01 0. -1.
         25    2    1    2    0    0 -0.12167065144E+02 -0.33949983784E+02 -0.36716435391E+02  0.13517961346E+03  0.12499916957E+03 0.  0.
    9000005    1    3    3    0    0  0.31372650744E+02 -0.67257815251E+02 -0.12606592977E+02  0.75284680471E+02  0.10000000000E+01 0.  0.
    9000005    1    3    3    0    0 -0.43539715888E+02  0.33307831467E+02 -0.24109842414E+02  0.59894932990E+02  0.10000000000E+01 0.  0.
         21    1    1    2  502  501  0.12167065144E+02  0.33949983784E+02  0.36405507580E+02  0.51244510490E+02  0.00000000000E+00 0. -1.
<mgrwt>
<rscale>  1 0.13009778E+03</rscale>
<asrwt>0</asrwt>
<pdfrwt beam="2">  1        4 0.14364235E-01 0.13009778E+03</pdfrwt>
<pdfrwt beam="1">  1       -4 0.14316400E-01 0.13009778E+03</pdfrwt>
<totfact> 0.27005497E+03</totfact>
</mgrwt>
</event>
<event>
 6    4  0.2103460E-003  0.1274242E+03  0.7818608E-02  0.1231329E+00
         -4   -1    0    0    0  501 -0.00000000000E+00  0.00000000000E+00  0.85568525007E+02  0.85577949098E+02  0.12700000000E+01 0. -1.
          4   -1    0    0  502    0  0.00000000000E+00 -0.00000000000E+00 -0.79501182245E+02  0.79511325473E+02  0.12700000000E+01 0. -1.
         25    2    1    2    0    0 -0.18721937371E+02  0.16330606025E+02 -0.20108254559E+02  0.12900102819E+03  0.12497889318E+03 0.  0.
    9000005    1    3    3    0    0 -0.16103755677E+02 -0.54334022296E+02 -0.10214574313E+02  0.57592138823E+02  0.10000000000E+01 0.  0.
    9000005    1    3    3    0    0 -0.26181816940E+01  0.70664628322E+02 -0.98936802457E+01  0.71408889363E+02  0.10000000000E+01 0.  0.
         21    1    1    2  502  501  0.18721937371E+02 -0.16330606025E+02  0.26175597320E+02  0.36088246385E+02  0.00000000000E+00 0. -1.
<mgrwt>
<rscale>  1 0.12742419E+03</rscale>
<asrwt>0</asrwt>
<pdfrwt beam="2">  1        4 0.12232456E-01 0.12742419E+03</pdfrwt>
<pdfrwt beam="1">  1       -4 0.13165894E-01 0.12742419E+03</pdfrwt>
<totfact> 0.40970638E+03</totfact>
</mgrwt>
</event>
<event>
 6    4  0.2103460E-003  0.1789134E+03  0.7818608E-02  0.1168859E+00
         -4   -1    0    0    0  501 -0.00000000000E+00  0.00000000000E+00  0.51742790649E+02  0.51758374048E+02  0.12700000000E+01 0. -1.
          4   -1    0    0  502    0  0.00000000000E+00 -0.00000000000E+00 -0.51109309699E+03  0.51109467488E+03  0.12700000000E+01 0. -1.
         25    2    1    2    0    0  0.57677544109E+02  0.11427547587E+03 -0.35563532100E+03  0.39810359775E+03  0.12499763806E+03 0.  0.
    9000005    1    3    3    0    0  0.90659006923E+02  0.64427184555E+02 -0.17063081077E+03  0.20368061084E+03  0.10000000000E+01 0.  0.
    9000005    1    3    3    0    0 -0.32981462814E+02  0.49848291314E+02 -0.18500451022E+03  0.19442298691E+03  0.10000000000E+01 0.  0.
         21    1    1    2  502  501 -0.57677544109E+02 -0.11427547587E+03 -0.10371498535E+03  0.16474945118E+03  0.00000000000E+00 0. -1.
<mgrwt>
<rscale>  1 0.17891337E+03</rscale>
<asrwt>0</asrwt>
<pdfrwt beam="2">  1        4 0.78631024E-01 0.17891337E+03</pdfrwt>
<pdfrwt beam="1">  1       -4 0.79617498E-02 0.17891337E+03</pdfrwt>
<totfact> 0.28736172E+02</totfact>
</mgrwt>
</event>
<event>
 6    4  0.2103460E-003  0.1285478E+03  0.7818608E-02  0.1229627E+00
         -4   -1    0    0    0  501 -0.00000000000E+00  0.00000000000E+00  0.11098892586E+03  0.11099619166E+03  0.12700000000E+01 0. -1.
          4   -1    0    0  502    0  0.00000000000E+00 -0.00000000000E+00 -0.21271845013E+03  0.21272224126E+03  0.12700000000E+01 0. -1.
         25    2    1    2    0    0  0.28299607218E+02  0.98917274451E+01 -0.19061702054E+03  0.22991171124E+03  0.12500332958E+03 0.  0.
    9000005    1    3    3    0    0 -0.23382581668E+02 -0.44702514511E+02 -0.10124087172E+03  0.11311840715E+03  0.10000000000E+01 0.  0.
    9000005    1    3    3    0    0  0.51682188886E+02  0.54594241956E+02 -0.89376148820E+02  0.11679330409E+03  0.10000000000E+01 0.  0.
         21    1    1    2  502  501 -0.28299607218E+02 -0.98917274451E+01  0.88887496268E+02  0.93806721686E+02  0.00000000000E+00 0. -1.
<mgrwt>
<rscale>  1 0.12854784E+03</rscale>
<asrwt>0</asrwt>
<pdfrwt beam="2">  1        4 0.32726766E-01 0.12854784E+03</pdfrwt>
<pdfrwt beam="1">  1       -4 0.17076070E-01 0.12854784E+03</pdfrwt>
<totfact> 0.44309546E+02</totfact>
</mgrwt>
</event>
<event>
 6    4  0.2103460E-003  0.1304861E+03  0.7818608E-02  0.1226736E+00
         -4   -1    0    0    0  501 -0.00000000000E+00  0.00000000000E+00  0.10753494352E+02  0.10828228884E+02  0.12700000000E+01 0.  1.
          4   -1    0    0  502    0  0.00000000000E+00 -0.00000000000E+00 -0.69413533899E+03  0.69413650079E+03  0.12700000000E+01 0.  1.
         25    2    1    2    0    0  0.32953033025E+02 -0.17755954650E+02 -0.59206595884E+03  0.60627447023E+03  0.12500182928E+03 0.  0.
    9000005    1    3    3    0    0  0.80400913805E+01  0.45348903518E+02 -0.39863767015E+03  0.40129061562E+03  0.10000000000E+01 0.  0.
    9000005    1    3    3    0    0  0.24912941644E+02 -0.63104858168E+02 -0.19342828869E+03  0.20498385461E+03  0.10000000000E+01 0.  0.
         21    1    1    2  502  501 -0.32953033025E+02  0.17755954650E+02 -0.91315885793E+02  0.98690259445E+02  0.00000000000E+00 0.  1.
<mgrwt>
<rscale>  1 0.13048614E+03</rscale>
<asrwt>0</asrwt>
<pdfrwt beam="2">  1        4 0.10679586E+00 0.13048614E+03</pdfrwt>
<pdfrwt beam="1">  1       -4 0.16602225E-02 0.13048614E+03</pdfrwt>
<totfact> 0.16261939E+03</totfact>
</mgrwt>
</event>
<event>
 6    4  0.2103460E-003  0.1281393E+03  0.7818608E-02  0.1230243E+00
         -4   -1    0    0    0  501 -0.00000000000E+00  0.00000000000E+00  0.21754589783E+03  0.21754960483E+03  0.12700000000E+01 0.  1.
          4   -1    0    0  502    0  0.00000000000E+00 -0.00000000000E+00 -0.32251361018E+02  0.32276356478E+02  0.12700000000E+01 0.  1.
         25    2    1    2    0    0  0.20100530694E+02  0.19612398385E+02  0.10798010504E+03  0.16756905361E+03  0.12502402624E+03 0.  0.
    9000005    1    3    3    0    0 -0.28608440537E+02  0.50828855501E+02  0.89489764747E+02  0.10682431098E+03  0.10000000000E+01 0.  0.
    9000005    1    3    3    0    0  0.48708971231E+02 -0.31216457116E+02  0.18490340296E+02  0.60744742632E+02  0.10000000000E+01 0.  0.
         21    1    1    2  502  501 -0.20100530694E+02 -0.19612398385E+02  0.77314431770E+02  0.82256907701E+02  0.00000000000E+00 0.  1.
<mgrwt>
<rscale>  1 0.12813932E+03</rscale>
<asrwt>0</asrwt>
<pdfrwt beam="2">  1        4 0.49639556E-02 0.12813932E+03</pdfrwt>
<pdfrwt beam="1">  1       -4 0.33470808E-01 0.12813932E+03</pdfrwt>
<totfact> 0.33660611E+03</totfact>
</mgrwt>
</event>
<event>
 6    4  0.2103460E-003  0.1355622E+03  0.7818608E-02  0.1219428E+00
         -4   -1    0    0    0  501 -0.00000000000E+00  0.00000000000E+00  0.23718499052E+02  0.23752475603E+02  0.12700000000E+01 0. -1.
          4   -1    0    0  502    0  0.00000000000E+00 -0.00000000000E+00 -0.63843361239E+03  0.63843487555E+03  0.12700000000E+01 0. -1.
         25    2    1    2    0    0  0.11729033746E+02  0.51141548215E+02 -0.58777649999E+03  0.60320670115E+03  0.12499632867E+03 0.  0.
    9000005    1    3    3    0    0 -0.49482303694E+02 -0.83189621532E+01 -0.21128455545E+03  0.21716322636E+03  0.10000000000E+01 0.  0.
    9000005    1    3    3    0    0  0.61211337440E+02  0.59460510369E+02 -0.37649194454E+03  0.38604347479E+03  0.10000000000E+01 0.  0.
         21    1    1    2  502  501 -0.11729033746E+02 -0.51141548215E+02 -0.26938613339E+02  0.58980650006E+02  0.00000000000E+00 0.  1.
<mgrwt>
<rscale>  1 0.13556220E+03</rscale>
<asrwt>0</asrwt>
<pdfrwt beam="2">  1        4 0.98223253E-01 0.13556220E+03</pdfrwt>
<pdfrwt beam="1">  1       -4 0.36517111E-02 0.13556220E+03</pdfrwt>
<totfact> 0.58529947E+02</totfact>
</mgrwt>
</event>
<event>
 6    4  0.2103460E-003  0.1266309E+03  0.7818608E-02  0.1232542E+00
          4   -1    0    0  502    0  0.00000000000E+00  0.00000000000E+00  0.25159876088E+03  0.25160196617E+03  0.12700000000E+01 0. -1.
         -4   -1    0    0    0  501 -0.00000000000E+00 -0.00000000000E+00 -0.22824997640E+02  0.22860302213E+02  0.12700000000E+01 0. -1.
         25    2    1    2    0    0  0.14749280634E+02  0.13870692446E+02  0.21641754418E+03  0.25074279246E+03  0.12500182861E+03 0.  0.
    9000005    1    3    3    0    0  0.15699203694E+02  0.24647272081E+02 -0.44777734142E+01  0.29580457610E+02  0.10000000000E+01 0.  0.
    9000005    1    3    3    0    0 -0.94992305996E+00 -0.10776579635E+02  0.22089531759E+03  0.22116233485E+03  0.10000000000E+01 0.  0.
         21    1    1    2  502  501 -0.14749280634E+02 -0.13870692446E+02  0.12356219065E+02  0.23719475916E+02  0.00000000000E+00 0.  1.
<mgrwt>
<rscale>  1 0.12663094E+03</rscale>
<asrwt>0</asrwt>
<pdfrwt beam="1">  1        4 0.38710465E-01 0.12663094E+03</pdfrwt>
<pdfrwt beam="2">  1       -4 0.35145003E-02 0.12663094E+03</pdfrwt>
<totfact> 0.43859806E+03</totfact>
</mgrwt>
</event>
<event>
 6    4  0.2103460E-003  0.1397932E+03  0.7818608E-02  0.1213607E+00
          4   -1    0    0  502    0  0.00000000000E+00  0.00000000000E+00  0.11645899191E+02  0.11714942081E+02  0.12700000000E+01 0.  1.
         -4   -1    0    0    0  501 -0.00000000000E+00 -0.00000000000E+00 -0.89436242487E+03  0.89436332657E+03  0.12700000000E+01 0.  1.
         25    2    1    2    0    0 -0.29360211562E+02 -0.55259979336E+02 -0.66573765551E+03  0.68025639762E+03  0.12500581265E+03 0.  0.
    9000005    1    3    3    0    0 -0.53006802386E+02 -0.79833986151E+02 -0.35699886196E+03  0.36963816616E+03  0.10000000000E+01 0.  0.
    9000005    1    3    3    0    0  0.23646590824E+02  0.24574006815E+02 -0.30873879356E+03  0.31061823146E+03  0.10000000000E+01 0.  0.
         21    1    1    2  502  501  0.29360211562E+02  0.55259979336E+02 -0.21697887017E+03  0.22582187103E+03  0.00000000000E+00 0. -1.
<mgrwt>
<rscale>  1 0.13979321E+03</rscale>
<asrwt>0</asrwt>
<pdfrwt beam="1">  1        4 0.17970578E-02 0.13979321E+03</pdfrwt>
<pdfrwt beam="2">  1       -4 0.13759955E+00 0.13979321E+03</pdfrwt>
<totfact> 0.79350232E+02</totfact>
</mgrwt>
</event>
<event>
 6    4  0.2103460E-003  0.1270943E+03  0.7818608E-02  0.1231832E+00
         -4   -1    0    0    0  501 -0.00000000000E+00  0.00000000000E+00  0.13361729625E+02  0.13421949135E+02  0.12700000000E+01 0. -1.
          4   -1    0    0  502    0  0.00000000000E+00 -0.00000000000E+00 -0.52870589734E+03  0.52870742266E+03  0.12700000000E+01 0. -1.
         25    2    1    2    0    0 -0.22704886951E+02  0.34484692485E+01 -0.49623969528E+03  0.51225656312E+03  0.12500218979E+03 0.  0.
    9000005    1    3    3    0    0 -0.61628306008E+02  0.67748311329E+01 -0.43642484539E+03  0.44080788572E+03  0.10000000000E+01 0.  0.
    9000005    1    3    3    0    0  0.38923419056E+02 -0.33263618845E+01 -0.59814849888E+02  0.71448677395E+02  0.10000000000E+01 0.  0.
         21    1    1    2  502  501  0.22704886951E+02 -0.34484692485E+01 -0.19104472430E+02  0.29872808681E+02  0.00000000000E+00 0. -1.
<mgrwt>
<rscale>  1 0.12709426E+03</rscale>
<asrwt>0</asrwt>
<pdfrwt beam="2">  1        4 0.81344102E-01 0.12709426E+03</pdfrwt>
<pdfrwt beam="1">  1       -4 0.20604007E-02 0.12709426E+03</pdfrwt>
<totfact> 0.21563935E+03</totfact>
</mgrwt>
</event>
<event>
 6    4  0.2103460E-003  0.1286211E+03  0.7818608E-02  0.1229516E+00
         -4   -1    0    0    0  501 -0.00000000000E+00  0.00000000000E+00  0.25324742916E+02  0.25356567271E+02  0.12700000000E+01 0.  1.
          4   -1    0    0  502    0  0.00000000000E+00 -0.00000000000E+00 -0.24938901216E+03  0.24939224584E+03  0.12700000000E+01 0.  1.
         25    2    1    2    0    0 -0.18459303433E+02  0.24028312246E+02 -0.18474281722E+03  0.22510727544E+03  0.12500108508E+03 0.  0.
    9000005    1    3    3    0    0 -0.24375539498E+02  0.11258180226E+02 -0.20145308292E+03  0.20323695079E+03  0.10000000000E+01 0.  0.
    9000005    1    3    3    0    0  0.59162360655E+01  0.12770132020E+02  0.16710265699E+02  0.21870324660E+02  0.10000000000E+01 0.  0.
         21    1    1    2  502  501  0.18459303433E+02 -0.24028312246E+02 -0.39321452023E+02  0.49641537666E+02  0.00000000000E+00 0. -1.
<mgrwt>
<rscale>  1 0.12862106E+03</rscale>
<asrwt>0</asrwt>
<pdfrwt beam="2">  1        4 0.38370235E-01 0.12862106E+03</pdfrwt>
<pdfrwt beam="1">  1       -4 0.38988113E-02 0.12862106E+03</pdfrwt>
<totfact> 0.38021265E+03</totfact>
</mgrwt>
</event>
<event>
 6    4  0.2103460E-003  0.1275860E+03  0.7818608E-02  0.1231082E+00
          4   -1    0    0  502    0  0.00000000000E+00  0.00000000000E+00  0.67099984393E+03  0.67100104579E+03  0.12700000000E+01 0. -1.
         -4   -1    0    0    0  501 -0.00000000000E+00 -0.00000000000E+00 -0.21459172088E+02  0.21496719906E+02  0.12700000000E+01 0. -1.
         25    2    1    2    0    0 -0.24997742767E+02  0.53627849876E+01  0.65418704404E+03  0.66651247407E+03  0.12499817158E+03 0.  0.
    9000005    1    3    3    0    0  0.29962900853E+02 -0.76066698196E+01  0.44374443544E+02  0.54089999936E+02  0.10000000000E+01 0.  0.
    9000005    1    3    3    0    0 -0.54960643620E+02  0.12969454807E+02  0.60981260049E+03  0.61242247413E+03  0.10000000000E+01 0.  0.
         21    1    1    2  502  501  0.24997742767E+02 -0.53627849876E+01 -0.46463721973E+01  0.25985291626E+02  0.00000000000E+00 0. -1.
<mgrwt>
<rscale>  1 0.12758601E+03</rscale>
<asrwt>0</asrwt>
<pdfrwt beam="1">  1        4 0.10323372E+00 0.12758601E+03</pdfrwt>
<pdfrwt beam="2">  1       -4 0.33043921E-02 0.12758601E+03</pdfrwt>
<totfact> 0.60322696E+02</totfact>
</mgrwt>
</event>
<event>
 6    4  0.2103460E-003  0.1268433E+03  0.7818608E-02  0.1232216E+00
         -4   -1    0    0    0  501 -0.00000000000E+00  0.00000000000E+00  0.94644692539E+02  0.94653212971E+02  0.12700000000E+01 0.  1.
          4   -1    0    0  502    0  0.00000000000E+00 -0.00000000000E+00 -0.58837398699E+02  0.58851103521E+02  0.12700000000E+01 0.  1.
         25    2    1    2    0    0  0.20873042784E+02 -0.52962208865E+01  0.24522096561E+02  0.12919198324E+03  0.12500200575E+03 0.  0.
    9000005    1    3    3    0    0  0.46445442868E+02 -0.48856569053E+02 -0.97833848018E+01  0.68123843998E+02  0.10000000000E+01 0.  0.
    9000005    1    3    3    0    0 -0.25572400084E+02  0.43560348167E+02  0.34305481363E+02  0.61068139238E+02  0.10000000000E+01 0.  0.
         21    1    1    2  502  501 -0.20873042784E+02  0.52962208865E+01  0.11285197279E+02  0.24312333256E+02  0.00000000000E+00 0.  1.
<mgrwt>
<rscale>  1 0.12684335E+03</rscale>
<asrwt>0</asrwt>
<pdfrwt beam="2">  1        4 0.90536171E-02 0.12684335E+03</pdfrwt>
<pdfrwt beam="1">  1       -4 0.14562432E-01 0.12684335E+03</pdfrwt>
<totfact> 0.57153017E+03</totfact>
</mgrwt>
</event>
<event>
 6    4  0.2103460E-003  0.1267034E+03  0.7818608E-02  0.1232431E+00
         -4   -1    0    0    0  501 -0.00000000000E+00  0.00000000000E+00  0.80752506888E+01  0.81745075501E+01  0.12700000000E+01 0.  1.
          4   -1    0    0  502    0  0.00000000000E+00 -0.00000000000E+00 -0.66854306676E+03  0.66854427304E+03  0.12700000000E+01 0.  1.
         25    2    1    2    0    0  0.19807701441E+01  0.20609458323E+02 -0.56964189788E+03  0.58356288631E+03  0.12500030896E+03 0.  0.
    9000005    1    3    3    0    0 -0.23960043073E+01 -0.32673812606E+02 -0.42279420276E+02  0.53496432084E+02  0.10000000000E+01 0.  0.
    9000005    1    3    3    0    0  0.43767744515E+01  0.53283270930E+02 -0.52736247760E+03  0.53006645423E+03  0.10000000000E+01 0.  0.
         21    1    1    2  502  501 -0.19807701441E+01 -0.20609458323E+02 -0.90825918194E+02  0.93155894277E+02  0.00000000000E+00 0. -1.
<mgrwt>
<rscale>  1 0.12670340E+03</rscale>
<asrwt>0</asrwt>
<pdfrwt beam="2">  1        4 0.10286046E+00 0.12670340E+03</pdfrwt>
<pdfrwt beam="1">  1       -4 0.12500747E-02 0.12670340E+03</pdfrwt>
<totfact> 0.27149395E+03</totfact>
</mgrwt>
</event>
<event>
 6    4  0.2103460E-003  0.1268808E+03  0.7818608E-02  0.1232159E+00
          4   -1    0    0  502    0  0.00000000000E+00  0.00000000000E+00  0.69272792304E+03  0.69272908720E+03  0.12700000000E+01 0.  1.
         -4   -1    0    0    0  501 -0.00000000000E+00 -0.00000000000E+00 -0.10128435593E+02  0.10207747429E+02  0.12700000000E+01 0.  1.
         25    2    1    2    0    0 -0.18605895289E+02  0.11296719427E+02  0.65786358136E+03  0.66998747562E+03  0.12499972241E+03 0.  0.
    9000005    1    3    3    0    0  0.47568139090E+02 -0.19642269443E+02  0.33726606126E+03  0.34117142712E+03  0.10000000000E+01 0.  0.
    9000005    1    3    3    0    0 -0.66174034379E+02  0.30938988870E+02  0.32059752009E+03  0.32881604850E+03  0.10000000000E+01 0.  0.
         21    1    1    2  502  501  0.18605895289E+02 -0.11296719427E+02  0.24735906089E+02  0.32949359013E+02  0.00000000000E+00 0.  1.
<mgrwt>
<rscale>  1 0.12688075E+03</rscale>
<asrwt>0</asrwt>
<pdfrwt beam="1">  1        4 0.10657970E+00 0.12688075E+03</pdfrwt>
<pdfrwt beam="2">  1       -4 0.15644116E-02 0.12688075E+03</pdfrwt>
<totfact> 0.17779031E+03</totfact>
</mgrwt>
</event>
<event>
 6    4  0.2103460E-003  0.1315215E+03  0.7818608E-02  0.1225215E+00
          4   -1    0    0  502    0  0.00000000000E+00  0.00000000000E+00  0.85180298449E+02  0.85189765488E+02  0.12700000000E+01 0.  1.
         -4   -1    0    0    0  501 -0.00000000000E+00 -0.00000000000E+00 -0.12190400661E+03  0.12191062188E+03  0.12700000000E+01 0.  1.
         25    2    1    2    0    0 -0.25347004167E+02 -0.32095121920E+02  0.24193558050E+02  0.13372818014E+03  0.12500132176E+03 0.  0.
    9000005    1    3    3    0    0 -0.50456538968E+02 -0.16232687465E+00  0.60813966629E+02  0.79026749976E+02  0.10000000000E+01 0.  0.
    9000005    1    3    3    0    0  0.25109534801E+02 -0.31932795045E+02 -0.36620408579E+02  0.54701430163E+02  0.10000000000E+01 0.  0.
         21    1    1    2  502  501  0.25347004167E+02  0.32095121920E+02 -0.60917266208E+02  0.73372207228E+02  0.00000000000E+00 0. -1.
<mgrwt>
<rscale>  1 0.13152147E+03</rscale>
<asrwt>0</asrwt>
<pdfrwt beam="1">  1        4 0.13105898E-01 0.13152147E+03</pdfrwt>
<pdfrwt beam="2">  1       -4 0.18755700E-01 0.13152147E+03</pdfrwt>
<totfact> 0.19723590E+03</totfact>
</mgrwt>
</event>
<event>
 6    4  0.2103460E-003  0.1275931E+03  0.7818608E-02  0.1231071E+00
          4   -1    0    0  502    0  0.00000000000E+00  0.00000000000E+00  0.20514960991E+03  0.20515354091E+03  0.12700000000E+01 0. -1.
         -4   -1    0    0    0  501 -0.00000000000E+00 -0.00000000000E+00 -0.32263396129E+02  0.32288382272E+02  0.12700000000E+01 0. -1.
         25    2    1    2    0    0  0.25463399728E+02 -0.23063883283E+01  0.16872552004E+03  0.21153795582E+03  0.12500520583E+03 0.  0.
    9000005    1    3    3    0    0  0.15230965652E+02 -0.38754741422E+02  0.32440538822E+01  0.41778417669E+02  0.10000000000E+01 0.  0.
    9000005    1    3    3    0    0  0.10232434077E+02  0.36448353093E+02  0.16548146616E+03  0.16975953815E+03  0.10000000000E+01 0.  0.
         21    1    1    2  502  501 -0.25463399728E+02  0.23063883283E+01  0.41606937453E+01  0.25903967366E+02  0.00000000000E+00 0. -1.
<mgrwt>
<rscale>  1 0.12759313E+03</rscale>
<asrwt>0</asrwt>
<pdfrwt beam="1">  1        4 0.31563704E-01 0.12759313E+03</pdfrwt>
<pdfrwt beam="2">  1       -4 0.49658236E-02 0.12759313E+03</pdfrwt>
<totfact> 0.37585191E+03</totfact>
</mgrwt>
</event>
<event>
 6    4  0.2103460E-003  0.1266039E+03  0.7818608E-02  0.1232584E+00
          4   -1    0    0  502    0  0.00000000000E+00  0.00000000000E+00  0.73867529204E+02  0.73878445914E+02  0.12700000000E+01 0. -1.
         -4   -1    0    0    0  501 -0.00000000000E+00 -0.00000000000E+00 -0.12854189027E+03  0.12854816395E+03  0.12700000000E+01 0. -1.
         25    2    1    2    0    0 -0.36325201750E+01 -0.19736040569E+02  0.17233156615E+02  0.12777141849E+03  0.12500338873E+03 0.  0.
    9000005    1    3    3    0    0 -0.57044171858E+02 -0.65000681045E+01  0.38099820858E+02  0.68912152613E+02  0.10000000000E+01 0.  0.
    9000005    1    3    3    0    0  0.53411651683E+02 -0.13235972465E+02 -0.20866664243E+02  0.58859265874E+02  0.10000000000E+01 0.  0.
         21    1    1    2  502  501  0.36325201750E+01  0.19736040569E+02 -0.71907517686E+02  0.74655191380E+02  0.00000000000E+00 0.  1.
<mgrwt>
<rscale>  1 0.12660392E+03</rscale>
<asrwt>0</asrwt>
<pdfrwt beam="1">  1        4 0.11365558E-01 0.12660392E+03</pdfrwt>
<pdfrwt beam="2">  1       -4 0.19776998E-01 0.12660392E+03</pdfrwt>
<totfact> 0.22687766E+03</totfact>
</mgrwt>
</event>
<event>
 6    4  0.2103460E-003  0.1274149E+03  0.7818608E-02  0.1231343E+00
          4   -1    0    0  502    0  0.00000000000E+00  0.00000000000E+00  0.44840266321E+02  0.44858247667E+02  0.12700000000E+01 0. -1.
         -4   -1    0    0    0  501 -0.00000000000E+00 -0.00000000000E+00 -0.29013148089E+03  0.29013426048E+03  0.12700000000E+01 0. -1.
         25    2    1    2    0    0  0.75714174775E+01 -0.23508268125E+02 -0.47991986661E+02  0.13615350200E+03  0.12499832115E+03 0.  0.
    9000005    1    3    3    0    0 -0.38124808073E+02 -0.19087784024E+02 -0.72491529551E+02  0.84106280064E+02  0.10000000000E+01 0.  0.
    9000005    1    3    3    0    0  0.45696225550E+02 -0.44204841014E+01  0.24499542890E+02  0.52047221934E+02  0.10000000000E+01 0.  0.
         21    1    1    2  502  501 -0.75714174775E+01  0.23508268125E+02 -0.19729922791E+03  0.19883900615E+03  0.00000000000E+00 0. -1.
<mgrwt>
<rscale>  1 0.12741486E+03</rscale>
<asrwt>0</asrwt>
<pdfrwt beam="1">  1        4 0.69000997E-02 0.12741486E+03</pdfrwt>
<pdfrwt beam="2">  1       -4 0.44637208E-01 0.12741486E+03</pdfrwt>
<totfact> 0.11224790E+03</totfact>
</mgrwt>
</event>
<event>
 6    4  0.2103460E-003  0.1266918E+03  0.7818608E-02  0.1232449E+00
          4   -1    0    0  502    0  0.00000000000E+00  0.00000000000E+00  0.10343157298E+03  0.10343936963E+03  0.12700000000E+01 0. -1.
         -4   -1    0    0    0  501 -0.00000000000E+00 -0.00000000000E+00 -0.58375000629E+02  0.58388813983E+02  0.12700000000E+01 0. -1.
         25    2    1    2    0    0  0.76831538745E+01 -0.19145721876E+02  0.55952984455E+02  0.13849748889E+03  0.12500091375E+03 0.  0.
    9000005    1    3    3    0    0 -0.53981637184E+02 -0.26996506590E+02  0.45182543623E+02  0.75400867166E+02  0.10000000000E+01 0.  0.
    9000005    1    3    3    0    0  0.61664791059E+02  0.78507847134E+01  0.10770440832E+02  0.63096621722E+02  0.10000000000E+01 0.  0.
         21    1    1    2  502  501 -0.76831538745E+01  0.19145721876E+02 -0.10896412103E+02  0.23330694725E+02  0.00000000000E+00 0.  1.
<mgrwt>
<rscale>  1 0.12669182E+03</rscale>
<asrwt>0</asrwt>
<pdfrwt beam="1">  1        4 0.15914212E-01 0.12669182E+03</pdfrwt>
<pdfrwt beam="2">  1       -4 0.89824318E-02 0.12669182E+03</pdfrwt>
<totfact> 0.49581350E+03</totfact>
</mgrwt>
</event>
<event>
 6    4  0.2103460E-003  0.1307498E+03  0.7818608E-02  0.1226347E+00
         -4   -1    0    0    0  501 -0.00000000000E+00  0.00000000000E+00  0.46873655430E+03  0.46873827478E+03  0.12700000000E+01 0.  1.
          4   -1    0    0  502    0  0.00000000000E+00 -0.00000000000E+00 -0.16577188044E+02  0.16625765049E+02  0.12700000000E+01 0.  1.
         25    2    1    2    0    0 -0.38210486001E+02 -0.31085998333E+01  0.28050987838E+03  0.30948552686E+03  0.12500317930E+03 0.  0.
    9000005    1    3    3    0    0 -0.45585259193E+02  0.55324294476E+02  0.16139125497E+03  0.17659821798E+03  0.10000000000E+01 0.  0.
    9000005    1    3    3    0    0  0.73747731923E+01 -0.58432894309E+02  0.11911862341E+03  0.13288730888E+03  0.10000000000E+01 0.  0.
         21    1    1    2  502  501  0.38210486001E+02  0.31085998333E+01  0.17164948788E+03  0.17587851297E+03  0.00000000000E+00 0.  1.
<mgrwt>
<rscale>  1 0.13074976E+03</rscale>
<asrwt>0</asrwt>
<pdfrwt beam="2">  1        4 0.25542057E-02 0.13074976E+03</pdfrwt>
<pdfrwt beam="1">  1       -4 0.72117184E-01 0.13074976E+03</pdfrwt>
<totfact> 0.20266669E+03</totfact>
</mgrwt>
</event>
<event>
 6    4  0.2103460E-003  0.1274326E+03  0.7818608E-02  0.1231316E+00
          4   -1    0    0  502    0  0.00000000000E+00  0.00000000000E+00  0.51187310462E+03  0.51187468011E+03  0.12700000000E+01 0.  1.
         -4   -1    0    0    0  501 -0.00000000000E+00 -0.00000000000E+00 -0.12064609197E+02  0.12131269310E+02  0.12700000000E+01 0.  1.
         25    2    1    2    0    0  0.12044023756E+02 -0.21659354166E+02  0.45806141925E+03  0.47545695870E+03  0.12499947854E+03 0.  0.
    9000005    1    3    3    0    0  0.15592005195E+02 -0.72234294194E+02  0.22090353636E+03  0.23293835292E+03  0.10000000000E+01 0.  0.
    9000005    1    3    3    0    0 -0.35479814397E+01  0.50574940028E+02  0.23715788290E+03  0.24251860578E+03  0.10000000000E+01 0.  0.
         21    1    1    2  502  501 -0.12044023756E+02  0.21659354166E+02  0.41747076175E+02  0.48548990723E+02  0.00000000000E+00 0. -1.
<mgrwt>
<rscale>  1 0.12743255E+03</rscale>
<asrwt>0</asrwt>
<pdfrwt beam="1">  1        4 0.78754953E-01 0.12743255E+03</pdfrwt>
<pdfrwt beam="2">  1       -4 0.18613427E-02 0.12743255E+03</pdfrwt>
<totfact> 0.27092184E+03</totfact>
</mgrwt>
</event>
<event>
 6    4  0.2103460E-003  0.1274642E+03  0.7818608E-02  0.1231268E+00
          4   -1    0    0  502    0  0.00000000000E+00  0.00000000000E+00  0.94056806144E+01  0.94910340754E+01  0.12700000000E+01 0. -1.
         -4   -1    0    0    0  501 -0.00000000000E+00 -0.00000000000E+00 -0.77600072215E+03  0.77600176139E+03  0.12700000000E+01 0. -1.
         25    2    1    2    0    0  0.20671286777E+02  0.13987321687E+02 -0.44401219292E+03  0.46194582594E+03  0.12499668547E+03 0.  0.
    9000005    1    3    3    0    0  0.24849644046E+02 -0.65169753453E+01 -0.43983263923E+03  0.44058339314E+03  0.10000000000E+01 0.  0.
    9000005    1    3    3    0    0 -0.41783572684E+01  0.20504297032E+02 -0.41795536888E+01  0.21362432804E+02  0.10000000000E+01 0.  0.
         21    1    1    2  502  501 -0.20671286777E+02 -0.13987321687E+02 -0.32258284861E+03  0.32354696952E+03  0.00000000000E+00 0. -1.
<mgrwt>
<rscale>  1 0.12746419E+03</rscale>
<asrwt>0</asrwt>
<pdfrwt beam="1">  1        4 0.14536740E-02 0.12746419E+03</pdfrwt>
<pdfrwt beam="2">  1       -4 0.11939132E+00 0.12746419E+03</pdfrwt>
<totfact> 0.15220195E+03</totfact>
</mgrwt>
</event>
<event>
 6    4  0.2103460E-003  0.1331224E+03  0.7818608E-02  0.1222895E+00
         -4   -1    0    0    0  501 -0.00000000000E+00  0.00000000000E+00  0.15504687408E+03  0.15505207532E+03  0.12700000000E+01 0. -1.
          4   -1    0    0  502    0  0.00000000000E+00 -0.00000000000E+00 -0.56069847352E+02  0.56084228461E+02  0.12700000000E+01 0. -1.
         25    2    1    2    0    0 -0.45786244631E+02 -0.13971450053E+01  0.45410896352E+02  0.14065465699E+03  0.12499300306E+03 0.  0.
    9000005    1    3    3    0    0 -0.67383532394E+02 -0.33801616942E+02 -0.65906294462E+01  0.75680421129E+02  0.10000000000E+01 0.  0.
    9000005    1    3    3    0    0  0.21597287763E+02  0.32404471937E+02  0.52001525798E+02  0.64974235859E+02  0.10000000000E+01 0.  0.
         21    1    1    2  502  501  0.45786244631E+02  0.13971450053E+01  0.53566130376E+02  0.70481646796E+02  0.00000000000E+00 0. -1.
<mgrwt>
<rscale>  1 0.13312244E+03</rscale>
<asrwt>0</asrwt>
<pdfrwt beam="2">  1        4 0.86276369E-02 0.13312244E+03</pdfrwt>
<pdfrwt beam="1">  1       -4 0.23854871E-01 0.13312244E+03</pdfrwt>
<totfact> 0.25976177E+03</totfact>
</mgrwt>
</event>
<event>
 6    4  0.2103460E-003  0.1280999E+03  0.7818608E-02  0.1230303E+00
          4   -1    0    0  502    0  0.00000000000E+00  0.00000000000E+00  0.70608767716E+01  0.71741815411E+01  0.12700000000E+01 0.  1.
         -4   -1    0    0    0  501 -0.00000000000E+00 -0.00000000000E+00 -0.91671222313E+03  0.91671310285E+03  0.12700000000E+01 0.  1.
         25    2    1    2    0    0  0.26162100458E+02 -0.10041185789E+02 -0.63377279168E+03  0.64658914548E+03  0.12499716263E+03 0.  0.
    9000005    1    3    3    0    0 -0.16871066044E+02  0.36970450269E+02 -0.86034854838E+02  0.95154838603E+02  0.10000000000E+01 0.  0.
    9000005    1    3    3    0    0  0.43033166502E+02 -0.47011636058E+02 -0.54773793684E+03  0.55143430687E+03  0.10000000000E+01 0.  0.
         21    1    1    2  502  501 -0.26162100458E+02  0.10041185789E+02 -0.27587855468E+03  0.27729813891E+03  0.00000000000E+00 0.  1.
<mgrwt>
<rscale>  1 0.12809985E+03</rscale>
<asrwt>0</asrwt>
<pdfrwt beam="1">  1        4 0.10950729E-02 0.12809985E+03</pdfrwt>
<pdfrwt beam="2">  1       -4 0.14104134E+00 0.12809985E+03</pdfrwt>
<totfact> 0.15566313E+03</totfact>
</mgrwt>
</event>
<event>
 6    4  0.2103460E-003  0.1406935E+03  0.7818608E-02  0.1212399E+00
         -4   -1    0    0    0  501 -0.00000000000E+00  0.00000000000E+00  0.40422365114E+03  0.40422564620E+03  0.12700000000E+01 0. -1.
          4   -1    0    0  502    0  0.00000000000E+00 -0.00000000000E+00 -0.30907661500E+02  0.30933742731E+02  0.12700000000E+01 0. -1.
         25    2    1    2    0    0  0.30795734264E+02  0.56753760421E+02  0.16384753499E+03  0.21596449833E+03  0.12500113297E+03 0.  0.
    9000005    1    3    3    0    0  0.60928001244E+02 -0.13617239964E+02  0.90438105836E+02  0.10989859666E+03  0.10000000000E+01 0.  0.
    9000005    1    3    3    0    0 -0.30132266980E+02  0.70371000384E+02  0.73409429153E+02  0.10606590167E+03  0.10000000000E+01 0.  0.
         21    1    1    2  502  501 -0.30795734264E+02 -0.56753760421E+02  0.20946845466E+03  0.21919489060E+03  0.00000000000E+00 0. -1.
<mgrwt>
<rscale>  1 0.14069346E+03</rscale>
<asrwt>0</asrwt>
<pdfrwt beam="2">  1        4 0.47571851E-02 0.14069346E+03</pdfrwt>
<pdfrwt beam="1">  1       -4 0.62190406E-01 0.14069346E+03</pdfrwt>
<totfact> 0.10594840E+03</totfact>
</mgrwt>
</event>
<event>
 6    4  0.2103460E-003  0.1297844E+03  0.7818608E-02  0.1227776E+00
         -4   -1    0    0    0  501 -0.00000000000E+00  0.00000000000E+00  0.65649176940E+02  0.65661460028E+02  0.12700000000E+01 0. -1.
          4   -1    0    0  502    0  0.00000000000E+00 -0.00000000000E+00 -0.92401245708E+03  0.92401332985E+03  0.12700000000E+01 0. -1.
         25    2    1    2    0    0 -0.34376890241E+02 -0.60161608516E+01 -0.91445142271E+03  0.92361538850E+03  0.12500406638E+03 0.  0.
    9000005    1    3    3    0    0 -0.71677199657E+02 -0.41667492020E+01 -0.31848875293E+03  0.32648287627E+03  0.10000000000E+01 0.  0.
    9000005    1    3    3    0    0  0.37300309416E+02 -0.18494116496E+01 -0.59596266977E+03  0.59713251224E+03  0.10000000000E+01 0.  0.
         21    1    1    2  502  501  0.34376890241E+02  0.60161608516E+01  0.56088142565E+02  0.66059401378E+02  0.00000000000E+00 0. -1.
<mgrwt>
<rscale>  1 0.12978436E+03</rscale>
<asrwt>0</asrwt>
<pdfrwt beam="2">  1        4 0.14215677E+00 0.12978436E+03</pdfrwt>
<pdfrwt beam="1">  1       -4 0.10100886E-01 0.12978436E+03</pdfrwt>
<totfact> 0.45704885E+01</totfact>
</mgrwt>
</event>
<event>
 6    4  0.2103460E-003  0.1280044E+03  0.7818608E-02  0.1230447E+00
          4   -1    0    0  502    0  0.00000000000E+00  0.00000000000E+00  0.11563693852E+03  0.11564391230E+03  0.12700000000E+01 0.  1.
         -4   -1    0    0    0  501 -0.00000000000E+00 -0.00000000000E+00 -0.81724856812E+02  0.81734724083E+02  0.12700000000E+01 0.  1.
         25    2    1    2    0    0  0.16933645241E+02  0.21729876794E+02  0.74664064729E+02  0.14818859667E+03  0.12500480685E+03 0.  0.
    9000005    1    3    3    0    0 -0.39999204366E+02 -0.26413329165E+02  0.88951714146E+01  0.48761915282E+02  0.10000000000E+01 0.  0.
    9000005    1    3    3    0    0  0.56932849607E+02  0.48143205959E+02  0.65768893314E+02  0.99426681390E+02  0.10000000000E+01 0.  0.
         21    1    1    2  502  501 -0.16933645241E+02 -0.21729876794E+02 -0.40751983017E+02  0.49190039707E+02  0.00000000000E+00 0.  1.
<mgrwt>
<rscale>  1 0.12800444E+03</rscale>
<asrwt>0</asrwt>
<pdfrwt beam="1">  1        4 0.17791594E-01 0.12800444E+03</pdfrwt>
<pdfrwt beam="2">  1       -4 0.12574350E-01 0.12800444E+03</pdfrwt>
<totfact> 0.23116735E+03</totfact>
</mgrwt>
</event>
<event>
 6    4  0.2103460E-003  0.1269146E+03  0.7818608E-02  0.1232107E+00
          4   -1    0    0  502    0  0.00000000000E+00  0.00000000000E+00  0.67048025338E+01  0.68240220557E+01  0.12700000000E+01 0.  1.
         -4   -1    0    0    0  501 -0.00000000000E+00 -0.00000000000E+00 -0.85565578452E+03  0.85565672702E+03  0.12700000000E+01 0.  1.
         25    2    1    2    0    0  0.20027118040E+02 -0.89741029046E+01 -0.64617457673E+03  0.65852023694E+03  0.12500279543E+03 0.  0.
    9000005    1    3    3    0    0 -0.46391136786E+02 -0.13875521334E+02 -0.14351445373E+03  0.15146638602E+03  0.10000000000E+01 0.  0.
    9000005    1    3    3    0    0  0.66418254825E+02  0.49014184295E+01 -0.50266012300E+03  0.50705385092E+03  0.10000000000E+01 0.  0.
         21    1    1    2  502  501 -0.20027118040E+02  0.89741029046E+01 -0.20277640526E+03  0.20396051213E+03  0.00000000000E+00 0.  1.
<mgrwt>
<rscale>  1 0.12691461E+03</rscale>
<asrwt>0</asrwt>
<pdfrwt beam="1">  1        4 0.10407520E-02 0.12691461E+03</pdfrwt>
<pdfrwt beam="2">  1       -4 0.13164851E+00 0.12691461E+03</pdfrwt>
<totfact> 0.19889149E+03</totfact>
</mgrwt>
</event>
<event>
 6    4  0.2103460E-003  0.2013075E+03  0.7818608E-02  0.1148641E+00
         -4   -1    0    0    0  501 -0.00000000000E+00  0.00000000000E+00  0.32666958520E+02  0.32691636223E+02  0.12700000000E+01 0. -1.
          4   -1    0    0  502    0  0.00000000000E+00 -0.00000000000E+00 -0.11285510131E+04  0.11285517277E+04  0.12700000000E+01 0. -1.
         25    2    1    2    0    0 -0.15649191772E+03 -0.20249463568E+02 -0.81064308414E+03  0.83526457273E+03  0.12499974202E+03 0.  0.
    9000005    1    3    3    0    0 -0.14034041761E+03 -0.62339739413E+02 -0.67771870519E+03  0.69489950302E+03  0.10000000000E+01 0.  0.
    9000005    1    3    3    0    0 -0.16151500103E+02  0.42090275844E+02 -0.13292437895E+03  0.14036506971E+03  0.10000000000E+01 0.  0.
         21    1    1    2  502  501  0.15649191772E+03  0.20249463568E+02 -0.28524097045E+03  0.32597879119E+03  0.00000000000E+00 0. -1.
<mgrwt>
<rscale>  1 0.20130747E+03</rscale>
<asrwt>0</asrwt>
<pdfrwt beam="2">  1        4 0.17362516E+00 0.20130747E+03</pdfrwt>
<pdfrwt beam="1">  1       -4 0.50276400E-02 0.20130747E+03</pdfrwt>
<totfact> 0.90944160E+01</totfact>
</mgrwt>
</event>
<event>
 6    4  0.2103460E-003  0.1270196E+03  0.7818608E-02  0.1231946E+00
         -4   -1    0    0    0  501 -0.00000000000E+00  0.00000000000E+00  0.15834301017E+03  0.15834810314E+03  0.12700000000E+01 0.  1.
          4   -1    0    0  502    0  0.00000000000E+00 -0.00000000000E+00 -0.39052005568E+02  0.39072650779E+02  0.12700000000E+01 0.  1.
         25    2    1    2    0    0  0.21368385069E+02 -0.72426617043E+01  0.74468031810E+02  0.14723945343E+03  0.12499961943E+03 0.  0.
    9000005    1    3    3    0    0 -0.36298408728E+02  0.29200174764E+02  0.62524371678E+02  0.77977700249E+02  0.10000000000E+01 0.  0.
    9000005    1    3    3    0    0  0.57666793797E+02 -0.36442836468E+02  0.11943660133E+02  0.69261753184E+02  0.10000000000E+01 0.  0.
         21    1    1    2  502  501 -0.21368385069E+02  0.72426617043E+01  0.44822972791E+02  0.50181300490E+02  0.00000000000E+00 0.  1.
<mgrwt>
<rscale>  1 0.12701956E+03</rscale>
<asrwt>0</asrwt>
<pdfrwt beam="2">  1        4 0.60099806E-02 0.12701956E+03</pdfrwt>
<pdfrwt beam="1">  1       -4 0.24362443E-01 0.12701956E+03</pdfrwt>
<totfact> 0.44760890E+03</totfact>
</mgrwt>
</event>
<event>
 6    4  0.2103460E-003  0.1569646E+03  0.7818608E-02  0.1192167E+00
          4   -1    0    0  502    0  0.00000000000E+00  0.00000000000E+00  0.25347681060E+03  0.25347999213E+03  0.12700000000E+01 0.  1.
         -4   -1    0    0    0  501 -0.00000000000E+00 -0.00000000000E+00 -0.11970166728E+03  0.11970840425E+03  0.12700000000E+01 0.  1.
         25    2    1    2    0    0  0.94936155007E+02  0.88325230977E+00  0.20233530183E+03  0.25608097135E+03  0.12499694339E+03 0.  0.
    9000005    1    3    3    0    0  0.11022955413E+03 -0.34544816296E+02  0.17099434945E+03  0.20635882942E+03  0.10000000000E+01 0.  0.
    9000005    1    3    3    0    0 -0.15293399121E+02  0.35428068605E+02  0.31340952386E+02  0.49722141931E+02  0.10000000000E+01 0.  0.
         21    1    1    2  502  501 -0.94936155007E+02 -0.88325230977E+00 -0.68560158514E+02  0.11710742503E+03  0.00000000000E+00 0.  1.
<mgrwt>
<rscale>  1 0.15696461E+03</rscale>
<asrwt>0</asrwt>
<pdfrwt beam="1">  1        4 0.38997195E-01 0.15696461E+03</pdfrwt>
<pdfrwt beam="2">  1       -4 0.18416404E-01 0.15696461E+03</pdfrwt>
<totfact> 0.28619534E+02</totfact>
</mgrwt>
</event>
<event>
 6    4  0.2103460E-003  0.1287518E+03  0.7818608E-02  0.1229320E+00
         -4   -1    0    0    0  501 -0.00000000000E+00  0.00000000000E+00  0.72763732967E+02  0.72774815254E+02  0.12700000000E+01 0.  1.
          4   -1    0    0  502    0  0.00000000000E+00 -0.00000000000E+00 -0.10360417094E+03  0.10361195460E+03  0.12700000000E+01 0.  1.
         25    2    1    2    0    0  0.26813598841E+02 -0.15265663678E+02 -0.52124861392E+02  0.13890295667E+03  0.12500008251E+03 0.  0.
    9000005    1    3    3    0    0 -0.12563579795E+02 -0.61043000676E+01 -0.85394670070E+02  0.86535285826E+02  0.10000000000E+01 0.  0.
    9000005    1    3    3    0    0  0.39377178636E+02 -0.91613636106E+01  0.33269808678E+02  0.52367670848E+02  0.10000000000E+01 0.  0.
         21    1    1    2  502  501 -0.26813598841E+02  0.15265663678E+02  0.21284423419E+02  0.37483813182E+02  0.00000000000E+00 0.  1.
<mgrwt>
<rscale>  1 0.12875182E+03</rscale>
<asrwt>0</asrwt>
<pdfrwt beam="2">  1        4 0.15940554E-01 0.12875182E+03</pdfrwt>
<pdfrwt beam="1">  1       -4 0.11195872E-01 0.12875182E+03</pdfrwt>
<totfact> 0.34258297E+03</totfact>
</mgrwt>
</event>
<event>
 6    4  0.2103460E-003  0.1320033E+03  0.7818608E-02  0.1224513E+00
         -4   -1    0    0    0  501 -0.00000000000E+00  0.00000000000E+00  0.63835084748E+02  0.63847716833E+02  0.12700000000E+01 0.  1.
          4   -1    0    0  502    0  0.00000000000E+00 -0.00000000000E+00 -0.12798579257E+03  0.12799209350E+03  0.12700000000E+01 0.  1.
         25    2    1    2    0    0  0.41059502852E+02  0.10687370580E+02 -0.69321252193E+02  0.14909829430E+03  0.12499905077E+03 0.  0.
    9000005    1    3    3    0    0 -0.35718791196E+02  0.36417480443E+02 -0.27183098616E+02  0.57809910713E+02  0.10000000000E+01 0.  0.
    9000005    1    3    3    0    0  0.76778294048E+02 -0.25730109863E+02 -0.42138153577E+02  0.91288383584E+02  0.10000000000E+01 0.  0.
         21    1    1    2  502  501 -0.41059502852E+02 -0.10687370580E+02  0.51705443716E+01  0.42741516041E+02  0.00000000000E+00 0.  1.
<mgrwt>
<rscale>  1 0.13200328E+03</rscale>
<asrwt>0</asrwt>
<pdfrwt beam="2">  1        4 0.19691578E-01 0.13200328E+03</pdfrwt>
<pdfrwt beam="1">  1       -4 0.98222387E-02 0.13200328E+03</pdfrwt>
<totfact> 0.29555154E+03</totfact>
</mgrwt>
</event>
<event>
 6    4  0.2103460E-003  0.1413595E+03  0.7818608E-02  0.1211511E+00
         -4   -1    0    0    0  501 -0.00000000000E+00  0.00000000000E+00  0.82759418791E+02  0.82769162728E+02  0.12700000000E+01 0. -1.
          4   -1    0    0  502    0  0.00000000000E+00 -0.00000000000E+00 -0.13159192865E+03  0.13159805693E+03  0.12700000000E+01 0. -1.
         25    2    1    2    0    0 -0.63878942386E+02  0.16600143291E+02 -0.21735873678E+02  0.14302079907E+03  0.12500566677E+03 0.  0.
    9000005    1    3    3    0    0 -0.50806413959E+02  0.13282181611E+02  0.48502270777E+02  0.71492505329E+02  0.10000000000E+01 0.  0.
    9000005    1    3    3    0    0 -0.13072528427E+02  0.33179616797E+01 -0.70238144455E+02  0.71528293743E+02  0.10000000000E+01 0.  0.
         21    1    1    2  502  501  0.63878942386E+02 -0.16600143291E+02 -0.27096636185E+02  0.71346420584E+02  0.00000000000E+00 0. -1.
<mgrwt>
<rscale>  1 0.14135947E+03</rscale>
<asrwt>0</asrwt>
<pdfrwt beam="2">  1        4 0.20246133E-01 0.14135947E+03</pdfrwt>
<pdfrwt beam="1">  1       -4 0.12733439E-01 0.14135947E+03</pdfrwt>
<totfact> 0.18359496E+03</totfact>
</mgrwt>
</event>
<event>
 6    4  0.2103460E-003  0.1271378E+03  0.7818608E-02  0.1231766E+00
         -4   -1    0    0    0  501 -0.00000000000E+00  0.00000000000E+00  0.36474151450E+03  0.36474372551E+03  0.12700000000E+01 0.  1.
          4   -1    0    0  502    0  0.00000000000E+00 -0.00000000000E+00 -0.18347578675E+02  0.18391480181E+02  0.12700000000E+01 0.  1.
         25    2    1    2    0    0 -0.18270969871E+02  0.14339433698E+02  0.21559605116E+03  0.25029118313E+03  0.12499828549E+03 0.  0.
    9000005    1    3    3    0    0  0.24682984205E+02  0.58758278318E+02  0.89639221139E+02  0.10999079483E+03  0.10000000000E+01 0.  0.
    9000005    1    3    3    0    0 -0.42953954076E+02 -0.44418844620E+02  0.12595683002E+03  0.14030038830E+03  0.10000000000E+01 0.  0.
         21    1    1    2  502  501  0.18270969871E+02 -0.14339433698E+02  0.13079788466E+03  0.13284402256E+03  0.00000000000E+00 0. -1.
<mgrwt>
<rscale>  1 0.12713780E+03</rscale>
<asrwt>0</asrwt>
<pdfrwt beam="2">  1        4 0.28262516E-02 0.12713780E+03</pdfrwt>
<pdfrwt beam="1">  1       -4 0.56117624E-01 0.12713780E+03</pdfrwt>
<totfact> 0.29265495E+03</totfact>
</mgrwt>
</event>
<event>
 6    4  0.2103460E-003  0.1517225E+03  0.7818608E-02  0.1198372E+00
         -4   -1    0    0    0  501 -0.00000000000E+00  0.00000000000E+00  0.18550519687E+04  0.18550524034E+04  0.12700000000E+01 0. -1.
          4   -1    0    0  502    0  0.00000000000E+00 -0.00000000000E+00 -0.76770246612E+01  0.77813628401E+01  0.12700000000E+01 0. -1.
         25    2    1    2    0    0 -0.34848676197E+02 -0.78650415980E+02  0.10673835230E+04  0.10781128381E+04  0.12497755161E+03 0.  0.
    9000005    1    3    3    0    0 -0.17784390235E+02  0.25293250530E+02  0.50513894507E+03  0.50608535533E+03  0.10000000000E+01 0.  0.
    9000005    1    3    3    0    0 -0.17064285962E+02 -0.10394366651E+03  0.56224457792E+03  0.57202748278E+03  0.10000000000E+01 0.  0.
         21    1    1    2  502  501  0.34848676197E+02  0.78650415980E+02  0.77999142106E+03  0.78472092816E+03  0.00000000000E+00 0. -1.
<mgrwt>
<rscale>  1 0.15172247E+03</rscale>
<asrwt>0</asrwt>
<pdfrwt beam="2">  1        4 0.11891404E-02 0.15172247E+03</pdfrwt>
<pdfrwt beam="1">  1       -4 0.28540061E+00 0.15172247E+03</pdfrwt>
<totfact> 0.17605515E+02</totfact>
</mgrwt>
</event>
<event>
 6    4  0.2103460E-003  0.1494672E+03  0.7818608E-02  0.1201129E+00
         -4   -1    0    0    0  501 -0.00000000000E+00  0.00000000000E+00  0.67779175040E+02  0.67791072193E+02  0.12700000000E+01 0.  1.
          4   -1    0    0  502    0  0.00000000000E+00 -0.00000000000E+00 -0.21162418557E+03  0.21162799630E+03  0.12700000000E+01 0.  1.
         25    2    1    2    0    0  0.24776387639E+02 -0.78182426684E+02 -0.12598952461E+03  0.19548350032E+03  0.12495630181E+03 0.  0.
    9000005    1    3    3    0    0  0.27850167343E+02  0.20963118111E+02  0.32419187030E+00  0.34873904891E+02  0.10000000000E+01 0.  0.
    9000005    1    3    3    0    0 -0.30737797046E+01 -0.99145544794E+02 -0.12631371648E+03  0.16060959543E+03  0.10000000000E+01 0.  0.
         21    1    1    2  502  501 -0.24776387639E+02  0.78182426684E+02 -0.17855485921E+02  0.83935568170E+02  0.00000000000E+00 0.  1.
<mgrwt>
<rscale>  1 0.14946718E+03</rscale>
<asrwt>0</asrwt>
<pdfrwt beam="2">  1        4 0.32558775E-01 0.14946718E+03</pdfrwt>
<pdfrwt beam="1">  1       -4 0.10428774E-01 0.14946718E+03</pdfrwt>
<totfact> 0.10814347E+03</totfact>
</mgrwt>
</event>
<event>
 6    4  0.2103460E-003  0.1309176E+03  0.7818608E-02  0.1226100E+00
         -4   -1    0    0    0  501 -0.00000000000E+00  0.00000000000E+00  0.25911738249E+03  0.25912049477E+03  0.12700000000E+01 0.  1.
          4   -1    0    0  502    0  0.00000000000E+00 -0.00000000000E+00 -0.33970477362E+02  0.33994208804E+02  0.12700000000E+01 0.  1.
         25    2    1    2    0    0 -0.27881375669E+02  0.27141803888E+02  0.10813151084E+03  0.16979945258E+03  0.12500152732E+03 0.  0.
    9000005    1    3    3    0    0  0.38977132420E+02  0.44881879542E+02  0.65871251031E+02  0.88733430427E+02  0.10000000000E+01 0.  0.
    9000005    1    3    3    0    0 -0.66858508089E+02 -0.17740075654E+02  0.42260259809E+02  0.81066022150E+02  0.10000000000E+01 0.  0.
         21    1    1    2  502  501  0.27881375669E+02 -0.27141803888E+02  0.11701539429E+03  0.12331525100E+03  0.00000000000E+00 0.  1.
<mgrwt>
<rscale>  1 0.13091765E+03</rscale>
<asrwt>0</asrwt>
<pdfrwt beam="2">  1        4 0.52282925E-02 0.13091765E+03</pdfrwt>
<pdfrwt beam="1">  1       -4 0.39866275E-01 0.13091765E+03</pdfrwt>
<totfact> 0.22171454E+03</totfact>
</mgrwt>
</event>
<event>
 6    4  0.2103460E-003  0.1342746E+03  0.7818608E-02  0.1221247E+00
         -4   -1    0    0    0  501 -0.00000000000E+00  0.00000000000E+00  0.54836079900E+02  0.54850784486E+02  0.12700000000E+01 0. -1.
          4   -1    0    0  502    0  0.00000000000E+00 -0.00000000000E+00 -0.22065872253E+03  0.22066237724E+03  0.12700000000E+01 0. -1.
         25    2    1    2    0    0 -0.36958265883E+02  0.32225280940E+02 -0.17991167496E+03  0.22449470447E+03  0.12500111759E+03 0.  0.
    9000005    1    3    3    0    0  0.45610455699E+02  0.22951410784E+02 -0.64081890623E+02  0.81942477580E+02  0.10000000000E+01 0.  0.
    9000005    1    3    3    0    0 -0.82568721582E+02  0.92738701557E+01 -0.11582978434E+03  0.14255222689E+03  0.10000000000E+01 0.  0.
         21    1    1    2  502  501  0.36958265883E+02 -0.32225280940E+02  0.14089032331E+02  0.51018457255E+02  0.00000000000E+00 0. -1.
<mgrwt>
<rscale>  1 0.13427458E+03</rscale>
<asrwt>0</asrwt>
<pdfrwt beam="2">  1        4 0.33948908E-01 0.13427458E+03</pdfrwt>
<pdfrwt beam="1">  1       -4 0.84377324E-02 0.13427458E+03</pdfrwt>
<totfact> 0.13926991E+03</totfact>
</mgrwt>
</event>
<event>
 6    4  0.2103460E-003  0.1486376E+03  0.7818608E-02  0.1202157E+00
         -4   -1    0    0    0  501 -0.00000000000E+00  0.00000000000E+00  0.79267741381E+02  0.79277914475E+02  0.12700000000E+01 0.  1.
          4   -1    0    0  502    0  0.00000000000E+00 -0.00000000000E+00 -0.29392847804E+03  0.29393122173E+03  0.12700000000E+01 0.  1.
         25    2    1    2    0    0  0.34534393125E+02  0.72625947022E+02 -0.24557402385E+03  0.28705355708E+03  0.12500396374E+03 0.  0.
    9000005    1    3    3    0    0 -0.28563158772E+02  0.73700045230E+02 -0.93715707753E+02  0.12260173158E+03  0.10000000000E+01 0.  0.
    9000005    1    3    3    0    0  0.63097551897E+02 -0.10740982072E+01 -0.15185831610E+03  0.16445182550E+03  0.10000000000E+01 0.  0.
         21    1    1    2  502  501 -0.34534393125E+02 -0.72625947022E+02  0.30913287188E+02  0.86155579124E+02  0.00000000000E+00 0.  1.
<mgrwt>
<rscale>  1 0.14863762E+03</rscale>
<asrwt>0</asrwt>
<pdfrwt beam="2">  1        4 0.45220759E-01 0.14863762E+03</pdfrwt>
<pdfrwt beam="1">  1       -4 0.12196031E-01 0.14863762E+03</pdfrwt>
<totfact> 0.43446771E+02</totfact>
</mgrwt>
</event>
<event>
 6    4  0.2103460E-003  0.1290727E+03  0.7818608E-02  0.1228838E+00
          4   -1    0    0  502    0  0.00000000000E+00  0.00000000000E+00  0.10209108937E+04  0.10209116836E+04  0.12700000000E+01 0.  1.
         -4   -1    0    0    0  501 -0.00000000000E+00 -0.00000000000E+00 -0.65272830460E+01  0.66496860048E+01  0.12700000000E+01 0.  1.
         25    2    1    2    0    0  0.22155635459E+02 -0.23300330610E+02  0.87815027823E+03  0.88758530578E+03  0.12500394511E+03 0.  0.
    9000005    1    3    3    0    0 -0.33541567205E+02  0.22034382161E+02  0.55962834691E+03  0.56106633957E+03  0.10000000000E+01 0.  0.
    9000005    1    3    3    0    0  0.55697202664E+02 -0.45334712771E+02  0.31852193131E+03  0.32651896621E+03  0.10000000000E+01 0.  0.
         21    1    1    2  502  501 -0.22155635459E+02  0.23300330610E+02  0.13623333242E+03  0.13997606386E+03  0.00000000000E+00 0.  1.
<mgrwt>
<rscale>  1 0.12907271E+03</rscale>
<asrwt>0</asrwt>
<pdfrwt beam="1">  1        4 0.15707253E+00 0.12907271E+03</pdfrwt>
<pdfrwt beam="2">  1       -4 0.10136748E-02 0.12907271E+03</pdfrwt>
<totfact> 0.13327596E+03</totfact>
</mgrwt>
</event>
<event>
 6    4  0.2103460E-003  0.1284790E+03  0.7818608E-02  0.1229730E+00
         -4   -1    0    0    0  501 -0.00000000000E+00  0.00000000000E+00  0.58382590963E+02  0.58396402523E+02  0.12700000000E+01 0.  1.
          4   -1    0    0  502    0  0.00000000000E+00 -0.00000000000E+00 -0.12596817294E+03  0.12597457479E+03  0.12700000000E+01 0.  1.
         25    2    1    2    0    0  0.24217115692E+02  0.17239833093E+02 -0.80869108686E+02  0.15181129949E+03  0.12499270930E+03 0.  0.
    9000005    1    3    3    0    0 -0.18287001263E+02  0.41652020995E+02  0.11770883453E+02  0.46998499609E+02  0.10000000000E+01 0.  0.
    9000005    1    3    3    0    0  0.42504116956E+02 -0.24412187903E+02 -0.92639992139E+02  0.10481279989E+03  0.10000000000E+01 0.  0.
         21    1    1    2  502  501 -0.24217115692E+02 -0.17239833093E+02  0.13283526713E+02  0.32559677816E+02  0.00000000000E+00 0.  1.
<mgrwt>
<rscale>  1 0.12847902E+03</rscale>
<asrwt>0</asrwt>
<pdfrwt beam="2">  1        4 0.19381274E-01 0.12847902E+03</pdfrwt>
<pdfrwt beam="1">  1       -4 0.89834920E-02 0.12847902E+03</pdfrwt>
<totfact> 0.35083242E+03</totfact>
</mgrwt>
</event>
<event>
 6    4  0.2103460E-003  0.1288895E+03  0.7818608E-02  0.1229113E+00
         -4   -1    0    0    0  501 -0.00000000000E+00  0.00000000000E+00  0.24623368782E+02  0.24656098438E+02  0.12700000000E+01 0. -1.
          4   -1    0    0  502    0  0.00000000000E+00 -0.00000000000E+00 -0.30205021627E+03  0.30205288618E+03  0.12700000000E+01 0. -1.
         25    2    1    2    0    0  0.27205441907E+02 -0.15765672770E+02 -0.16168311842E+03  0.20677023639E+03  0.12499522938E+03 0.  0.
    9000005    1    3    3    0    0  0.21159697092E+02 -0.38808523227E+02 -0.89372265539E+00  0.44222539459E+02  0.10000000000E+01 0.  0.
    9000005    1    3    3    0    0  0.60457448152E+01  0.23042850456E+02 -0.16078939577E+03  0.16254769694E+03  0.10000000000E+01 0.  0.
         21    1    1    2  502  501 -0.27205441907E+02  0.15765672770E+02 -0.11574372907E+03  0.11993874823E+03  0.00000000000E+00 0. -1.
<mgrwt>
<rscale>  1 0.12888949E+03</rscale>
<asrwt>0</asrwt>
<pdfrwt beam="2">  1        4 0.46471984E-01 0.12888949E+03</pdfrwt>
<pdfrwt beam="1">  1       -4 0.37909338E-02 0.12888949E+03</pdfrwt>
<totfact> 0.27205302E+03</totfact>
</mgrwt>
</event>
<event>
 6    4  0.2103460E-003  0.1288783E+03  0.7818608E-02  0.1229130E+00
          4   -1    0    0  502    0  0.00000000000E+00  0.00000000000E+00  0.33542920359E+03  0.33543160782E+03  0.12700000000E+01 0. -1.
         -4   -1    0    0    0  501 -0.00000000000E+00 -0.00000000000E+00 -0.19669285816E+02  0.19710243644E+02  0.12700000000E+01 0. -1.
         25    2    1    2    0    0 -0.31352656552E+02  0.10585035140E+01  0.27505393893E+03  0.30375035201E+03  0.12500199006E+03 0.  0.
    9000005    1    3    3    0    0 -0.51869560912E+02  0.17223828047E+02  0.27199399458E+03  0.27743259486E+03  0.10000000000E+01 0.  0.
    9000005    1    3    3    0    0  0.20516904360E+02 -0.16165324533E+02  0.30599443491E+01  0.26317757146E+02  0.10000000000E+01 0.  0.
         21    1    1    2  502  501  0.31352656552E+02 -0.10585035140E+01  0.40705978846E+02  0.51391499456E+02  0.00000000000E+00 0. -1.
<mgrwt>
<rscale>  1 0.12887826E+03</rscale>
<asrwt>0</asrwt>
<pdfrwt beam="1">  1        4 0.51607829E-01 0.12887826E+03</pdfrwt>
<pdfrwt beam="2">  1       -4 0.30293795E-02 0.12887826E+03</pdfrwt>
<totfact> 0.31303257E+03</totfact>
</mgrwt>
</event>
<event>
 6    4  0.2103460E-003  0.1357444E+03  0.7818608E-02  0.1219173E+00
          4   -1    0    0  502    0  0.00000000000E+00  0.00000000000E+00  0.17182638473E+02  0.17229508550E+02  0.12700000000E+01 0. -1.
         -4   -1    0    0    0  501 -0.00000000000E+00 -0.00000000000E+00 -0.12684036553E+04  0.12684042911E+04  0.12700000000E+01 0. -1.
         25    2    1    2    0    0 -0.11314193646E+02  0.51699218864E+02 -0.26271579829E+03  0.29571290014E+03  0.12500283369E+03 0.  0.
    9000005    1    3    3    0    0 -0.62271445579E+02  0.64007345081E+01 -0.16568099540E+03  0.17711548372E+03  0.10000000000E+01 0.  0.
    9000005    1    3    3    0    0  0.50957251934E+02  0.45298484356E+02 -0.97034802890E+02  0.11859741642E+03  0.10000000000E+01 0.  0.
         21    1    1    2  502  501  0.11314193646E+02 -0.51699218864E+02 -0.98850521852E+03  0.98992089949E+03  0.00000000000E+00 0. -1.
<mgrwt>
<rscale>  1 0.13574435E+03</rscale>
<asrwt>0</asrwt>
<pdfrwt beam="1">  1        4 0.26471381E-02 0.13574435E+03</pdfrwt>
<pdfrwt beam="2">  1       -4 0.19514260E+00 0.13574435E+03</pdfrwt>
<totfact> 0.17266281E+02</totfact>
</mgrwt>
</event>
<event>
 6    4  0.2103460E-003  0.1308396E+03  0.7818608E-02  0.1226215E+00
          4   -1    0    0  502    0  0.00000000000E+00  0.00000000000E+00  0.15349214743E+03  0.15349740136E+03  0.12700000000E+01 0. -1.
         -4   -1    0    0    0  501 -0.00000000000E+00 -0.00000000000E+00 -0.59313796463E+02  0.59327391236E+02  0.12700000000E+01 0. -1.
         25    2    1    2    0    0  0.35583334000E+02  0.15102019994E+02  0.11011830506E+03  0.17101179458E+03  0.12499899243E+03 0.  0.
    9000005    1    3    3    0    0 -0.20810984501E+02  0.13866403045E+02  0.11180292963E+03  0.11456993185E+03  0.10000000000E+01 0.  0.
    9000005    1    3    3    0    0  0.56394318501E+02  0.12356169495E+01 -0.16846245667E+01  0.56441862729E+02  0.10000000000E+01 0.  0.
         21    1    1    2  502  501 -0.35583334000E+02 -0.15102019994E+02 -0.15939954096E+02  0.41812998016E+02  0.00000000000E+00 0. -1.
<mgrwt>
<rscale>  1 0.13083957E+03</rscale>
<asrwt>0</asrwt>
<pdfrwt beam="1">  1        4 0.23615626E-01 0.13083957E+03</pdfrwt>
<pdfrwt beam="2">  1       -4 0.91266494E-02 0.13083957E+03</pdfrwt>
<totfact> 0.23994188E+03</totfact>
</mgrwt>
</event>
<event>
 6    4  0.2103460E-003  0.1325616E+03  0.7818608E-02  0.1223704E+00
          4   -1    0    0  502    0  0.00000000000E+00  0.00000000000E+00  0.11265667524E+03  0.11266383349E+03  0.12700000000E+01 0.  1.
         -4   -1    0    0    0  501 -0.00000000000E+00 -0.00000000000E+00 -0.10526573069E+03  0.10527339150E+03  0.12700000000E+01 0.  1.
         25    2    1    2    0    0  0.23057260854E+02  0.37661671781E+02  0.63129318619E+02  0.14682600827E+03  0.12499010775E+03 0.  0.
    9000005    1    3    3    0    0 -0.81770987739E+01  0.27388823697E+02  0.96091457473E+02  0.10025757232E+03  0.10000000000E+01 0.  0.
    9000005    1    3    3    0    0  0.31234359628E+02  0.10272848083E+02 -0.32962138855E+02  0.46568435952E+02  0.10000000000E+01 0.  0.
         21    1    1    2  502  501 -0.23057260854E+02 -0.37661671781E+02 -0.55738374072E+02  0.71111216722E+02  0.00000000000E+00 0.  1.
<mgrwt>
<rscale>  1 0.13256155E+03</rscale>
<asrwt>0</asrwt>
<pdfrwt beam="1">  1        4 0.17332936E-01 0.13256155E+03</pdfrwt>
<pdfrwt beam="2">  1       -4 0.16195868E-01 0.13256155E+03</pdfrwt>
<totfact> 0.15727669E+03</totfact>
</mgrwt>
</event>
<event>
 6    4  0.2103460E-003  0.1349950E+03  0.7818608E-02  0.1220227E+00
          4   -1    0    0  502    0  0.00000000000E+00  0.00000000000E+00  0.25863441610E+03  0.25863753419E+03  0.12700000000E+01 0. -1.
         -4   -1    0    0    0  501 -0.00000000000E+00 -0.00000000000E+00 -0.57645057081E+02  0.57659045309E+02  0.12700000000E+01 0. -1.
         25    2    1    2    0    0 -0.27338238386E+02  0.43028395722E+02  0.22307337679E+03  0.26074006811E+03  0.12499931829E+03 0.  0.
    9000005    1    3    3    0    0 -0.61371964498E+02 -0.18748153101E+02  0.11463626600E+03  0.13137916408E+03  0.10000000000E+01 0.  0.
    9000005    1    3    3    0    0  0.34033726112E+02  0.61776548824E+02  0.10843711078E+03  0.12936090404E+03  0.10000000000E+01 0.  0.
         21    1    1    2  502  501  0.27338238386E+02 -0.43028395722E+02 -0.22084017767E+02  0.55556511385E+02  0.00000000000E+00 0. -1.
<mgrwt>
<rscale>  1 0.13499501E+03</rscale>
<asrwt>0</asrwt>
<pdfrwt beam="1">  1        4 0.39791226E-01 0.13499501E+03</pdfrwt>
<pdfrwt beam="2">  1       -4 0.88697862E-02 0.13499501E+03</pdfrwt>
<totfact> 0.94233564E+02</totfact>
</mgrwt>
</event>
<event>
 6    4  0.2103460E-003  0.1297745E+03  0.7818608E-02  0.1227791E+00
         -4   -1    0    0    0  501 -0.00000000000E+00  0.00000000000E+00  0.50378569239E+03  0.50378729316E+03  0.12700000000E+01 0.  1.
          4   -1    0    0  502    0  0.00000000000E+00 -0.00000000000E+00 -0.92078783951E+02  0.92087541795E+02  0.12700000000E+01 0.  1.
         25    2    1    2    0    0 -0.34873088860E+02  0.12143811740E+01 -0.45363341337E+02  0.13747455106E+03  0.12499524953E+03 0.  0.
    9000005    1    3    3    0    0 -0.47289008985E+02  0.25880158547E+02 -0.77930682201E+02  0.94764044898E+02  0.10000000000E+01 0.  0.
    9000005    1    3    3    0    0  0.12415920125E+02 -0.24665777373E+02  0.32567340863E+02  0.42710506165E+02  0.10000000000E+01 0.  0.
         21    1    1    2  502  501  0.34873088860E+02 -0.12143811740E+01  0.45707024977E+03  0.45840028390E+03  0.00000000000E+00 0.  1.
<mgrwt>
<rscale>  1 0.12977449E+03</rscale>
<asrwt>0</asrwt>
<pdfrwt beam="2">  1        4 0.14166763E-01 0.12977449E+03</pdfrwt>
<pdfrwt beam="1">  1       -4 0.77506288E-01 0.12977449E+03</pdfrwt>
<totfact> 0.10579854E+02</totfact>
</mgrwt>
</event>
<event>
 6    4  0.2103460E-003  0.1278796E+03  0.7818608E-02  0.1230636E+00
          4   -1    0    0  502    0  0.00000000000E+00  0.00000000000E+00  0.99187815978E+02  0.99195946180E+02  0.12700000000E+01 0. -1.
         -4   -1    0    0    0  501 -0.00000000000E+00 -0.00000000000E+00 -0.63011177341E+02  0.63023974564E+02  0.12700000000E+01 0. -1.
         25    2    1    2    0    0 -0.10575847023E+02  0.24791429881E+02  0.42085591765E+02  0.13462681902E+03  0.12500687913E+03 0.  0.
    9000005    1    3    3    0    0  0.35917828453E+02  0.54952032612E+02  0.10567502840E+01  0.65665310554E+02  0.10000000000E+01 0.  0.
    9000005    1    3    3    0    0 -0.46493675476E+02 -0.30160602732E+02  0.41028841481E+02  0.68961508464E+02  0.10000000000E+01 0.  0.
         21    1    1    2  502  501  0.10575847023E+02 -0.24791429881E+02 -0.59089531279E+01  0.27593101726E+02  0.00000000000E+00 0. -1.
<mgrwt>
<rscale>  1 0.12787957E+03</rscale>
<asrwt>0</asrwt>
<pdfrwt beam="1">  1        4 0.15261274E-01 0.12787957E+03</pdfrwt>
<pdfrwt beam="2">  1       -4 0.96956371E-02 0.12787957E+03</pdfrwt>
<totfact> 0.47059135E+03</totfact>
</mgrwt>
</event>
<event>
 6    4  0.2103460E-003  0.1326886E+03  0.7818608E-02  0.1223520E+00
          4   -1    0    0  502    0  0.00000000000E+00  0.00000000000E+00  0.86171689714E+02  0.86181047848E+02  0.12700000000E+01 0.  1.
         -4   -1    0    0    0  501 -0.00000000000E+00 -0.00000000000E+00 -0.98392184424E+02  0.98400380364E+02  0.12700000000E+01 0.  1.
         25    2    1    2    0    0 -0.30623170070E+02 -0.32304613328E+02  0.13163160336E+02  0.13333987739E+03  0.12499955010E+03 0.  0.
    9000005    1    3    3    0    0 -0.75257467813E+02 -0.41797885912E+02  0.16171538094E+02  0.87597193863E+02  0.10000000000E+01 0.  0.
    9000005    1    3    3    0    0  0.44634297742E+02  0.94932725846E+01 -0.30083777581E+01  0.45742683525E+02  0.10000000000E+01 0.  0.
         21    1    1    2  502  501  0.30623170070E+02  0.32304613328E+02 -0.25383655046E+02  0.51241550825E+02  0.00000000000E+00 0.  1.
<mgrwt>
<rscale>  1 0.13268856E+03</rscale>
<asrwt>0</asrwt>
<pdfrwt beam="1">  1        4 0.13258533E-01 0.13268856E+03</pdfrwt>
<pdfrwt beam="2">  1       -4 0.15138609E-01 0.13268856E+03</pdfrwt>
<totfact> 0.28279701E+03</totfact>
</mgrwt>
</event>
<event>
 6    4  0.2103460E-003  0.1409746E+03  0.7818608E-02  0.1212024E+00
         -4   -1    0    0    0  501 -0.00000000000E+00  0.00000000000E+00  0.12952374495E+03  0.12952997107E+03  0.12700000000E+01 0. -1.
          4   -1    0    0  502    0  0.00000000000E+00 -0.00000000000E+00 -0.15892285026E+03  0.15892792465E+03  0.12700000000E+01 0. -1.
         25    2    1    2    0    0 -0.11105232758E+02  0.64216561466E+02 -0.11425745992E+03  0.18146241307E+03  0.12500698879E+03 0.  0.
    9000005    1    3    3    0    0 -0.41648328094E+02  0.91142108241E+02 -0.83016390259E+02  0.13013142656E+03  0.10000000000E+01 0.  0.
    9000005    1    3    3    0    0  0.30543095336E+02 -0.26925546775E+02 -0.31241069663E+02  0.51330986504E+02  0.10000000000E+01 0.  0.
         21    1    1    2  502  501  0.11105232758E+02 -0.64216561466E+02  0.84858354617E+02  0.10699548266E+03  0.00000000000E+00 0. -1.
<mgrwt>
<rscale>  1 0.14097461E+03</rscale>
<asrwt>0</asrwt>
<pdfrwt beam="2">  1        4 0.24450538E-01 0.14097461E+03</pdfrwt>
<pdfrwt beam="1">  1       -4 0.19927599E-01 0.14097461E+03</pdfrwt>
<totfact> 0.59183714E+02</totfact>
</mgrwt>
</event>
<event>
 6    4  0.2103460E-003  0.1268377E+03  0.7818608E-02  0.1232225E+00
         -4   -1    0    0    0  501 -0.00000000000E+00  0.00000000000E+00  0.57105147783E+02  0.57119268232E+02  0.12700000000E+01 0. -1.
          4   -1    0    0  502    0  0.00000000000E+00 -0.00000000000E+00 -0.11040511220E+03  0.11041241642E+03  0.12700000000E+01 0. -1.
         25    2    1    2    0    0 -0.10844484746E+02 -0.18600981852E+02 -0.65534058509E+02  0.14276734672E+03  0.12499681231E+03 0.  0.
    9000005    1    3    3    0    0 -0.92000750416E+01 -0.21269057055E+02 -0.10278588019E+03  0.10537054302E+03  0.10000000000E+01 0.  0.
    9000005    1    3    3    0    0 -0.16444097046E+01  0.26680752035E+01  0.37251821682E+02  0.37396803702E+02  0.10000000000E+01 0.  0.
         21    1    1    2  502  501  0.10844484746E+02  0.18600981852E+02  0.12234094090E+02  0.24764337937E+02  0.00000000000E+00 0.  1.
<mgrwt>
<rscale>  1 0.12683770E+03</rscale>
<asrwt>0</asrwt>
<pdfrwt beam="2">  1        4 0.16987050E-01 0.12683770E+03</pdfrwt>
<pdfrwt beam="1">  1       -4 0.87870554E-02 0.12683770E+03</pdfrwt>
<totfact> 0.45869087E+03</totfact>
</mgrwt>
</event>
<event>
 6    4  0.2103460E-003  0.1355030E+03  0.7818608E-02  0.1219511E+00
         -4   -1    0    0    0  501 -0.00000000000E+00  0.00000000000E+00  0.98668622467E+02  0.98676795446E+02  0.12700000000E+01 0.  1.
          4   -1    0    0  502    0  0.00000000000E+00 -0.00000000000E+00 -0.99477347759E+02  0.99485454300E+02  0.12700000000E+01 0.  1.
         25    2    1    2    0    0 -0.30540380189E+02 -0.42464373639E+02 -0.29249462599E+02  0.13862391429E+03  0.12500048280E+03 0.  0.
    9000005    1    3    3    0    0 -0.63510589096E+01  0.43979431016E+02 -0.80132945509E+00  0.44454116015E+02  0.10000000000E+01 0.  0.
    9000005    1    3    3    0    0 -0.24189321279E+02 -0.86443804655E+02 -0.28448133144E+02  0.94169798272E+02  0.10000000000E+01 0.  0.
         21    1    1    2  502  501  0.30540380189E+02  0.42464373639E+02  0.28440737307E+02  0.59538335459E+02  0.00000000000E+00 0.  1.
<mgrwt>
<rscale>  1 0.13550298E+03</rscale>
<asrwt>0</asrwt>
<pdfrwt beam="2">  1        4 0.15305460E-01 0.13550298E+03</pdfrwt>
<pdfrwt beam="1">  1       -4 0.15181040E-01 0.13550298E+03</pdfrwt>
<totfact> 0.22033817E+03</totfact>
</mgrwt>
</event>
<event>
 6    4  0.2103460E-003  0.1408427E+03  0.7818608E-02  0.1212200E+00
         -4   -1    0    0    0  501 -0.00000000000E+00  0.00000000000E+00  0.36756230376E+03  0.36756449780E+03  0.12700000000E+01 0.  1.
          4   -1    0    0  502    0  0.00000000000E+00 -0.00000000000E+00 -0.37914998721E+02  0.37936262705E+02  0.12700000000E+01 0.  1.
         25    2    1    2    0    0  0.43957256348E+02 -0.47743698695E+02  0.11677751068E+03  0.18295806685E+03  0.12499986429E+03 0.  0.
    9000005    1    3    3    0    0 -0.25293398227E+02  0.16700602901E+02  0.72337451434E+02  0.78437064014E+02  0.10000000000E+01 0.  0.
    9000005    1    3    3    0    0  0.69250654575E+02 -0.64444301596E+02  0.44440059242E+02  0.10452100283E+03  0.10000000000E+01 0.  0.
         21    1    1    2  502  501 -0.43957256348E+02  0.47743698695E+02  0.21286979436E+03  0.22254269366E+03  0.00000000000E+00 0.  1.
<mgrwt>
<rscale>  1 0.14084270E+03</rscale>
<asrwt>0</asrwt>
<pdfrwt beam="2">  1        4 0.58348812E-02 0.14084270E+03</pdfrwt>
<pdfrwt beam="1">  1       -4 0.56549851E-01 0.14084270E+03</pdfrwt>
<totfact> 0.93041203E+02</totfact>
</mgrwt>
</event>
<event>
 6    4  0.2103460E-003  0.1289064E+03  0.7818608E-02  0.1229088E+00
          4   -1    0    0  502    0  0.00000000000E+00  0.00000000000E+00  0.30170929629E+02  0.30197647172E+02  0.12700000000E+01 0.  1.
         -4   -1    0    0    0  501 -0.00000000000E+00 -0.00000000000E+00 -0.43403221254E+03  0.43403407058E+03  0.12700000000E+01 0.  1.
         25    2    1    2    0    0  0.96292605565E+01  0.29989189372E+02 -0.11226541372E+03  0.17093967035E+03  0.12499909457E+03 0.  0.
    9000005    1    3    3    0    0 -0.37780672663E+02 -0.21924451830E+02 -0.68494746280E+01  0.44226418774E+02  0.10000000000E+01 0.  0.
    9000005    1    3    3    0    0  0.47409933219E+02  0.51913641202E+02 -0.10541593909E+03  0.12671325158E+03  0.10000000000E+01 0.  0.
         21    1    1    2  502  501 -0.96292605565E+01 -0.29989189372E+02 -0.29159586919E+03  0.29329204740E+03  0.00000000000E+00 0.  1.
<mgrwt>
<rscale>  1 0.12890635E+03</rscale>
<asrwt>0</asrwt>
<pdfrwt beam="1">  1        4 0.46438799E-02 0.12890635E+03</pdfrwt>
<pdfrwt beam="2">  1       -4 0.66776380E-01 0.12890635E+03</pdfrwt>
<totfact> 0.92948397E+02</totfact>
</mgrwt>
</event>
<event>
 6    4  0.2103460E-003  0.1274274E+03  0.7818608E-02  0.1231324E+00
         -4   -1    0    0    0  501 -0.00000000000E+00  0.00000000000E+00  0.10413842943E+03  0.10414617316E+03  0.12700000000E+01 0.  1.
          4   -1    0    0  502    0  0.00000000000E+00 -0.00000000000E+00 -0.56331794327E+02  0.56346108580E+02  0.12700000000E+01 0.  1.
         25    2    1    2    0    0 -0.11295552287E+02 -0.22020369015E+02  0.46712710464E+02  0.13571965927E+03  0.12500104976E+03 0.  0.
    9000005    1    3    3    0    0  0.55980710045E+02 -0.19745418830E+02  0.14638752715E+02  0.61147481902E+02  0.10000000000E+01 0.  0.
    9000005    1    3    3    0    0 -0.67276262331E+02 -0.22749501852E+01  0.32073957750E+02  0.74572177368E+02  0.10000000000E+01 0.  0.
         21    1    1    2  502  501  0.11295552287E+02  0.22020369015E+02  0.10939246390E+01  0.24772622472E+02  0.00000000000E+00 0.  1.
<mgrwt>
<rscale>  1 0.12742742E+03</rscale>
<asrwt>0</asrwt>
<pdfrwt beam="2">  1        4 0.86681267E-02 0.12742742E+03</pdfrwt>
<pdfrwt beam="1">  1       -4 0.16022994E-01 0.12742742E+03</pdfrwt>
<totfact> 0.52064021E+03</totfact>
</mgrwt>
</event>
<event>
 6    4  0.2103460E-003  0.1520492E+03  0.7818608E-02  0.1197977E+00
          4   -1    0    0  502    0  0.00000000000E+00  0.00000000000E+00  0.90440457570E+02  0.90449374047E+02  0.12700000000E+01 0.  1.
         -4   -1    0    0    0  501 -0.00000000000E+00 -0.00000000000E+00 -0.26080473760E+03  0.26080782974E+03  0.12700000000E+01 0.  1.
         25    2    1    2    0    0 -0.30135048619E+02 -0.81134796273E+02 -0.20735912471E+03  0.25713178292E+03  0.12501188289E+03 0.  0.
    9000005    1    3    3    0    0 -0.53603918120E+02 -0.31544046269E+02 -0.18946476016E+03  0.19941489973E+03  0.10000000000E+01 0.  0.
    9000005    1    3    3    0    0  0.23468869502E+02 -0.49590750004E+02 -0.17894364549E+02  0.57716883182E+02  0.10000000000E+01 0.  0.
         21    1    1    2  502  501  0.30135048619E+02  0.81134796273E+02  0.36994844681E+02  0.94125420872E+02  0.00000000000E+00 0.  1.
<mgrwt>
<rscale>  1 0.15204916E+03</rscale>
<asrwt>0</asrwt>
<pdfrwt beam="1">  1        4 0.13914840E-01 0.15204916E+03</pdfrwt>
<pdfrwt beam="2">  1       -4 0.40124729E-01 0.15204916E+03</pdfrwt>
<totfact> 0.44084547E+02</totfact>
</mgrwt>
</event>
<event>
 6    4  0.2103460E-003  0.1274240E+03  0.7818608E-02  0.1231329E+00
          4   -1    0    0  502    0  0.00000000000E+00  0.00000000000E+00  0.65306949688E+01  0.66530351551E+01  0.12700000000E+01 0.  1.
         -4   -1    0    0    0  501 -0.00000000000E+00 -0.00000000000E+00 -0.87842309353E+03  0.87842401160E+03  0.12700000000E+01 0.  1.
         25    2    1    2    0    0  0.14918084207E+02 -0.19776938496E+02 -0.72757334208E+03  0.73864731413E+03  0.12499283991E+03 0.  0.
    9000005    1    3    3    0    0 -0.28225422448E+02  0.37869822736E+02 -0.16996185705E+03  0.17640530264E+03  0.10000000000E+01 0.  0.
    9000005    1    3    3    0    0  0.43143506654E+02 -0.57646761232E+02 -0.55761148503E+03  0.56224201149E+03  0.10000000000E+01 0.  0.
         21    1    1    2  502  501 -0.14918084207E+02  0.19776938496E+02 -0.14431905649E+03  0.14642973263E+03  0.00000000000E+00 0.  1.
<mgrwt>
<rscale>  1 0.12742404E+03</rscale>
<asrwt>0</asrwt>
<pdfrwt beam="1">  1        4 0.10142044E-02 0.12742404E+03</pdfrwt>
<pdfrwt beam="2">  1       -4 0.13515140E+00 0.12742404E+03</pdfrwt>
<totfact> 0.19404272E+03</totfact>
</mgrwt>
</event>
<event>
 6    4  0.2103460E-003  0.1276952E+03  0.7818608E-02  0.1230916E+00
         -4   -1    0    0    0  501 -0.00000000000E+00  0.00000000000E+00  0.32541218139E+02  0.32565991125E+02  0.12700000000E+01 0.  1.
          4   -1    0    0  502    0  0.00000000000E+00 -0.00000000000E+00 -0.18964872909E+03  0.18965298138E+03  0.12700000000E+01 0.  1.
         25    2    1    2    0    0 -0.12779861109E+02  0.22773861598E+02 -0.14565194854E+03  0.19370224878E+03  0.12499638973E+03 0.  0.
    9000005    1    3    3    0    0 -0.47224790867E+02  0.21961313197E+02 -0.91161680533E+01  0.52882744537E+02  0.10000000000E+01 0.  0.
    9000005    1    3    3    0    0  0.34444929758E+02  0.81254840074E+00 -0.13653578049E+03  0.14081950424E+03  0.10000000000E+01 0.  0.
         21    1    1    2  502  501  0.12779861109E+02 -0.22773861598E+02 -0.11455562412E+02  0.28516723728E+02  0.00000000000E+00 0.  1.
<mgrwt>
<rscale>  1 0.12769523E+03</rscale>
<asrwt>0</asrwt>
<pdfrwt beam="2">  1        4 0.29178960E-01 0.12769523E+03</pdfrwt>
<pdfrwt beam="1">  1       -4 0.50085741E-02 0.12769523E+03</pdfrwt>
<totfact> 0.43015216E+03</totfact>
</mgrwt>
</event>
<event>
 6    4  0.2103460E-003  0.1371116E+03  0.7818608E-02  0.1217269E+00
          4   -1    0    0  502    0  0.00000000000E+00  0.00000000000E+00  0.11221728712E+03  0.11222447339E+03  0.12700000000E+01 0. -1.
         -4   -1    0    0    0  501 -0.00000000000E+00 -0.00000000000E+00 -0.87690416314E+02  0.87699612390E+02  0.12700000000E+01 0. -1.
         25    2    1    2    0    0 -0.36010579078E+02 -0.43328832253E+02  0.37423829917E+02  0.14212719085E+03  0.12500178328E+03 0.  0.
    9000005    1    3    3    0    0  0.41350213067E+00  0.27414735402E+02  0.54248590806E+02  0.60791844071E+02  0.10000000000E+01 0.  0.
    9000005    1    3    3    0    0 -0.36424081209E+02 -0.70743567655E+02 -0.16824760889E+02  0.81335346777E+02  0.10000000000E+01 0.  0.
         21    1    1    2  502  501  0.36010579078E+02  0.43328832253E+02 -0.12896959111E+02  0.57796894936E+02  0.00000000000E+00 0. -1.
<mgrwt>
<rscale>  1 0.13711162E+03</rscale>
<asrwt>0</asrwt>
<pdfrwt beam="1">  1        4 0.17265458E-01 0.13711162E+03</pdfrwt>
<pdfrwt beam="2">  1       -4 0.13492094E-01 0.13711162E+03</pdfrwt>
<totfact> 0.21936721E+03</totfact>
</mgrwt>
</event>
<event>
 6    4  0.2103460E-003  0.1607007E+03  0.7818608E-02  0.1187908E+00
         -4   -1    0    0    0  501 -0.00000000000E+00  0.00000000000E+00  0.55765250017E+03  0.55765394632E+03  0.12700000000E+01 0. -1.
          4   -1    0    0  502    0  0.00000000000E+00 -0.00000000000E+00 -0.33794413958E+02  0.33818268950E+02  0.12700000000E+01 0. -1.
         25    2    1    2    0    0 -0.71484730059E+02  0.71341785706E+02  0.40369314407E+03  0.43450301339E+03  0.12499998822E+03 0.  0.
    9000005    1    3    3    0    0 -0.42818894966E+02  0.56348362897E+02  0.71046714357E+02  0.10028574868E+03  0.10000000000E+01 0.  0.
    9000005    1    3    3    0    0 -0.28665835092E+02  0.14993422809E+02  0.33264642971E+03  0.33421726471E+03  0.10000000000E+01 0.  0.
         21    1    1    2  502  501  0.71484730059E+02 -0.71341785706E+02  0.12016494215E+03  0.15696920189E+03  0.00000000000E+00 0. -1.
<mgrwt>
<rscale>  1 0.16070070E+03</rscale>
<asrwt>0</asrwt>
<pdfrwt beam="2">  1        4 0.52010872E-02 0.16070070E+03</pdfrwt>
<pdfrwt beam="1">  1       -4 0.85794632E-01 0.16070070E+03</pdfrwt>
<totfact> 0.46701857E+02</totfact>
</mgrwt>
</event>
<event>
 6    4  0.2103460E-003  0.1595575E+03  0.7818608E-02  0.1189197E+00
         -4   -1    0    0    0  501 -0.00000000000E+00  0.00000000000E+00  0.33344878942E+03  0.33345120792E+03  0.12700000000E+01 0. -1.
          4   -1    0    0  502    0  0.00000000000E+00 -0.00000000000E+00 -0.55265315478E+02  0.55279905887E+02  0.12700000000E+01 0. -1.
         25    2    1    2    0    0  0.73684550370E+02 -0.66366179929E+02  0.11106995678E+03  0.19440970372E+03  0.12499885919E+03 0.  0.
    9000005    1    3    3    0    0  0.20093795491E+02  0.37348889372E+02  0.23734394315E+02  0.48610920872E+02  0.10000000000E+01 0.  0.
    9000005    1    3    3    0    0  0.53590754880E+02 -0.10371506930E+03  0.87335562466E+02  0.14579878285E+03  0.10000000000E+01 0.  0.
         21    1    1    2  502  501 -0.73684550370E+02  0.66366179929E+02  0.16711351716E+03  0.19432141009E+03  0.00000000000E+00 0. -1.
<mgrwt>
<rscale>  1 0.15955751E+03</rscale>
<asrwt>0</asrwt>
<pdfrwt beam="2">  1        4 0.85036646E-02 0.15955751E+03</pdfrwt>
<pdfrwt beam="1">  1       -4 0.51301122E-01 0.15955751E+03</pdfrwt>
<totfact> 0.62740510E+02</totfact>
</mgrwt>
</event>
<event>
 6    4  0.2103460E-003  0.1277919E+03  0.7818608E-02  0.1230769E+00
          4   -1    0    0  502    0  0.00000000000E+00  0.00000000000E+00  0.17206215435E+03  0.17206684125E+03  0.12700000000E+01 0. -1.
         -4   -1    0    0    0  501 -0.00000000000E+00 -0.00000000000E+00 -0.41261271931E+02  0.41280812266E+02  0.12700000000E+01 0. -1.
         25    2    1    2    0    0 -0.16741104234E+02  0.20602112672E+02  0.13564734288E+03  0.18636247617E+03  0.12500423703E+03 0.  0.
    9000005    1    3    3    0    0 -0.65420610950E+02  0.37799014061E+02  0.71659073785E+02  0.10413762364E+03  0.10000000000E+01 0.  0.
    9000005    1    3    3    0    0  0.48679506716E+02 -0.17196901390E+02  0.63988269098E+02  0.82224852531E+02  0.10000000000E+01 0.  0.
         21    1    1    2  502  501  0.16741104234E+02 -0.20602112672E+02 -0.48464604680E+01  0.26985177349E+02  0.00000000000E+00 0.  1.
<mgrwt>
<rscale>  1 0.12779190E+03</rscale>
<asrwt>0</asrwt>
<pdfrwt beam="1">  1        4 0.26472964E-01 0.12779190E+03</pdfrwt>
<pdfrwt beam="2">  1       -4 0.63497516E-02 0.12779190E+03</pdfrwt>
<totfact> 0.35161067E+03</totfact>
</mgrwt>
</event>
<event>
 6    4  0.2103460E-003  0.1275354E+03  0.7818608E-02  0.1231159E+00
          4   -1    0    0  502    0  0.00000000000E+00  0.00000000000E+00  0.10698612103E+04  0.10698619641E+04  0.12700000000E+01 0.  1.
         -4   -1    0    0    0  501 -0.00000000000E+00 -0.00000000000E+00 -0.55219159997E+01  0.56660794477E+01  0.12700000000E+01 0.  1.
         25    2    1    2    0    0  0.10264073169E+02  0.23127751209E+02  0.94245132397E+03  0.95104141218E+03  0.12500010227E+03 0.  0.
    9000005    1    3    3    0    0 -0.42754729436E+01 -0.33472017906E+02  0.82967237661E+02  0.89572418616E+02  0.10000000000E+01 0.  0.
    9000005    1    3    3    0    0  0.14539546113E+02  0.56599769115E+02  0.85948408631E+03  0.86146899357E+03  0.10000000000E+01 0.  0.
         21    1    1    2  502  501 -0.10264073169E+02 -0.23127751209E+02  0.12188797038E+03  0.12448663140E+03  0.00000000000E+00 0.  1.
<mgrwt>
<rscale>  1 0.12753537E+03</rscale>
<asrwt>0</asrwt>
<pdfrwt beam="1">  1        4 0.16460495E+00 0.12753537E+03</pdfrwt>
<pdfrwt beam="2">  1       -4 0.86067421E-03 0.12753537E+03</pdfrwt>
<totfact> 0.15042087E+03</totfact>
</mgrwt>
</event>
<event>
 6    4  0.2103460E-003  0.1284650E+03  0.7818608E-02  0.1229751E+00
          4   -1    0    0  502    0  0.00000000000E+00  0.00000000000E+00  0.19638072582E+01  0.23386831652E+01  0.12700000000E+01 0. -1.
         -4   -1    0    0    0  501 -0.00000000000E+00 -0.00000000000E+00 -0.29931529556E+04  0.29931532250E+04  0.12700000000E+01 0. -1.
         25    2    1    2    0    0  0.14368971379E+02  0.25907086625E+02 -0.21992296543E+04  0.22029785111E+04  0.12500241302E+03 0.  0.
    9000005    1    3    3    0    0  0.52380394560E+02 -0.14413397599E+02 -0.51931775170E+03  0.52215263956E+03  0.10000000000E+01 0.  0.
    9000005    1    3    3    0    0 -0.38011423182E+02  0.40320484224E+02 -0.16799119026E+04  0.16808258715E+04  0.10000000000E+01 0.  0.
         21    1    1    2  502  501 -0.14368971379E+02 -0.25907086625E+02 -0.79195949400E+03  0.79251339712E+03  0.00000000000E+00 0.  1.
<mgrwt>
<rscale>  1 0.12846497E+03</rscale>
<asrwt>0</asrwt>
<pdfrwt beam="1">  1        4 0.33098392E-03 0.12846497E+03</pdfrwt>
<pdfrwt beam="2">  1       -4 0.46051059E+00 0.12846497E+03</pdfrwt>
<totfact> 0.89038508E+01</totfact>
</mgrwt>
</event>
<event>
 6    4  0.2103460E-003  0.1267142E+03  0.7818608E-02  0.1232414E+00
          4   -1    0    0  502    0  0.00000000000E+00  0.00000000000E+00  0.40576668444E+02  0.40596538301E+02  0.12700000000E+01 0. -1.
         -4   -1    0    0    0  501 -0.00000000000E+00 -0.00000000000E+00 -0.13584317290E+03  0.13584910940E+03  0.12700000000E+01 0. -1.
         25    2    1    2    0    0 -0.13092126939E+02 -0.16164728554E+02 -0.74202732922E+02  0.14684185219E+03  0.12499512689E+03 0.  0.
    9000005    1    3    3    0    0  0.31163067746E+02 -0.41682159538E+02 -0.79974208568E+02  0.95422289069E+02  0.10000000000E+01 0.  0.
    9000005    1    3    3    0    0 -0.44255194685E+02  0.25517430984E+02  0.57714756468E+01  0.51419563123E+02  0.10000000000E+01 0.  0.
         21    1    1    2  502  501  0.13092126939E+02  0.16164728554E+02 -0.21063771534E+02  0.29603795504E+02  0.00000000000E+00 0. -1.
<mgrwt>
<rscale>  1 0.12671418E+03</rscale>
<asrwt>0</asrwt>
<pdfrwt beam="1">  1        4 0.62445496E-02 0.12671418E+03</pdfrwt>
<pdfrwt beam="2">  1       -4 0.20900935E-01 0.12671418E+03</pdfrwt>
<totfact> 0.55568697E+03</totfact>
</mgrwt>
</event>
<event>
 6    4  0.2103460E-003  0.1828359E+03  0.7818608E-02  0.1165086E+00
          4   -1    0    0  502    0  0.00000000000E+00  0.00000000000E+00  0.85806351442E+02  0.85815749415E+02  0.12700000000E+01 0. -1.
         -4   -1    0    0    0  501 -0.00000000000E+00 -0.00000000000E+00 -0.29708574073E+03  0.29708845526E+03  0.12700000000E+01 0. -1.
         25    2    1    2    0    0 -0.13333957781E+03  0.48352807425E+01 -0.95642614022E+02  0.20634065593E+03  0.12500453480E+03 0.  0.
    9000005    1    3    3    0    0  0.23022187448E+02  0.22059839983E+01 -0.23965701950E+00  0.23150484137E+02  0.10000000000E+01 0.  0.
    9000005    1    3    3    0    0 -0.15636176526E+03  0.26292967442E+01 -0.95402957002E+02  0.18319017179E+03  0.10000000000E+01 0.  0.
         21    1    1    2  502  501  0.13333957781E+03 -0.48352807425E+01 -0.11563677527E+03  0.17656354874E+03  0.00000000000E+00 0. -1.
<mgrwt>
<rscale>  1 0.18283587E+03</rscale>
<asrwt>0</asrwt>
<pdfrwt beam="1">  1        4 0.13201909E-01 0.18283587E+03</pdfrwt>
<pdfrwt beam="2">  1       -4 0.45706430E-01 0.18283587E+03</pdfrwt>
<totfact> 0.38464153E+02</totfact>
</mgrwt>
</event>
<event>
 6    4  0.2103460E-003  0.1314024E+03  0.7818608E-02  0.1225389E+00
          4   -1    0    0  502    0  0.00000000000E+00  0.00000000000E+00  0.74676932647E+02  0.74687731051E+02  0.12700000000E+01 0.  1.
         -4   -1    0    0    0  501 -0.00000000000E+00 -0.00000000000E+00 -0.10159564396E+03  0.10160358149E+03  0.12700000000E+01 0.  1.
         25    2    1    2    0    0 -0.33653785862E+02  0.22564957712E+02 -0.82005357837E+01  0.13165808820E+03  0.12499939513E+03 0.  0.
    9000005    1    3    3    0    0 -0.45930104084E+01  0.45871645265E+01  0.57351865673E+02  0.57726721015E+02  0.10000000000E+01 0.  0.
    9000005    1    3    3    0    0 -0.29060775454E+02  0.17977793186E+02 -0.65552401456E+02  0.73931367189E+02  0.10000000000E+01 0.  0.
         21    1    1    2  502  501  0.33653785862E+02 -0.22564957712E+02 -0.18718175526E+02  0.44633224334E+02  0.00000000000E+00 0.  1.
<mgrwt>
<rscale>  1 0.13140245E+03</rscale>
<asrwt>0</asrwt>
<pdfrwt beam="1">  1        4 0.11490200E-01 0.13140245E+03</pdfrwt>
<pdfrwt beam="2">  1       -4 0.15631540E-01 0.13140245E+03</pdfrwt>
<totfact> 0.34092446E+03</totfact>
</mgrwt>
</event>
<event>
 6    4  0.2103460E-003  0.1266076E+03  0.7818608E-02  0.1232578E+00
         -4   -1    0    0    0  501 -0.00000000000E+00  0.00000000000E+00  0.22243619091E+02  0.22279844934E+02  0.12700000000E+01 0.  1.
          4   -1    0    0  502    0  0.00000000000E+00 -0.00000000000E+00 -0.24174732217E+03  0.24175065807E+03  0.12700000000E+01 0.  1.
         25    2    1    2    0    0  0.75019272717E+01  0.18663349017E+02 -0.19043917201E+03  0.22868440738E+03  0.12499952174E+03 0.  0.
    9000005    1    3    3    0    0 -0.57961332506E+01 -0.29387293742E+02 -0.17342398873E+03  0.17599456827E+03  0.10000000000E+01 0.  0.
    9000005    1    3    3    0    0  0.13298060522E+02  0.48050642759E+02 -0.17015183276E+02  0.52689839107E+02  0.10000000000E+01 0.  0.
         21    1    1    2  502  501 -0.75019272717E+01 -0.18663349017E+02 -0.29064531074E+02  0.35346095624E+02  0.00000000000E+00 0. -1.
<mgrwt>
<rscale>  1 0.12660758E+03</rscale>
<asrwt>0</asrwt>
<pdfrwt beam="2">  1        4 0.37194937E-01 0.12660758E+03</pdfrwt>
<pdfrwt beam="1">  1       -4 0.34251386E-02 0.12660758E+03</pdfrwt>
<totfact> 0.49371452E+03</totfact>
</mgrwt>
</event>
<event>
 6    4  0.2103460E-003  0.1278389E+03  0.7818608E-02  0.1230698E+00
         -4   -1    0    0    0  501 -0.00000000000E+00  0.00000000000E+00  0.83226661508E+03  0.83226758406E+03  0.12700000000E+01 0. -1.
          4   -1    0    0  502    0  0.00000000000E+00 -0.00000000000E+00 -0.84361893631E+01  0.85312479140E+01  0.12700000000E+01 0. -1.
         25    2    1    2    0    0 -0.26116501646E+02  0.59898748476E+01  0.50817573285E+03  0.52400894042E+03  0.12499937571E+03 0.  0.
    9000005    1    3    3    0    0  0.56988168337E+01 -0.33474120226E+02  0.37454762058E+02  0.50565328427E+02  0.10000000000E+01 0.  0.
    9000005    1    3    3    0    0 -0.31815318479E+02  0.39463995073E+02  0.47072097079E+03  0.47344361200E+03  0.10000000000E+01 0.  0.
         21    1    1    2  502  501  0.26116501646E+02 -0.59898748476E+01  0.31565469287E+03  0.31678989155E+03  0.00000000000E+00 0.  1.
<mgrwt>
<rscale>  1 0.12783894E+03</rscale>
<asrwt>0</asrwt>
<pdfrwt beam="2">  1        4 0.13052618E-02 0.12783894E+03</pdfrwt>
<pdfrwt beam="1">  1       -4 0.12804842E+00 0.12783894E+03</pdfrwt>
<totfact> 0.15141174E+03</totfact>
</mgrwt>
</event>
<event>
 6    4  0.2103460E-003  0.1266039E+03  0.7818608E-02  0.1232584E+00
          4   -1    0    0  502    0  0.00000000000E+00  0.00000000000E+00  0.12630833292E+02  0.12694520458E+02  0.12700000000E+01 0.  1.
         -4   -1    0    0    0  501 -0.00000000000E+00 -0.00000000000E+00 -0.43169755551E+03  0.43169942360E+03  0.12700000000E+01 0.  1.
         25    2    1    2    0    0  0.18500938961E+02  0.78960654507E+01 -0.33993572879E+03  0.36274624529E+03  0.12499562462E+03 0.  0.
    9000005    1    3    3    0    0  0.78236816790E+01  0.28082022143E+02 -0.33859515934E+03  0.33984921935E+03  0.10000000000E+01 0.  0.
    9000005    1    3    3    0    0  0.10677257282E+02 -0.20185956692E+02 -0.13405694485E+01  0.22897025944E+02  0.10000000000E+01 0.  0.
         21    1    1    2  502  501 -0.18500938961E+02 -0.78960654507E+01 -0.79130993435E+02  0.81647698767E+02  0.00000000000E+00 0. -1.
<mgrwt>
<rscale>  1 0.12660387E+03</rscale>
<asrwt>0</asrwt>
<pdfrwt beam="1">  1        4 0.19482482E-02 0.12660387E+03</pdfrwt>
<pdfrwt beam="2">  1       -4 0.66420040E-01 0.12660387E+03</pdfrwt>
<totfact> 0.36481462E+03</totfact>
</mgrwt>
</event>
<event>
 6    4  0.2103460E-003  0.1315658E+03  0.7818608E-02  0.1225151E+00
          4   -1    0    0  502    0  0.00000000000E+00  0.00000000000E+00  0.14970473262E+02  0.15024246060E+02  0.12700000000E+01 0. -1.
         -4   -1    0    0    0  501 -0.00000000000E+00 -0.00000000000E+00 -0.58670285561E+03  0.58670423015E+03  0.12700000000E+01 0. -1.
         25    2    1    2    0    0 -0.33459844183E+02  0.23766563742E+02 -0.30948974281E+03  0.33629371452E+03  0.12500060318E+03 0.  0.
    9000005    1    3    3    0    0 -0.29022459024E+02 -0.49767953592E+02 -0.12521491589E+03  0.13783659708E+03  0.10000000000E+01 0.  0.
    9000005    1    3    3    0    0 -0.44373851597E+01  0.73534517334E+02 -0.18427482692E+03  0.19845711744E+03  0.10000000000E+01 0.  0.
         21    1    1    2  502  501  0.33459844183E+02 -0.23766563742E+02 -0.26224263953E+03  0.26543476169E+03  0.00000000000E+00 0. -1.
<mgrwt>
<rscale>  1 0.13156581E+03</rscale>
<asrwt>0</asrwt>
<pdfrwt beam="1">  1        4 0.23073923E-02 0.13156581E+03</pdfrwt>
<pdfrwt beam="2">  1       -4 0.90266202E-01 0.13156581E+03</pdfrwt>
<totfact> 0.14459381E+03</totfact>
</mgrwt>
</event>
<event>
 6    4  0.2103460E-003  0.1300144E+03  0.7818608E-02  0.1227434E+00
         -4   -1    0    0    0  501 -0.00000000000E+00  0.00000000000E+00  0.37917876505E+03  0.37918089188E+03  0.12700000000E+01 0. -1.
          4   -1    0    0  502    0  0.00000000000E+00 -0.00000000000E+00 -0.25230328663E+02  0.25262271957E+02  0.12700000000E+01 0. -1.
         25    2    1    2    0    0  0.67666869079E+01 -0.35115779425E+02  0.15501104800E+03  0.20231698910E+03  0.12499933223E+03 0.  0.
    9000005    1    3    3    0    0  0.25052101996E+02 -0.36343009952E+02  0.17183641642E+03  0.17741808306E+03  0.10000000000E+01 0.  0.
    9000005    1    3    3    0    0 -0.18285415088E+02  0.12272305271E+01 -0.16825368418E+02  0.24898906043E+02  0.10000000000E+01 0.  0.
         21    1    1    2  502  501 -0.67666869079E+01  0.35115779425E+02  0.19893738839E+03  0.20212617474E+03  0.00000000000E+00 0. -1.
<mgrwt>
<rscale>  1 0.13001438E+03</rscale>
<asrwt>0</asrwt>
<pdfrwt beam="2">  1        4 0.38842102E-02 0.13001438E+03</pdfrwt>
<pdfrwt beam="1">  1       -4 0.58337810E-01 0.13001438E+03</pdfrwt>
<totfact> 0.16462041E+03</totfact>
</mgrwt>
</event>
<event>
 6    4  0.2103460E-003  0.1307389E+03  0.7818608E-02  0.1226363E+00
          4   -1    0    0  502    0  0.00000000000E+00  0.00000000000E+00  0.10729263364E+03  0.10730014973E+03  0.12700000000E+01 0.  1.
         -4   -1    0    0    0  501 -0.00000000000E+00 -0.00000000000E+00 -0.73797898403E+02  0.73808825412E+02  0.12700000000E+01 0.  1.
         25    2    1    2    0    0 -0.49533686455E+01 -0.37941561915E+02  0.49278752831E+02  0.13971775394E+03  0.12501422840E+03 0.  0.
    9000005    1    3    3    0    0 -0.46953852627E+02  0.10844364929E+02 -0.13229302738E+02  0.49982786819E+02  0.10000000000E+01 0.  0.
    9000005    1    3    3    0    0  0.42000483982E+02 -0.48785926844E+02  0.62508055569E+02  0.89734967119E+02  0.10000000000E+01 0.  0.
         21    1    1    2  502  501  0.49533686455E+01  0.37941561915E+02 -0.15784017598E+02  0.41391221207E+02  0.00000000000E+00 0.  1.
<mgrwt>
<rscale>  1 0.13073888E+03</rscale>
<asrwt>0</asrwt>
<pdfrwt beam="1">  1        4 0.16507978E-01 0.13073888E+03</pdfrwt>
<pdfrwt beam="2">  1       -4 0.11354942E-01 0.13073888E+03</pdfrwt>
<totfact> 0.31569261E+03</totfact>
</mgrwt>
</event>
<event>
 6    4  0.2103460E-003  0.1515450E+03  0.7818608E-02  0.1198587E+00
          4   -1    0    0  502    0  0.00000000000E+00  0.00000000000E+00  0.68776440860E+01  0.69939179416E+01  0.12700000000E+01 0.  1.
         -4   -1    0    0    0  501 -0.00000000000E+00 -0.00000000000E+00 -0.21278567435E+04  0.21278571225E+04  0.12700000000E+01 0.  1.
         25    2    1    2    0    0 -0.17145539056E+02  0.83943477559E+02 -0.15634304057E+04  0.15707579428E+04  0.12500161794E+03 0.  0.
    9000005    1    3    3    0    0 -0.45182680185E+00  0.45069516846E+02 -0.14314320526E+04  0.14321418179E+04  0.10000000000E+01 0.  0.
    9000005    1    3    3    0    0 -0.16693712254E+02  0.38873960712E+02 -0.13199835308E+03  0.13861612484E+03  0.10000000000E+01 0.  0.
         21    1    1    2  502  501  0.17145539056E+02 -0.83943477559E+02 -0.55754869379E+03  0.56409309771E+03  0.00000000000E+00 0.  1.
<mgrwt>
<rscale>  1 0.15154498E+03</rscale>
<asrwt>0</asrwt>
<pdfrwt beam="1">  1        4 0.10670741E-02 0.15154498E+03</pdfrwt>
<pdfrwt beam="2">  1       -4 0.32737103E+00 0.15154498E+03</pdfrwt>
<totfact> 0.11790286E+02</totfact>
</mgrwt>
</event>
<event>
 6    4  0.2103460E-003  0.1295829E+03  0.7818608E-02  0.1228076E+00
          4   -1    0    0  502    0  0.00000000000E+00  0.00000000000E+00  0.24622361204E+01  0.27704704858E+01  0.12700000000E+01 0.  1.
         -4   -1    0    0    0  501 -0.00000000000E+00 -0.00000000000E+00 -0.26350698238E+04  0.26350701299E+04  0.12700000000E+01 0.  1.
         25    2    1    2    0    0  0.89806669397E+01 -0.32984906620E+02 -0.18826985012E+04  0.18871527195E+04  0.12499233516E+03 0.  0.
    9000005    1    3    3    0    0 -0.35916284661E+02  0.33129948517E+02 -0.81786058651E+03  0.81931954204E+03  0.10000000000E+01 0.  0.
    9000005    1    3    3    0    0  0.44896951601E+02 -0.66114855137E+02 -0.10648379146E+04  0.10678331774E+04  0.10000000000E+01 0.  0.
         21    1    1    2  502  501 -0.89806669397E+01  0.32984906620E+02 -0.74990908656E+03  0.75068788092E+03  0.00000000000E+00 0.  1.
<mgrwt>
<rscale>  1 0.12958295E+03</rscale>
<asrwt>0</asrwt>
<pdfrwt beam="1">  1        4 0.40254154E-03 0.12958295E+03</pdfrwt>
<pdfrwt beam="2">  1       -4 0.40541697E+00 0.12958295E+03</pdfrwt>
<totfact> 0.16124489E+02</totfact>
</mgrwt>
</event>
<event>
 6    4  0.2103460E-003  0.1275432E+03  0.7818608E-02  0.1231147E+00
          4   -1    0    0  502    0  0.00000000000E+00  0.00000000000E+00  0.80291889429E+01  0.81290082471E+01  0.12700000000E+01 0.  1.
         -4   -1    0    0    0  501 -0.00000000000E+00 -0.00000000000E+00 -0.74152505312E+03  0.74152614067E+03  0.12700000000E+01 0.  1.
         25    2    1    2    0    0 -0.17125385464E+02  0.18702845179E+02 -0.56174599256E+03  0.57604324367E+03  0.12499673266E+03 0.  0.
    9000005    1    3    3    0    0 -0.62651207769E+02  0.26487571238E+02 -0.45017724993E+03  0.45528817426E+03  0.10000000000E+01 0.  0.
    9000005    1    3    3    0    0  0.45525822306E+02 -0.77847260590E+01 -0.11156874263E+03  0.12075506941E+03  0.10000000000E+01 0.  0.
         21    1    1    2  502  501  0.17125385464E+02 -0.18702845179E+02 -0.17174987161E+03  0.17361190525E+03  0.00000000000E+00 0.  1.
<mgrwt>
<rscale>  1 0.12754316E+03</rscale>
<asrwt>0</asrwt>
<pdfrwt beam="1">  1        4 0.12430225E-02 0.12754316E+03</pdfrwt>
<pdfrwt beam="2">  1       -4 0.11408849E+00 0.12754316E+03</pdfrwt>
<totfact> 0.21506118E+03</totfact>
</mgrwt>
</event>
<event>
 6    4  0.2103460E-003  0.1268495E+03  0.7818608E-02  0.1232207E+00
         -4   -1    0    0    0  501 -0.00000000000E+00  0.00000000000E+00  0.11139641149E+04  0.11139648388E+04  0.12700000000E+01 0. -1.
          4   -1    0    0  502    0  0.00000000000E+00 -0.00000000000E+00 -0.48676079806E+01  0.50305573700E+01  0.12700000000E+01 0. -1.
         25    2    1    2    0    0  0.75142101216E+01  0.20216368689E+02  0.96148014575E+03  0.96981176775E+03  0.12500251710E+03 0.  0.
    9000005    1    3    3    0    0  0.60190223838E+02 -0.36548731778E+01  0.31301023203E+03  0.31876735482E+03  0.10000000000E+01 0.  0.
    9000005    1    3    3    0    0 -0.52676013717E+02  0.23871241867E+02  0.64846991372E+03  0.65104441293E+03  0.10000000000E+01 0.  0.
         21    1    1    2  502  501 -0.75142101216E+01 -0.20216368689E+02  0.14761636114E+03  0.14918362843E+03  0.00000000000E+00 0.  1.
<mgrwt>
<rscale>  1 0.12684949E+03</rscale>
<asrwt>0</asrwt>
<pdfrwt beam="2">  1        4 0.76145375E-03 0.12684949E+03</pdfrwt>
<pdfrwt beam="1">  1       -4 0.17139152E+00 0.12684949E+03</pdfrwt>
<totfact> 0.16217420E+03</totfact>
</mgrwt>
</event>
<event>
 6    4  0.2103460E-003  0.1302608E+03  0.7818608E-02  0.1227069E+00
         -4   -1    0    0    0  501 -0.00000000000E+00  0.00000000000E+00  0.21000441210E+02  0.21038807737E+02  0.12700000000E+01 0. -1.
          4   -1    0    0  502    0  0.00000000000E+00 -0.00000000000E+00 -0.35724079783E+03  0.35724305526E+03  0.12700000000E+01 0. -1.
         25    2    1    2    0    0  0.31749900989E+02  0.18298453732E+02 -0.29846666756E+03  0.32565353216E+03  0.12499992697E+03 0.  0.
    9000005    1    3    3    0    0  0.44127237188E+02  0.48778189656E+02 -0.74941645944E+02  0.99718479455E+02  0.10000000000E+01 0.  0.
    9000005    1    3    3    0    0 -0.12377336199E+02 -0.30479735925E+02 -0.22352502161E+03  0.22593505270E+03  0.10000000000E+01 0.  0.
         21    1    1    2  502  501 -0.31749900989E+02 -0.18298453732E+02 -0.37773689066E+02  0.52628330844E+02  0.00000000000E+00 0.  1.
<mgrwt>
<rscale>  1 0.13026078E+03</rscale>
<asrwt>0</asrwt>
<pdfrwt beam="2">  1        4 0.54963243E-01 0.13026078E+03</pdfrwt>
<pdfrwt beam="1">  1       -4 0.32339623E-02 0.13026078E+03</pdfrwt>
<totfact> 0.24885351E+03</totfact>
</mgrwt>
</event>
<event>
 6    4  0.2103460E-003  0.1305897E+03  0.7818608E-02  0.1226583E+00
          4   -1    0    0  502    0  0.00000000000E+00  0.00000000000E+00  0.79099946363E+02  0.79110141035E+02  0.12700000000E+01 0. -1.
         -4   -1    0    0    0  501 -0.00000000000E+00 -0.00000000000E+00 -0.91011375720E+02  0.91020236269E+02  0.12700000000E+01 0. -1.
         25    2    1    2    0    0  0.28825532036E+02 -0.24446260176E+02 -0.29655287886E+00  0.13059006510E+03  0.12500058490E+03 0.  0.
    9000005    1    3    3    0    0  0.26678725640E+02 -0.62313929707E+02  0.37130926586E+02  0.77294798961E+02  0.10000000000E+01 0.  0.
    9000005    1    3    3    0    0  0.21468063955E+01  0.37867669531E+02 -0.37427479465E+02  0.53295266136E+02  0.10000000000E+01 0.  0.
         21    1    1    2  502  501 -0.28825532036E+02  0.24446260176E+02 -0.11614876478E+02  0.39540312206E+02  0.00000000000E+00 0. -1.
<mgrwt>
<rscale>  1 0.13058973E+03</rscale>
<asrwt>0</asrwt>
<pdfrwt beam="1">  1        4 0.12170688E-01 0.13058973E+03</pdfrwt>
<pdfrwt beam="2">  1       -4 0.14003216E-01 0.13058973E+03</pdfrwt>
<totfact> 0.37375959E+03</totfact>
</mgrwt>
</event>
<event>
 6    4  0.2103460E-003  0.1268131E+03  0.7818608E-02  0.1232263E+00
          4   -1    0    0  502    0  0.00000000000E+00  0.00000000000E+00  0.11312236733E+02  0.11383303558E+02  0.12700000000E+01 0. -1.
         -4   -1    0    0    0  501 -0.00000000000E+00 -0.00000000000E+00 -0.76489929004E+03  0.76490034436E+03  0.12700000000E+01 0. -1.
         25    2    1    2    0    0  0.20610735548E+02 -0.54943872868E+01 -0.35227595953E+03  0.37440607365E+03  0.12500626229E+03 0.  0.
    9000005    1    3    3    0    0  0.60525385318E+02  0.59198747849E+01 -0.30701260290E+03  0.31297940112E+03  0.10000000000E+01 0.  0.
    9000005    1    3    3    0    0 -0.39914649770E+02 -0.11414262072E+02 -0.45263356629E+02  0.61426672531E+02  0.10000000000E+01 0.  0.
         21    1    1    2  502  501 -0.20610735548E+02  0.54943872868E+01 -0.40131109378E+03  0.40187757428E+03  0.00000000000E+00 0.  1.
<mgrwt>
<rscale>  1 0.12681308E+03</rscale>
<asrwt>0</asrwt>
<pdfrwt beam="1">  1        4 0.17458925E-02 0.12681308E+03</pdfrwt>
<pdfrwt beam="2">  1       -4 0.11768232E+00 0.12681308E+03</pdfrwt>
<totfact> 0.11899338E+03</totfact>
</mgrwt>
</event>
<event>
 6    4  0.2103460E-003  0.1280683E+03  0.7818608E-02  0.1230351E+00
         -4   -1    0    0    0  501 -0.00000000000E+00  0.00000000000E+00  0.80324093396E+01  0.81321891148E+01  0.12700000000E+01 0. -1.
          4   -1    0    0  502    0  0.00000000000E+00 -0.00000000000E+00 -0.75225544837E+03  0.75225652042E+03  0.12700000000E+01 0. -1.
         25    2    1    2    0    0 -0.27633512103E+02 -0.36033342297E+01 -0.60617445055E+03  0.61955544715E+03  0.12499957037E+03 0.  0.
    9000005    1    3    3    0    0  0.19296115574E+02 -0.46241940118E+02 -0.41776156024E+03  0.42075691119E+03  0.10000000000E+01 0.  0.
    9000005    1    3    3    0    0 -0.46929627677E+02  0.42638605888E+02 -0.18841289031E+03  0.19879853596E+03  0.10000000000E+01 0.  0.
         21    1    1    2  502  501  0.27633512103E+02  0.36033342297E+01 -0.13804858849E+03  0.14083326238E+03  0.00000000000E+00 0. -1.
<mgrwt>
<rscale>  1 0.12806829E+03</rscale>
<asrwt>0</asrwt>
<pdfrwt beam="2">  1        4 0.11573931E+00 0.12806829E+03</pdfrwt>
<pdfrwt beam="1">  1       -4 0.12435137E-02 0.12806829E+03</pdfrwt>
<totfact> 0.20793817E+03</totfact>
</mgrwt>
</event>
<event>
 6    4  0.2103460E-003  0.1276519E+03  0.7818608E-02  0.1230982E+00
         -4   -1    0    0    0  501 -0.00000000000E+00  0.00000000000E+00  0.12199845033E+03  0.12200506048E+03  0.12700000000E+01 0. -1.
          4   -1    0    0  502    0  0.00000000000E+00 -0.00000000000E+00 -0.49710316599E+02  0.49726536944E+02  0.12700000000E+01 0. -1.
         25    2    1    2    0    0  0.22969750583E+02  0.11963772580E+02  0.70366782482E+02  0.14576175170E+03  0.12499705151E+03 0.  0.
    9000005    1    3    3    0    0  0.53711706547E+01  0.42600584064E+01 -0.36513064722E+02  0.37164518929E+02  0.10000000000E+01 0.  0.
    9000005    1    3    3    0    0  0.17598579929E+02  0.77037141738E+01  0.10687984720E+03  0.10859723277E+03  0.10000000000E+01 0.  0.
         21    1    1    2  502  501 -0.22969750583E+02 -0.11963772580E+02  0.19213512490E+01  0.25969845722E+02  0.00000000000E+00 0. -1.
<mgrwt>
<rscale>  1 0.12765189E+03</rscale>
<asrwt>0</asrwt>
<pdfrwt beam="2">  1        4 0.76494973E-02 0.12765189E+03</pdfrwt>
<pdfrwt beam="1">  1       -4 0.18770748E-01 0.12765189E+03</pdfrwt>
<totfact> 0.48424181E+03</totfact>
</mgrwt>
</event>
<event>
 6    4  0.2103460E-003  0.1270387E+03  0.7818608E-02  0.1231917E+00
         -4   -1    0    0    0  501 -0.00000000000E+00  0.00000000000E+00  0.62506577716E+02  0.62519478227E+02  0.12700000000E+01 0. -1.
          4   -1    0    0  502    0  0.00000000000E+00 -0.00000000000E+00 -0.95723153386E+02  0.95731577832E+02  0.12700000000E+01 0. -1.
         25    2    1    2    0    0  0.22168256714E+02 -0.48141473157E+01 -0.42182025450E+02  0.13385870255E+03  0.12499688539E+03 0.  0.
    9000005    1    3    3    0    0  0.16696526291E+02 -0.61083052327E+02 -0.44280485503E+02  0.77276611391E+02  0.10000000000E+01 0.  0.
    9000005    1    3    3    0    0  0.54717304231E+01  0.56268905011E+02  0.20984600528E+01  0.56582091156E+02  0.10000000000E+01 0.  0.
         21    1    1    2  502  501 -0.22168256714E+02  0.48141473157E+01  0.89654497801E+01  0.24392353512E+02  0.00000000000E+00 0. -1.
<mgrwt>
<rscale>  1 0.12703869E+03</rscale>
<asrwt>0</asrwt>
<pdfrwt beam="2">  1        4 0.14728279E-01 0.12703869E+03</pdfrwt>
<pdfrwt beam="1">  1       -4 0.96180369E-02 0.12703869E+03</pdfrwt>
<totfact> 0.50663893E+03</totfact>
</mgrwt>
</event>
<event>
 6    4  0.2103460E-003  0.1337925E+03  0.7818608E-02  0.1221934E+00
          4   -1    0    0  502    0  0.00000000000E+00  0.00000000000E+00  0.29763682096E+02  0.29790764877E+02  0.12700000000E+01 0. -1.
         -4   -1    0    0    0  501 -0.00000000000E+00 -0.00000000000E+00 -0.29732608526E+03  0.29732879759E+03  0.12700000000E+01 0. -1.
         25    2    1    2    0    0  0.75128471106E+01 -0.47103123993E+02 -0.15432691627E+03  0.20424799271E+03  0.12500119311E+03 0.  0.
    9000005    1    3    3    0    0 -0.55904662604E+02 -0.42308270717E+02 -0.84207932728E+02  0.10957781256E+03  0.10000000000E+01 0.  0.
    9000005    1    3    3    0    0  0.63417509714E+02 -0.47948532752E+01 -0.70118983537E+02  0.94670180145E+02  0.10000000000E+01 0.  0.
         21    1    1    2  502  501 -0.75128471106E+01  0.47103123993E+02 -0.11323548689E+03  0.12287156975E+03  0.00000000000E+00 0. -1.
<mgrwt>
<rscale>  1 0.13379255E+03</rscale>
<asrwt>0</asrwt>
<pdfrwt beam="1">  1        4 0.45813202E-02 0.13379255E+03</pdfrwt>
<pdfrwt beam="2">  1       -4 0.45744765E-01 0.13379255E+03</pdfrwt>
<totfact> 0.20958974E+03</totfact>
</mgrwt>
</event>
<event>
 6    4  0.2103460E-003  0.1293346E+03  0.7818608E-02  0.1228446E+00
          4   -1    0    0  502    0  0.00000000000E+00  0.00000000000E+00  0.27803153375E+02  0.27832143963E+02  0.12700000000E+01 0.  1.
         -4   -1    0    0    0  501 -0.00000000000E+00 -0.00000000000E+00 -0.23853780880E+03  0.23854118958E+03  0.12700000000E+01 0.  1.
         25    2    1    2    0    0 -0.33062455962E+02  0.28204980028E+01 -0.15975872996E+03  0.20554878110E+03  0.12500547352E+03 0.  0.
    9000005    1    3    3    0    0 -0.18314729426E+02 -0.55495801740E+02 -0.11988493971E+03  0.13337395583E+03  0.10000000000E+01 0.  0.
    9000005    1    3    3    0    0 -0.14747726536E+02  0.58316299743E+02 -0.39873790255E+02  0.72174825272E+02  0.10000000000E+01 0.  0.
         21    1    1    2  502  501  0.33062455962E+02 -0.28204980028E+01 -0.50975925458E+02  0.60824552440E+02  0.00000000000E+00 0.  1.
<mgrwt>
<rscale>  1 0.12933464E+03</rscale>
<asrwt>0</asrwt>
<pdfrwt beam="1">  1        4 0.42798985E-02 0.12933464E+03</pdfrwt>
<pdfrwt beam="2">  1       -4 0.36700613E-01 0.12933464E+03</pdfrwt>
<totfact> 0.35802299E+03</totfact>
</mgrwt>
</event>
<event>
 6    4  0.2103460E-003  0.1268897E+03  0.7818608E-02  0.1232145E+00
         -4   -1    0    0    0  501 -0.00000000000E+00  0.00000000000E+00  0.32089078438E+03  0.32089329753E+03  0.12700000000E+01 0. -1.
          4   -1    0    0  502    0  0.00000000000E+00 -0.00000000000E+00 -0.18357069457E+02  0.18400948319E+02  0.12700000000E+01 0. -1.
         25    2    1    2    0    0  0.21753562024E+02 -0.16903187378E+01  0.22045270151E+03  0.25436270046E+03  0.12499966059E+03 0.  0.
    9000005    1    3    3    0    0  0.41558928689E+02  0.44034587863E+02  0.55849065585E+02  0.82379048361E+02  0.10000000000E+01 0.  0.
    9000005    1    3    3    0    0 -0.19805366666E+02 -0.45724906601E+02  0.16460363592E+03  0.17198365210E+03  0.10000000000E+01 0.  0.
         21    1    1    2  502  501 -0.21753562024E+02  0.16903187378E+01  0.82081013417E+02  0.84931545387E+02  0.00000000000E+00 0. -1.
<mgrwt>
<rscale>  1 0.12688968E+03</rscale>
<asrwt>0</asrwt>
<pdfrwt beam="2">  1        4 0.28277333E-02 0.12688968E+03</pdfrwt>
<pdfrwt beam="1">  1       -4 0.49371380E-01 0.12688968E+03</pdfrwt>
<totfact> 0.38009979E+03</totfact>
</mgrwt>
</event>
<event>
 6    4  0.2103460E-003  0.1266995E+03  0.7818608E-02  0.1232437E+00
         -4   -1    0    0    0  501 -0.00000000000E+00  0.00000000000E+00  0.97520324963E+01  0.98343803978E+01  0.12700000000E+01 0. -1.
          4   -1    0    0  502    0  0.00000000000E+00 -0.00000000000E+00 -0.58804166740E+03  0.58804303881E+03  0.12700000000E+01 0. -1.
         25    2    1    2    0    0 -0.12692264586E+01  0.20661964701E+02 -0.53629014504E+03  0.55105344170E+03  0.12499699286E+03 0.  0.
    9000005    1    3    3    0    0  0.38921939995E+01 -0.17992669638E+02 -0.60837235809E+01  0.19413835979E+02  0.10000000000E+01 0.  0.
    9000005    1    3    3    0    0 -0.51614204581E+01  0.38654634338E+02 -0.53020642145E+03  0.53163960572E+03  0.10000000000E+01 0.  0.
         21    1    1    2  502  501  0.12692264586E+01 -0.20661964701E+02 -0.41999489866E+02  0.46823977512E+02  0.00000000000E+00 0. -1.
<mgrwt>
<rscale>  1 0.12669955E+03</rscale>
<asrwt>0</asrwt>
<pdfrwt beam="2">  1        4 0.90474361E-01 0.12669955E+03</pdfrwt>
<pdfrwt beam="1">  1       -4 0.15067531E-02 0.12669955E+03</pdfrwt>
<totfact> 0.27430394E+03</totfact>
</mgrwt>
</event>
<event>
 6    4  0.2103460E-003  0.1313215E+03  0.7818608E-02  0.1225508E+00
         -4   -1    0    0    0  501 -0.00000000000E+00  0.00000000000E+00  0.41097854834E+03  0.41098051061E+03  0.12700000000E+01 0. -1.
          4   -1    0    0  502    0  0.00000000000E+00 -0.00000000000E+00 -0.18158788193E+02  0.18203145021E+02  0.12700000000E+01 0. -1.
         25    2    1    2    0    0  0.29332911013E+02 -0.27565859224E+02  0.27661222655E+03  0.30620200200E+03  0.12500018356E+03 0.  0.
    9000005    1    3    3    0    0  0.68650568857E+02  0.60395194049E+01  0.95019606679E+02  0.11738441997E+03  0.10000000000E+01 0.  0.
    9000005    1    3    3    0    0 -0.39317657845E+02 -0.33605378629E+02  0.18159261987E+03  0.18881758203E+03  0.10000000000E+01 0.  0.
         21    1    1    2  502  501 -0.29332911013E+02  0.27565859224E+02  0.11620753360E+03  0.12298165363E+03  0.00000000000E+00 0. -1.
<mgrwt>
<rscale>  1 0.13132152E+03</rscale>
<asrwt>0</asrwt>
<pdfrwt beam="2">  1        4 0.27972231E-02 0.13132152E+03</pdfrwt>
<pdfrwt beam="1">  1       -4 0.63231024E-01 0.13132152E+03</pdfrwt>
<totfact> 0.23339715E+03</totfact>
</mgrwt>
</event>
<event>
 6    4  0.2103460E-003  0.1266583E+03  0.7818608E-02  0.1232500E+00
         -4   -1    0    0    0  501 -0.00000000000E+00  0.00000000000E+00  0.46397302578E+02  0.46414680722E+02  0.12700000000E+01 0.  1.
          4   -1    0    0  502    0  0.00000000000E+00 -0.00000000000E+00 -0.12334436017E+03  0.12335089819E+03  0.12700000000E+01 0.  1.
         25    2    1    2    0    0  0.39570908363E+01 -0.20040632840E+02 -0.50515525674E+02  0.13636031867E+03  0.12500013057E+03 0.  0.
    9000005    1    3    3    0    0 -0.27664386838E+02 -0.52356453984E+02 -0.65889570666E+02  0.88594311868E+02  0.10000000000E+01 0.  0.
    9000005    1    3    3    0    0  0.31621477675E+02  0.32315821144E+02  0.15374044992E+02  0.47766006803E+02  0.10000000000E+01 0.  0.
         21    1    1    2  502  501 -0.39570908363E+01  0.20040632840E+02 -0.26431531916E+02  0.33405260244E+02  0.00000000000E+00 0.  1.
<mgrwt>
<rscale>  1 0.12665827E+03</rscale>
<asrwt>0</asrwt>
<pdfrwt beam="2">  1        4 0.18977895E-01 0.12665827E+03</pdfrwt>
<pdfrwt beam="1">  1       -4 0.71398863E-02 0.12665827E+03</pdfrwt>
<totfact> 0.53083333E+03</totfact>
</mgrwt>
</event>
<event>
 6    4  0.2103460E-003  0.1267969E+03  0.7818608E-02  0.1232287E+00
         -4   -1    0    0    0  501 -0.00000000000E+00  0.00000000000E+00  0.12720712602E+03  0.12721346553E+03  0.12700000000E+01 0.  1.
          4   -1    0    0  502    0  0.00000000000E+00 -0.00000000000E+00 -0.47522473017E+02  0.47539439854E+02  0.12700000000E+01 0.  1.
         25    2    1    2    0    0 -0.12720219141E+02  0.17035536832E+02  0.45927188504E+02  0.13485829547E+03  0.12500175888E+03 0.  0.
    9000005    1    3    3    0    0  0.39488688785E+02 -0.26129337162E+01  0.64820690377E+02  0.75953313723E+02  0.10000000000E+01 0.  0.
    9000005    1    3    3    0    0 -0.52208907926E+02  0.19648470548E+02 -0.18893501873E+02  0.58904981748E+02  0.10000000000E+01 0.  0.
         21    1    1    2  502  501  0.12720219141E+02 -0.17035536832E+02  0.33757464504E+02  0.39894609910E+02  0.00000000000E+00 0. -1.
<mgrwt>
<rscale>  1 0.12679690E+03</rscale>
<asrwt>0</asrwt>
<pdfrwt beam="2">  1        4 0.73129426E-02 0.12679690E+03</pdfrwt>
<pdfrwt beam="1">  1       -4 0.19572119E-01 0.12679690E+03</pdfrwt>
<totfact> 0.48309937E+03</totfact>
</mgrwt>
</event>
<event>
 6    4  0.2103460E-003  0.1266088E+03  0.7818608E-02  0.1232576E+00
         -4   -1    0    0    0  501 -0.00000000000E+00  0.00000000000E+00  0.19193096386E+03  0.19193516559E+03  0.12700000000E+01 0.  1.
          4   -1    0    0  502    0  0.00000000000E+00 -0.00000000000E+00 -0.30336047089E+02  0.30362619337E+02  0.12700000000E+01 0.  1.
         25    2    1    2    0    0  0.16169828529E+02 -0.11966652966E+02  0.11299323524E+03  0.16969752270E+03  0.12500045545E+03 0.  0.
    9000005    1    3    3    0    0  0.39717443996E+02  0.27145972538E+02  0.31695242039E+00  0.48119431017E+02  0.10000000000E+01 0.  0.
    9000005    1    3    3    0    0 -0.23547615467E+02 -0.39112625503E+02  0.11267628282E+03  0.12157809169E+03  0.10000000000E+01 0.  0.
         21    1    1    2  502  501 -0.16169828529E+02  0.11966652966E+02  0.48601681534E+02  0.52600262221E+02  0.00000000000E+00 0. -1.
<mgrwt>
<rscale>  1 0.12660876E+03</rscale>
<asrwt>0</asrwt>
<pdfrwt beam="2">  1        4 0.46694513E-02 0.12660876E+03</pdfrwt>
<pdfrwt beam="1">  1       -4 0.29530209E-01 0.12660876E+03</pdfrwt>
<totfact> 0.46957858E+03</totfact>
</mgrwt>
</event>
<event>
 6    4  0.2103460E-003  0.1569599E+03  0.7818608E-02  0.1192172E+00
         -4   -1    0    0    0  501 -0.00000000000E+00  0.00000000000E+00  0.87057314837E+02  0.87066577782E+02  0.12700000000E+01 0. -1.
          4   -1    0    0  502    0  0.00000000000E+00 -0.00000000000E+00 -0.20395263462E+03  0.20395658869E+03  0.12700000000E+01 0. -1.
         25    2    1    2    0    0 -0.73100697000E+02  0.60578781505E+02 -0.11752271772E+03  0.19608163552E+03  0.12499167147E+03 0.  0.
    9000005    1    3    3    0    0 -0.84933943948E+02  0.76448829709E+02 -0.12966584695E+03  0.17283642632E+03  0.10000000000E+01 0.  0.
    9000005    1    3    3    0    0  0.11833246948E+02 -0.15870048204E+02  0.12143129230E+02  0.23245209201E+02  0.10000000000E+01 0.  0.
         21    1    1    2  502  501  0.73100697000E+02 -0.60578781505E+02  0.62739793567E+00  0.94941530947E+02  0.00000000000E+00 0. -1.
<mgrwt>
<rscale>  1 0.15695993E+03</rscale>
<asrwt>0</asrwt>
<pdfrwt beam="2">  1        4 0.31378345E-01 0.15695993E+03</pdfrwt>
<pdfrwt beam="1">  1       -4 0.13394450E-01 0.15695993E+03</pdfrwt>
<totfact> 0.76337096E+02</totfact>
</mgrwt>
</event>
<event>
 6    4  0.2103460E-003  0.1326670E+03  0.7818608E-02  0.1223551E+00
          4   -1    0    0  502    0  0.00000000000E+00  0.00000000000E+00  0.97488504666E+02  0.97496776573E+02  0.12700000000E+01 0.  1.
         -4   -1    0    0    0  501 -0.00000000000E+00 -0.00000000000E+00 -0.95913766262E+02  0.95922173967E+02  0.12700000000E+01 0.  1.
         25    2    1    2    0    0  0.23248873045E+02 -0.37879038023E+02  0.35697767831E+02  0.13738581073E+03  0.12500079497E+03 0.  0.
    9000005    1    3    3    0    0 -0.29134382908E+01  0.31243959307E+02 -0.26266108258E+02  0.40933868115E+02  0.10000000000E+01 0.  0.
    9000005    1    3    3    0    0  0.26162311336E+02 -0.69122997331E+02  0.61963876089E+02  0.96451942616E+02  0.10000000000E+01 0.  0.
         21    1    1    2  502  501 -0.23248873045E+02  0.37879038023E+02 -0.34123029427E+02  0.56033139808E+02  0.00000000000E+00 0.  1.
<mgrwt>
<rscale>  1 0.13266699E+03</rscale>
<asrwt>0</asrwt>
<pdfrwt beam="1">  1        4 0.14999515E-01 0.13266699E+03</pdfrwt>
<pdfrwt beam="2">  1       -4 0.14757247E-01 0.13266699E+03</pdfrwt>
<totfact> 0.23868228E+03</totfact>
</mgrwt>
</event>
<event>
 6    4  0.2103460E-003  0.1269881E+03  0.7818608E-02  0.1231995E+00
          4   -1    0    0  502    0  0.00000000000E+00  0.00000000000E+00  0.67685097936E+02  0.67697011623E+02  0.12700000000E+01 0.  1.
         -4   -1    0    0    0  501 -0.00000000000E+00 -0.00000000000E+00 -0.91256774300E+02  0.91265611024E+02  0.12700000000E+01 0.  1.
         25    2    1    2    0    0 -0.20131306188E+02 -0.99063698225E+01 -0.79430263124E+00  0.12699053473E+03  0.12499023698E+03 0.  0.
    9000005    1    3    3    0    0 -0.29866288866E+02 -0.90049889194E+00  0.58781947397E+02  0.65947884338E+02  0.10000000000E+01 0.  0.
    9000005    1    3    3    0    0  0.97349826782E+01 -0.90058709306E+01 -0.59576250028E+02  0.61042650388E+02  0.10000000000E+01 0.  0.
         21    1    1    2  502  501  0.20131306188E+02  0.99063698225E+01 -0.22777373733E+02  0.31972087921E+02  0.00000000000E+00 0. -1.
<mgrwt>
<rscale>  1 0.12698805E+03</rscale>
<asrwt>0</asrwt>
<pdfrwt beam="1">  1        4 0.10414688E-01 0.12698805E+03</pdfrwt>
<pdfrwt beam="2">  1       -4 0.14041100E-01 0.12698805E+03</pdfrwt>
<totfact> 0.48143457E+03</totfact>
</mgrwt>
</event>
<event>
 6    4  0.2103460E-003  0.1266188E+03  0.7818608E-02  0.1232561E+00
          4   -1    0    0  502    0  0.00000000000E+00  0.00000000000E+00  0.88741742384E+03  0.88741833260E+03  0.12700000000E+01 0. -1.
         -4   -1    0    0    0  501 -0.00000000000E+00 -0.00000000000E+00 -0.73696367639E+01  0.74782649079E+01  0.12700000000E+01 0. -1.
         25    2    1    2    0    0  0.62789050208E+01  0.19179279788E+02  0.84516217335E+03  0.85459429650E+03  0.12500017171E+03 0.  0.
    9000005    1    3    3    0    0 -0.19400254342E+02 -0.26031416027E+02  0.69356912868E+03  0.69432927401E+03  0.10000000000E+01 0.  0.
    9000005    1    3    3    0    0  0.25679159363E+02  0.45210695815E+02  0.15159304467E+03  0.16026502249E+03  0.10000000000E+01 0.  0.
         21    1    1    2  502  501 -0.62789050208E+01 -0.19179279788E+02  0.34885613724E+02  0.40302301006E+02  0.00000000000E+00 0. -1.
<mgrwt>
<rscale>  1 0.12661877E+03</rscale>
<asrwt>0</asrwt>
<pdfrwt beam="1">  1        4 0.13653411E+00 0.12661877E+03</pdfrwt>
<pdfrwt beam="2">  1       -4 0.11422168E-02 0.12661877E+03</pdfrwt>
<totfact> 0.15797921E+03</totfact>
</mgrwt>
</event>
<event>
 6    4  0.2103460E-003  0.1274391E+03  0.7818608E-02  0.1231306E+00
         -4   -1    0    0    0  501 -0.00000000000E+00  0.00000000000E+00  0.29509107019E+03  0.29509380307E+03  0.12700000000E+01 0.  1.
          4   -1    0    0  502    0  0.00000000000E+00 -0.00000000000E+00 -0.26265397879E+02  0.26296083848E+02  0.12700000000E+01 0.  1.
         25    2    1    2    0    0  0.16207617745E+02  0.18769897174E+02  0.13643086827E+03  0.18669252224E+03  0.12500288048E+03 0.  0.
    9000005    1    3    3    0    0 -0.36252746388E+02  0.28542880949E+02  0.69873231392E+01  0.46677407363E+02  0.10000000000E+01 0.  0.
    9000005    1    3    3    0    0  0.52460364133E+02 -0.97729837743E+01  0.12944354513E+03  0.14001511487E+03  0.10000000000E+01 0.  0.
         21    1    1    2  502  501 -0.16207617745E+02 -0.18769897174E+02  0.13239480404E+03  0.13469736468E+03  0.00000000000E+00 0.  1.
<mgrwt>
<rscale>  1 0.12743907E+03</rscale>
<asrwt>0</asrwt>
<pdfrwt beam="2">  1        4 0.40434011E-02 0.12743907E+03</pdfrwt>
<pdfrwt beam="1">  1       -4 0.45401197E-01 0.12743907E+03</pdfrwt>
<totfact> 0.25670556E+03</totfact>
</mgrwt>
</event>
<event>
 6    4  0.2103460E-003  0.1289855E+03  0.7818608E-02  0.1228969E+00
         -4   -1    0    0    0  501 -0.00000000000E+00  0.00000000000E+00  0.20361532541E+02  0.20401100642E+02  0.12700000000E+01 0.  1.
          4   -1    0    0  502    0  0.00000000000E+00 -0.00000000000E+00 -0.60414245394E+03  0.60414378881E+03  0.12700000000E+01 0.  1.
         25    2    1    2    0    0 -0.83450426310E+00 -0.31808319637E+02 -0.57798434159E+03  0.59220194690E+03  0.12499912476E+03 0.  0.
    9000005    1    3    3    0    0 -0.46628095784E+01 -0.41498811240E+02 -0.54762552812E+02  0.68875469639E+02  0.10000000000E+01 0.  0.
    9000005    1    3    3    0    0  0.38283053153E+01  0.96904916026E+01 -0.52322178877E+03  0.52332647726E+03  0.10000000000E+01 0.  0.
         21    1    1    2  502  501  0.83450426310E+00  0.31808319637E+02 -0.57965798137E+01  0.32342942554E+02  0.00000000000E+00 0.  1.
<mgrwt>
<rscale>  1 0.12898545E+03</rscale>
<asrwt>0</asrwt>
<pdfrwt beam="2">  1        4 0.92948126E-01 0.12898545E+03</pdfrwt>
<pdfrwt beam="1">  1       -4 0.31356903E-02 0.12898545E+03</pdfrwt>
<totfact> 0.83553757E+02</totfact>
</mgrwt>
</event>
<event>
 6    4  0.2103460E-003  0.1294828E+03  0.7818608E-02  0.1228225E+00
          4   -1    0    0  502    0  0.00000000000E+00  0.00000000000E+00  0.17701204522E+04  0.17701209078E+04  0.12700000000E+01 0. -1.
         -4   -1    0    0    0  501 -0.00000000000E+00 -0.00000000000E+00 -0.36581061093E+01  0.38722913510E+01  0.12700000000E+01 0. -1.
         25    2    1    2    0    0  0.31554703441E+02 -0.12073996108E+02  0.13900247537E+04  0.13960424859E+04  0.12499730312E+03 0.  0.
    9000005    1    3    3    0    0  0.60420355914E+02 -0.31887060353E+02  0.12440351259E+04  0.12459100283E+04  0.10000000000E+01 0.  0.
    9000005    1    3    3    0    0 -0.28865652473E+02  0.19813064244E+02  0.14598962778E+03  0.15013245761E+03  0.10000000000E+01 0.  0.
         21    1    1    2  502  501 -0.31554703441E+02  0.12073996108E+02  0.37643759242E+03  0.37795071329E+03  0.00000000000E+00 0. -1.
<mgrwt>
<rscale>  1 0.12948284E+03</rscale>
<asrwt>0</asrwt>
<pdfrwt beam="1">  1        4 0.27234285E+00 0.12948284E+03</pdfrwt>
<pdfrwt beam="2">  1       -4 0.57929615E-03 0.12948284E+03</pdfrwt>
<totfact> 0.60144830E+02</totfact>
</mgrwt>
</event>
<event>
 6    4  0.2103460E-003  0.1291272E+03  0.7818608E-02  0.1228757E+00
          4   -1    0    0  502    0  0.00000000000E+00  0.00000000000E+00  0.20406078777E+02  0.20445560668E+02  0.12700000000E+01 0.  1.
         -4   -1    0    0    0  501 -0.00000000000E+00 -0.00000000000E+00 -0.33638968455E+03  0.33639208191E+03  0.12700000000E+01 0.  1.
         25    2    1    2    0    0 -0.22661769513E+02  0.23155950147E+02 -0.21513432841E+03  0.25091158078E+03  0.12499635307E+03 0.  0.
    9000005    1    3    3    0    0  0.45119516628E+02 -0.19065095549E+02 -0.73988720766E+02  0.88738827182E+02  0.10000000000E+01 0.  0.
    9000005    1    3    3    0    0 -0.67781286141E+02  0.42221045696E+02 -0.14114560765E+03  0.16217275360E+03  0.10000000000E+01 0.  0.
         21    1    1    2  502  501  0.22661769513E+02 -0.23155950147E+02 -0.10084927736E+03  0.10592606180E+03  0.00000000000E+00 0.  1.
<mgrwt>
<rscale>  1 0.12912723E+03</rscale>
<asrwt>0</asrwt>
<pdfrwt beam="1">  1        4 0.31426185E-02 0.12912723E+03</pdfrwt>
<pdfrwt beam="2">  1       -4 0.51755477E-01 0.12912723E+03</pdfrwt>
<totfact> 0.29395410E+03</totfact>
</mgrwt>
</event>
<event>
 6    4  0.2103460E-003  0.1284923E+03  0.7818608E-02  0.1229710E+00
         -4   -1    0    0    0  501 -0.00000000000E+00  0.00000000000E+00  0.24275241539E+03  0.24275573748E+03  0.12700000000E+01 0.  1.
          4   -1    0    0  502    0  0.00000000000E+00 -0.00000000000E+00 -0.28813554417E+02  0.28841529400E+02  0.12700000000E+01 0.  1.
         25    2    1    2    0    0  0.29253945875E+02 -0.50332353066E+01  0.13095984087E+03  0.18346869839E+03  0.12501662514E+03 0.  0.
    9000005    1    3    3    0    0 -0.79439200539E+01  0.26971810257E+02  0.13140684446E+03  0.13438505566E+03  0.10000000000E+01 0.  0.
    9000005    1    3    3    0    0  0.37197865929E+02 -0.32005045564E+02 -0.44700358686E+00  0.49083642727E+02  0.10000000000E+01 0.  0.
         21    1    1    2  502  501 -0.29253945875E+02  0.50332353066E+01  0.82979020103E+02  0.88128568490E+02  0.00000000000E+00 0. -1.
<mgrwt>
<rscale>  1 0.12849235E+03</rscale>
<asrwt>0</asrwt>
<pdfrwt beam="2">  1        4 0.44352618E-02 0.12849235E+03</pdfrwt>
<pdfrwt beam="1">  1       -4 0.37348934E-01 0.12849235E+03</pdfrwt>
<totfact> 0.32640552E+03</totfact>
</mgrwt>
</event>
<event>
 6    4  0.2103460E-003  0.1288154E+03  0.7818608E-02  0.1229224E+00
         -4   -1    0    0    0  501 -0.00000000000E+00  0.00000000000E+00  0.47103453806E+02  0.47120571521E+02  0.12700000000E+01 0. -1.
          4   -1    0    0  502    0  0.00000000000E+00 -0.00000000000E+00 -0.13577152388E+03  0.13577746351E+03  0.12700000000E+01 0. -1.
         25    2    1    2    0    0 -0.11556181812E+02 -0.28881482716E+02 -0.73116345877E+02  0.14811957176E+03  0.12500288846E+03 0.  0.
    9000005    1    3    3    0    0  0.35812742523E+02  0.17440121143E+01 -0.83388986833E+02  0.90776193081E+02  0.10000000000E+01 0.  0.
    9000005    1    3    3    0    0 -0.47368924335E+02 -0.30625494830E+02  0.10272640955E+02  0.57343378680E+02  0.10000000000E+01 0.  0.
         21    1    1    2  502  501  0.11556181812E+02  0.28881482716E+02 -0.15551724200E+02  0.34778463271E+02  0.00000000000E+00 0.  1.
<mgrwt>
<rscale>  1 0.12881540E+03</rscale>
<asrwt>0</asrwt>
<pdfrwt beam="2">  1        4 0.20889700E-01 0.12881540E+03</pdfrwt>
<pdfrwt beam="1">  1       -4 0.72484589E-02 0.12881540E+03</pdfrwt>
<totfact> 0.43770011E+03</totfact>
</mgrwt>
</event>
<event>
 6    4  0.2103460E-003  0.1268593E+03  0.7818608E-02  0.1232192E+00
          4   -1    0    0  502    0  0.00000000000E+00  0.00000000000E+00  0.21321686282E+03  0.21322064509E+03  0.12700000000E+01 0.  1.
         -4   -1    0    0    0  501 -0.00000000000E+00 -0.00000000000E+00 -0.27617197382E+02  0.27646382968E+02  0.12700000000E+01 0.  1.
         25    2    1    2    0    0 -0.17248211253E+02 -0.13060882776E+02  0.17658358330E+03  0.21742823143E+03  0.12500074592E+03 0.  0.
    9000005    1    3    3    0    0  0.24178206464E+02  0.46522803218E+02  0.92708486871E+02  0.10651206704E+03  0.10000000000E+01 0.  0.
    9000005    1    3    3    0    0 -0.41426417717E+02 -0.59583685994E+02  0.83875096428E+02  0.11091616439E+03  0.10000000000E+01 0.  0.
         21    1    1    2  502  501  0.17248211253E+02  0.13060882776E+02  0.90160821419E+01  0.23438796631E+02  0.00000000000E+00 0.  1.
<mgrwt>
<rscale>  1 0.12685927E+03</rscale>
<asrwt>0</asrwt>
<pdfrwt beam="1">  1        4 0.32805130E-01 0.12685927E+03</pdfrwt>
<pdfrwt beam="2">  1       -4 0.42513356E-02 0.12685927E+03</pdfrwt>
<totfact> 0.44698434E+03</totfact>
</mgrwt>
</event>
<event>
 6    4  0.2103460E-003  0.1268091E+03  0.7818608E-02  0.1232269E+00
         -4   -1    0    0    0  501 -0.00000000000E+00  0.00000000000E+00  0.99852015791E+02  0.99860091916E+02  0.12700000000E+01 0.  1.
          4   -1    0    0  502    0  0.00000000000E+00 -0.00000000000E+00 -0.61097249921E+02  0.61110447944E+02  0.12700000000E+01 0.  1.
         25    2    1    2    0    0  0.14230687149E+02 -0.15928360053E+02  0.12943965281E+02  0.12746796477E+03  0.12499724275E+03 0.  0.
    9000005    1    3    3    0    0  0.44021741697E+02 -0.57142091175E+02  0.22803189164E+02  0.75657899534E+02  0.10000000000E+01 0.  0.
    9000005    1    3    3    0    0 -0.29791054548E+02  0.41213731122E+02 -0.98592238820E+01  0.51810065235E+02  0.10000000000E+01 0.  0.
         21    1    1    2  502  501 -0.14230687149E+02  0.15928360053E+02  0.25810800588E+02  0.33502575091E+02  0.00000000000E+00 0.  1.
<mgrwt>
<rscale>  1 0.12680905E+03</rscale>
<asrwt>0</asrwt>
<pdfrwt beam="2">  1        4 0.94012134E-02 0.12680905E+03</pdfrwt>
<pdfrwt beam="1">  1       -4 0.15363485E-01 0.12680905E+03</pdfrwt>
<totfact> 0.48878167E+03</totfact>
</mgrwt>
</event>
<event>
 6    4  0.2103460E-003  0.1319422E+03  0.7818608E-02  0.1224602E+00
          4   -1    0    0  502    0  0.00000000000E+00  0.00000000000E+00  0.11310533032E+03  0.11311246017E+03  0.12700000000E+01 0. -1.
         -4   -1    0    0    0  501 -0.00000000000E+00 -0.00000000000E+00 -0.65361489694E+03  0.65361613077E+03  0.12700000000E+01 0. -1.
         25    2    1    2    0    0  0.18122637546E+02  0.38150807527E+02  0.73658258321E+02  0.15111017723E+03  0.12499933015E+03 0.  0.
    9000005    1    3    3    0    0 -0.22992724755E+02  0.16435867251E+02 -0.27702832732E+02  0.39588509259E+02  0.10000000000E+01 0.  0.
    9000005    1    3    3    0    0  0.41115362301E+02  0.21714940275E+02  0.10136109105E+03  0.11152166797E+03  0.10000000000E+01 0.  0.
         21    1    1    2  502  501 -0.18122637546E+02 -0.38150807527E+02 -0.61416782494E+03  0.61561841371E+03  0.00000000000E+00 0. -1.
<mgrwt>
<rscale>  1 0.13194221E+03</rscale>
<asrwt>0</asrwt>
<pdfrwt beam="1">  1        4 0.17401464E-01 0.13194221E+03</pdfrwt>
<pdfrwt beam="2">  1       -4 0.10055678E+00 0.13194221E+03</pdfrwt>
<totfact> 0.41168529E+01</totfact>
</mgrwt>
</event>
<event>
 6    4  0.2103460E-003  0.1542280E+03  0.7818608E-02  0.1195372E+00
          4   -1    0    0  502    0  0.00000000000E+00  0.00000000000E+00  0.10967522881E+02  0.11040808764E+02  0.12700000000E+01 0.  1.
         -4   -1    0    0    0  501 -0.00000000000E+00 -0.00000000000E+00 -0.13604509275E+04  0.13604515202E+04  0.12700000000E+01 0.  1.
         25    2    1    2    0    0 -0.30132720404E+01  0.90284661377E+02 -0.87418556830E+03  0.88768613531E+03  0.12500346837E+03 0.  0.
    9000005    1    3    3    0    0  0.38978592936E+02 -0.10390376830E+02 -0.15009334264E+03  0.15542297817E+03  0.10000000000E+01 0.  0.
    9000005    1    3    3    0    0 -0.41991864976E+02  0.10067503821E+03 -0.72409222566E+03  0.73226315714E+03  0.10000000000E+01 0.  0.
         21    1    1    2  502  501  0.30132720404E+01 -0.90284661377E+02 -0.47529783627E+03  0.48380619369E+03  0.00000000000E+00 0.  1.
<mgrwt>
<rscale>  1 0.15422797E+03</rscale>
<asrwt>0</asrwt>
<pdfrwt beam="1">  1        4 0.16929953E-02 0.15422797E+03</pdfrwt>
<pdfrwt beam="2">  1       -4 0.20930569E+00 0.15422797E+03</pdfrwt>
<totfact> 0.28712973E+02</totfact>
</mgrwt>
</event>
<event>
 6    4  0.2103460E-003  0.1294354E+03  0.7818608E-02  0.1228296E+00
         -4   -1    0    0    0  501 -0.00000000000E+00  0.00000000000E+00  0.41433633600E+02  0.41453092687E+02  0.12700000000E+01 0. -1.
          4   -1    0    0  502    0  0.00000000000E+00 -0.00000000000E+00 -0.16041348759E+03  0.16041851483E+03  0.12700000000E+01 0. -1.
         25    2    1    2    0    0  0.33306058358E+02  0.44048792890E+01 -0.92393851031E+02  0.15902873135E+03  0.12499926881E+03 0.  0.
    9000005    1    3    3    0    0  0.59127783733E+02 -0.44422187510E+02 -0.48182395638E+02  0.88272129247E+02  0.10000000000E+01 0.  0.
    9000005    1    3    3    0    0 -0.25821725375E+02  0.48827066799E+02 -0.44211455393E+02  0.70756602106E+02  0.10000000000E+01 0.  0.
         21    1    1    2  502  501 -0.33306058358E+02 -0.44048792890E+01 -0.26586002961E+02  0.42842876168E+02  0.00000000000E+00 0. -1.
<mgrwt>
<rscale>  1 0.12943536E+03</rscale>
<asrwt>0</asrwt>
<pdfrwt beam="2">  1        4 0.24680881E-01 0.12943536E+03</pdfrwt>
<pdfrwt beam="1">  1       -4 0.63762888E-02 0.12943536E+03</pdfrwt>
<totfact> 0.39880741E+03</totfact>
</mgrwt>
</event>
<event>
 6    4  0.2103460E-003  0.1350309E+03  0.7818608E-02  0.1220176E+00
          4   -1    0    0  502    0  0.00000000000E+00  0.00000000000E+00  0.87732398637E+03  0.87732490558E+03  0.12700000000E+01 0.  1.
         -4   -1    0    0    0  501 -0.00000000000E+00 -0.00000000000E+00 -0.20099398865E+02  0.20139481987E+02  0.12700000000E+01 0.  1.
         25    2    1    2    0    0 -0.12775024574E+02 -0.49445877452E+02  0.82735397295E+03  0.83830063462E+03  0.12500104556E+03 0.  0.
    9000005    1    3    3    0    0  0.33969552288E+02 -0.73935811799E+02  0.54733696069E+03  0.55335267532E+03  0.10000000000E+01 0.  0.
    9000005    1    3    3    0    0 -0.46744576861E+02  0.24489934347E+02  0.28001701227E+03  0.28494795930E+03  0.10000000000E+01 0.  0.
         21    1    1    2  502  501  0.12775024574E+02  0.49445877452E+02  0.29870614552E+02  0.59163752954E+02  0.00000000000E+00 0.  1.
<mgrwt>
<rscale>  1 0.13503095E+03</rscale>
<asrwt>0</asrwt>
<pdfrwt beam="1">  1        4 0.13497604E+00 0.13503095E+03</pdfrwt>
<pdfrwt beam="2">  1       -4 0.30953700E-02 0.13503095E+03</pdfrwt>
<totfact> 0.35574736E+02</totfact>
</mgrwt>
</event>
<event>
 6    4  0.2103460E-003  0.1349243E+03  0.7818608E-02  0.1220327E+00
         -4   -1    0    0    0  501 -0.00000000000E+00  0.00000000000E+00  0.17975879740E+02  0.18020686791E+02  0.12700000000E+01 0.  1.
          4   -1    0    0  502    0  0.00000000000E+00 -0.00000000000E+00 -0.52049535427E+03  0.52049690365E+03  0.12700000000E+01 0.  1.
         25    2    1    2    0    0  0.37582362061E+02 -0.34165289359E+02 -0.42446277649E+03  0.44539106875E+03  0.12499941823E+03 0.  0.
    9000005    1    3    3    0    0  0.12182207854E+02 -0.59451226019E+02 -0.87290880922E+02  0.10631816569E+03  0.10000000000E+01 0.  0.
    9000005    1    3    3    0    0  0.25400154206E+02  0.25285936659E+02 -0.33717189557E+03  0.33907290306E+03  0.10000000000E+01 0.  0.
         21    1    1    2  502  501 -0.37582362061E+02  0.34165289359E+02 -0.78056698031E+02  0.93126521693E+02  0.00000000000E+00 0.  1.
<mgrwt>
<rscale>  1 0.13492426E+03</rscale>
<asrwt>0</asrwt>
<pdfrwt beam="2">  1        4 0.80079762E-01 0.13492426E+03</pdfrwt>
<pdfrwt beam="1">  1       -4 0.27690862E-02 0.13492426E+03</pdfrwt>
<totfact> 0.14308738E+03</totfact>
</mgrwt>
</event>
<event>
 6    4  0.2103460E-003  0.1284064E+03  0.7818608E-02  0.1229840E+00
          4   -1    0    0  502    0  0.00000000000E+00  0.00000000000E+00  0.37273831434E+02  0.37295460981E+02  0.12700000000E+01 0.  1.
         -4   -1    0    0    0  501 -0.00000000000E+00 -0.00000000000E+00 -0.21187306204E+03  0.21187686829E+03  0.12700000000E+01 0.  1.
         25    2    1    2    0    0  0.14184888852E+02 -0.25727457424E+02 -0.82802321389E+02  0.15278879500E+03  0.12500031325E+03 0.  0.
    9000005    1    3    3    0    0 -0.22736661059E+02 -0.67697373110E+02 -0.56167192838E+02  0.90860572491E+02  0.10000000000E+01 0.  0.
    9000005    1    3    3    0    0  0.36921549911E+02  0.41969915685E+02 -0.26635128551E+02  0.61928222511E+02  0.10000000000E+01 0.  0.
         21    1    1    2  502  501 -0.14184888852E+02  0.25727457424E+02 -0.91796909212E+02  0.96383534269E+02  0.00000000000E+00 0. -1.
<mgrwt>
<rscale>  1 0.12840635E+03</rscale>
<asrwt>0</asrwt>
<pdfrwt beam="1">  1        4 0.57363923E-02 0.12840635E+03</pdfrwt>
<pdfrwt beam="2">  1       -4 0.32597812E-01 0.12840635E+03</pdfrwt>
<totfact> 0.28057512E+03</totfact>
</mgrwt>
</event>
<event>
 6    4  0.2103460E-003  0.1294800E+03  0.7818608E-02  0.1228229E+00
         -4   -1    0    0    0  501 -0.00000000000E+00  0.00000000000E+00  0.16376682937E+02  0.16425852916E+02  0.12700000000E+01 0. -1.
          4   -1    0    0  502    0  0.00000000000E+00 -0.00000000000E+00 -0.49827992572E+03  0.49828154418E+03  0.12700000000E+01 0. -1.
         25    2    1    2    0    0  0.34717225702E+01  0.33597952598E+02 -0.44995685245E+03  0.46821603090E+03  0.12499682893E+03 0.  0.
    9000005    1    3    3    0    0  0.15678741856E+02  0.42796650819E+02 -0.48855934079E+02  0.66822739859E+02  0.10000000000E+01 0.  0.
    9000005    1    3    3    0    0 -0.12207019286E+02 -0.91986982207E+01 -0.40110091837E+03  0.40139329104E+03  0.10000000000E+01 0.  0.
         21    1    1    2  502  501 -0.34717225702E+01 -0.33597952598E+02 -0.31946390328E+02  0.46491366203E+02  0.00000000000E+00 0. -1.
<mgrwt>
<rscale>  1 0.12948005E+03</rscale>
<asrwt>0</asrwt>
<pdfrwt beam="2">  1        4 0.76662346E-01 0.12948005E+03</pdfrwt>
<pdfrwt beam="1">  1       -4 0.25233969E-02 0.12948005E+03</pdfrwt>
<totfact> 0.18036394E+03</totfact>
</mgrwt>
</event>
<event>
 6    4  0.2103460E-003  0.1326830E+03  0.7818608E-02  0.1223528E+00
          4   -1    0    0  502    0  0.00000000000E+00  0.00000000000E+00  0.44877132331E+03  0.44877312033E+03  0.12700000000E+01 0.  1.
         -4   -1    0    0    0  501 -0.00000000000E+00 -0.00000000000E+00 -0.18042894425E+02  0.18087535466E+02  0.12700000000E+01 0.  1.
         25    2    1    2    0    0 -0.30906243084E+02 -0.32116172131E+02  0.28310349728E+03  0.31265376617E+03  0.12497256881E+03 0.  0.
    9000005    1    3    3    0    0  0.51641930117E+01  0.40573267676E+02  0.43668746022E+02  0.59839939159E+02  0.10000000000E+01 0.  0.
    9000005    1    3    3    0    0 -0.36070436095E+02 -0.72689439807E+02  0.23943475126E+03  0.25281382701E+03  0.10000000000E+01 0.  0.
         21    1    1    2  502  501  0.30906243084E+02  0.32116172131E+02  0.14762493161E+03  0.15420688962E+03  0.00000000000E+00 0. -1.
<mgrwt>
<rscale>  1 0.13268303E+03</rscale>
<asrwt>0</asrwt>
<pdfrwt beam="1">  1        4 0.69045316E-01 0.13268303E+03</pdfrwt>
<pdfrwt beam="2">  1       -4 0.27794020E-02 0.13268303E+03</pdfrwt>
<totfact> 0.19585087E+03</totfact>
</mgrwt>
</event>
<event>
 6    4  0.2103460E-003  0.1266005E+03  0.7818608E-02  0.1232589E+00
          4   -1    0    0  502    0  0.00000000000E+00  0.00000000000E+00  0.69063314834E+02  0.69074990814E+02  0.12700000000E+01 0. -1.
         -4   -1    0    0    0  501 -0.00000000000E+00 -0.00000000000E+00 -0.81867243866E+02  0.81877093978E+02  0.12700000000E+01 0. -1.
         25    2    1    2    0    0 -0.36721149212E+01  0.19712024486E+02  0.10074988912E+01  0.12660452067E+03  0.12500256503E+03 0.  0.
    9000005    1    3    3    0    0 -0.87418269532E+00 -0.11403061914E+02  0.59332078379E+02  0.60432520559E+02  0.10000000000E+01 0.  0.
    9000005    1    3    3    0    0 -0.27979322259E+01  0.31115086400E+02 -0.58324579488E+02  0.66172000112E+02  0.10000000000E+01 0.  0.
         21    1    1    2  502  501  0.36721149212E+01 -0.19712024486E+02 -0.13811427923E+02  0.24347564120E+02  0.00000000000E+00 0. -1.
<mgrwt>
<rscale>  1 0.12660051E+03</rscale>
<asrwt>0</asrwt>
<pdfrwt beam="1">  1        4 0.10626781E-01 0.12660051E+03</pdfrwt>
<pdfrwt beam="2">  1       -4 0.12596616E-01 0.12660051E+03</pdfrwt>
<totfact> 0.56064834E+03</totfact>
</mgrwt>
</event>
<event>
 6    4  0.2103460E-003  0.1268331E+03  0.7818608E-02  0.1232232E+00
          4   -1    0    0  502    0  0.00000000000E+00  0.00000000000E+00  0.10215442642E+03  0.10216232053E+03  0.12700000000E+01 0.  1.
         -4   -1    0    0    0  501 -0.00000000000E+00 -0.00000000000E+00 -0.56731549524E+02  0.56745762938E+02  0.12700000000E+01 0.  1.
         25    2    1    2    0    0 -0.18601289453E+02 -0.10900208619E+02  0.50896792776E+02  0.13666429170E+03  0.12498728973E+03 0.  0.
    9000005    1    3    3    0    0  0.45586199132E+02  0.12906781681E+02  0.49005578889E+02  0.68170619236E+02  0.10000000000E+01 0.  0.
    9000005    1    3    3    0    0 -0.64187488585E+02 -0.23806990301E+02  0.18912138866E+01  0.68493672467E+02  0.10000000000E+01 0.  0.
         21    1    1    2  502  501  0.18601289453E+02  0.10900208619E+02 -0.54739158806E+01  0.22243791770E+02  0.00000000000E+00 0. -1.
<mgrwt>
<rscale>  1 0.12683314E+03</rscale>
<asrwt>0</asrwt>
<pdfrwt beam="1">  1        4 0.15717766E-01 0.12683314E+03</pdfrwt>
<pdfrwt beam="2">  1       -4 0.87296313E-02 0.12683314E+03</pdfrwt>
<totfact> 0.53156524E+03</totfact>
</mgrwt>
</event>
<event>
 6    4  0.2103460E-003  0.1276641E+03  0.7818608E-02  0.1230964E+00
         -4   -1    0    0    0  501 -0.00000000000E+00  0.00000000000E+00  0.18796927831E+03  0.18797356859E+03  0.12700000000E+01 0. -1.
          4   -1    0    0  502    0  0.00000000000E+00 -0.00000000000E+00 -0.32085055032E+02  0.32110179950E+02  0.12700000000E+01 0. -1.
         25    2    1    2    0    0  0.20582332855E+02 -0.15770418278E+02  0.14090849224E+03  0.19014028450E+03  0.12500314431E+03 0.  0.
    9000005    1    3    3    0    0  0.39975418198E+02 -0.43730765792E+02  0.17010122610E+02  0.61650289602E+02  0.10000000000E+01 0.  0.
    9000005    1    3    3    0    0 -0.19393085343E+02  0.27960347514E+02  0.12389836963E+03  0.12848999490E+03  0.10000000000E+01 0.  0.
         21    1    1    2  502  501 -0.20582332855E+02  0.15770418278E+02  0.14975731038E+02  0.29943464037E+02  0.00000000000E+00 0. -1.
<mgrwt>
<rscale>  1 0.12766411E+03</rscale>
<asrwt>0</asrwt>
<pdfrwt beam="2">  1        4 0.49384250E-02 0.12766411E+03</pdfrwt>
<pdfrwt beam="1">  1       -4 0.28920613E-01 0.12766411E+03</pdfrwt>
<totfact> 0.44739130E+03</totfact>
</mgrwt>
</event>
<event>
 6    4  0.2103460E-003  0.1275251E+03  0.7818608E-02  0.1231175E+00
         -4   -1    0    0    0  501 -0.00000000000E+00  0.00000000000E+00  0.91209789920E+03  0.91209878337E+03  0.12700000000E+01 0. -1.
          4   -1    0    0  502    0  0.00000000000E+00 -0.00000000000E+00 -0.64282341639E+01  0.65524876547E+01  0.12700000000E+01 0. -1.
         25    2    1    2    0    0  0.25248087049E+02  0.93695301683E+00  0.71060176021E+03  0.72195396226E+03  0.12499727291E+03 0.  0.
    9000005    1    3    3    0    0  0.34409990732E+00  0.61648410413E+02  0.32216787897E+03  0.32801491910E+03  0.10000000000E+01 0.  0.
    9000005    1    3    3    0    0  0.24903987142E+02 -0.60711457396E+02  0.38843388124E+03  0.39393904317E+03  0.10000000000E+01 0.  0.
         21    1    1    2  502  501 -0.25248087049E+02 -0.93695301683E+00  0.19506790482E+03  0.19669730876E+03  0.00000000000E+00 0. -1.
<mgrwt>
<rscale>  1 0.12752514E+03</rscale>
<asrwt>0</asrwt>
<pdfrwt beam="2">  1        4 0.99858521E-03 0.12752514E+03</pdfrwt>
<pdfrwt beam="1">  1       -4 0.14033236E+00 0.12752514E+03</pdfrwt>
<totfact> 0.18094607E+03</totfact>
</mgrwt>
</event>
<event>
 6    4  0.2103460E-003  0.1270194E+03  0.7818608E-02  0.1231947E+00
         -4   -1    0    0    0  501 -0.00000000000E+00  0.00000000000E+00  0.81395591496E+01  0.82380412204E+01  0.12700000000E+01 0.  1.
          4   -1    0    0  502    0  0.00000000000E+00 -0.00000000000E+00 -0.69961103951E+03  0.69961219222E+03  0.12700000000E+01 0.  1.
         25    2    1    2    0    0 -0.22516372598E+02 -0.12379327430E+01 -0.62105520148E+03  0.63391125966E+03  0.12500160929E+03 0.  0.
    9000005    1    3    3    0    0 -0.25324886707E+01  0.31707145860E+02 -0.37923648140E+02  0.49507168023E+02  0.10000000000E+01 0.  0.
    9000005    1    3    3    0    0 -0.19983883928E+02 -0.32945078603E+02 -0.58313155334E+03  0.58440409164E+03  0.10000000000E+01 0.  0.
         21    1    1    2  502  501  0.22516372598E+02  0.12379327430E+01 -0.70416278881E+02  0.73938973782E+02  0.00000000000E+00 0. -1.
<mgrwt>
<rscale>  1 0.12701938E+03</rscale>
<asrwt>0</asrwt>
<pdfrwt beam="2">  1        4 0.10764009E+00 0.12701938E+03</pdfrwt>
<pdfrwt beam="1">  1       -4 0.12599046E-02 0.12701938E+03</pdfrwt>
<totfact> 0.24142787E+03</totfact>
</mgrwt>
</event>
<event>
 6    4  0.2103460E-003  0.1283276E+03  0.7818608E-02  0.1229959E+00
          4   -1    0    0  502    0  0.00000000000E+00  0.00000000000E+00  0.10769874590E+03  0.10770623366E+03  0.12700000000E+01 0. -1.
         -4   -1    0    0    0  501 -0.00000000000E+00 -0.00000000000E+00 -0.65251362540E+02  0.65263720499E+02  0.12700000000E+01 0. -1.
         25    2    1    2    0    0 -0.28131794661E+02  0.72283511655E+01  0.57076605105E+02  0.14044825278E+03  0.12499730368E+03 0.  0.
    9000005    1    3    3    0    0 -0.47849482864E+02 -0.48080747743E+02  0.18976174437E+02  0.70444492405E+02  0.10000000000E+01 0.  0.
    9000005    1    3    3    0    0  0.19717688203E+02  0.55309098909E+02  0.38100430668E+02  0.70003760379E+02  0.10000000000E+01 0.  0.
         21    1    1    2  502  501  0.28131794661E+02 -0.72283511655E+01 -0.14629221742E+02  0.32521701374E+02  0.00000000000E+00 0. -1.
<mgrwt>
<rscale>  1 0.12832760E+03</rscale>
<asrwt>0</asrwt>
<pdfrwt beam="1">  1        4 0.16570564E-01 0.12832760E+03</pdfrwt>
<pdfrwt beam="2">  1       -4 0.10040198E-01 0.12832760E+03</pdfrwt>
<totfact> 0.38444289E+03</totfact>
</mgrwt>
</event>
<event>
 6    4  0.2103460E-003  0.1303927E+03  0.7818608E-02  0.1226874E+00
         -4   -1    0    0    0  501 -0.00000000000E+00  0.00000000000E+00  0.57822793522E+03  0.57822932991E+03  0.12700000000E+01 0.  1.
          4   -1    0    0  502    0  0.00000000000E+00 -0.00000000000E+00 -0.12395495913E+02  0.12460385986E+02  0.12700000000E+01 0.  1.
         25    2    1    2    0    0  0.34867242104E+02 -0.12710731521E+02  0.47490107476E+03  0.49247668048E+03  0.12499985095E+03 0.  0.
    9000005    1    3    3    0    0 -0.21283630136E+02 -0.43637129589E+02  0.33602891152E+03  0.33951969216E+03  0.10000000000E+01 0.  0.
    9000005    1    3    3    0    0  0.56150872240E+02  0.30926398068E+02  0.13887216325E+03  0.15295698832E+03  0.10000000000E+01 0.  0.
         21    1    1    2  502  501 -0.34867242104E+02  0.12710731521E+02  0.90931364546E+02  0.98213035418E+02  0.00000000000E+00 0.  1.
<mgrwt>
<rscale>  1 0.13039268E+03</rscale>
<asrwt>0</asrwt>
<pdfrwt beam="2">  1        4 0.19120984E-02 0.13039268E+03</pdfrwt>
<pdfrwt beam="1">  1       -4 0.88963232E-01 0.13039268E+03</pdfrwt>
<totfact> 0.19924250E+03</totfact>
</mgrwt>
</event>
<event>
 6    4  0.2103460E-003  0.1290652E+03  0.7818608E-02  0.1228849E+00
         -4   -1    0    0    0  501 -0.00000000000E+00  0.00000000000E+00  0.32823870956E+01  0.35195120465E+01  0.12700000000E+01 0. -1.
          4   -1    0    0  502    0  0.00000000000E+00 -0.00000000000E+00 -0.20356216053E+04  0.20356220014E+04  0.12700000000E+01 0. -1.
         25    2    1    2    0    0  0.31413107768E+02  0.67150633400E+01 -0.17956529823E+04  0.18002853859E+04  0.12500385017E+03 0.  0.
    9000005    1    3    3    0    0  0.50830423688E+02 -0.14382998605E+02 -0.16894279479E+04  0.16902539435E+04  0.10000000000E+01 0.  0.
    9000005    1    3    3    0    0 -0.19417315920E+02  0.21098061945E+02 -0.10622503443E+03  0.11003144239E+03  0.10000000000E+01 0.  0.
         21    1    1    2  502  501 -0.31413107768E+02 -0.67150633400E+01 -0.23668623589E+03  0.23885612756E+03  0.00000000000E+00 0. -1.
<mgrwt>
<rscale>  1 0.12906525E+03</rscale>
<asrwt>0</asrwt>
<pdfrwt beam="2">  1        4 0.31318985E+00 0.12906525E+03</pdfrwt>
<pdfrwt beam="1">  1       -4 0.52325511E-03 0.12906525E+03</pdfrwt>
<totfact> 0.40656672E+02</totfact>
</mgrwt>
</event>
<event>
 6    4  0.2103460E-003  0.1277108E+03  0.7818608E-02  0.1230892E+00
          4   -1    0    0  502    0  0.00000000000E+00  0.00000000000E+00  0.47635548692E+02  0.47652475268E+02  0.12700000000E+01 0.  1.
         -4   -1    0    0    0  501 -0.00000000000E+00 -0.00000000000E+00 -0.16498211289E+03  0.16498700092E+03  0.12700000000E+01 0.  1.
         25    2    1    2    0    0 -0.25899944117E+02 -0.39207333207E+01 -0.44525138320E+02  0.13524994640E+03  0.12499552313E+03 0.  0.
    9000005    1    3    3    0    0 -0.54323693259E+02 -0.45667264853E+02 -0.50762870647E+01  0.71157089730E+02  0.10000000000E+01 0.  0.
    9000005    1    3    3    0    0  0.28423749142E+02  0.41746531532E+02 -0.39448851255E+02  0.64092856666E+02  0.10000000000E+01 0.  0.
         21    1    1    2  502  501  0.25899944117E+02  0.39207333207E+01 -0.72821425879E+02  0.77389529797E+02  0.00000000000E+00 0.  1.
<mgrwt>
<rscale>  1 0.12771085E+03</rscale>
<asrwt>0</asrwt>
<pdfrwt beam="1">  1        4 0.73302241E-02 0.12771085E+03</pdfrwt>
<pdfrwt beam="2">  1       -4 0.25383541E-01 0.12771085E+03</pdfrwt>
<totfact> 0.30041807E+03</totfact>
</mgrwt>
</event>
<event>
 6    4  0.2103460E-003  0.1292949E+03  0.7818608E-02  0.1228506E+00
         -4   -1    0    0    0  501 -0.00000000000E+00  0.00000000000E+00  0.48775306266E+03  0.48775471605E+03  0.12700000000E+01 0.  1.
          4   -1    0    0  502    0  0.00000000000E+00 -0.00000000000E+00 -0.17316459067E+02  0.17362967910E+02  0.12700000000E+01 0.  1.
         25    2    1    2    0    0 -0.48822343826E+01 -0.32674442513E+02  0.24264876967E+03  0.27494654614E+03  0.12500288958E+03 0.  0.
    9000005    1    3    3    0    0 -0.36440129824E+02  0.19835859302E+02  0.18901266795E+03  0.19351520101E+03  0.10000000000E+01 0.  0.
    9000005    1    3    3    0    0  0.31557895442E+02 -0.52510301815E+02  0.53636101717E+02  0.81431345124E+02  0.10000000000E+01 0.  0.
         21    1    1    2  502  501  0.48822343826E+01  0.32674442513E+02  0.22778783392E+03  0.23017113782E+03  0.00000000000E+00 0.  1.
<mgrwt>
<rscale>  1 0.12929493E+03</rscale>
<asrwt>0</asrwt>
<pdfrwt beam="2">  1        4 0.26677756E-02 0.12929493E+03</pdfrwt>
<pdfrwt beam="1">  1       -4 0.75042632E-01 0.12929493E+03</pdfrwt>
<totfact> 0.17326732E+03</totfact>
</mgrwt>
</event>
<event>
 6    4  0.2103460E-003  0.1317267E+03  0.7818608E-02  0.1224916E+00
          4   -1    0    0  502    0  0.00000000000E+00  0.00000000000E+00  0.34407132751E+03  0.34407367135E+03  0.12700000000E+01 0. -1.
         -4   -1    0    0    0  501 -0.00000000000E+00 -0.00000000000E+00 -0.26742205790E+02  0.26772345256E+02  0.12700000000E+01 0. -1.
         25    2    1    2    0    0 -0.21319774220E+02  0.35667839872E+02  0.29632678547E+03  0.32428610142E+03  0.12500073686E+03 0.  0.
    9000005    1    3    3    0    0 -0.72020537743E+02  0.18618692070E+02  0.13265017729E+03  0.15208774799E+03  0.10000000000E+01 0.  0.
    9000005    1    3    3    0    0  0.50700763523E+02  0.17049147801E+02  0.16367660817E+03  0.17219835343E+03  0.10000000000E+01 0.  0.
         21    1    1    2  502  501  0.21319774220E+02 -0.35667839872E+02  0.21002336255E+02  0.46559915185E+02  0.00000000000E+00 0. -1.
<mgrwt>
<rscale>  1 0.13172666E+03</rscale>
<asrwt>0</asrwt>
<pdfrwt beam="1">  1        4 0.52936547E-01 0.13172666E+03</pdfrwt>
<pdfrwt beam="2">  1       -4 0.41166844E-02 0.13172666E+03</pdfrwt>
<totfact> 0.18412452E+03</totfact>
</mgrwt>
</event>
<event>
 6    4  0.2103460E-003  0.1297658E+03  0.7818608E-02  0.1227804E+00
          4   -1    0    0  502    0  0.00000000000E+00  0.00000000000E+00  0.29004363746E+02  0.29032154868E+02  0.12700000000E+01 0.  1.
         -4   -1    0    0    0  501 -0.00000000000E+00 -0.00000000000E+00 -0.30512773499E+03  0.30513037797E+03  0.12700000000E+01 0.  1.
         25    2    1    2    0    0 -0.11248073602E+02 -0.32976670362E+02 -0.12902297126E+03  0.18299207401E+03  0.12500076835E+03 0.  0.
    9000005    1    3    3    0    0  0.82417566324E+00 -0.76041530262E+02 -0.11145432965E+03  0.13492983802E+03  0.10000000000E+01 0.  0.
    9000005    1    3    3    0    0 -0.12072249265E+02  0.43064859900E+02 -0.17568641617E+02  0.48062235994E+02  0.10000000000E+01 0.  0.
         21    1    1    2  502  501  0.11248073602E+02  0.32976670362E+02 -0.14710039998E+03  0.15117045883E+03  0.00000000000E+00 0.  1.
<mgrwt>
<rscale>  1 0.12976584E+03</rscale>
<asrwt>0</asrwt>
<pdfrwt beam="1">  1        4 0.44645511E-02 0.12976584E+03</pdfrwt>
<pdfrwt beam="2">  1       -4 0.46945067E-01 0.12976584E+03</pdfrwt>
<totfact> 0.20588290E+03</totfact>
</mgrwt>
</event>
<event>
 6    4  0.2103460E-003  0.1275684E+03  0.7818608E-02  0.1231109E+00
         -4   -1    0    0    0  501 -0.00000000000E+00  0.00000000000E+00  0.78248420300E+03  0.78248523363E+03  0.12700000000E+01 0.  1.
          4   -1    0    0  502    0  0.00000000000E+00 -0.00000000000E+00 -0.18367969167E+02  0.18411822053E+02  0.12700000000E+01 0.  1.
         25    2    1    2    0    0 -0.79463081694E+01  0.24262263198E+02  0.20669860154E+03  0.24289506821E+03  0.12498760360E+03 0.  0.
    9000005    1    3    3    0    0  0.45362661588E+02  0.50238593446E+02  0.12148983816E+03  0.13907720199E+03  0.10000000000E+01 0.  0.
    9000005    1    3    3    0    0 -0.53308969757E+02 -0.25976330248E+02  0.85208763382E+02  0.10381786622E+03  0.10000000000E+01 0.  0.
         21    1    1    2  502  501  0.79463081694E+01 -0.24262263198E+02  0.55741763229E+03  0.55800198747E+03  0.00000000000E+00 0.  1.
<mgrwt>
<rscale>  1 0.12756842E+03</rscale>
<asrwt>0</asrwt>
<pdfrwt beam="2">  1        4 0.28292940E-02 0.12756842E+03</pdfrwt>
<pdfrwt beam="1">  1       -4 0.12038564E+00 0.12756842E+03</pdfrwt>
<totfact> 0.53519681E+02</totfact>
</mgrwt>
</event>
<event>
 6    4  0.2103460E-003  0.1289279E+03  0.7818608E-02  0.1229055E+00
         -4   -1    0    0    0  501 -0.00000000000E+00  0.00000000000E+00  0.30019259235E+03  0.30019527878E+03  0.12700000000E+01 0. -1.
          4   -1    0    0  502    0  0.00000000000E+00 -0.00000000000E+00 -0.22896470364E+02  0.22931664901E+02  0.12700000000E+01 0. -1.
         25    2    1    2    0    0  0.89988195342E+00 -0.31622748232E+02  0.18447775224E+03  0.22506544382E+03  0.12498641901E+03 0.  0.
    9000005    1    3    3    0    0 -0.41966600684E+01 -0.53926535384E+02  0.19314597611E+03  0.20057928922E+03  0.10000000000E+01 0.  0.
    9000005    1    3    3    0    0  0.50965420218E+01  0.22303787153E+02 -0.86682238742E+01  0.24486154599E+02  0.10000000000E+01 0.  0.
         21    1    1    2  502  501 -0.89988195342E+00  0.31622748232E+02  0.92818369746E+02  0.98061499864E+02  0.00000000000E+00 0. -1.
<mgrwt>
<rscale>  1 0.12892794E+03</rscale>
<asrwt>0</asrwt>
<pdfrwt beam="2">  1        4 0.35254479E-02 0.12892794E+03</pdfrwt>
<pdfrwt beam="1">  1       -4 0.46186389E-01 0.12892794E+03</pdfrwt>
<totfact> 0.30893583E+03</totfact>
</mgrwt>
</event>
<event>
 6    4  0.2103460E-003  0.1313322E+03  0.7818608E-02  0.1225492E+00
         -4   -1    0    0    0  501 -0.00000000000E+00  0.00000000000E+00  0.18823941009E+02  0.18866734087E+02  0.12700000000E+01 0.  1.
          4   -1    0    0  502    0  0.00000000000E+00 -0.00000000000E+00 -0.49100673101E+03  0.49100837345E+03  0.12700000000E+01 0.  1.
         25    2    1    2    0    0  0.24954256487E+01 -0.40209079135E+02 -0.43726631618E+03  0.45656322014E+03  0.12500058209E+03 0.  0.
    9000005    1    3    3    0    0  0.47534269486E+02 -0.53995939373E+02 -0.35073515725E+03  0.35803801303E+03  0.10000000000E+01 0.  0.
    9000005    1    3    3    0    0 -0.45038843838E+02  0.13786860238E+02 -0.86531158932E+02  0.98525207107E+02  0.10000000000E+01 0.  0.
         21    1    1    2  502  501 -0.24954256487E+01  0.40209079135E+02 -0.34916473822E+02  0.53311887401E+02  0.00000000000E+00 0.  1.
<mgrwt>
<rscale>  1 0.13133218E+03</rscale>
<asrwt>0</asrwt>
<pdfrwt beam="2">  1        4 0.75542905E-01 0.13133218E+03</pdfrwt>
<pdfrwt beam="1">  1       -4 0.28994094E-02 0.13133218E+03</pdfrwt>
<totfact> 0.15050451E+03</totfact>
</mgrwt>
</event>
<event>
 6    4  0.2103460E-003  0.1411723E+03  0.7818608E-02  0.1211760E+00
         -4   -1    0    0    0  501 -0.00000000000E+00  0.00000000000E+00  0.66302917135E+02  0.66315079134E+02  0.12700000000E+01 0.  1.
          4   -1    0    0  502    0  0.00000000000E+00 -0.00000000000E+00 -0.20085238842E+03  0.20085640351E+03  0.12700000000E+01 0.  1.
         25    2    1    2    0    0 -0.61233036012E+02 -0.23569035347E+02 -0.14308670017E+03  0.20100602033E+03  0.12499852926E+03 0.  0.
    9000005    1    3    3    0    0  0.11126592930E+02 -0.59339177820E+02 -0.64287533176E+02  0.88197653123E+02  0.10000000000E+01 0.  0.
    9000005    1    3    3    0    0 -0.72359628942E+02  0.35770142473E+02 -0.78799166994E+02  0.11280836721E+03  0.10000000000E+01 0.  0.
         21    1    1    2  502  501  0.61233036012E+02  0.23569035347E+02  0.85372288895E+01  0.66165462316E+02  0.00000000000E+00 0.  1.
<mgrwt>
<rscale>  1 0.14117229E+03</rscale>
<asrwt>0</asrwt>
<pdfrwt beam="2">  1        4 0.30901612E-01 0.14117229E+03</pdfrwt>
<pdfrwt beam="1">  1       -4 0.10201693E-01 0.14117229E+03</pdfrwt>
<totfact> 0.12254782E+03</totfact>
</mgrwt>
</event>
<event>
 6    4  0.2103460E-003  0.1273205E+03  0.7818608E-02  0.1231487E+00
          4   -1    0    0  502    0  0.00000000000E+00  0.00000000000E+00  0.72007693110E+01  0.73119066371E+01  0.12700000000E+01 0. -1.
         -4   -1    0    0    0  501 -0.00000000000E+00 -0.00000000000E+00 -0.88782496725E+03  0.88782587559E+03  0.12700000000E+01 0. -1.
         25    2    1    2    0    0  0.16820400028E+02  0.17503175485E+02 -0.59424337872E+03  0.60772995244E+03  0.12498485880E+03 0.  0.
    9000005    1    3    3    0    0 -0.18600513538E+02  0.62557481027E+02 -0.23310360479E+03  0.24206963482E+03  0.10000000000E+01 0.  0.
    9000005    1    3    3    0    0  0.35420913566E+02 -0.45054305542E+02 -0.36113977393E+03  0.36566031762E+03  0.10000000000E+01 0.  0.
         21    1    1    2  502  501 -0.16820400028E+02 -0.17503175485E+02 -0.28638081922E+03  0.28740782979E+03  0.00000000000E+00 0.  1.
<mgrwt>
<rscale>  1 0.12732047E+03</rscale>
<asrwt>0</asrwt>
<pdfrwt beam="1">  1        4 0.11164303E-02 0.12732047E+03</pdfrwt>
<pdfrwt beam="2">  1       -4 0.13659699E+00 0.12732047E+03</pdfrwt>
<totfact> 0.16353116E+03</totfact>
</mgrwt>
</event>
<event>
 6    4  0.2103460E-003  0.1277364E+03  0.7818608E-02  0.1230854E+00
         -4   -1    0    0    0  501 -0.00000000000E+00  0.00000000000E+00  0.35067718909E+02  0.35090708307E+02  0.12700000000E+01 0.  1.
          4   -1    0    0  502    0  0.00000000000E+00 -0.00000000000E+00 -0.17277780456E+03  0.17278247205E+03  0.12700000000E+01 0.  1.
         25    2    1    2    0    0  0.25884580320E+02 -0.46250381489E+01 -0.10165982255E+03  0.16325228900E+03  0.12500075146E+03 0.  0.
    9000005    1    3    3    0    0  0.32140569171E+02  0.27814636057E+02  0.12570598897E+02  0.44336104049E+02  0.10000000000E+01 0.  0.
    9000005    1    3    3    0    0 -0.62559888506E+01 -0.32439674206E+02 -0.11423042145E+03  0.11891618495E+03  0.10000000000E+01 0.  0.
         21    1    1    2  502  501 -0.25884580320E+02  0.46250381489E+01 -0.36050263099E+02  0.44620891360E+02  0.00000000000E+00 0. -1.
<mgrwt>
<rscale>  1 0.12773641E+03</rscale>
<asrwt>0</asrwt>
<pdfrwt beam="2">  1        4 0.26583328E-01 0.12773641E+03</pdfrwt>
<pdfrwt beam="1">  1       -4 0.53971612E-02 0.12773641E+03</pdfrwt>
<totfact> 0.45401010E+03</totfact>
</mgrwt>
</event>
<event>
 6    4  0.2103460E-003  0.1277114E+03  0.7818608E-02  0.1230892E+00
         -4   -1    0    0    0  501 -0.00000000000E+00  0.00000000000E+00  0.10631508138E+03  0.10632266658E+03  0.12700000000E+01 0.  1.
          4   -1    0    0  502    0  0.00000000000E+00 -0.00000000000E+00 -0.12248449445E+03  0.12249107837E+03  0.12700000000E+01 0.  1.
         25    2    1    2    0    0 -0.12546119567E+02  0.22976841693E+02 -0.86179936331E+02  0.15406875356E+03  0.12499943611E+03 0.  0.
    9000005    1    3    3    0    0 -0.46714248465E+02 -0.72492798963E+00  0.11306510595E+02  0.48078932102E+02  0.10000000000E+01 0.  0.
    9000005    1    3    3    0    0  0.34168128898E+02  0.23701769683E+02 -0.97486446926E+02  0.10598982146E+03  0.10000000000E+01 0.  0.
         21    1    1    2  502  501  0.12546119567E+02 -0.22976841693E+02  0.70010523260E+02  0.74744991387E+02  0.00000000000E+00 0.  1.
<mgrwt>
<rscale>  1 0.12771139E+03</rscale>
<asrwt>0</asrwt>
<pdfrwt beam="2">  1        4 0.18844858E-01 0.12771139E+03</pdfrwt>
<pdfrwt beam="1">  1       -4 0.16357256E-01 0.12771139E+03</pdfrwt>
<totfact> 0.13209647E+03</totfact>
</mgrwt>
</event>
<event>
 6    4  0.2103460E-003  0.1424115E+03  0.7818608E-02  0.1210120E+00
         -4   -1    0    0    0  501 -0.00000000000E+00  0.00000000000E+00  0.12063836995E+03  0.12064505462E+03  0.12700000000E+01 0.  1.
          4   -1    0    0  502    0  0.00000000000E+00 -0.00000000000E+00 -0.92351828288E+02  0.92360560241E+02  0.12700000000E+01 0.  1.
         25    2    1    2    0    0  0.65878428437E+02  0.17780243283E+02  0.12437953641E+02  0.14295361898E+03  0.12499972041E+03 0.  0.
    9000005    1    3    3    0    0 -0.26737538638E+02 -0.34358010254E+00 -0.29368567486E+02  0.39730678019E+02  0.10000000000E+01 0.  0.
    9000005    1    3    3    0    0  0.92615967075E+02  0.18123823386E+02  0.41806521126E+02  0.10322294096E+03  0.10000000000E+01 0.  0.
         21    1    1    2  502  501 -0.65878428437E+02 -0.17780243283E+02  0.15848588017E+02  0.70051995879E+02  0.00000000000E+00 0.  1.
<mgrwt>
<rscale>  1 0.14241150E+03</rscale>
<asrwt>0</asrwt>
<pdfrwt beam="2">  1        4 0.14209160E-01 0.14241150E+03</pdfrwt>
<pdfrwt beam="1">  1       -4 0.18560935E-01 0.14241150E+03</pdfrwt>
<totfact> 0.17778911E+03</totfact>
</mgrwt>
</event>
<event>
 6    4  0.2103460E-003  0.1370676E+03  0.7818608E-02  0.1217330E+00
         -4   -1    0    0    0  501 -0.00000000000E+00  0.00000000000E+00  0.12735029354E+03  0.12735662591E+03  0.12700000000E+01 0.  1.
          4   -1    0    0  502    0  0.00000000000E+00 -0.00000000000E+00 -0.77827579333E+02  0.77837940651E+02  0.12700000000E+01 0.  1.
         25    2    1    2    0    0 -0.16837452470E+01 -0.56210849475E+02  0.12005202906E+02  0.13759236060E+03  0.12500015281E+03 0.  0.
    9000005    1    3    3    0    0  0.65059131017E+01 -0.27772451629E+02  0.68278433848E+02  0.74003922217E+02  0.10000000000E+01 0.  0.
    9000005    1    3    3    0    0 -0.81896583488E+01 -0.28438397846E+02 -0.56273230941E+02  0.63588438387E+02  0.10000000000E+01 0.  0.
         21    1    1    2  502  501  0.16837452470E+01  0.56210849475E+02  0.37517511300E+02  0.67602205962E+02  0.00000000000E+00 0.  1.
<mgrwt>
<rscale>  1 0.13706762E+03</rscale>
<asrwt>0</asrwt>
<pdfrwt beam="2">  1        4 0.11974758E-01 0.13706762E+03</pdfrwt>
<pdfrwt beam="1">  1       -4 0.19593637E-01 0.13706762E+03</pdfrwt>
<totfact> 0.21492774E+03</totfact>
</mgrwt>
</event>
<event>
 6    4  0.2103460E-003  0.1293575E+03  0.7818608E-02  0.1228412E+00
         -4   -1    0    0    0  501 -0.00000000000E+00  0.00000000000E+00  0.13984053038E+02  0.14041603875E+02  0.12700000000E+01 0.  1.
          4   -1    0    0  502    0  0.00000000000E+00 -0.00000000000E+00 -0.47802176699E+03  0.47802345404E+03  0.12700000000E+01 0.  1.
         25    2    1    2    0    0  0.24372912449E+02 -0.22676827056E+02 -0.38982999130E+03  0.41073201760E+03  0.12500036327E+03 0.  0.
    9000005    1    3    3    0    0 -0.26787963118E+02 -0.28801962231E+01 -0.32362846262E+03  0.32474955322E+03  0.10000000000E+01 0.  0.
    9000005    1    3    3    0    0  0.51160875567E+02 -0.19796630833E+02 -0.66201528676E+02  0.85982464376E+02  0.10000000000E+01 0.  0.
         21    1    1    2  502  501 -0.24372912449E+02  0.22676827056E+02 -0.74207722652E+02  0.81333040321E+02  0.00000000000E+00 0.  1.
<mgrwt>
<rscale>  1 0.12935752E+03</rscale>
<asrwt>0</asrwt>
<pdfrwt beam="2">  1        4 0.73546354E-01 0.12935752E+03</pdfrwt>
<pdfrwt beam="1">  1       -4 0.21559499E-02 0.12935752E+03</pdfrwt>
<totfact> 0.25189047E+03</totfact>
</mgrwt>
</event>
<event>
 6    4  0.2103460E-003  0.1342813E+03  0.7818608E-02  0.1221238E+00
          4   -1    0    0  502    0  0.00000000000E+00  0.00000000000E+00  0.16133461301E+02  0.16183370278E+02  0.12700000000E+01 0.  1.
         -4   -1    0    0    0  501 -0.00000000000E+00 -0.00000000000E+00 -0.56352726353E+03  0.56352869461E+03  0.12700000000E+01 0.  1.
         25    2    1    2    0    0  0.39502681844E+02  0.29093433785E+02 -0.31903490530E+03  0.34614264144E+03  0.12499827062E+03 0.  0.
    9000005    1    3    3    0    0 -0.23671878796E+02  0.57118099294E+02 -0.18930267907E+03  0.19914652751E+03  0.10000000000E+01 0.  0.
    9000005    1    3    3    0    0  0.63174560640E+02 -0.28024665509E+02 -0.12973222623E+03  0.14699611393E+03  0.10000000000E+01 0.  0.
         21    1    1    2  502  501 -0.39502681844E+02 -0.29093433785E+02 -0.22835889693E+03  0.23356942345E+03  0.00000000000E+00 0.  1.
<mgrwt>
<rscale>  1 0.13428126E+03</rscale>
<asrwt>0</asrwt>
<pdfrwt beam="1">  1        4 0.24860206E-02 0.13428126E+03</pdfrwt>
<pdfrwt beam="2">  1       -4 0.86700437E-01 0.13428126E+03</pdfrwt>
<totfact> 0.14166289E+03</totfact>
</mgrwt>
</event>
<event>
 6    4  0.2103460E-003  0.1356939E+03  0.7818608E-02  0.1219243E+00
         -4   -1    0    0    0  501 -0.00000000000E+00  0.00000000000E+00  0.18066159871E+02  0.18110743565E+02  0.12700000000E+01 0. -1.
          4   -1    0    0  502    0  0.00000000000E+00 -0.00000000000E+00 -0.49827871369E+03  0.49828033216E+03  0.12700000000E+01 0. -1.
         25    2    1    2    0    0  0.23900567913E+02 -0.47022404191E+02 -0.37275854582E+03  0.39668849648E+03  0.12502194254E+03 0.  0.
    9000005    1    3    3    0    0 -0.50733085961E+02 -0.98305014102E+01 -0.16135640396E+03  0.16943250534E+03  0.10000000000E+01 0.  0.
    9000005    1    3    3    0    0  0.74633653875E+02 -0.37191902780E+02 -0.21140214187E+03  0.22725599114E+03  0.10000000000E+01 0.  0.
         21    1    1    2  502  501 -0.23900567913E+02  0.47022404191E+02 -0.10745400799E+03  0.11970257924E+03  0.00000000000E+00 0. -1.
<mgrwt>
<rscale>  1 0.13569388E+03</rscale>
<asrwt>0</asrwt>
<pdfrwt beam="2">  1        4 0.76661807E-01 0.13569388E+03</pdfrwt>
<pdfrwt beam="1">  1       -4 0.27829636E-02 0.13569388E+03</pdfrwt>
<totfact> 0.15648076E+03</totfact>
</mgrwt>
</event>
<event>
 6    4  0.2103460E-003  0.1266500E+03  0.7818608E-02  0.1232513E+00
         -4   -1    0    0    0  501 -0.00000000000E+00  0.00000000000E+00  0.71530173927E+01  0.72648852586E+01  0.12700000000E+01 0.  1.
          4   -1    0    0  502    0  0.00000000000E+00 -0.00000000000E+00 -0.10238623760E+04  0.10238631636E+04  0.12700000000E+01 0.  1.
         25    2    1    2    0    0 -0.79379692275E+01  0.18785302595E+02 -0.98700087514E+03  0.99509344140E+03  0.12499732247E+03 0.  0.
    9000005    1    3    3    0    0 -0.25321538828E+02  0.64223611686E+02 -0.38601516724E+03  0.39214099756E+03  0.10000000000E+01 0.  0.
    9000005    1    3    3    0    0  0.17383569601E+02 -0.45438309091E+02 -0.60098570790E+03  0.60295244384E+03  0.10000000000E+01 0.  0.
         21    1    1    2  502  501  0.79379692275E+01 -0.18785302595E+02 -0.29708483451E+02  0.36034607505E+02  0.00000000000E+00 0.  1.
<mgrwt>
<rscale>  1 0.12665003E+03</rscale>
<asrwt>0</asrwt>
<pdfrwt beam="2">  1        4 0.15752584E+00 0.12665003E+03</pdfrwt>
<pdfrwt beam="1">  1       -4 0.11091308E-02 0.12665003E+03</pdfrwt>
<totfact> 0.11505395E+03</totfact>
</mgrwt>
</event>
<event>
 6    4  0.2103460E-003  0.1277206E+03  0.7818608E-02  0.1230878E+00
         -4   -1    0    0    0  501 -0.00000000000E+00  0.00000000000E+00  0.22485761075E+03  0.22486119721E+03  0.12700000000E+01 0.  1.
          4   -1    0    0  502    0  0.00000000000E+00 -0.00000000000E+00 -0.26669555279E+02  0.26699776755E+02  0.12700000000E+01 0.  1.
         25    2    1    2    0    0  0.18101287132E+02 -0.18968714576E+02  0.15285285437E+03  0.19918971098E+03  0.12500030856E+03 0.  0.
    9000005    1    3    3    0    0 -0.21879693430E+02 -0.32176963522E+02 -0.17392332220E+01  0.38962839967E+02  0.10000000000E+01 0.  0.
    9000005    1    3    3    0    0  0.39980980562E+02  0.13208248947E+02  0.15459208760E+03  0.16022687101E+03  0.10000000000E+01 0.  0.
         21    1    1    2  502  501 -0.18101287132E+02  0.18968714576E+02  0.45335201093E+02  0.52371262985E+02  0.00000000000E+00 0.  1.
<mgrwt>
<rscale>  1 0.12772058E+03</rscale>
<asrwt>0</asrwt>
<pdfrwt beam="2">  1        4 0.41056090E-02 0.12772058E+03</pdfrwt>
<pdfrwt beam="1">  1       -4 0.34596080E-01 0.12772058E+03</pdfrwt>
<totfact> 0.42741203E+03</totfact>
</mgrwt>
</event>
<event>
 6    4  0.2103460E-003  0.1277534E+03  0.7818608E-02  0.1230828E+00
         -4   -1    0    0    0  501 -0.00000000000E+00  0.00000000000E+00  0.45503126853E+02  0.45520846361E+02  0.12700000000E+01 0. -1.
          4   -1    0    0  502    0  0.00000000000E+00 -0.00000000000E+00 -0.13250286026E+03  0.13250894641E+03  0.12700000000E+01 0. -1.
         25    2    1    2    0    0  0.10888489497E+02  0.24032055329E+02 -0.79995260987E+02  0.15073214597E+03  0.12499935664E+03 0.  0.
    9000005    1    3    3    0    0  0.72129079595E+01  0.61365781296E+01  0.33984369451E+02  0.35293356306E+02  0.10000000000E+01 0.  0.
    9000005    1    3    3    0    0  0.36755815380E+01  0.17895477199E+02 -0.11397963044E+03  0.11543878966E+03  0.10000000000E+01 0.  0.
         21    1    1    2  502  501 -0.10888489497E+02 -0.24032055329E+02 -0.70044724229E+01  0.27297646799E+02  0.00000000000E+00 0. -1.
<mgrwt>
<rscale>  1 0.12775343E+03</rscale>
<asrwt>0</asrwt>
<pdfrwt beam="2">  1        4 0.20386886E-01 0.12775343E+03</pdfrwt>
<pdfrwt beam="1">  1       -4 0.70023123E-02 0.12775343E+03</pdfrwt>
<totfact> 0.48304412E+03</totfact>
</mgrwt>
</event>
<event>
 6    4  0.2103460E-003  0.1279906E+03  0.7818608E-02  0.1230468E+00
          4   -1    0    0  502    0  0.00000000000E+00  0.00000000000E+00  0.43064490205E+03  0.43064677471E+03  0.12700000000E+01 0. -1.
         -4   -1    0    0    0  501 -0.00000000000E+00 -0.00000000000E+00 -0.15067686757E+02  0.15121113855E+02  0.12700000000E+01 0. -1.
         25    2    1    2    0    0 -0.27460064303E+02  0.43607131797E+00  0.28631838404E+03  0.31362368420E+03  0.12500941148E+03 0.  0.
    9000005    1    3    3    0    0 -0.25540436749E+02 -0.44544845754E+02  0.25152731557E+03  0.25671686285E+03  0.10000000000E+01 0.  0.
    9000005    1    3    3    0    0 -0.19196275545E+01  0.44980917072E+02  0.34791068471E+02  0.56906821348E+02  0.10000000000E+01 0.  0.
         21    1    1    2  502  501  0.27460064303E+02 -0.43607131797E+00  0.12925883126E+03  0.13214420437E+03  0.00000000000E+00 0. -1.
<mgrwt>
<rscale>  1 0.12799062E+03</rscale>
<asrwt>0</asrwt>
<pdfrwt beam="1">  1        4 0.66257315E-01 0.12799062E+03</pdfrwt>
<pdfrwt beam="2">  1       -4 0.23223595E-02 0.12799062E+03</pdfrwt>
<totfact> 0.28044562E+03</totfact>
</mgrwt>
</event>
<event>
 6    4  0.2103460E-003  0.1315009E+03  0.7818608E-02  0.1225246E+00
          4   -1    0    0  502    0  0.00000000000E+00  0.00000000000E+00  0.34124647365E+03  0.34124883689E+03  0.12700000000E+01 0. -1.
         -4   -1    0    0    0  501 -0.00000000000E+00 -0.00000000000E+00 -0.28750159008E+02  0.28778195617E+02  0.12700000000E+01 0. -1.
         25    2    1    2    0    0 -0.24643698697E+02 -0.32535251099E+02  0.29965560418E+03  0.32723990483E+03  0.12500647883E+03 0.  0.
    9000005    1    3    3    0    0 -0.39638232798E+02  0.31748888200E+02  0.59783570910E+02  0.78449071072E+02  0.10000000000E+01 0.  0.
    9000005    1    3    3    0    0  0.14994534101E+02 -0.64284139299E+02  0.23987203327E+03  0.24879083376E+03  0.10000000000E+01 0.  0.
         21    1    1    2  502  501  0.24643698697E+02  0.32535251099E+02  0.12840710464E+02  0.42787127676E+02  0.00000000000E+00 0. -1.
<mgrwt>
<rscale>  1 0.13150085E+03</rscale>
<asrwt>0</asrwt>
<pdfrwt beam="1">  1        4 0.52501800E-01 0.13150085E+03</pdfrwt>
<pdfrwt beam="2">  1       -4 0.44254395E-02 0.13150085E+03</pdfrwt>
<totfact> 0.16682798E+03</totfact>
</mgrwt>
</event>
<event>
 6    4  0.2103460E-003  0.1270553E+03  0.7818608E-02  0.1231892E+00
         -4   -1    0    0    0  501 -0.00000000000E+00  0.00000000000E+00  0.93668123940E+02  0.93676733197E+02  0.12700000000E+01 0.  1.
          4   -1    0    0  502    0  0.00000000000E+00 -0.00000000000E+00 -0.99158376690E+02  0.99166509306E+02  0.12700000000E+01 0.  1.
         25    2    1    2    0    0  0.22756152541E+02 -0.12883584131E+01 -0.54915910203E+02  0.13841532723E+03  0.12499417296E+03 0.  0.
    9000005    1    3    3    0    0  0.31333116975E+02  0.47764121719E+02 -0.66099078243E+02  0.87368550906E+02  0.10000000000E+01 0.  0.
    9000005    1    3    3    0    0 -0.85769644339E+01 -0.49052480132E+02  0.11183168039E+02  0.51046776327E+02  0.10000000000E+01 0.  0.
         21    1    1    2  502  501 -0.22756152541E+02  0.12883584131E+01  0.49425657453E+02  0.54427915269E+02  0.00000000000E+00 0.  1.
<mgrwt>
<rscale>  1 0.12705529E+03</rscale>
<asrwt>0</asrwt>
<pdfrwt beam="2">  1        4 0.15256423E-01 0.12705529E+03</pdfrwt>
<pdfrwt beam="1">  1       -4 0.14411768E-01 0.12705529E+03</pdfrwt>
<totfact> 0.23901117E+03</totfact>
</mgrwt>
</event>
<event>
 6    4  0.2103460E-003  0.1687063E+03  0.7818608E-02  0.1179204E+00
          4   -1    0    0  502    0  0.00000000000E+00  0.00000000000E+00  0.12730231629E+04  0.12730237964E+04  0.12700000000E+01 0.  1.
         -4   -1    0    0    0  501 -0.00000000000E+00 -0.00000000000E+00 -0.19501341354E+02  0.19542651166E+02  0.12700000000E+01 0.  1.
         25    2    1    2    0    0  0.66438092181E+02 -0.91769504355E+02  0.10098389461E+04  0.10238342280E+04  0.12500466962E+03 0.  0.
    9000005    1    3    3    0    0 -0.16605564175E+02 -0.43140041648E+02  0.64035794208E+03  0.64202500102E+03  0.10000000000E+01 0.  0.
    9000005    1    3    3    0    0  0.83043656356E+02 -0.48629462707E+02  0.36948100403E+03  0.38180922703E+03  0.10000000000E+01 0.  0.
         21    1    1    2  502  501 -0.66438092181E+02  0.91769504355E+02  0.24368287548E+03  0.26873221955E+03  0.00000000000E+00 0.  1.
<mgrwt>
<rscale>  1 0.16870634E+03</rscale>
<asrwt>0</asrwt>
<pdfrwt beam="1">  1        4 0.19585297E+00 0.16870634E+03</pdfrwt>
<pdfrwt beam="2">  1       -4 0.30034324E-02 0.16870634E+03</pdfrwt>
<totfact> 0.14471332E+02</totfact>
</mgrwt>
</event>
<event>
 6    4  0.2103460E-003  0.1277272E+03  0.7818608E-02  0.1230868E+00
          4   -1    0    0  502    0  0.00000000000E+00  0.00000000000E+00  0.51941930807E+03  0.51942086067E+03  0.12700000000E+01 0. -1.
         -4   -1    0    0    0  501 -0.00000000000E+00 -0.00000000000E+00 -0.14628041303E+02  0.14683068221E+02  0.12700000000E+01 0. -1.
         25    2    1    2    0    0 -0.26225527629E+02 -0.14834081735E+01  0.48409771126E+03  0.50066440080E+03  0.12499707750E+03 0.  0.
    9000005    1    3    3    0    0  0.67379434619E+01  0.22552894703E+02  0.11335789029E+02  0.26144465083E+02  0.10000000000E+01 0.  0.
    9000005    1    3    3    0    0 -0.32963471090E+02 -0.24036302876E+02  0.47276192223E+03  0.47451993571E+03  0.10000000000E+01 0.  0.
         21    1    1    2  502  501  0.26225527629E+02  0.14834081735E+01  0.20693555510E+02  0.33439528090E+02  0.00000000000E+00 0. -1.
<mgrwt>
<rscale>  1 0.12772724E+03</rscale>
<asrwt>0</asrwt>
<pdfrwt beam="1">  1        4 0.79915018E-01 0.12772724E+03</pdfrwt>
<pdfrwt beam="2">  1       -4 0.22548201E-02 0.12772724E+03</pdfrwt>
<totfact> 0.19535521E+03</totfact>
</mgrwt>
</event>
<event>
 6    4  0.2103460E-003  0.1267210E+03  0.7818608E-02  0.1232404E+00
         -4   -1    0    0    0  501 -0.00000000000E+00  0.00000000000E+00  0.82822449480E+02  0.82832186002E+02  0.12700000000E+01 0.  1.
          4   -1    0    0  502    0  0.00000000000E+00 -0.00000000000E+00 -0.75367929313E+02  0.75378628728E+02  0.12700000000E+01 0.  1.
         25    2    1    2    0    0 -0.44708323574E+01  0.20280479517E+02 -0.15022640618E+02  0.12760838103E+03  0.12500773171E+03 0.  0.
    9000005    1    3    3    0    0  0.28418534616E+02  0.27787336013E+02 -0.59631661437E+02  0.71670664837E+02  0.10000000000E+01 0.  0.
    9000005    1    3    3    0    0 -0.32889366974E+02 -0.75068564962E+01  0.44609020819E+02  0.55937716192E+02  0.10000000000E+01 0.  0.
         21    1    1    2  502  501  0.44708323574E+01 -0.20280479517E+02  0.22477160785E+02  0.30602433700E+02  0.00000000000E+00 0.  1.
<mgrwt>
<rscale>  1 0.12672103E+03</rscale>
<asrwt>0</asrwt>
<pdfrwt beam="2">  1        4 0.11596638E-01 0.12672103E+03</pdfrwt>
<pdfrwt beam="1">  1       -4 0.12743487E-01 0.12672103E+03</pdfrwt>
<totfact> 0.47402138E+03</totfact>
</mgrwt>
</event>
<event>
 6    4  0.2103460E-003  0.1277042E+03  0.7818608E-02  0.1230903E+00
         -4   -1    0    0    0  501 -0.00000000000E+00  0.00000000000E+00  0.90592663476E+01  0.91478525763E+01  0.12700000000E+01 0. -1.
          4   -1    0    0  502    0  0.00000000000E+00 -0.00000000000E+00 -0.79347322130E+03  0.79347423766E+03  0.12700000000E+01 0. -1.
         25    2    1    2    0    0 -0.22462185326E+02  0.13362186733E+02 -0.74118700303E+03  0.75210806073E+03  0.12500105499E+03 0.  0.
    9000005    1    3    3    0    0  0.48593280176E+02  0.25012067943E+02 -0.27339946408E+03  0.27881028923E+03  0.10000000000E+01 0.  0.
    9000005    1    3    3    0    0 -0.71055465502E+02 -0.11649881210E+02 -0.46778753895E+03  0.47329777150E+03  0.10000000000E+01 0.  0.
         21    1    1    2  502  501  0.22462185326E+02 -0.13362186733E+02 -0.43226951926E+02  0.50514029504E+02  0.00000000000E+00 0. -1.
<mgrwt>
<rscale>  1 0.12770420E+03</rscale>
<asrwt>0</asrwt>
<pdfrwt beam="2">  1        4 0.12207964E+00 0.12770420E+03</pdfrwt>
<pdfrwt beam="1">  1       -4 0.14006264E-02 0.12770420E+03</pdfrwt>
<totfact> 0.15270589E+03</totfact>
</mgrwt>
</event>
<event>
 6    4  0.2103460E-003  0.1360100E+03  0.7818608E-02  0.1218801E+00
         -4   -1    0    0    0  501 -0.00000000000E+00  0.00000000000E+00  0.36865534007E+03  0.36865752760E+03  0.12700000000E+01 0. -1.
          4   -1    0    0  502    0  0.00000000000E+00 -0.00000000000E+00 -0.24540661186E+02  0.24573501001E+02  0.12700000000E+01 0. -1.
         25    2    1    2    0    0  0.49738880825E+02 -0.19998290690E+02  0.26132042073E+03  0.29459646530E+03  0.12499930872E+03 0.  0.
    9000005    1    3    3    0    0  0.69980703335E+02 -0.28659445377E+01  0.25860107603E+03  0.26791981823E+03  0.10000000000E+01 0.  0.
    9000005    1    3    3    0    0 -0.20241822510E+02 -0.17132346152E+02  0.27193447020E+01  0.26676647069E+02  0.10000000000E+01 0.  0.
         21    1    1    2  502  501 -0.49738880825E+02  0.19998290690E+02  0.82794258149E+02  0.98634563306E+02  0.00000000000E+00 0. -1.
<mgrwt>
<rscale>  1 0.13600998E+03</rscale>
<asrwt>0</asrwt>
<pdfrwt beam="2">  1        4 0.37781808E-02 0.13600998E+03</pdfrwt>
<pdfrwt beam="1">  1       -4 0.56718899E-01 0.13600998E+03</pdfrwt>
<totfact> 0.18422487E+03</totfact>
</mgrwt>
</event>
<event>
 6    4  0.2103460E-003  0.1270909E+03  0.7818608E-02  0.1231837E+00
          4   -1    0    0  502    0  0.00000000000E+00  0.00000000000E+00  0.36585875952E+03  0.36586096378E+03  0.12700000000E+01 0. -1.
         -4   -1    0    0    0  501 -0.00000000000E+00 -0.00000000000E+00 -0.16114486708E+02  0.16164454270E+02  0.12700000000E+01 0. -1.
         25    2    1    2    0    0 -0.11229731138E+02 -0.20063771523E+02  0.32081719794E+03  0.34507359198E+03  0.12499379024E+03 0.  0.
    9000005    1    3    3    0    0  0.49577842916E+02  0.68895918949E-01  0.67349071162E+02  0.83635307384E+02  0.10000000000E+01 0.  0.
    9000005    1    3    3    0    0 -0.60807574055E+02 -0.20132667442E+02  0.25346812677E+03  0.26143828459E+03  0.10000000000E+01 0.  0.
         21    1    1    2  502  501  0.11229731138E+02  0.20063771523E+02  0.28927074875E+02  0.36951826071E+02  0.00000000000E+00 0.  1.
<mgrwt>
<rscale>  1 0.12709095E+03</rscale>
<asrwt>0</asrwt>
<pdfrwt beam="1">  1        4 0.56289975E-01 0.12709095E+03</pdfrwt>
<pdfrwt beam="2">  1       -4 0.24831651E-02 0.12709095E+03</pdfrwt>
<totfact> 0.35562807E+03</totfact>
</mgrwt>
</event>
<event>
 6    4  0.2103460E-003  0.1571254E+03  0.7818608E-02  0.1191981E+00
         -4   -1    0    0    0  501 -0.00000000000E+00  0.00000000000E+00  0.13628832019E+04  0.13628837936E+04  0.12700000000E+01 0. -1.
          4   -1    0    0  502    0  0.00000000000E+00 -0.00000000000E+00 -0.44525321201E+02  0.44543429685E+02  0.12700000000E+01 0. -1.
         25    2    1    2    0    0 -0.74186412312E+02 -0.59663020531E+02  0.10195625122E+03  0.18730582607E+03  0.12500038211E+03 0.  0.
    9000005    1    3    3    0    0 -0.54385253199E+01 -0.65597017760E+02  0.98160643326E+02  0.11819077035E+03  0.10000000000E+01 0.  0.
    9000005    1    3    3    0    0 -0.68747886992E+02  0.59339972295E+01  0.37956078934E+01  0.69115055728E+02  0.10000000000E+01 0.  0.
         21    1    1    2  502  501  0.74186412312E+02  0.59663020531E+02  0.12164016295E+04  0.12201213972E+04  0.00000000000E+00 0. -1.
<mgrwt>
<rscale>  1 0.15712541E+03</rscale>
<asrwt>0</asrwt>
<pdfrwt beam="2">  1        4 0.68514885E-02 0.15712541E+03</pdfrwt>
<pdfrwt beam="1">  1       -4 0.20967576E+00 0.15712541E+03</pdfrwt>
<totfact> 0.31305695E+01</totfact>
</mgrwt>
</event>
<event>
 6    4  0.2103460E-003  0.1296052E+03  0.7818608E-02  0.1228043E+00
         -4   -1    0    0    0  501 -0.00000000000E+00  0.00000000000E+00  0.72611268908E+03  0.72611379972E+03  0.12700000000E+01 0.  1.
          4   -1    0    0  502    0  0.00000000000E+00 -0.00000000000E+00 -0.21155648517E+02  0.21193734078E+02  0.12700000000E+01 0.  1.
         25    2    1    2    0    0 -0.18448019251E+02  0.28847916920E+02  0.18309940115E+03  0.22432767994E+03  0.12499994224E+03 0.  0.
    9000005    1    3    3    0    0  0.38353373696E+02 -0.14250812124E+02  0.12749262825E+03  0.13390084831E+03  0.10000000000E+01 0.  0.
    9000005    1    3    3    0    0 -0.56801392948E+02  0.43098729044E+02  0.55606772893E+02  0.90426831624E+02  0.10000000000E+01 0.  0.
         21    1    1    2  502  501  0.18448019251E+02 -0.28847916920E+02  0.52185763942E+03  0.52297985386E+03  0.00000000000E+00 0.  1.
<mgrwt>
<rscale>  1 0.12960524E+03</rscale>
<asrwt>0</asrwt>
<pdfrwt beam="2">  1        4 0.32577310E-02 0.12960524E+03</pdfrwt>
<pdfrwt beam="1">  1       -4 0.11171263E+00 0.12960524E+03</pdfrwt>
<totfact> 0.51428173E+02</totfact>
</mgrwt>
</event>
<event>
 6    4  0.2103460E-003  0.1361366E+03  0.7818608E-02  0.1218624E+00
          4   -1    0    0  502    0  0.00000000000E+00  0.00000000000E+00  0.11538444453E+03  0.11539143356E+03  0.12700000000E+01 0.  1.
         -4   -1    0    0    0  501 -0.00000000000E+00 -0.00000000000E+00 -0.93512885952E+02  0.93521509500E+02  0.12700000000E+01 0.  1.
         25    2    1    2    0    0  0.53308265295E+02  0.81770099934E+01  0.53636662087E+02  0.14632175804E+03  0.12499812284E+03 0.  0.
    9000005    1    3    3    0    0  0.90805066374E+02  0.25393417791E+02  0.31059976632E+02  0.99277932567E+02  0.10000000000E+01 0.  0.
    9000005    1    3    3    0    0 -0.37496801079E+02 -0.17216407798E+02  0.22576685455E+02  0.47043825469E+02  0.10000000000E+01 0.  0.
         21    1    1    2  502  501 -0.53308265295E+02 -0.81770099934E+01 -0.31765103513E+02  0.62591185022E+02  0.00000000000E+00 0.  1.
<mgrwt>
<rscale>  1 0.13613657E+03</rscale>
<asrwt>0</asrwt>
<pdfrwt beam="1">  1        4 0.17752654E-01 0.13613657E+03</pdfrwt>
<pdfrwt beam="2">  1       -4 0.14387799E-01 0.13613657E+03</pdfrwt>
<totfact> 0.18648685E+03</totfact>
</mgrwt>
</event>
<event>
 6    4  0.2103460E-003  0.1302397E+03  0.7818608E-02  0.1227100E+00
         -4   -1    0    0    0  501 -0.00000000000E+00  0.00000000000E+00  0.21152510366E+03  0.21152891618E+03  0.12700000000E+01 0.  1.
          4   -1    0    0  502    0  0.00000000000E+00 -0.00000000000E+00 -0.37355217230E+02  0.37376799680E+02  0.12700000000E+01 0.  1.
         25    2    1    2    0    0 -0.30723393321E+02 -0.19839041383E+02  0.93480974739E+02  0.16031556443E+03  0.12499949240E+03 0.  0.
    9000005    1    3    3    0    0 -0.59600833127E+01 -0.47032036725E+02 -0.11737524138E+02  0.48849816217E+02  0.10000000000E+01 0.  0.
    9000005    1    3    3    0    0 -0.24763310008E+02  0.27192995342E+02  0.10521849888E+03  0.11146574821E+03  0.10000000000E+01 0.  0.
         21    1    1    2  502  501  0.30723393321E+02  0.19839041383E+02  0.80688911694E+02  0.88590151430E+02  0.00000000000E+00 0.  1.
<mgrwt>
<rscale>  1 0.13023973E+03</rscale>
<asrwt>0</asrwt>
<pdfrwt beam="2">  1        4 0.57489100E-02 0.13023973E+03</pdfrwt>
<pdfrwt beam="1">  1       -4 0.32544277E-01 0.13023973E+03</pdfrwt>
<totfact> 0.28141887E+03</totfact>
</mgrwt>
</event>
<event>
 6    4  0.2103460E-003  0.1267252E+03  0.7818608E-02  0.1232397E+00
          4   -1    0    0  502    0  0.00000000000E+00  0.00000000000E+00  0.28172713433E+02  0.28201324121E+02  0.12700000000E+01 0.  1.
         -4   -1    0    0    0  501 -0.00000000000E+00 -0.00000000000E+00 -0.19313178381E+03  0.19313595941E+03  0.12700000000E+01 0.  1.
         25    2    1    2    0    0  0.20848937858E+02 -0.33501599963E-01 -0.14126408722E+03  0.18977573162E+03  0.12499842656E+03 0.  0.
    9000005    1    3    3    0    0 -0.63719616392E+01 -0.36477122852E+02  0.42765628813E+01  0.37289024884E+02  0.10000000000E+01 0.  0.
    9000005    1    3    3    0    0  0.27220899498E+02  0.36443621252E+02 -0.14554065010E+03  0.15248670674E+03  0.10000000000E+01 0.  0.
         21    1    1    2  502  501 -0.20848937858E+02  0.33501599963E-01 -0.23694983153E+02  0.31561551908E+02  0.00000000000E+00 0.  1.
<mgrwt>
<rscale>  1 0.12672524E+03</rscale>
<asrwt>0</asrwt>
<pdfrwt beam="1">  1        4 0.43367857E-02 0.12672524E+03</pdfrwt>
<pdfrwt beam="2">  1       -4 0.29715103E-01 0.12672524E+03</pdfrwt>
<totfact> 0.52231565E+03</totfact>
</mgrwt>
</event>
<event>
 6    4  0.2103460E-003  0.1323997E+03  0.7818608E-02  0.1223938E+00
          4   -1    0    0  502    0  0.00000000000E+00  0.00000000000E+00  0.22986557631E+03  0.22986908464E+03  0.12700000000E+01 0.  1.
         -4   -1    0    0    0  501 -0.00000000000E+00 -0.00000000000E+00 -0.16669533743E+03  0.16670017523E+03  0.12700000000E+01 0.  1.
         25    2    1    2    0    0 -0.10475531713E+02  0.42373636336E+02  0.20730077793E+03  0.24597419319E+03  0.12499771745E+03 0.  0.
    9000005    1    3    3    0    0  0.11631164105E+01  0.95553462512E+01 -0.16688893201E+02  0.19291880106E+02  0.10000000000E+01 0.  0.
    9000005    1    3    3    0    0 -0.11638648124E+02  0.32818290085E+02  0.22398967113E+03  0.22668231309E+03  0.10000000000E+01 0.  0.
         21    1    1    2  502  501  0.10475531713E+02 -0.42373636336E+02 -0.14413053905E+03  0.15059506667E+03  0.00000000000E+00 0.  1.
<mgrwt>
<rscale>  1 0.13239974E+03</rscale>
<asrwt>0</asrwt>
<pdfrwt beam="1">  1        4 0.35364577E-01 0.13239974E+03</pdfrwt>
<pdfrwt beam="2">  1       -4 0.25646079E-01 0.13239974E+03</pdfrwt>
<totfact> 0.18409944E+02</totfact>
</mgrwt>
</event>
<event>
 6    4  0.2103460E-003  0.1363650E+03  0.7818608E-02  0.1218306E+00
         -4   -1    0    0    0  501 -0.00000000000E+00  0.00000000000E+00  0.20714226041E+03  0.20714615359E+03  0.12700000000E+01 0. -1.
          4   -1    0    0  502    0  0.00000000000E+00 -0.00000000000E+00 -0.44011299201E+02  0.44029619092E+02  0.12700000000E+01 0. -1.
         25    2    1    2    0    0  0.12171432264E+02  0.53129586765E+02  0.11248000674E+03  0.17676867664E+03  0.12499806547E+03 0.  0.
    9000005    1    3    3    0    0 -0.60769575821E+01  0.28467157558E+01  0.12220301767E+03  0.12239122000E+03  0.10000000000E+01 0.  0.
    9000005    1    3    3    0    0  0.18248389846E+02  0.50282871009E+02 -0.97230109346E+01  0.54377456639E+02  0.10000000000E+01 0.  0.
         21    1    1    2  502  501 -0.12171432264E+02 -0.53129586765E+02  0.50650954469E+02  0.74407096045E+02  0.00000000000E+00 0. -1.
<mgrwt>
<rscale>  1 0.13636500E+03</rscale>
<asrwt>0</asrwt>
<pdfrwt beam="2">  1        4 0.67726778E-02 0.13636500E+03</pdfrwt>
<pdfrwt beam="1">  1       -4 0.31869749E-01 0.13636500E+03</pdfrwt>
<totfact> 0.22665482E+03</totfact>
</mgrwt>
</event>
<event>
 6    4  0.2103460E-003  0.1301816E+03  0.7818608E-02  0.1227187E+00
          4   -1    0    0  502    0  0.00000000000E+00  0.00000000000E+00  0.81516543428E+02  0.81526435912E+02  0.12700000000E+01 0.  1.
         -4   -1    0    0    0  501 -0.00000000000E+00 -0.00000000000E+00 -0.30859594488E+03  0.30859855816E+03  0.12700000000E+01 0.  1.
         25    2    1    2    0    0  0.18721166995E+02 -0.31145850061E+02  0.27425294292E+02  0.13303904302E+03  0.12500677634E+03 0.  0.
    9000005    1    3    3    0    0 -0.29826029872E+02 -0.33242081116E+02 -0.32965944080E+02  0.55519199237E+02  0.10000000000E+01 0.  0.
    9000005    1    3    3    0    0  0.48547196867E+02  0.20962310553E+01  0.60391238372E+02  0.77519843785E+02  0.10000000000E+01 0.  0.
         21    1    1    2  502  501 -0.18721166995E+02  0.31145850061E+02 -0.25450469574E+03  0.25708595105E+03  0.00000000000E+00 0.  1.
<mgrwt>
<rscale>  1 0.13018157E+03</rscale>
<asrwt>0</asrwt>
<pdfrwt beam="1">  1        4 0.12541969E-01 0.13018157E+03</pdfrwt>
<pdfrwt beam="2">  1       -4 0.47477261E-01 0.13018157E+03</pdfrwt>
<totfact> 0.36623720E+02</totfact>
</mgrwt>
</event>
<event>
 6    4  0.2103460E-003  0.1295932E+03  0.7818608E-02  0.1228061E+00
          4   -1    0    0  502    0  0.00000000000E+00  0.00000000000E+00  0.27276342573E+02  0.27305892481E+02  0.12700000000E+01 0. -1.
         -4   -1    0    0    0  501 -0.00000000000E+00 -0.00000000000E+00 -0.27832035134E+03  0.27832324889E+03  0.12700000000E+01 0. -1.
         25    2    1    2    0    0  0.33302454038E+02  0.77893551876E+01 -0.14630248711E+03  0.19544514135E+03  0.12499863218E+03 0.  0.
    9000005    1    3    3    0    0  0.38562563646E+02  0.43094693080E+02 -0.14880342946E+03  0.15964862826E+03  0.10000000000E+01 0.  0.
    9000005    1    3    3    0    0 -0.52601096086E+01 -0.35305337892E+02  0.25009423552E+01  0.35796513091E+02  0.10000000000E+01 0.  0.
         21    1    1    2  502  501 -0.33302454038E+02 -0.77893551876E+01 -0.10474152166E+03  0.11018400002E+03  0.00000000000E+00 0.  1.
<mgrwt>
<rscale>  1 0.12959315E+03</rscale>
<asrwt>0</asrwt>
<pdfrwt beam="1">  1        4 0.41988565E-02 0.12959315E+03</pdfrwt>
<pdfrwt beam="2">  1       -4 0.42821010E-01 0.12959315E+03</pdfrwt>
<totfact> 0.27278842E+03</totfact>
</mgrwt>
</event>
<event>
 6    4  0.2103460E-003  0.1274622E+03  0.7818608E-02  0.1231271E+00
          4   -1    0    0  502    0  0.00000000000E+00  0.00000000000E+00  0.35327474346E+02  0.35350294817E+02  0.12700000000E+01 0. -1.
         -4   -1    0    0    0  501 -0.00000000000E+00 -0.00000000000E+00 -0.54461237938E+03  0.54461386016E+03  0.12700000000E+01 0. -1.
         25    2    1    2    0    0  0.24889864641E+02  0.11793607074E+01 -0.81144964008E+02  0.15109971794E+03  0.12500289326E+03 0.  0.
    9000005    1    3    3    0    0  0.17799668259E+02 -0.43422091035E+02  0.11236358131E+02  0.48265535572E+02  0.10000000000E+01 0.  0.
    9000005    1    3    3    0    0  0.70901963818E+01  0.44601451743E+02 -0.92381322139E+02  0.10283418236E+03  0.10000000000E+01 0.  0.
         21    1    1    2  502  501 -0.24889864641E+02 -0.11793607074E+01 -0.42813994103E+03  0.42886443704E+03  0.00000000000E+00 0. -1.
<mgrwt>
<rscale>  1 0.12746223E+03</rscale>
<asrwt>0</asrwt>
<pdfrwt beam="1">  1        4 0.54368658E-02 0.12746223E+03</pdfrwt>
<pdfrwt beam="2">  1       -4 0.83788383E-01 0.12746223E+03</pdfrwt>
<totfact> 0.43879798E+02</totfact>
</mgrwt>
</event>
<event>
 6    4  0.2103460E-003  0.1316150E+03  0.7818608E-02  0.1225079E+00
         -4   -1    0    0    0  501 -0.00000000000E+00  0.00000000000E+00  0.35573013464E+03  0.35573240166E+03  0.12700000000E+01 0.  1.
          4   -1    0    0  502    0  0.00000000000E+00 -0.00000000000E+00 -0.21427397427E+02  0.21465000827E+02  0.12700000000E+01 0.  1.
         25    2    1    2    0    0 -0.16606431181E+02 -0.37700899979E+02  0.22907380498E+03  0.26419182919E+03  0.12500153227E+03 0.  0.
    9000005    1    3    3    0    0 -0.22889795778E+02 -0.81947029788E+02  0.12833882568E+03  0.15398413106E+03  0.10000000000E+01 0.  0.
    9000005    1    3    3    0    0  0.62833645972E+01  0.44246129808E+02  0.10073497930E+03  0.11020769813E+03  0.10000000000E+01 0.  0.
         21    1    1    2  502  501  0.16606431181E+02  0.37700899979E+02  0.10522893224E+03  0.11300557329E+03  0.00000000000E+00 0. -1.
<mgrwt>
<rscale>  1 0.13161502E+03</rscale>
<asrwt>0</asrwt>
<pdfrwt beam="2">  1        4 0.32995897E-02 0.13161502E+03</pdfrwt>
<pdfrwt beam="1">  1       -4 0.54730779E-01 0.13161502E+03</pdfrwt>
<totfact> 0.24383471E+03</totfact>
</mgrwt>
</event>
<event>
 6    4  0.2103460E-003  0.1271461E+03  0.7818608E-02  0.1231753E+00
         -4   -1    0    0    0  501 -0.00000000000E+00  0.00000000000E+00  0.26559341028E+03  0.26559644667E+03  0.12700000000E+01 0.  1.
          4   -1    0    0  502    0  0.00000000000E+00 -0.00000000000E+00 -0.21276685721E+02  0.21314555010E+02  0.12700000000E+01 0.  1.
         25    2    1    2    0    0  0.53828732710E+01  0.22639786609E+02  0.20748220524E+03  0.24334132099E+03  0.12499839097E+03 0.  0.
    9000005    1    3    3    0    0 -0.49654958521E+02  0.27064961901E+02  0.46729867332E+02  0.73367619351E+02  0.10000000000E+01 0.  0.
    9000005    1    3    3    0    0  0.55037831792E+02 -0.44251752923E+01  0.16075233791E+03  0.16997370163E+03  0.10000000000E+01 0.  0.
         21    1    1    2  502  501 -0.53828732710E+01 -0.22639786609E+02  0.36834519325E+02  0.43569680699E+02  0.00000000000E+00 0. -1.
<mgrwt>
<rscale>  1 0.12714611E+03</rscale>
<asrwt>0</asrwt>
<pdfrwt beam="2">  1        4 0.32764831E-02 0.12714611E+03</pdfrwt>
<pdfrwt beam="1">  1       -4 0.40863668E-01 0.12714611E+03</pdfrwt>
<totfact> 0.44082559E+03</totfact>
</mgrwt>
</event>
<event>
 6    4  0.2103460E-003  0.1647217E+03  0.7818608E-02  0.1183467E+00
          4   -1    0    0  502    0  0.00000000000E+00  0.00000000000E+00  0.12808513809E+03  0.12809143414E+03  0.12700000000E+01 0. -1.
         -4   -1    0    0    0  501 -0.00000000000E+00 -0.00000000000E+00 -0.17489202267E+03  0.17489663374E+03  0.12700000000E+01 0. -1.
         25    2    1    2    0    0  0.98037054888E+02 -0.43552998716E+02  0.34605797900E+02  0.16831753400E+03  0.12500041270E+03 0.  0.
    9000005    1    3    3    0    0  0.90734384120E+02 -0.66851398643E+02  0.64380785705E+02  0.12979878093E+03  0.10000000000E+01 0.  0.
    9000005    1    3    3    0    0  0.73026707680E+01  0.23298399927E+02 -0.29774987804E+02  0.38518753072E+02  0.10000000000E+01 0.  0.
         21    1    1    2  502  501 -0.98037054888E+02  0.43552998716E+02 -0.81412682480E+02  0.13467053389E+03  0.00000000000E+00 0. -1.
<mgrwt>
<rscale>  1 0.16472168E+03</rscale>
<asrwt>0</asrwt>
<pdfrwt beam="1">  1        4 0.19706245E-01 0.16472168E+03</pdfrwt>
<pdfrwt beam="2">  1       -4 0.26907304E-01 0.16472168E+03</pdfrwt>
<totfact> 0.52059036E+02</totfact>
</mgrwt>
</event>
<event>
 6    4  0.2103460E-003  0.1271895E+03  0.7818608E-02  0.1231687E+00
         -4   -1    0    0    0  501 -0.00000000000E+00  0.00000000000E+00  0.89323103275E+03  0.89323193559E+03  0.12700000000E+01 0.  1.
          4   -1    0    0  502    0  0.00000000000E+00 -0.00000000000E+00 -0.62976588520E+01  0.64244382647E+01  0.12700000000E+01 0.  1.
         25    2    1    2    0    0  0.22324155745E+02  0.73203510868E+01  0.73740120218E+03  0.74828984570E+03  0.12500081890E+03 0.  0.
    9000005    1    3    3    0    0 -0.39899392625E+01 -0.13725953216E+02  0.50946129868E+01  0.15207777237E+02  0.10000000000E+01 0.  0.
    9000005    1    3    3    0    0  0.26314095007E+02  0.21046304302E+02  0.73230658920E+03  0.73308206846E+03  0.10000000000E+01 0.  0.
         21    1    1    2  502  501 -0.22324155745E+02 -0.73203510868E+01  0.14953217171E+03  0.15136652816E+03  0.00000000000E+00 0. -1.
<mgrwt>
<rscale>  1 0.12718947E+03</rscale>
<asrwt>0</asrwt>
<pdfrwt beam="2">  1        4 0.97869238E-03 0.12718947E+03</pdfrwt>
<pdfrwt beam="1">  1       -4 0.13742997E+00 0.12718947E+03</pdfrwt>
<totfact> 0.19635980E+03</totfact>
</mgrwt>
</event>
<event>
 6    4  0.2103460E-003  0.1500140E+03  0.7818608E-02  0.1200456E+00
         -4   -1    0    0    0  501 -0.00000000000E+00  0.00000000000E+00  0.64699070947E+03  0.64699195594E+03  0.12700000000E+01 0. -1.
          4   -1    0    0  502    0  0.00000000000E+00 -0.00000000000E+00 -0.22235100446E+02  0.22271340145E+02  0.12700000000E+01 0. -1.
         25    2    1    2    0    0 -0.73557988656E+02  0.38337293009E+02  0.31995177781E+03  0.35337423129E+03  0.12499472583E+03 0.  0.
    9000005    1    3    3    0    0 -0.36803619454E+02 -0.22674694695E+02  0.25008671654E+02  0.49950794211E+02  0.10000000000E+01 0.  0.
    9000005    1    3    3    0    0 -0.36754369202E+02  0.61011987704E+02  0.29494310615E+03  0.30342343707E+03  0.10000000000E+01 0.  0.
         21    1    1    2  502  501  0.73557988656E+02 -0.38337293009E+02  0.30480383122E+03  0.31588906480E+03  0.00000000000E+00 0. -1.
<mgrwt>
<rscale>  1 0.15001402E+03</rscale>
<asrwt>0</asrwt>
<pdfrwt beam="2">  1        4 0.34236689E-02 0.15001402E+03</pdfrwt>
<pdfrwt beam="1">  1       -4 0.99539895E-01 0.15001402E+03</pdfrwt>
<totfact> 0.64084444E+02</totfact>
</mgrwt>
</event>
<event>
 6    4  0.2103460E-003  0.1294475E+03  0.7818608E-02  0.1228278E+00
         -4   -1    0    0    0  501 -0.00000000000E+00  0.00000000000E+00  0.17996622688E+04  0.17996627170E+04  0.12700000000E+01 0.  1.
          4   -1    0    0  502    0  0.00000000000E+00 -0.00000000000E+00 -0.43377256715E+01  0.45198190231E+01  0.12700000000E+01 0.  1.
         25    2    1    2    0    0 -0.20402711947E+02 -0.26744702034E+02  0.10275719824E+04  0.10356934051E+04  0.12500040226E+03 0.  0.
    9000005    1    3    3    0    0  0.24463368179E+02  0.41132208428E+02  0.40942224962E+03  0.41221098171E+03  0.10000000000E+01 0.  0.
    9000005    1    3    3    0    0 -0.44866080127E+02 -0.67876910462E+02  0.61814973276E+03  0.62348242335E+03  0.10000000000E+01 0.  0.
         21    1    1    2  502  501  0.20402711947E+02  0.26744702034E+02  0.76775256080E+03  0.76848913092E+03  0.00000000000E+00 0. -1.
<mgrwt>
<rscale>  1 0.12944748E+03</rscale>
<asrwt>0</asrwt>
<pdfrwt beam="2">  1        4 0.68138295E-03 0.12944748E+03</pdfrwt>
<pdfrwt beam="1">  1       -4 0.27688561E+00 0.12944748E+03</pdfrwt>
<totfact> 0.44510195E+02</totfact>
</mgrwt>
</event>
<event>
 6    4  0.2103460E-003  0.1330240E+03  0.7818608E-02  0.1223036E+00
          4   -1    0    0  502    0  0.00000000000E+00  0.00000000000E+00  0.40437637621E+03  0.40437837051E+03  0.12700000000E+01 0. -1.
         -4   -1    0    0    0  501 -0.00000000000E+00 -0.00000000000E+00 -0.20062768676E+02  0.20102924836E+02  0.12700000000E+01 0. -1.
         25    2    1    2    0    0  0.89221168082E+00  0.45511237649E+02  0.25915162499E+03  0.29129874894E+03  0.12499331023E+03 0.  0.
    9000005    1    3    3    0    0  0.11884531546E+02 -0.26196518137E+02  0.79957381360E+01  0.29873591698E+02  0.10000000000E+01 0.  0.
    9000005    1    3    3    0    0 -0.10992319865E+02  0.71707755786E+02  0.25115588686E+03  0.26142515724E+03  0.10000000000E+01 0.  0.
         21    1    1    2  502  501 -0.89221168082E+00 -0.45511237649E+02  0.12516198254E+03  0.13318254641E+03  0.00000000000E+00 0. -1.
<mgrwt>
<rscale>  1 0.13302404E+03</rscale>
<asrwt>0</asrwt>
<pdfrwt beam="1">  1        4 0.62214986E-01 0.13302404E+03</pdfrwt>
<pdfrwt beam="2">  1       -4 0.30898225E-02 0.13302404E+03</pdfrwt>
<totfact> 0.20733800E+03</totfact>
</mgrwt>
</event>
<event>
 6    4  0.2103460E-003  0.1423794E+03  0.7818608E-02  0.1210163E+00
          4   -1    0    0  502    0  0.00000000000E+00  0.00000000000E+00  0.87554789043E+02  0.87563999362E+02  0.12700000000E+01 0.  1.
         -4   -1    0    0    0  501 -0.00000000000E+00 -0.00000000000E+00 -0.12751239757E+03  0.12751872190E+03  0.12700000000E+01 0.  1.
         25    2    1    2    0    0  0.61477048868E+02  0.29476125252E+02 -0.35615472424E+02  0.14676637151E+03  0.12499454561E+03 0.  0.
    9000005    1    3    3    0    0 -0.32429926957E+02 -0.19122721596E+01  0.14729642028E+02  0.35683599896E+02  0.10000000000E+01 0.  0.
    9000005    1    3    3    0    0  0.93906975825E+02  0.31388397412E+02 -0.50345114452E+02  0.11108277162E+03  0.10000000000E+01 0.  0.
         21    1    1    2  502  501 -0.61477048868E+02 -0.29476125252E+02 -0.43421361083E+01  0.68316349752E+02  0.00000000000E+00 0.  1.
<mgrwt>
<rscale>  1 0.14237944E+03</rscale>
<asrwt>0</asrwt>
<pdfrwt beam="1">  1        4 0.13471163E-01 0.14237944E+03</pdfrwt>
<pdfrwt beam="2">  1       -4 0.19618487E-01 0.14237944E+03</pdfrwt>
<totfact> 0.17658233E+03</totfact>
</mgrwt>
</event>
<event>
 6    4  0.2103460E-003  0.1271566E+03  0.7818608E-02  0.1231737E+00
          4   -1    0    0  502    0  0.00000000000E+00  0.00000000000E+00  0.83767714054E+02  0.83777340719E+02  0.12700000000E+01 0.  1.
         -4   -1    0    0    0  501 -0.00000000000E+00 -0.00000000000E+00 -0.72484411601E+02  0.72495536587E+02  0.12700000000E+01 0.  1.
         25    2    1    2    0    0 -0.22878756221E+02  0.45719600609E+01  0.24445650645E+02  0.12948504957E+03  0.12499779167E+03 0.  0.
    9000005    1    3    3    0    0  0.21208450733E+02 -0.29578208274E+02  0.54946105543E+02  0.65914666816E+02  0.10000000000E+01 0.  0.
    9000005    1    3    3    0    0 -0.44087206953E+02  0.34150168335E+02 -0.30500454897E+02  0.63570382752E+02  0.10000000000E+01 0.  0.
         21    1    1    2  502  501  0.22878756221E+02 -0.45719600609E+01 -0.13162348192E+02  0.26787827738E+02  0.00000000000E+00 0. -1.
<mgrwt>
<rscale>  1 0.12715655E+03</rscale>
<asrwt>0</asrwt>
<pdfrwt beam="1">  1        4 0.12888937E-01 0.12715655E+03</pdfrwt>
<pdfrwt beam="2">  1       -4 0.11153044E-01 0.12715655E+03</pdfrwt>
<totfact> 0.49717096E+03</totfact>
</mgrwt>
</event>
<event>
 6    4  0.2103460E-003  0.1291294E+03  0.7818608E-02  0.1228753E+00
         -4   -1    0    0    0  501 -0.00000000000E+00  0.00000000000E+00  0.82418921691E+02  0.82428705878E+02  0.12700000000E+01 0.  1.
          4   -1    0    0  502    0  0.00000000000E+00 -0.00000000000E+00 -0.79816766583E+02  0.79826869711E+02  0.12700000000E+01 0.  1.
         25    2    1    2    0    0  0.20245952767E+02  0.25292536802E+02  0.81496054805E+01  0.12938636162E+03  0.12499921393E+03 0.  0.
    9000005    1    3    3    0    0  0.65788053109E+02 -0.15926203019E+02  0.44068871115E+01  0.67839019218E+02  0.10000000000E+01 0.  0.
    9000005    1    3    3    0    0 -0.45542100342E+02  0.41218739820E+02  0.37427183690E+01  0.61547342402E+02  0.10000000000E+01 0.  0.
         21    1    1    2  502  501 -0.20245952767E+02 -0.25292536802E+02 -0.55474503729E+01  0.32869213969E+02  0.00000000000E+00 0.  1.
<mgrwt>
<rscale>  1 0.12912945E+03</rscale>
<asrwt>0</asrwt>
<pdfrwt beam="2">  1        4 0.12281032E-01 0.12912945E+03</pdfrwt>
<pdfrwt beam="1">  1       -4 0.12681364E-01 0.12912945E+03</pdfrwt>
<totfact> 0.43547817E+03</totfact>
</mgrwt>
</event>
<event>
 6    4  0.2103460E-003  0.1305328E+03  0.7818608E-02  0.1226667E+00
         -4   -1    0    0    0  501 -0.00000000000E+00  0.00000000000E+00  0.82245914092E+02  0.82255718858E+02  0.12700000000E+01 0. -1.
          4   -1    0    0  502    0  0.00000000000E+00 -0.00000000000E+00 -0.87340284268E+02  0.87349517205E+02  0.12700000000E+01 0. -1.
         25    2    1    2    0    0 -0.55667656105E+01 -0.37183811752E+02 -0.13020588530E+02  0.13118063882E+03  0.12500079816E+03 0.  0.
    9000005    1    3    3    0    0 -0.21882246509E+02 -0.80463191089E+02 -0.10690879548E+01  0.83398445918E+02  0.10000000000E+01 0.  0.
    9000005    1    3    3    0    0  0.16315480898E+02  0.43279379337E+02 -0.11951500575E+02  0.47782192904E+02  0.10000000000E+01 0.  0.
         21    1    1    2  502  501  0.55667656105E+01  0.37183811752E+02  0.79262183539E+01  0.38424597241E+02  0.00000000000E+00 0. -1.
<mgrwt>
<rscale>  1 0.13053285E+03</rscale>
<asrwt>0</asrwt>
<pdfrwt beam="2">  1        4 0.13438431E-01 0.13053285E+03</pdfrwt>
<pdfrwt beam="1">  1       -4 0.12654682E-01 0.13053285E+03</pdfrwt>
<totfact> 0.37536095E+03</totfact>
</mgrwt>
</event>
<event>
 6    4  0.2103460E-003  0.1280234E+03  0.7818608E-02  0.1230418E+00
          4   -1    0    0  502    0  0.00000000000E+00  0.00000000000E+00  0.39572432704E+01  0.41560407002E+01  0.12700000000E+01 0.  1.
         -4   -1    0    0    0  501 -0.00000000000E+00 -0.00000000000E+00 -0.15179526261E+04  0.15179531574E+04  0.12700000000E+01 0.  1.
         25    2    1    2    0    0 -0.26814491153E+02 -0.67418691572E+01 -0.11625597728E+04  0.11695876275E+04  0.12500209316E+03 0.  0.
    9000005    1    3    3    0    0  0.45716100865E+02  0.19019654039E+02 -0.54594466364E+03  0.54818635962E+03  0.10000000000E+01 0.  0.
    9000005    1    3    3    0    0 -0.72530592018E+02 -0.25761523196E+02 -0.61661510913E+03  0.62140126783E+03  0.10000000000E+01 0.  0.
         21    1    1    2  502  501  0.26814491153E+02  0.67418691572E+01 -0.35143561010E+03  0.35252157066E+03  0.00000000000E+00 0.  1.
<mgrwt>
<rscale>  1 0.12802341E+03</rscale>
<asrwt>0</asrwt>
<pdfrwt beam="1">  1        4 0.62414084E-03 0.12802341E+03</pdfrwt>
<pdfrwt beam="2">  1       -4 0.23354605E+00 0.12802341E+03</pdfrwt>
<totfact> 0.89908811E+02</totfact>
</mgrwt>
</event>
<event>
 6    4  0.2103460E-003  0.1271733E+03  0.7818608E-02  0.1231711E+00
          4   -1    0    0  502    0  0.00000000000E+00  0.00000000000E+00  0.70914639045E+03  0.70914752766E+03  0.12700000000E+01 0. -1.
         -4   -1    0    0    0  501 -0.00000000000E+00 -0.00000000000E+00 -0.85533714175E+01  0.86471418750E+01  0.12700000000E+01 0. -1.
         25    2    1    2    0    0  0.23092198565E+02  0.39114530975E+01  0.64585288417E+03  0.65825450272E+03  0.12499797302E+03 0.  0.
    9000005    1    3    3    0    0 -0.32755430894E+02 -0.21748311172E+02  0.47598364553E+03  0.47760583969E+03  0.10000000000E+01 0.  0.
    9000005    1    3    3    0    0  0.55847629460E+02  0.25659764270E+02  0.16986923863E+03  0.18064866302E+03  0.10000000000E+01 0.  0.
         21    1    1    2  502  501 -0.23092198565E+02 -0.39114530975E+01  0.54740134866E+02  0.59540166821E+02  0.00000000000E+00 0. -1.
<mgrwt>
<rscale>  1 0.12717328E+03</rscale>
<asrwt>0</asrwt>
<pdfrwt beam="1">  1        4 0.10910674E+00 0.12717328E+03</pdfrwt>
<pdfrwt beam="2">  1       -4 0.13232039E-02 0.12717328E+03</pdfrwt>
<totfact> 0.21719847E+03</totfact>
</mgrwt>
</event>
<event>
 6    4  0.2103460E-003  0.1279752E+03  0.7818608E-02  0.1230492E+00
         -4   -1    0    0    0  501 -0.00000000000E+00  0.00000000000E+00  0.38542491468E+02  0.38563409452E+02  0.12700000000E+01 0. -1.
          4   -1    0    0  502    0  0.00000000000E+00 -0.00000000000E+00 -0.16559553122E+03  0.16560040114E+03  0.12700000000E+01 0. -1.
         25    2    1    2    0    0  0.97180927759E+01 -0.25654986449E+02 -0.12089128052E+03  0.17604643281E+03  0.12500010057E+03 0.  0.
    9000005    1    3    3    0    0 -0.11707678531E+02  0.47786639464E+02 -0.63852616305E+02  0.80615068423E+02  0.10000000000E+01 0.  0.
    9000005    1    3    3    0    0  0.21425771307E+02 -0.73441625913E+02 -0.57038664214E+02  0.95431364384E+02  0.10000000000E+01 0.  0.
         21    1    1    2  502  501 -0.97180927759E+01  0.25654986449E+02 -0.61617592300E+01  0.28117377788E+02  0.00000000000E+00 0. -1.
<mgrwt>
<rscale>  1 0.12797517E+03</rscale>
<asrwt>0</asrwt>
<pdfrwt beam="2">  1        4 0.25478219E-01 0.12797517E+03</pdfrwt>
<pdfrwt beam="1">  1       -4 0.59315979E-02 0.12797517E+03</pdfrwt>
<totfact> 0.42181161E+03</totfact>
</mgrwt>
</event>
<event>
 6    4  0.2103460E-003  0.1265964E+03  0.7818608E-02  0.1232595E+00
          4   -1    0    0  502    0  0.00000000000E+00  0.00000000000E+00  0.14345769578E+02  0.14401875044E+02  0.12700000000E+01 0.  1.
         -4   -1    0    0    0  501 -0.00000000000E+00 -0.00000000000E+00 -0.43478268168E+03  0.43478453651E+03  0.12700000000E+01 0.  1.
         25    2    1    2    0    0  0.20023824750E+02 -0.20273285242E-01 -0.27949387858E+03  0.30682808666E+03  0.12500277049E+03 0.  0.
    9000005    1    3    3    0    0  0.71009925139E+02  0.86709090332E+01 -0.12656663759E+03  0.14538812841E+03  0.10000000000E+01 0.  0.
    9000005    1    3    3    0    0 -0.50986100389E+02 -0.86911823184E+01 -0.15292724099E+03  0.16143995825E+03  0.10000000000E+01 0.  0.
         21    1    1    2  502  501 -0.20023824750E+02  0.20273285242E-01 -0.14094303352E+03  0.14235832489E+03  0.00000000000E+00 0.  1.
<mgrwt>
<rscale>  1 0.12659639E+03</rscale>
<asrwt>0</asrwt>
<pdfrwt beam="1">  1        4 0.22115003E-02 0.12659639E+03</pdfrwt>
<pdfrwt beam="2">  1       -4 0.66894092E-01 0.12659639E+03</pdfrwt>
<totfact> 0.29558195E+03</totfact>
</mgrwt>
</event>
<event>
 6    4  0.2103460E-003  0.1276774E+03  0.7818608E-02  0.1230943E+00
          4   -1    0    0  502    0  0.00000000000E+00  0.00000000000E+00  0.77676679199E+02  0.77687060643E+02  0.12700000000E+01 0.  1.
         -4   -1    0    0    0  501 -0.00000000000E+00 -0.00000000000E+00 -0.76744378970E+02  0.76754886512E+02  0.12700000000E+01 0.  1.
         25    2    1    2    0    0  0.95868231986E+01  0.24174542289E+02  0.65146156134E+01  0.12784349008E+03  0.12500080826E+03 0.  0.
    9000005    1    3    3    0    0 -0.41804758781E+02  0.15291179481E+02 -0.38561843788E+02  0.58902239542E+02  0.10000000000E+01 0.  0.
    9000005    1    3    3    0    0  0.51391581980E+02  0.88833628078E+01  0.45076459402E+02  0.68941250535E+02  0.10000000000E+01 0.  0.
         21    1    1    2  502  501 -0.95868231986E+01 -0.24174542289E+02 -0.55823153845E+01  0.26598457079E+02  0.00000000000E+00 0. -1.
<mgrwt>
<rscale>  1 0.12767740E+03</rscale>
<asrwt>0</asrwt>
<pdfrwt beam="1">  1        4 0.11951865E-01 0.12767740E+03</pdfrwt>
<pdfrwt beam="2">  1       -4 0.11808434E-01 0.12767740E+03</pdfrwt>
<totfact> 0.51394198E+03</totfact>
</mgrwt>
</event>
<event>
 6    4  0.2103460E-003  0.1289287E+03  0.7818608E-02  0.1229054E+00
          4   -1    0    0  502    0  0.00000000000E+00  0.00000000000E+00  0.37609515782E+01  0.39695915122E+01  0.12700000000E+01 0.  1.
         -4   -1    0    0    0  501 -0.00000000000E+00 -0.00000000000E+00 -0.17490437657E+04  0.17490442268E+04  0.12700000000E+01 0.  1.
         25    2    1    2    0    0 -0.79044721394E+01 -0.30636042512E+02 -0.12239557113E+04  0.12307275022E+04  0.12498621448E+03 0.  0.
    9000005    1    3    3    0    0 -0.72601832569E+01  0.47837810090E+02 -0.36515886385E+03  0.36835195422E+03  0.10000000000E+01 0.  0.
    9000005    1    3    3    0    0 -0.64428888250E+00 -0.78473852602E+02 -0.85879684744E+03  0.86237554802E+03  0.10000000000E+01 0.  0.
         21    1    1    2  502  501  0.79044721394E+01  0.30636042512E+02 -0.52132710285E+03  0.52228631607E+03  0.00000000000E+00 0.  1.
<mgrwt>
<rscale>  1 0.12892867E+03</rscale>
<asrwt>0</asrwt>
<pdfrwt beam="1">  1        4 0.59469403E-03 0.12892867E+03</pdfrwt>
<pdfrwt beam="2">  1       -4 0.26909911E+00 0.12892867E+03</pdfrwt>
<totfact> 0.60335344E+02</totfact>
</mgrwt>
</event>
<event>
 6    4  0.2103460E-003  0.1270654E+03  0.7818608E-02  0.1231876E+00
         -4   -1    0    0    0  501 -0.00000000000E+00  0.00000000000E+00  0.16384293474E+03  0.16384785676E+03  0.12700000000E+01 0. -1.
          4   -1    0    0  502    0  0.00000000000E+00 -0.00000000000E+00 -0.97433669962E+02  0.97441946523E+02  0.12700000000E+01 0. -1.
         25    2    1    2    0    0  0.22661478363E+02 -0.21380319976E+01 -0.54497422849E+02  0.13825915305E+03  0.12501004169E+03 0.  0.
    9000005    1    3    3    0    0  0.50801245684E+02  0.40855439371E+02 -0.57285240488E+02  0.86790162270E+02  0.10000000000E+01 0.  0.
    9000005    1    3    3    0    0 -0.28139767321E+02 -0.42993471368E+02  0.27878176391E+01  0.51468990784E+02  0.10000000000E+01 0.  0.
         21    1    1    2  502  501 -0.22661478363E+02  0.21380319976E+01  0.12090668763E+03  0.12303065023E+03  0.00000000000E+00 0. -1.
<mgrwt>
<rscale>  1 0.12706543E+03</rscale>
<asrwt>0</asrwt>
<pdfrwt beam="2">  1        4 0.14990811E-01 0.12706543E+03</pdfrwt>
<pdfrwt beam="1">  1       -4 0.25207620E-01 0.12706543E+03</pdfrwt>
<totfact> 0.90679110E+02</totfact>
</mgrwt>
</event>
<event>
 6    4  0.2103460E-003  0.1269654E+03  0.7818608E-02  0.1232029E+00
          4   -1    0    0  502    0  0.00000000000E+00  0.00000000000E+00  0.29264146877E+02  0.29291691525E+02  0.12700000000E+01 0.  1.
         -4   -1    0    0    0  501 -0.00000000000E+00 -0.00000000000E+00 -0.19049016424E+03  0.19049439775E+03  0.12700000000E+01 0.  1.
         25    2    1    2    0    0 -0.22099778976E+02 -0.26446940010E+01 -0.13355988211E+03  0.18427820737E+03  0.12499928386E+03 0.  0.
    9000005    1    3    3    0    0 -0.59673878621E+02  0.30503073087E+02 -0.11020751905E+03  0.12898878445E+03  0.10000000000E+01 0.  0.
    9000005    1    3    3    0    0  0.37574099645E+02 -0.33147767088E+02 -0.23352363059E+02  0.55289422926E+02  0.10000000000E+01 0.  0.
         21    1    1    2  502  501  0.22099778976E+02  0.26446940010E+01 -0.27666135257E+02  0.35507881902E+02  0.00000000000E+00 0. -1.
<mgrwt>
<rscale>  1 0.12696541E+03</rscale>
<asrwt>0</asrwt>
<pdfrwt beam="1">  1        4 0.45046210E-02 0.12696541E+03</pdfrwt>
<pdfrwt beam="2">  1       -4 0.29308623E-01 0.12696541E+03</pdfrwt>
<totfact> 0.50478950E+03</totfact>
</mgrwt>
</event>
<event>
 6    4  0.2103460E-003  0.1325464E+03  0.7818608E-02  0.1223726E+00
          4   -1    0    0  502    0  0.00000000000E+00  0.00000000000E+00  0.66789305348E+03  0.66789426093E+03  0.12700000000E+01 0. -1.
         -4   -1    0    0    0  501 -0.00000000000E+00 -0.00000000000E+00 -0.15470825804E+02  0.15522865427E+02  0.12700000000E+01 0. -1.
         25    2    1    2    0    0  0.41234338751E+02  0.15592668017E+02  0.60209757250E+03  0.61651441411E+03  0.12500053601E+03 0.  0.
    9000005    1    3    3    0    0  0.46700737079E+02  0.27228917366E+02  0.60115861475E+03  0.60358516621E+03  0.10000000000E+01 0.  0.
    9000005    1    3    3    0    0 -0.54663983284E+01 -0.11636249350E+02  0.93895775696E+00  0.12929247901E+02  0.10000000000E+01 0.  0.
         21    1    1    2  502  501 -0.41234338751E+02 -0.15592668017E+02  0.50324655175E+02  0.66902712251E+02  0.00000000000E+00 0. -1.
<mgrwt>
<rscale>  1 0.13254635E+03</rscale>
<asrwt>0</asrwt>
<pdfrwt beam="1">  1        4 0.10275685E+00 0.13254635E+03</pdfrwt>
<pdfrwt beam="2">  1       -4 0.23842235E-02 0.13254635E+03</pdfrwt>
<totfact> 0.10229050E+03</totfact>
</mgrwt>
</event>
<event>
 6    4  0.2103460E-003  0.1267485E+03  0.7818608E-02  0.1232362E+00
         -4   -1    0    0    0  501 -0.00000000000E+00  0.00000000000E+00  0.79332403908E+02  0.79342568712E+02  0.12700000000E+01 0.  1.
          4   -1    0    0  502    0  0.00000000000E+00 -0.00000000000E+00 -0.73735213747E+02  0.73746150044E+02  0.12700000000E+01 0.  1.
         25    2    1    2    0    0 -0.19791969604E+02 -0.69486979002E+01 -0.97118173490E+01  0.12712004197E+03  0.12500071684E+03 0.  0.
    9000005    1    3    3    0    0  0.29879382790E+02 -0.51089848581E+02 -0.12907568727E+02  0.60585109345E+02  0.10000000000E+01 0.  0.
    9000005    1    3    3    0    0 -0.49671352393E+02  0.44141150681E+02  0.31957513783E+01  0.66534932621E+02  0.10000000000E+01 0.  0.
         21    1    1    2  502  501  0.19791969604E+02  0.69486979002E+01  0.15309007510E+02  0.25968676790E+02  0.00000000000E+00 0.  1.
<mgrwt>
<rscale>  1 0.12674851E+03</rscale>
<asrwt>0</asrwt>
<pdfrwt beam="2">  1        4 0.11345502E-01 0.12674851E+03</pdfrwt>
<pdfrwt beam="1">  1       -4 0.12206608E-01 0.12674851E+03</pdfrwt>
<totfact> 0.52970367E+03</totfact>
</mgrwt>
</event>
<event>
 6    4  0.2103460E-003  0.1284606E+03  0.7818608E-02  0.1229758E+00
          4   -1    0    0  502    0  0.00000000000E+00  0.00000000000E+00  0.17677015744E+03  0.17677471952E+03  0.12700000000E+01 0. -1.
         -4   -1    0    0    0  501 -0.00000000000E+00 -0.00000000000E+00 -0.58065067700E+02  0.58078954769E+02  0.12700000000E+01 0. -1.
         25    2    1    2    0    0 -0.14781585878E+02  0.25680609497E+02  0.14606883623E+03  0.19452051662E+03  0.12499654988E+03 0.  0.
    9000005    1    3    3    0    0 -0.59254544446E+02 -0.18249247497E+02  0.96632505252E+02  0.11481714655E+03  0.10000000000E+01 0.  0.
    9000005    1    3    3    0    0  0.44472958567E+02  0.43929856994E+02  0.49436330981E+02  0.79703370067E+02  0.10000000000E+01 0.  0.
         21    1    1    2  502  501  0.14781585878E+02 -0.25680609497E+02 -0.27363746493E+02  0.40333157667E+02  0.00000000000E+00 0. -1.
<mgrwt>
<rscale>  1 0.12846060E+03</rscale>
<asrwt>0</asrwt>
<pdfrwt beam="1">  1        4 0.27196827E-01 0.12846060E+03</pdfrwt>
<pdfrwt beam="2">  1       -4 0.89345067E-02 0.12846060E+03</pdfrwt>
<totfact> 0.19071749E+03</totfact>
</mgrwt>
</event>
<event>
 6    4  0.2103460E-003  0.1281623E+03  0.7818608E-02  0.1230208E+00
         -4   -1    0    0    0  501 -0.00000000000E+00  0.00000000000E+00  0.18610010405E+03  0.18610443742E+03  0.12700000000E+01 0. -1.
          4   -1    0    0  502    0  0.00000000000E+00 -0.00000000000E+00 -0.63481756898E+02  0.63494459277E+02  0.12700000000E+01 0. -1.
         25    2    1    2    0    0 -0.24651592536E+02  0.13887456709E+02  0.46091226255E+01  0.12824511826E+03  0.12500001551E+03 0.  0.
    9000005    1    3    3    0    0 -0.61045880732E+02 -0.42549743303E+01 -0.35803180381E+02  0.70905374171E+02  0.10000000000E+01 0.  0.
    9000005    1    3    3    0    0  0.36394288196E+02  0.18142431040E+02  0.40412303007E+02  0.57339744085E+02  0.10000000000E+01 0.  0.
         21    1    1    2  502  501  0.24651592536E+02 -0.13887456709E+02  0.11800922452E+03  0.12135377844E+03  0.00000000000E+00 0. -1.
<mgrwt>
<rscale>  1 0.12816227E+03</rscale>
<asrwt>0</asrwt>
<pdfrwt beam="2">  1        4 0.97677349E-02 0.12816227E+03</pdfrwt>
<pdfrwt beam="1">  1       -4 0.28632095E-01 0.12816227E+03</pdfrwt>
<totfact> 0.14913079E+03</totfact>
</mgrwt>
</event>
<event>
 6    4  0.2103460E-003  0.1379885E+03  0.7818608E-02  0.1216061E+00
         -4   -1    0    0    0  501 -0.00000000000E+00  0.00000000000E+00  0.98762233580E+03  0.98762315236E+03  0.12700000000E+01 0. -1.
          4   -1    0    0  502    0  0.00000000000E+00 -0.00000000000E+00 -0.11745161371E+02  0.11813624154E+02  0.12700000000E+01 0. -1.
         25    2    1    2    0    0 -0.39362719280E+02  0.43274265258E+02  0.45992666336E+03  0.48018056271E+03  0.12497500321E+03 0.  0.
    9000005    1    3    3    0    0 -0.21080162221E+02  0.38560657981E+02  0.45915872449E+03  0.46125809680E+03  0.10000000000E+01 0.  0.
    9000005    1    3    3    0    0 -0.18282557059E+02  0.47136072769E+01  0.76793887296E+00  0.18922465914E+02  0.10000000000E+01 0.  0.
         21    1    1    2  502  501  0.39362719280E+02 -0.43274265258E+02  0.51595051107E+03  0.51925621381E+03  0.00000000000E+00 0. -1.
<mgrwt>
<rscale>  1 0.13798854E+03</rscale>
<asrwt>0</asrwt>
<pdfrwt beam="2">  1        4 0.18122762E-02 0.13798854E+03</pdfrwt>
<pdfrwt beam="1">  1       -4 0.15194730E+00 0.13798854E+03</pdfrwt>
<totfact> 0.60831535E+02</totfact>
</mgrwt>
</event>
<event>
 6    4  0.2103460E-003  0.1291730E+03  0.7818608E-02  0.1228688E+00
          4   -1    0    0  502    0  0.00000000000E+00  0.00000000000E+00  0.10935570568E+03  0.10936307998E+03  0.12700000000E+01 0. -1.
         -4   -1    0    0    0  501 -0.00000000000E+00 -0.00000000000E+00 -0.59841747056E+02  0.59855221916E+02  0.12700000000E+01 0. -1.
         25    2    1    2    0    0  0.27028419782E+02 -0.18176952604E+02  0.37574209696E+02  0.13452688097E+03  0.12499889354E+03 0.  0.
    9000005    1    3    3    0    0  0.55484226794E+02 -0.57503063670E+02  0.30146258557E+02  0.85410178898E+02  0.10000000000E+01 0.  0.
    9000005    1    3    3    0    0 -0.28455807012E+02  0.39326111066E+02  0.74279511388E+01  0.49116702072E+02  0.10000000000E+01 0.  0.
         21    1    1    2  502  501 -0.27028419782E+02  0.18176952604E+02  0.11939748924E+02  0.34691420931E+02  0.00000000000E+00 0. -1.
<mgrwt>
<rscale>  1 0.12917299E+03</rscale>
<asrwt>0</asrwt>
<pdfrwt beam="1">  1        4 0.16825558E-01 0.12917299E+03</pdfrwt>
<pdfrwt beam="2">  1       -4 0.92080265E-02 0.12917299E+03</pdfrwt>
<totfact> 0.43340894E+03</totfact>
</mgrwt>
</event>
<event>
 6    4  0.2103460E-003  0.1283484E+03  0.7818608E-02  0.1229927E+00
         -4   -1    0    0    0  501 -0.00000000000E+00  0.00000000000E+00  0.69168438665E+02  0.69180096902E+02  0.12700000000E+01 0.  1.
          4   -1    0    0  502    0  0.00000000000E+00 -0.00000000000E+00 -0.12057611408E+03  0.12058280220E+03  0.12700000000E+01 0.  1.
         25    2    1    2    0    0 -0.35186850644E+00  0.29137465800E+02 -0.78102532685E+02  0.15024415508E+03  0.12499673915E+03 0.  0.
    9000005    1    3    3    0    0 -0.58380409514E+02  0.50465635805E+01 -0.13541361316E+02  0.60150714753E+02  0.10000000000E+01 0.  0.
    9000005    1    3    3    0    0  0.58028541008E+02  0.24090902220E+02 -0.64561171369E+02  0.90093440326E+02  0.10000000000E+01 0.  0.
         21    1    1    2  502  501  0.35186850644E+00 -0.29137465800E+02  0.26694857269E+02  0.39518744025E+02  0.00000000000E+00 0.  1.
<mgrwt>
<rscale>  1 0.12834836E+03</rscale>
<asrwt>0</asrwt>
<pdfrwt beam="2">  1        4 0.18551583E-01 0.12834836E+03</pdfrwt>
<pdfrwt beam="1">  1       -4 0.10642710E-01 0.12834836E+03</pdfrwt>
<totfact> 0.28527911E+03</totfact>
</mgrwt>
</event>
<event>
 6    4  0.2103460E-003  0.1290572E+03  0.7818608E-02  0.1228861E+00
          4   -1    0    0  502    0  0.00000000000E+00  0.00000000000E+00  0.77100594713E+02  0.77111053715E+02  0.12700000000E+01 0.  1.
         -4   -1    0    0    0  501 -0.00000000000E+00 -0.00000000000E+00 -0.15557673634E+03  0.15558191986E+03  0.12700000000E+01 0.  1.
         25    2    1    2    0    0  0.11504677113E+02  0.29969047015E+02  0.18651437510E+02  0.13039796880E+03  0.12500101108E+03 0.  0.
    9000005    1    3    3    0    0  0.62355682226E+02 -0.24758939010E+01 -0.10675331455E+02  0.63319221870E+02  0.10000000000E+01 0.  0.
    9000005    1    3    3    0    0 -0.50851005113E+02  0.32444940916E+02  0.29326768965E+02  0.67078746932E+02  0.10000000000E+01 0.  0.
         21    1    1    2  502  501 -0.11504677113E+02 -0.29969047015E+02 -0.97127579132E+02  0.10229500478E+03  0.00000000000E+00 0.  1.
<mgrwt>
<rscale>  1 0.12905717E+03</rscale>
<asrwt>0</asrwt>
<pdfrwt beam="1">  1        4 0.11862833E-01 0.12905717E+03</pdfrwt>
<pdfrwt beam="2">  1       -4 0.23936086E-01 0.12905717E+03</pdfrwt>
<totfact> 0.14985394E+03</totfact>
</mgrwt>
</event>
<event>
 6    4  0.2103460E-003  0.1265976E+03  0.7818608E-02  0.1232593E+00
          4   -1    0    0  502    0  0.00000000000E+00  0.00000000000E+00  0.35209868275E+02  0.35232764920E+02  0.12700000000E+01 0. -1.
         -4   -1    0    0    0  501 -0.00000000000E+00 -0.00000000000E+00 -0.15316294599E+03  0.15316821120E+03  0.12700000000E+01 0. -1.
         25    2    1    2    0    0 -0.88628895049E+01  0.17943852611E+02 -0.97556887709E+02  0.15982586066E+03  0.12500570683E+03 0.  0.
    9000005    1    3    3    0    0 -0.63517034965E+02 -0.80529607313E+01 -0.35844316091E+02  0.73383096850E+02  0.10000000000E+01 0.  0.
    9000005    1    3    3    0    0  0.54654145460E+02  0.25996813343E+02 -0.61712571618E+02  0.86442763813E+02  0.10000000000E+01 0.  0.
         21    1    1    2  502  501  0.88628895049E+01 -0.17943852611E+02 -0.20396190004E+02  0.28575115461E+02  0.00000000000E+00 0. -1.
<mgrwt>
<rscale>  1 0.12659763E+03</rscale>
<asrwt>0</asrwt>
<pdfrwt beam="1">  1        4 0.54190692E-02 0.12659763E+03</pdfrwt>
<pdfrwt beam="2">  1       -4 0.23565696E-01 0.12659763E+03</pdfrwt>
<totfact> 0.56200023E+03</totfact>
</mgrwt>
</event>
<event>
 6    4  0.2103460E-003  0.1305731E+03  0.7818608E-02  0.1226608E+00
          4   -1    0    0  502    0  0.00000000000E+00  0.00000000000E+00  0.52007028732E+02  0.52022532978E+02  0.12700000000E+01 0. -1.
         -4   -1    0    0    0  501 -0.00000000000E+00 -0.00000000000E+00 -0.15270214175E+03  0.15270742286E+03  0.12700000000E+01 0. -1.
         25    2    1    2    0    0  0.33316896526E+02  0.17895925343E+02 -0.46421838478E+02  0.13857961141E+03  0.12497616522E+03 0.  0.
    9000005    1    3    3    0    0  0.25867725072E+02  0.63676980893E+02  0.54909119338E+01  0.68956850348E+02  0.10000000000E+01 0.  0.
    9000005    1    3    3    0    0  0.74491714534E+01 -0.45781055550E+02 -0.51912750412E+02  0.69622761062E+02  0.10000000000E+01 0.  0.
         21    1    1    2  502  501 -0.33316896526E+02 -0.17895925343E+02 -0.54273274545E+02  0.66150344427E+02  0.00000000000E+00 0. -1.
<mgrwt>
<rscale>  1 0.13057305E+03</rscale>
<asrwt>0</asrwt>
<pdfrwt beam="1">  1        4 0.80026803E-02 0.13057305E+03</pdfrwt>
<pdfrwt beam="2">  1       -4 0.23494236E-01 0.13057305E+03</pdfrwt>
<totfact> 0.30125107E+03</totfact>
</mgrwt>
</event>
<event>
 6    4  0.2103460E-003  0.1358255E+03  0.7818608E-02  0.1219059E+00
         -4   -1    0    0    0  501 -0.00000000000E+00  0.00000000000E+00  0.69012647829E+02  0.69024332379E+02  0.12700000000E+01 0.  1.
          4   -1    0    0  502    0  0.00000000000E+00 -0.00000000000E+00 -0.17351455273E+03  0.17351920040E+03  0.12700000000E+01 0.  1.
         25    2    1    2    0    0 -0.37986881034E+02  0.37180962282E+02 -0.12594034055E+03  0.18522832005E+03  0.12499253612E+03 0.  0.
    9000005    1    3    3    0    0 -0.58476432585E+02  0.59432561784E+02 -0.13025457805E+03  0.15465761433E+03  0.10000000000E+01 0.  0.
    9000005    1    3    3    0    0  0.20489551551E+02 -0.22251599502E+02  0.43142374994E+01  0.30570705722E+02  0.10000000000E+01 0.  0.
         21    1    1    2  502  501  0.37986881034E+02 -0.37180962282E+02  0.21438435650E+02  0.57315212728E+02  0.00000000000E+00 0.  1.
<mgrwt>
<rscale>  1 0.13582548E+03</rscale>
<asrwt>0</asrwt>
<pdfrwt beam="2">  1        4 0.26695803E-01 0.13582548E+03</pdfrwt>
<pdfrwt beam="1">  1       -4 0.10618587E-01 0.13582548E+03</pdfrwt>
<totfact> 0.14955423E+03</totfact>
</mgrwt>
</event>
<event>
 6    4  0.2103460E-003  0.1291987E+03  0.7818608E-02  0.1228650E+00
          4   -1    0    0  502    0  0.00000000000E+00  0.00000000000E+00  0.70951849009E+02  0.70963214258E+02  0.12700000000E+01 0.  1.
         -4   -1    0    0    0  501 -0.00000000000E+00 -0.00000000000E+00 -0.94040213468E+02  0.94048788663E+02  0.12700000000E+01 0.  1.
         25    2    1    2    0    0 -0.32489063122E+02 -0.30564095631E+01 -0.27469664231E+02  0.13208668364E+03  0.12500971434E+03 0.  0.
    9000005    1    3    3    0    0 -0.47149751535E+02 -0.35279647623E+02  0.28830236180E+02  0.65573890570E+02  0.10000000000E+01 0.  0.
    9000005    1    3    3    0    0  0.14660688413E+02  0.32223238060E+02 -0.56299900411E+02  0.66512793071E+02  0.10000000000E+01 0.  0.
         21    1    1    2  502  501  0.32489063122E+02  0.30564095631E+01  0.43812997724E+01  0.32925319280E+02  0.00000000000E+00 0.  1.
<mgrwt>
<rscale>  1 0.12919872E+03</rscale>
<asrwt>0</asrwt>
<pdfrwt beam="1">  1        4 0.10917203E-01 0.12919872E+03</pdfrwt>
<pdfrwt beam="2">  1       -4 0.14469259E-01 0.12919872E+03</pdfrwt>
<totfact> 0.42379252E+03</totfact>
</mgrwt>
</event>
<event>
 6    4  0.2103460E-003  0.1267971E+03  0.7818608E-02  0.1232287E+00
          4   -1    0    0  502    0  0.00000000000E+00  0.00000000000E+00  0.92288260120E+01  0.93157999957E+01  0.12700000000E+01 0. -1.
         -4   -1    0    0    0  501 -0.00000000000E+00 -0.00000000000E+00 -0.61786433188E+03  0.61786563710E+03  0.12700000000E+01 0. -1.
         25    2    1    2    0    0 -0.13639240869E+02 -0.16290120632E+02 -0.55881539565E+03  0.57302019354E+03  0.12500439538E+03 0.  0.
    9000005    1    3    3    0    0 -0.35834896678E+02 -0.60604676634E+02 -0.23148622080E+03  0.24195854411E+03  0.10000000000E+01 0.  0.
    9000005    1    3    3    0    0  0.22195655809E+02  0.44314556002E+02 -0.32732917486E+03  0.33106164943E+03  0.10000000000E+01 0.  0.
         21    1    1    2  502  501  0.13639240869E+02  0.16290120632E+02 -0.49820110219E+02  0.54161243560E+02  0.00000000000E+00 0.  1.
<mgrwt>
<rscale>  1 0.12679707E+03</rscale>
<asrwt>0</asrwt>
<pdfrwt beam="1">  1        4 0.14266106E-02 0.12679707E+03</pdfrwt>
<pdfrwt beam="2">  1       -4 0.95062810E-01 0.12679707E+03</pdfrwt>
<totfact> 0.26647930E+03</totfact>
</mgrwt>
</event>
<event>
 6    4  0.2103460E-003  0.3043576E+03  0.7818608E-02  0.1083082E+00
          4   -1    0    0  502    0  0.00000000000E+00  0.00000000000E+00  0.19618651407E+03  0.19619062466E+03  0.12700000000E+01 0. -1.
         -4   -1    0    0    0  501 -0.00000000000E+00 -0.00000000000E+00 -0.44096020011E+03  0.44096202896E+03  0.12700000000E+01 0. -1.
         25    2    1    2    0    0 -0.11046033261E+03  0.25457197247E+03 -0.81103566048E+02  0.31497834920E+03  0.12500079115E+03 0.  0.
    9000005    1    3    3    0    0 -0.52595810647E+01  0.10154792665E+02 -0.45001760284E+02  0.46442883585E+02  0.10000000000E+01 0.  0.
    9000005    1    3    3    0    0 -0.10520075155E+03  0.24441717981E+03 -0.36101805764E+02  0.26853546561E+03  0.10000000000E+01 0.  0.
         21    1    1    2  502  501  0.11046033261E+03 -0.25457197247E+03 -0.16367011999E+03  0.32217430442E+03  0.00000000000E+00 0. -1.
<mgrwt>
<rscale>  1 0.30435764E+03</rscale>
<asrwt>0</asrwt>
<pdfrwt beam="1">  1        4 0.30182998E-01 0.30435764E+03</pdfrwt>
<pdfrwt beam="2">  1       -4 0.67840488E-01 0.30435764E+03</pdfrwt>
<totfact> 0.39795402E+01</totfact>
</mgrwt>
</event>
<event>
 6    4  0.2103460E-003  0.1269960E+03  0.7818608E-02  0.1231982E+00
         -4   -1    0    0    0  501 -0.00000000000E+00  0.00000000000E+00  0.18382799682E+02  0.18426617273E+02  0.12700000000E+01 0. -1.
          4   -1    0    0  502    0  0.00000000000E+00 -0.00000000000E+00 -0.33054078305E+03  0.33054322284E+03  0.12700000000E+01 0. -1.
         25    2    1    2    0    0  0.20259156236E+02  0.95593845936E+01 -0.29356829033E+03  0.31985984299E+03  0.12500465119E+03 0.  0.
    9000005    1    3    3    0    0  0.27119125670E+02  0.63031930019E+02 -0.20487009072E+03  0.21605838389E+03  0.10000000000E+01 0.  0.
    9000005    1    3    3    0    0 -0.68599694336E+01 -0.53472545426E+02 -0.88698199612E+02  0.10380145909E+03  0.10000000000E+01 0.  0.
         21    1    1    2  502  501 -0.20259156236E+02 -0.95593845936E+01 -0.18589693039E+02  0.29109997123E+02  0.00000000000E+00 0.  1.
<mgrwt>
<rscale>  1 0.12699598E+03</rscale>
<asrwt>0</asrwt>
<pdfrwt beam="2">  1        4 0.50855982E-01 0.12699598E+03</pdfrwt>
<pdfrwt beam="1">  1       -4 0.28316815E-02 0.12699598E+03</pdfrwt>
<totfact> 0.35715763E+03</totfact>
</mgrwt>
</event>
<event>
 6    4  0.2103460E-003  0.1285906E+03  0.7818608E-02  0.1229562E+00
          4   -1    0    0  502    0  0.00000000000E+00  0.00000000000E+00  0.14040353860E+02  0.14097674862E+02  0.12700000000E+01 0.  1.
         -4   -1    0    0    0  501 -0.00000000000E+00 -0.00000000000E+00 -0.45279483866E+03  0.45279661971E+03  0.12700000000E+01 0.  1.
         25    2    1    2    0    0  0.24546004338E+02 -0.17661721039E+02 -0.33535598310E+03  0.35916457317E+03  0.12498444903E+03 0.  0.
    9000005    1    3    3    0    0 -0.36950226355E+01  0.48047869784E+02 -0.20378136349E+03  0.20940414296E+03  0.10000000000E+01 0.  0.
    9000005    1    3    3    0    0  0.28241026973E+02 -0.65709590823E+02 -0.13157461961E+03  0.14976043021E+03  0.10000000000E+01 0.  0.
         21    1    1    2  502  501 -0.24546004338E+02  0.17661721039E+02 -0.10339850171E+03  0.10772972140E+03  0.00000000000E+00 0.  1.
<mgrwt>
<rscale>  1 0.12859065E+03</rscale>
<asrwt>0</asrwt>
<pdfrwt beam="1">  1        4 0.21646011E-02 0.12859065E+03</pdfrwt>
<pdfrwt beam="2">  1       -4 0.69665280E-01 0.12859065E+03</pdfrwt>
<totfact> 0.28110121E+03</totfact>
</mgrwt>
</event>
<event>
 6    4  0.2103460E-003  0.1319692E+03  0.7818608E-02  0.1224563E+00
         -4   -1    0    0    0  501 -0.00000000000E+00  0.00000000000E+00  0.88184180401E+03  0.88184271851E+03  0.12700000000E+01 0. -1.
          4   -1    0    0  502    0  0.00000000000E+00 -0.00000000000E+00 -0.92181673088E+01  0.93052409175E+01  0.12700000000E+01 0. -1.
         25    2    1    2    0    0 -0.12473199190E+02  0.40455801311E+02  0.74740384748E+03  0.75896532755E+03  0.12499441846E+03 0.  0.
    9000005    1    3    3    0    0 -0.44556585529E+02 -0.23060120741E+02  0.17179123422E+03  0.17897007190E+03  0.10000000000E+01 0.  0.
    9000005    1    3    3    0    0  0.32083386339E+02  0.63515922052E+02  0.57561261326E+03  0.57999525565E+03  0.10000000000E+01 0.  0.
         21    1    1    2  502  501  0.12473199190E+02 -0.40455801311E+02  0.12521978922E+03  0.13218263188E+03  0.00000000000E+00 0.  1.
<mgrwt>
<rscale>  1 0.13196915E+03</rscale>
<asrwt>0</asrwt>
<pdfrwt beam="2">  1        4 0.14249472E-02 0.13196915E+03</pdfrwt>
<pdfrwt beam="1">  1       -4 0.13567480E+00 0.13196915E+03</pdfrwt>
<totfact> 0.11580062E+03</totfact>
</mgrwt>
</event>
<event>
 6    4  0.2103460E-003  0.1288790E+03  0.7818608E-02  0.1229129E+00
          4   -1    0    0  502    0  0.00000000000E+00  0.00000000000E+00  0.75573944580E+03  0.75574051290E+03  0.12700000000E+01 0. -1.
         -4   -1    0    0    0  501 -0.00000000000E+00 -0.00000000000E+00 -0.23737653878E+02  0.23771603052E+02  0.12700000000E+01 0. -1.
         25    2    1    2    0    0 -0.14534476359E+02 -0.27813739412E+02  0.73660441476E+03  0.74779399432E+03  0.12499975599E+03 0.  0.
    9000005    1    3    3    0    0 -0.53389677300E+02 -0.58530674295E+02  0.46804379650E+03  0.47470232032E+03  0.10000000000E+01 0.  0.
    9000005    1    3    3    0    0  0.38855200941E+02  0.30716934883E+02  0.26856061826E+03  0.27309167400E+03  0.10000000000E+01 0.  0.
         21    1    1    2  502  501  0.14534476359E+02  0.27813739412E+02 -0.46026228329E+01  0.31718121635E+02  0.00000000000E+00 0. -1.
<mgrwt>
<rscale>  1 0.12887899E+03</rscale>
<asrwt>0</asrwt>
<pdfrwt beam="1">  1        4 0.11627030E+00 0.12887899E+03</pdfrwt>
<pdfrwt beam="2">  1       -4 0.36546402E-02 0.12887899E+03</pdfrwt>
<totfact> 0.38992826E+02</totfact>
</mgrwt>
</event>
<event>
 6    4  0.2103460E-003  0.1277118E+03  0.7818608E-02  0.1230891E+00
          4   -1    0    0  502    0  0.00000000000E+00  0.00000000000E+00  0.11638422295E+04  0.11638429224E+04  0.12700000000E+01 0. -1.
         -4   -1    0    0    0  501 -0.00000000000E+00 -0.00000000000E+00 -0.53080216490E+01  0.54578378344E+01  0.12700000000E+01 0. -1.
         25    2    1    2    0    0  0.24407137855E+02  0.94912485333E+01  0.10455693910E+04  0.10533402410E+04  0.12499807903E+03 0.  0.
    9000005    1    3    3    0    0  0.32591650243E+02  0.51191516937E+02  0.27586086460E+03  0.28245885309E+03  0.10000000000E+01 0.  0.
    9000005    1    3    3    0    0 -0.81845123882E+01 -0.41700268404E+02  0.76970852639E+03  0.77088138791E+03  0.10000000000E+01 0.  0.
         21    1    1    2  502  501 -0.24407137855E+02 -0.94912485333E+01  0.11296481684E+03  0.11596051924E+03  0.00000000000E+00 0. -1.
<mgrwt>
<rscale>  1 0.12771183E+03</rscale>
<asrwt>0</asrwt>
<pdfrwt beam="1">  1        4 0.17906425E+00 0.12771183E+03</pdfrwt>
<pdfrwt beam="2">  1       -4 0.82819625E-03 0.12771183E+03</pdfrwt>
<totfact> 0.12734013E+03</totfact>
</mgrwt>
</event>
<event>
 6    4  0.2103460E-003  0.1272043E+03  0.7818608E-02  0.1231664E+00
          4   -1    0    0  502    0  0.00000000000E+00  0.00000000000E+00  0.34701699703E+02  0.34724931422E+02  0.12700000000E+01 0. -1.
         -4   -1    0    0    0  501 -0.00000000000E+00 -0.00000000000E+00 -0.96228925150E+03  0.96229008955E+03  0.12700000000E+01 0. -1.
         25    2    1    2    0    0  0.15052512826E+02  0.18138061899E+02 -0.82536102775E+02  0.15163491775E+03  0.12500149034E+03 0.  0.
    9000005    1    3    3    0    0 -0.54369035275E+02  0.11191820887E+02 -0.23702156838E+02  0.60365893435E+02  0.10000000000E+01 0.  0.
    9000005    1    3    3    0    0  0.69421548102E+02  0.69462410129E+01 -0.58833945937E+02  0.91269024316E+02  0.10000000000E+01 0.  0.
         21    1    1    2  502  501 -0.15052512826E+02 -0.18138061899E+02 -0.84505144902E+03  0.84538010322E+03  0.00000000000E+00 0. -1.
<mgrwt>
<rscale>  1 0.12720432E+03</rscale>
<asrwt>0</asrwt>
<pdfrwt beam="1">  1        4 0.53405753E-02 0.12720432E+03</pdfrwt>
<pdfrwt beam="2">  1       -4 0.14804633E+00 0.12720432E+03</pdfrwt>
<totfact> 0.11742381E+02</totfact>
</mgrwt>
</event>
<event>
 6    4  0.2103460E-003  0.1300899E+03  0.7818608E-02  0.1227322E+00
         -4   -1    0    0    0  501 -0.00000000000E+00  0.00000000000E+00  0.54494255919E+02  0.54509052718E+02  0.12700000000E+01 0.  1.
          4   -1    0    0  502    0  0.00000000000E+00 -0.00000000000E+00 -0.12675270631E+03  0.12675906854E+03  0.12700000000E+01 0.  1.
         25    2    1    2    0    0  0.30999237681E+02  0.18361890004E+02 -0.59443726045E+02  0.14302771198E+03  0.12500103235E+03 0.  0.
    9000005    1    3    3    0    0  0.21278396235E+02 -0.48341472912E+02  0.48106451622E+00  0.52828965281E+02  0.10000000000E+01 0.  0.
    9000005    1    3    3    0    0  0.97208414456E+01  0.66703362916E+02 -0.59924790561E+02  0.90198746701E+02  0.10000000000E+01 0.  0.
         21    1    1    2  502  501 -0.30999237681E+02 -0.18361890004E+02 -0.12814724344E+02  0.38240409272E+02  0.00000000000E+00 0.  1.
<mgrwt>
<rscale>  1 0.13008985E+03</rscale>
<asrwt>0</asrwt>
<pdfrwt beam="2">  1        4 0.19502044E-01 0.13008985E+03</pdfrwt>
<pdfrwt beam="1">  1       -4 0.83853593E-02 0.13008985E+03</pdfrwt>
<totfact> 0.39030889E+03</totfact>
</mgrwt>
</event>
<event>
 6    4  0.2103460E-003  0.1272322E+03  0.7818608E-02  0.1231621E+00
         -4   -1    0    0    0  501 -0.00000000000E+00  0.00000000000E+00  0.23066459058E+02  0.23101394622E+02  0.12700000000E+01 0. -1.
          4   -1    0    0  502    0  0.00000000000E+00 -0.00000000000E+00 -0.25900234091E+03  0.25900545457E+03  0.12700000000E+01 0. -1.
         25    2    1    2    0    0  0.10129714449E+02 -0.21461681215E+02 -0.21779482479E+03  0.25223524350E+03  0.12499926993E+03 0.  0.
    9000005    1    3    3    0    0  0.14101945051E+02  0.50313145643E+02 -0.11974981493E+03  0.13065716840E+03  0.10000000000E+01 0.  0.
    9000005    1    3    3    0    0 -0.39722306017E+01 -0.71774826857E+02 -0.98045009858E+02  0.12157807510E+03  0.10000000000E+01 0.  0.
         21    1    1    2  502  501 -0.10129714449E+02  0.21461681215E+02 -0.18141057067E+02  0.29871605697E+02  0.00000000000E+00 0. -1.
<mgrwt>
<rscale>  1 0.12723220E+03</rscale>
<asrwt>0</asrwt>
<pdfrwt beam="2">  1        4 0.39849439E-01 0.12723220E+03</pdfrwt>
<pdfrwt beam="1">  1       -4 0.35516131E-02 0.12723220E+03</pdfrwt>
<totfact> 0.40804553E+03</totfact>
</mgrwt>
</event>
<event>
 6    4  0.2103460E-003  0.1379939E+03  0.7818608E-02  0.1216054E+00
         -4   -1    0    0    0  501 -0.00000000000E+00  0.00000000000E+00  0.76648251603E+02  0.76658772321E+02  0.12700000000E+01 0. -1.
          4   -1    0    0  502    0  0.00000000000E+00 -0.00000000000E+00 -0.13711718641E+03  0.13712306775E+03  0.12700000000E+01 0. -1.
         25    2    1    2    0    0  0.58044888805E+02 -0.69945410507E+01 -0.69692147249E+02  0.15459400036E+03  0.12499670731E+03 0.  0.
    9000005    1    3    3    0    0  0.64362916850E+02 -0.15253930291E+02  0.16168159248E+02  0.68100490661E+02  0.10000000000E+01 0.  0.
    9000005    1    3    3    0    0 -0.63180280451E+01  0.82593892405E+01 -0.85860306497E+02  0.86493509703E+02  0.10000000000E+01 0.  0.
         21    1    1    2  502  501 -0.58044888805E+02  0.69945410507E+01  0.92232124452E+01  0.59187839703E+02  0.00000000000E+00 0. -1.
<mgrwt>
<rscale>  1 0.13799388E+03</rscale>
<asrwt>0</asrwt>
<pdfrwt beam="2">  1        4 0.21096213E-01 0.13799388E+03</pdfrwt>
<pdfrwt beam="1">  1       -4 0.11793300E-01 0.13799388E+03</pdfrwt>
<totfact> 0.19338371E+03</totfact>
</mgrwt>
</event>
<event>
 6    4  0.2103460E-003  0.1290065E+03  0.7818608E-02  0.1228937E+00
         -4   -1    0    0    0  501 -0.00000000000E+00  0.00000000000E+00  0.90014880045E+02  0.90023838673E+02  0.12700000000E+01 0.  1.
          4   -1    0    0  502    0  0.00000000000E+00 -0.00000000000E+00 -0.77200689546E+02  0.77211134990E+02  0.12700000000E+01 0.  1.
         25    2    1    2    0    0 -0.24676737577E+02  0.20221944547E+02 -0.78140563972E+01  0.12924296149E+03  0.12499926080E+03 0.  0.
    9000005    1    3    3    0    0 -0.56169705188E+02  0.21086988420E+02  0.39897822965E+02  0.72059233544E+02  0.10000000000E+01 0.  0.
    9000005    1    3    3    0    0  0.31492967612E+02 -0.86504387264E+00 -0.47711879363E+02  0.57183727950E+02  0.10000000000E+01 0.  0.
         21    1    1    2  502  501  0.24676737577E+02 -0.20221944547E+02  0.20628246896E+02  0.37992012169E+02  0.00000000000E+00 0.  1.
<mgrwt>
<rscale>  1 0.12900653E+03</rscale>
<asrwt>0</asrwt>
<pdfrwt beam="2">  1        4 0.11878522E-01 0.12900653E+03</pdfrwt>
<pdfrwt beam="1">  1       -4 0.13849936E-01 0.12900653E+03</pdfrwt>
<totfact> 0.39591734E+03</totfact>
</mgrwt>
</event>
<event>
 6    4  0.2103460E-003  0.1330177E+03  0.7818608E-02  0.1223045E+00
          4   -1    0    0  502    0  0.00000000000E+00  0.00000000000E+00  0.21503969746E+04  0.21503973496E+04  0.12700000000E+01 0.  1.
         -4   -1    0    0    0  501 -0.00000000000E+00 -0.00000000000E+00 -0.42702421849E+01  0.44550946475E+01  0.12700000000E+01 0.  1.
         25    2    1    2    0    0 -0.42551010675E+02 -0.16063097140E+02  0.18933265244E+04  0.18979934230E+04  0.12500037770E+03 0.  0.
    9000005    1    3    3    0    0  0.42821338635E+02 -0.62681199807E+01  0.86483910930E+03  0.86592184482E+03  0.10000000000E+01 0.  0.
    9000005    1    3    3    0    0 -0.85372349310E+02 -0.97949771592E+01  0.10284874151E+04  0.10320715782E+04  0.10000000000E+01 0.  0.
         21    1    1    2  502  501  0.42551010675E+02  0.16063097140E+02  0.25280020800E+03  0.25685902118E+03  0.00000000000E+00 0.  1.
<mgrwt>
<rscale>  1 0.13301769E+03</rscale>
<asrwt>0</asrwt>
<pdfrwt beam="1">  1        4 0.33084526E+00 0.13301769E+03</pdfrwt>
<pdfrwt beam="2">  1       -4 0.67120717E-03 0.13301769E+03</pdfrwt>
<totfact> 0.22211639E+02</totfact>
</mgrwt>
</event>
<event>
 6    4  0.2103460E-003  0.1400188E+03  0.7818608E-02  0.1213304E+00
          4   -1    0    0  502    0  0.00000000000E+00  0.00000000000E+00  0.11658994537E+03  0.11659686214E+03  0.12700000000E+01 0. -1.
         -4   -1    0    0    0  501 -0.00000000000E+00 -0.00000000000E+00 -0.88476516866E+02  0.88485631245E+02  0.12700000000E+01 0. -1.
         25    2    1    2    0    0  0.20031253221E+02 -0.59829380009E+02  0.17643810319E+02  0.14112611198E+03  0.12499787847E+03 0.  0.
    9000005    1    3    3    0    0 -0.14458556422E+02 -0.73219197455E+02 -0.30302504579E+02  0.80556455443E+02  0.10000000000E+01 0.  0.
    9000005    1    3    3    0    0  0.34489809643E+02  0.13389817446E+02  0.47946314898E+02  0.60569656535E+02  0.10000000000E+01 0.  0.
         21    1    1    2  502  501 -0.20031253221E+02  0.59829380009E+02  0.10469618184E+02  0.63956381408E+02  0.00000000000E+00 0. -1.
<mgrwt>
<rscale>  1 0.14001884E+03</rscale>
<asrwt>0</asrwt>
<pdfrwt beam="1">  1        4 0.17938148E-01 0.14001884E+03</pdfrwt>
<pdfrwt beam="2">  1       -4 0.13613005E-01 0.14001884E+03</pdfrwt>
<totfact> 0.20277611E+03</totfact>
</mgrwt>
</event>
<event>
 6    4  0.2103460E-003  0.1282765E+03  0.7818608E-02  0.1230036E+00
         -4   -1    0    0    0  501 -0.00000000000E+00  0.00000000000E+00  0.23977778454E+02  0.24011388123E+02  0.12700000000E+01 0.  1.
          4   -1    0    0  502    0  0.00000000000E+00 -0.00000000000E+00 -0.29335083586E+03  0.29335358494E+03  0.12700000000E+01 0.  1.
         25    2    1    2    0    0  0.13026532943E+02  0.25761894628E+02 -0.25424662694E+03  0.28477395170E+03  0.12498596113E+03 0.  0.
    9000005    1    3    3    0    0  0.63507838756E+02  0.10144227684E+02 -0.79788052223E+02  0.10248553174E+03  0.10000000000E+01 0.  0.
    9000005    1    3    3    0    0 -0.50481305813E+02  0.15617666944E+02 -0.17445857472E+03  0.18228841996E+03  0.10000000000E+01 0.  0.
         21    1    1    2  502  501 -0.13026532943E+02 -0.25761894628E+02 -0.15126430464E+02  0.32591021370E+02  0.00000000000E+00 0. -1.
<mgrwt>
<rscale>  1 0.12827648E+03</rscale>
<asrwt>0</asrwt>
<pdfrwt beam="2">  1        4 0.45133692E-01 0.12827648E+03</pdfrwt>
<pdfrwt beam="1">  1       -4 0.36916860E-02 0.12827648E+03</pdfrwt>
<totfact> 0.30049489E+03</totfact>
</mgrwt>
</event>
<event>
 6    4  0.2103460E-003  0.1588810E+03  0.7818608E-02  0.1189966E+00
         -4   -1    0    0    0  501 -0.00000000000E+00  0.00000000000E+00  0.19447668612E+02  0.19489092191E+02  0.12700000000E+01 0. -1.
          4   -1    0    0  502    0  0.00000000000E+00 -0.00000000000E+00 -0.11461544770E+04  0.11461551806E+04  0.12700000000E+01 0. -1.
         25    2    1    2    0    0  0.59365979936E+02 -0.78133010535E+02 -0.95285940291E+03  0.96601459740E+03  0.12495628746E+03 0.  0.
    9000005    1    3    3    0    0 -0.26530609616E+02 -0.67231999544E+02 -0.43748856906E+03  0.44341996241E+03  0.10000000000E+01 0.  0.
    9000005    1    3    3    0    0  0.85896589552E+02 -0.10901010991E+02 -0.51537083385E+03  0.52259463499E+03  0.10000000000E+01 0.  0.
         21    1    1    2  502  501 -0.59365979936E+02  0.78133010535E+02 -0.17384740549E+03  0.19962967541E+03  0.00000000000E+00 0. -1.
<mgrwt>
<rscale>  1 0.15888096E+03</rscale>
<asrwt>0</asrwt>
<pdfrwt beam="2">  1        4 0.17633465E+00 0.15888096E+03</pdfrwt>
<pdfrwt beam="1">  1       -4 0.29951905E-02 0.15888096E+03</pdfrwt>
<totfact> 0.19297337E+02</totfact>
</mgrwt>
</event>
<event>
 6    4  0.2103460E-003  0.1403738E+03  0.7818608E-02  0.1212827E+00
          4   -1    0    0  502    0  0.00000000000E+00  0.00000000000E+00  0.24832748031E+03  0.24833072781E+03  0.12700000000E+01 0.  1.
         -4   -1    0    0    0  501 -0.00000000000E+00 -0.00000000000E+00 -0.46651763738E+02  0.46669047128E+02  0.12700000000E+01 0.  1.
         25    2    1    2    0    0  0.46829868733E+02  0.43429537926E+02  0.17843874164E+03  0.22703567873E+03  0.12500261408E+03 0.  0.
    9000005    1    3    3    0    0  0.39778812305E+02 -0.39110816926E+02  0.54790911334E+02  0.78198809926E+02  0.10000000000E+01 0.  0.
    9000005    1    3    3    0    0  0.70510564288E+01  0.82540354851E+02  0.12364783030E+03  0.14883686880E+03  0.10000000000E+01 0.  0.
         21    1    1    2  502  501 -0.46829868733E+02 -0.43429537926E+02  0.23236974931E+02  0.67964096213E+02  0.00000000000E+00 0. -1.
<mgrwt>
<rscale>  1 0.14037384E+03</rscale>
<asrwt>0</asrwt>
<pdfrwt beam="1">  1        4 0.38205808E-01 0.14037384E+03</pdfrwt>
<pdfrwt beam="2">  1       -4 0.71787735E-02 0.14037384E+03</pdfrwt>
<totfact> 0.14607673E+03</totfact>
</mgrwt>
</event>
<event>
 6    4  0.2103460E-003  0.1282522E+03  0.7818608E-02  0.1230072E+00
          4   -1    0    0  502    0  0.00000000000E+00  0.00000000000E+00  0.40418711811E+03  0.40418911335E+03  0.12700000000E+01 0.  1.
         -4   -1    0    0    0  501 -0.00000000000E+00 -0.00000000000E+00 -0.16147285537E+02  0.16197151917E+02  0.12700000000E+01 0.  1.
         25    2    1    2    0    0 -0.28233266710E+02  0.52135493471E+01  0.34978335808E+03  0.37255472456E+03  0.12499730697E+03 0.  0.
    9000005    1    3    3    0    0  0.45409576502E+00  0.63368606607E+02  0.16954353184E+03  0.18100219804E+03  0.10000000000E+01 0.  0.
    9000005    1    3    3    0    0 -0.28687362475E+02 -0.58155057260E+02  0.18023982625E+03  0.19155252652E+03  0.10000000000E+01 0.  0.
         21    1    1    2  502  501  0.28233266710E+02 -0.52135493471E+01  0.38256474493E+02  0.47831540709E+02  0.00000000000E+00 0.  1.
<mgrwt>
<rscale>  1 0.12825219E+03</rscale>
<asrwt>0</asrwt>
<pdfrwt beam="1">  1        4 0.62186619E-01 0.12825219E+03</pdfrwt>
<pdfrwt beam="2">  1       -4 0.24881873E-02 0.12825219E+03</pdfrwt>
<totfact> 0.28845132E+03</totfact>
</mgrwt>
</event>
<event>
 6    4  0.2103460E-003  0.1532876E+03  0.7818608E-02  0.1196490E+00
         -4   -1    0    0    0  501 -0.00000000000E+00  0.00000000000E+00  0.11504528173E+03  0.11505229137E+03  0.12700000000E+01 0.  1.
          4   -1    0    0  502    0  0.00000000000E+00 -0.00000000000E+00 -0.12820286346E+03  0.12820915373E+03  0.12700000000E+01 0.  1.
         25    2    1    2    0    0  0.85611288942E+02 -0.23293185150E+02 -0.18373200596E+02  0.15438474427E+03  0.12500083798E+03 0.  0.
    9000005    1    3    3    0    0  0.74555345321E+02  0.29416167438E+02 -0.47475914286E+02  0.93159931623E+02  0.10000000000E+01 0.  0.
    9000005    1    3    3    0    0  0.11055943620E+02 -0.52709352589E+02  0.29102713689E+02  0.61224812647E+02  0.10000000000E+01 0.  0.
         21    1    1    2  502  501 -0.85611288942E+02  0.23293185150E+02  0.52156188667E+01  0.88876700821E+02  0.00000000000E+00 0.  1.
<mgrwt>
<rscale>  1 0.15328756E+03</rscale>
<asrwt>0</asrwt>
<pdfrwt beam="2">  1        4 0.19724541E-01 0.15328756E+03</pdfrwt>
<pdfrwt beam="1">  1       -4 0.17700297E-01 0.15328756E+03</pdfrwt>
<totfact> 0.11001463E+03</totfact>
</mgrwt>
</event>
<event>
 6    4  0.2103460E-003  0.1472079E+03  0.7818608E-02  0.1203946E+00
         -4   -1    0    0    0  501 -0.00000000000E+00  0.00000000000E+00  0.95253094127E+02  0.95261560142E+02  0.12700000000E+01 0. -1.
          4   -1    0    0  502    0  0.00000000000E+00 -0.00000000000E+00 -0.16844299612E+03  0.16844778372E+03  0.12700000000E+01 0. -1.
         25    2    1    2    0    0  0.30672363371E+02 -0.71452623593E+02 -0.10382082078E+03  0.18013587631E+03  0.12499559917E+03 0.  0.
    9000005    1    3    3    0    0  0.66934139532E+02 -0.19460967480E+02 -0.15495925373E+02  0.71414508283E+02  0.10000000000E+01 0.  0.
    9000005    1    3    3    0    0 -0.36261776161E+02 -0.51991656113E+02 -0.88324895411E+02  0.10872136802E+03  0.10000000000E+01 0.  0.
         21    1    1    2  502  501 -0.30672363371E+02  0.71452623593E+02  0.30630918795E+02  0.83573467556E+02  0.00000000000E+00 0. -1.
<mgrwt>
<rscale>  1 0.14720792E+03</rscale>
<asrwt>0</asrwt>
<pdfrwt beam="2">  1        4 0.25915327E-01 0.14720792E+03</pdfrwt>
<pdfrwt beam="1">  1       -4 0.14655342E-01 0.14720792E+03</pdfrwt>
<totfact> 0.92381548E+02</totfact>
</mgrwt>
</event>
<event>
 6    4  0.2103460E-003  0.1292021E+03  0.7818608E-02  0.1228644E+00
         -4   -1    0    0    0  501 -0.00000000000E+00  0.00000000000E+00  0.47484895158E+03  0.47485064991E+03  0.12700000000E+01 0. -1.
          4   -1    0    0  502    0  0.00000000000E+00 -0.00000000000E+00 -0.13772195408E+02  0.13830627837E+02  0.12700000000E+01 0. -1.
         25    2    1    2    0    0  0.10082386814E+02  0.31096607913E+02  0.37145612842E+03  0.39328468207E+03  0.12499812903E+03 0.  0.
    9000005    1    3    3    0    0  0.39981779104E+02 -0.20242891148E+02  0.28422824099E+03  0.28774122103E+03  0.10000000000E+01 0.  0.
    9000005    1    3    3    0    0 -0.29899392290E+02  0.51339499061E+02  0.87227887433E+02  0.10554346104E+03  0.10000000000E+01 0.  0.
         21    1    1    2  502  501 -0.10082386814E+02 -0.31096607913E+02  0.89620627751E+02  0.95396595674E+02  0.00000000000E+00 0.  1.
<mgrwt>
<rscale>  1 0.12920211E+03</rscale>
<asrwt>0</asrwt>
<pdfrwt beam="2">  1        4 0.21234248E-02 0.12920211E+03</pdfrwt>
<pdfrwt beam="1">  1       -4 0.73058308E-01 0.12920211E+03</pdfrwt>
<totfact> 0.26155261E+03</totfact>
</mgrwt>
</event>
<event>
 6    4  0.2103460E-003  0.1272768E+03  0.7818608E-02  0.1231553E+00
          4   -1    0    0  502    0  0.00000000000E+00  0.00000000000E+00  0.72909334673E+03  0.72909445282E+03  0.12700000000E+01 0.  1.
         -4   -1    0    0    0  501 -0.00000000000E+00 -0.00000000000E+00 -0.13988900463E+02  0.14046431439E+02  0.12700000000E+01 0.  1.
         25    2    1    2    0    0 -0.22278201823E+02  0.87001299892E+01  0.70626687641E+03  0.71764356716E+03  0.12500951262E+03 0.  0.
    9000005    1    3    3    0    0  0.64898559158E+01  0.53955834917E+02  0.54473640012E+03  0.54744140870E+03  0.10000000000E+01 0.  0.
    9000005    1    3    3    0    0 -0.28768057739E+02 -0.45255704928E+02  0.16153047629E+03  0.17020215846E+03  0.10000000000E+01 0.  0.
         21    1    1    2  502  501  0.22278201823E+02 -0.87001299892E+01  0.88375698568E+01  0.25497317100E+02  0.00000000000E+00 0.  1.
<mgrwt>
<rscale>  1 0.12727682E+03</rscale>
<asrwt>0</asrwt>
<pdfrwt beam="1">  1        4 0.11217269E+00 0.12727682E+03</pdfrwt>
<pdfrwt beam="2">  1       -4 0.21566496E-02 0.12727682E+03</pdfrwt>
<totfact> 0.96421408E+02</totfact>
</mgrwt>
</event>
<event>
 6    4  0.2103460E-003  0.1271590E+03  0.7818608E-02  0.1231733E+00
          4   -1    0    0  502    0  0.00000000000E+00  0.00000000000E+00  0.16380018539E+03  0.16380510870E+03  0.12700000000E+01 0. -1.
         -4   -1    0    0    0  501 -0.00000000000E+00 -0.00000000000E+00 -0.36488829509E+02  0.36510924104E+02  0.12700000000E+01 0. -1.
         25    2    1    2    0    0 -0.20787366940E+02 -0.10586978349E+02  0.12235806552E+03  0.17646789199E+03  0.12500088787E+03 0.  0.
    9000005    1    3    3    0    0  0.22711524957E+02  0.40607761104E+02  0.91242959944E+02  0.10242597994E+03  0.10000000000E+01 0.  0.
    9000005    1    3    3    0    0 -0.43498891898E+02 -0.51194739452E+02  0.31115105578E+02  0.74041912043E+02  0.10000000000E+01 0.  0.
         21    1    1    2  502  501  0.20787366940E+02  0.10586978349E+02  0.49532903627E+01  0.23848140814E+02  0.00000000000E+00 0. -1.
<mgrwt>
<rscale>  1 0.12715904E+03</rscale>
<asrwt>0</asrwt>
<pdfrwt beam="1">  1        4 0.25202107E-01 0.12715904E+03</pdfrwt>
<pdfrwt beam="2">  1       -4 0.56157443E-02 0.12715904E+03</pdfrwt>
<totfact> 0.46950524E+03</totfact>
</mgrwt>
</event>
<event>
 6    4  0.2103460E-003  0.1314564E+03  0.7818608E-02  0.1225311E+00
          4   -1    0    0  502    0  0.00000000000E+00  0.00000000000E+00  0.45977422732E+02  0.45994959518E+02  0.12700000000E+01 0.  1.
         -4   -1    0    0    0  501 -0.00000000000E+00 -0.00000000000E+00 -0.38278854484E+03  0.38279065161E+03  0.12700000000E+01 0.  1.
         25    2    1    2    0    0  0.69058899427E+01 -0.40095900385E+02 -0.52458253730E+02  0.14153671853E+03  0.12500160705E+03 0.  0.
    9000005    1    3    3    0    0 -0.26852008529E+02 -0.49235518775E+02  0.21222157589E+02  0.59971215127E+02  0.10000000000E+01 0.  0.
    9000005    1    3    3    0    0  0.33757898472E+02  0.91396183896E+01 -0.73680411319E+02  0.81565503404E+02  0.10000000000E+01 0.  0.
         21    1    1    2  502  501 -0.69058899427E+01  0.40095900385E+02 -0.28435286838E+03  0.28724889260E+03  0.00000000000E+00 0.  1.
<mgrwt>
<rscale>  1 0.13145636E+03</rscale>
<asrwt>0</asrwt>
<pdfrwt beam="1">  1        4 0.70749609E-02 0.13145636E+03</pdfrwt>
<pdfrwt beam="2">  1       -4 0.58892054E-01 0.13145636E+03</pdfrwt>
<totfact> 0.61554420E+02</totfact>
</mgrwt>
</event>
<event>
 6    4  0.2103460E-003  0.1289444E+03  0.7818608E-02  0.1229031E+00
          4   -1    0    0  502    0  0.00000000000E+00  0.00000000000E+00  0.11089084128E+03  0.11089811351E+03  0.12700000000E+01 0.  1.
         -4   -1    0    0    0  501 -0.00000000000E+00 -0.00000000000E+00 -0.10736830759E+03  0.10737581839E+03  0.12700000000E+01 0.  1.
         25    2    1    2    0    0  0.25018672143E+02  0.19544417017E+02  0.68460020693E+02  0.14599118561E+03  0.12497493209E+03 0.  0.
    9000005    1    3    3    0    0 -0.13655756398E+02  0.64945589621E+02  0.20543124672E+02  0.69479703981E+02  0.10000000000E+01 0.  0.
    9000005    1    3    3    0    0  0.38674428541E+02 -0.45401172604E+02  0.47916896021E+02  0.76511481629E+02  0.10000000000E+01 0.  0.
         21    1    1    2  502  501 -0.25018672143E+02 -0.19544417017E+02 -0.64937487005E+02  0.72282746288E+02  0.00000000000E+00 0.  1.
<mgrwt>
<rscale>  1 0.12894437E+03</rscale>
<asrwt>0</asrwt>
<pdfrwt beam="1">  1        4 0.17061266E-01 0.12894437E+03</pdfrwt>
<pdfrwt beam="2">  1       -4 0.16519338E-01 0.12894437E+03</pdfrwt>
<totfact> 0.15522547E+03</totfact>
</mgrwt>
</event>
<event>
 6    4  0.2103460E-003  0.1295744E+03  0.7818608E-02  0.1228089E+00
         -4   -1    0    0    0  501 -0.00000000000E+00  0.00000000000E+00  0.13719707282E+03  0.13720295073E+03  0.12700000000E+01 0. -1.
          4   -1    0    0  502    0  0.00000000000E+00 -0.00000000000E+00 -0.52882322947E+02  0.52897570646E+02  0.12700000000E+01 0. -1.
         25    2    1    2    0    0 -0.30672114161E+02  0.14952228821E+02  0.43014318071E+02  0.13652745538E+03  0.12500066712E+03 0.  0.
    9000005    1    3    3    0    0  0.17087717500E+02 -0.42759549521E+02 -0.68036495642E+01  0.46558122943E+02  0.10000000000E+01 0.  0.
    9000005    1    3    3    0    0 -0.47759831661E+02  0.57711778342E+02  0.49817967635E+02  0.89969332436E+02  0.10000000000E+01 0.  0.
         21    1    1    2  502  501  0.30672114161E+02 -0.14952228821E+02  0.41300431799E+02  0.53573066000E+02  0.00000000000E+00 0. -1.
<mgrwt>
<rscale>  1 0.12957436E+03</rscale>
<asrwt>0</asrwt>
<pdfrwt beam="2">  1        4 0.81373671E-02 0.12957436E+03</pdfrwt>
<pdfrwt beam="1">  1       -4 0.21108867E-01 0.12957436E+03</pdfrwt>
<totfact> 0.35539543E+03</totfact>
</mgrwt>
</event>
<event>
 6    4  0.2103460E-003  0.1481348E+03  0.7818608E-02  0.1202784E+00
          4   -1    0    0  502    0  0.00000000000E+00  0.00000000000E+00  0.58446421913E+03  0.58446559894E+03  0.12700000000E+01 0. -1.
         -4   -1    0    0    0  501 -0.00000000000E+00 -0.00000000000E+00 -0.23993109182E+02  0.24026697405E+02  0.12700000000E+01 0. -1.
         25    2    1    2    0    0  0.79451087979E+02 -0.25574175153E+01  0.43902829493E+03  0.46334625581E+03  0.12499957301E+03 0.  0.
    9000005    1    3    3    0    0  0.60233319440E+02 -0.25670616649E+01  0.43996709820E+03  0.44407959880E+03  0.10000000000E+01 0.  0.
    9000005    1    3    3    0    0  0.19217768539E+02  0.96441495655E-02 -0.93880326168E+00  0.19266657006E+02  0.10000000000E+01 0.  0.
         21    1    1    2  502  501 -0.79451087979E+02  0.25574175153E+01  0.12144281502E+03  0.14514604054E+03  0.00000000000E+00 0. -1.
<mgrwt>
<rscale>  1 0.14813477E+03</rscale>
<asrwt>0</asrwt>
<pdfrwt beam="1">  1        4 0.89920261E-01 0.14813477E+03</pdfrwt>
<pdfrwt beam="2">  1       -4 0.36939374E-02 0.14813477E+03</pdfrwt>
<totfact> 0.71527308E+02</totfact>
</mgrwt>
</event>
<event>
 6    4  0.2103460E-003  0.1322024E+03  0.7818608E-02  0.1224224E+00
          4   -1    0    0  502    0  0.00000000000E+00  0.00000000000E+00  0.42639700363E+02  0.42658609296E+02  0.12700000000E+01 0.  1.
         -4   -1    0    0    0  501 -0.00000000000E+00 -0.00000000000E+00 -0.21848075569E+03  0.21848444683E+03  0.12700000000E+01 0.  1.
         25    2    1    2    0    0 -0.27323813176E+02 -0.33240255676E+02 -0.76158401614E+02  0.15256986968E+03  0.12500383048E+03 0.  0.
    9000005    1    3    3    0    0 -0.49018708142E+02 -0.43099058439E+02 -0.99627047465E+02  0.11910882072E+03  0.10000000000E+01 0.  0.
    9000005    1    3    3    0    0  0.21694894967E+02  0.98588027627E+01  0.23468645851E+02  0.33461048961E+02  0.10000000000E+01 0.  0.
         21    1    1    2  502  501  0.27323813176E+02  0.33240255676E+02 -0.99682653712E+02  0.10857318645E+03  0.00000000000E+00 0.  1.
<mgrwt>
<rscale>  1 0.13220236E+03</rscale>
<asrwt>0</asrwt>
<pdfrwt beam="1">  1        4 0.65616925E-02 0.13220236E+03</pdfrwt>
<pdfrwt beam="2">  1       -4 0.33614162E-01 0.13220236E+03</pdfrwt>
<totfact> 0.21408962E+03</totfact>
</mgrwt>
</event>
<event>
 6    4  0.2103460E-003  0.1274700E+03  0.7818608E-02  0.1231259E+00
         -4   -1    0    0    0  501 -0.00000000000E+00  0.00000000000E+00  0.36767639051E+03  0.36767858387E+03  0.12700000000E+01 0. -1.
          4   -1    0    0  502    0  0.00000000000E+00 -0.00000000000E+00 -0.16542014095E+02  0.16590694088E+02  0.12700000000E+01 0. -1.
         25    2    1    2    0    0 -0.16827078341E+01  0.24881956019E+02  0.25683277059E+03  0.28672576920E+03  0.12500660555E+03 0.  0.
    9000005    1    3    3    0    0  0.43964433328E+02  0.40903023699E+02  0.21344954895E+03  0.22173777011E+03  0.10000000000E+01 0.  0.
    9000005    1    3    3    0    0 -0.45647141162E+02 -0.16021067680E+02  0.43383221646E+02  0.64987999094E+02  0.10000000000E+01 0.  0.
         21    1    1    2  502  501  0.16827078341E+01 -0.24881956019E+02  0.94301605818E+02  0.97543508758E+02  0.00000000000E+00 0. -1.
<mgrwt>
<rscale>  1 0.12746998E+03</rscale>
<asrwt>0</asrwt>
<pdfrwt beam="2">  1        4 0.25488387E-02 0.12746998E+03</pdfrwt>
<pdfrwt beam="1">  1       -4 0.56569510E-01 0.12746998E+03</pdfrwt>
<totfact> 0.33825767E+03</totfact>
</mgrwt>
</event>
<event>
 6    4  0.2103460E-003  0.1296211E+03  0.7818608E-02  0.1228019E+00
          4   -1    0    0  502    0  0.00000000000E+00  0.00000000000E+00  0.53174328553E+02  0.53189492544E+02  0.12700000000E+01 0. -1.
         -4   -1    0    0    0  501 -0.00000000000E+00 -0.00000000000E+00 -0.41059502603E+03  0.41059699012E+03  0.12700000000E+01 0. -1.
         25    2    1    2    0    0  0.28051994925E+02 -0.19736261275E+02 -0.28032923317E+02  0.13261773385E+03  0.12500073645E+03 0.  0.
    9000005    1    3    3    0    0  0.38111864077E+02  0.40994839872E+02  0.14448115504E+02  0.57817290850E+02  0.10000000000E+01 0.  0.
    9000005    1    3    3    0    0 -0.10059869152E+02 -0.60731101147E+02 -0.42481038822E+02  0.74800443002E+02  0.10000000000E+01 0.  0.
         21    1    1    2  502  501 -0.28051994925E+02  0.19736261275E+02 -0.32938777416E+03  0.33116874882E+03  0.00000000000E+00 0. -1.
<mgrwt>
<rscale>  1 0.12962106E+03</rscale>
<asrwt>0</asrwt>
<pdfrwt beam="1">  1        4 0.81819837E-02 0.12962106E+03</pdfrwt>
<pdfrwt beam="2">  1       -4 0.63169781E-01 0.12962106E+03</pdfrwt>
<totfact> 0.41668236E+02</totfact>
</mgrwt>
</event>
<event>
 6    4  0.2103460E-003  0.1279847E+03  0.7818608E-02  0.1230477E+00
          4   -1    0    0  502    0  0.00000000000E+00  0.00000000000E+00  0.18312964213E+02  0.18356948501E+02  0.12700000000E+01 0.  1.
         -4   -1    0    0    0  501 -0.00000000000E+00 -0.00000000000E+00 -0.35176856090E+03  0.35177085345E+03  0.12700000000E+01 0.  1.
         25    2    1    2    0    0  0.26738065345E+02 -0.63416742130E+01 -0.30400852089E+03  0.32985037350E+03  0.12499978860E+03 0.  0.
    9000005    1    3    3    0    0  0.17723070822E+02  0.39136614919E+02 -0.26722764492E+03  0.27066103539E+03  0.10000000000E+01 0.  0.
    9000005    1    3    3    0    0  0.90149945229E+01 -0.45478289132E+02 -0.36780875975E+02  0.59189338112E+02  0.10000000000E+01 0.  0.
         21    1    1    2  502  501 -0.26738065345E+02  0.63416742130E+01 -0.29447075795E+02  0.40277428457E+02  0.00000000000E+00 0. -1.
<mgrwt>
<rscale>  1 0.12798472E+03</rscale>
<asrwt>0</asrwt>
<pdfrwt beam="1">  1        4 0.28209391E-02 0.12798472E+03</pdfrwt>
<pdfrwt beam="2">  1       -4 0.54121795E-01 0.12798472E+03</pdfrwt>
<totfact> 0.31683646E+03</totfact>
</mgrwt>
</event>
<event>
 6    4  0.2103460E-003  0.1402657E+03  0.7818608E-02  0.1212972E+00
         -4   -1    0    0    0  501 -0.00000000000E+00  0.00000000000E+00  0.86059293674E+02  0.86068664028E+02  0.12700000000E+01 0. -1.
          4   -1    0    0  502    0  0.00000000000E+00 -0.00000000000E+00 -0.16233550142E+03  0.16234046914E+03  0.12700000000E+01 0. -1.
         25    2    1    2    0    0  0.58109052279E+02  0.25937306000E+02 -0.10826293663E+03  0.17718725013E+03  0.12500020944E+03 0.  0.
    9000005    1    3    3    0    0  0.63848326864E+02 -0.22527984225E+02 -0.10905448216E+03  0.12836665843E+03  0.10000000000E+01 0.  0.
    9000005    1    3    3    0    0 -0.57392745857E+01  0.48465290225E+02  0.79154553544E+00  0.48820591697E+02  0.10000000000E+01 0.  0.
         21    1    1    2  502  501 -0.58109052279E+02 -0.25937306000E+02  0.31986728883E+02  0.71221883041E+02  0.00000000000E+00 0. -1.
<mgrwt>
<rscale>  1 0.14026567E+03</rscale>
<asrwt>0</asrwt>
<pdfrwt beam="2">  1        4 0.24975795E-01 0.14026567E+03</pdfrwt>
<pdfrwt beam="1">  1       -4 0.13240994E-01 0.14026567E+03</pdfrwt>
<totfact> 0.11681829E+03</totfact>
</mgrwt>
</event>
<event>
 6    4  0.2103460E-003  0.1379678E+03  0.7818608E-02  0.1216090E+00
         -4   -1    0    0    0  501 -0.00000000000E+00  0.00000000000E+00  0.19575657372E+03  0.19576069333E+03  0.12700000000E+01 0.  1.
          4   -1    0    0  502    0  0.00000000000E+00 -0.00000000000E+00 -0.50088269913E+02  0.50104367902E+02  0.12700000000E+01 0.  1.
         25    2    1    2    0    0 -0.56454473569E+02  0.14887656512E+02  0.87066853117E+02  0.16314335958E+03  0.12500547572E+03 0.  0.
    9000005    1    3    3    0    0 -0.83900619765E+02 -0.20905534559E+02  0.32587496576E+02  0.92408334609E+02  0.10000000000E+01 0.  0.
    9000005    1    3    3    0    0  0.27446146195E+02  0.35793191071E+02  0.54479356541E+02  0.70735024968E+02  0.10000000000E+01 0.  0.
         21    1    1    2  502  501  0.56454473569E+02 -0.14887656512E+02  0.58601450686E+02  0.82721701656E+02  0.00000000000E+00 0. -1.
<mgrwt>
<rscale>  1 0.13796782E+03</rscale>
<asrwt>0</asrwt>
<pdfrwt beam="2">  1        4 0.77074429E-02 0.13796782E+03</pdfrwt>
<pdfrwt beam="1">  1       -4 0.30117951E-01 0.13796782E+03</pdfrwt>
<totfact> 0.20450780E+03</totfact>
</mgrwt>
</event>
<event>
 6    4  0.2103460E-003  0.1267020E+03  0.7818608E-02  0.1232433E+00
         -4   -1    0    0    0  501 -0.00000000000E+00  0.00000000000E+00  0.20571091787E+03  0.20571483814E+03  0.12700000000E+01 0.  1.
          4   -1    0    0  502    0  0.00000000000E+00 -0.00000000000E+00 -0.40716618506E+02  0.40736420100E+02  0.12700000000E+01 0.  1.
         25    2    1    2    0    0 -0.20645460028E+02  0.20389877043E+01  0.61391417088E+02  0.14079166470E+03  0.12499197681E+03 0.  0.
    9000005    1    3    3    0    0  0.38821389601E+02  0.20977159798E+02  0.64660246222E+02  0.78288498294E+02  0.10000000000E+01 0.  0.
    9000005    1    3    3    0    0 -0.59466849629E+02 -0.18938172094E+02 -0.32688291335E+01  0.62503166408E+02  0.10000000000E+01 0.  0.
         21    1    1    2  502  501  0.20645460028E+02 -0.20389877043E+01  0.10360288228E+03  0.10565959354E+03  0.00000000000E+00 0.  1.
<mgrwt>
<rscale>  1 0.12670196E+03</rscale>
<asrwt>0</asrwt>
<pdfrwt beam="2">  1        4 0.62659200E-02 0.12670196E+03</pdfrwt>
<pdfrwt beam="1">  1       -4 0.31649658E-01 0.12670196E+03</pdfrwt>
<totfact> 0.25635798E+03</totfact>
</mgrwt>
</event>
<event>
 6    4  0.2103460E-003  0.1266449E+03  0.7818608E-02  0.1232521E+00
         -4   -1    0    0    0  501 -0.00000000000E+00  0.00000000000E+00  0.19570273941E+03  0.19570686015E+03  0.12700000000E+01 0. -1.
          4   -1    0    0  502    0  0.00000000000E+00 -0.00000000000E+00 -0.28139058544E+02  0.28167703416E+02  0.12700000000E+01 0. -1.
         25    2    1    2    0    0  0.68299475779E+01 -0.19178198162E+02  0.13222424715E+03  0.18309065689E+03  0.12499794254E+03 0.  0.
    9000005    1    3    3    0    0 -0.56658585073E+02 -0.11238381963E+02  0.37845634343E+02  0.69063655640E+02  0.10000000000E+01 0.  0.
    9000005    1    3    3    0    0  0.63488532650E+02 -0.79398161986E+01  0.94378612808E+02  0.11402700125E+03  0.10000000000E+01 0.  0.
         21    1    1    2  502  501 -0.68299475779E+01  0.19178198162E+02  0.35339433711E+02  0.40783906675E+02  0.00000000000E+00 0. -1.
<mgrwt>
<rscale>  1 0.12664493E+03</rscale>
<asrwt>0</asrwt>
<pdfrwt beam="2">  1        4 0.43316064E-02 0.12664493E+03</pdfrwt>
<pdfrwt beam="1">  1       -4 0.30110634E-01 0.12664493E+03</pdfrwt>
<totfact> 0.51033690E+03</totfact>
</mgrwt>
</event>
<event>
 6    4  0.2103460E-003  0.1269702E+03  0.7818608E-02  0.1232022E+00
          4   -1    0    0  502    0  0.00000000000E+00  0.00000000000E+00  0.61240042879E+03  0.61240174565E+03  0.12700000000E+01 0.  1.
         -4   -1    0    0    0  501 -0.00000000000E+00 -0.00000000000E+00 -0.28058997948E+02  0.28087724469E+02  0.12700000000E+01 0.  1.
         25    2    1    2    0    0 -0.48259005406E+01  0.21774522290E+02  0.59996856968E+03  0.61325664791E+03  0.12499604982E+03 0.  0.
    9000005    1    3    3    0    0  0.48723692549E+02  0.45447536863E+02  0.36980719405E+03  0.37576300722E+03  0.10000000000E+01 0.  0.
    9000005    1    3    3    0    0 -0.53549593089E+02 -0.23673014573E+02  0.23016137563E+03  0.23749364069E+03  0.10000000000E+01 0.  0.
         21    1    1    2  502  501  0.48259005406E+01 -0.21774522290E+02 -0.15627138842E+02  0.27232822207E+02  0.00000000000E+00 0.  1.
<mgrwt>
<rscale>  1 0.12697020E+03</rscale>
<asrwt>0</asrwt>
<pdfrwt beam="1">  1        4 0.94217752E-01 0.12697020E+03</pdfrwt>
<pdfrwt beam="2">  1       -4 0.43190804E-02 0.12697020E+03</pdfrwt>
<totfact> 0.48692368E+02</totfact>
</mgrwt>
</event>
<event>
 6    4  0.2103460E-003  0.1276390E+03  0.7818608E-02  0.1231002E+00
         -4   -1    0    0    0  501 -0.00000000000E+00  0.00000000000E+00  0.41852217959E+03  0.41852410649E+03  0.12700000000E+01 0.  1.
          4   -1    0    0  502    0  0.00000000000E+00 -0.00000000000E+00 -0.16313453834E+02  0.16362813816E+02  0.12700000000E+01 0.  1.
         25    2    1    2    0    0 -0.66841647934E+01  0.24943848701E+02  0.25207309059E+03  0.28254656913E+03  0.12499938833E+03 0.  0.
    9000005    1    3    3    0    0 -0.50320821075E+02 -0.28613713783E+02  0.10083073446E+03  0.11627023119E+03  0.10000000000E+01 0.  0.
    9000005    1    3    3    0    0  0.43636656282E+02  0.53557562485E+02  0.15124235613E+03  0.16627633794E+03  0.10000000000E+01 0.  0.
         21    1    1    2  502  501  0.66841647934E+01 -0.24943848701E+02  0.15013563517E+03  0.15234035117E+03  0.00000000000E+00 0.  1.
<mgrwt>
<rscale>  1 0.12763903E+03</rscale>
<asrwt>0</asrwt>
<pdfrwt beam="2">  1        4 0.25137074E-02 0.12763903E+03</pdfrwt>
<pdfrwt beam="1">  1       -4 0.64391970E-01 0.12763903E+03</pdfrwt>
<totfact> 0.26342817E+03</totfact>
</mgrwt>
</event>
<event>
 6    4  0.2103460E-003  0.1267354E+03  0.7818608E-02  0.1232382E+00
          4   -1    0    0  502    0  0.00000000000E+00  0.00000000000E+00  0.48027511261E+03  0.48027679175E+03  0.12700000000E+01 0. -1.
         -4   -1    0    0    0  501 -0.00000000000E+00 -0.00000000000E+00 -0.11496839929E+02  0.11566772599E+02  0.12700000000E+01 0. -1.
         25    2    1    2    0    0 -0.93891593495E+01 -0.18676533918E+02  0.42171120858E+03  0.44034329488E+03  0.12499961867E+03 0.  0.
    9000005    1    3    3    0    0 -0.35426994220E+02  0.38707562071E+02  0.10457363763E+03  0.11700424337E+03  0.10000000000E+01 0.  0.
    9000005    1    3    3    0    0  0.26037834870E+02 -0.57384095989E+02  0.31713757095E+03  0.32333905150E+03  0.10000000000E+01 0.  0.
         21    1    1    2  502  501  0.93891593495E+01  0.18676533918E+02  0.47067064103E+02  0.51500269473E+02  0.00000000000E+00 0. -1.
<mgrwt>
<rscale>  1 0.12673545E+03</rscale>
<asrwt>0</asrwt>
<pdfrwt beam="1">  1        4 0.73893987E-01 0.12673545E+03</pdfrwt>
<pdfrwt beam="2">  1       -4 0.17742532E-02 0.12673545E+03</pdfrwt>
<totfact> 0.33475123E+03</totfact>
</mgrwt>
</event>
<event>
 6    4  0.2103460E-003  0.1269462E+03  0.7818608E-02  0.1232059E+00
          4   -1    0    0  502    0  0.00000000000E+00  0.00000000000E+00  0.39136347763E+02  0.39156948505E+02  0.12700000000E+01 0. -1.
         -4   -1    0    0    0  501 -0.00000000000E+00 -0.00000000000E+00 -0.14393467459E+03  0.14394027737E+03  0.12700000000E+01 0. -1.
         25    2    1    2    0    0  0.10329807109E+02 -0.19634683310E+02 -0.81131739472E+02  0.15065754245E+03  0.12499244075E+03 0.  0.
    9000005    1    3    3    0    0  0.30180390212E+02 -0.55036931053E+02 -0.89384831853E+02  0.10922713902E+03  0.10000000000E+01 0.  0.
    9000005    1    3    3    0    0 -0.19850583103E+02  0.35402247743E+02  0.82530923805E+01  0.41430403433E+02  0.10000000000E+01 0.  0.
         21    1    1    2  502  501 -0.10329807109E+02  0.19634683310E+02 -0.23666587355E+02  0.32439683424E+02  0.00000000000E+00 0.  1.
<mgrwt>
<rscale>  1 0.12694619E+03</rscale>
<asrwt>0</asrwt>
<pdfrwt beam="1">  1        4 0.60229923E-02 0.12694619E+03</pdfrwt>
<pdfrwt beam="2">  1       -4 0.22145811E-01 0.12694619E+03</pdfrwt>
<totfact> 0.53090869E+03</totfact>
</mgrwt>
</event>
<event>
 6    4  0.2103460E-003  0.1369031E+03  0.7818608E-02  0.1217558E+00
          4   -1    0    0  502    0  0.00000000000E+00  0.00000000000E+00  0.43721833009E+03  0.43722017459E+03  0.12700000000E+01 0. -1.
         -4   -1    0    0    0  501 -0.00000000000E+00 -0.00000000000E+00 -0.21439015637E+02  0.21476598695E+02  0.12700000000E+01 0. -1.
         25    2    1    2    0    0 -0.34917316770E+02 -0.43567037518E+02  0.31548804014E+03  0.34391155876E+03  0.12500060405E+03 0.  0.
    9000005    1    3    3    0    0  0.18331704642E+02 -0.99399415652E+01  0.25734971421E+03  0.25819513790E+03  0.10000000000E+01 0.  0.
    9000005    1    3    3    0    0 -0.53249021412E+02 -0.33627095953E+02  0.58138325931E+02  0.85716420863E+02  0.10000000000E+01 0.  0.
         21    1    1    2  502  501  0.34917316770E+02  0.43567037518E+02  0.10029127432E+03  0.11478521452E+03  0.00000000000E+00 0. -1.
<mgrwt>
<rscale>  1 0.13690309E+03</rscale>
<asrwt>0</asrwt>
<pdfrwt beam="1">  1        4 0.67267391E-01 0.13690309E+03</pdfrwt>
<pdfrwt beam="2">  1       -4 0.33013430E-02 0.13690309E+03</pdfrwt>
<totfact> 0.15925560E+03</totfact>
</mgrwt>
</event>
<event>
 6    4  0.2103460E-003  0.1417562E+03  0.7818608E-02  0.1210985E+00
          4   -1    0    0  502    0  0.00000000000E+00  0.00000000000E+00  0.16025992345E+03  0.16026495551E+03  0.12700000000E+01 0. -1.
         -4   -1    0    0    0  501 -0.00000000000E+00 -0.00000000000E+00 -0.98440872311E+02  0.98449064198E+02  0.12700000000E+01 0. -1.
         25    2    1    2    0    0  0.38484842865E+02 -0.54675296856E+02  0.10735431502E+03  0.17781944960E+03  0.12499734592E+03 0.  0.
    9000005    1    3    3    0    0  0.37844034728E+02 -0.94531367057E+02  0.79302583710E+02  0.12906684355E+03  0.10000000000E+01 0.  0.
    9000005    1    3    3    0    0  0.64080813706E+00  0.39856070201E+02  0.28051731308E+02  0.48752606046E+02  0.10000000000E+01 0.  0.
         21    1    1    2  502  501 -0.38484842865E+02  0.54675296856E+02 -0.45535263876E+02  0.80894570108E+02  0.00000000000E+00 0. -1.
<mgrwt>
<rscale>  1 0.14175616E+03</rscale>
<asrwt>0</asrwt>
<pdfrwt beam="1">  1        4 0.24656390E-01 0.14175616E+03</pdfrwt>
<pdfrwt beam="2">  1       -4 0.15145767E-01 0.14175616E+03</pdfrwt>
<totfact> 0.94912297E+02</totfact>
</mgrwt>
</event>
<event>
 6    4  0.2103460E-003  0.1276444E+03  0.7818608E-02  0.1230993E+00
         -4   -1    0    0    0  501 -0.00000000000E+00  0.00000000000E+00  0.18341579476E+02  0.18385495307E+02  0.12700000000E+01 0. -1.
          4   -1    0    0  502    0  0.00000000000E+00 -0.00000000000E+00 -0.32376007974E+03  0.32376257062E+03  0.12700000000E+01 0. -1.
         25    2    1    2    0    0  0.24938844157E+02  0.67449209206E+01 -0.26564045357E+03  0.29471671653E+03  0.12500261008E+03 0.  0.
    9000005    1    3    3    0    0  0.27014378606E+02 -0.57053472911E+02 -0.11700401597E+03  0.13295042375E+03  0.10000000000E+01 0.  0.
    9000005    1    3    3    0    0 -0.20755344490E+01  0.63798393832E+02 -0.14863643760E+03  0.16176629278E+03  0.10000000000E+01 0.  0.
         21    1    1    2  502  501 -0.24938844157E+02 -0.67449209206E+01 -0.39778046700E+02  0.47431349395E+02  0.00000000000E+00 0.  1.
<mgrwt>
<rscale>  1 0.12764440E+03</rscale>
<asrwt>0</asrwt>
<pdfrwt beam="2">  1        4 0.49812808E-01 0.12764440E+03</pdfrwt>
<pdfrwt beam="1">  1       -4 0.28253514E-02 0.12764440E+03</pdfrwt>
<totfact> 0.37432474E+03</totfact>
</mgrwt>
</event>
<event>
 6    4  0.2103460E-003  0.1524255E+03  0.7818608E-02  0.1197524E+00
          4   -1    0    0  502    0  0.00000000000E+00  0.00000000000E+00  0.38195302282E+03  0.38195513420E+03  0.12700000000E+01 0. -1.
         -4   -1    0    0    0  501 -0.00000000000E+00 -0.00000000000E+00 -0.86857974951E+02  0.86867259152E+02  0.12700000000E+01 0. -1.
         25    2    1    2    0    0 -0.47605747899E+02 -0.73088857883E+02  0.33861679190E+03  0.37134198207E+03  0.12500099005E+03 0.  0.
    9000005    1    3    3    0    0 -0.85430344365E+02 -0.67763093292E+02  0.20287548040E+03  0.23032507701E+03  0.10000000000E+01 0.  0.
    9000005    1    3    3    0    0  0.37824596466E+02 -0.53257645903E+01  0.13574131150E+03  0.14101690506E+03  0.10000000000E+01 0.  0.
         21    1    1    2  502  501  0.47605747899E+02  0.73088857883E+02 -0.43521744032E+02  0.97480411279E+02  0.00000000000E+00 0. -1.
<mgrwt>
<rscale>  1 0.15242551E+03</rscale>
<asrwt>0</asrwt>
<pdfrwt beam="1">  1        4 0.58762878E-01 0.15242551E+03</pdfrwt>
<pdfrwt beam="2">  1       -4 0.13363642E-01 0.15242551E+03</pdfrwt>
<totfact> 0.21777701E+02</totfact>
</mgrwt>
</event>
<event>
 6    4  0.2103460E-003  0.1376766E+03  0.7818608E-02  0.1216490E+00
         -4   -1    0    0    0  501 -0.00000000000E+00  0.00000000000E+00  0.10490029641E+04  0.10490037329E+04  0.12700000000E+01 0.  1.
          4   -1    0    0  502    0  0.00000000000E+00 -0.00000000000E+00 -0.91776690208E+01  0.92651232402E+01  0.12700000000E+01 0.  1.
         25    2    1    2    0    0 -0.87406866130E+01  0.57038910889E+02  0.67367180557E+03  0.68759620426E+03  0.12500000612E+03 0.  0.
    9000005    1    3    3    0    0  0.50306346731E+02  0.40686786066E+02  0.48311376037E+03  0.48742799319E+03  0.10000000000E+01 0.  0.
    9000005    1    3    3    0    0 -0.59047033344E+02  0.16352124822E+02  0.19055804520E+03  0.20016821107E+03  0.10000000000E+01 0.  0.
         21    1    1    2  502  501  0.87406866130E+01 -0.57038910889E+02  0.36615348950E+03  0.37067265185E+03  0.00000000000E+00 0.  1.
<mgrwt>
<rscale>  1 0.13767657E+03</rscale>
<asrwt>0</asrwt>
<pdfrwt beam="2">  1        4 0.14187345E-02 0.13767657E+03</pdfrwt>
<pdfrwt beam="1">  1       -4 0.16139197E+00 0.13767657E+03</pdfrwt>
<totfact> 0.75641558E+02</totfact>
</mgrwt>
</event>
<event>
 6    4  0.2103460E-003  0.1272959E+03  0.7818608E-02  0.1231524E+00
          4   -1    0    0  502    0  0.00000000000E+00  0.00000000000E+00  0.39542509164E+02  0.39562898415E+02  0.12700000000E+01 0.  1.
         -4   -1    0    0    0  501 -0.00000000000E+00 -0.00000000000E+00 -0.21261787999E+03  0.21262167291E+03  0.12700000000E+01 0.  1.
         25    2    1    2    0    0  0.13804259904E+02  0.19730324652E+02 -0.67870290517E+02  0.14425889215E+03  0.12499763329E+03 0.  0.
    9000005    1    3    3    0    0  0.11256921668E+02  0.48338279147E+02  0.18696913736E+02  0.53046037549E+02  0.10000000000E+01 0.  0.
    9000005    1    3    3    0    0  0.25473382362E+01 -0.28607954495E+02 -0.86567204254E+02  0.91212854603E+02  0.10000000000E+01 0.  0.
         21    1    1    2  502  501 -0.13804259904E+02 -0.19730324652E+02 -0.10520508031E+03  0.10792567917E+03  0.00000000000E+00 0.  1.
<mgrwt>
<rscale>  1 0.12729592E+03</rscale>
<asrwt>0</asrwt>
<pdfrwt beam="1">  1        4 0.60853232E-02 0.12729592E+03</pdfrwt>
<pdfrwt beam="2">  1       -4 0.32712303E-01 0.12729592E+03</pdfrwt>
<totfact> 0.25273159E+03</totfact>
</mgrwt>
</event>
<event>
 6    4  0.2103460E-003  0.1272892E+03  0.7818608E-02  0.1231534E+00
          4   -1    0    0  502    0  0.00000000000E+00  0.00000000000E+00  0.89575823099E+02  0.89584825634E+02  0.12700000000E+01 0.  1.
         -4   -1    0    0    0  501 -0.00000000000E+00 -0.00000000000E+00 -0.96195052704E+02  0.96203435826E+02  0.12700000000E+01 0.  1.
         25    2    1    2    0    0  0.12846267568E+02 -0.20305615140E+02  0.39928494270E+02  0.13340472211E+03  0.12500076252E+03 0.  0.
    9000005    1    3    3    0    0 -0.23136782439E+02  0.20543418594E+02 -0.31118606376E+02  0.43894309562E+02  0.10000000000E+01 0.  0.
    9000005    1    3    3    0    0  0.35983050007E+02 -0.40849033733E+02  0.71047100646E+02  0.89510412550E+02  0.10000000000E+01 0.  0.
         21    1    1    2  502  501 -0.12846267568E+02  0.20305615140E+02 -0.46547723876E+02  0.52383539348E+02  0.00000000000E+00 0.  1.
<mgrwt>
<rscale>  1 0.12728918E+03</rscale>
<asrwt>0</asrwt>
<pdfrwt beam="1">  1        4 0.13782233E-01 0.12728918E+03</pdfrwt>
<pdfrwt beam="2">  1       -4 0.14800576E-01 0.12728918E+03</pdfrwt>
<totfact> 0.27239982E+03</totfact>
</mgrwt>
</event>
<event>
 6    4  0.2103460E-003  0.1293480E+03  0.7818608E-02  0.1228426E+00
          4   -1    0    0  502    0  0.00000000000E+00  0.00000000000E+00  0.13250773005E+02  0.13311494477E+02  0.12700000000E+01 0. -1.
         -4   -1    0    0    0  501 -0.00000000000E+00 -0.00000000000E+00 -0.74322365742E+03  0.74322474249E+03  0.12700000000E+01 0. -1.
         25    2    1    2    0    0  0.15305794052E+02  0.29561756012E+02 -0.31913150422E+03  0.34434841033E+03  0.12499098351E+03 0.  0.
    9000005    1    3    3    0    0  0.84279600856E+01  0.11337683083E+02 -0.32394855175E+03  0.32425798024E+03  0.10000000000E+01 0.  0.
    9000005    1    3    3    0    0  0.68778339667E+01  0.18224072929E+02  0.48170475285E+01  0.20090430087E+02  0.10000000000E+01 0.  0.
         21    1    1    2  502  501 -0.15305794052E+02 -0.29561756012E+02 -0.41084138019E+03  0.41218782664E+03  0.00000000000E+00 0. -1.
<mgrwt>
<rscale>  1 0.12934802E+03</rscale>
<asrwt>0</asrwt>
<pdfrwt beam="1">  1        4 0.20433354E-02 0.12934802E+03</pdfrwt>
<pdfrwt beam="2">  1       -4 0.11434682E+00 0.12934802E+03</pdfrwt>
<totfact> 0.10048525E+03</totfact>
</mgrwt>
</event>
<event>
 6    4  0.2103460E-003  0.1266548E+03  0.7818608E-02  0.1232506E+00
         -4   -1    0    0    0  501 -0.00000000000E+00  0.00000000000E+00  0.48524800029E+02  0.48541416521E+02  0.12700000000E+01 0. -1.
          4   -1    0    0  502    0  0.00000000000E+00 -0.00000000000E+00 -0.12699909904E+03  0.12700544893E+03  0.12700000000E+01 0. -1.
         25    2    1    2    0    0 -0.19244077255E+02 -0.68196367517E+01 -0.86751318477E+02  0.15351618216E+03  0.12499833988E+03 0.  0.
    9000005    1    3    3    0    0 -0.70373560315E+02  0.13431614119E+02 -0.49351818551E+02  0.87002576074E+02  0.10000000000E+01 0.  0.
    9000005    1    3    3    0    0  0.51129483060E+02 -0.20251250870E+02 -0.37399499926E+02  0.66513606086E+02  0.10000000000E+01 0.  0.
         21    1    1    2  502  501  0.19244077255E+02  0.68196367517E+01  0.82770194669E+01  0.22030683287E+02  0.00000000000E+00 0.  1.
<mgrwt>
<rscale>  1 0.12665475E+03</rscale>
<asrwt>0</asrwt>
<pdfrwt beam="2">  1        4 0.19540089E-01 0.12665475E+03</pdfrwt>
<pdfrwt beam="1">  1       -4 0.74671206E-02 0.12665475E+03</pdfrwt>
<totfact> 0.46803889E+03</totfact>
</mgrwt>
</event>
<event>
 6    4  0.2103460E-003  0.1276706E+03  0.7818608E-02  0.1230954E+00
          4   -1    0    0  502    0  0.00000000000E+00  0.00000000000E+00  0.92445485567E+02  0.92454208675E+02  0.12700000000E+01 0. -1.
         -4   -1    0    0    0  501 -0.00000000000E+00 -0.00000000000E+00 -0.88246146239E+02  0.88255284408E+02  0.12700000000E+01 0. -1.
         25    2    1    2    0    0 -0.93507366304E+01  0.24247039287E+02  0.42382648593E+02  0.13452161268E+03  0.12499768072E+03 0.  0.
    9000005    1    3    3    0    0 -0.55250155032E+02 -0.30734719988E+01  0.56678133772E+02  0.79217654024E+02  0.10000000000E+01 0.  0.
    9000005    1    3    3    0    0  0.45899418402E+02  0.27320511286E+02 -0.14295485179E+02  0.55303958656E+02  0.10000000000E+01 0.  0.
         21    1    1    2  502  501  0.93507366304E+01 -0.24247039287E+02 -0.38183309265E+02  0.46187880403E+02  0.00000000000E+00 0. -1.
<mgrwt>
<rscale>  1 0.12767057E+03</rscale>
<asrwt>0</asrwt>
<pdfrwt beam="1">  1        4 0.14223756E-01 0.12767057E+03</pdfrwt>
<pdfrwt beam="2">  1       -4 0.13577704E-01 0.12767057E+03</pdfrwt>
<totfact> 0.29974580E+03</totfact>
</mgrwt>
</event>
<event>
 6    4  0.2103460E-003  0.1273951E+03  0.7818608E-02  0.1231373E+00
          4   -1    0    0  502    0  0.00000000000E+00  0.00000000000E+00  0.55136021859E+03  0.55136168125E+03  0.12700000000E+01 0.  1.
         -4   -1    0    0    0  501 -0.00000000000E+00 -0.00000000000E+00 -0.53179825920E+02  0.53194988344E+02  0.12700000000E+01 0.  1.
         25    2    1    2    0    0 -0.73090144791E+01 -0.23474238629E+02  0.54066494177E+03  0.55547104559E+03  0.12500016664E+03 0.  0.
    9000005    1    3    3    0    0  0.52105696421E+01 -0.53494352941E+02  0.50228038051E+03  0.50514886566E+03  0.10000000000E+01 0.  0.
    9000005    1    3    3    0    0 -0.12519584121E+02  0.30020114313E+02  0.38384561263E+02  0.50322179933E+02  0.10000000000E+01 0.  0.
         21    1    1    2  502  501  0.73090144791E+01  0.23474238629E+02 -0.42484549094E+02  0.49085624001E+02  0.00000000000E+00 0.  1.
<mgrwt>
<rscale>  1 0.12739507E+03</rscale>
<asrwt>0</asrwt>
<pdfrwt beam="1">  1        4 0.84825924E-01 0.12739507E+03</pdfrwt>
<pdfrwt beam="2">  1       -4 0.81827909E-02 0.12739507E+03</pdfrwt>
<totfact> 0.21883026E+02</totfact>
</mgrwt>
</event>
<event>
 6    4  0.2103460E-003  0.1287067E+03  0.7818608E-02  0.1229387E+00
         -4   -1    0    0    0  501 -0.00000000000E+00  0.00000000000E+00  0.10226228408E+04  0.10226236294E+04  0.12700000000E+01 0. -1.
          4   -1    0    0  502    0  0.00000000000E+00 -0.00000000000E+00 -0.65561249486E+01  0.66779992769E+01  0.12700000000E+01 0. -1.
         25    2    1    2    0    0 -0.27680473610E+02 -0.13196774275E+02  0.69859279011E+03  0.71035013238E+03  0.12500024283E+03 0.  0.
    9000005    1    3    3    0    0 -0.23981082464E+02 -0.42536755664E+02  0.10269078721E+03  0.11371396430E+03  0.10000000000E+01 0.  0.
    9000005    1    3    3    0    0 -0.36993911460E+01  0.29339981389E+02  0.59590200290E+03  0.59663616808E+03  0.10000000000E+01 0.  0.
         21    1    1    2  502  501  0.27680473610E+02  0.13196774275E+02  0.31747392572E+03  0.31895149628E+03  0.00000000000E+00 0. -1.
<mgrwt>
<rscale>  1 0.12870674E+03</rscale>
<asrwt>0</asrwt>
<pdfrwt beam="2">  1        4 0.10180711E-02 0.12870674E+03</pdfrwt>
<pdfrwt beam="1">  1       -4 0.15733589E+00 0.12870674E+03</pdfrwt>
<totfact> 0.13175893E+03</totfact>
</mgrwt>
</event>
<event>
 6    4  0.2103460E-003  0.1282980E+03  0.7818608E-02  0.1230003E+00
         -4   -1    0    0    0  501 -0.00000000000E+00  0.00000000000E+00  0.38313702904E+03  0.38313913390E+03  0.12700000000E+01 0.  1.
          4   -1    0    0  502    0  0.00000000000E+00 -0.00000000000E+00 -0.29205494974E+02  0.29233094887E+02  0.12700000000E+01 0.  1.
         25    2    1    2    0    0 -0.21982327405E+02  0.18773940422E+02  0.11684982836E+03  0.17353458782E+03  0.12499874890E+03 0.  0.
    9000005    1    3    3    0    0 -0.25838989071E+02 -0.50974070495E+02  0.40538643817E+02  0.70074181134E+02  0.10000000000E+01 0.  0.
    9000005    1    3    3    0    0  0.38566616660E+01  0.69748010917E+02  0.76311184541E+02  0.10346040669E+03  0.10000000000E+01 0.  0.
         21    1    1    2  502  501  0.21982327405E+02 -0.18773940422E+02  0.23708170571E+03  0.23883764096E+03  0.00000000000E+00 0.  1.
<mgrwt>
<rscale>  1 0.12829798E+03</rscale>
<asrwt>0</asrwt>
<pdfrwt beam="2">  1        4 0.44954383E-02 0.12829798E+03</pdfrwt>
<pdfrwt beam="1">  1       -4 0.58946440E-01 0.12829798E+03</pdfrwt>
<totfact> 0.12730080E+03</totfact>
</mgrwt>
</event>
<event>
 6    4  0.2103460E-003  0.1266059E+03  0.7818608E-02  0.1232581E+00
          4   -1    0    0  502    0  0.00000000000E+00  0.00000000000E+00  0.27304098882E+02  0.27333618783E+02  0.12700000000E+01 0.  1.
         -4   -1    0    0    0  501 -0.00000000000E+00 -0.00000000000E+00 -0.34365927055E+03  0.34366161720E+03  0.12700000000E+01 0.  1.
         25    2    1    2    0    0 -0.62106536648E+01  0.19113673904E+02 -0.12272520997E+03  0.17632508722E+03  0.12500061789E+03 0.  0.
    9000005    1    3    3    0    0  0.47047730391E+02 -0.19140922866E+02 -0.89246940791E+02  0.10269313659E+03  0.10000000000E+01 0.  0.
    9000005    1    3    3    0    0 -0.53258384055E+02  0.38254596770E+02 -0.33478269176E+02  0.73631950628E+02  0.10000000000E+01 0.  0.
         21    1    1    2  502  501  0.62106536648E+01 -0.19113673904E+02 -0.19362996171E+03  0.19467014876E+03  0.00000000000E+00 0.  1.
<mgrwt>
<rscale>  1 0.12660592E+03</rscale>
<asrwt>0</asrwt>
<pdfrwt beam="1">  1        4 0.42030821E-02 0.12660592E+03</pdfrwt>
<pdfrwt beam="2">  1       -4 0.52873105E-01 0.12660592E+03</pdfrwt>
<totfact> 0.17696328E+03</totfact>
</mgrwt>
</event>
<event>
 6    4  0.2103460E-003  0.1276728E+03  0.7818608E-02  0.1230950E+00
         -4   -1    0    0    0  501 -0.00000000000E+00  0.00000000000E+00  0.17943118601E+03  0.17943568043E+03  0.12700000000E+01 0. -1.
          4   -1    0    0  502    0  0.00000000000E+00 -0.00000000000E+00 -0.35361156004E+02  0.35383954752E+02  0.12700000000E+01 0. -1.
         25    2    1    2    0    0 -0.32614314573E+01 -0.25794907613E+02  0.94488877672E+02  0.15883477241E+03  0.12499729088E+03 0.  0.
    9000005    1    3    3    0    0 -0.59238736154E+02  0.11293530447E+02  0.49177979263E+02  0.77821882112E+02  0.10000000000E+01 0.  0.
    9000005    1    3    3    0    0  0.55977304697E+02 -0.37088438060E+02  0.45310898410E+02  0.81012890293E+02  0.10000000000E+01 0.  0.
         21    1    1    2  502  501  0.32614314573E+01  0.25794907613E+02  0.49581152334E+02  0.55984862781E+02  0.00000000000E+00 0. -1.
<mgrwt>
<rscale>  1 0.12767277E+03</rscale>
<asrwt>0</asrwt>
<pdfrwt beam="2">  1        4 0.54422775E-02 0.12767277E+03</pdfrwt>
<pdfrwt beam="1">  1       -4 0.27606897E-01 0.12767277E+03</pdfrwt>
<totfact> 0.41746580E+03</totfact>
</mgrwt>
</event>
<event>
 6    4  0.2103460E-003  0.1341691E+03  0.7818608E-02  0.1221397E+00
          4   -1    0    0  502    0  0.00000000000E+00  0.00000000000E+00  0.74978369573E+02  0.74989124570E+02  0.12700000000E+01 0.  1.
         -4   -1    0    0    0  501 -0.00000000000E+00 -0.00000000000E+00 -0.11152944703E+03  0.11153667762E+03  0.12700000000E+01 0.  1.
         25    2    1    2    0    0 -0.37655234223E+02  0.30929756896E+02 -0.27712577199E+02  0.13700120615E+03  0.12500710790E+03 0.  0.
    9000005    1    3    3    0    0 -0.34511828738E+02  0.59844230103E+02 -0.61437880558E+02  0.92455456123E+02  0.10000000000E+01 0.  0.
    9000005    1    3    3    0    0 -0.31434054847E+01 -0.28914473207E+02  0.33725303359E+02  0.44545750028E+02  0.10000000000E+01 0.  0.
         21    1    1    2  502  501  0.37655234223E+02 -0.30929756896E+02 -0.88385002579E+01  0.49524596039E+02  0.00000000000E+00 0.  1.
<mgrwt>
<rscale>  1 0.13416909E+03</rscale>
<asrwt>0</asrwt>
<pdfrwt beam="1">  1        4 0.11536517E-01 0.13416909E+03</pdfrwt>
<pdfrwt beam="2">  1       -4 0.17159760E-01 0.13416909E+03</pdfrwt>
<totfact> 0.28873310E+03</totfact>
</mgrwt>
</event>
<event>
 6    4  0.2103460E-003  0.1274874E+03  0.7818608E-02  0.1231232E+00
         -4   -1    0    0    0  501 -0.00000000000E+00  0.00000000000E+00  0.26646740464E+03  0.26647043107E+03  0.12700000000E+01 0. -1.
          4   -1    0    0  502    0  0.00000000000E+00 -0.00000000000E+00 -0.41069308584E+02  0.41088940210E+02  0.12700000000E+01 0. -1.
         25    2    1    2    0    0 -0.24629240307E+02 -0.37959212042E+01  0.61083122444E+02  0.14136545127E+03  0.12502813471E+03 0.  0.
    9000005    1    3    3    0    0  0.25477761393E+02 -0.18387768520E+02  0.79913869889E+02  0.85874635123E+02  0.10000000000E+01 0.  0.
    9000005    1    3    3    0    0 -0.50107001699E+02  0.14591847316E+02 -0.18830747445E+02  0.55490816148E+02  0.10000000000E+01 0.  0.
         21    1    1    2  502  501  0.24629240307E+02  0.37959212042E+01  0.16431497361E+03  0.16619392001E+03  0.00000000000E+00 0. -1.
<mgrwt>
<rscale>  1 0.12748742E+03</rscale>
<asrwt>0</asrwt>
<pdfrwt beam="2">  1        4 0.63200981E-02 0.12748742E+03</pdfrwt>
<pdfrwt beam="1">  1       -4 0.40996728E-01 0.12748742E+03</pdfrwt>
<totfact> 0.15341141E+03</totfact>
</mgrwt>
</event>
<event>
 6    4  0.2103460E-003  0.1275651E+03  0.7818608E-02  0.1231114E+00
         -4   -1    0    0    0  501 -0.00000000000E+00  0.00000000000E+00  0.63346767966E+03  0.63346895273E+03  0.12700000000E+01 0.  1.
          4   -1    0    0  502    0  0.00000000000E+00 -0.00000000000E+00 -0.97803740934E+01  0.98624853564E+01  0.12700000000E+01 0.  1.
         25    2    1    2    0    0  0.76720032331E+01  0.24292230300E+02  0.44803451608E+03  0.46584094668E+03  0.12499555158E+03 0.  0.
    9000005    1    3    3    0    0 -0.49521504607E+02  0.34122074441E+01  0.32269647488E+03  0.32649354890E+03  0.10000000000E+01 0.  0.
    9000005    1    3    3    0    0  0.57193507840E+02  0.20880022856E+02  0.12533804120E+03  0.13934739777E+03  0.10000000000E+01 0.  0.
         21    1    1    2  502  501 -0.76720032331E+01 -0.24292230300E+02  0.17565278948E+03  0.17749049140E+03  0.00000000000E+00 0. -1.
<mgrwt>
<rscale>  1 0.12756512E+03</rscale>
<asrwt>0</asrwt>
<pdfrwt beam="2">  1        4 0.15110872E-02 0.12756512E+03</pdfrwt>
<pdfrwt beam="1">  1       -4 0.97462977E-01 0.12756512E+03</pdfrwt>
<totfact> 0.23093693E+03</totfact>
</mgrwt>
</event>
<event>
 6    4  0.2103460E-003  0.1269797E+03  0.7818608E-02  0.1232007E+00
          4   -1    0    0  502    0  0.00000000000E+00  0.00000000000E+00  0.30107948265E+03  0.30108216117E+03  0.12700000000E+01 0. -1.
         -4   -1    0    0    0  501 -0.00000000000E+00 -0.00000000000E+00 -0.18847585751E+02  0.18890325266E+02  0.12700000000E+01 0. -1.
         25    2    1    2    0    0 -0.17851102059E+02 -0.13416258168E+02  0.25404638452E+03  0.28401305184E+03  0.12500076121E+03 0.  0.
    9000005    1    3    3    0    0  0.17744240406E+02 -0.59190034977E+02  0.83544898045E+02  0.10391856570E+03  0.10000000000E+01 0.  0.
    9000005    1    3    3    0    0 -0.35595342465E+02  0.45773776809E+02  0.17050148647E+03  0.18009448614E+03  0.10000000000E+01 0.  0.
         21    1    1    2  502  501  0.17851102059E+02  0.13416258168E+02  0.28185512386E+02  0.35959434595E+02  0.00000000000E+00 0. -1.
<mgrwt>
<rscale>  1 0.12697972E+03</rscale>
<asrwt>0</asrwt>
<pdfrwt beam="1">  1        4 0.46323411E-01 0.12697972E+03</pdfrwt>
<pdfrwt beam="2">  1       -4 0.29031225E-02 0.12697972E+03</pdfrwt>
<totfact> 0.41498488E+03</totfact>
</mgrwt>
</event>
<event>
 6    4  0.2103460E-003  0.1301629E+03  0.7818608E-02  0.1227214E+00
         -4   -1    0    0    0  501 -0.00000000000E+00  0.00000000000E+00  0.23929776710E+03  0.23930113714E+03  0.12700000000E+01 0. -1.
          4   -1    0    0  502    0  0.00000000000E+00 -0.00000000000E+00 -0.41800229299E+02  0.41819517805E+02  0.12700000000E+01 0. -1.
         25    2    1    2    0    0 -0.34707414475E+02  0.10636621196E+02  0.68448360737E+02  0.14706308362E+03  0.12499852058E+03 0.  0.
    9000005    1    3    3    0    0 -0.48869691333E+02 -0.48353238910E+02  0.44116196072E+02  0.81691622581E+02  0.10000000000E+01 0.  0.
    9000005    1    3    3    0    0  0.14162276858E+02  0.58989860106E+02  0.24332164665E+02  0.65371461039E+02  0.10000000000E+01 0.  0.
         21    1    1    2  502  501  0.34707414475E+02 -0.10636621196E+02  0.12904917706E+03  0.13405757133E+03  0.00000000000E+00 0. -1.
<mgrwt>
<rscale>  1 0.13016287E+03</rscale>
<asrwt>0</asrwt>
<pdfrwt beam="2">  1        4 0.64325474E-02 0.13016287E+03</pdfrwt>
<pdfrwt beam="1">  1       -4 0.36816784E-01 0.13016287E+03</pdfrwt>
<totfact> 0.18485947E+03</totfact>
</mgrwt>
</event>
<event>
 6    4  0.2103460E-003  0.1305402E+03  0.7818608E-02  0.1226656E+00
          4   -1    0    0  502    0  0.00000000000E+00  0.00000000000E+00  0.17495181159E+04  0.17495185769E+04  0.12700000000E+01 0. -1.
         -4   -1    0    0    0  501 -0.00000000000E+00 -0.00000000000E+00 -0.53265609260E+01  0.54758699124E+01  0.12700000000E+01 0. -1.
         25    2    1    2    0    0 -0.40677676964E+01  0.37399054630E+02  0.16194726539E+04  0.16247253395E+04  0.12500206434E+03 0.  0.
    9000005    1    3    3    0    0 -0.20405066401E+02  0.40849805806E+02  0.15913392980E+04  0.15919946089E+04  0.10000000000E+01 0.  0.
    9000005    1    3    3    0    0  0.16337298705E+02 -0.34507511758E+01  0.28133355890E+02  0.32730730611E+02  0.10000000000E+01 0.  0.
         21    1    1    2  502  501  0.40677676964E+01 -0.37399054630E+02  0.12471890109E+03  0.13026910727E+03  0.00000000000E+00 0. -1.
<mgrwt>
<rscale>  1 0.13054023E+03</rscale>
<asrwt>0</asrwt>
<pdfrwt beam="1">  1        4 0.26916832E+00 0.13054023E+03</pdfrwt>
<pdfrwt beam="2">  1       -4 0.83099115E-03 0.13054023E+03</pdfrwt>
<totfact> 0.36689630E+02</totfact>
</mgrwt>
</event>
<event>
 6    4  0.2103460E-003  0.1315348E+03  0.7818608E-02  0.1225196E+00
         -4   -1    0    0    0  501 -0.00000000000E+00  0.00000000000E+00  0.49245749153E+03  0.49245912913E+03  0.12700000000E+01 0. -1.
          4   -1    0    0  502    0  0.00000000000E+00 -0.00000000000E+00 -0.15245608774E+02  0.15298414522E+02  0.12700000000E+01 0. -1.
         25    2    1    2    0    0  0.37361720865E+02  0.16923952907E+02  0.34039534058E+03  0.36492517834E+03  0.12497631587E+03 0.  0.
    9000005    1    3    3    0    0 -0.34465216595E+02 -0.43217750119E+01  0.22282498034E+03  0.22551829362E+03  0.10000000000E+01 0.  0.
    9000005    1    3    3    0    0  0.71826937461E+02  0.21245727919E+02  0.11757036024E+03  0.13940688472E+03  0.10000000000E+01 0.  0.
         21    1    1    2  502  501 -0.37361720865E+02 -0.16923952907E+02  0.13681654218E+03  0.14283236532E+03  0.00000000000E+00 0. -1.
<mgrwt>
<rscale>  1 0.13153478E+03</rscale>
<asrwt>0</asrwt>
<pdfrwt beam="2">  1        4 0.23496661E-02 0.13153478E+03</pdfrwt>
<pdfrwt beam="1">  1       -4 0.75766883E-01 0.13153478E+03</pdfrwt>
<totfact> 0.20746659E+03</totfact>
</mgrwt>
</event>
<event>
 6    4  0.2103460E-003  0.1267065E+03  0.7818608E-02  0.1232426E+00
          4   -1    0    0  502    0  0.00000000000E+00  0.00000000000E+00  0.99082870327E+02  0.99091009139E+02  0.12700000000E+01 0. -1.
         -4   -1    0    0    0  501 -0.00000000000E+00 -0.00000000000E+00 -0.56923732211E+02  0.56937897650E+02  0.12700000000E+01 0. -1.
         25    2    1    2    0    0  0.20081699722E+02 -0.49597259922E+01  0.46360228508E+02  0.13492149799E+03  0.12500666497E+03 0.  0.
    9000005    1    3    3    0    0  0.53721944998E+02  0.56248864755E+01 -0.21732136718E+02  0.58232057224E+02  0.10000000000E+01 0.  0.
    9000005    1    3    3    0    0 -0.33640245276E+02 -0.10584612468E+02  0.68092365226E+02  0.76689440769E+02  0.10000000000E+01 0.  0.
         21    1    1    2  502  501 -0.20081699722E+02  0.49597259922E+01 -0.42010903916E+01  0.21107408797E+02  0.00000000000E+00 0.  1.
<mgrwt>
<rscale>  1 0.12670651E+03</rscale>
<asrwt>0</asrwt>
<pdfrwt beam="1">  1        4 0.15245234E-01 0.12670651E+03</pdfrwt>
<pdfrwt beam="2">  1       -4 0.87592130E-02 0.12670651E+03</pdfrwt>
<totfact> 0.55742170E+03</totfact>
</mgrwt>
</event>
<event>
 6    4  0.2103460E-003  0.1464028E+03  0.7818608E-02  0.1204964E+00
         -4   -1    0    0    0  501 -0.00000000000E+00  0.00000000000E+00  0.82342145255E+01  0.83315778129E+01  0.12700000000E+01 0.  1.
          4   -1    0    0  502    0  0.00000000000E+00 -0.00000000000E+00 -0.18445016765E+04  0.18445021137E+04  0.12700000000E+01 0.  1.
         25    2    1    2    0    0  0.75696594839E+02  0.89767208991E+01 -0.15390252834E+04  0.15459730249E+04  0.12499285919E+03 0.  0.
    9000005    1    3    3    0    0  0.82435993791E+02  0.17176150567E+02 -0.15290687272E+04  0.15313859362E+04  0.10000000000E+01 0.  0.
    9000005    1    3    3    0    0 -0.67393989515E+01 -0.81994296678E+01 -0.99565562403E+01  0.14587088718E+02  0.10000000000E+01 0.  0.
         21    1    1    2  502  501 -0.75696594839E+02 -0.89767208991E+01 -0.29724217854E+03  0.30686066657E+03  0.00000000000E+00 0.  1.
<mgrwt>
<rscale>  1 0.14640277E+03</rscale>
<asrwt>0</asrwt>
<pdfrwt beam="2">  1        4 0.28377668E+00 0.14640277E+03</pdfrwt>
<pdfrwt beam="1">  1       -4 0.12743268E-02 0.14640277E+03</pdfrwt>
<totfact> 0.16125545E+02</totfact>
</mgrwt>
</event>
<event>
 6    4  0.2103460E-003  0.1303199E+03  0.7818608E-02  0.1226982E+00
         -4   -1    0    0    0  501 -0.00000000000E+00  0.00000000000E+00  0.42532760891E+02  0.42551717345E+02  0.12700000000E+01 0.  1.
          4   -1    0    0  502    0  0.00000000000E+00 -0.00000000000E+00 -0.16430597035E+03  0.16431087850E+03  0.12700000000E+01 0.  1.
         25    2    1    2    0    0 -0.18246977473E+02 -0.32004638945E+02 -0.92576739983E+02  0.15985533118E+03  0.12500410002E+03 0.  0.
    9000005    1    3    3    0    0 -0.45023145348E+02 -0.36887779231E+02 -0.11212091118E+03  0.12633246059E+03  0.10000000000E+01 0.  0.
    9000005    1    3    3    0    0  0.26776167874E+02  0.48831402865E+01  0.19544171200E+02  0.33522870596E+02  0.10000000000E+01 0.  0.
         21    1    1    2  502  501  0.18246977473E+02  0.32004638945E+02 -0.29196469477E+02  0.47007264660E+02  0.00000000000E+00 0.  1.
<mgrwt>
<rscale>  1 0.13031989E+03</rscale>
<asrwt>0</asrwt>
<pdfrwt beam="2">  1        4 0.25279677E-01 0.13031989E+03</pdfrwt>
<pdfrwt beam="1">  1       -4 0.65453375E-02 0.13031989E+03</pdfrwt>
<totfact> 0.36622664E+03</totfact>
</mgrwt>
</event>
<event>
 6    4  0.2103460E-003  0.1271858E+03  0.7818608E-02  0.1231692E+00
          4   -1    0    0  502    0  0.00000000000E+00  0.00000000000E+00  0.15805147274E+03  0.15805657511E+03  0.12700000000E+01 0. -1.
         -4   -1    0    0    0  501 -0.00000000000E+00 -0.00000000000E+00 -0.41804749048E+02  0.41824035469E+02  0.12700000000E+01 0. -1.
         25    2    1    2    0    0 -0.23148039808E+02  0.42163416445E+01  0.12136644702E+03  0.17580114109E+03  0.12499046949E+03 0.  0.
    9000005    1    3    3    0    0 -0.68471519820E+02 -0.23563355842E+02  0.83480510464E+02  0.11051505052E+03  0.10000000000E+01 0.  0.
    9000005    1    3    3    0    0  0.45323480012E+02  0.27779697486E+02  0.37885936558E+02  0.65286090568E+02  0.10000000000E+01 0.  0.
         21    1    1    2  502  501  0.23148039808E+02 -0.42163416445E+01 -0.51197233296E+01  0.24079469487E+02  0.00000000000E+00 0.  1.
<mgrwt>
<rscale>  1 0.12718580E+03</rscale>
<asrwt>0</asrwt>
<pdfrwt beam="1">  1        4 0.24317487E-01 0.12718580E+03</pdfrwt>
<pdfrwt beam="2">  1       -4 0.64333760E-02 0.12718580E+03</pdfrwt>
<totfact> 0.40217904E+03</totfact>
</mgrwt>
</event>
<event>
 6    4  0.2103460E-003  0.1272380E+03  0.7818608E-02  0.1231613E+00
         -4   -1    0    0    0  501 -0.00000000000E+00  0.00000000000E+00  0.11960007248E+02  0.12027247124E+02  0.12700000000E+01 0.  1.
          4   -1    0    0  502    0  0.00000000000E+00 -0.00000000000E+00 -0.49640182068E+03  0.49640344527E+03  0.12700000000E+01 0.  1.
         25    2    1    2    0    0  0.22069494141E+02  0.87853223434E+01 -0.44014162958E+03  0.45816389669E+03  0.12500103074E+03 0.  0.
    9000005    1    3    3    0    0 -0.27084193008E+02  0.16107223370E+02 -0.25488258431E+02  0.40541922419E+02  0.10000000000E+01 0.  0.
    9000005    1    3    3    0    0  0.49153687148E+02 -0.73219010263E+01 -0.41465337115E+03  0.41762197427E+03  0.10000000000E+01 0.  0.
         21    1    1    2  502  501 -0.22069494141E+02 -0.87853223434E+01 -0.44300183857E+02  0.50266795701E+02  0.00000000000E+00 0.  1.
<mgrwt>
<rscale>  1 0.12723797E+03</rscale>
<asrwt>0</asrwt>
<pdfrwt beam="2">  1        4 0.76374792E-01 0.12723797E+03</pdfrwt>
<pdfrwt beam="1">  1       -4 0.18452988E-02 0.12723797E+03</pdfrwt>
<totfact> 0.29356844E+03</totfact>
</mgrwt>
</event>
<event>
 6    4  0.2103460E-003  0.1268577E+03  0.7818608E-02  0.1232194E+00
         -4   -1    0    0    0  501 -0.00000000000E+00  0.00000000000E+00  0.55344807260E+03  0.55344952973E+03  0.12700000000E+01 0.  1.
          4   -1    0    0  502    0  0.00000000000E+00 -0.00000000000E+00 -0.18321122967E+02  0.18365087715E+02  0.12700000000E+01 0.  1.
         25    2    1    2    0    0  0.43285602490E+01 -0.21177723343E+02  0.20565066044E+03  0.24163003644E+03  0.12500259185E+03 0.  0.
    9000005    1    3    3    0    0  0.43672555814E+02 -0.23276659350E+01  0.15304588434E+02  0.46345879937E+02  0.10000000000E+01 0.  0.
    9000005    1    3    3    0    0 -0.39343995565E+02 -0.18850057408E+02  0.19034607201E+03  0.19528415650E+03  0.10000000000E+01 0.  0.
         21    1    1    2  502  501 -0.43285602490E+01  0.21177723343E+02  0.32947628919E+03  0.33018458101E+03  0.00000000000E+00 0.  1.
<mgrwt>
<rscale>  1 0.12685772E+03</rscale>
<asrwt>0</asrwt>
<pdfrwt beam="2">  1        4 0.28221284E-02 0.12685772E+03</pdfrwt>
<pdfrwt beam="1">  1       -4 0.85149348E-01 0.12685772E+03</pdfrwt>
<totfact> 0.11958098E+03</totfact>
</mgrwt>
</event>
<event>
 6    4  0.2103460E-003  0.1305542E+03  0.7818608E-02  0.1226636E+00
          4   -1    0    0  502    0  0.00000000000E+00  0.00000000000E+00  0.22574893351E+03  0.22575250581E+03  0.12700000000E+01 0. -1.
         -4   -1    0    0    0  501 -0.00000000000E+00 -0.00000000000E+00 -0.31542447888E+02  0.31568004669E+02  0.12700000000E+01 0. -1.
         25    2    1    2    0    0 -0.35859344641E+02  0.11554969192E+02  0.14142016858E+03  0.19246833104E+03  0.12499993785E+03 0.  0.
    9000005    1    3    3    0    0 -0.94191314634E+01 -0.28069260059E+02 -0.11892689294E+02  0.31922397410E+02  0.10000000000E+01 0.  0.
    9000005    1    3    3    0    0 -0.26440213178E+02  0.39624229250E+02  0.15331285787E+03  0.16054593363E+03  0.10000000000E+01 0.  0.
         21    1    1    2  502  501  0.35859344641E+02 -0.11554969192E+02  0.52786317045E+02  0.64852179441E+02  0.00000000000E+00 0. -1.
<mgrwt>
<rscale>  1 0.13055418E+03</rscale>
<asrwt>0</asrwt>
<pdfrwt beam="1">  1        4 0.34732845E-01 0.13055418E+03</pdfrwt>
<pdfrwt beam="2">  1       -4 0.48549251E-02 0.13055418E+03</pdfrwt>
<totfact> 0.32635327E+03</totfact>
</mgrwt>
</event>
<event>
 6    4  0.2103460E-003  0.1281004E+03  0.7818608E-02  0.1230302E+00
         -4   -1    0    0    0  501 -0.00000000000E+00  0.00000000000E+00  0.63326204414E+03  0.63326331762E+03  0.12700000000E+01 0.  1.
          4   -1    0    0  502    0  0.00000000000E+00 -0.00000000000E+00 -0.96074104813E+01  0.96909873675E+01  0.12700000000E+01 0.  1.
         25    2    1    2    0    0 -0.24552209448E+02  0.13523827523E+02  0.52418759869E+03  0.53961314212E+03  0.12499599842E+03 0.  0.
    9000005    1    3    3    0    0 -0.38408759844E+02 -0.49345519083E+02  0.22190014580E+03  0.23054476310E+03  0.10000000000E+01 0.  0.
    9000005    1    3    3    0    0  0.13856550396E+02  0.62869346606E+02  0.30228745289E+03  0.30906837902E+03  0.10000000000E+01 0.  0.
         21    1    1    2  502  501  0.24552209448E+02 -0.13523827523E+02  0.99467034966E+02  0.10334116288E+03  0.00000000000E+00 0.  1.
<mgrwt>
<rscale>  1 0.12810037E+03</rscale>
<asrwt>0</asrwt>
<pdfrwt beam="2">  1        4 0.14845898E-02 0.12810037E+03</pdfrwt>
<pdfrwt beam="1">  1       -4 0.97431479E-01 0.12810037E+03</pdfrwt>
<totfact> 0.23765097E+03</totfact>
</mgrwt>
</event>
<event>
 6    4  0.2103460E-003  0.1281397E+03  0.7818608E-02  0.1230243E+00
          4   -1    0    0  502    0  0.00000000000E+00  0.00000000000E+00  0.40747233327E+01  0.42680522769E+01  0.12700000000E+01 0. -1.
         -4   -1    0    0    0  501 -0.00000000000E+00 -0.00000000000E+00 -0.17288599717E+04  0.17288604381E+04  0.12700000000E+01 0. -1.
         25    2    1    2    0    0  0.10931752429E+02 -0.25949120661E+02 -0.10552752608E+04  0.10630266448E+04  0.12500764548E+03 0.  0.
    9000005    1    3    3    0    0 -0.29488490687E+02  0.40465193340E+02 -0.37812141926E+03  0.38142340077E+03  0.10000000000E+01 0.  0.
    9000005    1    3    3    0    0  0.40420243116E+02 -0.66414314001E+02 -0.67715384151E+03  0.68160324399E+03  0.10000000000E+01 0.  0.
         21    1    1    2  502  501 -0.10931752429E+02  0.25949120661E+02 -0.66950998757E+03  0.67010184564E+03  0.00000000000E+00 0. -1.
<mgrwt>
<rscale>  1 0.12813966E+03</rscale>
<asrwt>0</asrwt>
<pdfrwt beam="1">  1        4 0.64178923E-03 0.12813966E+03</pdfrwt>
<pdfrwt beam="2">  1       -4 0.26599279E+00 0.12813966E+03</pdfrwt>
<totfact> 0.56076900E+02</totfact>
</mgrwt>
</event>
<event>
 6    4  0.2103460E-003  0.1269284E+03  0.7818608E-02  0.1232086E+00
         -4   -1    0    0    0  501 -0.00000000000E+00  0.00000000000E+00  0.26348343582E+02  0.26378933062E+02  0.12700000000E+01 0. -1.
          4   -1    0    0  502    0  0.00000000000E+00 -0.00000000000E+00 -0.36354564093E+03  0.36354785921E+03  0.12700000000E+01 0. -1.
         25    2    1    2    0    0 -0.76260765705E+01  0.20663899366E+02 -0.34416507703E+03  0.36682476348E+03  0.12500261224E+03 0.  0.
    9000005    1    3    3    0    0 -0.46372113113E+02  0.98603910449E+01 -0.31124695465E+03  0.31483847758E+03  0.10000000000E+01 0.  0.
    9000005    1    3    3    0    0  0.38746036542E+02  0.10803508321E+02 -0.32918122382E+02  0.51986285892E+02  0.10000000000E+01 0.  0.
         21    1    1    2  502  501  0.76260765705E+01 -0.20663899366E+02  0.69677796880E+01  0.23102028799E+02  0.00000000000E+00 0. -1.
<mgrwt>
<rscale>  1 0.12692835E+03</rscale>
<asrwt>0</asrwt>
<pdfrwt beam="2">  1        4 0.55932619E-01 0.12692835E+03</pdfrwt>
<pdfrwt beam="1">  1       -4 0.40561153E-02 0.12692835E+03</pdfrwt>
<totfact> 0.16684381E+03</totfact>
</mgrwt>
</event>
<event>
 6    4  0.2103460E-003  0.1385870E+03  0.7818608E-02  0.1215243E+00
         -4   -1    0    0    0  501 -0.00000000000E+00  0.00000000000E+00  0.57676078649E+02  0.57690059354E+02  0.12700000000E+01 0.  1.
          4   -1    0    0  502    0  0.00000000000E+00 -0.00000000000E+00 -0.20969077908E+03  0.20969462494E+03  0.12700000000E+01 0.  1.
         25    2    1    2    0    0 -0.22306807840E+02 -0.55510825055E+02 -0.15444765056E+03  0.20751011022E+03  0.12500929449E+03 0.  0.
    9000005    1    3    3    0    0 -0.51812958502E+02 -0.69812614979E+02 -0.55214727988E+02  0.10299538857E+03  0.10000000000E+01 0.  0.
    9000005    1    3    3    0    0  0.29506150661E+02  0.14301789924E+02 -0.99232922568E+02  0.10451472166E+03  0.10000000000E+01 0.  0.
         21    1    1    2  502  501  0.22306807840E+02  0.55510825055E+02  0.24329501276E+01  0.59874574074E+02  0.00000000000E+00 0.  1.
<mgrwt>
<rscale>  1 0.13858705E+03</rscale>
<asrwt>0</asrwt>
<pdfrwt beam="2">  1        4 0.32261491E-01 0.13858705E+03</pdfrwt>
<pdfrwt beam="1">  1       -4 0.88746143E-02 0.13858705E+03</pdfrwt>
<totfact> 0.14211977E+03</totfact>
</mgrwt>
</event>
<event>
 6    4  0.2103460E-003  0.1340052E+03  0.7818608E-02  0.1221631E+00
         -4   -1    0    0    0  501 -0.00000000000E+00  0.00000000000E+00  0.38083415557E+03  0.38083627315E+03  0.12700000000E+01 0.  1.
          4   -1    0    0  502    0  0.00000000000E+00 -0.00000000000E+00 -0.13949414386E+03  0.13949992499E+03  0.12700000000E+01 0.  1.
         25    2    1    2    0    0  0.29219843794E+02  0.38432577156E+02 -0.10525207148E+03  0.17039772586E+03  0.12500609652E+03 0.  0.
    9000005    1    3    3    0    0  0.67325575496E+02  0.58540414591E+02 -0.83158388736E+02  0.12196733527E+03  0.10000000000E+01 0.  0.
    9000005    1    3    3    0    0 -0.38105731702E+02 -0.20107837435E+02 -0.22093682745E+02  0.48430390584E+02  0.10000000000E+01 0.  0.
         21    1    1    2  502  501 -0.29219843794E+02 -0.38432577156E+02  0.34659208319E+03  0.34993847229E+03  0.00000000000E+00 0.  1.
<mgrwt>
<rscale>  1 0.13400517E+03</rscale>
<asrwt>0</asrwt>
<pdfrwt beam="2">  1        4 0.21461245E-01 0.13400517E+03</pdfrwt>
<pdfrwt beam="1">  1       -4 0.58590477E-01 0.13400517E+03</pdfrwt>
<totfact> 0.92763795E+01</totfact>
</mgrwt>
</event>
<event>
 6    4  0.2103460E-003  0.1270016E+03  0.7818608E-02  0.1231974E+00
          4   -1    0    0  502    0  0.00000000000E+00  0.00000000000E+00  0.17496741683E+02  0.17542772572E+02  0.12700000000E+01 0.  1.
         -4   -1    0    0    0  501 -0.00000000000E+00 -0.00000000000E+00 -0.33135987102E+03  0.33136230477E+03  0.12700000000E+01 0.  1.
         25    2    1    2    0    0 -0.21159958334E+02  0.75206912983E+01 -0.23770722772E+03  0.26950718074E+03  0.12500035890E+03 0.  0.
    9000005    1    3    3    0    0  0.51962803483E+00  0.65227048686E+02 -0.11654191067E+03  0.13355843229E+03  0.10000000000E+01 0.  0.
    9000005    1    3    3    0    0 -0.21679586368E+02 -0.57706357387E+02 -0.12116531704E+03  0.13594874844E+03  0.10000000000E+01 0.  0.
         21    1    1    2  502  501  0.21159958334E+02 -0.75206912983E+01 -0.76155901623E+02  0.79397896611E+02  0.00000000000E+00 0.  1.
<mgrwt>
<rscale>  1 0.12700155E+03</rscale>
<asrwt>0</asrwt>
<pdfrwt beam="1">  1        4 0.26955347E-02 0.12700155E+03</pdfrwt>
<pdfrwt beam="2">  1       -4 0.50982165E-01 0.12700155E+03</pdfrwt>
<totfact> 0.38372429E+03</totfact>
</mgrwt>
</event>
<event>
 6    4  0.2103460E-003  0.1354309E+03  0.7818608E-02  0.1219613E+00
         -4   -1    0    0    0  501 -0.00000000000E+00  0.00000000000E+00  0.70066186543E+03  0.70066301641E+03  0.12700000000E+01 0.  1.
          4   -1    0    0  502    0  0.00000000000E+00 -0.00000000000E+00 -0.14872084180E+02  0.14926211437E+02  0.12700000000E+01 0.  1.
         25    2    1    2    0    0 -0.39325807775E+02  0.34213385915E+02  0.34147082039E+03  0.36734703950E+03  0.12499780528E+03 0.  0.
    9000005    1    3    3    0    0 -0.20702813061E+00  0.70475056947E+02  0.26425831707E+03  0.27349631561E+03  0.10000000000E+01 0.  0.
    9000005    1    3    3    0    0 -0.39118779644E+02 -0.36261671032E+02  0.77212503315E+02  0.93850723892E+02  0.10000000000E+01 0.  0.
         21    1    1    2  502  501  0.39325807775E+02 -0.34213385915E+02  0.34431896086E+03  0.34824218834E+03  0.00000000000E+00 0.  1.
<mgrwt>
<rscale>  1 0.13543089E+03</rscale>
<asrwt>0</asrwt>
<pdfrwt beam="2">  1        4 0.22922653E-02 0.13543089E+03</pdfrwt>
<pdfrwt beam="1">  1       -4 0.10779838E+00 0.13543089E+03</pdfrwt>
<totfact> 0.97623103E+02</totfact>
</mgrwt>
</event>
<event>
 6    4  0.2103460E-003  0.1272977E+03  0.7818608E-02  0.1231521E+00
          4   -1    0    0  502    0  0.00000000000E+00  0.00000000000E+00  0.24457275569E+03  0.24457605305E+03  0.12700000000E+01 0. -1.
         -4   -1    0    0    0  501 -0.00000000000E+00 -0.00000000000E+00 -0.35257745577E+02  0.35280611151E+02  0.12700000000E+01 0. -1.
         25    2    1    2    0    0 -0.16686345430E+02  0.17338298428E+02  0.21948774305E+03  0.25373128934E+03  0.12500258849E+03 0.  0.
    9000005    1    3    3    0    0 -0.81945778487E+01  0.69169075417E+02  0.88669907292E+02  0.11276020823E+03  0.10000000000E+01 0.  0.
    9000005    1    3    3    0    0 -0.84917675815E+01 -0.51830776989E+02  0.13081783575E+03  0.14097108112E+03  0.10000000000E+01 0.  0.
         21    1    1    2  502  501  0.16686345430E+02 -0.17338298428E+02 -0.10172732932E+02  0.26125374859E+02  0.00000000000E+00 0. -1.
<mgrwt>
<rscale>  1 0.12729767E+03</rscale>
<asrwt>0</asrwt>
<pdfrwt beam="1">  1        4 0.37628590E-01 0.12729767E+03</pdfrwt>
<pdfrwt beam="2">  1       -4 0.54262811E-02 0.12729767E+03</pdfrwt>
<totfact> 0.23226958E+03</totfact>
</mgrwt>
</event>
<event>
 6    4  0.2103460E-003  0.1314869E+03  0.7818608E-02  0.1225266E+00
          4   -1    0    0  502    0  0.00000000000E+00  0.00000000000E+00  0.11347532445E+02  0.11418379595E+02  0.12700000000E+01 0. -1.
         -4   -1    0    0    0  501 -0.00000000000E+00 -0.00000000000E+00 -0.65641070134E+03  0.65641192991E+03  0.12700000000E+01 0. -1.
         25    2    1    2    0    0  0.23325617420E+02 -0.33413492723E+02 -0.51584499494E+03  0.53233904630E+03  0.12501302130E+03 0.  0.
    9000005    1    3    3    0    0  0.51490688671E+02 -0.63907560026E+02 -0.24632210738E+03  0.25963637617E+03  0.10000000000E+01 0.  0.
    9000005    1    3    3    0    0 -0.28165071250E+02  0.30494067303E+02 -0.26952288755E+03  0.27270267013E+03  0.10000000000E+01 0.  0.
         21    1    1    2  502  501 -0.23325617420E+02  0.33413492723E+02 -0.12921817396E+03  0.13549126320E+03  0.00000000000E+00 0. -1.
<mgrwt>
<rscale>  1 0.13148689E+03</rscale>
<asrwt>0</asrwt>
<pdfrwt beam="1">  1        4 0.17513190E-02 0.13148689E+03</pdfrwt>
<pdfrwt beam="2">  1       -4 0.10099178E+00 0.13148689E+03</pdfrwt>
<totfact> 0.17100996E+03</totfact>
</mgrwt>
</event>
<event>
 6    4  0.2103460E-003  0.1280588E+03  0.7818608E-02  0.1230365E+00
         -4   -1    0    0    0  501 -0.00000000000E+00  0.00000000000E+00  0.92541994284E+01  0.93409371618E+01  0.12700000000E+01 0. -1.
          4   -1    0    0  502    0  0.00000000000E+00 -0.00000000000E+00 -0.66830854518E+03  0.66830975188E+03  0.12700000000E+01 0. -1.
         25    2    1    2    0    0  0.21992811986E+02  0.17034283620E+02 -0.49740152241E+03  0.51362177119E+03  0.12500079499E+03 0.  0.
    9000005    1    3    3    0    0 -0.12266416917E+02 -0.44905858337E+02 -0.30652047079E+03  0.31003677219E+03  0.10000000000E+01 0.  0.
    9000005    1    3    3    0    0  0.34259228903E+02  0.61940141957E+02 -0.19088105162E+03  0.20358499900E+03  0.10000000000E+01 0.  0.
         21    1    1    2  502  501 -0.21992811986E+02 -0.17034283620E+02 -0.16165282334E+03  0.16402891785E+03  0.00000000000E+00 0. -1.
<mgrwt>
<rscale>  1 0.12805877E+03</rscale>
<asrwt>0</asrwt>
<pdfrwt beam="2">  1        4 0.10282343E+00 0.12805877E+03</pdfrwt>
<pdfrwt beam="1">  1       -4 0.14304885E-02 0.12805877E+03</pdfrwt>
<totfact> 0.22201594E+03</totfact>
</mgrwt>
</event>
<event>
 6    4  0.2103460E-003  0.1312724E+03  0.7818608E-02  0.1225580E+00
         -4   -1    0    0    0  501 -0.00000000000E+00  0.00000000000E+00  0.36220890566E+02  0.36243148502E+02  0.12700000000E+01 0.  1.
          4   -1    0    0  502    0  0.00000000000E+00 -0.00000000000E+00 -0.41338478218E+03  0.41338673302E+03  0.12700000000E+01 0.  1.
         25    2    1    2    0    0 -0.35554460849E+02  0.18525274255E+02 -0.38673914135E+03  0.40841106446E+03  0.12500051458E+03 0.  0.
    9000005    1    3    3    0    0 -0.70914099934E+02  0.32668965496E+02 -0.15495452359E+03  0.17351649851E+03  0.10000000000E+01 0.  0.
    9000005    1    3    3    0    0  0.35359639085E+02 -0.14143691242E+02 -0.23178461776E+03  0.23489456594E+03  0.10000000000E+01 0.  0.
         21    1    1    2  502  501  0.35554460849E+02 -0.18525274255E+02  0.95752497402E+01  0.41218817063E+02  0.00000000000E+00 0.  1.
<mgrwt>
<rscale>  1 0.13127237E+03</rscale>
<asrwt>0</asrwt>
<pdfrwt beam="2">  1        4 0.63599518E-01 0.13127237E+03</pdfrwt>
<pdfrwt beam="1">  1       -4 0.55743072E-02 0.13127237E+03</pdfrwt>
<totfact> 0.77171867E+02</totfact>
</mgrwt>
</event>
<event>
 6    4  0.2103460E-003  0.1410539E+03  0.7818608E-02  0.1211918E+00
         -4   -1    0    0    0  501 -0.00000000000E+00  0.00000000000E+00  0.30943380349E+03  0.30943640969E+03  0.12700000000E+01 0. -1.
          4   -1    0    0  502    0  0.00000000000E+00 -0.00000000000E+00 -0.91352150561E+02  0.91360978060E+02  0.12700000000E+01 0. -1.
         25    2    1    2    0    0  0.13605533515E+00 -0.65352574649E+02 -0.30036765647E+02  0.14421654832E+03  0.12500091198E+03 0.  0.
    9000005    1    3    3    0    0 -0.39846127059E+02 -0.75195577787E+01 -0.56098905155E+02  0.69226763252E+02  0.10000000000E+01 0.  0.
    9000005    1    3    3    0    0  0.39982182394E+02 -0.57833016870E+02  0.26062139508E+02  0.74989785071E+02  0.10000000000E+01 0.  0.
         21    1    1    2  502  501 -0.13605533515E+00  0.65352574649E+02  0.24811841857E+03  0.25658083942E+03  0.00000000000E+00 0. -1.
<mgrwt>
<rscale>  1 0.14105391E+03</rscale>
<asrwt>0</asrwt>
<pdfrwt beam="2">  1        4 0.14055057E-01 0.14105391E+03</pdfrwt>
<pdfrwt beam="1">  1       -4 0.47606080E-01 0.14105391E+03</pdfrwt>
<totfact> 0.30369394E+02</totfact>
</mgrwt>
</event>
<event>
 6    4  0.2103460E-003  0.1272068E+03  0.7818608E-02  0.1231660E+00
         -4   -1    0    0    0  501 -0.00000000000E+00  0.00000000000E+00  0.78612655318E+03  0.78612757903E+03  0.12700000000E+01 0.  1.
          4   -1    0    0  502    0  0.00000000000E+00 -0.00000000000E+00 -0.10861884279E+02  0.10935878112E+02  0.12700000000E+01 0.  1.
         25    2    1    2    0    0 -0.12053731530E+02  0.20279116235E+02  0.37274921764E+03  0.39385727725E+03  0.12500016238E+03 0.  0.
    9000005    1    3    3    0    0 -0.48118614716E+02  0.56439458119E+02  0.18589629934E+03  0.20014806425E+03  0.10000000000E+01 0.  0.
    9000005    1    3    3    0    0  0.36064883185E+02 -0.36160341884E+02  0.18685291830E+03  0.19370921300E+03  0.10000000000E+01 0.  0.
         21    1    1    2  502  501  0.12053731530E+02 -0.20279116235E+02  0.40251545126E+03  0.40320617989E+03  0.00000000000E+00 0.  1.
<mgrwt>
<rscale>  1 0.12720682E+03</rscale>
<asrwt>0</asrwt>
<pdfrwt beam="2">  1        4 0.16768295E-02 0.12720682E+03</pdfrwt>
<pdfrwt beam="1">  1       -4 0.12094834E+00 0.12720682E+03</pdfrwt>
<totfact> 0.11860711E+03</totfact>
</mgrwt>
</event>
<event>
 6    4  0.2103460E-003  0.1406385E+03  0.7818608E-02  0.1212472E+00
         -4   -1    0    0    0  501 -0.00000000000E+00  0.00000000000E+00  0.14808570001E+03  0.14809114574E+03  0.12700000000E+01 0. -1.
          4   -1    0    0  502    0  0.00000000000E+00 -0.00000000000E+00 -0.12234268669E+03  0.12234927825E+03  0.12700000000E+01 0. -1.
         25    2    1    2    0    0 -0.51089741092E+02  0.39299478762E+02 -0.68365406965E+02  0.15637462962E+03  0.12499834097E+03 0.  0.
    9000005    1    3    3    0    0 -0.75697135617E+02  0.14021084725E+02  0.26891748560E+01  0.77038164690E+02  0.10000000000E+01 0.  0.
    9000005    1    3    3    0    0  0.24607394525E+02  0.25278394037E+02 -0.71054581821E+02  0.79336464934E+02  0.10000000000E+01 0.  0.
         21    1    1    2  502  501  0.51089741092E+02 -0.39299478762E+02  0.94108420283E+02  0.11406579436E+03  0.00000000000E+00 0. -1.
<mgrwt>
<rscale>  1 0.14063853E+03</rscale>
<asrwt>0</asrwt>
<pdfrwt beam="2">  1        4 0.18822878E-01 0.14063853E+03</pdfrwt>
<pdfrwt beam="1">  1       -4 0.22783341E-01 0.14063853E+03</pdfrwt>
<totfact> 0.74595904E+02</totfact>
</mgrwt>
</event>
<event>
 6    4  0.2103460E-003  0.1274381E+03  0.7818608E-02  0.1231307E+00
         -4   -1    0    0    0  501 -0.00000000000E+00  0.00000000000E+00  0.33308602265E+02  0.33332804935E+02  0.12700000000E+01 0. -1.
          4   -1    0    0  502    0  0.00000000000E+00 -0.00000000000E+00 -0.20663153821E+03  0.20663544101E+03  0.12700000000E+01 0. -1.
         25    2    1    2    0    0 -0.24232815660E+02  0.53214033365E+01 -0.17335657327E+03  0.21515800976E+03  0.12499968391E+03 0.  0.
    9000005    1    3    3    0    0  0.24969081440E+02  0.22593048055E+02  0.45370887167E+00  0.33691344588E+02  0.10000000000E+01 0.  0.
    9000005    1    3    3    0    0 -0.49201897100E+02 -0.17271644719E+02 -0.17381028214E+03  0.18146666517E+03  0.10000000000E+01 0.  0.
         21    1    1    2  502  501  0.24232815660E+02 -0.53214033365E+01  0.33637328672E-01  0.24810236189E+02  0.00000000000E+00 0. -1.
<mgrwt>
<rscale>  1 0.12743809E+03</rscale>
<asrwt>0</asrwt>
<pdfrwt beam="2">  1        4 0.31791629E-01 0.12743809E+03</pdfrwt>
<pdfrwt beam="1">  1       -4 0.51265624E-02 0.12743809E+03</pdfrwt>
<totfact> 0.35214514E+03</totfact>
</mgrwt>
</event>
<event>
 6    4  0.2103460E-003  0.1285347E+03  0.7818608E-02  0.1229646E+00
         -4   -1    0    0    0  501 -0.00000000000E+00  0.00000000000E+00  0.33791295915E+02  0.33815153107E+02  0.12700000000E+01 0.  1.
          4   -1    0    0  502    0  0.00000000000E+00 -0.00000000000E+00 -0.19553318080E+03  0.19553730512E+03  0.12700000000E+01 0.  1.
         25    2    1    2    0    0 -0.15244220554E+02  0.25780751086E+02 -0.14906730219E+03  0.19683048975E+03  0.12499659087E+03 0.  0.
    9000005    1    3    3    0    0  0.20697516428E+02  0.67787631098E+02 -0.64786041379E+02  0.96030106080E+02  0.10000000000E+01 0.  0.
    9000005    1    3    3    0    0 -0.35941736982E+02 -0.42006880012E+02 -0.84281260807E+02  0.10080038367E+03  0.10000000000E+01 0.  0.
         21    1    1    2  502  501  0.15244220554E+02 -0.25780751086E+02 -0.12674582701E+02  0.32521968475E+02  0.00000000000E+00 0.  1.
<mgrwt>
<rscale>  1 0.12853475E+03</rscale>
<asrwt>0</asrwt>
<pdfrwt beam="2">  1        4 0.30084180E-01 0.12853475E+03</pdfrwt>
<pdfrwt beam="1">  1       -4 0.52008134E-02 0.12853475E+03</pdfrwt>
<totfact> 0.38284785E+03</totfact>
</mgrwt>
</event>
<event>
 6    4  0.2103460E-003  0.1276704E+03  0.7818608E-02  0.1230954E+00
         -4   -1    0    0    0  501 -0.00000000000E+00  0.00000000000E+00  0.10066296526E+02  0.10146094113E+02  0.12700000000E+01 0.  1.
          4   -1    0    0  502    0  0.00000000000E+00 -0.00000000000E+00 -0.62329226143E+03  0.62329355528E+03  0.12700000000E+01 0.  1.
         25    2    1    2    0    0 -0.15330706589E+02 -0.20968658719E+02 -0.43558761620E+03  0.45391221934E+03  0.12500006506E+03 0.  0.
    9000005    1    3    3    0    0 -0.25066001480E+02 -0.50398668943E+02 -0.84982473243E+02  0.10193797634E+03  0.10000000000E+01 0.  0.
    9000005    1    3    3    0    0  0.97352948918E+01  0.29430010224E+02 -0.35060514296E+03  0.35197424300E+03  0.10000000000E+01 0.  0.
         21    1    1    2  502  501  0.15330706589E+02  0.20968658719E+02 -0.17763834870E+03  0.17952743005E+03  0.00000000000E+00 0.  1.
<mgrwt>
<rscale>  1 0.12767040E+03</rscale>
<asrwt>0</asrwt>
<pdfrwt beam="2">  1        4 0.95897325E-01 0.12767040E+03</pdfrwt>
<pdfrwt beam="1">  1       -4 0.15548993E-02 0.12767040E+03</pdfrwt>
<totfact> 0.22948822E+03</totfact>
</mgrwt>
</event>
<event>
 6    4  0.2103460E-003  0.1268034E+03  0.7818608E-02  0.1232277E+00
         -4   -1    0    0    0  501 -0.00000000000E+00  0.00000000000E+00  0.14152298764E+02  0.14209168178E+02  0.12700000000E+01 0. -1.
          4   -1    0    0  502    0  0.00000000000E+00 -0.00000000000E+00 -0.39002159608E+03  0.39002366378E+03  0.12700000000E+01 0. -1.
         25    2    1    2    0    0  0.61850031784E+01  0.20468473136E+02 -0.33302381994E+03  0.35634809965E+03  0.12498756265E+03 0.  0.
    9000005    1    3    3    0    0 -0.46009018432E+02  0.83882578480E+01 -0.50695110432E+02  0.68979611978E+02  0.10000000000E+01 0.  0.
    9000005    1    3    3    0    0  0.52194021611E+02  0.12080215288E+02 -0.28232870951E+03  0.28736848767E+03  0.10000000000E+01 0.  0.
         21    1    1    2  502  501 -0.61850031784E+01 -0.20468473136E+02 -0.42845477373E+02  0.47884732308E+02  0.00000000000E+00 0. -1.
<mgrwt>
<rscale>  1 0.12680340E+03</rscale>
<asrwt>0</asrwt>
<pdfrwt beam="2">  1        4 0.60007848E-01 0.12680340E+03</pdfrwt>
<pdfrwt beam="1">  1       -4 0.21818107E-02 0.12680340E+03</pdfrwt>
<totfact> 0.37999526E+03</totfact>
</mgrwt>
</event>
<event>
 6    4  0.2103460E-003  0.1325382E+03  0.7818608E-02  0.1223737E+00
         -4   -1    0    0    0  501 -0.00000000000E+00  0.00000000000E+00  0.17958315036E+04  0.17958319527E+04  0.12700000000E+01 0.  1.
          4   -1    0    0  502    0  0.00000000000E+00 -0.00000000000E+00 -0.43044494914E+01  0.44878932055E+01  0.12700000000E+01 0.  1.
         25    2    1    2    0    0  0.43812708794E+02 -0.46154577271E+01  0.14264875783E+04  0.14326315611E+04  0.12500209100E+03 0.  0.
    9000005    1    3    3    0    0 -0.32639881328E+01 -0.50544046576E+02  0.30180639380E+03  0.30602851763E+03  0.10000000000E+01 0.  0.
    9000005    1    3    3    0    0  0.47076696927E+02  0.45928588849E+02  0.11246811845E+04  0.11266030434E+04  0.10000000000E+01 0.  0.
         21    1    1    2  502  501 -0.43812708794E+02  0.46154577271E+01  0.36503947583E+03  0.36768828485E+03  0.00000000000E+00 0.  1.
<mgrwt>
<rscale>  1 0.13253822E+03</rscale>
<asrwt>0</asrwt>
<pdfrwt beam="2">  1        4 0.67636708E-03 0.13253822E+03</pdfrwt>
<pdfrwt beam="1">  1       -4 0.27629653E+00 0.13253822E+03</pdfrwt>
<totfact> 0.45519235E+02</totfact>
</mgrwt>
</event>
<event>
 6    4  0.2103460E-003  0.1296874E+03  0.7818608E-02  0.1227920E+00
         -4   -1    0    0    0  501 -0.00000000000E+00  0.00000000000E+00  0.50734355326E+02  0.50750248377E+02  0.12700000000E+01 0. -1.
          4   -1    0    0  502    0  0.00000000000E+00 -0.00000000000E+00 -0.26463691504E+03  0.26463996241E+03  0.12700000000E+01 0. -1.
         25    2    1    2    0    0  0.26065317010E+02 -0.22685451519E+02 -0.23951955983E+03  0.27237554867E+03  0.12499915804E+03 0.  0.
    9000005    1    3    3    0    0  0.69044699419E+02 -0.18052147294E+02 -0.80508897225E+02  0.10759058078E+03  0.10000000000E+01 0.  0.
    9000005    1    3    3    0    0 -0.42979382409E+02 -0.46333042253E+01 -0.15901066261E+03  0.16478496789E+03  0.10000000000E+01 0.  0.
         21    1    1    2  502  501 -0.26065317010E+02  0.22685451519E+02  0.25617000120E+02  0.43014662112E+02  0.00000000000E+00 0. -1.
<mgrwt>
<rscale>  1 0.12968739E+03</rscale>
<asrwt>0</asrwt>
<pdfrwt beam="2">  1        4 0.40714828E-01 0.12968739E+03</pdfrwt>
<pdfrwt beam="1">  1       -4 0.78067426E-02 0.12968739E+03</pdfrwt>
<totfact> 0.11039401E+03</totfact>
</mgrwt>
</event>
<event>
 6    4  0.2103460E-003  0.1363794E+03  0.7818608E-02  0.1218286E+00
         -4   -1    0    0    0  501 -0.00000000000E+00  0.00000000000E+00  0.13329338953E+03  0.13329943958E+03  0.12700000000E+01 0. -1.
          4   -1    0    0  502    0  0.00000000000E+00 -0.00000000000E+00 -0.98844809517E+02  0.98852967930E+02  0.12700000000E+01 0. -1.
         25    2    1    2    0    0 -0.54492072767E+02 -0.23119393483E+01 -0.37900885561E+02  0.14154790306E+03  0.12499840269E+03 0.  0.
    9000005    1    3    3    0    0  0.30707410190E+02 -0.27164118647E+02  0.77564047088E+01  0.41737227944E+02  0.10000000000E+01 0.  0.
    9000005    1    3    3    0    0 -0.85199482957E+02  0.24852179298E+02 -0.45657290270E+02  0.99810675114E+02  0.10000000000E+01 0.  0.
         21    1    1    2  502  501  0.54492072767E+02  0.23119393483E+01  0.72349465572E+02  0.90604504449E+02  0.00000000000E+00 0.  1.
<mgrwt>
<rscale>  1 0.13637937E+03</rscale>
<asrwt>0</asrwt>
<pdfrwt beam="2">  1        4 0.15207987E-01 0.13637937E+03</pdfrwt>
<pdfrwt beam="1">  1       -4 0.20507768E-01 0.13637937E+03</pdfrwt>
<totfact> 0.13082239E+03</totfact>
</mgrwt>
</event>
<event>
 6    4  0.2103460E-003  0.1355815E+03  0.7818608E-02  0.1219401E+00
          4   -1    0    0  502    0  0.00000000000E+00  0.00000000000E+00  0.18375728087E+03  0.18376166949E+03  0.12700000000E+01 0. -1.
         -4   -1    0    0    0  501 -0.00000000000E+00 -0.00000000000E+00 -0.10204727752E+03  0.10205517992E+03  0.12700000000E+01 0. -1.
         25    2    1    2    0    0 -0.52149294009E+02  0.60905585801E+01  0.14835381048E+03  0.20097558116E+03  0.12500274945E+03 0.  0.
    9000005    1    3    3    0    0  0.23143938512E+02 -0.95540216255E+01  0.11403893642E+03  0.11675958307E+03  0.10000000000E+01 0.  0.
    9000005    1    3    3    0    0 -0.75293232521E+02  0.15644580206E+02  0.34314874060E+02  0.84215998095E+02  0.10000000000E+01 0.  0.
         21    1    1    2  502  501  0.52149294009E+02 -0.60905585801E+01 -0.66643807124E+02  0.84841268245E+02  0.00000000000E+00 0. -1.
<mgrwt>
<rscale>  1 0.13558146E+03</rscale>
<asrwt>0</asrwt>
<pdfrwt beam="1">  1        4 0.28271296E-01 0.13558146E+03</pdfrwt>
<pdfrwt beam="2">  1       -4 0.15700527E-01 0.13558146E+03</pdfrwt>
<totfact> 0.68484002E+02</totfact>
</mgrwt>
</event>
<event>
 6    4  0.2103460E-003  0.1289917E+03  0.7818608E-02  0.1228960E+00
          4   -1    0    0  502    0  0.00000000000E+00  0.00000000000E+00  0.37523266427E+02  0.37544752274E+02  0.12700000000E+01 0. -1.
         -4   -1    0    0    0  501 -0.00000000000E+00 -0.00000000000E+00 -0.34763990068E+03  0.34764222046E+03  0.12700000000E+01 0. -1.
         25    2    1    2    0    0  0.59747194245E+01 -0.31268676365E+02 -0.77669946599E+02  0.15057049847E+03  0.12500170803E+03 0.  0.
    9000005    1    3    3    0    0  0.16987309845E+02 -0.78494259346E+02 -0.44643257141E+02  0.91890901912E+02  0.10000000000E+01 0.  0.
    9000005    1    3    3    0    0 -0.11012590421E+02  0.47225582981E+02 -0.33026689457E+02  0.58679596558E+02  0.10000000000E+01 0.  0.
         21    1    1    2  502  501 -0.59747194245E+01  0.31268676365E+02 -0.23244668766E+03  0.23461647427E+03  0.00000000000E+00 0. -1.
<mgrwt>
<rscale>  1 0.12899168E+03</rscale>
<asrwt>0</asrwt>
<pdfrwt beam="1">  1        4 0.57746417E-02 0.12899168E+03</pdfrwt>
<pdfrwt beam="2">  1       -4 0.53484891E-01 0.12899168E+03</pdfrwt>
<totfact> 0.10425098E+03</totfact>
</mgrwt>
</event>
<event>
 6    4  0.2103460E-003  0.1270574E+03  0.7818608E-02  0.1231888E+00
         -4   -1    0    0    0  501 -0.00000000000E+00  0.00000000000E+00  0.57941418920E+02  0.57955335617E+02  0.12700000000E+01 0. -1.
          4   -1    0    0  502    0  0.00000000000E+00 -0.00000000000E+00 -0.10551625973E+03  0.10552390236E+03  0.12700000000E+01 0. -1.
         25    2    1    2    0    0 -0.20593989803E+02 -0.94839781946E+01 -0.56576914819E+02  0.13908465671E+03  0.12501814342E+03 0.  0.
    9000005    1    3    3    0    0 -0.22818981790E+02 -0.23042363326E+02 -0.93875108574E+02  0.99323675160E+02  0.10000000000E+01 0.  0.
    9000005    1    3    3    0    0  0.22249919869E+01  0.13558385131E+02  0.37298193755E+02  0.39760981554E+02  0.10000000000E+01 0.  0.
         21    1    1    2  502  501  0.20593989803E+02  0.94839781946E+01  0.90020740046E+01  0.24394581259E+02  0.00000000000E+00 0. -1.
<mgrwt>
<rscale>  1 0.12705745E+03</rscale>
<asrwt>0</asrwt>
<pdfrwt beam="2">  1        4 0.16234929E-01 0.12705745E+03</pdfrwt>
<pdfrwt beam="1">  1       -4 0.89157229E-02 0.12705745E+03</pdfrwt>
<totfact> 0.48509203E+03</totfact>
</mgrwt>
</event>
<event>
 6    4  0.2103460E-003  0.1279252E+03  0.7818608E-02  0.1230567E+00
          4   -1    0    0  502    0  0.00000000000E+00  0.00000000000E+00  0.33685570439E+03  0.33685809843E+03  0.12700000000E+01 0. -1.
         -4   -1    0    0    0  501 -0.00000000000E+00 -0.00000000000E+00 -0.19904703632E+02  0.19945178030E+02  0.12700000000E+01 0. -1.
         25    2    1    2    0    0  0.48995134029E+01  0.26677180835E+02  0.29622640543E+03  0.32266845465E+03  0.12501668346E+03 0.  0.
    9000005    1    3    3    0    0 -0.33120862708E+02 -0.39465251636E+02  0.12558245625E+03  0.13574406415E+03  0.10000000000E+01 0.  0.
    9000005    1    3    3    0    0  0.38020376111E+02  0.66142432470E+02  0.17064394918E+03  0.18692439050E+03  0.10000000000E+01 0.  0.
         21    1    1    2  502  501 -0.48995134029E+01 -0.26677180835E+02  0.20724595329E+02  0.34134821816E+02  0.00000000000E+00 0. -1.
<mgrwt>
<rscale>  1 0.12792517E+03</rscale>
<asrwt>0</asrwt>
<pdfrwt beam="1">  1        4 0.51827249E-01 0.12792517E+03</pdfrwt>
<pdfrwt beam="2">  1       -4 0.30655599E-02 0.12792517E+03</pdfrwt>
<totfact> 0.30406618E+03</totfact>
</mgrwt>
</event>
<event>
 6    4  0.2103460E-003  0.1334076E+03  0.7818608E-02  0.1222485E+00
          4   -1    0    0  502    0  0.00000000000E+00  0.00000000000E+00  0.70987254906E+02  0.70998614487E+02  0.12700000000E+01 0. -1.
         -4   -1    0    0    0  501 -0.00000000000E+00 -0.00000000000E+00 -0.11992837848E+03  0.11993510273E+03  0.12700000000E+01 0. -1.
         25    2    1    2    0    0  0.32193932921E+02 -0.33713976404E+02 -0.17141874332E+02  0.13450434743E+03  0.12499797638E+03 0.  0.
    9000005    1    3    3    0    0  0.51828737938E+01 -0.35473157029E+02  0.50328764322E+02  0.61799608158E+02  0.10000000000E+01 0.  0.
    9000005    1    3    3    0    0  0.27011059127E+02  0.17591806249E+01 -0.67470638654E+02  0.72704739268E+02  0.10000000000E+01 0.  0.
         21    1    1    2  502  501 -0.32193932921E+02  0.33713976404E+02 -0.31799249247E+02  0.56429369787E+02  0.00000000000E+00 0.  1.
<mgrwt>
<rscale>  1 0.13340755E+03</rscale>
<asrwt>0</asrwt>
<pdfrwt beam="1">  1        4 0.10922507E-01 0.13340755E+03</pdfrwt>
<pdfrwt beam="2">  1       -4 0.18451911E-01 0.13340755E+03</pdfrwt>
<totfact> 0.27818615E+03</totfact>
</mgrwt>
</event>
<event>
 6    4  0.2103460E-003  0.1293962E+03  0.7818608E-02  0.1228354E+00
          4   -1    0    0  502    0  0.00000000000E+00  0.00000000000E+00  0.63125596344E+02  0.63138370377E+02  0.12700000000E+01 0.  1.
         -4   -1    0    0    0  501 -0.00000000000E+00 -0.00000000000E+00 -0.12355407993E+03  0.12356060686E+03  0.12700000000E+01 0.  1.
         25    2    1    2    0    0 -0.24033270659E+02  0.23246932319E+02 -0.14957764704E+02  0.13025781994E+03  0.12500138788E+03 0.  0.
    9000005    1    3    3    0    0 -0.52107058014E+02  0.61977295544E+02 -0.15306006724E+02  0.82411191593E+02  0.10000000000E+01 0.  0.
    9000005    1    3    3    0    0  0.28073787355E+02 -0.38730363225E+02  0.34824202038E+00  0.47846628351E+02  0.10000000000E+01 0.  0.
         21    1    1    2  502  501  0.24033270659E+02 -0.23246932319E+02 -0.45470718883E+02  0.56441157293E+02  0.00000000000E+00 0.  1.
<mgrwt>
<rscale>  1 0.12939616E+03</rscale>
<asrwt>0</asrwt>
<pdfrwt beam="1">  1        4 0.97131149E-02 0.12939616E+03</pdfrwt>
<pdfrwt beam="2">  1       -4 0.19009805E-01 0.12939616E+03</pdfrwt>
<totfact> 0.31923317E+03</totfact>
</mgrwt>
</event>
<event>
 6    4  0.2103460E-003  0.1294416E+03  0.7818608E-02  0.1228287E+00
          4   -1    0    0  502    0  0.00000000000E+00  0.00000000000E+00  0.19309023309E+02  0.19350743685E+02  0.12700000000E+01 0.  1.
         -4   -1    0    0    0  501 -0.00000000000E+00 -0.00000000000E+00 -0.35995465589E+03  0.35995689630E+03  0.12700000000E+01 0.  1.
         25    2    1    2    0    0 -0.42474224380E+01  0.33342004516E+02 -0.23305583850E+03  0.26658987896E+03  0.12500163935E+03 0.  0.
    9000005    1    3    3    0    0 -0.55588749613E+02  0.28728881332E+02 -0.62637891962E+02  0.88543566766E+02  0.10000000000E+01 0.  0.
    9000005    1    3    3    0    0  0.51341327175E+02  0.46131231836E+01 -0.17041794654E+03  0.17804631219E+03  0.10000000000E+01 0.  0.
         21    1    1    2  502  501  0.42474224380E+01 -0.33342004516E+02 -0.10758979407E+03  0.11271776103E+03  0.00000000000E+00 0.  1.
<mgrwt>
<rscale>  1 0.12944165E+03</rscale>
<asrwt>0</asrwt>
<pdfrwt beam="1">  1        4 0.29740008E-02 0.12944165E+03</pdfrwt>
<pdfrwt beam="2">  1       -4 0.55381016E-01 0.12944165E+03</pdfrwt>
<totfact> 0.27895826E+03</totfact>
</mgrwt>
</event>
<event>
 6    4  0.2103460E-003  0.1285591E+03  0.7818608E-02  0.1229610E+00
          4   -1    0    0  502    0  0.00000000000E+00  0.00000000000E+00  0.27589364799E+02  0.27618579797E+02  0.12700000000E+01 0. -1.
         -4   -1    0    0    0  501 -0.00000000000E+00 -0.00000000000E+00 -0.22950697012E+03  0.22951048393E+03  0.12700000000E+01 0. -1.
         25    2    1    2    0    0  0.25869856024E+02 -0.15326109585E+02 -0.17174814104E+03  0.21453404452E+03  0.12499317271E+03 0.  0.
    9000005    1    3    3    0    0 -0.99748759174E+01 -0.11536006173E+02 -0.17738110331E+03  0.17803829195E+03  0.10000000000E+01 0.  0.
    9000005    1    3    3    0    0  0.35844731941E+02 -0.37901034113E+01  0.56329622761E+01  0.36495752572E+02  0.10000000000E+01 0.  0.
         21    1    1    2  502  501 -0.25869856024E+02  0.15326109585E+02 -0.30169464281E+02  0.42595019200E+02  0.00000000000E+00 0. -1.
<mgrwt>
<rscale>  1 0.12855906E+03</rscale>
<asrwt>0</asrwt>
<pdfrwt beam="1">  1        4 0.42470354E-02 0.12855906E+03</pdfrwt>
<pdfrwt beam="2">  1       -4 0.35311281E-01 0.12855906E+03</pdfrwt>
<totfact> 0.38997769E+03</totfact>
</mgrwt>
</event>
<event>
 6    4  0.2103460E-003  0.1459800E+03  0.7818608E-02  0.1205502E+00
         -4   -1    0    0    0  501 -0.00000000000E+00  0.00000000000E+00  0.87304460748E+02  0.87313697474E+02  0.12700000000E+01 0. -1.
          4   -1    0    0  502    0  0.00000000000E+00 -0.00000000000E+00 -0.30337306491E+03  0.30337572318E+03  0.12700000000E+01 0. -1.
         25    2    1    2    0    0 -0.51866386981E+02  0.54738271677E+02 -0.26376243529E+03  0.30146441287E+03  0.12499507780E+03 0.  0.
    9000005    1    3    3    0    0 -0.46473609888E+02  0.62225872776E+00 -0.23573433141E+03  0.24027454844E+03  0.10000000000E+01 0.  0.
    9000005    1    3    3    0    0 -0.53927770933E+01  0.54116012950E+02 -0.28028103878E+02  0.61189864433E+02  0.10000000000E+01 0.  0.
         21    1    1    2  502  501  0.51866386981E+02 -0.54738271677E+02  0.47693831130E+02  0.89225007775E+02  0.00000000000E+00 0. -1.
<mgrwt>
<rscale>  1 0.14598003E+03</rscale>
<asrwt>0</asrwt>
<pdfrwt beam="2">  1        4 0.46673694E-01 0.14598003E+03</pdfrwt>
<pdfrwt beam="1">  1       -4 0.13432371E-01 0.14598003E+03</pdfrwt>
<totfact> 0.34403484E+02</totfact>
</mgrwt>
</event>
<event>
 6    4  0.2103460E-003  0.1283449E+03  0.7818608E-02  0.1229932E+00
          4   -1    0    0  502    0  0.00000000000E+00  0.00000000000E+00  0.12874734931E+03  0.12875361297E+03  0.12700000000E+01 0. -1.
         -4   -1    0    0    0  501 -0.00000000000E+00 -0.00000000000E+00 -0.60339479554E+02  0.60352843287E+02  0.12700000000E+01 0. -1.
         25    2    1    2    0    0  0.19034112500E+02  0.22024206421E+02  0.86554942827E+02  0.15480369590E+03  0.12500025211E+03 0.  0.
    9000005    1    3    3    0    0 -0.69547500342E-01 -0.50524268943E+02  0.50932509918E+02  0.71748359951E+02  0.10000000000E+01 0.  0.
    9000005    1    3    3    0    0  0.19103660000E+02  0.72548475363E+02  0.35622432909E+02  0.83055335947E+02  0.10000000000E+01 0.  0.
         21    1    1    2  502  501 -0.19034112500E+02 -0.22024206421E+02 -0.18147073076E+02  0.34302760360E+02  0.00000000000E+00 0. -1.
<mgrwt>
<rscale>  1 0.12834495E+03</rscale>
<asrwt>0</asrwt>
<pdfrwt beam="1">  1        4 0.19808794E-01 0.12834495E+03</pdfrwt>
<pdfrwt beam="2">  1       -4 0.92845068E-02 0.12834495E+03</pdfrwt>
<totfact> 0.31921188E+03</totfact>
</mgrwt>
</event>
<event>
 6    4  0.2103460E-003  0.1278938E+03  0.7818608E-02  0.1230615E+00
          4   -1    0    0  502    0  0.00000000000E+00  0.00000000000E+00  0.22710520021E+01  0.26020332811E+01  0.12700000000E+01 0.  1.
         -4   -1    0    0    0  501 -0.00000000000E+00 -0.00000000000E+00 -0.29808428534E+04  0.29808431240E+04  0.12700000000E+01 0.  1.
         25    2    1    2    0    0 -0.25823783899E+02 -0.80795645758E+01 -0.17890070084E+04  0.17935726666E+04  0.12499874853E+03 0.  0.
    9000005    1    3    3    0    0  0.17275434384E+02  0.17525530032E+02 -0.77243188661E+02  0.81074626306E+02  0.10000000000E+01 0.  0.
    9000005    1    3    3    0    0 -0.43099218282E+02 -0.25605094607E+02 -0.17117638198E+04  0.17124980403E+04  0.10000000000E+01 0.  0.
         21    1    1    2  502  501  0.25823783899E+02  0.80795645758E+01 -0.11895647930E+04  0.11898724906E+04  0.00000000000E+00 0. -1.
<mgrwt>
<rscale>  1 0.12789384E+03</rscale>
<asrwt>0</asrwt>
<pdfrwt beam="1">  1        4 0.37487591E-03 0.12789384E+03</pdfrwt>
<pdfrwt beam="2">  1       -4 0.45861377E+00 0.12789384E+03</pdfrwt>
<totfact> 0.76551260E+01</totfact>
</mgrwt>
</event>
<event>
 6    4  0.2103460E-003  0.1277828E+03  0.7818608E-02  0.1230783E+00
         -4   -1    0    0    0  501 -0.00000000000E+00  0.00000000000E+00  0.15168967800E+02  0.15222039420E+02  0.12700000000E+01 0.  1.
          4   -1    0    0  502    0  0.00000000000E+00 -0.00000000000E+00 -0.42506499179E+03  0.42506688902E+03  0.12700000000E+01 0.  1.
         25    2    1    2    0    0 -0.94645134818E+01 -0.24734592781E+02 -0.28084913541E+03  0.30855253808E+03  0.12500821892E+03 0.  0.
    9000005    1    3    3    0    0 -0.43488645696E+02  0.11222911978E+02 -0.24055861749E+03  0.24471751982E+03  0.10000000000E+01 0.  0.
    9000005    1    3    3    0    0  0.34024132214E+02 -0.35957504759E+02 -0.40290517917E+02  0.63835018254E+02  0.10000000000E+01 0.  0.
         21    1    1    2  502  501  0.94645134818E+01  0.24734592781E+02 -0.12904688858E+03  0.13173639037E+03  0.00000000000E+00 0.  1.
<mgrwt>
<rscale>  1 0.12778275E+03</rscale>
<asrwt>0</asrwt>
<pdfrwt beam="2">  1        4 0.65398833E-01 0.12778275E+03</pdfrwt>
<pdfrwt beam="1">  1       -4 0.23379161E-02 0.12778275E+03</pdfrwt>
<totfact> 0.28527480E+03</totfact>
</mgrwt>
</event>
<event>
 6    4  0.2103460E-003  0.1763737E+03  0.7818608E-02  0.1171359E+00
         -4   -1    0    0    0  501 -0.00000000000E+00  0.00000000000E+00  0.13572373856E+03  0.13572968028E+03  0.12700000000E+01 0. -1.
          4   -1    0    0  502    0  0.00000000000E+00 -0.00000000000E+00 -0.99851485417E+03  0.99851566182E+03  0.12700000000E+01 0. -1.
         25    2    1    2    0    0 -0.86224825301E+02 -0.89711217106E+02 -0.96017377390E+03  0.97623836405E+03  0.12499937751E+03 0.  0.
    9000005    1    3    3    0    0 -0.47551515804E+02 -0.18084968855E+02 -0.99814112773E+02  0.11203602038E+03  0.10000000000E+01 0.  0.
    9000005    1    3    3    0    0 -0.38673309497E+02 -0.71626248250E+02 -0.86035966113E+03  0.86420234367E+03  0.10000000000E+01 0.  0.
         21    1    1    2  502  501  0.86224825301E+02  0.89711217106E+02  0.97382658296E+02  0.15800697804E+03  0.00000000000E+00 0. -1.
<mgrwt>
<rscale>  1 0.17637366E+03</rscale>
<asrwt>0</asrwt>
<pdfrwt beam="2">  1        4 0.15361818E+00 0.17637366E+03</pdfrwt>
<pdfrwt beam="1">  1       -4 0.20881095E-01 0.17637366E+03</pdfrwt>
<totfact> 0.10930765E+01</totfact>
</mgrwt>
</event>
<event>
 6    4  0.2103460E-003  0.1330930E+03  0.7818608E-02  0.1222937E+00
         -4   -1    0    0    0  501 -0.00000000000E+00  0.00000000000E+00  0.14919066651E+02  0.14973024068E+02  0.12700000000E+01 0.  1.
          4   -1    0    0  502    0  0.00000000000E+00 -0.00000000000E+00 -0.57349648729E+03  0.57349789349E+03  0.12700000000E+01 0.  1.
         25    2    1    2    0    0  0.36966925855E+02  0.26917657583E+02 -0.47390244365E+03  0.49223700656E+03  0.12499052218E+03 0.  0.
    9000005    1    3    3    0    0  0.19302074991E+02  0.74883584460E+02 -0.21890243588E+03  0.23216243829E+03  0.10000000000E+01 0.  0.
    9000005    1    3    3    0    0  0.17664850864E+02 -0.47965926876E+02 -0.25500000777E+03  0.26007456827E+03  0.10000000000E+01 0.  0.
         21    1    1    2  502  501 -0.36966925855E+02 -0.26917657583E+02 -0.84674976992E+02  0.96233910996E+02  0.00000000000E+00 0.  1.
<mgrwt>
<rscale>  1 0.13309299E+03</rscale>
<asrwt>0</asrwt>
<pdfrwt beam="2">  1        4 0.88234471E-01 0.13309299E+03</pdfrwt>
<pdfrwt beam="1">  1       -4 0.22995002E-02 0.13309299E+03</pdfrwt>
<totfact> 0.15340823E+03</totfact>
</mgrwt>
</event>
<event>
 6    4  0.2103460E-003  0.1268262E+03  0.7818608E-02  0.1232243E+00
         -4   -1    0    0    0  501 -0.00000000000E+00  0.00000000000E+00  0.20388258886E+02  0.20427775220E+02  0.12700000000E+01 0.  1.
          4   -1    0    0  502    0  0.00000000000E+00 -0.00000000000E+00 -0.31218930113E+03  0.31219188433E+03  0.12700000000E+01 0.  1.
         25    2    1    2    0    0  0.10298025765E+02 -0.18904145831E+02 -0.28150823020E+03  0.30875843485E+03  0.12498588463E+03 0.  0.
    9000005    1    3    3    0    0 -0.18062963068E+02  0.47703964604E+02 -0.82633681945E+02  0.97114696445E+02  0.10000000000E+01 0.  0.
    9000005    1    3    3    0    0  0.28360988833E+02 -0.66608110435E+02 -0.19887454825E+03  0.21164373841E+03  0.10000000000E+01 0.  0.
         21    1    1    2  502  501 -0.10298025765E+02  0.18904145831E+02 -0.10292812046E+02  0.23861224698E+02  0.00000000000E+00 0. -1.
<mgrwt>
<rscale>  1 0.12682621E+03</rscale>
<asrwt>0</asrwt>
<pdfrwt beam="2">  1        4 0.48032358E-01 0.12682621E+03</pdfrwt>
<pdfrwt beam="1">  1       -4 0.31398939E-02 0.12682621E+03</pdfrwt>
<totfact> 0.34112494E+03</totfact>
</mgrwt>
</event>
<event>
 6    4  0.2103460E-003  0.1299132E+03  0.7818608E-02  0.1227585E+00
          4   -1    0    0  502    0  0.00000000000E+00  0.00000000000E+00  0.95309027811E+02  0.95317488858E+02  0.12700000000E+01 0. -1.
         -4   -1    0    0    0  501 -0.00000000000E+00 -0.00000000000E+00 -0.91507808679E+02  0.91516621164E+02  0.12700000000E+01 0. -1.
         25    2    1    2    0    0 -0.33155326989E+02  0.12357793006E+02  0.40279552295E+02  0.13601423649E+03  0.12500175774E+03 0.  0.
    9000005    1    3    3    0    0  0.32584215848E+02  0.34896964954E+02  0.45960849205E+02  0.66279174294E+02  0.10000000000E+01 0.  0.
    9000005    1    3    3    0    0 -0.65739542837E+02 -0.22539171948E+02 -0.56812969102E+01  0.69735062193E+02  0.10000000000E+01 0.  0.
         21    1    1    2  502  501  0.33155326989E+02 -0.12357793006E+02 -0.36478333163E+02  0.50819873535E+02  0.00000000000E+00 0. -1.
<mgrwt>
<rscale>  1 0.12991316E+03</rscale>
<asrwt>0</asrwt>
<pdfrwt beam="1">  1        4 0.14664256E-01 0.12991316E+03</pdfrwt>
<pdfrwt beam="2">  1       -4 0.14079453E-01 0.12991316E+03</pdfrwt>
<totfact> 0.26808438E+03</totfact>
</mgrwt>
</event>
<event>
 6    4  0.2103460E-003  0.1275921E+03  0.7818608E-02  0.1231073E+00
          4   -1    0    0  502    0  0.00000000000E+00  0.00000000000E+00  0.17664879838E+02  0.17710473729E+02  0.12700000000E+01 0. -1.
         -4   -1    0    0    0  501 -0.00000000000E+00 -0.00000000000E+00 -0.38609268643E+03  0.38609477517E+03  0.12700000000E+01 0. -1.
         25    2    1    2    0    0  0.36539046324E+01  0.25325178670E+02 -0.22988944442E+03  0.26292376152E+03  0.12500012809E+03 0.  0.
    9000005    1    3    3    0    0 -0.31971233601E+02 -0.28657225376E+02 -0.28857609851E+02  0.51741260040E+02  0.10000000000E+01 0.  0.
    9000005    1    3    3    0    0  0.35625138233E+02  0.53982404046E+02 -0.20103183457E+03  0.21118250148E+03  0.10000000000E+01 0.  0.
         21    1    1    2  502  501 -0.36539046324E+01 -0.25325178670E+02 -0.13853836217E+03  0.14088148738E+03  0.00000000000E+00 0.  1.
<mgrwt>
<rscale>  1 0.12759211E+03</rscale>
<asrwt>0</asrwt>
<pdfrwt beam="1">  1        4 0.27213420E-02 0.12759211E+03</pdfrwt>
<pdfrwt beam="2">  1       -4 0.59402537E-01 0.12759211E+03</pdfrwt>
<totfact> 0.27597252E+03</totfact>
</mgrwt>
</event>
<event>
 6    4  0.2103460E-003  0.1308072E+03  0.7818608E-02  0.1226263E+00
         -4   -1    0    0    0  501 -0.00000000000E+00  0.00000000000E+00  0.39374327820E+01  0.41371822431E+01  0.12700000000E+01 0.  1.
          4   -1    0    0  502    0  0.00000000000E+00 -0.00000000000E+00 -0.18141319665E+04  0.18141324110E+04  0.12700000000E+01 0.  1.
         25    2    1    2    0    0 -0.23730819570E+02  0.30363743236E+02 -0.12761562129E+04  0.12828426264E+04  0.12500166330E+03 0.  0.
    9000005    1    3    3    0    0 -0.74971977035E+02  0.10104691763E+02 -0.75412717192E+03  0.75791272161E+03  0.10000000000E+01 0.  0.
    9000005    1    3    3    0    0  0.51241157465E+02  0.20259051474E+02 -0.52202904094E+03  0.52492990482E+03  0.10000000000E+01 0.  0.
         21    1    1    2  502  501  0.23730819570E+02 -0.30363743236E+02 -0.53403832084E+03  0.53542696685E+03  0.00000000000E+00 0.  1.
<mgrwt>
<rscale>  1 0.13080720E+03</rscale>
<asrwt>0</asrwt>
<pdfrwt beam="2">  1        4 0.27911197E+00 0.13080720E+03</pdfrwt>
<pdfrwt beam="1">  1       -4 0.62115987E-03 0.13080720E+03</pdfrwt>
<totfact> 0.49678906E+02</totfact>
</mgrwt>
</event>
<event>
 6    4  0.2103460E-003  0.1426004E+03  0.7818608E-02  0.1209872E+00
          4   -1    0    0  502    0  0.00000000000E+00  0.00000000000E+00  0.30314426149E+02  0.30341017332E+02  0.12700000000E+01 0.  1.
         -4   -1    0    0    0  501 -0.00000000000E+00 -0.00000000000E+00 -0.37652625071E+03  0.37652839252E+03  0.12700000000E+01 0.  1.
         25    2    1    2    0    0  0.48259181296E+02  0.48806785438E+02 -0.20325424431E+03  0.24828845060E+03  0.12499526387E+03 0.  0.
    9000005    1    3    3    0    0  0.51534502821E+02  0.59913454305E+02 -0.47726111362E+02  0.92326641298E+02  0.10000000000E+01 0.  0.
    9000005    1    3    3    0    0 -0.32753215250E+01 -0.11106668867E+02 -0.15552813295E+03  0.15596180931E+03  0.10000000000E+01 0.  0.
         21    1    1    2  502  501 -0.48259181296E+02 -0.48806785438E+02 -0.14295758026E+03  0.15858095925E+03  0.00000000000E+00 0.  1.
<mgrwt>
<rscale>  1 0.14260037E+03</rscale>
<asrwt>0</asrwt>
<pdfrwt beam="1">  1        4 0.46659684E-02 0.14260037E+03</pdfrwt>
<pdfrwt beam="2">  1       -4 0.57929322E-01 0.14260037E+03</pdfrwt>
<totfact> 0.12722910E+03</totfact>
</mgrwt>
</event>
<event>
 6    4  0.2103460E-003  0.1378919E+03  0.7818608E-02  0.1216194E+00
         -4   -1    0    0    0  501 -0.00000000000E+00  0.00000000000E+00  0.12642074448E+03  0.12642712342E+03  0.12700000000E+01 0. -1.
          4   -1    0    0  502    0  0.00000000000E+00 -0.00000000000E+00 -0.78195392282E+02  0.78205704870E+02  0.12700000000E+01 0. -1.
         25    2    1    2    0    0  0.42430432540E+02 -0.39861005656E+02  0.49203339829E+02  0.14640742286E+03  0.12499969376E+03 0.  0.
    9000005    1    3    3    0    0 -0.29659030725E+02 -0.34072300416E+02  0.58025710430E+02  0.73542931884E+02  0.10000000000E+01 0.  0.
    9000005    1    3    3    0    0  0.72089463265E+02 -0.57887052405E+01 -0.88223706008E+01  0.72864490976E+02  0.10000000000E+01 0.  0.
         21    1    1    2  502  501 -0.42430432540E+02  0.39861005656E+02 -0.97798762727E+00  0.58225405428E+02  0.00000000000E+00 0. -1.
<mgrwt>
<rscale>  1 0.13789186E+03</rscale>
<asrwt>0</asrwt>
<pdfrwt beam="2">  1        4 0.12031344E-01 0.13789186E+03</pdfrwt>
<pdfrwt beam="1">  1       -4 0.19450629E-01 0.13789186E+03</pdfrwt>
<totfact> 0.21630954E+03</totfact>
</mgrwt>
</event>
<event>
 6    4  0.2103460E-003  0.1313968E+03  0.7818608E-02  0.1225398E+00
          4   -1    0    0  502    0  0.00000000000E+00  0.00000000000E+00  0.39276835743E+02  0.39297362837E+02  0.12700000000E+01 0.  1.
         -4   -1    0    0    0  501 -0.00000000000E+00 -0.00000000000E+00 -0.20548664127E+03  0.20549056581E+03  0.12700000000E+01 0.  1.
         25    2    1    2    0    0  0.66037212957E+01  0.39956546100E+02 -0.92517019155E+02  0.16070010864E+03  0.12499996549E+03 0.  0.
    9000005    1    3    3    0    0  0.78739987456E+01  0.55621862242E+02 -0.11802851364E+03  0.13071924666E+03  0.10000000000E+01 0.  0.
    9000005    1    3    3    0    0 -0.12702774499E+01 -0.15665316142E+02  0.25511494482E+02  0.29980861985E+02  0.10000000000E+01 0.  0.
         21    1    1    2  502  501 -0.66037212957E+01 -0.39956546100E+02 -0.73692786368E+02  0.84087820009E+02  0.00000000000E+00 0.  1.
<mgrwt>
<rscale>  1 0.13139683E+03</rscale>
<asrwt>0</asrwt>
<pdfrwt beam="1">  1        4 0.60444711E-02 0.13139683E+03</pdfrwt>
<pdfrwt beam="2">  1       -4 0.31615210E-01 0.13139683E+03</pdfrwt>
<totfact> 0.27474009E+03</totfact>
</mgrwt>
</event>
<event>
 6    4  0.2103460E-003  0.1368800E+03  0.7818608E-02  0.1217590E+00
          4   -1    0    0  502    0  0.00000000000E+00  0.00000000000E+00  0.19640065402E+03  0.19640476012E+03  0.12700000000E+01 0. -1.
         -4   -1    0    0    0  501 -0.00000000000E+00 -0.00000000000E+00 -0.50915206419E+02  0.50931043035E+02  0.12700000000E+01 0. -1.
         25    2    1    2    0    0 -0.30572330952E+02 -0.46669587904E+02  0.13151425420E+03  0.18982135193E+03  0.12499371479E+03 0.  0.
    9000005    1    3    3    0    0  0.21909172073E+02  0.20686910253E+02 -0.32035737546E+01  0.30318689971E+02  0.10000000000E+01 0.  0.
    9000005    1    3    3    0    0 -0.52481503025E+02 -0.67356498158E+02  0.13471782795E+03  0.15950266196E+03  0.10000000000E+01 0.  0.
         21    1    1    2  502  501  0.30572330952E+02  0.46669587904E+02  0.13971193402E+02  0.57514451228E+02  0.00000000000E+00 0. -1.
<mgrwt>
<rscale>  1 0.13688004E+03</rscale>
<asrwt>0</asrwt>
<pdfrwt beam="1">  1        4 0.30217019E-01 0.13688004E+03</pdfrwt>
<pdfrwt beam="2">  1       -4 0.78346428E-02 0.13688004E+03</pdfrwt>
<totfact> 0.19746939E+03</totfact>
</mgrwt>
</event>
<event>
 6    4  0.2103460E-003  0.1269843E+03  0.7818608E-02  0.1232000E+00
         -4   -1    0    0    0  501 -0.00000000000E+00  0.00000000000E+00  0.11854109519E+03  0.11854789812E+03  0.12700000000E+01 0.  1.
          4   -1    0    0  502    0  0.00000000000E+00 -0.00000000000E+00 -0.72380774733E+02  0.72391915647E+02  0.12700000000E+01 0.  1.
         25    2    1    2    0    0 -0.15598582027E+02  0.16101135409E+02 -0.13025478651E+02  0.12765062718E+03  0.12498982840E+03 0.  0.
    9000005    1    3    3    0    0  0.20483337901E+02  0.56801815464E+02 -0.34050108557E+02  0.69328372722E+02  0.10000000000E+01 0.  0.
    9000005    1    3    3    0    0 -0.36081919928E+02 -0.40700680055E+02  0.21024629905E+02  0.58322254460E+02  0.10000000000E+01 0.  0.
         21    1    1    2  502  501  0.15598582027E+02 -0.16101135409E+02  0.59185799106E+02  0.63289186584E+02  0.00000000000E+00 0.  1.
<mgrwt>
<rscale>  1 0.12698433E+03</rscale>
<asrwt>0</asrwt>
<pdfrwt beam="2">  1        4 0.11136884E-01 0.12698433E+03</pdfrwt>
<pdfrwt beam="1">  1       -4 0.18238472E-01 0.12698433E+03</pdfrwt>
<totfact> 0.27159317E+03</totfact>
</mgrwt>
</event>
<event>
 6    4  0.2103460E-003  0.1273212E+03  0.7818608E-02  0.1231486E+00
         -4   -1    0    0    0  501 -0.00000000000E+00  0.00000000000E+00  0.18958031935E+03  0.18958457317E+03  0.12700000000E+01 0. -1.
          4   -1    0    0  502    0  0.00000000000E+00 -0.00000000000E+00 -0.50422269603E+02  0.50438260993E+02  0.12700000000E+01 0. -1.
         25    2    1    2    0    0 -0.20924262642E+01  0.24103535884E+02  0.33534022687E+02  0.13166327629E+03  0.12500131582E+03 0.  0.
    9000005    1    3    3    0    0  0.69994749178E+01  0.32062639773E+02 -0.43040937235E+02  0.54134349506E+02  0.10000000000E+01 0.  0.
    9000005    1    3    3    0    0 -0.90919011820E+01 -0.79591038892E+01  0.76574959922E+02  0.77528926788E+02  0.10000000000E+01 0.  0.
         21    1    1    2  502  501  0.20924262642E+01 -0.24103535884E+02  0.10562402706E+03  0.10835955787E+03  0.00000000000E+00 0. -1.
<mgrwt>
<rscale>  1 0.12732120E+03</rscale>
<asrwt>0</asrwt>
<pdfrwt beam="2">  1        4 0.77588295E-02 0.12732120E+03</pdfrwt>
<pdfrwt beam="1">  1       -4 0.29167761E-01 0.12732120E+03</pdfrwt>
<totfact> 0.21099919E+03</totfact>
</mgrwt>
</event>
<event>
 6    4  0.2103460E-003  0.1300490E+03  0.7818608E-02  0.1227383E+00
         -4   -1    0    0    0  501 -0.00000000000E+00  0.00000000000E+00  0.55917940142E+01  0.57342009293E+01  0.12700000000E+01 0.  1.
          4   -1    0    0  502    0  0.00000000000E+00 -0.00000000000E+00 -0.12160285468E+04  0.12160292100E+04  0.12700000000E+01 0.  1.
         25    2    1    2    0    0 -0.35642811359E+02  0.42118476823E+01 -0.93767815832E+03  0.94665361371E+03  0.12499834437E+03 0.  0.
    9000005    1    3    3    0    0  0.37940055121E+02 -0.30318787584E+02 -0.32671094061E+03  0.33030246045E+03  0.10000000000E+01 0.  0.
    9000005    1    3    3    0    0 -0.73582866479E+02  0.34530635267E+02 -0.61096721771E+03  0.61635115326E+03  0.10000000000E+01 0.  0.
         21    1    1    2  502  501  0.35642811359E+02 -0.42118476823E+01 -0.27275859450E+03  0.27510979723E+03  0.00000000000E+00 0. -1.
<mgrwt>
<rscale>  1 0.13004897E+03</rscale>
<asrwt>0</asrwt>
<pdfrwt beam="2">  1        4 0.18709211E+00 0.13004897E+03</pdfrwt>
<pdfrwt beam="1">  1       -4 0.87128236E-03 0.13004897E+03</pdfrwt>
<totfact> 0.10506306E+03</totfact>
</mgrwt>
</event>
<event>
 6    4  0.2103460E-003  0.1314928E+03  0.7818608E-02  0.1225257E+00
         -4   -1    0    0    0  501 -0.00000000000E+00  0.00000000000E+00  0.83894026357E+02  0.83903638529E+02  0.12700000000E+01 0.  1.
          4   -1    0    0  502    0  0.00000000000E+00 -0.00000000000E+00 -0.12390331472E+03  0.12390982326E+03  0.12700000000E+01 0.  1.
         25    2    1    2    0    0 -0.38405809925E+02  0.13780533059E+02 -0.77305062709E+02  0.15253341013E+03  0.12500183661E+03 0.  0.
    9000005    1    3    3    0    0  0.27203447436E+02  0.14838320804E+02 -0.81074118718E+02  0.86799861997E+02  0.10000000000E+01 0.  0.
    9000005    1    3    3    0    0 -0.65609257362E+02 -0.10577877453E+01  0.37690560089E+01  0.65733548130E+02  0.10000000000E+01 0.  0.
         21    1    1    2  502  501  0.38405809925E+02 -0.13780533059E+02  0.37295774344E+02  0.55280051658E+02  0.00000000000E+00 0.  1.
<mgrwt>
<rscale>  1 0.13149285E+03</rscale>
<asrwt>0</asrwt>
<pdfrwt beam="2">  1        4 0.19063288E-01 0.13149285E+03</pdfrwt>
<pdfrwt beam="1">  1       -4 0.12908013E-01 0.13149285E+03</pdfrwt>
<totfact> 0.19666079E+03</totfact>
</mgrwt>
</event>
<event>
 6    4  0.2103460E-003  0.1320674E+03  0.7818608E-02  0.1224420E+00
         -4   -1    0    0    0  501 -0.00000000000E+00  0.00000000000E+00  0.38084375006E+03  0.38084586759E+03  0.12700000000E+01 0. -1.
          4   -1    0    0  502    0  0.00000000000E+00 -0.00000000000E+00 -0.20376087313E+02  0.20415627205E+02  0.12700000000E+01 0. -1.
         25    2    1    2    0    0  0.37223728734E+02  0.20781966640E+02  0.29394094935E+03  0.32224694099E+03  0.12499725258E+03 0.  0.
    9000005    1    3    3    0    0 -0.35664645839E+02  0.18077002255E+02  0.34740710238E+02  0.52977938062E+02  0.10000000000E+01 0.  0.
    9000005    1    3    3    0    0  0.72888374573E+02  0.27049643844E+01  0.25920023911E+03  0.26926900292E+03  0.10000000000E+01 0.  0.
         21    1    1    2  502  501 -0.37223728734E+02 -0.20781966640E+02  0.66526713397E+02  0.79014553809E+02  0.00000000000E+00 0. -1.
<mgrwt>
<rscale>  1 0.13206744E+03</rscale>
<asrwt>0</asrwt>
<pdfrwt beam="2">  1        4 0.31379874E-02 0.13206744E+03</pdfrwt>
<pdfrwt beam="1">  1       -4 0.58594545E-01 0.13206744E+03</pdfrwt>
<totfact> 0.22915848E+03</totfact>
</mgrwt>
</event>
<event>
 6    4  0.2103460E-003  0.1269371E+03  0.7818608E-02  0.1232073E+00
          4   -1    0    0  502    0  0.00000000000E+00  0.00000000000E+00  0.28250682079E+03  0.28250967540E+03  0.12700000000E+01 0.  1.
         -4   -1    0    0    0  501 -0.00000000000E+00 -0.00000000000E+00 -0.25982143520E+02  0.26013163628E+02  0.12700000000E+01 0.  1.
         25    2    1    2    0    0  0.15942527854E+02  0.15306805268E+02  0.25675602002E+03  0.28642044094E+03  0.12499821074E+03 0.  0.
    9000005    1    3    3    0    0 -0.16983295987E+00  0.25163981618E+02 -0.35453569537E+01  0.25432742087E+02  0.10000000000E+01 0.  0.
    9000005    1    3    3    0    0  0.16112360814E+02 -0.98571763505E+01  0.26030137698E+03  0.26098769885E+03  0.10000000000E+01 0.  0.
         21    1    1    2  502  501 -0.15942527854E+02 -0.15306805268E+02 -0.23134274742E+00  0.22102398091E+02  0.00000000000E+00 0.  1.
<mgrwt>
<rscale>  1 0.12693705E+03</rscale>
<asrwt>0</asrwt>
<pdfrwt beam="1">  1        4 0.43465196E-01 0.12693705E+03</pdfrwt>
<pdfrwt beam="2">  1       -4 0.39998584E-02 0.12693705E+03</pdfrwt>
<totfact> 0.28462438E+03</totfact>
</mgrwt>
</event>
<event>
 6    4  0.2103460E-003  0.1267595E+03  0.7818608E-02  0.1232345E+00
         -4   -1    0    0    0  501 -0.00000000000E+00  0.00000000000E+00  0.20971098849E+03  0.20971483399E+03  0.12700000000E+01 0. -1.
          4   -1    0    0  502    0  0.00000000000E+00 -0.00000000000E+00 -0.26295115144E+02  0.26325766474E+02  0.12700000000E+01 0. -1.
         25    2    1    2    0    0  0.19265634648E+02  0.85031803128E+01  0.14827512395E+03  0.19507303985E+03  0.12499803895E+03 0.  0.
    9000005    1    3    3    0    0  0.57140317177E+02  0.44700131707E+02  0.69561413343E+02  0.10051322225E+03  0.10000000000E+01 0.  0.
    9000005    1    3    3    0    0 -0.37874682529E+02 -0.36196951394E+02  0.78713710608E+02  0.94559817600E+02  0.10000000000E+01 0.  0.
         21    1    1    2  502  501 -0.19265634648E+02 -0.85031803128E+01  0.35140749396E+02  0.40967560605E+02  0.00000000000E+00 0. -1.
<mgrwt>
<rscale>  1 0.12675953E+03</rscale>
<asrwt>0</asrwt>
<pdfrwt beam="2">  1        4 0.40480560E-02 0.12675953E+03</pdfrwt>
<pdfrwt beam="1">  1       -4 0.32265882E-01 0.12675953E+03</pdfrwt>
<totfact> 0.49859784E+03</totfact>
</mgrwt>
</event>
<event>
 6    4  0.2103460E-003  0.1943202E+03  0.7818608E-02  0.1154622E+00
         -4   -1    0    0    0  501 -0.00000000000E+00  0.00000000000E+00  0.31567960619E+02  0.31593496762E+02  0.12700000000E+01 0. -1.
          4   -1    0    0  502    0  0.00000000000E+00 -0.00000000000E+00 -0.10618641972E+04  0.10618649567E+04  0.12700000000E+01 0. -1.
         25    2    1    2    0    0  0.73946824084E+02  0.12909918058E+03 -0.76498423786E+03  0.78927892112E+03  0.12500239965E+03 0.  0.
    9000005    1    3    3    0    0  0.71494968082E+02  0.11782602073E+03 -0.76538195388E+03  0.77769212221E+03  0.10000000000E+01 0.  0.
    9000005    1    3    3    0    0  0.24518560021E+01  0.11273159852E+02  0.39771601354E+00  0.11586798908E+02  0.10000000000E+01 0.  0.
         21    1    1    2  502  501 -0.73946824084E+02 -0.12909918058E+03 -0.26531199875E+03  0.30417953235E+03  0.00000000000E+00 0. -1.
<mgrwt>
<rscale>  1 0.19432018E+03</rscale>
<asrwt>0</asrwt>
<pdfrwt beam="2">  1        4 0.16336572E+00 0.19432018E+03</pdfrwt>
<pdfrwt beam="1">  1       -4 0.48586329E-02 0.19432018E+03</pdfrwt>
<totfact> 0.11269817E+02</totfact>
</mgrwt>
</event>
<event>
 6    4  0.2103460E-003  0.1266388E+03  0.7818608E-02  0.1232530E+00
          4   -1    0    0  502    0  0.00000000000E+00  0.00000000000E+00  0.90312384507E+02  0.90321313627E+02  0.12700000000E+01 0. -1.
         -4   -1    0    0    0  501 -0.00000000000E+00 -0.00000000000E+00 -0.64161072346E+02  0.64173640263E+02  0.12700000000E+01 0. -1.
         25    2    1    2    0    0 -0.20287926055E+02 -0.51503826127E+00  0.36390762991E+02  0.13176366353E+03  0.12500204074E+03 0.  0.
    9000005    1    3    3    0    0 -0.12057816690E+02  0.57684274755E+02 -0.60623622431E+01  0.59250474541E+02  0.10000000000E+01 0.  0.
    9000005    1    3    3    0    0 -0.82301093651E+01 -0.58199313016E+02  0.42453125234E+02  0.72513188992E+02  0.10000000000E+01 0.  0.
         21    1    1    2  502  501  0.20287926055E+02  0.51503826127E+00 -0.10239450830E+02  0.22731290357E+02  0.00000000000E+00 0.  1.
<mgrwt>
<rscale>  1 0.12663876E+03</rscale>
<asrwt>0</asrwt>
<pdfrwt beam="1">  1        4 0.13895867E-01 0.12663876E+03</pdfrwt>
<pdfrwt beam="2">  1       -4 0.98725878E-02 0.12663876E+03</pdfrwt>
<totfact> 0.53599199E+03</totfact>
</mgrwt>
</event>
<event>
 6    4  0.2103460E-003  0.1300142E+03  0.7818608E-02  0.1227435E+00
          4   -1    0    0  502    0  0.00000000000E+00  0.00000000000E+00  0.13834448213E+03  0.13835031129E+03  0.12700000000E+01 0. -1.
         -4   -1    0    0    0  501 -0.00000000000E+00 -0.00000000000E+00 -0.49899379249E+02  0.49915538156E+02  0.12700000000E+01 0. -1.
         25    2    1    2    0    0 -0.35751580006E+02 -0.93750827096E+00  0.63735040117E+02  0.14479584144E+03  0.12499850385E+03 0.  0.
    9000005    1    3    3    0    0  0.36055862399E+02 -0.31386603804E+02  0.42455891359E+02  0.63942527497E+02  0.10000000000E+01 0.  0.
    9000005    1    3    3    0    0 -0.71807442405E+02  0.30449095533E+02  0.21279148758E+02  0.80853313942E+02  0.10000000000E+01 0.  0.
         21    1    1    2  502  501  0.35751580006E+02  0.93750827096E+00  0.24710062760E+02  0.43470008009E+02  0.00000000000E+00 0. -1.
<mgrwt>
<rscale>  1 0.13001415E+03</rscale>
<asrwt>0</asrwt>
<pdfrwt beam="1">  1        4 0.21285458E-01 0.13001415E+03</pdfrwt>
<pdfrwt beam="2">  1       -4 0.76785190E-02 0.13001415E+03</pdfrwt>
<totfact> 0.38566515E+03</totfact>
</mgrwt>
</event>
<event>
 6    4  0.2103460E-003  0.1288971E+03  0.7818608E-02  0.1229101E+00
          4   -1    0    0  502    0  0.00000000000E+00  0.00000000000E+00  0.85320525009E+02  0.85329976491E+02  0.12700000000E+01 0.  1.
         -4   -1    0    0    0  501 -0.00000000000E+00 -0.00000000000E+00 -0.10880885394E+03  0.10881626531E+03  0.12700000000E+01 0.  1.
         25    2    1    2    0    0 -0.13727174554E+02 -0.28297180700E+02  0.29774044848E+02  0.13229119983E+03  0.12500120819E+03 0.  0.
    9000005    1    3    3    0    0  0.49054058242E+02 -0.31930667809E+02  0.36581668047E+02  0.69029606791E+02  0.10000000000E+01 0.  0.
    9000005    1    3    3    0    0 -0.62781232795E+02  0.36334871088E+01 -0.68076231986E+01  0.63261593036E+02  0.10000000000E+01 0.  0.
         21    1    1    2  502  501  0.13727174554E+02  0.28297180700E+02 -0.53262373777E+02  0.61855041970E+02  0.00000000000E+00 0.  1.
<mgrwt>
<rscale>  1 0.12889712E+03</rscale>
<asrwt>0</asrwt>
<pdfrwt beam="1">  1        4 0.13127532E-01 0.12889712E+03</pdfrwt>
<pdfrwt beam="2">  1       -4 0.16741121E-01 0.12889712E+03</pdfrwt>
<totfact> 0.23946387E+03</totfact>
</mgrwt>
</event>
<event>
 6    4  0.2103460E-003  0.1309083E+03  0.7818608E-02  0.1226114E+00
         -4   -1    0    0    0  501 -0.00000000000E+00  0.00000000000E+00  0.10416421152E+04  0.10416428894E+04  0.12700000000E+01 0.  1.
          4   -1    0    0  502    0  0.00000000000E+00 -0.00000000000E+00 -0.84913233682E+01  0.85857715170E+01  0.12700000000E+01 0.  1.
         25    2    1    2    0    0 -0.19015051533E+02 -0.33920694136E+02  0.54378392885E+03  0.55931918632E+03  0.12499922093E+03 0.  0.
    9000005    1    3    3    0    0 -0.50856160978E+02  0.31068906398E+00  0.46446717593E+03  0.46724426498E+03  0.10000000000E+01 0.  0.
    9000005    1    3    3    0    0  0.31841109444E+02 -0.34231383200E+02  0.79316752921E+02  0.92074921344E+02  0.10000000000E+01 0.  0.
         21    1    1    2  502  501  0.19015051533E+02  0.33920694136E+02  0.48936686301E+03  0.49090947464E+03  0.00000000000E+00 0.  1.
<mgrwt>
<rscale>  1 0.13090833E+03</rscale>
<asrwt>0</asrwt>
<pdfrwt beam="2">  1        4 0.13136832E-02 0.13090833E+03</pdfrwt>
<pdfrwt beam="1">  1       -4 0.16025984E+00 0.13090833E+03</pdfrwt>
<totfact> 0.85758207E+02</totfact>
</mgrwt>
</event>
<event>
 6    4  0.2103460E-003  0.1287714E+03  0.7818608E-02  0.1229290E+00
          4   -1    0    0  502    0  0.00000000000E+00  0.00000000000E+00  0.42171447946E+02  0.42190566740E+02  0.12700000000E+01 0.  1.
         -4   -1    0    0    0  501 -0.00000000000E+00 -0.00000000000E+00 -0.15159823305E+03  0.15160355261E+03  0.12700000000E+01 0.  1.
         25    2    1    2    0    0  0.30868357335E+02 -0.21549589700E+01 -0.84033119228E+02  0.15376491002E+03  0.12499833237E+03 0.  0.
    9000005    1    3    3    0    0 -0.23336278614E+02 -0.36262659748E+02 -0.78380418846E+02  0.89465370116E+02  0.10000000000E+01 0.  0.
    9000005    1    3    3    0    0  0.54204635948E+02  0.34107700778E+02 -0.56527003824E+01  0.64299539907E+02  0.10000000000E+01 0.  0.
         21    1    1    2  502  501 -0.30868357335E+02  0.21549589700E+01 -0.25393665873E+02  0.40029209325E+02  0.00000000000E+00 0.  1.
<mgrwt>
<rscale>  1 0.12877143E+03</rscale>
<asrwt>0</asrwt>
<pdfrwt beam="1">  1        4 0.64897950E-02 0.12877143E+03</pdfrwt>
<pdfrwt beam="2">  1       -4 0.23324685E-01 0.12877143E+03</pdfrwt>
<totfact> 0.42929357E+03</totfact>
</mgrwt>
</event>
<event>
 6    4  0.2103460E-003  0.1267480E+03  0.7818608E-02  0.1232362E+00
         -4   -1    0    0    0  501 -0.00000000000E+00  0.00000000000E+00  0.37320378498E+03  0.37320594586E+03  0.12700000000E+01 0.  1.
          4   -1    0    0  502    0  0.00000000000E+00 -0.00000000000E+00 -0.27438119186E+02  0.27467495053E+02  0.12700000000E+01 0.  1.
         25    2    1    2    0    0  0.19223289738E+02  0.84144567056E+01  0.12199147027E+03  0.17591750988E+03  0.12499885405E+03 0.  0.
    9000005    1    3    3    0    0 -0.28746236159E+02 -0.13606516500E+02  0.11884591866E+03  0.12303184858E+03  0.10000000000E+01 0.  0.
    9000005    1    3    3    0    0  0.47969525897E+02  0.22020973205E+02  0.31455516100E+01  0.52885661295E+02  0.10000000000E+01 0.  0.
         21    1    1    2  502  501 -0.19223289738E+02 -0.84144567056E+01  0.22377419553E+03  0.22475593104E+03  0.00000000000E+00 0.  1.
<mgrwt>
<rscale>  1 0.12674798E+03</rscale>
<asrwt>0</asrwt>
<pdfrwt beam="2">  1        4 0.42236755E-02 0.12674798E+03</pdfrwt>
<pdfrwt beam="1">  1       -4 0.57418386E-01 0.12674798E+03</pdfrwt>
<totfact> 0.14811422E+03</totfact>
</mgrwt>
</event>
<event>
 6    4  0.2103460E-003  0.1278072E+03  0.7818608E-02  0.1230746E+00
          4   -1    0    0  502    0  0.00000000000E+00  0.00000000000E+00  0.65648534923E+03  0.65648657766E+03  0.12700000000E+01 0. -1.
         -4   -1    0    0    0  501 -0.00000000000E+00 -0.00000000000E+00 -0.11802160398E+02  0.11870294439E+02  0.12700000000E+01 0. -1.
         25    2    1    2    0    0 -0.12480420207E+02 -0.23538978154E+02  0.61636136333E+03  0.62947281135E+03  0.12499938255E+03 0.  0.
    9000005    1    3    3    0    0 -0.63588212812E+02 -0.10849059770E+01  0.43751619906E+03  0.44211543999E+03  0.10000000000E+01 0.  0.
    9000005    1    3    3    0    0  0.51107792606E+02 -0.22454072177E+02  0.17884516427E+03  0.18735737136E+03  0.10000000000E+01 0.  0.
         21    1    1    2  502  501  0.12480420207E+02  0.23538978154E+02  0.28321825499E+02  0.38884060753E+02  0.00000000000E+00 0. -1.
<mgrwt>
<rscale>  1 0.12780724E+03</rscale>
<asrwt>0</asrwt>
<pdfrwt beam="1">  1        4 0.10100311E+00 0.12780724E+03</pdfrwt>
<pdfrwt beam="2">  1       -4 0.18210520E-02 0.12780724E+03</pdfrwt>
<totfact> 0.16001014E+03</totfact>
</mgrwt>
</event>
<event>
 6    4  0.2103460E-003  0.1298361E+03  0.7818608E-02  0.1227699E+00
         -4   -1    0    0    0  501 -0.00000000000E+00  0.00000000000E+00  0.14118787523E+02  0.14175791376E+02  0.12700000000E+01 0. -1.
          4   -1    0    0  502    0  0.00000000000E+00 -0.00000000000E+00 -0.50096308996E+03  0.50096469975E+03  0.12700000000E+01 0. -1.
         25    2    1    2    0    0  0.31877144800E+02  0.14715122208E+02 -0.42036798981E+03  0.43996212108E+03  0.12499893580E+03 0.  0.
    9000005    1    3    3    0    0  0.42443718879E+02  0.28403961041E+02 -0.41952152426E+03  0.42261988074E+03  0.10000000000E+01 0.  0.
    9000005    1    3    3    0    0 -0.10566574078E+02 -0.13688838833E+02 -0.84646554554E+00  0.17342240348E+02  0.10000000000E+01 0.  0.
         21    1    1    2  502  501 -0.31877144800E+02 -0.14715122208E+02 -0.66476312625E+02  0.75178370044E+02  0.00000000000E+00 0. -1.
<mgrwt>
<rscale>  1 0.12983613E+03</rscale>
<asrwt>0</asrwt>
<pdfrwt beam="2">  1        4 0.77075740E-01 0.12983613E+03</pdfrwt>
<pdfrwt beam="1">  1       -4 0.21766303E-02 0.12983613E+03</pdfrwt>
<totfact> 0.22424693E+03</totfact>
</mgrwt>
</event>
<event>
 6    4  0.2103460E-003  0.1266580E+03  0.7818608E-02  0.1232501E+00
         -4   -1    0    0    0  501 -0.00000000000E+00  0.00000000000E+00  0.21902392558E+03  0.21902760757E+03  0.12700000000E+01 0. -1.
          4   -1    0    0  502    0  0.00000000000E+00 -0.00000000000E+00 -0.27224317816E+02  0.27253924131E+02  0.12700000000E+01 0. -1.
         25    2    1    2    0    0 -0.13536279449E+02  0.15297034758E+02  0.13132910860E+03  0.18245433214E+03  0.12500007367E+03 0.  0.
    9000005    1    3    3    0    0 -0.68808502978E+02 -0.16542796283E+01  0.71118312979E+02  0.98975558418E+02  0.10000000000E+01 0.  0.
    9000005    1    3    3    0    0  0.55272223529E+02  0.16951314386E+02  0.60210795617E+02  0.83478773722E+02  0.10000000000E+01 0.  0.
         21    1    1    2  502  501  0.13536279449E+02 -0.15297034758E+02  0.60470499171E+02  0.63827199560E+02  0.00000000000E+00 0. -1.
<mgrwt>
<rscale>  1 0.12665800E+03</rscale>
<asrwt>0</asrwt>
<pdfrwt beam="2">  1        4 0.41909173E-02 0.12665800E+03</pdfrwt>
<pdfrwt beam="1">  1       -4 0.33698548E-01 0.12665800E+03</pdfrwt>
<totfact> 0.43418738E+03</totfact>
</mgrwt>
</event>
<event>
 6    4  0.2103460E-003  0.1302645E+03  0.7818608E-02  0.1227064E+00
         -4   -1    0    0    0  501 -0.00000000000E+00  0.00000000000E+00  0.20822438302E+04  0.20822442175E+04  0.12700000000E+01 0.  1.
          4   -1    0    0  502    0  0.00000000000E+00 -0.00000000000E+00 -0.59963468702E+01  0.61293617765E+01  0.12700000000E+01 0.  1.
         25    2    1    2    0    0  0.14017155747E+02 -0.33854589956E+02  0.72372334376E+03  0.73535319434E+03  0.12500491276E+03 0.  0.
    9000005    1    3    3    0    0 -0.22657314829E+01  0.37923134937E+02  0.45948435083E+03  0.46105332268E+03  0.10000000000E+01 0.  0.
    9000005    1    3    3    0    0  0.16282887229E+02 -0.71777724893E+02  0.26423899293E+03  0.27429987166E+03  0.10000000000E+01 0.  0.
         21    1    1    2  502  501 -0.14017155747E+02  0.33854589956E+02  0.13525241396E+04  0.13530203849E+04  0.00000000000E+00 0.  1.
<mgrwt>
<rscale>  1 0.13026451E+03</rscale>
<asrwt>0</asrwt>
<pdfrwt beam="2">  1        4 0.93277547E-03 0.13026451E+03</pdfrwt>
<pdfrwt beam="1">  1       -4 0.32035586E+00 0.13026451E+03</pdfrwt>
<totfact> 0.15622053E+02</totfact>
</mgrwt>
</event>
<event>
 6    4  0.2103460E-003  0.1269985E+03  0.7818608E-02  0.1231979E+00
          4   -1    0    0  502    0  0.00000000000E+00  0.00000000000E+00  0.43411504978E+01  0.45231059732E+01  0.12700000000E+01 0. -1.
         -4   -1    0    0    0  501 -0.00000000000E+00 -0.00000000000E+00 -0.12749081443E+04  0.12749087769E+04  0.12700000000E+01 0. -1.
         25    2    1    2    0    0 -0.36768134053E+01 -0.22141610075E+02 -0.10239501441E+04  0.10317957780E+04  0.12499944024E+03 0.  0.
    9000005    1    3    3    0    0  0.29234509262E+02 -0.17352789438E+01 -0.92600537324E+03  0.92646889802E+03  0.10000000000E+01 0.  0.
    9000005    1    3    3    0    0 -0.32911322667E+02 -0.20406331131E+02 -0.97944770878E+02  0.10532688001E+03  0.10000000000E+01 0.  0.
         21    1    1    2  502  501  0.36768134053E+01  0.22141610075E+02 -0.24661684970E+03  0.24763610481E+03  0.00000000000E+00 0. -1.
<mgrwt>
<rscale>  1 0.12699854E+03</rscale>
<asrwt>0</asrwt>
<pdfrwt beam="1">  1        4 0.68191556E-03 0.12699854E+03</pdfrwt>
<pdfrwt beam="2">  1       -4 0.19615347E+00 0.12699854E+03</pdfrwt>
<totfact> 0.13210514E+03</totfact>
</mgrwt>
</event>
<event>
 6    4  0.2103460E-003  0.1298040E+03  0.7818608E-02  0.1227747E+00
         -4   -1    0    0    0  501 -0.00000000000E+00  0.00000000000E+00  0.87971888153E+02  0.87981054809E+02  0.12700000000E+01 0. -1.
          4   -1    0    0  502    0  0.00000000000E+00 -0.00000000000E+00 -0.98666832462E+02  0.98675005589E+02  0.12700000000E+01 0. -1.
         25    2    1    2    0    0 -0.36755512939E+01 -0.34802192254E+02 -0.45259885430E+02  0.13746828328E+03  0.12499747764E+03 0.  0.
    9000005    1    3    3    0    0 -0.47711128730E+02 -0.57280401413E+02 -0.68807840830E+01  0.74871499120E+02  0.10000000000E+01 0.  0.
    9000005    1    3    3    0    0  0.44035577437E+02  0.22478209160E+02 -0.38379101347E+02  0.62596784162E+02  0.10000000000E+01 0.  0.
         21    1    1    2  502  501  0.36755512939E+01  0.34802192254E+02  0.34564941121E+02  0.49187777117E+02  0.00000000000E+00 0. -1.
<mgrwt>
<rscale>  1 0.12980397E+03</rscale>
<asrwt>0</asrwt>
<pdfrwt beam="2">  1        4 0.15180847E-01 0.12980397E+03</pdfrwt>
<pdfrwt beam="1">  1       -4 0.13535470E-01 0.12980397E+03</pdfrwt>
<totfact> 0.27013931E+03</totfact>
</mgrwt>
</event>
<event>
 6    4  0.2103460E-003  0.1379171E+03  0.7818608E-02  0.1216159E+00
          4   -1    0    0  502    0  0.00000000000E+00  0.00000000000E+00  0.58484846144E+02  0.58498633561E+02  0.12700000000E+01 0. -1.
         -4   -1    0    0    0  501 -0.00000000000E+00 -0.00000000000E+00 -0.19618907348E+03  0.19619318401E+03  0.12700000000E+01 0. -1.
         25    2    1    2    0    0 -0.58244292404E+02  0.45944071670E+00 -0.44748436945E+02  0.14499501885E+03  0.12501409600E+03 0.  0.
    9000005    1    3    3    0    0 -0.33793110371E+02 -0.61503742348E+02 -0.32137700998E+02  0.77191427353E+02  0.10000000000E+01 0.  0.
    9000005    1    3    3    0    0 -0.24451182034E+02  0.61963183065E+02 -0.12610735947E+02  0.67803591494E+02  0.10000000000E+01 0.  0.
         21    1    1    2  502  501  0.58244292404E+02 -0.45944071670E+00 -0.92955790389E+02  0.10969679872E+03  0.00000000000E+00 0. -1.
<mgrwt>
<rscale>  1 0.13791712E+03</rscale>
<asrwt>0</asrwt>
<pdfrwt beam="1">  1        4 0.89990455E-02 0.13791712E+03</pdfrwt>
<pdfrwt beam="2">  1       -4 0.30184311E-01 0.13791712E+03</pdfrwt>
<totfact> 0.15741065E+03</totfact>
</mgrwt>
</event>
<event>
 6    4  0.2103460E-003  0.1324047E+03  0.7818608E-02  0.1223931E+00
         -4   -1    0    0    0  501 -0.00000000000E+00  0.00000000000E+00  0.20665639689E+03  0.20666029923E+03  0.12700000000E+01 0. -1.
          4   -1    0    0  502    0  0.00000000000E+00 -0.00000000000E+00 -0.41645981867E+02  0.41665341781E+02  0.12700000000E+01 0. -1.
         25    2    1    2    0    0 -0.19381760751E+02 -0.39111513853E+02  0.85469357549E+02  0.15759448324E+03  0.12500258758E+03 0.  0.
    9000005    1    3    3    0    0 -0.17026287164E+02  0.30037748999E+02  0.81228628343E+02  0.88268062639E+02  0.10000000000E+01 0.  0.
    9000005    1    3    3    0    0 -0.23554735866E+01 -0.69149262853E+02  0.42407292057E+01  0.69326420599E+02  0.10000000000E+01 0.  0.
         21    1    1    2  502  501  0.19381760751E+02  0.39111513853E+02  0.79541057476E+02  0.90731157769E+02  0.00000000000E+00 0. -1.
<mgrwt>
<rscale>  1 0.13240472E+03</rscale>
<asrwt>0</asrwt>
<pdfrwt beam="2">  1        4 0.64088635E-02 0.13240472E+03</pdfrwt>
<pdfrwt beam="1">  1       -4 0.31795081E-01 0.13240472E+03</pdfrwt>
<totfact> 0.24753154E+03</totfact>
</mgrwt>
</event>
<event>
 6    4  0.2103460E-003  0.1270810E+03  0.7818608E-02  0.1231852E+00
          4   -1    0    0  502    0  0.00000000000E+00  0.00000000000E+00  0.65619118148E+02  0.65631406860E+02  0.12700000000E+01 0.  1.
         -4   -1    0    0    0  501 -0.00000000000E+00 -0.00000000000E+00 -0.10302682005E+03  0.10303464732E+03  0.12700000000E+01 0.  1.
         25    2    1    2    0    0 -0.19737909666E+02 -0.11612719723E+02 -0.27315287081E+01  0.12711034068E+03  0.12500054849E+03 0.  0.
    9000005    1    3    3    0    0 -0.71524129102E+02 -0.63021542631E+01 -0.15584733284E+02  0.73479943547E+02  0.10000000000E+01 0.  0.
    9000005    1    3    3    0    0  0.51786219436E+02 -0.53105654600E+01  0.12853204576E+02  0.53630397135E+02  0.10000000000E+01 0.  0.
         21    1    1    2  502  501  0.19737909666E+02  0.11612719723E+02 -0.34676173190E+02  0.41555713499E+02  0.00000000000E+00 0.  1.
<mgrwt>
<rscale>  1 0.12708099E+03</rscale>
<asrwt>0</asrwt>
<pdfrwt beam="1">  1        4 0.10096796E-01 0.12708099E+03</pdfrwt>
<pdfrwt beam="2">  1       -4 0.15851827E-01 0.12708099E+03</pdfrwt>
<totfact> 0.41068556E+03</totfact>
</mgrwt>
</event>
<event>
 6    4  0.2103460E-003  0.1414589E+03  0.7818608E-02  0.1211379E+00
          4   -1    0    0  502    0  0.00000000000E+00  0.00000000000E+00  0.20599592046E+04  0.20599595960E+04  0.12700000000E+01 0.  1.
         -4   -1    0    0    0  501 -0.00000000000E+00 -0.00000000000E+00 -0.67588807888E+01  0.68771628974E+01  0.12700000000E+01 0.  1.
         25    2    1    2    0    0  0.40276522246E+02  0.52572539656E+02  0.17843886542E+04  0.17899870093E+04  0.12499821651E+03 0.  0.
    9000005    1    3    3    0    0  0.77143011576E+02  0.44615971613E+02  0.15519028818E+04  0.15544597723E+04  0.10000000000E+01 0.  0.
    9000005    1    3    3    0    0 -0.36866489330E+02  0.79565680425E+01  0.23248577238E+03  0.23552723700E+03  0.10000000000E+01 0.  0.
         21    1    1    2  502  501 -0.40276522246E+02 -0.52572539656E+02  0.26881166960E+03  0.27684974966E+03  0.00000000000E+00 0.  1.
<mgrwt>
<rscale>  1 0.14145891E+03</rscale>
<asrwt>0</asrwt>
<pdfrwt beam="1">  1        4 0.31692585E+00 0.14145891E+03</pdfrwt>
<pdfrwt beam="2">  1       -4 0.10489568E-02 0.14145891E+03</pdfrwt>
<totfact> 0.13843752E+02</totfact>
</mgrwt>
</event>
<event>
 6    4  0.2103460E-003  0.1642633E+03  0.7818608E-02  0.1183966E+00
         -4   -1    0    0    0  501 -0.00000000000E+00  0.00000000000E+00  0.17656261898E+03  0.17656718642E+03  0.12700000000E+01 0.  1.
          4   -1    0    0  502    0  0.00000000000E+00 -0.00000000000E+00 -0.15585111777E+03  0.15585629217E+03  0.12700000000E+01 0.  1.
         25    2    1    2    0    0 -0.47392313759E+02  0.95454573443E+02 -0.82716574752E+02  0.18391430752E+03  0.12499933511E+03 0.  0.
    9000005    1    3    3    0    0 -0.52041838775E+02 -0.59612460123E+01 -0.60412450195E+02  0.79965952603E+02  0.10000000000E+01 0.  0.
    9000005    1    3    3    0    0  0.46495250167E+01  0.10141581945E+03 -0.22304124557E+02  0.10394835492E+03  0.10000000000E+01 0.  0.
         21    1    1    2  502  501  0.47392313759E+02 -0.95454573443E+02  0.10342807596E+03  0.14850917107E+03  0.00000000000E+00 0.  1.
<mgrwt>
<rscale>  1 0.16426333E+03</rscale>
<asrwt>0</asrwt>
<pdfrwt beam="2">  1        4 0.23977844E-01 0.16426333E+03</pdfrwt>
<pdfrwt beam="1">  1       -4 0.27164229E-01 0.16426333E+03</pdfrwt>
<totfact> 0.35743695E+02</totfact>
</mgrwt>
</event>
<event>
 6    4  0.2103460E-003  0.1276961E+03  0.7818608E-02  0.1230915E+00
         -4   -1    0    0    0  501 -0.00000000000E+00  0.00000000000E+00  0.15002063207E+03  0.15002600757E+03  0.12700000000E+01 0. -1.
          4   -1    0    0  502    0  0.00000000000E+00 -0.00000000000E+00 -0.39816745121E+02  0.39836994013E+02  0.12700000000E+01 0. -1.
         25    2    1    2    0    0  0.16396125254E+02  0.20322085035E+02  0.83856536718E+02  0.15276848814E+03  0.12499788860E+03 0.  0.
    9000005    1    3    3    0    0  0.17242018076E+02  0.69469527792E+02  0.73353788191E+02  0.10249429604E+03  0.10000000000E+01 0.  0.
    9000005    1    3    3    0    0 -0.84589282172E+00 -0.49147442758E+02  0.10502748527E+02  0.50274192096E+02  0.10000000000E+01 0.  0.
         21    1    1    2  502  501 -0.16396125254E+02 -0.20322085035E+02  0.26347350235E+02  0.37094513447E+02  0.00000000000E+00 0. -1.
<mgrwt>
<rscale>  1 0.12769609E+03</rscale>
<asrwt>0</asrwt>
<pdfrwt beam="2">  1        4 0.61276242E-02 0.12769609E+03</pdfrwt>
<pdfrwt beam="1">  1       -4 0.23082068E-01 0.12769609E+03</pdfrwt>
<totfact> 0.47946545E+03</totfact>
</mgrwt>
</event>
<event>
 6    4  0.2103460E-003  0.1274396E+03  0.7818608E-02  0.1231305E+00
          4   -1    0    0  502    0  0.00000000000E+00  0.00000000000E+00  0.16837976980E+03  0.16838455920E+03  0.12700000000E+01 0.  1.
         -4   -1    0    0    0  501 -0.00000000000E+00 -0.00000000000E+00 -0.85977164360E+02  0.85986543664E+02  0.12700000000E+01 0.  1.
         25    2    1    2    0    0  0.12139732110E+02 -0.21662555732E+02  0.14140375971E+03  0.19035723233E+03  0.12499685285E+03 0.  0.
    9000005    1    3    3    0    0 -0.28431721998E+02  0.41820050902E+02  0.71472094181E+02  0.87558778657E+02  0.10000000000E+01 0.  0.
    9000005    1    3    3    0    0  0.40571454108E+02 -0.63482606635E+02  0.69931665526E+02  0.10279845367E+03  0.10000000000E+01 0.  0.
         21    1    1    2  502  501 -0.12139732110E+02  0.21662555732E+02 -0.59001154268E+02  0.64013870540E+02  0.00000000000E+00 0.  1.
<mgrwt>
<rscale>  1 0.12743960E+03</rscale>
<asrwt>0</asrwt>
<pdfrwt beam="1">  1        4 0.25905670E-01 0.12743960E+03</pdfrwt>
<pdfrwt beam="2">  1       -4 0.13228346E-01 0.12743960E+03</pdfrwt>
<totfact> 0.10715435E+03</totfact>
</mgrwt>
</event>
<event>
 6    4  0.2103460E-003  0.1306627E+03  0.7818608E-02  0.1226476E+00
          4   -1    0    0  502    0  0.00000000000E+00  0.00000000000E+00  0.17223315501E+03  0.17223783726E+03  0.12700000000E+01 0. -1.
         -4   -1    0    0    0  501 -0.00000000000E+00 -0.00000000000E+00 -0.41422087792E+02  0.41441552300E+02  0.12700000000E+01 0. -1.
         25    2    1    2    0    0 -0.27164995096E+02 -0.26695613473E+02  0.96740595696E+02  0.16257763062E+03  0.12498860102E+03 0.  0.
    9000005    1    3    3    0    0 -0.51448975066E+02 -0.64387631974E+02  0.44300846877E+02  0.93575259661E+02  0.10000000000E+01 0.  0.
    9000005    1    3    3    0    0  0.24283979969E+02  0.37692018501E+02  0.52439748819E+02  0.69002370960E+02  0.10000000000E+01 0.  0.
         21    1    1    2  502  501  0.27164995096E+02  0.26695613473E+02  0.34070471525E+02  0.51101758944E+02  0.00000000000E+00 0. -1.
<mgrwt>
<rscale>  1 0.13066271E+03</rscale>
<asrwt>0</asrwt>
<pdfrwt beam="1">  1        4 0.26499266E-01 0.13066271E+03</pdfrwt>
<pdfrwt beam="2">  1       -4 0.63744863E-02 0.13066271E+03</pdfrwt>
<totfact> 0.35064330E+03</totfact>
</mgrwt>
</event>
<event>
 6    4  0.2103460E-003  0.1338343E+03  0.7818608E-02  0.1221875E+00
         -4   -1    0    0    0  501 -0.00000000000E+00  0.00000000000E+00  0.35794187717E+03  0.35794413018E+03  0.12700000000E+01 0. -1.
          4   -1    0    0  502    0  0.00000000000E+00 -0.00000000000E+00 -0.27715765909E+02  0.27744847808E+02  0.12700000000E+01 0. -1.
         25    2    1    2    0    0 -0.23186667889E+02  0.41815420112E+02  0.15857713443E+03  0.20750502199E+03  0.12500190263E+03 0.  0.
    9000005    1    3    3    0    0  0.19478391233E+02 -0.34277848855E+02  0.83735816521E+02  0.92558444323E+02  0.10000000000E+01 0.  0.
    9000005    1    3    3    0    0 -0.42665059122E+02  0.76093268967E+02  0.74841317908E+02  0.11494657767E+03  0.10000000000E+01 0.  0.
         21    1    1    2  502  501  0.23186667889E+02 -0.41815420112E+02  0.17164897684E+03  0.17818395600E+03  0.00000000000E+00 0.  1.
<mgrwt>
<rscale>  1 0.13383433E+03</rscale>
<asrwt>0</asrwt>
<pdfrwt beam="2">  1        4 0.42663743E-02 0.13383433E+03</pdfrwt>
<pdfrwt beam="1">  1       -4 0.55070392E-01 0.13383433E+03</pdfrwt>
<totfact> 0.16090566E+03</totfact>
</mgrwt>
</event>
<event>
 6    4  0.2103460E-003  0.1286533E+03  0.7818608E-02  0.1229468E+00
          4   -1    0    0  502    0  0.00000000000E+00  0.00000000000E+00  0.61693475605E+02  0.61706546105E+02  0.12700000000E+01 0. -1.
         -4   -1    0    0    0  501 -0.00000000000E+00 -0.00000000000E+00 -0.21562320144E+03  0.21562694150E+03  0.12700000000E+01 0. -1.
         25    2    1    2    0    0 -0.12140502088E+02  0.27902398287E+02 -0.86966899651E+01  0.12894693050E+03  0.12500297135E+03 0.  0.
    9000005    1    3    3    0    0 -0.66938429523E+02  0.30961369746E+02 -0.53574053872E+01  0.73953103762E+02  0.10000000000E+01 0.  0.
    9000005    1    3    3    0    0  0.54797927435E+02 -0.30589714583E+01 -0.33392845779E+01  0.54993826736E+02  0.10000000000E+01 0.  0.
         21    1    1    2  502  501  0.12140502088E+02 -0.27902398287E+02 -0.14523303587E+03  0.14838655710E+03  0.00000000000E+00 0. -1.
<mgrwt>
<rscale>  1 0.12865333E+03</rscale>
<asrwt>0</asrwt>
<pdfrwt beam="1">  1        4 0.94925972E-02 0.12865333E+03</pdfrwt>
<pdfrwt beam="2">  1       -4 0.33174093E-01 0.12865333E+03</pdfrwt>
<totfact> 0.11847053E+03</totfact>
</mgrwt>
</event>
<event>
 6    4  0.2103460E-003  0.1313547E+03  0.7818608E-02  0.1225459E+00
         -4   -1    0    0    0  501 -0.00000000000E+00  0.00000000000E+00  0.34827091127E+03  0.34827322684E+03  0.12700000000E+01 0. -1.
          4   -1    0    0  502    0  0.00000000000E+00 -0.00000000000E+00 -0.36602792685E+02  0.36624818530E+02  0.12700000000E+01 0. -1.
         25    2    1    2    0    0  0.25313955003E+02 -0.31431888175E+02  0.89152326731E+02  0.15875199182E+03  0.12500119053E+03 0.  0.
    9000005    1    3    3    0    0  0.71871101242E+02 -0.28479082619E+02  0.79899493789E+02  0.11118202394E+03  0.10000000000E+01 0.  0.
    9000005    1    3    3    0    0 -0.46557146239E+02 -0.29528055557E+01  0.92528329420E+01  0.47569967879E+02  0.10000000000E+01 0.  0.
         21    1    1    2  502  501 -0.25313955003E+02  0.31431888175E+02  0.22251579185E+03  0.22614605355E+03  0.00000000000E+00 0.  1.
<mgrwt>
<rscale>  1 0.13135470E+03</rscale>
<asrwt>0</asrwt>
<pdfrwt beam="2">  1        4 0.56330710E-02 0.13135470E+03</pdfrwt>
<pdfrwt beam="1">  1       -4 0.53582015E-01 0.13135470E+03</pdfrwt>
<totfact> 0.10854985E+03</totfact>
</mgrwt>
</event>
<event>
 6    4  0.2103460E-003  0.1339123E+03  0.7818608E-02  0.1221763E+00
          4   -1    0    0  502    0  0.00000000000E+00  0.00000000000E+00  0.14039885358E+02  0.14097208265E+02  0.12700000000E+01 0. -1.
         -4   -1    0    0    0  501 -0.00000000000E+00 -0.00000000000E+00 -0.79299455094E+03  0.79299556791E+03  0.12700000000E+01 0. -1.
         25    2    1    2    0    0 -0.15719672498E+02  0.45405424881E+02 -0.33851193614E+03  0.36403684445E+03  0.12499492989E+03 0.  0.
    9000005    1    3    3    0    0 -0.29707282919E+02 -0.31001254549E+02 -0.20603219452E+03  0.21046107864E+03  0.10000000000E+01 0.  0.
    9000005    1    3    3    0    0  0.13987610421E+02  0.76406679430E+02 -0.13247974161E+03  0.15357576581E+03  0.10000000000E+01 0.  0.
         21    1    1    2  502  501  0.15719672498E+02 -0.45405424881E+02 -0.44044272944E+03  0.44305593172E+03  0.00000000000E+00 0. -1.
<mgrwt>
<rscale>  1 0.13391226E+03</rscale>
<asrwt>0</asrwt>
<pdfrwt beam="1">  1        4 0.21644707E-02 0.13391226E+03</pdfrwt>
<pdfrwt beam="2">  1       -4 0.12200361E+00 0.13391226E+03</pdfrwt>
<totfact> 0.79313866E+02</totfact>
</mgrwt>
</event>
<event>
 6    4  0.2103460E-003  0.1269305E+03  0.7818608E-02  0.1232083E+00
         -4   -1    0    0    0  501 -0.00000000000E+00  0.00000000000E+00  0.80633306352E+02  0.80643307182E+02  0.12700000000E+01 0. -1.
          4   -1    0    0  502    0  0.00000000000E+00 -0.00000000000E+00 -0.15658016069E+03  0.15658531100E+03  0.12700000000E+01 0. -1.
         25    2    1    2    0    0  0.22016834594E+02  0.13312736232E+01 -0.12826378424E+03  0.18045208738E+03  0.12499937679E+03 0.  0.
    9000005    1    3    3    0    0 -0.50194328699E+02  0.11357097834E+02 -0.35792055713E+02  0.62693903667E+02  0.10000000000E+01 0.  0.
    9000005    1    3    3    0    0  0.72211163293E+02 -0.10025824211E+02 -0.92471728528E+02  0.11775818372E+03  0.10000000000E+01 0.  0.
         21    1    1    2  502  501 -0.22016834594E+02 -0.13312736232E+01  0.52316929905E+02  0.56776530799E+02  0.00000000000E+00 0. -1.
<mgrwt>
<rscale>  1 0.12693052E+03</rscale>
<asrwt>0</asrwt>
<pdfrwt beam="2">  1        4 0.24090421E-01 0.12693052E+03</pdfrwt>
<pdfrwt beam="1">  1       -4 0.12406290E-01 0.12693052E+03</pdfrwt>
<totfact> 0.13666476E+03</totfact>
</mgrwt>
</event>
<event>
 6    4  0.2103460E-003  0.1314905E+03  0.7818608E-02  0.1225261E+00
          4   -1    0    0  502    0  0.00000000000E+00  0.00000000000E+00  0.17074867814E+02  0.17122032907E+02  0.12700000000E+01 0.  1.
         -4   -1    0    0    0  501 -0.00000000000E+00 -0.00000000000E+00 -0.80720614732E+03  0.80720714638E+03  0.12700000000E+01 0.  1.
         25    2    1    2    0    0  0.16192107752E+02 -0.37450970237E+02 -0.24833101206E+03  0.28099476171E+03  0.12500002012E+03 0.  0.
    9000005    1    3    3    0    0  0.14692563296E+02 -0.79780589990E+02 -0.20463927675E+03  0.22013415806E+03  0.10000000000E+01 0.  0.
    9000005    1    3    3    0    0  0.14995444560E+01  0.42329619753E+02 -0.43691735310E+02  0.60860603648E+02  0.10000000000E+01 0.  0.
         21    1    1    2  502  501 -0.16192107752E+02  0.37450970237E+02 -0.54180026744E+03  0.54333441758E+03  0.00000000000E+00 0.  1.
<mgrwt>
<rscale>  1 0.13149055E+03</rscale>
<asrwt>0</asrwt>
<pdfrwt beam="1">  1        4 0.26306083E-02 0.13149055E+03</pdfrwt>
<pdfrwt beam="2">  1       -4 0.12418924E+00 0.13149055E+03</pdfrwt>
<totfact> 0.55947753E+02</totfact>
</mgrwt>
</event>
<event>
 6    4  0.2103460E-003  0.1276063E+03  0.7818608E-02  0.1231051E+00
          4   -1    0    0  502    0  0.00000000000E+00  0.00000000000E+00  0.29265046516E+03  0.29265322082E+03  0.12700000000E+01 0. -1.
         -4   -1    0    0    0  501 -0.00000000000E+00 -0.00000000000E+00 -0.20060486537E+02  0.20100647256E+02  0.12700000000E+01 0. -1.
         25    2    1    2    0    0  0.18830813103E+02 -0.17372615250E+02  0.22263249551E+03  0.25660979090E+03  0.12500779755E+03 0.  0.
    9000005    1    3    3    0    0  0.38390511768E+02  0.46768837468E+02  0.10816870204E+03  0.12394605139E+03  0.10000000000E+01 0.  0.
    9000005    1    3    3    0    0 -0.19559698666E+02 -0.64141452719E+02  0.11446379346E+03  0.13266373952E+03  0.10000000000E+01 0.  0.
         21    1    1    2  502  501 -0.18830813103E+02  0.17372615250E+02  0.49957483112E+02  0.56144077173E+02  0.00000000000E+00 0.  1.
<mgrwt>
<rscale>  1 0.12760626E+03</rscale>
<asrwt>0</asrwt>
<pdfrwt beam="1">  1        4 0.45026452E-01 0.12760626E+03</pdfrwt>
<pdfrwt beam="2">  1       -4 0.30895298E-02 0.12760626E+03</pdfrwt>
<totfact> 0.39903532E+03</totfact>
</mgrwt>
</event>
<event>
 6    4  0.2103460E-003  0.1296455E+03  0.7818608E-02  0.1227983E+00
          4   -1    0    0  502    0  0.00000000000E+00  0.00000000000E+00  0.14540923210E+03  0.14541477806E+03  0.12700000000E+01 0.  1.
         -4   -1    0    0    0  501 -0.00000000000E+00 -0.00000000000E+00 -0.46647294305E+02  0.46664579351E+02  0.12700000000E+01 0.  1.
         25    2    1    2    0    0 -0.28000277918E+02  0.20013043817E+02  0.84927022675E+02  0.15498566034E+03  0.12499367282E+03 0.  0.
    9000005    1    3    3    0    0  0.20940637577E+02 -0.42996258435E+02  0.45368978141E+02  0.65928239163E+02  0.10000000000E+01 0.  0.
    9000005    1    3    3    0    0 -0.48940915495E+02  0.63009302251E+02  0.39558044533E+02  0.89057421179E+02  0.10000000000E+01 0.  0.
         21    1    1    2  502  501  0.28000277918E+02 -0.20013043817E+02  0.13834915119E+02  0.37093697075E+02  0.00000000000E+00 0.  1.
<mgrwt>
<rscale>  1 0.12964550E+03</rscale>
<asrwt>0</asrwt>
<pdfrwt beam="1">  1        4 0.22372407E-01 0.12964550E+03</pdfrwt>
<pdfrwt beam="2">  1       -4 0.71782631E-02 0.12964550E+03</pdfrwt>
<totfact> 0.39338868E+03</totfact>
</mgrwt>
</event>
<event>
 6    4  0.2103460E-003  0.1267058E+03  0.7818608E-02  0.1232427E+00
         -4   -1    0    0    0  501 -0.00000000000E+00  0.00000000000E+00  0.26968048312E+03  0.26968347349E+03  0.12700000000E+01 0. -1.
          4   -1    0    0  502    0  0.00000000000E+00 -0.00000000000E+00 -0.21222992565E+02  0.21260957490E+02  0.12700000000E+01 0. -1.
         25    2    1    2    0    0 -0.19393104945E+02 -0.72356424307E+01  0.18527296997E+03  0.22445585540E+03  0.12500364228E+03 0.  0.
    9000005    1    3    3    0    0 -0.22650156597E+02 -0.64724789587E+02  0.90374990551E+02  0.11345028382E+03  0.10000000000E+01 0.  0.
    9000005    1    3    3    0    0  0.32570516524E+01  0.57489147156E+02  0.94897979417E+02  0.11100557159E+03  0.10000000000E+01 0.  0.
         21    1    1    2  502  501  0.19393104945E+02  0.72356424307E+01  0.63184520585E+02  0.66488575578E+02  0.00000000000E+00 0. -1.
<mgrwt>
<rscale>  1 0.12670579E+03</rscale>
<asrwt>0</asrwt>
<pdfrwt beam="2">  1        4 0.32682262E-02 0.12670579E+03</pdfrwt>
<pdfrwt beam="1">  1       -4 0.41492455E-01 0.12670579E+03</pdfrwt>
<totfact> 0.42906610E+03</totfact>
</mgrwt>
</event>
<event>
 6    4  0.2103460E-003  0.1756508E+03  0.7818608E-02  0.1172080E+00
         -4   -1    0    0    0  501 -0.00000000000E+00  0.00000000000E+00  0.32381973534E+03  0.32382222576E+03  0.12700000000E+01 0. -1.
          4   -1    0    0  502    0  0.00000000000E+00 -0.00000000000E+00 -0.88774410244E+02  0.88783494041E+02  0.12700000000E+01 0. -1.
         25    2    1    2    0    0 -0.11763907681E+03  0.37275511063E+02  0.37383156094E+02  0.17958479977E+03  0.12499913532E+03 0.  0.
    9000005    1    3    3    0    0 -0.13074790369E+03  0.25006584819E+02  0.63806276656E+02  0.14762311656E+03  0.10000000000E+01 0.  0.
    9000005    1    3    3    0    0  0.13108826873E+02  0.12268926244E+02 -0.26423120562E+02  0.31961683207E+02  0.10000000000E+01 0.  0.
         21    1    1    2  502  501  0.11763907681E+03 -0.37275511063E+02  0.19766216900E+03  0.23302092004E+03  0.00000000000E+00 0. -1.
<mgrwt>
<rscale>  1 0.17565079E+03</rscale>
<asrwt>0</asrwt>
<pdfrwt beam="2">  1        4 0.13658492E-01 0.17565079E+03</pdfrwt>
<pdfrwt beam="1">  1       -4 0.49819310E-01 0.17565079E+03</pdfrwt>
<totfact> 0.30226113E+02</totfact>
</mgrwt>
</event>
<event>
 6    4  0.2103460E-003  0.1285501E+03  0.7818608E-02  0.1229623E+00
          4   -1    0    0  502    0  0.00000000000E+00  0.00000000000E+00  0.69503365398E+02  0.69514967465E+02  0.12700000000E+01 0.  1.
         -4   -1    0    0    0  501 -0.00000000000E+00 -0.00000000000E+00 -0.94394157059E+02  0.94402700104E+02  0.12700000000E+01 0.  1.
         25    2    1    2    0    0 -0.21058502519E+02  0.21329443720E+02 -0.64205090492E+01  0.12871032405E+03  0.12500687535E+03 0.  0.
    9000005    1    3    3    0    0  0.19452536248E+02  0.70153471849E+01 -0.57993171562E+02  0.61577789912E+02  0.10000000000E+01 0.  0.
    9000005    1    3    3    0    0 -0.40511038766E+02  0.14314096535E+02  0.51572662513E+02  0.67132534141E+02  0.10000000000E+01 0.  0.
         21    1    1    2  502  501  0.21058502519E+02 -0.21329443720E+02 -0.18470282612E+02  0.35207343516E+02  0.00000000000E+00 0.  1.
<mgrwt>
<rscale>  1 0.12855009E+03</rscale>
<asrwt>0</asrwt>
<pdfrwt beam="1">  1        4 0.10694375E-01 0.12855009E+03</pdfrwt>
<pdfrwt beam="2">  1       -4 0.14523728E-01 0.12855009E+03</pdfrwt>
<totfact> 0.43545237E+03</totfact>
</mgrwt>
</event>
<event>
 6    4  0.2103460E-003  0.1277078E+03  0.7818608E-02  0.1230897E+00
         -4   -1    0    0    0  501 -0.00000000000E+00  0.00000000000E+00  0.28799550308E+03  0.28799830329E+03  0.12700000000E+01 0. -1.
          4   -1    0    0  502    0  0.00000000000E+00 -0.00000000000E+00 -0.20828859604E+02  0.20867541599E+02  0.12700000000E+01 0. -1.
         25    2    1    2    0    0 -0.78032361589E+01 -0.25002356234E+02  0.20668824178E+03  0.24295950692E+03  0.12499313742E+03 0.  0.
    9000005    1    3    3    0    0 -0.16429647827E+02 -0.53873581567E+02  0.30203873366E+02  0.63918464350E+02  0.10000000000E+01 0.  0.
    9000005    1    3    3    0    0  0.86264116676E+01  0.28871225333E+02  0.17648436842E+03  0.17904104257E+03  0.10000000000E+01 0.  0.
         21    1    1    2  502  501  0.78032361589E+01  0.25002356234E+02  0.60478401697E+02  0.65906337962E+02  0.00000000000E+00 0.  1.
<mgrwt>
<rscale>  1 0.12770784E+03</rscale>
<asrwt>0</asrwt>
<pdfrwt beam="2">  1        4 0.32076310E-02 0.12770784E+03</pdfrwt>
<pdfrwt beam="1">  1       -4 0.44310189E-01 0.12770784E+03</pdfrwt>
<totfact> 0.38856877E+03</totfact>
</mgrwt>
</event>
<event>
 6    4  0.2103460E-003  0.1323440E+03  0.7818608E-02  0.1224019E+00
         -4   -1    0    0    0  501 -0.00000000000E+00  0.00000000000E+00  0.90104494485E+02  0.90113444204E+02  0.12700000000E+01 0. -1.
          4   -1    0    0  502    0  0.00000000000E+00 -0.00000000000E+00 -0.16819348222E+03  0.16819827692E+03  0.12700000000E+01 0. -1.
         25    2    1    2    0    0 -0.82496450177E+01  0.42702418077E+02 -0.13342574910E+03  0.18792912163E+03  0.12499348415E+03 0.  0.
    9000005    1    3    3    0    0  0.13633238122E+02  0.58650133789E+02 -0.14609289740E+03  0.15801847375E+03  0.10000000000E+01 0.  0.
    9000005    1    3    3    0    0 -0.21882883139E+02 -0.15947715712E+02  0.12667148296E+02  0.29910647885E+02  0.10000000000E+01 0.  0.
         21    1    1    2  502  501  0.82496450177E+01 -0.42702418077E+02  0.55336761372E+02  0.70382599495E+02  0.00000000000E+00 0. -1.
<mgrwt>
<rscale>  1 0.13234396E+03</rscale>
<asrwt>0</asrwt>
<pdfrwt beam="2">  1        4 0.25876977E-01 0.13234396E+03</pdfrwt>
<pdfrwt beam="1">  1       -4 0.13863287E-01 0.13234396E+03</pdfrwt>
<totfact> 0.99838623E+02</totfact>
</mgrwt>
</event>
<event>
 6    4  0.2103460E-003  0.1273772E+03  0.7818608E-02  0.1231400E+00
         -4   -1    0    0    0  501 -0.00000000000E+00  0.00000000000E+00  0.10640009525E+02  0.10715535577E+02  0.12700000000E+01 0.  1.
          4   -1    0    0  502    0  0.00000000000E+00 -0.00000000000E+00 -0.10429614329E+04  0.10429622062E+04  0.12700000000E+01 0.  1.
         25    2    1    2    0    0 -0.33424916661E+01 -0.24257228503E+02 -0.10166659747E+04  0.10246143892E+04  0.12500142835E+03 0.  0.
    9000005    1    3    3    0    0 -0.36536118999E+02 -0.65065925633E+02 -0.61932099017E+03  0.62380121156E+03  0.10000000000E+01 0.  0.
    9000005    1    3    3    0    0  0.33193627333E+02  0.40808697130E+02 -0.39734498456E+03  0.40081317769E+03  0.10000000000E+01 0.  0.
         21    1    1    2  502  501  0.33424916661E+01  0.24257228503E+02 -0.15655448688E+02  0.29063352505E+02  0.00000000000E+00 0.  1.
<mgrwt>
<rscale>  1 0.12737717E+03</rscale>
<asrwt>0</asrwt>
<pdfrwt beam="2">  1        4 0.16046139E+00 0.12737717E+03</pdfrwt>
<pdfrwt beam="1">  1       -4 0.16427945E-02 0.12737717E+03</pdfrwt>
<totfact> 0.60492181E+02</totfact>
</mgrwt>
</event>
<event>
 6    4  0.2103460E-003  0.1329107E+03  0.7818608E-02  0.1223200E+00
         -4   -1    0    0    0  501 -0.00000000000E+00  0.00000000000E+00  0.14749699185E+02  0.14804273911E+02  0.12700000000E+01 0.  1.
          4   -1    0    0  502    0  0.00000000000E+00 -0.00000000000E+00 -0.55893377240E+03  0.55893521524E+03  0.12700000000E+01 0.  1.
         25    2    1    2    0    0  0.23281289525E+02  0.38707357212E+02 -0.35039328987E+03  0.37475419911E+03  0.12499989686E+03 0.  0.
    9000005    1    3    3    0    0  0.74521412494E+02  0.24658380899E+02 -0.23365999905E+03  0.24649436469E+03  0.10000000000E+01 0.  0.
    9000005    1    3    3    0    0 -0.51240122970E+02  0.14048976313E+02 -0.11673329082E+03  0.12825983441E+03  0.10000000000E+01 0.  0.
         21    1    1    2  502  501 -0.23281289525E+02 -0.38707357212E+02 -0.19379078334E+03  0.19898529004E+03  0.00000000000E+00 0.  1.
<mgrwt>
<rscale>  1 0.13291069E+03</rscale>
<asrwt>0</asrwt>
<pdfrwt beam="2">  1        4 0.85994104E-01 0.13291069E+03</pdfrwt>
<pdfrwt beam="1">  1       -4 0.22734940E-02 0.13291069E+03</pdfrwt>
<totfact> 0.16536180E+03</totfact>
</mgrwt>
</event>
<event>
 6    4  0.2103460E-003  0.1275460E+03  0.7818608E-02  0.1231143E+00
         -4   -1    0    0    0  501 -0.00000000000E+00  0.00000000000E+00  0.28578737334E+03  0.28579019518E+03  0.12700000000E+01 0. -1.
          4   -1    0    0  502    0  0.00000000000E+00 -0.00000000000E+00 -0.21855051143E+02  0.21891919981E+02  0.12700000000E+01 0. -1.
         25    2    1    2    0    0 -0.21493895878E+02  0.13441725735E+02  0.18444215107E+03  0.22424738104E+03  0.12500125305E+03 0.  0.
    9000005    1    3    3    0    0  0.26417087096E+02 -0.39941215068E+02  0.11424297063E+03  0.12387743738E+03  0.10000000000E+01 0.  0.
    9000005    1    3    3    0    0 -0.47910982974E+02  0.53382940803E+02  0.70199180430E+02  0.10036994367E+03  0.10000000000E+01 0.  0.
         21    1    1    2  502  501  0.21493895878E+02 -0.13441725735E+02  0.79490171133E+02  0.83434734119E+02  0.00000000000E+00 0.  1.
<mgrwt>
<rscale>  1 0.12754599E+03</rscale>
<asrwt>0</asrwt>
<pdfrwt beam="2">  1        4 0.33653688E-02 0.12754599E+03</pdfrwt>
<pdfrwt beam="1">  1       -4 0.43970340E-01 0.12754599E+03</pdfrwt>
<totfact> 0.36580360E+03</totfact>
</mgrwt>
</event>
<event>
 6    4  0.2103460E-003  0.1270479E+03  0.7818608E-02  0.1231903E+00
          4   -1    0    0  502    0  0.00000000000E+00  0.00000000000E+00  0.13116419718E+04  0.13116425867E+04  0.12700000000E+01 0.  1.
         -4   -1    0    0    0  501 -0.00000000000E+00 -0.00000000000E+00 -0.42387259262E+01  0.44248951940E+01  0.12700000000E+01 0.  1.
         25    2    1    2    0    0 -0.12546751099E+02 -0.18952346225E+02  0.11573716960E+04  0.11643240195E+04  0.12499826956E+03 0.  0.
    9000005    1    3    3    0    0  0.16351068116E+02  0.46918873649E+02  0.64722223277E+03  0.64912738097E+03  0.10000000000E+01 0.  0.
    9000005    1    3    3    0    0 -0.28897819215E+02 -0.65871219874E+02  0.51014946320E+03  0.51519663854E+03  0.10000000000E+01 0.  0.
         21    1    1    2  502  501  0.12546751099E+02  0.18952346225E+02  0.15003154992E+03  0.15174346233E+03  0.00000000000E+00 0. -1.
<mgrwt>
<rscale>  1 0.12704794E+03</rscale>
<asrwt>0</asrwt>
<pdfrwt beam="1">  1        4 0.20180541E+00 0.12704794E+03</pdfrwt>
<pdfrwt beam="2">  1       -4 0.66647978E-03 0.12704794E+03</pdfrwt>
<totfact> 0.12607901E+03</totfact>
</mgrwt>
</event>
<event>
 6    4  0.2103460E-003  0.1417489E+03  0.7818608E-02  0.1210995E+00
         -4   -1    0    0    0  501 -0.00000000000E+00  0.00000000000E+00  0.67815821379E+02  0.67827712105E+02  0.12700000000E+01 0. -1.
          4   -1    0    0  502    0  0.00000000000E+00 -0.00000000000E+00 -0.81844247680E+03  0.81844346215E+03  0.12700000000E+01 0. -1.
         25    2    1    2    0    0  0.66791374751E+02  0.33600548044E+01 -0.79400518283E+03  0.80655872636E+03  0.12498148260E+03 0.  0.
    9000005    1    3    3    0    0  0.85790750386E+02 -0.19962266577E+02 -0.32925221197E+03  0.34083216401E+03  0.10000000000E+01 0.  0.
    9000005    1    3    3    0    0 -0.18999375635E+02  0.23322321381E+02 -0.46475297086E+03  0.46572656235E+03  0.10000000000E+01 0.  0.
         21    1    1    2  502  501 -0.66791374751E+02 -0.33600548044E+01  0.43378527408E+02  0.79712447896E+02  0.00000000000E+00 0. -1.
<mgrwt>
<rscale>  1 0.14174889E+03</rscale>
<asrwt>0</asrwt>
<pdfrwt beam="2">  1        4 0.12591521E+00 0.14174889E+03</pdfrwt>
<pdfrwt beam="1">  1       -4 0.10434194E-01 0.14174889E+03</pdfrwt>
<totfact> 0.59090021E+01</totfact>
</mgrwt>
</event>
<event>
 6    4  0.2103460E-003  0.1283306E+03  0.7818608E-02  0.1229954E+00
          4   -1    0    0  502    0  0.00000000000E+00  0.00000000000E+00  0.86641647167E+03  0.86641740246E+03  0.12700000000E+01 0.  1.
         -4   -1    0    0    0  501 -0.00000000000E+00 -0.00000000000E+00 -0.71891310054E+01  0.73004455078E+01  0.12700000000E+01 0.  1.
         25    2    1    2    0    0 -0.29032680765E+02 -0.83427332682E+00  0.73680179637E+03  0.74789413613E+03  0.12500063663E+03 0.  0.
    9000005    1    3    3    0    0  0.12341179765E+01 -0.24293206068E+02  0.24416562472E+02  0.34479724929E+02  0.10000000000E+01 0.  0.
    9000005    1    3    3    0    0 -0.30266798741E+02  0.23458932742E+02  0.71238523390E+03  0.71341441120E+03  0.10000000000E+01 0.  0.
         21    1    1    2  502  501  0.29032680765E+02  0.83427332682E+00  0.12242554429E+03  0.12582371184E+03  0.00000000000E+00 0.  1.
<mgrwt>
<rscale>  1 0.12833063E+03</rscale>
<asrwt>0</asrwt>
<pdfrwt beam="1">  1        4 0.13330346E+00 0.12833063E+03</pdfrwt>
<pdfrwt beam="2">  1       -4 0.11146546E-02 0.12833063E+03</pdfrwt>
<totfact> 0.17437820E+03</totfact>
</mgrwt>
</event>
<event>
 6    4  0.2103460E-003  0.1359971E+03  0.7818608E-02  0.1218819E+00
          4   -1    0    0  502    0  0.00000000000E+00  0.00000000000E+00  0.22917305891E+03  0.22917657784E+03  0.12700000000E+01 0.  1.
         -4   -1    0    0    0  501 -0.00000000000E+00 -0.00000000000E+00 -0.47042542842E+02  0.47059682713E+02  0.12700000000E+01 0.  1.
         25    2    1    2    0    0 -0.60106819106E+01 -0.53241301356E+02  0.17583123268E+03  0.22228771620E+03  0.12499776765E+03 0.  0.
    9000005    1    3    3    0    0  0.29835861054E+02 -0.32930190281E+02  0.29315370525E+01  0.44544022565E+02  0.10000000000E+01 0.  0.
    9000005    1    3    3    0    0 -0.35846542965E+02 -0.20311111075E+02  0.17289969563E+03  0.17774369363E+03  0.10000000000E+01 0.  0.
         21    1    1    2  502  501  0.60106819106E+01  0.53241301356E+02  0.62992833832E+01  0.53948544357E+02  0.00000000000E+00 0.  1.
<mgrwt>
<rscale>  1 0.13599708E+03</rscale>
<asrwt>0</asrwt>
<pdfrwt beam="1">  1        4 0.35258983E-01 0.13599708E+03</pdfrwt>
<pdfrwt beam="2">  1       -4 0.72389035E-02 0.13599708E+03</pdfrwt>
<totfact> 0.16727443E+03</totfact>
</mgrwt>
</event>
<event>
 6    4  0.2103460E-003  0.1342442E+03  0.7818608E-02  0.1221291E+00
         -4   -1    0    0    0  501 -0.00000000000E+00  0.00000000000E+00  0.18858730955E+03  0.18859158577E+03  0.12700000000E+01 0.  1.
          4   -1    0    0  502    0  0.00000000000E+00 -0.00000000000E+00 -0.88827882446E+02  0.88836960775E+02  0.12700000000E+01 0.  1.
         25    2    1    2    0    0 -0.34557022862E+02  0.34641974075E+02 -0.31031643917E+02  0.13778414653E+03  0.12500901533E+03 0.  0.
    9000005    1    3    3    0    0 -0.58248395271E+02  0.69105808451E+02 -0.99273999668E+01  0.90928772033E+02  0.10000000000E+01 0.  0.
    9000005    1    3    3    0    0  0.23691372409E+02 -0.34463834377E+02 -0.21104243950E+02  0.46855374497E+02  0.10000000000E+01 0.  0.
         21    1    1    2  502  501  0.34557022862E+02 -0.34641974075E+02  0.13079107103E+03  0.13964440002E+03  0.00000000000E+00 0.  1.
<mgrwt>
<rscale>  1 0.13424421E+03</rscale>
<asrwt>0</asrwt>
<pdfrwt beam="2">  1        4 0.13666855E-01 0.13424421E+03</pdfrwt>
<pdfrwt beam="1">  1       -4 0.29014459E-01 0.13424421E+03</pdfrwt>
<totfact> 0.82891399E+02</totfact>
</mgrwt>
</event>
<event>
 6    4  0.2103460E-003  0.1376890E+03  0.7818608E-02  0.1216473E+00
         -4   -1    0    0    0  501 -0.00000000000E+00  0.00000000000E+00  0.18379813185E+03  0.18380251949E+03  0.12700000000E+01 0.  1.
          4   -1    0    0  502    0  0.00000000000E+00 -0.00000000000E+00 -0.57640672055E+02  0.57654661346E+02  0.12700000000E+01 0.  1.
         25    2    1    2    0    0 -0.81820215299E+01  0.57154879060E+02  0.12132854217E+03  0.18351803930E+03  0.12499851970E+03 0.  0.
    9000005    1    3    3    0    0  0.43964326389E+02  0.25141403959E+02  0.11024439215E+03  0.12132509299E+03  0.10000000000E+01 0.  0.
    9000005    1    3    3    0    0 -0.52146347919E+02  0.32013475101E+02  0.11084150011E+02  0.62192946310E+02  0.10000000000E+01 0.  0.
         21    1    1    2  502  501  0.81820215299E+01 -0.57154879060E+02  0.48289176314E+01  0.57939141538E+02  0.00000000000E+00 0.  1.
<mgrwt>
<rscale>  1 0.13768898E+03</rscale>
<asrwt>0</asrwt>
<pdfrwt beam="2">  1        4 0.88692093E-02 0.13768898E+03</pdfrwt>
<pdfrwt beam="1">  1       -4 0.28278049E-01 0.13768898E+03</pdfrwt>
<totfact> 0.18230580E+03</totfact>
</mgrwt>
</event>
<event>
 6    4  0.2103460E-003  0.1303161E+03  0.7818608E-02  0.1226987E+00
          4   -1    0    0  502    0  0.00000000000E+00  0.00000000000E+00  0.17683554613E+03  0.17684010652E+03  0.12700000000E+01 0.  1.
         -4   -1    0    0    0  501 -0.00000000000E+00 -0.00000000000E+00 -0.39532052988E+02  0.39552447629E+02  0.12700000000E+01 0.  1.
         25    2    1    2    0    0 -0.34377356928E+02 -0.13139740937E+02  0.10341829004E+03  0.16636593673E+03  0.12501130640E+03 0.  0.
    9000005    1    3    3    0    0  0.11990285729E+02 -0.61878305473E+02  0.49850308138E+02  0.80366316710E+02  0.10000000000E+01 0.  0.
    9000005    1    3    3    0    0 -0.46367642657E+02  0.48738564536E+02  0.53567981898E+02  0.85999620018E+02  0.10000000000E+01 0.  0.
         21    1    1    2  502  501  0.34377356928E+02  0.13139740937E+02  0.33885203104E+02  0.50026617421E+02  0.00000000000E+00 0.  1.
<mgrwt>
<rscale>  1 0.13031609E+03</rscale>
<asrwt>0</asrwt>
<pdfrwt beam="1">  1        4 0.27207388E-01 0.13031609E+03</pdfrwt>
<pdfrwt beam="2">  1       -4 0.60837740E-02 0.13031609E+03</pdfrwt>
<totfact> 0.35997233E+03</totfact>
</mgrwt>
</event>
<event>
 6    4  0.2103460E-003  0.1275242E+03  0.7818608E-02  0.1231176E+00
         -4   -1    0    0    0  501 -0.00000000000E+00  0.00000000000E+00  0.39995173691E+01  0.41963125701E+01  0.12700000000E+01 0. -1.
          4   -1    0    0  502    0  0.00000000000E+00 -0.00000000000E+00 -0.14239422453E+04  0.14239428117E+04  0.12700000000E+01 0. -1.
         25    2    1    2    0    0  0.63776728160E+01 -0.24429677346E+02 -0.11925575464E+04  0.11993564662E+04  0.12499979047E+03 0.  0.
    9000005    1    3    3    0    0  0.16632179477E+02  0.49818934062E+02 -0.47806561496E+03  0.48094312324E+03  0.10000000000E+01 0.  0.
    9000005    1    3    3    0    0 -0.10254506661E+02 -0.74248611408E+02 -0.71449193146E+03  0.71841334295E+03  0.10000000000E+01 0.  0.
         21    1    1    2  502  501 -0.63776728160E+01  0.24429677346E+02 -0.22738518152E+03  0.22878265805E+03  0.00000000000E+00 0.  1.
<mgrwt>
<rscale>  1 0.12752424E+03</rscale>
<asrwt>0</asrwt>
<pdfrwt beam="2">  1        4 0.21908282E+00 0.12752424E+03</pdfrwt>
<pdfrwt beam="1">  1       -4 0.63049316E-03 0.12752424E+03</pdfrwt>
<totfact> 0.10769160E+03</totfact>
</mgrwt>
</event>
<event>
 6    4  0.2103460E-003  0.1273366E+03  0.7818608E-02  0.1231462E+00
          4   -1    0    0  502    0  0.00000000000E+00  0.00000000000E+00  0.11497241042E+03  0.11497942450E+03  0.12700000000E+01 0.  1.
         -4   -1    0    0    0  501 -0.00000000000E+00 -0.00000000000E+00 -0.49973087665E+02  0.49989222746E+02  0.12700000000E+01 0.  1.
         25    2    1    2    0    0  0.76941202701E+01 -0.23029182631E+02  0.54022308638E+02  0.13832211692E+03  0.12500022184E+03 0.  0.
    9000005    1    3    3    0    0  0.42621141605E+02 -0.20474288042E+02  0.81208670003E+02  0.93976626169E+02  0.10000000000E+01 0.  0.
    9000005    1    3    3    0    0 -0.34927021335E+02 -0.25548945898E+01 -0.27186361365E+02  0.44345490751E+02  0.10000000000E+01 0.  0.
         21    1    1    2  502  501 -0.76941202701E+01  0.23029182631E+02  0.10977014119E+02  0.26646530325E+02  0.00000000000E+00 0.  1.
<mgrwt>
<rscale>  1 0.12733655E+03</rscale>
<asrwt>0</asrwt>
<pdfrwt beam="1">  1        4 0.17689844E-01 0.12733655E+03</pdfrwt>
<pdfrwt beam="2">  1       -4 0.76899481E-02 0.12733655E+03</pdfrwt>
<totfact> 0.53310618E+03</totfact>
</mgrwt>
</event>
<event>
 6    4  0.2103460E-003  0.1307880E+03  0.7818608E-02  0.1226291E+00
          4   -1    0    0  502    0  0.00000000000E+00  0.00000000000E+00  0.69029406813E+03  0.69029523640E+03  0.12700000000E+01 0.  1.
         -4   -1    0    0    0  501 -0.00000000000E+00 -0.00000000000E+00 -0.10593414524E+02  0.10669270420E+02  0.12700000000E+01 0.  1.
         25    2    1    2    0    0 -0.15282691035E+01 -0.38431360263E+02  0.56674331961E+03  0.58163863216E+03  0.12500481210E+03 0.  0.
    9000005    1    3    3    0    0  0.46058539688E+02  0.10630155671E+02  0.10890014089E+03  0.11872080682E+03  0.10000000000E+01 0.  0.
    9000005    1    3    3    0    0 -0.47586808791E+02 -0.49061515934E+02  0.45784317872E+03  0.46291782534E+03  0.10000000000E+01 0.  0.
         21    1    1    2  502  501  0.15282691035E+01  0.38431360263E+02  0.11295733400E+03  0.11932587465E+03  0.00000000000E+00 0.  1.
<mgrwt>
<rscale>  1 0.13078803E+03</rscale>
<asrwt>0</asrwt>
<pdfrwt beam="1">  1        4 0.10620504E+00 0.13078803E+03</pdfrwt>
<pdfrwt beam="2">  1       -4 0.16356807E-02 0.13078803E+03</pdfrwt>
<totfact> 0.16862671E+03</totfact>
</mgrwt>
</event>
<event>
 6    4  0.2103460E-003  0.1283512E+03  0.7818608E-02  0.1229923E+00
         -4   -1    0    0    0  501 -0.00000000000E+00  0.00000000000E+00  0.76262550865E+03  0.76262656612E+03  0.12700000000E+01 0.  1.
          4   -1    0    0  502    0  0.00000000000E+00 -0.00000000000E+00 -0.80801507206E+01  0.81793481200E+01  0.12700000000E+01 0.  1.
         25    2    1    2    0    0  0.21222963849E+02  0.19965910658E+02  0.61444877416E+03  0.62771117440E+03  0.12499988250E+03 0.  0.
    9000005    1    3    3    0    0  0.34536470023E+02  0.69165209889E+02  0.37943998316E+03  0.38723674263E+03  0.10000000000E+01 0.  0.
    9000005    1    3    3    0    0 -0.13313506175E+02 -0.49199299231E+02  0.23500879100E+03  0.24047443178E+03  0.10000000000E+01 0.  0.
         21    1    1    2  502  501 -0.21222963849E+02 -0.19965910658E+02  0.14009658378E+03  0.14309473984E+03  0.00000000000E+00 0.  1.
<mgrwt>
<rscale>  1 0.12835117E+03</rscale>
<asrwt>0</asrwt>
<pdfrwt beam="2">  1        4 0.12508121E-02 0.12835117E+03</pdfrwt>
<pdfrwt beam="1">  1       -4 0.11733471E+00 0.12835117E+03</pdfrwt>
<totfact> 0.19961351E+03</totfact>
</mgrwt>
</event>
<event>
 6    4  0.2103460E-003  0.1288306E+03  0.7818608E-02  0.1229201E+00
         -4   -1    0    0    0  501 -0.00000000000E+00  0.00000000000E+00  0.10283996778E+03  0.10284780928E+03  0.12700000000E+01 0.  1.
          4   -1    0    0  502    0  0.00000000000E+00 -0.00000000000E+00 -0.63677906762E+02  0.63690570021E+02  0.12700000000E+01 0.  1.
         25    2    1    2    0    0 -0.27775132039E+02 -0.14184437517E+02  0.21244674959E+02  0.13057049153E+03  0.12499864326E+03 0.  0.
    9000005    1    3    3    0    0 -0.57341430296E+02 -0.17081517323E+02 -0.33278573555E+02  0.68471025407E+02  0.10000000000E+01 0.  0.
    9000005    1    3    3    0    0  0.29566298257E+02  0.28970798057E+01  0.54523248514E+02  0.62099466121E+02  0.10000000000E+01 0.  0.
         21    1    1    2  502  501  0.27775132039E+02  0.14184437517E+02  0.17917386062E+02  0.35967887772E+02  0.00000000000E+00 0.  1.
<mgrwt>
<rscale>  1 0.12883057E+03</rscale>
<asrwt>0</asrwt>
<pdfrwt beam="2">  1        4 0.97981782E-02 0.12883057E+03</pdfrwt>
<pdfrwt beam="1">  1       -4 0.15823111E-01 0.12883057E+03</pdfrwt>
<totfact> 0.43480850E+03</totfact>
</mgrwt>
</event>
<event>
 6    4  0.2103460E-003  0.1282470E+03  0.7818608E-02  0.1230080E+00
         -4   -1    0    0    0  501 -0.00000000000E+00  0.00000000000E+00  0.20181208552E+02  0.20221129509E+02  0.12700000000E+01 0. -1.
          4   -1    0    0  502    0  0.00000000000E+00 -0.00000000000E+00 -0.31492090766E+03  0.31492346845E+03  0.12700000000E+01 0. -1.
         25    2    1    2    0    0 -0.21089965001E+02  0.19441003749E+02 -0.26139184339E+03  0.29115802351E+03  0.12499823845E+03 0.  0.
    9000005    1    3    3    0    0  0.36756134442E+02 -0.27395773354E+02 -0.15258327800E+03  0.15932419321E+03  0.10000000000E+01 0.  0.
    9000005    1    3    3    0    0 -0.57846099442E+02  0.46836777103E+02 -0.10880856539E+03  0.13183383030E+03  0.10000000000E+01 0.  0.
         21    1    1    2  502  501  0.21089965001E+02 -0.19441003749E+02 -0.33347855712E+02  0.43986574442E+02  0.00000000000E+00 0.  1.
<mgrwt>
<rscale>  1 0.12824702E+03</rscale>
<asrwt>0</asrwt>
<pdfrwt beam="2">  1        4 0.48452635E-01 0.12824702E+03</pdfrwt>
<pdfrwt beam="1">  1       -4 0.31080694E-02 0.12824702E+03</pdfrwt>
<totfact> 0.34148762E+03</totfact>
</mgrwt>
</event>
<event>
 6    4  0.2103460E-003  0.1438606E+03  0.7818608E-02  0.1208227E+00
         -4   -1    0    0    0  501 -0.00000000000E+00  0.00000000000E+00  0.11596147345E+03  0.11596842770E+03  0.12700000000E+01 0. -1.
          4   -1    0    0  502    0  0.00000000000E+00 -0.00000000000E+00 -0.10516258314E+03  0.10517025146E+03  0.12700000000E+01 0. -1.
         25    2    1    2    0    0 -0.12018470883E+02  0.70190355473E+02  0.30905187477E+02  0.14714278178E+03  0.12499895189E+03 0.  0.
    9000005    1    3    3    0    0  0.49276509210E+02  0.21269166274E+02  0.41698629971E+02  0.67972991219E+02  0.10000000000E+01 0.  0.
    9000005    1    3    3    0    0 -0.61294980093E+02  0.48921189200E+02 -0.10793442494E+02  0.79169790565E+02  0.10000000000E+01 0.  0.
         21    1    1    2  502  501  0.12018470883E+02 -0.70190355473E+02 -0.20106297170E+02  0.73995897384E+02  0.00000000000E+00 0. -1.
<mgrwt>
<rscale>  1 0.14386058E+03</rscale>
<asrwt>0</asrwt>
<pdfrwt beam="2">  1        4 0.16179984E-01 0.14386058E+03</pdfrwt>
<pdfrwt beam="1">  1       -4 0.17841351E-01 0.14386058E+03</pdfrwt>
<totfact> 0.15231495E+03</totfact>
</mgrwt>
</event>
<event>
 6    4  0.2103460E-003  0.1271575E+03  0.7818608E-02  0.1231736E+00
         -4   -1    0    0    0  501 -0.00000000000E+00  0.00000000000E+00  0.26607702871E+02  0.26637994521E+02  0.12700000000E+01 0.  1.
          4   -1    0    0  502    0  0.00000000000E+00 -0.00000000000E+00 -0.24053117608E+03  0.24053452884E+03  0.12700000000E+01 0.  1.
         25    2    1    2    0    0  0.18820318778E+02 -0.13760364826E+02 -0.20685078485E+03  0.24280912952E+03  0.12500189657E+03 0.  0.
    9000005    1    3    3    0    0  0.34394358069E+02  0.40525339544E+00  0.47524124261E+00  0.34414560168E+02  0.10000000000E+01 0.  0.
    9000005    1    3    3    0    0 -0.15574039291E+02 -0.14165618221E+02 -0.20732602609E+03  0.20839456935E+03  0.10000000000E+01 0.  0.
         21    1    1    2  502  501 -0.18820318778E+02  0.13760364826E+02 -0.70726883569E+01  0.24363393845E+02  0.00000000000E+00 0. -1.
<mgrwt>
<rscale>  1 0.12715749E+03</rscale>
<asrwt>0</asrwt>
<pdfrwt beam="2">  1        4 0.37007383E-01 0.12715749E+03</pdfrwt>
<pdfrwt beam="1">  1       -4 0.40960809E-02 0.12715749E+03</pdfrwt>
<totfact> 0.37618201E+03</totfact>
</mgrwt>
</event>
<event>
 6    4  0.2103460E-003  0.1449003E+03  0.7818608E-02  0.1206883E+00
          4   -1    0    0  502    0  0.00000000000E+00  0.00000000000E+00  0.86184825537E+02  0.86194182245E+02  0.12700000000E+01 0.  1.
         -4   -1    0    0    0  501 -0.00000000000E+00 -0.00000000000E+00 -0.25405434005E+03  0.25405751435E+03  0.12700000000E+01 0.  1.
         25    2    1    2    0    0 -0.66298041586E+02  0.31230312536E+02  0.12622350432E+02  0.14544903735E+03  0.12500134397E+03 0.  0.
    9000005    1    3    3    0    0 -0.14502079085E+02  0.71822109628E+02 -0.13732557058E+02  0.74554066640E+02  0.10000000000E+01 0.  0.
    9000005    1    3    3    0    0 -0.51795962502E+02 -0.40591797092E+02  0.26354907490E+02  0.70894970706E+02  0.10000000000E+01 0.  0.
         21    1    1    2  502  501  0.66298041586E+02 -0.31230312536E+02 -0.18049186494E+03  0.19480265925E+03  0.00000000000E+00 0.  1.
<mgrwt>
<rscale>  1 0.14490031E+03</rscale>
<asrwt>0</asrwt>
<pdfrwt beam="1">  1        4 0.13260168E-01 0.14490031E+03</pdfrwt>
<pdfrwt beam="2">  1       -4 0.39086247E-01 0.14490031E+03</pdfrwt>
<totfact> 0.50009750E+02</totfact>
</mgrwt>
</event>
<event>
 6    4  0.2103460E-003  0.1327209E+03  0.7818608E-02  0.1223473E+00
          4   -1    0    0  502    0  0.00000000000E+00  0.00000000000E+00  0.13606073644E+02  0.13665216427E+02  0.12700000000E+01 0. -1.
         -4   -1    0    0    0  501 -0.00000000000E+00 -0.00000000000E+00 -0.61012550017E+03  0.61012682195E+03  0.12700000000E+01 0. -1.
         25    2    1    2    0    0  0.16639802691E+02 -0.41390089624E+02 -0.37415928048E+03  0.39700126012E+03  0.12499924324E+03 0.  0.
    9000005    1    3    3    0    0  0.16157223542E+02  0.22981452477E+02 -0.28839189332E+03  0.28975867056E+03  0.10000000000E+01 0.  0.
    9000005    1    3    3    0    0  0.48257914969E+00 -0.64371542100E+02 -0.85767387160E+02  0.10724258956E+03  0.10000000000E+01 0.  0.
         21    1    1    2  502  501 -0.16639802691E+02  0.41390089624E+02 -0.22236014604E+03  0.22679077825E+03  0.00000000000E+00 0. -1.
<mgrwt>
<rscale>  1 0.13272089E+03</rscale>
<asrwt>0</asrwt>
<pdfrwt beam="1">  1        4 0.20978937E-02 0.13272089E+03</pdfrwt>
<pdfrwt beam="2">  1       -4 0.93870091E-01 0.13272089E+03</pdfrwt>
<totfact> 0.15356889E+03</totfact>
</mgrwt>
</event>
<event>
 6    4  0.2103460E-003  0.1284679E+03  0.7818608E-02  0.1229747E+00
         -4   -1    0    0    0  501 -0.00000000000E+00  0.00000000000E+00  0.35014782837E+02  0.35037806968E+02  0.12700000000E+01 0. -1.
          4   -1    0    0  502    0  0.00000000000E+00 -0.00000000000E+00 -0.20754255830E+03  0.20754644397E+03  0.12700000000E+01 0. -1.
         25    2    1    2    0    0  0.24647301555E+02 -0.16476408073E+02 -0.16964231773E+03  0.21279688175E+03  0.12500014169E+03 0.  0.
    9000005    1    3    3    0    0 -0.38539043971E+02 -0.40355787203E+02 -0.47812989479E+02  0.73491016009E+02  0.10000000000E+01 0.  0.
    9000005    1    3    3    0    0  0.63186345527E+02  0.23879379131E+02 -0.12182932825E+03  0.13930586574E+03  0.10000000000E+01 0.  0.
         21    1    1    2  502  501 -0.24647301555E+02  0.16476408073E+02 -0.28854577361E+01  0.29787369190E+02  0.00000000000E+00 0.  1.
<mgrwt>
<rscale>  1 0.12846788E+03</rscale>
<asrwt>0</asrwt>
<pdfrwt beam="2">  1        4 0.31931694E-01 0.12846788E+03</pdfrwt>
<pdfrwt beam="1">  1       -4 0.53889598E-02 0.12846788E+03</pdfrwt>
<totfact> 0.32287300E+03</totfact>
</mgrwt>
</event>
<event>
 6    4  0.2103460E-003  0.1313947E+03  0.7818608E-02  0.1225401E+00
          4   -1    0    0  502    0  0.00000000000E+00  0.00000000000E+00  0.15317435443E+03  0.15317961925E+03  0.12700000000E+01 0. -1.
         -4   -1    0    0    0  501 -0.00000000000E+00 -0.00000000000E+00 -0.99265788287E+02  0.99273912103E+02  0.12700000000E+01 0. -1.
         25    2    1    2    0    0 -0.19160809107E+02  0.35647935559E+02  0.11803356715E+03  0.17662525384E+03  0.12500658145E+03 0.  0.
    9000005    1    3    3    0    0 -0.56194179466E+02 -0.20664956324E+02  0.33872385724E+02  0.68797999538E+02  0.10000000000E+01 0.  0.
    9000005    1    3    3    0    0  0.37033370359E+02  0.56312891883E+02  0.84161181426E+02  0.10782725431E+03  0.10000000000E+01 0.  0.
         21    1    1    2  502  501  0.19160809107E+02 -0.35647935559E+02 -0.64125001011E+02  0.75828277509E+02  0.00000000000E+00 0. -1.
<mgrwt>
<rscale>  1 0.13139466E+03</rscale>
<asrwt>0</asrwt>
<pdfrwt beam="1">  1        4 0.23566315E-01 0.13139466E+03</pdfrwt>
<pdfrwt beam="2">  1       -4 0.15272690E-01 0.13139466E+03</pdfrwt>
<totfact> 0.10006759E+03</totfact>
</mgrwt>
</event>
<event>
 6    4  0.2103460E-003  0.1332645E+03  0.7818608E-02  0.1222691E+00
         -4   -1    0    0    0  501 -0.00000000000E+00  0.00000000000E+00  0.22376747110E+03  0.22377107504E+03  0.12700000000E+01 0. -1.
          4   -1    0    0  502    0  0.00000000000E+00 -0.00000000000E+00 -0.37796504052E+02  0.37817834662E+02  0.12700000000E+01 0. -1.
         25    2    1    2    0    0  0.41971068746E+02 -0.19311587822E+02  0.11058417278E+03  0.17317128258E+03  0.12499970322E+03 0.  0.
    9000005    1    3    3    0    0  0.73575526664E+02 -0.49526246211E+02  0.82924655775E+02  0.12142366212E+03  0.10000000000E+01 0.  0.
    9000005    1    3    3    0    0 -0.31604457919E+02  0.30214658389E+02  0.27659517009E+02  0.51747620458E+02  0.10000000000E+01 0.  0.
         21    1    1    2  502  501 -0.41971068746E+02  0.19311587822E+02  0.75386794269E+02  0.88417627123E+02  0.00000000000E+00 0. -1.
<mgrwt>
<rscale>  1 0.13326453E+03</rscale>
<asrwt>0</asrwt>
<pdfrwt beam="2">  1        4 0.58167648E-02 0.13326453E+03</pdfrwt>
<pdfrwt beam="1">  1       -4 0.34427683E-01 0.13326453E+03</pdfrwt>
<totfact> 0.24923298E+03</totfact>
</mgrwt>
</event>
<event>
 6    4  0.2103460E-003  0.1288321E+03  0.7818608E-02  0.1229199E+00
          4   -1    0    0  502    0  0.00000000000E+00  0.00000000000E+00  0.59956377837E+03  0.59956512343E+03  0.12700000000E+01 0.  1.
         -4   -1    0    0    0  501 -0.00000000000E+00 -0.00000000000E+00 -0.11068970565E+02  0.11141589176E+02  0.12700000000E+01 0.  1.
         25    2    1    2    0    0  0.61383193861E+01 -0.30582336885E+02  0.51493591618E+03  0.53080759602E+03  0.12499899169E+03 0.  0.
    9000005    1    3    3    0    0 -0.32663623946E+02 -0.62411268606E+02  0.38731352629E+03  0.39366844733E+03  0.10000000000E+01 0.  0.
    9000005    1    3    3    0    0  0.38801943333E+02  0.31828931721E+02  0.12762238989E+03  0.13713914868E+03  0.10000000000E+01 0.  0.
         21    1    1    2  502  501 -0.61383193861E+01  0.30582336885E+02  0.73558891624E+02  0.79899116586E+02  0.00000000000E+00 0. -1.
<mgrwt>
<rscale>  1 0.12883209E+03</rscale>
<asrwt>0</asrwt>
<pdfrwt beam="1">  1        4 0.92246313E-01 0.12883209E+03</pdfrwt>
<pdfrwt beam="2">  1       -4 0.17086073E-02 0.12883209E+03</pdfrwt>
<totfact> 0.21753312E+03</totfact>
</mgrwt>
</event>
<event>
 6    4  0.2103460E-003  0.1280588E+03  0.7818608E-02  0.1230365E+00
         -4   -1    0    0    0  501 -0.00000000000E+00  0.00000000000E+00  0.12888725623E+03  0.12889351309E+03  0.12700000000E+01 0. -1.
          4   -1    0    0  502    0  0.00000000000E+00 -0.00000000000E+00 -0.64070777494E+02  0.64083363119E+02  0.12700000000E+01 0. -1.
         25    2    1    2    0    0  0.10820744749E+02  0.25619685159E+02  0.63303568898E+01  0.12821513417E+03  0.12500236168E+03 0.  0.
    9000005    1    3    3    0    0  0.48033172853E+02  0.54814326674E+02  0.25428508387E+02  0.77197183510E+02  0.10000000000E+01 0.  0.
    9000005    1    3    3    0    0 -0.37212428104E+02 -0.29194641515E+02 -0.19098151498E+02  0.51017950657E+02  0.10000000000E+01 0.  0.
         21    1    1    2  502  501 -0.10820744749E+02 -0.25619685159E+02  0.58486121844E+02  0.64761742047E+02  0.00000000000E+00 0. -1.
<mgrwt>
<rscale>  1 0.12805876E+03</rscale>
<asrwt>0</asrwt>
<pdfrwt beam="2">  1        4 0.98584921E-02 0.12805876E+03</pdfrwt>
<pdfrwt beam="1">  1       -4 0.19830258E-01 0.12805876E+03</pdfrwt>
<totfact> 0.28794456E+03</totfact>
</mgrwt>
</event>
<event>
 6    4  0.2103460E-003  0.1269899E+03  0.7818608E-02  0.1231992E+00
          4   -1    0    0  502    0  0.00000000000E+00  0.00000000000E+00  0.22448100652E+04  0.22448104245E+04  0.12700000000E+01 0.  1.
         -4   -1    0    0    0  501 -0.00000000000E+00 -0.00000000000E+00 -0.23232495515E+01  0.26477138211E+01  0.12700000000E+01 0.  1.
         25    2    1    2    0    0  0.17296340662E+02  0.14215069702E+02  0.18917703557E+04  0.18960278225E+04  0.12500077262E+03 0.  0.
    9000005    1    3    3    0    0  0.17555523879E+02  0.34702377058E+02  0.18096036228E+03  0.18509485165E+03  0.10000000000E+01 0.  0.
    9000005    1    3    3    0    0 -0.25918321703E+00 -0.20487307356E+02  0.17108099935E+04  0.17109329708E+04  0.10000000000E+01 0.  0.
         21    1    1    2  502  501 -0.17296340662E+02 -0.14215069702E+02  0.35071645994E+03  0.35143031582E+03  0.00000000000E+00 0.  1.
<mgrwt>
<rscale>  1 0.12698986E+03</rscale>
<asrwt>0</asrwt>
<pdfrwt beam="1">  1        4 0.34538009E+00 0.12698986E+03</pdfrwt>
<pdfrwt beam="2">  1       -4 0.38240975E-03 0.12698986E+03</pdfrwt>
<totfact> 0.41506708E+02</totfact>
</mgrwt>
</event>
<event>
 6    4  0.2103460E-003  0.1287743E+03  0.7818608E-02  0.1229286E+00
          4   -1    0    0  502    0  0.00000000000E+00  0.00000000000E+00  0.63251808447E+02  0.63264556995E+02  0.12700000000E+01 0. -1.
         -4   -1    0    0    0  501 -0.00000000000E+00 -0.00000000000E+00 -0.11723654526E+03  0.11724342389E+03  0.12700000000E+01 0. -1.
         25    2    1    2    0    0 -0.52476569847E+01  0.30498923937E+02 -0.13399000990E+02  0.12946952266E+03  0.12500040722E+03 0.  0.
    9000005    1    3    3    0    0  0.48478039024E+02 -0.18130783284E+02  0.11145231773E+02  0.52953392350E+02  0.10000000000E+01 0.  0.
    9000005    1    3    3    0    0 -0.53725696009E+02  0.48629707220E+02 -0.24544232763E+02  0.76516130312E+02  0.10000000000E+01 0.  0.
         21    1    1    2  502  501  0.52476569847E+01 -0.30498923937E+02 -0.40585735827E+02  0.51038458223E+02  0.00000000000E+00 0. -1.
<mgrwt>
<rscale>  1 0.12877431E+03</rscale>
<asrwt>0</asrwt>
<pdfrwt beam="1">  1        4 0.97325573E-02 0.12877431E+03</pdfrwt>
<pdfrwt beam="2">  1       -4 0.18037901E-01 0.12877431E+03</pdfrwt>
<totfact> 0.34893994E+03</totfact>
</mgrwt>
</event>
<event>
 6    4  0.2103460E-003  0.1446373E+03  0.7818608E-02  0.1207222E+00
         -4   -1    0    0    0  501 -0.00000000000E+00  0.00000000000E+00  0.12225850292E+02  0.12291635992E+02  0.12700000000E+01 0. -1.
          4   -1    0    0  502    0  0.00000000000E+00 -0.00000000000E+00 -0.14229463684E+04  0.14229469351E+04  0.12700000000E+01 0. -1.
         25    2    1    2    0    0  0.72576133882E+02  0.52792768772E+01 -0.12555425515E+04  0.12638461347E+04  0.12499914958E+03 0.  0.
    9000005    1    3    3    0    0  0.47522793690E+02 -0.29533299906E+02 -0.11258879929E+04  0.11272778735E+04  0.10000000000E+01 0.  0.
    9000005    1    3    3    0    0  0.25053340191E+02  0.34812576783E+02 -0.12965455867E+03  0.13656826111E+03  0.10000000000E+01 0.  0.
         21    1    1    2  502  501 -0.72576133882E+02 -0.52792768772E+01 -0.15517796657E+03  0.17139243648E+03  0.00000000000E+00 0. -1.
<mgrwt>
<rscale>  1 0.14463732E+03</rscale>
<asrwt>0</asrwt>
<pdfrwt beam="2">  1        4 0.21891980E+00 0.14463732E+03</pdfrwt>
<pdfrwt beam="1">  1       -4 0.18860052E-02 0.14463732E+03</pdfrwt>
<totfact> 0.21068970E+02</totfact>
</mgrwt>
</event>
<event>
 6    4  0.2103460E-003  0.1283468E+03  0.7818608E-02  0.1229930E+00
          4   -1    0    0  502    0  0.00000000000E+00  0.00000000000E+00  0.15890898796E+02  0.15941567193E+02  0.12700000000E+01 0.  1.
         -4   -1    0    0    0  501 -0.00000000000E+00 -0.00000000000E+00 -0.43999035917E+03  0.43999219205E+03  0.12700000000E+01 0.  1.
         25    2    1    2    0    0 -0.11129845719E+02  0.26915288847E+02 -0.39253350502E+03  0.41298360468E+03  0.12499839571E+03 0.  0.
    9000005    1    3    3    0    0 -0.17634421913E+02  0.24702574745E+02 -0.12424101057E+02  0.32810795820E+02  0.10000000000E+01 0.  0.
    9000005    1    3    3    0    0  0.65045761943E+01  0.22127141023E+01 -0.38010940396E+03  0.38017280886E+03  0.10000000000E+01 0.  0.
         21    1    1    2  502  501  0.11129845719E+02 -0.26915288847E+02 -0.31565955356E+02  0.42950154563E+02  0.00000000000E+00 0.  1.
<mgrwt>
<rscale>  1 0.12834682E+03</rscale>
<asrwt>0</asrwt>
<pdfrwt beam="1">  1        4 0.24487926E-02 0.12834682E+03</pdfrwt>
<pdfrwt beam="2">  1       -4 0.67694854E-01 0.12834682E+03</pdfrwt>
<totfact> 0.24690922E+03</totfact>
</mgrwt>
</event>
<event>
 6    4  0.2103460E-003  0.1301087E+03  0.7818608E-02  0.1227295E+00
          4   -1    0    0  502    0  0.00000000000E+00  0.00000000000E+00  0.83981356558E+02  0.83990958735E+02  0.12700000000E+01 0.  1.
         -4   -1    0    0    0  501 -0.00000000000E+00 -0.00000000000E+00 -0.91958269416E+02  0.91967038737E+02  0.12700000000E+01 0.  1.
         25    2    1    2    0    0 -0.25815470615E+02  0.25234710575E+02 -0.30197664862E+02  0.13356706730E+03  0.12500013346E+03 0.  0.
    9000005    1    3    3    0    0  0.13365354358E+02  0.18907551426E+02 -0.72165820323E+02  0.75796001352E+02  0.10000000000E+01 0.  0.
    9000005    1    3    3    0    0 -0.39180824973E+02  0.63271591494E+01  0.41968155461E+02  0.57771065952E+02  0.10000000000E+01 0.  0.
         21    1    1    2  502  501  0.25815470615E+02 -0.25234710575E+02  0.22220752004E+02  0.42390930168E+02  0.00000000000E+00 0. -1.
<mgrwt>
<rscale>  1 0.13010866E+03</rscale>
<asrwt>0</asrwt>
<pdfrwt beam="1">  1        4 0.12921622E-01 0.13010866E+03</pdfrwt>
<pdfrwt beam="2">  1       -4 0.14148839E-01 0.13010866E+03</pdfrwt>
<totfact> 0.33098103E+03</totfact>
</mgrwt>
</event>
<event>
 6    4  0.2103460E-003  0.1279371E+03  0.7818608E-02  0.1230549E+00
         -4   -1    0    0    0  501 -0.00000000000E+00  0.00000000000E+00  0.53488168671E+02  0.53503243712E+02  0.12700000000E+01 0.  1.
          4   -1    0    0  502    0  0.00000000000E+00 -0.00000000000E+00 -0.11395943926E+03  0.11396651568E+03  0.12700000000E+01 0.  1.
         25    2    1    2    0    0 -0.24657738470E+02  0.11607913696E+02 -0.56767299863E+02  0.13996581193E+03  0.12500061779E+03 0.  0.
    9000005    1    3    3    0    0  0.24230677435E+02 -0.24498075366E+02  0.21682211809E+02  0.40723454354E+02  0.10000000000E+01 0.  0.
    9000005    1    3    3    0    0 -0.48888415905E+02  0.36105989061E+02 -0.78449511673E+02  0.99242357577E+02  0.10000000000E+01 0.  0.
         21    1    1    2  502  501  0.24657738470E+02 -0.11607913696E+02 -0.37039707249E+01  0.27503947461E+02  0.00000000000E+00 0.  1.
<mgrwt>
<rscale>  1 0.12793710E+03</rscale>
<asrwt>0</asrwt>
<pdfrwt beam="2">  1        4 0.17533925E-01 0.12793710E+03</pdfrwt>
<pdfrwt beam="1">  1       -4 0.82306530E-02 0.12793710E+03</pdfrwt>
<totfact> 0.48454762E+03</totfact>
</mgrwt>
</event>
<event>
 6    4  0.2103460E-003  0.1306922E+03  0.7818608E-02  0.1226432E+00
          4   -1    0    0  502    0  0.00000000000E+00  0.00000000000E+00  0.83376571856E+02  0.83386243677E+02  0.12700000000E+01 0. -1.
         -4   -1    0    0    0  501 -0.00000000000E+00 -0.00000000000E+00 -0.90888911754E+02  0.90897784241E+02  0.12700000000E+01 0. -1.
         25    2    1    2    0    0 -0.33985972754E+02 -0.17312194846E+02  0.12361648913E+02  0.13127549544E+03  0.12500274759E+03 0.  0.
    9000005    1    3    3    0    0 -0.22112764286E+02 -0.50810306533E+02  0.53410555631E+02  0.76969793083E+02  0.10000000000E+01 0.  0.
    9000005    1    3    3    0    0 -0.11873208468E+02  0.33498111688E+02 -0.41048906719E+02  0.54305702359E+02  0.10000000000E+01 0.  0.
         21    1    1    2  502  501  0.33985972754E+02  0.17312194846E+02 -0.19873988811E+02  0.43008532475E+02  0.00000000000E+00 0. -1.
<mgrwt>
<rscale>  1 0.13069218E+03</rscale>
<asrwt>0</asrwt>
<pdfrwt beam="1">  1        4 0.12828591E-01 0.13069218E+03</pdfrwt>
<pdfrwt beam="2">  1       -4 0.13984336E-01 0.13069218E+03</pdfrwt>
<totfact> 0.34235640E+03</totfact>
</mgrwt>
</event>
<event>
 6    4  0.2103460E-003  0.1275032E+03  0.7818608E-02  0.1231208E+00
          4   -1    0    0  502    0  0.00000000000E+00  0.00000000000E+00  0.21972510786E+02  0.22009182861E+02  0.12700000000E+01 0.  1.
         -4   -1    0    0    0  501 -0.00000000000E+00 -0.00000000000E+00 -0.34284051210E+03  0.34284286435E+03  0.12700000000E+01 0.  1.
         25    2    1    2    0    0  0.15201345351E+02  0.20001388337E+02 -0.17324542554E+03  0.21510705961E+03  0.12500373269E+03 0.  0.
    9000005    1    3    3    0    0  0.17777060433E+02 -0.10113547951E+02 -0.18237238267E+03  0.18351837426E+03  0.10000000000E+01 0.  0.
    9000005    1    3    3    0    0 -0.25757150821E+01  0.30114936288E+02  0.91269571247E+01  0.31588685351E+02  0.10000000000E+01 0.  0.
         21    1    1    2  502  501 -0.15201345351E+02 -0.20001388337E+02 -0.14762257577E+03  0.14974498761E+03  0.00000000000E+00 0.  1.
<mgrwt>
<rscale>  1 0.12750321E+03</rscale>
<asrwt>0</asrwt>
<pdfrwt beam="1">  1        4 0.33833884E-02 0.12750321E+03</pdfrwt>
<pdfrwt beam="2">  1       -4 0.52747692E-01 0.12750321E+03</pdfrwt>
<totfact> 0.25102097E+03</totfact>
</mgrwt>
</event>
<event>
 6    4  0.2103460E-003  0.1272351E+03  0.7818608E-02  0.1231617E+00
         -4   -1    0    0    0  501 -0.00000000000E+00  0.00000000000E+00  0.98458950726E+01  0.99274644185E+01  0.12700000000E+01 0. -1.
          4   -1    0    0  502    0  0.00000000000E+00 -0.00000000000E+00 -0.57777149233E+03  0.57777288812E+03  0.12700000000E+01 0. -1.
         25    2    1    2    0    0 -0.23468203825E+02 -0.33327533470E+01 -0.48997003805E+03  0.50622070448E+03  0.12500759828E+03 0.  0.
    9000005    1    3    3    0    0  0.49586225332E+02  0.93734048021E+01 -0.15027160633E+03  0.15852195472E+03  0.10000000000E+01 0.  0.
    9000005    1    3    3    0    0 -0.73054429157E+02 -0.12706158149E+02 -0.33969843172E+03  0.34769874976E+03  0.10000000000E+01 0.  0.
         21    1    1    2  502  501  0.23468203825E+02  0.33327533470E+01 -0.77955559211E+02  0.81479648058E+02  0.00000000000E+00 0. -1.
<mgrwt>
<rscale>  1 0.12723507E+03</rscale>
<asrwt>0</asrwt>
<pdfrwt beam="2">  1        4 0.88894278E-01 0.12723507E+03</pdfrwt>
<pdfrwt beam="1">  1       -4 0.15211355E-02 0.12723507E+03</pdfrwt>
<totfact> 0.28160146E+03</totfact>
</mgrwt>
</event>
<event>
 6    4  0.2103460E-003  0.1275787E+03  0.7818608E-02  0.1231093E+00
         -4   -1    0    0    0  501 -0.00000000000E+00  0.00000000000E+00  0.34109617199E+02  0.34133251903E+02  0.12700000000E+01 0. -1.
          4   -1    0    0  502    0  0.00000000000E+00 -0.00000000000E+00 -0.17534892854E+03  0.17535352760E+03  0.12700000000E+01 0. -1.
         25    2    1    2    0    0  0.59370211717E+00  0.25496822133E+02 -0.10532307070E+03  0.16543661760E+03  0.12500353916E+03 0.  0.
    9000005    1    3    3    0    0 -0.57928671526E+02  0.35470498879E+02 -0.50808745151E+02  0.84831691361E+02  0.10000000000E+01 0.  0.
    9000005    1    3    3    0    0  0.58522373643E+02 -0.99736767459E+01 -0.54514325549E+02  0.80604926243E+02  0.10000000000E+01 0.  0.
         21    1    1    2  502  501 -0.59370211717E+00 -0.25496822133E+02 -0.35916240643E+02  0.44050161895E+02  0.00000000000E+00 0.  1.
<mgrwt>
<rscale>  1 0.12757870E+03</rscale>
<asrwt>0</asrwt>
<pdfrwt beam="2">  1        4 0.26978930E-01 0.12757870E+03</pdfrwt>
<pdfrwt beam="1">  1       -4 0.52498053E-02 0.12757870E+03</pdfrwt>
<totfact> 0.46171537E+03</totfact>
</mgrwt>
</event>
<event>
 6    4  0.2103460E-003  0.1307247E+03  0.7818608E-02  0.1226384E+00
          4   -1    0    0  502    0  0.00000000000E+00  0.00000000000E+00  0.21256809264E+01  0.24761703093E+01  0.12700000000E+01 0. -1.
         -4   -1    0    0    0  501 -0.00000000000E+00 -0.00000000000E+00 -0.31822649375E+04  0.31822651909E+04  0.12700000000E+01 0. -1.
         25    2    1    2    0    0  0.37895083519E+02 -0.53276050410E+01 -0.22261933080E+04  0.22300281617E+04  0.12499814500E+03 0.  0.
    9000005    1    3    3    0    0  0.68069896506E+02  0.42789297185E+00 -0.20530270330E+04  0.20541554693E+04  0.10000000000E+01 0.  0.
    9000005    1    3    3    0    0 -0.30174812987E+02 -0.57554980128E+01 -0.17316627505E+03  0.17587269234E+03  0.10000000000E+01 0.  0.
         21    1    1    2  502  501 -0.37895083519E+02  0.53276050410E+01 -0.95394594854E+03  0.95471319959E+03  0.00000000000E+00 0. -1.
<mgrwt>
<rscale>  1 0.13072474E+03</rscale>
<asrwt>0</asrwt>
<pdfrwt beam="1">  1        4 0.35401060E-03 0.13072474E+03</pdfrwt>
<pdfrwt beam="2">  1       -4 0.48960268E+00 0.13072474E+03</pdfrwt>
<totfact> 0.49071193E+01</totfact>
</mgrwt>
</event>
<event>
 6    4  0.2103460E-003  0.1278599E+03  0.7818608E-02  0.1230666E+00
          4   -1    0    0  502    0  0.00000000000E+00  0.00000000000E+00  0.14202069002E+02  0.14258739914E+02  0.12700000000E+01 0. -1.
         -4   -1    0    0    0  501 -0.00000000000E+00 -0.00000000000E+00 -0.62660417634E+03  0.62660546336E+03  0.12700000000E+01 0. -1.
         25    2    1    2    0    0 -0.24365326135E+02 -0.11464765731E+02 -0.28512388240E+03  0.31248005857E+03  0.12499219463E+03 0.  0.
    9000005    1    3    3    0    0 -0.47368468582E+02  0.31259305546E+02 -0.61668464427E+02  0.83814769008E+02  0.10000000000E+01 0.  0.
    9000005    1    3    3    0    0  0.23003142448E+02 -0.42724071278E+02 -0.22345541798E+03  0.22866528956E+03  0.10000000000E+01 0.  0.
         21    1    1    2  502  501  0.24365326135E+02  0.11464765731E+02 -0.32727822494E+03  0.32838414470E+03  0.00000000000E+00 0. -1.
<mgrwt>
<rscale>  1 0.12785992E+03</rscale>
<asrwt>0</asrwt>
<pdfrwt beam="1">  1        4 0.21893925E-02 0.12785992E+03</pdfrwt>
<pdfrwt beam="2">  1       -4 0.96405080E-01 0.12785992E+03</pdfrwt>
<totfact> 0.13417445E+03</totfact>
</mgrwt>
</event>
<event>
 6    4  0.2103460E-003  0.1325970E+03  0.7818608E-02  0.1223652E+00
          4   -1    0    0  502    0  0.00000000000E+00  0.00000000000E+00  0.52727840349E+01  0.54235736815E+01  0.12700000000E+01 0.  1.
         -4   -1    0    0    0  501 -0.00000000000E+00 -0.00000000000E+00 -0.19125412569E+04  0.19125416786E+04  0.12700000000E+01 0.  1.
         25    2    1    2    0    0  0.85720468862E+01  0.43440258569E+02 -0.89910191627E+03  0.90882683663E+03  0.12498570746E+03 0.  0.
    9000005    1    3    3    0    0  0.23037133730E+01 -0.73380772129E+01  0.49865420100E+00  0.77719449625E+01  0.10000000000E+01 0.  0.
    9000005    1    3    3    0    0  0.62683335132E+01  0.50778335782E+02 -0.89960057048E+03  0.90105489166E+03  0.10000000000E+01 0.  0.
         21    1    1    2  502  501 -0.85720468862E+01 -0.43440258569E+02 -0.10081665566E+04  0.10091384156E+04  0.00000000000E+00 0.  1.
<mgrwt>
<rscale>  1 0.13259700E+03</rscale>
<asrwt>0</asrwt>
<pdfrwt beam="1">  1        4 0.82283071E-03 0.13259700E+03</pdfrwt>
<pdfrwt beam="2">  1       -4 0.29424820E+00 0.13259700E+03</pdfrwt>
<totfact> 0.26793990E+02</totfact>
</mgrwt>
</event>
<event>
 6    4  0.2103460E-003  0.1268184E+03  0.7818608E-02  0.1232255E+00
          4   -1    0    0  502    0  0.00000000000E+00  0.00000000000E+00  0.84650153537E+03  0.84650248805E+03  0.12700000000E+01 0.  1.
         -4   -1    0    0    0  501 -0.00000000000E+00 -0.00000000000E+00 -0.66176462755E+01  0.67384079891E+01  0.12700000000E+01 0.  1.
         25    2    1    2    0    0  0.14339209478E+02  0.15883219082E+02  0.65862818991E+03  0.67072646357E+03  0.12500002721E+03 0.  0.
    9000005    1    3    3    0    0 -0.50617567032E+02 -0.35324521712E+01  0.16991731221E+03  0.17733445604E+03  0.10000000000E+01 0.  0.
    9000005    1    3    3    0    0  0.64956776511E+02  0.19415671254E+02  0.48871087771E+03  0.49339200753E+03  0.10000000000E+01 0.  0.
         21    1    1    2  502  501 -0.14339209478E+02 -0.15883219082E+02  0.18125569918E+03  0.18251443248E+03  0.00000000000E+00 0.  1.
<mgrwt>
<rscale>  1 0.12681836E+03</rscale>
<asrwt>0</asrwt>
<pdfrwt beam="1">  1        4 0.13024031E+00 0.12681836E+03</pdfrwt>
<pdfrwt beam="2">  1       -4 0.10274625E-02 0.12681836E+03</pdfrwt>
<totfact> 0.20814460E+03</totfact>
</mgrwt>
</event>
<event>
 6    4  0.2103460E-003  0.1438695E+03  0.7818608E-02  0.1208215E+00
         -4   -1    0    0    0  501 -0.00000000000E+00  0.00000000000E+00  0.11425874002E+03  0.11426579790E+03  0.12700000000E+01 0.  1.
          4   -1    0    0  502    0  0.00000000000E+00 -0.00000000000E+00 -0.20258818786E+03  0.20259216856E+03  0.12700000000E+01 0.  1.
         25    2    1    2    0    0 -0.63021328410E+02 -0.33191790518E+02 -0.16044172922E+03  0.21549937572E+03  0.12500019867E+03 0.  0.
    9000005    1    3    3    0    0  0.14852230982E+02  0.27370602879E+02 -0.87282952304E+02  0.92677140817E+02  0.10000000000E+01 0.  0.
    9000005    1    3    3    0    0 -0.77873559392E+02 -0.60562393396E+02 -0.73158776917E+02  0.12282223490E+03  0.10000000000E+01 0.  0.
         21    1    1    2  502  501  0.63021328410E+02  0.33191790518E+02  0.72112281374E+02  0.10135859074E+03  0.00000000000E+00 0.  1.
<mgrwt>
<rscale>  1 0.14386950E+03</rscale>
<asrwt>0</asrwt>
<pdfrwt beam="2">  1        4 0.31168263E-01 0.14386950E+03</pdfrwt>
<pdfrwt beam="1">  1       -4 0.17579117E-01 0.14386950E+03</pdfrwt>
<totfact> 0.47198883E+02</totfact>
</mgrwt>
</event>
<event>
 6    4  0.2103460E-003  0.1271655E+03  0.7818608E-02  0.1231723E+00
         -4   -1    0    0    0  501 -0.00000000000E+00  0.00000000000E+00  0.21245776632E+02  0.21283700916E+02  0.12700000000E+01 0.  1.
          4   -1    0    0  502    0  0.00000000000E+00 -0.00000000000E+00 -0.29639381906E+03  0.29639653993E+03  0.12700000000E+01 0.  1.
         25    2    1    2    0    0  0.17658851099E+02  0.15272932798E+02 -0.26113007096E+03  0.29044788834E+03  0.12500385748E+03 0.  0.
    9000005    1    3    3    0    0 -0.31974613917E+02 -0.46012769505E+00 -0.22452507551E+03  0.22679307129E+03  0.10000000000E+01 0.  0.
    9000005    1    3    3    0    0  0.49633465016E+02  0.15733060493E+02 -0.36604995443E+02  0.63654817048E+02  0.10000000000E+01 0.  0.
         21    1    1    2  502  501 -0.17658851099E+02 -0.15272932798E+02 -0.14017971475E+02  0.27232352500E+02  0.00000000000E+00 0.  1.
<mgrwt>
<rscale>  1 0.12716549E+03</rscale>
<asrwt>0</asrwt>
<pdfrwt beam="2">  1        4 0.45602173E-01 0.12716549E+03</pdfrwt>
<pdfrwt beam="1">  1       -4 0.32717078E-02 0.12716549E+03</pdfrwt>
<totfact> 0.35527061E+03</totfact>
</mgrwt>
</event>
<event>
 6    4  0.2103460E-003  0.1440161E+03  0.7818608E-02  0.1208025E+00
          4   -1    0    0  502    0  0.00000000000E+00  0.00000000000E+00  0.58358746470E+03  0.58358884658E+03  0.12700000000E+01 0.  1.
         -4   -1    0    0    0  501 -0.00000000000E+00 -0.00000000000E+00 -0.21729671767E+02  0.21766752976E+02  0.12700000000E+01 0.  1.
         25    2    1    2    0    0  0.69802611452E+02 -0.15815794889E+02  0.45068862361E+03  0.47313938216E+03  0.12497237923E+03 0.  0.
    9000005    1    3    3    0    0 -0.17758425054E+02  0.11021337519E+02  0.26764080769E+03  0.26845750778E+03  0.10000000000E+01 0.  0.
    9000005    1    3    3    0    0  0.87561036506E+02 -0.26837132408E+02  0.18304781592E+03  0.20468187438E+03  0.10000000000E+01 0.  0.
         21    1    1    2  502  501 -0.69802611452E+02  0.15815794889E+02  0.11116916932E+03  0.13221621739E+03  0.00000000000E+00 0.  1.
<mgrwt>
<rscale>  1 0.14401611E+03</rscale>
<asrwt>0</asrwt>
<pdfrwt beam="1">  1        4 0.89785631E-01 0.14401611E+03</pdfrwt>
<pdfrwt beam="2">  1       -4 0.33459857E-02 0.14401611E+03</pdfrwt>
<totfact> 0.83452953E+02</totfact>
</mgrwt>
</event>
<event>
 6    4  0.2103460E-003  0.1296490E+03  0.7818608E-02  0.1227977E+00
          4   -1    0    0  502    0  0.00000000000E+00  0.00000000000E+00  0.20976419883E+02  0.21014830266E+02  0.12700000000E+01 0. -1.
         -4   -1    0    0    0  501 -0.00000000000E+00 -0.00000000000E+00 -0.32074237626E+03  0.32074489058E+03  0.12700000000E+01 0. -1.
         25    2    1    2    0    0  0.34282494698E+02 -0.29846747300E+01 -0.23265747215E+03  0.26634257172E+03  0.12499867374E+03 0.  0.
    9000005    1    3    3    0    0  0.36769163356E+01  0.36788168905E+02 -0.20641290096E+03  0.20970020212E+03  0.10000000000E+01 0.  0.
    9000005    1    3    3    0    0  0.30605578362E+02 -0.39772843635E+02 -0.26244571194E+02  0.56642369608E+02  0.10000000000E+01 0.  0.
         21    1    1    2  502  501 -0.34282494698E+02  0.29846747300E+01 -0.67108484227E+02  0.75417149118E+02  0.00000000000E+00 0.  1.
<mgrwt>
<rscale>  1 0.12964901E+03</rscale>
<asrwt>0</asrwt>
<pdfrwt beam="1">  1        4 0.32302898E-02 0.12964901E+03</pdfrwt>
<pdfrwt beam="2">  1       -4 0.49348125E-01 0.12964901E+03</pdfrwt>
<totfact> 0.31053830E+03</totfact>
</mgrwt>
</event>
<event>
 6    4  0.2103460E-003  0.1270627E+03  0.7818608E-02  0.1231880E+00
          4   -1    0    0  502    0  0.00000000000E+00  0.00000000000E+00  0.21403078332E+03  0.21403455120E+03  0.12700000000E+01 0. -1.
         -4   -1    0    0    0  501 -0.00000000000E+00 -0.00000000000E+00 -0.27413624094E+02  0.27443026181E+02  0.12700000000E+01 0. -1.
         25    2    1    2    0    0 -0.33233949084E+01  0.22639484430E+02  0.17366281311E+03  0.21518297162E+03  0.12498538878E+03 0.  0.
    9000005    1    3    3    0    0 -0.33395612620E+02 -0.34217556694E+02  0.26732936219E+02  0.54788301737E+02  0.10000000000E+01 0.  0.
    9000005    1    3    3    0    0  0.30072217712E+02  0.56857041125E+02  0.14692987689E+03  0.16039466988E+03  0.10000000000E+01 0.  0.
         21    1    1    2  502  501  0.33233949084E+01 -0.22639484430E+02  0.12954346116E+02  0.26294605764E+02  0.00000000000E+00 0. -1.
<mgrwt>
<rscale>  1 0.12706273E+03</rscale>
<asrwt>0</asrwt>
<pdfrwt beam="1">  1        4 0.32930364E-01 0.12706273E+03</pdfrwt>
<pdfrwt beam="2">  1       -4 0.42200322E-02 0.12706273E+03</pdfrwt>
<totfact> 0.44917028E+03</totfact>
</mgrwt>
</event>
<event>
 6    4  0.2103460E-003  0.1281794E+03  0.7818608E-02  0.1230182E+00
          4   -1    0    0  502    0  0.00000000000E+00  0.00000000000E+00  0.95170468879E+01  0.96014103894E+01  0.12700000000E+01 0.  1.
         -4   -1    0    0    0  501 -0.00000000000E+00 -0.00000000000E+00 -0.66816716563E+03  0.66816837258E+03  0.12700000000E+01 0.  1.
         25    2    1    2    0    0  0.26823402445E+02  0.92656071192E+01 -0.47725826655E+03  0.49417144302E+03  0.12499846283E+03 0.  0.
    9000005    1    3    3    0    0 -0.39077531479E+02  0.39578181605E+02 -0.20955597276E+03  0.21681372569E+03  0.10000000000E+01 0.  0.
    9000005    1    3    3    0    0  0.65900933924E+02 -0.30312574486E+02 -0.26770229379E+03  0.27735771734E+03  0.10000000000E+01 0.  0.
         21    1    1    2  502  501 -0.26823402445E+02 -0.92656071192E+01 -0.18139185219E+03  0.18359833995E+03  0.00000000000E+00 0.  1.
<mgrwt>
<rscale>  1 0.12817941E+03</rscale>
<asrwt>0</asrwt>
<pdfrwt beam="1">  1        4 0.14707439E-02 0.12817941E+03</pdfrwt>
<pdfrwt beam="2">  1       -4 0.10280149E+00 0.12817941E+03</pdfrwt>
<totfact> 0.21298930E+03</totfact>
</mgrwt>
</event>
<event>
 6    4  0.2103460E-003  0.1267589E+03  0.7818608E-02  0.1232346E+00
          4   -1    0    0  502    0  0.00000000000E+00  0.00000000000E+00  0.16563824371E+02  0.16612440452E+02  0.12700000000E+01 0. -1.
         -4   -1    0    0    0  501 -0.00000000000E+00 -0.00000000000E+00 -0.34965467039E+03  0.34965697681E+03  0.12700000000E+01 0. -1.
         25    2    1    2    0    0  0.19717259423E+02 -0.73546176526E+01 -0.24679568085E+03  0.27744534253E+03  0.12499979713E+03 0.  0.
    9000005    1    3    3    0    0  0.67178987837E+02  0.20704265000E+02 -0.11825251384E+03  0.13757303524E+03  0.10000000000E+01 0.  0.
    9000005    1    3    3    0    0 -0.47461728413E+02 -0.28058882653E+02 -0.12854316701E+03  0.13987230729E+03  0.10000000000E+01 0.  0.
         21    1    1    2  502  501 -0.19717259423E+02  0.73546176526E+01 -0.86295165171E+02  0.88824074732E+02  0.00000000000E+00 0. -1.
<mgrwt>
<rscale>  1 0.12675887E+03</rscale>
<asrwt>0</asrwt>
<pdfrwt beam="1">  1        4 0.25521981E-02 0.12675887E+03</pdfrwt>
<pdfrwt beam="2">  1       -4 0.53796938E-01 0.12675887E+03</pdfrwt>
<totfact> 0.37400951E+03</totfact>
</mgrwt>
</event>
<event>
 6    4  0.2103460E-003  0.1282358E+03  0.7818608E-02  0.1230097E+00
         -4   -1    0    0    0  501 -0.00000000000E+00  0.00000000000E+00  0.26649412740E+03  0.26649715353E+03  0.12700000000E+01 0.  1.
          4   -1    0    0  502    0  0.00000000000E+00 -0.00000000000E+00 -0.34496671228E+02  0.34520040930E+02  0.12700000000E+01 0.  1.
         25    2    1    2    0    0  0.27824918584E+02  0.66548601781E+01  0.91241440510E+02  0.15738304391E+03  0.12500363509E+03 0.  0.
    9000005    1    3    3    0    0  0.67727829532E+02  0.36653021023E+02  0.44284288290E+02  0.88840311979E+02  0.10000000000E+01 0.  0.
    9000005    1    3    3    0    0 -0.39902910948E+02 -0.29998160845E+02  0.46957152220E+02  0.68542731933E+02  0.10000000000E+01 0.  0.
         21    1    1    2  502  501 -0.27824918584E+02 -0.66548601781E+01  0.14075601567E+03  0.14363415055E+03  0.00000000000E+00 0.  1.
<mgrwt>
<rscale>  1 0.12823581E+03</rscale>
<asrwt>0</asrwt>
<pdfrwt beam="2">  1        4 0.53092106E-02 0.12823581E+03</pdfrwt>
<pdfrwt beam="1">  1       -4 0.41001127E-01 0.12823581E+03</pdfrwt>
<totfact> 0.20368006E+03</totfact>
</mgrwt>
</event>
<event>
 6    4  0.2103460E-003  0.1268766E+03  0.7818608E-02  0.1232165E+00
         -4   -1    0    0    0  501 -0.00000000000E+00  0.00000000000E+00  0.58942595788E+03  0.58942732608E+03  0.12700000000E+01 0.  1.
          4   -1    0    0  502    0  0.00000000000E+00 -0.00000000000E+00 -0.52080789760E+02  0.52096272055E+02  0.12700000000E+01 0.  1.
         25    2    1    2    0    0 -0.18740524222E+02  0.11016642408E+02  0.25745631665E+02  0.12946241101E+03  0.12500041862E+03 0.  0.
    9000005    1    3    3    0    0 -0.41970221938E+01 -0.28212186289E+02 -0.41434893130E+02  0.50312948822E+02  0.10000000000E+01 0.  0.
    9000005    1    3    3    0    0 -0.14543502028E+02  0.39228828696E+02  0.67180524795E+02  0.79149462183E+02  0.10000000000E+01 0.  0.
         21    1    1    2  502  501  0.18740524222E+02 -0.11016642408E+02  0.51159953646E+03  0.51206118713E+03  0.00000000000E+00 0.  1.
<mgrwt>
<rscale>  1 0.12687663E+03</rscale>
<asrwt>0</asrwt>
<pdfrwt beam="2">  1        4 0.80137250E-02 0.12687663E+03</pdfrwt>
<pdfrwt beam="1">  1       -4 0.90682217E-01 0.12687663E+03</pdfrwt>
<totfact> 0.19485204E+02</totfact>
</mgrwt>
</event>
<event>
 6    4  0.2103460E-003  0.1395163E+03  0.7818608E-02  0.1213981E+00
         -4   -1    0    0    0  501 -0.00000000000E+00  0.00000000000E+00  0.19025705658E+03  0.19026129527E+03  0.12700000000E+01 0. -1.
          4   -1    0    0  502    0  0.00000000000E+00 -0.00000000000E+00 -0.54996045000E+02  0.55010706828E+02  0.12700000000E+01 0. -1.
         25    2    1    2    0    0 -0.19925076763E+02 -0.58672114715E+02  0.73116066419E+02  0.15751426775E+03  0.12500143858E+03 0.  0.
    9000005    1    3    3    0    0 -0.39709522080E+02 -0.80645586027E+02  0.13425711631E+02  0.90894479603E+02  0.10000000000E+01 0.  0.
    9000005    1    3    3    0    0  0.19784445317E+02  0.21973471311E+02  0.59690354788E+02  0.66619788146E+02  0.10000000000E+01 0.  0.
         21    1    1    2  502  501  0.19925076763E+02  0.58672114715E+02  0.62144945159E+02  0.87757734348E+02  0.00000000000E+00 0. -1.
<mgrwt>
<rscale>  1 0.13951625E+03</rscale>
<asrwt>0</asrwt>
<pdfrwt beam="2">  1        4 0.84623841E-02 0.13951625E+03</pdfrwt>
<pdfrwt beam="1">  1       -4 0.29271770E-01 0.13951625E+03</pdfrwt>
<totfact> 0.18528224E+03</totfact>
</mgrwt>
</event>
<event>
 6    4  0.2103460E-003  0.1268451E+03  0.7818608E-02  0.1232214E+00
         -4   -1    0    0    0  501 -0.00000000000E+00  0.00000000000E+00  0.78960524752E+03  0.78960626885E+03  0.12700000000E+01 0.  1.
          4   -1    0    0  502    0  0.00000000000E+00 -0.00000000000E+00 -0.72509272671E+01  0.73613073725E+01  0.12700000000E+01 0.  1.
         25    2    1    2    0    0  0.20956859418E+02  0.50373058634E+01  0.59454628751E+03  0.60792678283E+03  0.12500048350E+03 0.  0.
    9000005    1    3    3    0    0  0.18936071392E+02  0.38676328598E+02  0.55182951488E+03  0.55350812702E+03  0.10000000000E+01 0.  0.
    9000005    1    3    3    0    0  0.20207880260E+01 -0.33639022735E+02  0.42716772636E+02  0.54418655802E+02  0.10000000000E+01 0.  0.
         21    1    1    2  502  501 -0.20956859418E+02 -0.50373058634E+01  0.18780803274E+03  0.18904079340E+03  0.00000000000E+00 0.  1.
<mgrwt>
<rscale>  1 0.12684512E+03</rscale>
<asrwt>0</asrwt>
<pdfrwt beam="2">  1        4 0.11240963E-02 0.12684512E+03</pdfrwt>
<pdfrwt beam="1">  1       -4 0.12148634E+00 0.12684512E+03</pdfrwt>
<totfact> 0.21523491E+03</totfact>
</mgrwt>
</event>
<event>
 6    4  0.2103460E-003  0.1289097E+03  0.7818608E-02  0.1229083E+00
         -4   -1    0    0    0  501 -0.00000000000E+00  0.00000000000E+00  0.22513862244E+03  0.22514220442E+03  0.12700000000E+01 0. -1.
          4   -1    0    0  502    0  0.00000000000E+00 -0.00000000000E+00 -0.38469859309E+03  0.38470068940E+03  0.12700000000E+01 0. -1.
         25    2    1    2    0    0 -0.17706473109E+02 -0.26057527478E+02 -0.37271193178E+03  0.39437532676E+03  0.12500080134E+03 0.  0.
    9000005    1    3    3    0    0 -0.50164866024E+02 -0.60742469325E+02 -0.19234780232E+03  0.20785773601E+03  0.10000000000E+01 0.  0.
    9000005    1    3    3    0    0  0.32458392915E+02  0.34684941847E+02 -0.18036412946E+03  0.18651759074E+03  0.10000000000E+01 0.  0.
         21    1    1    2  502  501  0.17706473109E+02  0.26057527478E+02  0.21315196112E+03  0.21546756707E+03  0.00000000000E+00 0. -1.
<mgrwt>
<rscale>  1 0.12890971E+03</rscale>
<asrwt>0</asrwt>
<pdfrwt beam="2">  1        4 0.59184836E-01 0.12890971E+03</pdfrwt>
<pdfrwt beam="1">  1       -4 0.34637148E-01 0.12890971E+03</pdfrwt>
<totfact> 0.36950259E+01</totfact>
</mgrwt>
</event>
<event>
 6    4  0.2103460E-003  0.1304812E+03  0.7818608E-02  0.1226743E+00
          4   -1    0    0  502    0  0.00000000000E+00  0.00000000000E+00  0.50649832094E+02  0.50665751659E+02  0.12700000000E+01 0.  1.
         -4   -1    0    0    0  501 -0.00000000000E+00 -0.00000000000E+00 -0.14894775937E+03  0.14895317359E+03  0.12700000000E+01 0.  1.
         25    2    1    2    0    0 -0.34502401732E+02 -0.14472701621E+02 -0.52917503730E+02  0.14080347099E+03  0.12500192169E+03 0.  0.
    9000005    1    3    3    0    0 -0.80547715992E+01 -0.26171792592E+02  0.37172366430E+02  0.46180373526E+02  0.10000000000E+01 0.  0.
    9000005    1    3    3    0    0 -0.26447630133E+02  0.11699090970E+02 -0.90089870160E+02  0.94623097469E+02  0.10000000000E+01 0.  0.
         21    1    1    2  502  501  0.34502401732E+02  0.14472701621E+02 -0.45380423551E+02  0.58815454254E+02  0.00000000000E+00 0.  1.
<mgrwt>
<rscale>  1 0.13048124E+03</rscale>
<asrwt>0</asrwt>
<pdfrwt beam="1">  1        4 0.77939230E-02 0.13048124E+03</pdfrwt>
<pdfrwt beam="2">  1       -4 0.22916681E-01 0.13048124E+03</pdfrwt>
<totfact> 0.32930722E+03</totfact>
</mgrwt>
</event>
<event>
 6    4  0.2103460E-003  0.1301427E+03  0.7818608E-02  0.1227244E+00
          4   -1    0    0  502    0  0.00000000000E+00  0.00000000000E+00  0.44150074443E+02  0.44168336774E+02  0.12700000000E+01 0. -1.
         -4   -1    0    0    0  501 -0.00000000000E+00 -0.00000000000E+00 -0.16172294204E+03  0.16172792858E+03  0.12700000000E+01 0. -1.
         25    2    1    2    0    0 -0.79083880276E+01 -0.35224159826E+02 -0.75497147307E+02  0.15045575422E+03  0.12503531777E+03 0.  0.
    9000005    1    3    3    0    0  0.50590698568E+02 -0.38865942650E+02 -0.64663086420E+02  0.90842143442E+02  0.10000000000E+01 0.  0.
    9000005    1    3    3    0    0 -0.58499086596E+02  0.36417828242E+01 -0.10834060887E+02  0.59613610778E+02  0.10000000000E+01 0.  0.
         21    1    1    2  502  501  0.79083880276E+01  0.35224159826E+02 -0.42075720290E+02  0.55440511131E+02  0.00000000000E+00 0. -1.
<mgrwt>
<rscale>  1 0.13014267E+03</rscale>
<asrwt>0</asrwt>
<pdfrwt beam="1">  1        4 0.67941076E-02 0.13014267E+03</pdfrwt>
<pdfrwt beam="2">  1       -4 0.24882241E-01 0.13014267E+03</pdfrwt>
<totfact> 0.35466450E+03</totfact>
</mgrwt>
</event>
<event>
 6    4  0.2103460E-003  0.1284564E+03  0.7818608E-02  0.1229764E+00
          4   -1    0    0  502    0  0.00000000000E+00  0.00000000000E+00  0.44450176909E+03  0.44450358336E+03  0.12700000000E+01 0. -1.
         -4   -1    0    0    0  501 -0.00000000000E+00 -0.00000000000E+00 -0.16193945911E+02  0.16243669049E+02  0.12700000000E+01 0. -1.
         25    2    1    2    0    0  0.13010974616E+02  0.26602607326E+02  0.39865267268E+03  0.41883768157E+03  0.12499626351E+03 0.  0.
    9000005    1    3    3    0    0  0.65716881834E+02  0.35832563366E+02  0.23976730042E+03  0.25118128813E+03  0.10000000000E+01 0.  0.
    9000005    1    3    3    0    0 -0.52705907218E+02 -0.92299560401E+01  0.15888537226E+03  0.16765639344E+03  0.10000000000E+01 0.  0.
         21    1    1    2  502  501 -0.13010974616E+02 -0.26602607326E+02  0.29655150497E+02  0.41909570840E+02  0.00000000000E+00 0. -1.
<mgrwt>
<rscale>  1 0.12845641E+03</rscale>
<asrwt>0</asrwt>
<pdfrwt beam="1">  1        4 0.68388849E-01 0.12845641E+03</pdfrwt>
<pdfrwt beam="2">  1       -4 0.24953408E-02 0.12845641E+03</pdfrwt>
<totfact> 0.23465972E+03</totfact>
</mgrwt>
</event>
<event>
 6    4  0.2103460E-003  0.1293154E+03  0.7818608E-02  0.1228475E+00
         -4   -1    0    0    0  501 -0.00000000000E+00  0.00000000000E+00  0.13998252703E+04  0.13998258464E+04  0.12700000000E+01 0.  1.
          4   -1    0    0  502    0  0.00000000000E+00 -0.00000000000E+00 -0.48375880532E+01  0.50015155876E+01  0.12700000000E+01 0.  1.
         25    2    1    2    0    0  0.27622853783E+02  0.18299616448E+02  0.97564570750E+03  0.98417835178E+03  0.12499833411E+03 0.  0.
    9000005    1    3    3    0    0  0.27515710735E+02 -0.28575019276E+02  0.10463694202E+03  0.11190860422E+03  0.10000000000E+01 0.  0.
    9000005    1    3    3    0    0  0.10714304741E+00  0.46874635724E+02  0.87100876548E+03  0.87226974755E+03  0.10000000000E+01 0.  0.
         21    1    1    2  502  501 -0.27622853783E+02 -0.18299616448E+02  0.41934197474E+03  0.42064901021E+03  0.00000000000E+00 0.  1.
<mgrwt>
<rscale>  1 0.12931543E+03</rscale>
<asrwt>0</asrwt>
<pdfrwt beam="2">  1        4 0.75689784E-03 0.12931543E+03</pdfrwt>
<pdfrwt beam="1">  1       -4 0.21537056E+00 0.12931543E+03</pdfrwt>
<totfact> 0.86570598E+02</totfact>
</mgrwt>
</event>
<event>
 6    4  0.2103460E-003  0.1273006E+03  0.7818608E-02  0.1231517E+00
          4   -1    0    0  502    0  0.00000000000E+00  0.00000000000E+00  0.85201876854E+03  0.85201971506E+03  0.12700000000E+01 0. -1.
         -4   -1    0    0    0  501 -0.00000000000E+00 -0.00000000000E+00 -0.67851577037E+01  0.69029895744E+01  0.12700000000E+01 0. -1.
         25    2    1    2    0    0 -0.22435052450E+02 -0.87891210792E+01  0.74752760739E+03  0.75828949273E+03  0.12499940299E+03 0.  0.
    9000005    1    3    3    0    0  0.17435663104E+02  0.39466801614E+02  0.11778963840E+03  0.12544731840E+03  0.10000000000E+01 0.  0.
    9000005    1    3    3    0    0 -0.39870715554E+02 -0.48255922693E+02  0.62973796899E+03  0.63284217434E+03  0.10000000000E+01 0.  0.
         21    1    1    2  502  501  0.22435052450E+02  0.87891210792E+01  0.97706003446E+02  0.10063321190E+03  0.00000000000E+00 0. -1.
<mgrwt>
<rscale>  1 0.12730055E+03</rscale>
<asrwt>0</asrwt>
<pdfrwt beam="1">  1        4 0.13108894E+00 0.12730055E+03</pdfrwt>
<pdfrwt beam="2">  1       -4 0.10530072E-02 0.12730055E+03</pdfrwt>
<totfact> 0.19759946E+03</totfact>
</mgrwt>
</event>
<event>
 6    4  0.2103460E-003  0.1454849E+03  0.7818608E-02  0.1206133E+00
         -4   -1    0    0    0  501 -0.00000000000E+00  0.00000000000E+00  0.46502402524E+03  0.46502575944E+03  0.12700000000E+01 0. -1.
          4   -1    0    0  502    0  0.00000000000E+00 -0.00000000000E+00 -0.27794346269E+02  0.27823346034E+02  0.12700000000E+01 0. -1.
         25    2    1    2    0    0 -0.45099881846E+02 -0.59222557958E+02  0.22495331149E+03  0.26789896233E+03  0.12499820380E+03 0.  0.
    9000005    1    3    3    0    0  0.42749013242E+02 -0.28690798405E+02  0.65705542885E+02  0.83479688621E+02  0.10000000000E+01 0.  0.
    9000005    1    3    3    0    0 -0.87848895088E+02 -0.30531759553E+02  0.15924776861E+03  0.18441927371E+03  0.10000000000E+01 0.  0.
         21    1    1    2  502  501  0.45099881846E+02  0.59222557958E+02  0.21227636748E+03  0.22495014315E+03  0.00000000000E+00 0. -1.
<mgrwt>
<rscale>  1 0.14548492E+03</rscale>
<asrwt>0</asrwt>
<pdfrwt beam="2">  1        4 0.42784177E-02 0.14548492E+03</pdfrwt>
<pdfrwt beam="1">  1       -4 0.71544517E-01 0.14548492E+03</pdfrwt>
<totfact> 0.93639325E+02</totfact>
</mgrwt>
</event>
<event>
 6    4  0.2103460E-003  0.1596525E+03  0.7818608E-02  0.1189090E+00
         -4   -1    0    0    0  501 -0.00000000000E+00  0.00000000000E+00  0.11417768515E+03  0.11418474805E+03  0.12700000000E+01 0.  1.
          4   -1    0    0  502    0  0.00000000000E+00 -0.00000000000E+00 -0.14694813044E+03  0.14695361832E+03  0.12700000000E+01 0.  1.
         25    2    1    2    0    0  0.37628685767E+02 -0.91927216366E+02 -0.16831039954E+02  0.16053719469E+03  0.12498950305E+03 0.  0.
    9000005    1    3    3    0    0  0.11751475101E+02 -0.11656111220E+03  0.73461450465E+01  0.11738635309E+03  0.10000000000E+01 0.  0.
    9000005    1    3    3    0    0  0.25877210666E+02  0.24633895839E+02 -0.24177185001E+02  0.43150841598E+02  0.10000000000E+01 0.  0.
         21    1    1    2  502  501 -0.37628685767E+02  0.91927216366E+02 -0.15939405329E+02  0.10060117168E+03  0.00000000000E+00 0.  1.
<mgrwt>
<rscale>  1 0.15965246E+03</rscale>
<asrwt>0</asrwt>
<pdfrwt beam="2">  1        4 0.22608370E-01 0.15965246E+03</pdfrwt>
<pdfrwt beam="1">  1       -4 0.17566763E-01 0.15965246E+03</pdfrwt>
<totfact> 0.87755980E+02</totfact>
</mgrwt>
</event>
<event>
 6    4  0.2103460E-003  0.1321525E+03  0.7818608E-02  0.1224296E+00
         -4   -1    0    0    0  501 -0.00000000000E+00  0.00000000000E+00  0.13756580260E+03  0.13757166476E+03  0.12700000000E+01 0. -1.
          4   -1    0    0  502    0  0.00000000000E+00 -0.00000000000E+00 -0.56624308723E+02  0.56638549049E+02  0.12700000000E+01 0. -1.
         25    2    1    2    0    0 -0.42851603762E+02  0.13091490312E+01  0.71713991889E+02  0.15035681475E+03  0.12500520506E+03 0.  0.
    9000005    1    3    3    0    0 -0.83355079214E+02 -0.19967057087E+02  0.53855021001E+02  0.10123297826E+03  0.10000000000E+01 0.  0.
    9000005    1    3    3    0    0  0.40503475452E+02  0.21276206118E+02  0.17858970888E+02  0.49123836491E+02  0.10000000000E+01 0.  0.
         21    1    1    2  502  501  0.42851603762E+02 -0.13091490312E+01  0.92275019853E+01  0.43853399059E+02  0.00000000000E+00 0. -1.
<mgrwt>
<rscale>  1 0.13215247E+03</rscale>
<asrwt>0</asrwt>
<pdfrwt beam="2">  1        4 0.87129784E-02 0.13215247E+03</pdfrwt>
<pdfrwt beam="1">  1       -4 0.21165516E-01 0.13215247E+03</pdfrwt>
<totfact> 0.31722613E+03</totfact>
</mgrwt>
</event>
<event>
 6    4  0.2103460E-003  0.1303293E+03  0.7818608E-02  0.1226968E+00
         -4   -1    0    0    0  501 -0.00000000000E+00  0.00000000000E+00  0.50936197888E+02  0.50952027980E+02  0.12700000000E+01 0. -1.
          4   -1    0    0  502    0  0.00000000000E+00 -0.00000000000E+00 -0.15309083189E+03  0.15309609958E+03  0.12700000000E+01 0. -1.
         25    2    1    2    0    0 -0.15809943479E+01  0.36877339977E+02 -0.48791165383E+02  0.13916286322E+03  0.12499314754E+03 0.  0.
    9000005    1    3    3    0    0 -0.45832027257E+01  0.78044925641E+02 -0.57390221227E+02  0.96987904699E+02  0.10000000000E+01 0.  0.
    9000005    1    3    3    0    0  0.30022083778E+01 -0.41167585664E+02  0.85990558433E+01  0.42174958517E+02  0.10000000000E+01 0.  0.
         21    1    1    2  502  501  0.15809943479E+01 -0.36877339977E+02 -0.53363468616E+02  0.64885264349E+02  0.00000000000E+00 0. -1.
<mgrwt>
<rscale>  1 0.13032929E+03</rscale>
<asrwt>0</asrwt>
<pdfrwt beam="2">  1        4 0.23554058E-01 0.13032929E+03</pdfrwt>
<pdfrwt beam="1">  1       -4 0.78379611E-02 0.13032929E+03</pdfrwt>
<totfact> 0.31020638E+03</totfact>
</mgrwt>
</event>
<event>
 6    4  0.2103460E-003  0.1340262E+03  0.7818608E-02  0.1221601E+00
         -4   -1    0    0    0  501 -0.00000000000E+00  0.00000000000E+00  0.11401473136E+03  0.11402180435E+03  0.12700000000E+01 0.  1.
          4   -1    0    0  502    0  0.00000000000E+00 -0.00000000000E+00 -0.89841609338E+02  0.89850585243E+02  0.12700000000E+01 0.  1.
         25    2    1    2    0    0 -0.30216010796E+02  0.37753737505E+02 -0.23381680894E+02  0.13605048101E+03  0.12499871350E+03 0.  0.
    9000005    1    3    3    0    0  0.24908352102E+02 -0.32832924372E+02 -0.21432572927E+02  0.46462695892E+02  0.10000000000E+01 0.  0.
    9000005    1    3    3    0    0 -0.55124362899E+02  0.70586661876E+02 -0.19491079666E+01  0.89587785114E+02  0.10000000000E+01 0.  0.
         21    1    1    2  502  501  0.30216010796E+02 -0.37753737505E+02  0.47554802917E+02  0.67821908588E+02  0.00000000000E+00 0.  1.
<mgrwt>
<rscale>  1 0.13402623E+03</rscale>
<asrwt>0</asrwt>
<pdfrwt beam="2">  1        4 0.13823021E-01 0.13402623E+03</pdfrwt>
<pdfrwt beam="1">  1       -4 0.17541962E-01 0.13402623E+03</pdfrwt>
<totfact> 0.20349078E+03</totfact>
</mgrwt>
</event>
<event>
 6    4  0.2103460E-003  0.1291286E+03  0.7818608E-02  0.1228754E+00
         -4   -1    0    0    0  501 -0.00000000000E+00  0.00000000000E+00  0.38963794101E+03  0.38964001074E+03  0.12700000000E+01 0.  1.
          4   -1    0    0  502    0  0.00000000000E+00 -0.00000000000E+00 -0.23206803348E+02  0.23241527954E+02  0.12700000000E+01 0.  1.
         25    2    1    2    0    0  0.10976376415E+01  0.32238461881E+02  0.16823891936E+03  0.21208144252E+03  0.12503471933E+03 0.  0.
    9000005    1    3    3    0    0 -0.50489207712E+02 -0.10927217106E+01  0.25278855345E+02  0.56483401665E+02  0.10000000000E+01 0.  0.
    9000005    1    3    3    0    0  0.51586845353E+02  0.33331183592E+02  0.14296006402E+03  0.15559804085E+03  0.10000000000E+01 0.  0.
         21    1    1    2  502  501 -0.10976376415E+01 -0.32238461881E+02  0.19819221830E+03  0.20080009618E+03  0.00000000000E+00 0.  1.
<mgrwt>
<rscale>  1 0.12912863E+03</rscale>
<asrwt>0</asrwt>
<pdfrwt beam="2">  1        4 0.35731080E-02 0.12912863E+03</pdfrwt>
<pdfrwt beam="1">  1       -4 0.59947126E-01 0.12912863E+03</pdfrwt>
<totfact> 0.17717312E+03</totfact>
</mgrwt>
</event>
<event>
 6    4  0.2103460E-003  0.1310061E+03  0.7818608E-02  0.1225970E+00
          4   -1    0    0  502    0  0.00000000000E+00  0.00000000000E+00  0.36419389261E+02  0.36441525958E+02  0.12700000000E+01 0. -1.
         -4   -1    0    0    0  501 -0.00000000000E+00 -0.00000000000E+00 -0.20846518910E+03  0.20846905757E+03  0.12700000000E+01 0. -1.
         25    2    1    2    0    0 -0.38310646828E+02 -0.81428409304E+01 -0.10775166109E+03  0.16962613762E+03  0.12501437748E+03 0.  0.
    9000005    1    3    3    0    0 -0.54592032802E+02  0.27724612351E+02 -0.11431216021E+03  0.12968120199E+03  0.10000000000E+01 0.  0.
    9000005    1    3    3    0    0  0.16281385974E+02 -0.35867453281E+02  0.65604991248E+01  0.39944935635E+02  0.10000000000E+01 0.  0.
         21    1    1    2  502  501  0.38310646828E+02  0.81428409304E+01 -0.64294138746E+02  0.75284445909E+02  0.00000000000E+00 0.  1.
<mgrwt>
<rscale>  1 0.13100613E+03</rscale>
<asrwt>0</asrwt>
<pdfrwt beam="1">  1        4 0.56049835E-02 0.13100613E+03</pdfrwt>
<pdfrwt beam="2">  1       -4 0.32073567E-01 0.13100613E+03</pdfrwt>
<totfact> 0.30189174E+03</totfact>
</mgrwt>
</event>
<event>
 6    4  0.2103460E-003  0.2418112E+03  0.7818608E-02  0.1118592E+00
          4   -1    0    0  502    0  0.00000000000E+00  0.00000000000E+00  0.55954895379E+02  0.55969306025E+02  0.12700000000E+01 0. -1.
         -4   -1    0    0    0  501 -0.00000000000E+00 -0.00000000000E+00 -0.90040623597E+03  0.90040713162E+03  0.12700000000E+01 0. -1.
         25    2    1    2    0    0  0.18034787865E+03  0.10159966640E+03 -0.44290427012E+03  0.50461555029E+03  0.12499924619E+03 0.  0.
    9000005    1    3    3    0    0  0.49720791577E+02  0.66229009413E+02 -0.71825332875E+02  0.10962808602E+03  0.10000000000E+01 0.  0.
    9000005    1    3    3    0    0  0.13062708708E+03  0.35370656987E+02 -0.37107893725E+03  0.39498746426E+03  0.10000000000E+01 0.  0.
         21    1    1    2  502  501 -0.18034787865E+03 -0.10159966640E+03 -0.40154707047E+03  0.45176088736E+03  0.00000000000E+00 0. -1.
<mgrwt>
<rscale>  1 0.24181121E+03</rscale>
<asrwt>0</asrwt>
<pdfrwt beam="1">  1        4 0.86096235E-02 0.24181121E+03</pdfrwt>
<pdfrwt beam="2">  1       -4 0.13852520E+00 0.24181121E+03</pdfrwt>
<totfact> 0.69020888E+01</totfact>
</mgrwt>
</event>
<event>
 6    4  0.2103460E-003  0.1283357E+03  0.7818608E-02  0.1229946E+00
         -4   -1    0    0    0  501 -0.00000000000E+00  0.00000000000E+00  0.54459222241E+02  0.54474028556E+02  0.12700000000E+01 0.  1.
          4   -1    0    0  502    0  0.00000000000E+00 -0.00000000000E+00 -0.11424228968E+03  0.11424934858E+03  0.12700000000E+01 0.  1.
         25    2    1    2    0    0 -0.27542338373E+02 -0.93057363774E+01 -0.53137436349E+02  0.13890154712E+03  0.12499950208E+03 0.  0.
    9000005    1    3    3    0    0 -0.24436534580E+02 -0.66545464529E+02 -0.26573032102E+02  0.75713731296E+02  0.10000000000E+01 0.  0.
    9000005    1    3    3    0    0 -0.31058037927E+01  0.57239728152E+02 -0.26564404247E+02  0.63187815828E+02  0.10000000000E+01 0.  0.
         21    1    1    2  502  501  0.27542338373E+02  0.93057363774E+01 -0.66456310857E+01  0.29821830009E+02  0.00000000000E+00 0. -1.
<mgrwt>
<rscale>  1 0.12833570E+03</rscale>
<asrwt>0</asrwt>
<pdfrwt beam="2">  1        4 0.17577419E-01 0.12833570E+03</pdfrwt>
<pdfrwt beam="1">  1       -4 0.83800238E-02 0.12833570E+03</pdfrwt>
<totfact> 0.46860963E+03</totfact>
</mgrwt>
</event>
<event>
 6    4  0.2103460E-003  0.1272691E+03  0.7818608E-02  0.1231565E+00
         -4   -1    0    0    0  501 -0.00000000000E+00  0.00000000000E+00  0.25801808673E+02  0.25833045326E+02  0.12700000000E+01 0.  1.
          4   -1    0    0  502    0  0.00000000000E+00 -0.00000000000E+00 -0.35155679465E+03  0.35155908858E+03  0.12700000000E+01 0.  1.
         25    2    1    2    0    0  0.11910445787E+02  0.20727637150E+02 -0.32947235718E+03  0.35319890119E+03  0.12500374392E+03 0.  0.
    9000005    1    3    3    0    0 -0.33461637827E+01  0.61217141930E+02 -0.84330874004E+02  0.10426615745E+03  0.10000000000E+01 0.  0.
    9000005    1    3    3    0    0  0.15256609570E+02 -0.40489504780E+02 -0.24514148318E+03  0.24893274374E+03  0.10000000000E+01 0.  0.
         21    1    1    2  502  501 -0.11910445787E+02 -0.20727637150E+02  0.37173712060E+01  0.24193232718E+02  0.00000000000E+00 0.  1.
<mgrwt>
<rscale>  1 0.12726912E+03</rscale>
<asrwt>0</asrwt>
<pdfrwt beam="2">  1        4 0.54088236E-01 0.12726912E+03</pdfrwt>
<pdfrwt beam="1">  1       -4 0.39720886E-02 0.12726912E+03</pdfrwt>
<totfact> 0.18496447E+03</totfact>
</mgrwt>
</event>
<event>
 6    4  0.2103460E-003  0.1351216E+03  0.7818608E-02  0.1220048E+00
         -4   -1    0    0    0  501 -0.00000000000E+00  0.00000000000E+00  0.11514513820E+02  0.11584339796E+02  0.12700000000E+01 0.  1.
          4   -1    0    0  502    0  0.00000000000E+00 -0.00000000000E+00 -0.87326105296E+03  0.87326197645E+03  0.12700000000E+01 0.  1.
         25    2    1    2    0    0 -0.34173242273E+02  0.38275453121E+02 -0.74738475810E+03  0.75950104205E+03  0.12500014179E+03 0.  0.
    9000005    1    3    3    0    0 -0.40828078816E+02 -0.26765490681E+02 -0.13361134168E+03  0.14225439936E+03  0.10000000000E+01 0.  0.
    9000005    1    3    3    0    0  0.66548365429E+01  0.65040943803E+02 -0.61377341642E+03  0.61724664270E+03  0.10000000000E+01 0.  0.
         21    1    1    2  502  501  0.34173242273E+02 -0.38275453121E+02 -0.11436178104E+03  0.12534527419E+03  0.00000000000E+00 0.  1.
<mgrwt>
<rscale>  1 0.13512164E+03</rscale>
<asrwt>0</asrwt>
<pdfrwt beam="2">  1        4 0.13435324E+00 0.13512164E+03</pdfrwt>
<pdfrwt beam="1">  1       -4 0.17769066E-02 0.13512164E+03</pdfrwt>
<totfact> 0.85081881E+02</totfact>
</mgrwt>
</event>
<event>
 6    4  0.2103460E-003  0.1287447E+03  0.7818608E-02  0.1229330E+00
          4   -1    0    0  502    0  0.00000000000E+00  0.00000000000E+00  0.11663962300E+04  0.11663969214E+04  0.12700000000E+01 0. -1.
         -4   -1    0    0    0  501 -0.00000000000E+00 -0.00000000000E+00 -0.56146202620E+01  0.57564625150E+01  0.12700000000E+01 0. -1.
         25    2    1    2    0    0  0.21985698101E+02  0.21592149917E+02  0.10162927701E+04  0.10244150455E+04  0.12500239609E+03 0.  0.
    9000005    1    3    3    0    0 -0.26183374677E+01 -0.42962301348E+02  0.17224728725E+03  0.17754645306E+03  0.10000000000E+01 0.  0.
    9000005    1    3    3    0    0  0.24604035568E+02  0.64554451265E+02  0.84404548285E+03  0.84686859244E+03  0.10000000000E+01 0.  0.
         21    1    1    2  502  501 -0.21985698101E+02 -0.21592149917E+02  0.14448883965E+03  0.14773833843E+03  0.00000000000E+00 0. -1.
<mgrwt>
<rscale>  1 0.12874467E+03</rscale>
<asrwt>0</asrwt>
<pdfrwt beam="1">  1        4 0.17945657E+00 0.12874467E+03</pdfrwt>
<pdfrwt beam="2">  1       -4 0.87475168E-03 0.12874467E+03</pdfrwt>
<totfact> 0.11682748E+03</totfact>
</mgrwt>
</event>
<event>
 6    4  0.2103460E-003  0.2087535E+03  0.7818608E-02  0.1142557E+00
         -4   -1    0    0    0  501 -0.00000000000E+00  0.00000000000E+00  0.37081047311E+03  0.37081264793E+03  0.12700000000E+01 0.  1.
          4   -1    0    0  502    0  0.00000000000E+00 -0.00000000000E+00 -0.95565842519E+02  0.95574280831E+02  0.12700000000E+01 0.  1.
         25    2    1    2    0    0 -0.16716767798E+03 -0.28116832166E+01  0.16544691412E+03  0.26636573822E+03  0.12500034794E+03 0.  0.
    9000005    1    3    3    0    0 -0.10507118324E+03  0.10762915711E+02  0.17264016510E+03  0.20238927962E+03  0.10000000000E+01 0.  0.
    9000005    1    3    3    0    0 -0.62096494742E+02 -0.13574598927E+02 -0.71932509805E+01  0.63976458599E+02  0.10000000000E+01 0.  0.
         21    1    1    2  502  501  0.16716767798E+03  0.28116832166E+01  0.10979771647E+03  0.20002119054E+03  0.00000000000E+00 0.  1.
<mgrwt>
<rscale>  1 0.20875350E+03</rscale>
<asrwt>0</asrwt>
<pdfrwt beam="2">  1        4 0.14703253E-01 0.20875350E+03</pdfrwt>
<pdfrwt beam="1">  1       -4 0.57048583E-01 0.20875350E+03</pdfrwt>
<totfact> 0.20610413E+02</totfact>
</mgrwt>
</event>
<event>
 6    4  0.2103460E-003  0.1269890E+03  0.7818608E-02  0.1231993E+00
         -4   -1    0    0    0  501 -0.00000000000E+00  0.00000000000E+00  0.11945200047E+02  0.12012522806E+02  0.12700000000E+01 0. -1.
          4   -1    0    0  502    0  0.00000000000E+00 -0.00000000000E+00 -0.54099466929E+03  0.54099615997E+03  0.12700000000E+01 0. -1.
         25    2    1    2    0    0 -0.20461754300E+02  0.90840780436E+01 -0.50241389664E+03  0.51821417759E+03  0.12500002584E+03 0.  0.
    9000005    1    3    3    0    0 -0.22935076379E+02  0.45205301725E+02 -0.83146358162E+02  0.97385080522E+02  0.10000000000E+01 0.  0.
    9000005    1    3    3    0    0  0.24733220795E+01 -0.36121223681E+02 -0.41926753847E+03  0.42082909707E+03  0.10000000000E+01 0.  0.
         21    1    1    2  502  501  0.20461754300E+02 -0.90840780436E+01 -0.26635572611E+02  0.34794505188E+02  0.00000000000E+00 0.  1.
<mgrwt>
<rscale>  1 0.12698902E+03</rscale>
<asrwt>0</asrwt>
<pdfrwt beam="2">  1        4 0.83235224E-01 0.12698902E+03</pdfrwt>
<pdfrwt beam="1">  1       -4 0.18430168E-02 0.12698902E+03</pdfrwt>
<totfact> 0.24317031E+03</totfact>
</mgrwt>
</event>
<event>
 6    4  0.2103460E-003  0.1282037E+03  0.7818608E-02  0.1230146E+00
          4   -1    0    0  502    0  0.00000000000E+00  0.00000000000E+00  0.10656182271E+02  0.10731594504E+02  0.12700000000E+01 0. -1.
         -4   -1    0    0    0  501 -0.00000000000E+00 -0.00000000000E+00 -0.64109325678E+03  0.64109451471E+03  0.12700000000E+01 0. -1.
         25    2    1    2    0    0 -0.25874958040E+02 -0.11908004799E+02 -0.41054570630E+03  0.43009760891E+03  0.12499944880E+03 0.  0.
    9000005    1    3    3    0    0  0.77692648336E+01  0.48565297968E+02 -0.94218484063E+02  0.10628768688E+03  0.10000000000E+01 0.  0.
    9000005    1    3    3    0    0 -0.33644222873E+02 -0.60473302767E+02 -0.31632722223E+03  0.32380992203E+03  0.10000000000E+01 0.  0.
         21    1    1    2  502  501  0.25874958040E+02  0.11908004799E+02 -0.21989136821E+03  0.22172850030E+03  0.00000000000E+00 0. -1.
<mgrwt>
<rscale>  1 0.12820365E+03</rscale>
<asrwt>0</asrwt>
<pdfrwt beam="1">  1        4 0.16453109E-02 0.12820365E+03</pdfrwt>
<pdfrwt beam="2">  1       -4 0.98635600E-01 0.12820365E+03</pdfrwt>
<totfact> 0.19755489E+03</totfact>
</mgrwt>
</event>
<event>
 6    4  0.2103460E-003  0.1269767E+03  0.7818608E-02  0.1232012E+00
          4   -1    0    0  502    0  0.00000000000E+00  0.00000000000E+00  0.12366919228E+02  0.12431958462E+02  0.12700000000E+01 0.  1.
         -4   -1    0    0    0  501 -0.00000000000E+00 -0.00000000000E+00 -0.58485048603E+03  0.58485186493E+03  0.12700000000E+01 0.  1.
         25    2    1    2    0    0  0.25702578841E+01 -0.22160277276E+02 -0.32698676578E+03  0.35077547987E+03  0.12500163265E+03 0.  0.
    9000005    1    3    3    0    0  0.49907768883E+02 -0.27131425942E+01 -0.56300233417E+02  0.75291850957E+02  0.10000000000E+01 0.  0.
    9000005    1    3    3    0    0 -0.47337510999E+02 -0.19447134682E+02 -0.27068653237E+03  0.27548362891E+03  0.10000000000E+01 0.  0.
         21    1    1    2  502  501 -0.25702578841E+01  0.22160277276E+02 -0.24549680102E+03  0.24650834352E+03  0.00000000000E+00 0.  1.
<mgrwt>
<rscale>  1 0.12697674E+03</rscale>
<asrwt>0</asrwt>
<pdfrwt beam="1">  1        4 0.19077125E-02 0.12697674E+03</pdfrwt>
<pdfrwt beam="2">  1       -4 0.89982086E-01 0.12697674E+03</pdfrwt>
<totfact> 0.19369303E+03</totfact>
</mgrwt>
</event>
<event>
 6    4  0.2103460E-003  0.1295979E+03  0.7818608E-02  0.1228054E+00
          4   -1    0    0  502    0  0.00000000000E+00  0.00000000000E+00  0.34482306153E+02  0.34505685585E+02  0.12700000000E+01 0.  1.
         -4   -1    0    0    0  501 -0.00000000000E+00 -0.00000000000E+00 -0.27133607125E+03  0.27133904338E+03  0.12700000000E+01 0.  1.
         25    2    1    2    0    0  0.20907568681E+02  0.27086014157E+02 -0.97033028435E+02  0.16189815210E+03  0.12499929781E+03 0.  0.
    9000005    1    3    3    0    0 -0.37159260402E+02  0.39229241299E+02 -0.85967254085E+02  0.10154364964E+03  0.10000000000E+01 0.  0.
    9000005    1    3    3    0    0  0.58066829083E+02 -0.12143227142E+02 -0.11065774350E+02  0.60354502460E+02  0.10000000000E+01 0.  0.
         21    1    1    2  502  501 -0.20907568681E+02 -0.27086014157E+02 -0.13982073666E+03  0.14394657687E+03  0.00000000000E+00 0.  1.
<mgrwt>
<rscale>  1 0.12959785E+03</rscale>
<asrwt>0</asrwt>
<pdfrwt beam="1">  1        4 0.53069974E-02 0.12959785E+03</pdfrwt>
<pdfrwt beam="2">  1       -4 0.41746037E-01 0.12959785E+03</pdfrwt>
<totfact> 0.19717781E+03</totfact>
</mgrwt>
</event>
<event>
 6    4  0.2103460E-003  0.1273164E+03  0.7818608E-02  0.1231493E+00
          4   -1    0    0  502    0  0.00000000000E+00  0.00000000000E+00  0.16802535540E+03  0.16803015490E+03  0.12700000000E+01 0.  1.
         -4   -1    0    0    0  501 -0.00000000000E+00 -0.00000000000E+00 -0.36240789453E+02  0.36263035176E+02  0.12700000000E+01 0.  1.
         25    2    1    2    0    0  0.22909733880E+02 -0.75180871964E+01  0.89533138631E+02  0.15564588130E+03  0.12501231903E+03 0.  0.
    9000005    1    3    3    0    0  0.16381347102E+02  0.54355926959E+02  0.15344697023E+02  0.58816452249E+02  0.10000000000E+01 0.  0.
    9000005    1    3    3    0    0  0.65283867776E+01 -0.61874014156E+02  0.74188441608E+02  0.96829429049E+02  0.10000000000E+01 0.  0.
         21    1    1    2  502  501 -0.22909733880E+02  0.75180871964E+01  0.42251427314E+02  0.48647308781E+02  0.00000000000E+00 0.  1.
<mgrwt>
<rscale>  1 0.12731637E+03</rscale>
<asrwt>0</asrwt>
<pdfrwt beam="1">  1        4 0.25852136E-01 0.12731637E+03</pdfrwt>
<pdfrwt beam="2">  1       -4 0.55775864E-02 0.12731637E+03</pdfrwt>
<totfact> 0.45302143E+03</totfact>
</mgrwt>
</event>
<event>
 6    4  0.2103460E-003  0.1359918E+03  0.7818608E-02  0.1218826E+00
         -4   -1    0    0    0  501 -0.00000000000E+00  0.00000000000E+00  0.43424602654E+03  0.43424788366E+03  0.12700000000E+01 0.  1.
          4   -1    0    0  502    0  0.00000000000E+00 -0.00000000000E+00 -0.21154399248E+02  0.21192487054E+02  0.12700000000E+01 0.  1.
         25    2    1    2    0    0  0.20065564575E+02  0.49643740139E+02  0.26291667468E+03  0.29600497876E+03  0.12500656706E+03 0.  0.
    9000005    1    3    3    0    0 -0.29153457181E+01  0.51846940989E+02  0.26217334743E+02  0.58180350391E+02  0.10000000000E+01 0.  0.
    9000005    1    3    3    0    0  0.22980910293E+02 -0.22032008496E+01  0.23669933994E+03  0.23782462837E+03  0.10000000000E+01 0.  0.
         21    1    1    2  502  501 -0.20065564575E+02 -0.49643740139E+02  0.15017495261E+03  0.15943539195E+03  0.00000000000E+00 0.  1.
<mgrwt>
<rscale>  1 0.13599180E+03</rscale>
<asrwt>0</asrwt>
<pdfrwt beam="2">  1        4 0.32575957E-02 0.13599180E+03</pdfrwt>
<pdfrwt beam="1">  1       -4 0.66810152E-01 0.13599180E+03</pdfrwt>
<totfact> 0.16478817E+03</totfact>
</mgrwt>
</event>
<event>
 6    4  0.2103460E-003  0.1275256E+03  0.7818608E-02  0.1231174E+00
         -4   -1    0    0    0  501 -0.00000000000E+00  0.00000000000E+00  0.19768726640E+02  0.19809478867E+02  0.12700000000E+01 0.  1.
          4   -1    0    0  502    0  0.00000000000E+00 -0.00000000000E+00 -0.33854578945E+03  0.33854817154E+03  0.12700000000E+01 0.  1.
         25    2    1    2    0    0 -0.58855188147E+01  0.24536067858E+02 -0.30262874927E+03  0.32840058133E+03  0.12500449582E+03 0.  0.
    9000005    1    3    3    0    0 -0.29688657476E+02  0.68282278197E+02 -0.14368644453E+03  0.16183534917E+03  0.10000000000E+01 0.  0.
    9000005    1    3    3    0    0  0.23803138661E+02 -0.43746210339E+02 -0.15894230474E+03  0.16656523216E+03  0.10000000000E+01 0.  0.
         21    1    1    2  502  501  0.58855188147E+01 -0.24536067858E+02 -0.16148313542E+02  0.29957069081E+02  0.00000000000E+00 0.  1.
<mgrwt>
<rscale>  1 0.12752561E+03</rscale>
<asrwt>0</asrwt>
<pdfrwt beam="2">  1        4 0.52087282E-01 0.12752561E+03</pdfrwt>
<pdfrwt beam="1">  1       -4 0.30446608E-02 0.12752561E+03</pdfrwt>
<totfact> 0.30397862E+03</totfact>
</mgrwt>
</event>
<event>
 6    4  0.2103460E-003  0.1270705E+03  0.7818608E-02  0.1231868E+00
          4   -1    0    0  502    0  0.00000000000E+00  0.00000000000E+00  0.71459984652E+02  0.71471269098E+02  0.12700000000E+01 0.  1.
         -4   -1    0    0    0  501 -0.00000000000E+00 -0.00000000000E+00 -0.80451083234E+02  0.80461106714E+02  0.12700000000E+01 0.  1.
         25    2    1    2    0    0  0.13730616923E+02 -0.18256009545E+02  0.81555696222E+00  0.12707312766E+03  0.12500041166E+03 0.  0.
    9000005    1    3    3    0    0 -0.43412319935E+02  0.29284631396E+02 -0.43358380140E+01  0.52554910802E+02  0.10000000000E+01 0.  0.
    9000005    1    3    3    0    0  0.57142936858E+02 -0.47540640941E+02  0.51513949762E+01  0.74518216860E+02  0.10000000000E+01 0.  0.
         21    1    1    2  502  501 -0.13730616923E+02  0.18256009545E+02 -0.98066555444E+01  0.24859248149E+02  0.00000000000E+00 0.  1.
<mgrwt>
<rscale>  1 0.12707051E+03</rscale>
<asrwt>0</asrwt>
<pdfrwt beam="1">  1        4 0.10995483E-01 0.12707051E+03</pdfrwt>
<pdfrwt beam="2">  1       -4 0.12378729E-01 0.12707051E+03</pdfrwt>
<totfact> 0.54576928E+03</totfact>
</mgrwt>
</event>
<event>
 6    4  0.2103460E-003  0.1281973E+03  0.7818608E-02  0.1230155E+00
          4   -1    0    0  502    0  0.00000000000E+00  0.00000000000E+00  0.19724708874E+03  0.19725117722E+03  0.12700000000E+01 0. -1.
         -4   -1    0    0    0  501 -0.00000000000E+00 -0.00000000000E+00 -0.70301561784E+02  0.70313032144E+02  0.12700000000E+01 0. -1.
         25    2    1    2    0    0 -0.24635119337E+02  0.14246550166E+02  0.17185150555E+03  0.21440030987E+03  0.12499879846E+03 0.  0.
    9000005    1    3    3    0    0  0.26439917283E+02 -0.28748999914E+02  0.12965486483E+03  0.13541402510E+03  0.10000000000E+01 0.  0.
    9000005    1    3    3    0    0 -0.51075036621E+02  0.42995550080E+02  0.42196640725E+02  0.78986284765E+02  0.10000000000E+01 0.  0.
         21    1    1    2  502  501  0.24635119337E+02 -0.14246550166E+02 -0.44905978595E+02  0.53163899499E+02  0.00000000000E+00 0. -1.
<mgrwt>
<rscale>  1 0.12819732E+03</rscale>
<asrwt>0</asrwt>
<pdfrwt beam="1">  1        4 0.30346903E-01 0.12819732E+03</pdfrwt>
<pdfrwt beam="2">  1       -4 0.10816822E-01 0.12819732E+03</pdfrwt>
<totfact> 0.11253644E+03</totfact>
</mgrwt>
</event>
<event>
 6    4  0.2103460E-003  0.1392789E+03  0.7818608E-02  0.1214303E+00
          4   -1    0    0  502    0  0.00000000000E+00  0.00000000000E+00  0.22287005200E+03  0.22287367044E+03  0.12700000000E+01 0. -1.
         -4   -1    0    0    0  501 -0.00000000000E+00 -0.00000000000E+00 -0.79116348783E+02  0.79126541342E+02  0.12700000000E+01 0. -1.
         25    2    1    2    0    0  0.58183532857E+02 -0.19706259071E+02  0.18234639606E+03  0.22945328846E+03  0.12499977316E+03 0.  0.
    9000005    1    3    3    0    0  0.45479234785E+02  0.50408765722E+02  0.93637018586E+02  0.11566458277E+03  0.10000000000E+01 0.  0.
    9000005    1    3    3    0    0  0.12704298072E+02 -0.70115024794E+02  0.88709377473E+02  0.11378870569E+03  0.10000000000E+01 0.  0.
         21    1    1    2  502  501 -0.58183532857E+02  0.19706259071E+02 -0.38592692846E+02  0.72546923322E+02  0.00000000000E+00 0. -1.
<mgrwt>
<rscale>  1 0.13927887E+03</rscale>
<asrwt>0</asrwt>
<pdfrwt beam="1">  1        4 0.34288763E-01 0.13927887E+03</pdfrwt>
<pdfrwt beam="2">  1       -4 0.12172808E-01 0.13927887E+03</pdfrwt>
<totfact> 0.74171950E+02</totfact>
</mgrwt>
</event>
<event>
 6    4  0.2103460E-003  0.1272825E+03  0.7818608E-02  0.1231545E+00
          4   -1    0    0  502    0  0.00000000000E+00  0.00000000000E+00  0.45797581494E+03  0.45797757583E+03  0.12700000000E+01 0. -1.
         -4   -1    0    0    0  501 -0.00000000000E+00 -0.00000000000E+00 -0.13305196340E+02  0.13365670564E+02  0.12700000000E+01 0. -1.
         25    2    1    2    0    0  0.13447448504E+02 -0.19851064138E+02  0.40912209926E+03  0.42846439560E+03  0.12500379025E+03 0.  0.
    9000005    1    3    3    0    0  0.42029529609E+02  0.14037737761E+02  0.50838125905E+02  0.67446678837E+02  0.10000000000E+01 0.  0.
    9000005    1    3    3    0    0 -0.28582081105E+02 -0.33888801899E+02  0.35828397336E+03  0.36101771676E+03  0.10000000000E+01 0.  0.
         21    1    1    2  502  501 -0.13447448504E+02  0.19851064138E+02  0.35548519337E+02  0.42878850798E+02  0.00000000000E+00 0. -1.
<mgrwt>
<rscale>  1 0.12728254E+03</rscale>
<asrwt>0</asrwt>
<pdfrwt beam="1">  1        4 0.70462609E-01 0.12728254E+03</pdfrwt>
<pdfrwt beam="2">  1       -4 0.20517405E-02 0.12728254E+03</pdfrwt>
<totfact> 0.29716828E+03</totfact>
</mgrwt>
</event>
<event>
 6    4  0.2103460E-003  0.1268061E+03  0.7818608E-02  0.1232273E+00
         -4   -1    0    0    0  501 -0.00000000000E+00  0.00000000000E+00  0.15752424229E+03  0.15752936174E+03  0.12700000000E+01 0. -1.
          4   -1    0    0  502    0  0.00000000000E+00 -0.00000000000E+00 -0.39884530570E+02  0.39904745066E+02  0.12700000000E+01 0. -1.
         25    2    1    2    0    0 -0.68399291474E+01 -0.20190003348E+02  0.69080579408E+02  0.14440194489E+03  0.12500149748E+03 0.  0.
    9000005    1    3    3    0    0  0.41860964119E+02 -0.83605426705E+01  0.82163043768E+02  0.92595921897E+02  0.10000000000E+01 0.  0.
    9000005    1    3    3    0    0 -0.48700893267E+02 -0.11829460678E+02 -0.13082464359E+02  0.51806022996E+02  0.10000000000E+01 0.  0.
         21    1    1    2  502  501  0.68399291474E+01  0.20190003348E+02  0.48559132314E+02  0.53032161912E+02  0.00000000000E+00 0.  1.
<mgrwt>
<rscale>  1 0.12680613E+03</rscale>
<asrwt>0</asrwt>
<pdfrwt beam="2">  1        4 0.61380303E-02 0.12680613E+03</pdfrwt>
<pdfrwt beam="1">  1       -4 0.24236448E-01 0.12680613E+03</pdfrwt>
<totfact> 0.43650009E+03</totfact>
</mgrwt>
</event>
<event>
 6    4  0.2103460E-003  0.1301341E+03  0.7818608E-02  0.1227257E+00
          4   -1    0    0  502    0  0.00000000000E+00  0.00000000000E+00  0.30847350983E+02  0.30873483164E+02  0.12700000000E+01 0. -1.
         -4   -1    0    0    0  501 -0.00000000000E+00 -0.00000000000E+00 -0.24365379913E+03  0.24365710893E+03  0.12700000000E+01 0. -1.
         25    2    1    2    0    0 -0.23974304158E+02  0.27108149488E+02 -0.12896588905E+03  0.18321324227E+03  0.12500109030E+03 0.  0.
    9000005    1    3    3    0    0 -0.74083428033E+02  0.29874021565E+02 -0.81723042917E+02  0.11428240117E+03  0.10000000000E+01 0.  0.
    9000005    1    3    3    0    0  0.50109123876E+02 -0.27658720775E+01 -0.47242846131E+02  0.68930841098E+02  0.10000000000E+01 0.  0.
         21    1    1    2  502  501  0.23974304158E+02 -0.27108149488E+02 -0.83840559098E+02  0.91317349821E+02  0.00000000000E+00 0.  1.
<mgrwt>
<rscale>  1 0.13013413E+03</rscale>
<asrwt>0</asrwt>
<pdfrwt beam="1">  1        4 0.47480112E-02 0.13013413E+03</pdfrwt>
<pdfrwt beam="2">  1       -4 0.37487463E-01 0.13013413E+03</pdfrwt>
<totfact> 0.29151162E+03</totfact>
</mgrwt>
</event>
<event>
 6    4  0.2103460E-003  0.1789693E+03  0.7818608E-02  0.1168804E+00
          4   -1    0    0  502    0  0.00000000000E+00  0.00000000000E+00  0.13548517123E+03  0.13549112341E+03  0.12700000000E+01 0. -1.
         -4   -1    0    0    0  501 -0.00000000000E+00 -0.00000000000E+00 -0.17409861285E+03  0.17410324493E+03  0.12700000000E+01 0. -1.
         25    2    1    2    0    0  0.12113024806E+03 -0.41612026100E+02 -0.26930067947E+02  0.18098410852E+03  0.12500368501E+03 0.  0.
    9000005    1    3    3    0    0  0.13238913798E+03 -0.65988981813E+02 -0.80533054597E+01  0.14814616196E+03  0.10000000000E+01 0.  0.
    9000005    1    3    3    0    0 -0.11258889918E+02  0.24376955713E+02 -0.18876762487E+02  0.32837946556E+02  0.10000000000E+01 0.  0.
         21    1    1    2  502  501 -0.12113024806E+03  0.41612026100E+02 -0.11683373675E+02  0.12861025982E+03  0.00000000000E+00 0. -1.
<mgrwt>
<rscale>  1 0.17896932E+03</rscale>
<asrwt>0</asrwt>
<pdfrwt beam="1">  1        4 0.20844687E-01 0.17896932E+03</pdfrwt>
<pdfrwt beam="2">  1       -4 0.26785216E-01 0.17896932E+03</pdfrwt>
<totfact> 0.48124962E+02</totfact>
</mgrwt>
</event>
<event>
 6    4  0.2103460E-003  0.1276708E+03  0.7818608E-02  0.1230953E+00
          4   -1    0    0  502    0  0.00000000000E+00  0.00000000000E+00  0.21441564700E+03  0.21441940812E+03  0.12700000000E+01 0. -1.
         -4   -1    0    0    0  501 -0.00000000000E+00 -0.00000000000E+00 -0.93160548146E+02  0.93169204305E+02  0.12700000000E+01 0. -1.
         25    2    1    2    0    0  0.11539968692E+02 -0.23278688201E+02  0.19293109036E+03  0.23134875435E+03  0.12499908923E+03 0.  0.
    9000005    1    3    3    0    0 -0.48452061123E+02 -0.32837888635E+02  0.53703670427E+02  0.79441886775E+02  0.10000000000E+01 0.  0.
    9000005    1    3    3    0    0  0.59992029815E+02  0.95592004343E+01  0.13922741993E+03  0.15190686757E+03  0.10000000000E+01 0.  0.
         21    1    1    2  502  501 -0.11539968692E+02  0.23278688201E+02 -0.71675991504E+02  0.76239858079E+02  0.00000000000E+00 0. -1.
<mgrwt>
<rscale>  1 0.12767083E+03</rscale>
<asrwt>0</asrwt>
<pdfrwt beam="1">  1        4 0.32987978E-01 0.12767083E+03</pdfrwt>
<pdfrwt beam="2">  1       -4 0.14333347E-01 0.12767083E+03</pdfrwt>
<totfact> 0.59217827E+02</totfact>
</mgrwt>
</event>
<event>
 6    4  0.2103460E-003  0.1314303E+03  0.7818608E-02  0.1225349E+00
          4   -1    0    0  502    0  0.00000000000E+00  0.00000000000E+00  0.53737916512E+02  0.53752921512E+02  0.12700000000E+01 0.  1.
         -4   -1    0    0    0  501 -0.00000000000E+00 -0.00000000000E+00 -0.16451333138E+03  0.16451823334E+03  0.12700000000E+01 0.  1.
         25    2    1    2    0    0  0.32498566133E+02 -0.24426299022E+02 -0.41285034538E+02  0.13776206317E+03  0.12498452339E+03 0.  0.
    9000005    1    3    3    0    0 -0.61786168250E+01 -0.39855330705E+02  0.33314961245E+02  0.52321213043E+02  0.10000000000E+01 0.  0.
    9000005    1    3    3    0    0  0.38677182958E+02  0.15429031683E+02 -0.74599995783E+02  0.85440850130E+02  0.10000000000E+01 0.  0.
         21    1    1    2  502  501 -0.32498566133E+02  0.24426299022E+02 -0.69490380329E+02  0.80509091678E+02  0.00000000000E+00 0.  1.
<mgrwt>
<rscale>  1 0.13143033E+03</rscale>
<asrwt>0</asrwt>
<pdfrwt beam="1">  1        4 0.82689031E-02 0.13143033E+03</pdfrwt>
<pdfrwt beam="2">  1       -4 0.25311274E-01 0.13143033E+03</pdfrwt>
<totfact> 0.24919971E+03</totfact>
</mgrwt>
</event>
<event>
 6    4  0.2103460E-003  0.1316678E+03  0.7818608E-02  0.1225002E+00
          4   -1    0    0  502    0  0.00000000000E+00  0.00000000000E+00  0.40473290916E+03  0.40473490170E+03  0.12700000000E+01 0. -1.
         -4   -1    0    0    0  501 -0.00000000000E+00 -0.00000000000E+00 -0.19298556215E+02  0.19340299170E+02  0.12700000000E+01 0. -1.
         25    2    1    2    0    0  0.12135554777E+02 -0.39546930692E+02  0.32670618628E+03  0.35224046709E+03  0.12500073236E+03 0.  0.
    9000005    1    3    3    0    0  0.59722945098E+02 -0.10246963797E+02  0.25054505700E+03  0.25777054919E+03  0.10000000000E+01 0.  0.
    9000005    1    3    3    0    0 -0.47587390321E+02 -0.29299966895E+02  0.76161129272E+02  0.94469917908E+02  0.10000000000E+01 0.  0.
         21    1    1    2  502  501 -0.12135554777E+02  0.39546930692E+02  0.58728166671E+02  0.71834733781E+02  0.00000000000E+00 0. -1.
<mgrwt>
<rscale>  1 0.13166782E+03</rscale>
<asrwt>0</asrwt>
<pdfrwt beam="1">  1        4 0.62269969E-01 0.13166782E+03</pdfrwt>
<pdfrwt beam="2">  1       -4 0.29723728E-02 0.13166782E+03</pdfrwt>
<totfact> 0.21938860E+03</totfact>
</mgrwt>
</event>
<event>
 6    4  0.2103460E-003  0.1267155E+03  0.7818608E-02  0.1232412E+00
         -4   -1    0    0    0  501 -0.00000000000E+00  0.00000000000E+00  0.16965204127E+03  0.16965679475E+03  0.12700000000E+01 0. -1.
          4   -1    0    0  502    0  0.00000000000E+00 -0.00000000000E+00 -0.33047577351E+02  0.33071971044E+02  0.12700000000E+01 0. -1.
         25    2    1    2    0    0 -0.40241120785E+01 -0.20384934906E+02  0.10335540133E+03  0.16352112353E+03  0.12500031923E+03 0.  0.
    9000005    1    3    3    0    0  0.46156088498E+02 -0.21456362857E+02  0.26282966821E+01  0.50977131696E+02  0.10000000000E+01 0.  0.
    9000005    1    3    3    0    0 -0.50180200577E+02  0.10714279509E+01  0.10072710464E+03  0.11254399183E+03  0.10000000000E+01 0.  0.
         21    1    1    2  502  501  0.40241120785E+01  0.20384934906E+02  0.33249062593E+02  0.39207642271E+02  0.00000000000E+00 0. -1.
<mgrwt>
<rscale>  1 0.12671550E+03</rscale>
<asrwt>0</asrwt>
<pdfrwt beam="2">  1        4 0.50864848E-02 0.12671550E+03</pdfrwt>
<pdfrwt beam="1">  1       -4 0.26102556E-01 0.12671550E+03</pdfrwt>
<totfact> 0.51563760E+03</totfact>
</mgrwt>
</event>
<event>
 6    4  0.2103460E-003  0.1274646E+03  0.7818608E-02  0.1231267E+00
          4   -1    0    0  502    0  0.00000000000E+00  0.00000000000E+00  0.36410144906E+03  0.36410366395E+03  0.12700000000E+01 0. -1.
         -4   -1    0    0    0  501 -0.00000000000E+00 -0.00000000000E+00 -0.71028877526E+02  0.71040230452E+02  0.12700000000E+01 0. -1.
         25    2    1    2    0    0 -0.36022347415E+01  0.24687253689E+02  0.35027027300E+03  0.37274186204E+03  0.12499917990E+03 0.  0.
    9000005    1    3    3    0    0 -0.27521548846E+02 -0.25046051617E+02  0.30165920631E+02  0.47913704929E+02  0.10000000000E+01 0.  0.
    9000005    1    3    3    0    0  0.23919314104E+02  0.49733305306E+02  0.32010435237E+03  0.32482815711E+03  0.10000000000E+01 0.  0.
         21    1    1    2  502  501  0.36022347415E+01 -0.24687253689E+02 -0.57197701473E+02  0.62402032368E+02  0.00000000000E+00 0. -1.
<mgrwt>
<rscale>  1 0.12746463E+03</rscale>
<asrwt>0</asrwt>
<pdfrwt beam="1">  1        4 0.56016652E-01 0.12746463E+03</pdfrwt>
<pdfrwt beam="2">  1       -4 0.10928563E-01 0.12746463E+03</pdfrwt>
<totfact> 0.32887498E+02</totfact>
</mgrwt>
</event>
<event>
 6    4  0.2103460E-003  0.1419847E+03  0.7818608E-02  0.1210683E+00
          4   -1    0    0  502    0  0.00000000000E+00  0.00000000000E+00  0.46433463713E+02  0.46450828328E+02  0.12700000000E+01 0.  1.
         -4   -1    0    0    0  501 -0.00000000000E+00 -0.00000000000E+00 -0.25537549103E+03  0.25537864891E+03  0.12700000000E+01 0.  1.
         25    2    1    2    0    0  0.44189173077E+02 -0.50851275660E+02 -0.99728891865E+02  0.17350939226E+03  0.12498448734E+03 0.  0.
    9000005    1    3    3    0    0  0.53476828370E+02  0.64168747211E+00 -0.10800564236E+03  0.12052552309E+03  0.10000000000E+01 0.  0.
    9000005    1    3    3    0    0 -0.92876552927E+01 -0.51492963133E+02  0.82767504950E+01  0.52983869166E+02  0.10000000000E+01 0.  0.
         21    1    1    2  502  501 -0.44189173077E+02  0.50851275660E+02 -0.10921313545E+03  0.12832008497E+03  0.00000000000E+00 0.  1.
<mgrwt>
<rscale>  1 0.14198471E+03</rscale>
<asrwt>0</asrwt>
<pdfrwt beam="1">  1        4 0.71451886E-02 0.14198471E+03</pdfrwt>
<pdfrwt beam="2">  1       -4 0.39290115E-01 0.14198471E+03</pdfrwt>
<totfact> 0.13968886E+03</totfact>
</mgrwt>
</event>
<event>
 6    4  0.2103460E-003  0.1266538E+03  0.7818608E-02  0.1232507E+00
          4   -1    0    0  502    0  0.00000000000E+00  0.00000000000E+00  0.58398613646E+02  0.58412421417E+02  0.12700000000E+01 0.  1.
         -4   -1    0    0    0  501 -0.00000000000E+00 -0.00000000000E+00 -0.93739176258E+02  0.93747778990E+02  0.12700000000E+01 0.  1.
         25    2    1    2    0    0 -0.20380328017E+02 -0.40514302799E+00 -0.24251208273E+02  0.12895469049E+03  0.12500267671E+03 0.  0.
    9000005    1    3    3    0    0 -0.35819035555E+02  0.17872243645E+02  0.42287704137E+02  0.58238048749E+02  0.10000000000E+01 0.  0.
    9000005    1    3    3    0    0  0.15438707538E+02 -0.18277386673E+02 -0.66538912410E+02  0.70716641738E+02  0.10000000000E+01 0.  0.
         21    1    1    2  502  501  0.20380328017E+02  0.40514302799E+00 -0.11089354339E+02  0.23205509919E+02  0.00000000000E+00 0. -1.
<mgrwt>
<rscale>  1 0.12665382E+03</rscale>
<asrwt>0</asrwt>
<pdfrwt beam="1">  1        4 0.89861260E-02 0.12665382E+03</pdfrwt>
<pdfrwt beam="2">  1       -4 0.14423136E-01 0.12665382E+03</pdfrwt>
<totfact> 0.58823561E+03</totfact>
</mgrwt>
</event>
<event>
 6    4  0.2103460E-003  0.1271185E+03  0.7818608E-02  0.1231795E+00
         -4   -1    0    0    0  501 -0.00000000000E+00  0.00000000000E+00  0.23058773154E+02  0.23093720345E+02  0.12700000000E+01 0.  1.
          4   -1    0    0  502    0  0.00000000000E+00 -0.00000000000E+00 -0.28739246435E+03  0.28739527042E+03  0.12700000000E+01 0.  1.
         25    2    1    2    0    0 -0.62317299667E+01 -0.22280765767E+02 -0.25613310105E+03  0.28594277599E+03  0.12499535473E+03 0.  0.
    9000005    1    3    3    0    0 -0.83834941388E+01  0.45468414908E+02 -0.46336162279E+02  0.65465255388E+02  0.10000000000E+01 0.  0.
    9000005    1    3    3    0    0  0.21517641721E+01 -0.67749180676E+02 -0.20979693877E+03  0.22047752060E+03  0.10000000000E+01 0.  0.
         21    1    1    2  502  501  0.62317299667E+01  0.22280765767E+02 -0.82005901397E+01  0.24546214784E+02  0.00000000000E+00 0.  1.
<mgrwt>
<rscale>  1 0.12711847E+03</rscale>
<asrwt>0</asrwt>
<pdfrwt beam="2">  1        4 0.44217127E-01 0.12711847E+03</pdfrwt>
<pdfrwt beam="1">  1       -4 0.35504079E-02 0.12711847E+03</pdfrwt>
<totfact> 0.33222919E+03</totfact>
</mgrwt>
</event>
<event>
 6    4  0.2103460E-003  0.1286649E+03  0.7818608E-02  0.1229450E+00
          4   -1    0    0  502    0  0.00000000000E+00  0.00000000000E+00  0.10943213831E+03  0.10943950747E+03  0.12700000000E+01 0. -1.
         -4   -1    0    0    0  501 -0.00000000000E+00 -0.00000000000E+00 -0.84612109504E+02  0.84621640108E+02  0.12700000000E+01 0. -1.
         25    2    1    2    0    0  0.26195942103E+02  0.15626318495E+02  0.64568756878E+02  0.14395754894E+03  0.12499696924E+03 0.  0.
    9000005    1    3    3    0    0  0.46302733366E+02  0.34582917656E+02  0.89621749477E+02  0.10664417138E+03  0.10000000000E+01 0.  0.
    9000005    1    3    3    0    0 -0.20106791263E+02 -0.18956599161E+02 -0.25052992599E+02  0.37313377559E+02  0.10000000000E+01 0.  0.
         21    1    1    2  502  501 -0.26195942103E+02 -0.15626318495E+02 -0.39748728075E+02  0.50103598632E+02  0.00000000000E+00 0. -1.
<mgrwt>
<rscale>  1 0.12866488E+03</rscale>
<asrwt>0</asrwt>
<pdfrwt beam="1">  1        4 0.16837014E-01 0.12866488E+03</pdfrwt>
<pdfrwt beam="2">  1       -4 0.13018548E-01 0.12866488E+03</pdfrwt>
<totfact> 0.24038912E+03</totfact>
</mgrwt>
</event>
<event>
 6    4  0.2103460E-003  0.1298344E+03  0.7818608E-02  0.1227702E+00
          4   -1    0    0  502    0  0.00000000000E+00  0.00000000000E+00  0.71717094241E+02  0.71728338238E+02  0.12700000000E+01 0. -1.
         -4   -1    0    0    0  501 -0.00000000000E+00 -0.00000000000E+00 -0.12652067706E+03  0.12652705096E+03  0.12700000000E+01 0. -1.
         25    2    1    2    0    0  0.30588960866E+02 -0.17254940107E+02  0.38497255182E+01  0.12989145087E+03  0.12499420441E+03 0.  0.
    9000005    1    3    3    0    0  0.36596394610E+02 -0.51232689323E+02 -0.39609752331E+02  0.74390974140E+02  0.10000000000E+01 0.  0.
    9000005    1    3    3    0    0 -0.60074337441E+01  0.33977749216E+02  0.43459477849E+02  0.55500476727E+02  0.10000000000E+01 0.  0.
         21    1    1    2  502  501 -0.30588960866E+02  0.17254940107E+02 -0.58653308336E+02  0.68363938328E+02  0.00000000000E+00 0. -1.
<mgrwt>
<rscale>  1 0.12983439E+03</rscale>
<asrwt>0</asrwt>
<pdfrwt beam="1">  1        4 0.11034754E-01 0.12983439E+03</pdfrwt>
<pdfrwt beam="2">  1       -4 0.19466075E-01 0.12983439E+03</pdfrwt>
<totfact> 0.24688948E+03</totfact>
</mgrwt>
</event>
<event>
 6    4  0.2103460E-003  0.1288153E+03  0.7818608E-02  0.1229224E+00
          4   -1    0    0  502    0  0.00000000000E+00  0.00000000000E+00  0.26041406644E+03  0.26041716322E+03  0.12700000000E+01 0.  1.
         -4   -1    0    0    0  501 -0.00000000000E+00 -0.00000000000E+00 -0.24556891881E+02  0.24589710020E+02  0.12700000000E+01 0.  1.
         25    2    1    2    0    0  0.12306659655E+02 -0.28570297842E+02  0.19342051103E+03  0.23238951677E+03  0.12500271048E+03 0.  0.
    9000005    1    3    3    0    0  0.51620055619E+02  0.12669896165E+02  0.15447686695E+03  0.16336847564E+03  0.10000000000E+01 0.  0.
    9000005    1    3    3    0    0 -0.39313395965E+02 -0.41240194007E+02  0.38943644081E+02  0.69021041128E+02  0.10000000000E+01 0.  0.
         21    1    1    2  502  501 -0.12306659655E+02  0.28570297842E+02  0.42436663529E+02  0.52617356472E+02  0.00000000000E+00 0.  1.
<mgrwt>
<rscale>  1 0.12881535E+03</rscale>
<asrwt>0</asrwt>
<pdfrwt beam="1">  1        4 0.40066464E-01 0.12881535E+03</pdfrwt>
<pdfrwt beam="2">  1       -4 0.37807462E-02 0.12881535E+03</pdfrwt>
<totfact> 0.36687192E+03</totfact>
</mgrwt>
</event>
<event>
 6    4  0.2103460E-003  0.1381196E+03  0.7818608E-02  0.1215882E+00
         -4   -1    0    0    0  501 -0.00000000000E+00  0.00000000000E+00  0.37950807081E+02  0.37972051013E+02  0.12700000000E+01 0.  1.
          4   -1    0    0  502    0  0.00000000000E+00 -0.00000000000E+00 -0.28179797523E+03  0.28180083702E+03  0.12700000000E+01 0.  1.
         25    2    1    2    0    0  0.48105962122E+02  0.33677983332E+02 -0.21185066349E+03  0.25289862943E+03  0.12501449113E+03 0.  0.
    9000005    1    3    3    0    0  0.41802273737E+02  0.73070822182E+02 -0.83851205678E+02  0.11882255610E+03  0.10000000000E+01 0.  0.
    9000005    1    3    3    0    0  0.63036883848E+01 -0.39392838850E+02 -0.12799945781E+03  0.13407607333E+03  0.10000000000E+01 0.  0.
         21    1    1    2  502  501 -0.48105962122E+02 -0.33677983332E+02 -0.31996504658E+02  0.66874258600E+02  0.00000000000E+00 0.  1.
<mgrwt>
<rscale>  1 0.13811956E+03</rscale>
<asrwt>0</asrwt>
<pdfrwt beam="2">  1        4 0.43355388E-01 0.13811956E+03</pdfrwt>
<pdfrwt beam="1">  1       -4 0.58404402E-02 0.13811956E+03</pdfrwt>
<totfact> 0.15889286E+03</totfact>
</mgrwt>
</event>
<event>
 6    4  0.2103460E-003  0.1288520E+03  0.7818608E-02  0.1229169E+00
          4   -1    0    0  502    0  0.00000000000E+00  0.00000000000E+00  0.53151593823E+02  0.53166764298E+02  0.12700000000E+01 0. -1.
         -4   -1    0    0    0  501 -0.00000000000E+00 -0.00000000000E+00 -0.17256987193E+03  0.17257454504E+03  0.12700000000E+01 0. -1.
         25    2    1    2    0    0  0.25486166548E+02  0.18246219149E+02 -0.31846694655E+02  0.13272920569E+03  0.12498144216E+03 0.  0.
    9000005    1    3    3    0    0  0.28810429738E+01 -0.35461524124E+02  0.30869912139E+02  0.47114451894E+02  0.10000000000E+01 0.  0.
    9000005    1    3    3    0    0  0.22605123574E+02  0.53707743273E+02 -0.62716606794E+02  0.85614753793E+02  0.10000000000E+01 0.  0.
         21    1    1    2  502  501 -0.25486166548E+02 -0.18246219149E+02 -0.87571583449E+02  0.93012103655E+02  0.00000000000E+00 0. -1.
<mgrwt>
<rscale>  1 0.12885197E+03</rscale>
<asrwt>0</asrwt>
<pdfrwt beam="1">  1        4 0.81786948E-02 0.12885197E+03</pdfrwt>
<pdfrwt beam="2">  1       -4 0.26550737E-01 0.12885197E+03</pdfrwt>
<totfact> 0.23118032E+03</totfact>
</mgrwt>
</event>
<event>
 6    4  0.2103460E-003  0.1298879E+03  0.7818608E-02  0.1227622E+00
          4   -1    0    0  502    0  0.00000000000E+00  0.00000000000E+00  0.14766415474E+03  0.14766961602E+03  0.12700000000E+01 0.  1.
         -4   -1    0    0    0  501 -0.00000000000E+00 -0.00000000000E+00 -0.46825945983E+02  0.46843165106E+02  0.12700000000E+01 0.  1.
         25    2    1    2    0    0  0.34084519584E+02 -0.84294885775E+01  0.89020489769E+02  0.15746592924E+03  0.12505223116E+03 0.  0.
    9000005    1    3    3    0    0 -0.25058288885E+02  0.21047694741E+02 -0.13561579993E+02  0.35437829331E+02  0.10000000000E+01 0.  0.
    9000005    1    3    3    0    0  0.59142808469E+02 -0.29477183319E+02  0.10258206976E+03  0.12202809991E+03  0.10000000000E+01 0.  0.
         21    1    1    2  502  501 -0.34084519584E+02  0.84294885775E+01  0.11817718993E+02  0.37046851893E+02  0.00000000000E+00 0. -1.
<mgrwt>
<rscale>  1 0.12988792E+03</rscale>
<asrwt>0</asrwt>
<pdfrwt beam="1">  1        4 0.22719306E-01 0.12988792E+03</pdfrwt>
<pdfrwt beam="2">  1       -4 0.72057365E-02 0.12988792E+03</pdfrwt>
<totfact> 0.38029578E+03</totfact>
</mgrwt>
</event>
<event>
 6    4  0.2103460E-003  0.1272151E+03  0.7818608E-02  0.1231647E+00
         -4   -1    0    0    0  501 -0.00000000000E+00  0.00000000000E+00  0.29202506241E+03  0.29202782398E+03  0.12700000000E+01 0.  1.
          4   -1    0    0  502    0  0.00000000000E+00 -0.00000000000E+00 -0.19576138821E+02  0.19617291126E+02  0.12700000000E+01 0.  1.
         25    2    1    2    0    0  0.94637548967E+01  0.21663809014E+02  0.22041465613E+03  0.25449226506E+03  0.12499923624E+03 0.  0.
    9000005    1    3    3    0    0  0.57415790972E+02  0.23578029862E+02  0.18415323800E+03  0.19433453530E+03  0.10000000000E+01 0.  0.
    9000005    1    3    3    0    0 -0.47952036076E+02 -0.19142208477E+01  0.36261418139E+02  0.60157729767E+02  0.10000000000E+01 0.  0.
         21    1    1    2  502  501 -0.94637548967E+01 -0.21663809014E+02  0.52034267458E+02  0.57152850040E+02  0.00000000000E+00 0. -1.
<mgrwt>
<rscale>  1 0.12721514E+03</rscale>
<asrwt>0</asrwt>
<pdfrwt beam="2">  1        4 0.30150916E-02 0.12721514E+03</pdfrwt>
<pdfrwt beam="1">  1       -4 0.44930311E-01 0.12721514E+03</pdfrwt>
<totfact> 0.41602792E+03</totfact>
</mgrwt>
</event>
<event>
 6    4  0.2103460E-003  0.1301740E+03  0.7818608E-02  0.1227198E+00
          4   -1    0    0  502    0  0.00000000000E+00  0.00000000000E+00  0.14181204428E+04  0.14181210115E+04  0.12700000000E+01 0. -1.
         -4   -1    0    0    0  501 -0.00000000000E+00 -0.00000000000E+00 -0.48299598347E+01  0.49941377639E+01  0.12700000000E+01 0. -1.
         25    2    1    2    0    0  0.18879910997E+02 -0.31030163215E+02  0.11454334090E+04  0.11528065586E+04  0.12500378061E+03 0.  0.
    9000005    1    3    3    0    0  0.40024486569E+02 -0.72268129674E+02  0.65570641894E+03  0.66089072465E+03  0.10000000000E+01 0.  0.
    9000005    1    3    3    0    0 -0.21144575573E+02  0.41237966459E+02  0.48972699005E+03  0.49191583400E+03  0.10000000000E+01 0.  0.
         21    1    1    2  502  501 -0.18879910997E+02  0.31030163215E+02  0.26785707403E+03  0.27030859064E+03  0.00000000000E+00 0. -1.
<mgrwt>
<rscale>  1 0.13017399E+03</rscale>
<asrwt>0</asrwt>
<pdfrwt beam="1">  1        4 0.21818530E+00 0.13017399E+03</pdfrwt>
<pdfrwt beam="2">  1       -4 0.75574268E-03 0.13017399E+03</pdfrwt>
<totfact> 0.83569483E+02</totfact>
</mgrwt>
</event>
<event>
 6    4  0.2103460E-003  0.1394611E+03  0.7818608E-02  0.1214056E+00
         -4   -1    0    0    0  501 -0.00000000000E+00  0.00000000000E+00  0.18446540929E+03  0.18446978106E+03  0.12700000000E+01 0.  1.
          4   -1    0    0  502    0  0.00000000000E+00 -0.00000000000E+00 -0.56940139118E+02  0.56954300477E+02  0.12700000000E+01 0.  1.
         25    2    1    2    0    0 -0.31030499179E+02 -0.53492140763E+02  0.66360409049E+02  0.15444453659E+03  0.12500043997E+03 0.  0.
    9000005    1    3    3    0    0  0.32058807762E+02 -0.58290935992E+01  0.67935948030E+02  0.75352760547E+02  0.10000000000E+01 0.  0.
    9000005    1    3    3    0    0 -0.63089306940E+02 -0.47663047164E+02 -0.15755389808E+01  0.79091776047E+02  0.10000000000E+01 0.  0.
         21    1    1    2  502  501  0.31030499179E+02  0.53492140763E+02  0.61164861125E+02  0.86979544946E+02  0.00000000000E+00 0.  1.
<mgrwt>
<rscale>  1 0.13946115E+03</rscale>
<asrwt>0</asrwt>
<pdfrwt beam="2">  1        4 0.87614470E-02 0.13946115E+03</pdfrwt>
<pdfrwt beam="1">  1       -4 0.28380719E-01 0.13946115E+03</pdfrwt>
<totfact> 0.18531792E+03</totfact>
</mgrwt>
</event>
<event>
 6    4  0.2103460E-003  0.1275290E+03  0.7818608E-02  0.1231169E+00
         -4   -1    0    0    0  501 -0.00000000000E+00  0.00000000000E+00  0.99324341789E+02  0.99332460816E+02  0.12700000000E+01 0. -1.
          4   -1    0    0  502    0  0.00000000000E+00 -0.00000000000E+00 -0.59121839812E+02  0.59135478715E+02  0.12700000000E+01 0. -1.
         25    2    1    2    0    0 -0.25216875143E+02 -0.99784926074E+00  0.38317254727E+02  0.13316101059E+03  0.12500702475E+03 0.  0.
    9000005    1    3    3    0    0  0.99750711339E+01  0.46249533700E+02 -0.18966702588E+02  0.50982911046E+02  0.10000000000E+01 0.  0.
    9000005    1    3    3    0    0 -0.35191946277E+02 -0.47247382961E+02  0.57283957315E+02  0.82178099547E+02  0.10000000000E+01 0.  0.
         21    1    1    2  502  501  0.25216875143E+02  0.99784926074E+00  0.18852472490E+01  0.25306928938E+02  0.00000000000E+00 0. -1.
<mgrwt>
<rscale>  1 0.12752899E+03</rscale>
<asrwt>0</asrwt>
<pdfrwt beam="2">  1        4 0.90973414E-02 0.12752899E+03</pdfrwt>
<pdfrwt beam="1">  1       -4 0.15282342E-01 0.12752899E+03</pdfrwt>
<totfact> 0.52193858E+03</totfact>
</mgrwt>
</event>
<event>
 6    4  0.2103460E-003  0.1360076E+03  0.7818608E-02  0.1218804E+00
         -4   -1    0    0    0  501 -0.00000000000E+00  0.00000000000E+00  0.82532530673E+03  0.82532628386E+03  0.12700000000E+01 0. -1.
          4   -1    0    0  502    0  0.00000000000E+00 -0.00000000000E+00 -0.69646135086E+02  0.69657713374E+02  0.12700000000E+01 0. -1.
         25    2    1    2    0    0  0.52333779455E+02  0.11569545102E+02 -0.13952329746E+01  0.13601474030E+03  0.12500153622E+03 0.  0.
    9000005    1    3    3    0    0  0.11129180352E+02 -0.23911112677E+02 -0.54154525318E+02  0.60243776253E+02  0.10000000000E+01 0.  0.
    9000005    1    3    3    0    0  0.41204599103E+02  0.35480657779E+02  0.52759292343E+02  0.75770964044E+02  0.10000000000E+01 0.  0.
         21    1    1    2  502  501 -0.52333779455E+02 -0.11569545102E+02  0.75707440462E+03  0.75896925694E+03  0.00000000000E+00 0.  1.
<mgrwt>
<rscale>  1 0.13600758E+03</rscale>
<asrwt>0</asrwt>
<pdfrwt beam="2">  1        4 0.10715756E-01 0.13600758E+03</pdfrwt>
<pdfrwt beam="1">  1       -4 0.12697409E+00 0.13600758E+03</pdfrwt>
<totfact> 0.55024009E+01</totfact>
</mgrwt>
</event>
<event>
 6    4  0.2103460E-003  0.1274516E+03  0.7818608E-02  0.1231287E+00
         -4   -1    0    0    0  501 -0.00000000000E+00  0.00000000000E+00  0.17896436673E+02  0.17941442126E+02  0.12700000000E+01 0. -1.
          4   -1    0    0  502    0  0.00000000000E+00 -0.00000000000E+00 -0.34972210219E+03  0.34972440816E+03  0.12700000000E+01 0. -1.
         25    2    1    2    0    0 -0.16573846938E+02 -0.18552502519E+02 -0.30752329376E+03  0.33288808404E+03  0.12500005014E+03 0.  0.
    9000005    1    3    3    0    0 -0.69298321523E+02  0.51135878809E+01 -0.17606590791E+03  0.18928446866E+03  0.10000000000E+01 0.  0.
    9000005    1    3    3    0    0  0.52724474585E+02 -0.23666090400E+02 -0.13145738585E+03  0.14360361538E+03  0.10000000000E+01 0.  0.
         21    1    1    2  502  501  0.16573846938E+02  0.18552502519E+02 -0.24302371755E+02  0.34777766245E+02  0.00000000000E+00 0. -1.
<mgrwt>
<rscale>  1 0.12745156E+03</rscale>
<asrwt>0</asrwt>
<pdfrwt beam="2">  1        4 0.53807035E-01 0.12745156E+03</pdfrwt>
<pdfrwt beam="1">  1       -4 0.27569376E-02 0.12745156E+03</pdfrwt>
<totfact> 0.33201247E+03</totfact>
</mgrwt>
</event>
<event>
 6    4  0.2103460E-003  0.1353944E+03  0.7818608E-02  0.1219664E+00
         -4   -1    0    0    0  501 -0.00000000000E+00  0.00000000000E+00  0.37755228243E+02  0.37776582160E+02  0.12700000000E+01 0. -1.
          4   -1    0    0  502    0  0.00000000000E+00 -0.00000000000E+00 -0.23281615622E+03  0.23281962009E+03  0.12700000000E+01 0. -1.
         25    2    1    2    0    0  0.52024183804E+02 -0.89599726939E-02 -0.13638867474E+03  0.19218096724E+03  0.12500055117E+03 0.  0.
    9000005    1    3    3    0    0 -0.10276545323E+02 -0.39602000181E+02 -0.10362339853E+03  0.11141245229E+03  0.10000000000E+01 0.  0.
    9000005    1    3    3    0    0  0.62300729127E+02  0.39593040208E+02 -0.32765276209E+02  0.80768514953E+02  0.10000000000E+01 0.  0.
         21    1    1    2  502  501 -0.52024183804E+02  0.89599726939E-02 -0.58672253243E+02  0.78415235008E+02  0.00000000000E+00 0.  1.
<mgrwt>
<rscale>  1 0.13539444E+03</rscale>
<asrwt>0</asrwt>
<pdfrwt beam="2">  1        4 0.35819778E-01 0.13539444E+03</pdfrwt>
<pdfrwt beam="1">  1       -4 0.58104059E-02 0.13539444E+03</pdfrwt>
<totfact> 0.23210707E+03</totfact>
</mgrwt>
</event>
<event>
 6    4  0.2103460E-003  0.1280160E+03  0.7818608E-02  0.1230430E+00
         -4   -1    0    0    0  501 -0.00000000000E+00  0.00000000000E+00  0.57556195760E+01  0.58940696215E+01  0.12700000000E+01 0.  1.
          4   -1    0    0  502    0  0.00000000000E+00 -0.00000000000E+00 -0.11841231775E+04  0.11841238585E+04  0.12700000000E+01 0.  1.
         25    2    1    2    0    0 -0.26910858835E+02  0.62495668230E+01 -0.10884385892E+04  0.10959409872E+04  0.12499933414E+03 0.  0.
    9000005    1    3    3    0    0 -0.55820664970E+02 -0.42998927144E+02 -0.55608433056E+03  0.56053156652E+03  0.10000000000E+01 0.  0.
    9000005    1    3    3    0    0  0.28909806135E+02  0.49248493967E+02 -0.53235425866E+03  0.53540942069E+03  0.10000000000E+01 0.  0.
         21    1    1    2  502  501  0.26910858835E+02 -0.62495668230E+01 -0.89928968692E+02  0.94076940951E+02  0.00000000000E+00 0.  1.
<mgrwt>
<rscale>  1 0.12801596E+03</rscale>
<asrwt>0</asrwt>
<pdfrwt beam="2">  1        4 0.18218331E+00 0.12801596E+03</pdfrwt>
<pdfrwt beam="1">  1       -4 0.89618327E-03 0.12801596E+03</pdfrwt>
<totfact> 0.10800713E+03</totfact>
</mgrwt>
</event>
<event>
 6    4  0.2103460E-003  0.1354389E+03  0.7818608E-02  0.1219601E+00
         -4   -1    0    0    0  501 -0.00000000000E+00  0.00000000000E+00  0.55114394731E+02  0.55129025083E+02  0.12700000000E+01 0.  1.
          4   -1    0    0  502    0  0.00000000000E+00 -0.00000000000E+00 -0.16069760026E+03  0.16070261861E+03  0.12700000000E+01 0.  1.
         25    2    1    2    0    0 -0.33125759430E+02 -0.40277109697E+02 -0.84133480463E+02  0.15944323878E+03  0.12499656937E+03 0.  0.
    9000005    1    3    3    0    0  0.44941229858E+02  0.47453149276E+01 -0.31183979273E+02  0.54915141065E+02  0.10000000000E+01 0.  0.
    9000005    1    3    3    0    0 -0.78066989287E+02 -0.45022424625E+02 -0.52949501190E+02  0.10452809771E+03  0.10000000000E+01 0.  0.
         21    1    1    2  502  501  0.33125759430E+02  0.40277109697E+02 -0.21449725062E+02  0.56388404913E+02  0.00000000000E+00 0.  1.
<mgrwt>
<rscale>  1 0.13543893E+03</rscale>
<asrwt>0</asrwt>
<pdfrwt beam="2">  1        4 0.24724219E-01 0.13543893E+03</pdfrwt>
<pdfrwt beam="1">  1       -4 0.84806491E-02 0.13543893E+03</pdfrwt>
<totfact> 0.25124277E+03</totfact>
</mgrwt>
</event>
<event>
 6    4  0.2103460E-003  0.1277167E+03  0.7818608E-02  0.1230884E+00
          4   -1    0    0  502    0  0.00000000000E+00  0.00000000000E+00  0.38548077784E+02  0.38568992738E+02  0.12700000000E+01 0.  1.
         -4   -1    0    0    0  501 -0.00000000000E+00 -0.00000000000E+00 -0.19471622067E+03  0.19472036229E+03  0.12700000000E+01 0.  1.
         25    2    1    2    0    0 -0.16267075710E+02 -0.20660190265E+02 -0.75319740159E+02  0.14827214832E+03  0.12498042045E+03 0.  0.
    9000005    1    3    3    0    0 -0.30477549377E+02 -0.10098656666E+01 -0.10533902814E+03  0.10966864499E+03  0.10000000000E+01 0.  0.
    9000005    1    3    3    0    0  0.14210473667E+02 -0.19650324598E+02  0.30019287978E+02  0.38603503330E+02  0.10000000000E+01 0.  0.
         21    1    1    2  502  501  0.16267075710E+02  0.20660190265E+02 -0.80848402726E+02  0.85017206713E+02  0.00000000000E+00 0.  1.
<mgrwt>
<rscale>  1 0.12771674E+03</rscale>
<asrwt>0</asrwt>
<pdfrwt beam="1">  1        4 0.59324010E-02 0.12771674E+03</pdfrwt>
<pdfrwt beam="2">  1       -4 0.29958269E-01 0.12771674E+03</pdfrwt>
<totfact> 0.31148939E+03</totfact>
</mgrwt>
</event>
<event>
 6    4  0.2103460E-003  0.1292274E+03  0.7818608E-02  0.1228607E+00
          4   -1    0    0  502    0  0.00000000000E+00  0.00000000000E+00  0.42736366329E+03  0.42736555032E+03  0.12700000000E+01 0.  1.
         -4   -1    0    0    0  501 -0.00000000000E+00 -0.00000000000E+00 -0.16158290564E+02  0.16208123085E+02  0.12700000000E+01 0.  1.
         25    2    1    2    0    0  0.13644967739E+02 -0.29803509460E+02  0.36267853100E+03  0.38501354457E+03  0.12500111335E+03 0.  0.
    9000005    1    3    3    0    0  0.21458303514E+02 -0.77601061078E+02  0.21430865874E+03  0.22893576541E+03  0.10000000000E+01 0.  0.
    9000005    1    3    3    0    0 -0.78133357748E+01  0.47797551619E+02  0.14836987225E+03  0.15607777916E+03  0.10000000000E+01 0.  0.
         21    1    1    2  502  501 -0.13644967739E+02  0.29803509460E+02  0.48526841728E+02  0.58560128831E+02  0.00000000000E+00 0.  1.
<mgrwt>
<rscale>  1 0.12922737E+03</rscale>
<asrwt>0</asrwt>
<pdfrwt beam="1">  1        4 0.65752236E-01 0.12922737E+03</pdfrwt>
<pdfrwt beam="2">  1       -4 0.24898692E-02 0.12922737E+03</pdfrwt>
<totfact> 0.25647711E+03</totfact>
</mgrwt>
</event>
<event>
 6    4  0.2103460E-003  0.1271571E+03  0.7818608E-02  0.1231736E+00
          4   -1    0    0  502    0  0.00000000000E+00  0.00000000000E+00  0.61863174398E+01  0.63153324113E+01  0.12700000000E+01 0.  1.
         -4   -1    0    0    0  501 -0.00000000000E+00 -0.00000000000E+00 -0.10721254131E+04  0.10721261653E+04  0.12700000000E+01 0.  1.
         25    2    1    2    0    0 -0.53926656717E+01  0.22724787618E+02 -0.67937172131E+03  0.69116920109E+03  0.12499372787E+03 0.  0.
    9000005    1    3    3    0    0  0.40363927901E+02  0.26247974512E+02 -0.57665357015E+03  0.57866099126E+03  0.10000000000E+01 0.  0.
    9000005    1    3    3    0    0 -0.45756593573E+02 -0.35231868941E+01 -0.10271815116E+03  0.11250820983E+03  0.10000000000E+01 0.  0.
         21    1    1    2  502  501  0.53926656717E+01 -0.22724787618E+02 -0.38656737431E+03  0.38727229658E+03  0.00000000000E+00 0.  1.
<mgrwt>
<rscale>  1 0.12715710E+03</rscale>
<asrwt>0</asrwt>
<pdfrwt beam="1">  1        4 0.96172409E-03 0.12715710E+03</pdfrwt>
<pdfrwt beam="2">  1       -4 0.16495221E+00 0.12715710E+03</pdfrwt>
<totfact> 0.12657096E+03</totfact>
</mgrwt>
</event>
<event>
 6    4  0.2103460E-003  0.1276705E+03  0.7818608E-02  0.1230954E+00
          4   -1    0    0  502    0  0.00000000000E+00  0.00000000000E+00  0.10874593785E+03  0.10875335351E+03  0.12700000000E+01 0. -1.
         -4   -1    0    0    0  501 -0.00000000000E+00 -0.00000000000E+00 -0.62942738754E+02  0.62955549889E+02  0.12700000000E+01 0. -1.
         25    2    1    2    0    0 -0.11385670584E+02 -0.23313189788E+02  0.61155715445E+02  0.14156196208E+03  0.12500651688E+03 0.  0.
    9000005    1    3    3    0    0 -0.38555903239E+02  0.12008040190E+01  0.88051556372E+02  0.96135717527E+02  0.10000000000E+01 0.  0.
    9000005    1    3    3    0    0  0.27170232655E+02 -0.24513993807E+02 -0.26895840927E+02  0.45426244552E+02  0.10000000000E+01 0.  0.
         21    1    1    2  502  501  0.11385670584E+02  0.23313189788E+02 -0.15352516346E+02  0.30146941319E+02  0.00000000000E+00 0. -1.
<mgrwt>
<rscale>  1 0.12767054E+03</rscale>
<asrwt>0</asrwt>
<pdfrwt beam="1">  1        4 0.16731700E-01 0.12767054E+03</pdfrwt>
<pdfrwt beam="2">  1       -4 0.96850544E-02 0.12767054E+03</pdfrwt>
<totfact> 0.40102181E+03</totfact>
</mgrwt>
</event>
<event>
 6    4  0.2103460E-003  0.1382817E+03  0.7818608E-02  0.1215660E+00
          4   -1    0    0  502    0  0.00000000000E+00  0.00000000000E+00  0.21665585649E+03  0.21665957872E+03  0.12700000000E+01 0.  1.
         -4   -1    0    0    0  501 -0.00000000000E+00 -0.00000000000E+00 -0.45352968221E+02  0.45370746373E+02  0.12700000000E+01 0.  1.
         25    2    1    2    0    0  0.57131063678E+02  0.14991696316E+02  0.10806814344E+03  0.17550089455E+03  0.12503251964E+03 0.  0.
    9000005    1    3    3    0    0  0.46905020213E+02  0.56150643008E+02  0.11103359515E+03  0.13297531682E+03  0.10000000000E+01 0.  0.
    9000005    1    3    3    0    0  0.10226043466E+02 -0.41158946692E+02 -0.29654517127E+01  0.42525577734E+02  0.10000000000E+01 0.  0.
         21    1    1    2  502  501 -0.57131063678E+02 -0.14991696316E+02  0.63234744832E+02  0.86529430539E+02  0.00000000000E+00 0. -1.
<mgrwt>
<rscale>  1 0.13828174E+03</rscale>
<asrwt>0</asrwt>
<pdfrwt beam="1">  1        4 0.33333325E-01 0.13828174E+03</pdfrwt>
<pdfrwt beam="2">  1       -4 0.69790334E-02 0.13828174E+03</pdfrwt>
<totfact> 0.19863366E+03</totfact>
</mgrwt>
</event>
<event>
 6    4  0.2103460E-003  0.1268620E+03  0.7818608E-02  0.1232188E+00
          4   -1    0    0  502    0  0.00000000000E+00  0.00000000000E+00  0.17626980810E+02  0.17672672477E+02  0.12700000000E+01 0. -1.
         -4   -1    0    0    0  501 -0.00000000000E+00 -0.00000000000E+00 -0.48009805309E+03  0.48009973284E+03  0.12700000000E+01 0. -1.
         25    2    1    2    0    0 -0.94727961404E+01  0.19439705807E+02 -0.21708704403E+03  0.25143735433E+03  0.12500528964E+03 0.  0.
    9000005    1    3    3    0    0  0.47194615563E+02 -0.20662163183E+02 -0.56414359802E+02  0.76405737464E+02  0.10000000000E+01 0.  0.
    9000005    1    3    3    0    0 -0.56667411703E+02  0.40101868990E+02 -0.16067268423E+03  0.17503161687E+03  0.10000000000E+01 0.  0.
         21    1    1    2  502  501  0.94727961404E+01 -0.19439705807E+02 -0.24538402825E+03  0.24633505099E+03  0.00000000000E+00 0. -1.
<mgrwt>
<rscale>  1 0.12686197E+03</rscale>
<asrwt>0</asrwt>
<pdfrwt beam="1">  1        4 0.27154875E-02 0.12686197E+03</pdfrwt>
<pdfrwt beam="2">  1       -4 0.73864873E-01 0.12686197E+03</pdfrwt>
<totfact> 0.17370589E+03</totfact>
</mgrwt>
</event>
<event>
 6    4  0.2103460E-003  0.1300123E+03  0.7818608E-02  0.1227438E+00
          4   -1    0    0  502    0  0.00000000000E+00  0.00000000000E+00  0.11824836665E+04  0.11824843485E+04  0.12700000000E+01 0. -1.
         -4   -1    0    0    0  501 -0.00000000000E+00 -0.00000000000E+00 -0.57499123144E+01  0.58884965503E+01  0.12700000000E+01 0. -1.
         25    2    1    2    0    0  0.25447292559E+02 -0.25110970934E+02  0.90143698115E+03  0.91076441793E+03  0.12500027373E+03 0.  0.
    9000005    1    3    3    0    0 -0.21843125857E+02 -0.60420782758E+02  0.61240245353E+03  0.61576420668E+03  0.10000000000E+01 0.  0.
    9000005    1    3    3    0    0  0.47290418417E+02  0.35309811824E+02  0.28903452762E+03  0.29500021126E+03  0.10000000000E+01 0.  0.
         21    1    1    2  502  501 -0.25447292559E+02  0.25110970934E+02  0.27529677306E+03  0.27760842714E+03  0.00000000000E+00 0. -1.
<mgrwt>
<rscale>  1 0.13001228E+03</rscale>
<asrwt>0</asrwt>
<pdfrwt beam="1">  1        4 0.18193110E+00 0.13001228E+03</pdfrwt>
<pdfrwt beam="2">  1       -4 0.89531554E-03 0.13001228E+03</pdfrwt>
<totfact> 0.10891366E+03</totfact>
</mgrwt>
</event>
<event>
 6    4  0.2103460E-003  0.1593030E+03  0.7818608E-02  0.1189486E+00
         -4   -1    0    0    0  501 -0.00000000000E+00  0.00000000000E+00  0.79064963743E+03  0.79065065741E+03  0.12700000000E+01 0. -1.
          4   -1    0    0  502    0  0.00000000000E+00 -0.00000000000E+00 -0.10602871368E+03  0.10603631936E+03  0.12700000000E+01 0. -1.
         25    2    1    2    0    0 -0.57716246580E+02 -0.80132673258E+02 -0.40905065584E+02  0.16447090782E+03  0.12500017874E+03 0.  0.
    9000005    1    3    3    0    0  0.23215869860E+02  0.16132765403E+02  0.82027084618E+01  0.29453813997E+02  0.10000000000E+01 0.  0.
    9000005    1    3    3    0    0 -0.80932116440E+02 -0.96265438661E+02 -0.49107774046E+02  0.13501709382E+03  0.10000000000E+01 0.  0.
         21    1    1    2  502  501  0.57716246580E+02  0.80132673258E+02  0.72552598933E+03  0.73221606896E+03  0.00000000000E+00 0. -1.
<mgrwt>
<rscale>  1 0.15930303E+03</rscale>
<asrwt>0</asrwt>
<pdfrwt beam="2">  1        4 0.16312773E-01 0.15930303E+03</pdfrwt>
<pdfrwt beam="1">  1       -4 0.12163907E+00 0.15930303E+03</pdfrwt>
<totfact> 0.30160931E+01</totfact>
</mgrwt>
</event>
<event>
 6    4  0.2103460E-003  0.1410774E+03  0.7818608E-02  0.1211887E+00
         -4   -1    0    0    0  501 -0.00000000000E+00  0.00000000000E+00  0.24613393783E+02  0.24646136685E+02  0.12700000000E+01 0.  1.
          4   -1    0    0  502    0  0.00000000000E+00 -0.00000000000E+00 -0.69874025335E+03  0.69874140750E+03  0.12700000000E+01 0.  1.
         25    2    1    2    0    0  0.30520140713E+02  0.57850721466E+02 -0.62724195453E+03  0.64291158949E+03  0.12499862965E+03 0.  0.
    9000005    1    3    3    0    0 -0.28515649120E+02  0.47203512231E+01 -0.35163789193E+02  0.45529287616E+02  0.10000000000E+01 0.  0.
    9000005    1    3    3    0    0  0.59035789833E+02  0.53130370243E+02 -0.59207816534E+03  0.59738230188E+03  0.10000000000E+01 0.  0.
         21    1    1    2  502  501 -0.30520140713E+02 -0.57850721466E+02 -0.46884905036E+02  0.80475954691E+02  0.00000000000E+00 0.  1.
<mgrwt>
<rscale>  1 0.14107743E+03</rscale>
<asrwt>0</asrwt>
<pdfrwt beam="2">  1        4 0.10750109E+00 0.14107743E+03</pdfrwt>
<pdfrwt beam="1">  1       -4 0.37892840E-02 0.14107743E+03</pdfrwt>
<totfact> 0.45074601E+02</totfact>
</mgrwt>
</event>
<event>
 6    4  0.2103460E-003  0.1291589E+03  0.7818608E-02  0.1228709E+00
          4   -1    0    0  502    0  0.00000000000E+00  0.00000000000E+00  0.35512417377E+02  0.35535119079E+02  0.12700000000E+01 0. -1.
         -4   -1    0    0    0  501 -0.00000000000E+00 -0.00000000000E+00 -0.18404154820E+03  0.18404593003E+03  0.12700000000E+01 0. -1.
         25    2    1    2    0    0 -0.17493162066E+02  0.27428178441E+02 -0.12043609392E+03  0.17659809419E+03  0.12499487374E+03 0.  0.
    9000005    1    3    3    0    0 -0.69103921360E+02 -0.16157409239E+01 -0.74580723207E+02  0.10169192121E+03  0.10000000000E+01 0.  0.
    9000005    1    3    3    0    0  0.51610759294E+02  0.29043919365E+02 -0.45855370713E+02  0.74906172978E+02  0.10000000000E+01 0.  0.
         21    1    1    2  502  501  0.17493162066E+02 -0.27428178441E+02 -0.28093036898E+02  0.42982954922E+02  0.00000000000E+00 0. -1.
<mgrwt>
<rscale>  1 0.12915895E+03</rscale>
<asrwt>0</asrwt>
<pdfrwt beam="1">  1        4 0.54655323E-02 0.12915895E+03</pdfrwt>
<pdfrwt beam="2">  1       -4 0.28316167E-01 0.12915895E+03</pdfrwt>
<totfact> 0.39652447E+03</totfact>
</mgrwt>
</event>
<event>
 6    4  0.2103460E-003  0.1338675E+03  0.7818608E-02  0.1221827E+00
         -4   -1    0    0    0  501 -0.00000000000E+00  0.00000000000E+00  0.38759567799E+03  0.38759775864E+03  0.12700000000E+01 0.  1.
          4   -1    0    0  502    0  0.00000000000E+00 -0.00000000000E+00 -0.25848757978E+02  0.25879937964E+02  0.12700000000E+01 0.  1.
         25    2    1    2    0    0  0.47607495193E+02  0.56161510948E+01  0.17303917044E+03  0.21877631113E+03  0.12499001982E+03 0.  0.
    9000005    1    3    3    0    0 -0.18362446914E+02  0.49195643010E+02  0.49964042093E+02  0.72489973446E+02  0.10000000000E+01 0.  0.
    9000005    1    3    3    0    0  0.65969942107E+02 -0.43579491915E+02  0.12307512834E+03  0.14628633769E+03  0.10000000000E+01 0.  0.
         21    1    1    2  502  501 -0.47607495193E+02 -0.56161510948E+01  0.18870774958E+03  0.19470138547E+03  0.00000000000E+00 0.  1.
<mgrwt>
<rscale>  1 0.13386755E+03</rscale>
<asrwt>0</asrwt>
<pdfrwt beam="2">  1        4 0.39792907E-02 0.13386755E+03</pdfrwt>
<pdfrwt beam="1">  1       -4 0.59632660E-01 0.13386755E+03</pdfrwt>
<totfact> 0.15230196E+03</totfact>
</mgrwt>
</event>
<event>
 6    4  0.2103460E-003  0.1280938E+03  0.7818608E-02  0.1230312E+00
          4   -1    0    0  502    0  0.00000000000E+00  0.00000000000E+00  0.19127777421E+02  0.19169892255E+02  0.12700000000E+01 0. -1.
         -4   -1    0    0    0  501 -0.00000000000E+00 -0.00000000000E+00 -0.67112947251E+03  0.67113067414E+03  0.12700000000E+01 0. -1.
         25    2    1    2    0    0 -0.12515615244E+02  0.25159256304E+02 -0.20049776778E+03  0.23792304134E+03  0.12497355685E+03 0.  0.
    9000005    1    3    3    0    0  0.53705003786E+02  0.13661345234E+02 -0.57224094502E+02  0.79664651991E+02  0.10000000000E+01 0.  0.
    9000005    1    3    3    0    0 -0.66220619030E+02  0.11497911069E+02 -0.14327367328E+03  0.15825838934E+03  0.10000000000E+01 0.  0.
         21    1    1    2  502  501  0.12515615244E+02 -0.25159256304E+02 -0.45150392731E+03  0.45237752506E+03  0.00000000000E+00 0. -1.
<mgrwt>
<rscale>  1 0.12809379E+03</rscale>
<asrwt>0</asrwt>
<pdfrwt beam="1">  1        4 0.29460675E-02 0.12809379E+03</pdfrwt>
<pdfrwt beam="2">  1       -4 0.10325400E+00 0.12809379E+03</pdfrwt>
<totfact> 0.72239195E+02</totfact>
</mgrwt>
</event>
<event>
 6    4  0.2103460E-003  0.1267495E+03  0.7818608E-02  0.1232360E+00
         -4   -1    0    0    0  501 -0.00000000000E+00  0.00000000000E+00  0.28221604230E+03  0.28221889985E+03  0.12700000000E+01 0. -1.
          4   -1    0    0  502    0  0.00000000000E+00 -0.00000000000E+00 -0.21707964299E+02  0.21745082524E+02  0.12700000000E+01 0. -1.
         25    2    1    2    0    0 -0.12962807103E+02 -0.16517794816E+02  0.17602451462E+03  0.21691029551E+03  0.12499829855E+03 0.  0.
    9000005    1    3    3    0    0  0.68608171846E+01 -0.30211063320E+02  0.18761302384E+03  0.19015631958E+03  0.10000000000E+01 0.  0.
    9000005    1    3    3    0    0 -0.19823624288E+02  0.13693268504E+02 -0.11588509228E+02  0.26753975935E+02  0.10000000000E+01 0.  0.
         21    1    1    2  502  501  0.12962807103E+02  0.16517794816E+02  0.84483563384E+02  0.87053686858E+02  0.00000000000E+00 0. -1.
<mgrwt>
<rscale>  1 0.12674954E+03</rscale>
<asrwt>0</asrwt>
<pdfrwt beam="2">  1        4 0.33427621E-02 0.12674954E+03</pdfrwt>
<pdfrwt beam="1">  1       -4 0.43420925E-01 0.12674954E+03</pdfrwt>
<totfact> 0.37849242E+03</totfact>
</mgrwt>
</event>
<event>
 6    4  0.2103460E-003  0.1276679E+03  0.7818608E-02  0.1230958E+00
          4   -1    0    0  502    0  0.00000000000E+00  0.00000000000E+00  0.13037606851E+02  0.13099316486E+02  0.12700000000E+01 0. -1.
         -4   -1    0    0    0  501 -0.00000000000E+00 -0.00000000000E+00 -0.13991120170E+04  0.13991125934E+04  0.12700000000E+01 0. -1.
         25    2    1    2    0    0 -0.19366951031E+01 -0.25893730282E+02 -0.30263778341E+03  0.32846417161E+03  0.12499939212E+03 0.  0.
    9000005    1    3    3    0    0  0.14232243164E+02 -0.64807223539E+01 -0.30277419239E+03  0.30317943216E+03  0.10000000000E+01 0.  0.
    9000005    1    3    3    0    0 -0.16168938267E+02 -0.19413007928E+02  0.13640898442E+00  0.25284739447E+02  0.10000000000E+01 0.  0.
         21    1    1    2  502  501  0.19366951031E+01  0.25893730282E+02 -0.10834366268E+04  0.10837477383E+04  0.00000000000E+00 0. -1.
<mgrwt>
<rscale>  1 0.12766787E+03</rscale>
<asrwt>0</asrwt>
<pdfrwt beam="1">  1        4 0.20105780E-02 0.12766787E+03</pdfrwt>
<pdfrwt beam="2">  1       -4 0.21525268E+00 0.12766787E+03</pdfrwt>
<totfact> 0.19708864E+02</totfact>
</mgrwt>
</event>
<event>
 6    4  0.2103460E-003  0.1286434E+03  0.7818608E-02  0.1229483E+00
         -4   -1    0    0    0  501 -0.00000000000E+00  0.00000000000E+00  0.81210263825E+02  0.81220193613E+02  0.12700000000E+01 0.  1.
          4   -1    0    0  502    0  0.00000000000E+00 -0.00000000000E+00 -0.10538594609E+03  0.10539359816E+03  0.12700000000E+01 0.  1.
         25    2    1    2    0    0  0.78793976823E+01 -0.29360759518E+02 -0.58019206959E+02  0.14112177851E+03  0.12499995555E+03 0.  0.
    9000005    1    3    3    0    0 -0.30025220840E+02 -0.11738625096E+02 -0.85301435110E+02  0.91195636066E+02  0.10000000000E+01 0.  0.
    9000005    1    3    3    0    0  0.37904618523E+02 -0.17622134422E+02  0.27282228151E+02  0.49926142449E+02  0.10000000000E+01 0.  0.
         21    1    1    2  502  501 -0.78793976823E+01  0.29360759518E+02  0.33843524691E+02  0.45492013264E+02  0.00000000000E+00 0.  1.
<mgrwt>
<rscale>  1 0.12864341E+03</rscale>
<asrwt>0</asrwt>
<pdfrwt beam="2">  1        4 0.16214575E-01 0.12864341E+03</pdfrwt>
<pdfrwt beam="1">  1       -4 0.12495239E-01 0.12864341E+03</pdfrwt>
<totfact> 0.27561776E+03</totfact>
</mgrwt>
</event>
<event>
 6    4  0.2103460E-003  0.1267853E+03  0.7818608E-02  0.1232305E+00
         -4   -1    0    0    0  501 -0.00000000000E+00  0.00000000000E+00  0.14958266295E+02  0.15012082818E+02  0.12700000000E+01 0.  1.
          4   -1    0    0  502    0  0.00000000000E+00 -0.00000000000E+00 -0.37455518334E+03  0.37455733642E+03  0.12700000000E+01 0.  1.
         25    2    1    2    0    0  0.97697785744E+01 -0.18795704847E+02 -0.32673713931E+03  0.35047348483E+03  0.12500311306E+03 0.  0.
    9000005    1    3    3    0    0  0.31949679391E+02 -0.61926463780E+02 -0.12631396985E+03  0.14426325904E+03  0.10000000000E+01 0.  0.
    9000005    1    3    3    0    0 -0.22179900817E+02  0.43130758933E+02 -0.20042316946E+03  0.20621022580E+03  0.10000000000E+01 0.  0.
         21    1    1    2  502  501 -0.97697785744E+01  0.18795704847E+02 -0.32859777738E+02  0.39095934406E+02  0.00000000000E+00 0. -1.
<mgrwt>
<rscale>  1 0.12678527E+03</rscale>
<asrwt>0</asrwt>
<pdfrwt beam="2">  1        4 0.57628172E-01 0.12678527E+03</pdfrwt>
<pdfrwt beam="1">  1       -4 0.23055774E-02 0.12678527E+03</pdfrwt>
<totfact> 0.37971437E+03</totfact>
</mgrwt>
</event>
<event>
 6    4  0.2103460E-003  0.1277565E+03  0.7818608E-02  0.1230823E+00
          4   -1    0    0  502    0  0.00000000000E+00  0.00000000000E+00  0.50194316431E+03  0.50194477096E+03  0.12700000000E+01 0.  1.
         -4   -1    0    0    0  501 -0.00000000000E+00 -0.00000000000E+00 -0.12953441896E+02  0.13015550582E+02  0.12700000000E+01 0.  1.
         25    2    1    2    0    0 -0.24426619619E+02 -0.99897908729E+01  0.45069799503E+03  0.46845535349E+03  0.12500111929E+03 0.  0.
    9000005    1    3    3    0    0  0.71743837058E+01 -0.50084287590E+02  0.36655408067E+03  0.37003081183E+03  0.10000000000E+01 0.  0.
    9000005    1    3    3    0    0 -0.31601003325E+02  0.40094496717E+02  0.84143914362E+02  0.98424541666E+02  0.10000000000E+01 0.  0.
         21    1    1    2  502  501  0.24426619619E+02  0.99897908729E+01  0.38291727380E+02  0.46504968051E+02  0.00000000000E+00 0.  1.
<mgrwt>
<rscale>  1 0.12775655E+03</rscale>
<asrwt>0</asrwt>
<pdfrwt beam="1">  1        4 0.77226930E-01 0.12775655E+03</pdfrwt>
<pdfrwt beam="2">  1       -4 0.19977383E-02 0.12775655E+03</pdfrwt>
<totfact> 0.25387609E+03</totfact>
</mgrwt>
</event>
<event>
 6    4  0.2103460E-003  0.1291769E+03  0.7818608E-02  0.1228682E+00
         -4   -1    0    0    0  501 -0.00000000000E+00  0.00000000000E+00  0.20190489724E+02  0.20230392367E+02  0.12700000000E+01 0.  1.
          4   -1    0    0  502    0  0.00000000000E+00 -0.00000000000E+00 -0.45016148064E+03  0.45016327210E+03  0.12700000000E+01 0.  1.
         25    2    1    2    0    0 -0.12207434050E+02  0.30212016715E+02 -0.41480234673E+03  0.43445099948E+03  0.12499958680E+03 0.  0.
    9000005    1    3    3    0    0 -0.39032521002E+01  0.67680135541E+02 -0.12577537208E+03  0.14288554982E+03  0.10000000000E+01 0.  0.
    9000005    1    3    3    0    0 -0.83041819500E+01 -0.37468118826E+02 -0.28902697465E+03  0.29156544967E+03  0.10000000000E+01 0.  0.
         21    1    1    2  502  501  0.12207434050E+02 -0.30212016715E+02 -0.15168644188E+02  0.35942664990E+02  0.00000000000E+00 0. -1.
<mgrwt>
<rscale>  1 0.12917695E+03</rscale>
<asrwt>0</asrwt>
<pdfrwt beam="2">  1        4 0.69258812E-01 0.12917695E+03</pdfrwt>
<pdfrwt beam="1">  1       -4 0.31094368E-02 0.12917695E+03</pdfrwt>
<totfact> 0.16224744E+03</totfact>
</mgrwt>
</event>
<event>
 6    4  0.2103460E-003  0.1327159E+03  0.7818608E-02  0.1223481E+00
          4   -1    0    0  502    0  0.00000000000E+00  0.00000000000E+00  0.60882640268E+02  0.60895884803E+02  0.12700000000E+01 0. -1.
         -4   -1    0    0    0  501 -0.00000000000E+00 -0.00000000000E+00 -0.13561950001E+03  0.13562544630E+03  0.12700000000E+01 0. -1.
         25    2    1    2    0    0 -0.18341198910E+02  0.40654981871E+02 -0.73919331474E+02  0.15191308656E+03  0.12499716466E+03 0.  0.
    9000005    1    3    3    0    0 -0.14666329264E+02 -0.21340416944E+02  0.24415990502E+02  0.35604145849E+02  0.10000000000E+01 0.  0.
    9000005    1    3    3    0    0 -0.36748696457E+01  0.61995398815E+02 -0.98335321976E+02  0.11630894071E+03  0.10000000000E+01 0.  0.
         21    1    1    2  502  501  0.18341198910E+02 -0.40654981871E+02 -0.81752826813E+00  0.44608244539E+02  0.00000000000E+00 0. -1.
<mgrwt>
<rscale>  1 0.13271593E+03</rscale>
<asrwt>0</asrwt>
<pdfrwt beam="1">  1        4 0.93680363E-02 0.13271593E+03</pdfrwt>
<pdfrwt beam="2">  1       -4 0.20866015E-01 0.13271593E+03</pdfrwt>
<totfact> 0.28866736E+03</totfact>
</mgrwt>
</event>
<event>
 6    4  0.2103460E-003  0.1273533E+03  0.7818608E-02  0.1231437E+00
         -4   -1    0    0    0  501 -0.00000000000E+00  0.00000000000E+00  0.86610033874E+01  0.87536209466E+01  0.12700000000E+01 0.  1.
          4   -1    0    0  502    0  0.00000000000E+00 -0.00000000000E+00 -0.78828474112E+03  0.78828576416E+03  0.12700000000E+01 0.  1.
         25    2    1    2    0    0 -0.24352000502E+02  0.65119768848E+00 -0.73719500932E+03  0.74811453476E+03  0.12500172546E+03 0.  0.
    9000005    1    3    3    0    0 -0.54473157733E+02  0.45662550361E+01 -0.14226826155E+03  0.15241205281E+03  0.10000000000E+01 0.  0.
    9000005    1    3    3    0    0  0.30121157231E+02 -0.39150573476E+01 -0.59492674777E+03  0.59570248195E+03  0.10000000000E+01 0.  0.
         21    1    1    2  502  501  0.24352000502E+02 -0.65119768848E+00 -0.42428728413E+02  0.48924850349E+02  0.00000000000E+00 0.  1.
<mgrwt>
<rscale>  1 0.12735335E+03</rscale>
<asrwt>0</asrwt>
<pdfrwt beam="2">  1        4 0.12128172E+00 0.12735335E+03</pdfrwt>
<pdfrwt beam="1">  1       -4 0.13396658E-02 0.12735335E+03</pdfrwt>
<totfact> 0.16588262E+03</totfact>
</mgrwt>
</event>
<event>
 6    4  0.2103460E-003  0.1289681E+03  0.7818608E-02  0.1228995E+00
          4   -1    0    0  502    0  0.00000000000E+00  0.00000000000E+00  0.59827561165E+01  0.61160666077E+01  0.12700000000E+01 0.  1.
         -4   -1    0    0    0  501 -0.00000000000E+00 -0.00000000000E+00 -0.19654613010E+04  0.19654617114E+04  0.12700000000E+01 0.  1.
         25    2    1    2    0    0 -0.30020842263E+02  0.10322994272E+02 -0.70510047223E+03  0.71679805050E+03  0.12499981634E+03 0.  0.
    9000005    1    3    3    0    0 -0.67317963661E+02  0.17417774712E+02 -0.23258878191E+03  0.24276249418E+03  0.10000000000E+01 0.  0.
    9000005    1    3    3    0    0  0.37297121398E+02 -0.70947804393E+01 -0.47251169032E+03  0.47403555632E+03  0.10000000000E+01 0.  0.
         21    1    1    2  502  501  0.30020842263E+02 -0.10322994272E+02 -0.12543780727E+04  0.12547797275E+04  0.00000000000E+00 0.  1.
<mgrwt>
<rscale>  1 0.12896809E+03</rscale>
<asrwt>0</asrwt>
<pdfrwt beam="1">  1        4 0.93071180E-03 0.12896809E+03</pdfrwt>
<pdfrwt beam="2">  1       -4 0.30238844E+00 0.12896809E+03</pdfrwt>
<totfact> 0.19918249E+02</totfact>
</mgrwt>
</event>
<event>
 6    4  0.2103460E-003  0.1272432E+03  0.7818608E-02  0.1231605E+00
          4   -1    0    0  502    0  0.00000000000E+00  0.00000000000E+00  0.96484598090E+02  0.96492956056E+02  0.12700000000E+01 0. -1.
         -4   -1    0    0    0  501 -0.00000000000E+00 -0.00000000000E+00 -0.92368236520E+02  0.92376966922E+02  0.12700000000E+01 0. -1.
         25    2    1    2    0    0  0.23432679060E+02 -0.41781466184E+01  0.50370798191E+02  0.13685050099E+03  0.12499717978E+03 0.  0.
    9000005    1    3    3    0    0 -0.72647134206E+01 -0.61020145876E+02  0.33841800910E+02  0.70160542705E+02  0.10000000000E+01 0.  0.
    9000005    1    3    3    0    0  0.30697392481E+02  0.56841999258E+02  0.16528997280E+02  0.66689958283E+02  0.10000000000E+01 0.  0.
         21    1    1    2  502  501 -0.23432679060E+02  0.41781466184E+01 -0.46254436621E+02  0.52019421990E+02  0.00000000000E+00 0. -1.
<mgrwt>
<rscale>  1 0.12724324E+03</rscale>
<asrwt>0</asrwt>
<pdfrwt beam="1">  1        4 0.14845099E-01 0.12724324E+03</pdfrwt>
<pdfrwt beam="2">  1       -4 0.14211812E-01 0.12724324E+03</pdfrwt>
<totfact> 0.25692491E+03</totfact>
</mgrwt>
</event>
<event>
 6    4  0.2103460E-003  0.1322661E+03  0.7818608E-02  0.1224131E+00
         -4   -1    0    0    0  501 -0.00000000000E+00  0.00000000000E+00  0.36631169803E+03  0.36631389956E+03  0.12700000000E+01 0. -1.
          4   -1    0    0  502    0  0.00000000000E+00 -0.00000000000E+00 -0.24336566060E+02  0.24369680909E+02  0.12700000000E+01 0. -1.
         25    2    1    2    0    0  0.34013640207E+02  0.26689456404E+02  0.30960276581E+03  0.33667224005E+03  0.12500027928E+03 0.  0.
    9000005    1    3    3    0    0  0.70607715904E+01  0.53593002544E+02  0.28768603707E+03  0.29272225803E+03  0.10000000000E+01 0.  0.
    9000005    1    3    3    0    0  0.26952868616E+02 -0.26903546140E+02  0.21916728740E+02  0.43949982027E+02  0.10000000000E+01 0.  0.
         21    1    1    2  502  501 -0.34013640207E+02 -0.26689456404E+02  0.32372366154E+02  0.54011340417E+02  0.00000000000E+00 0.  1.
<mgrwt>
<rscale>  1 0.13226611E+03</rscale>
<asrwt>0</asrwt>
<pdfrwt beam="2">  1        4 0.37468036E-02 0.13226611E+03</pdfrwt>
<pdfrwt beam="1">  1       -4 0.56358365E-01 0.13226611E+03</pdfrwt>
<totfact> 0.18800493E+03</totfact>
</mgrwt>
</event>
<event>
 6    4  0.2103460E-003  0.1751956E+03  0.7818608E-02  0.1172535E+00
         -4   -1    0    0    0  501 -0.00000000000E+00  0.00000000000E+00  0.40530339739E+03  0.40530538713E+03  0.12700000000E+01 0. -1.
          4   -1    0    0  502    0  0.00000000000E+00 -0.00000000000E+00 -0.75585860470E+02  0.75596529041E+02  0.12700000000E+01 0. -1.
         25    2    1    2    0    0 -0.69812841671E+02 -0.10097760555E+03  0.61069676938E+02  0.18553437842E+03  0.12499276158E+03 0.  0.
    9000005    1    3    3    0    0  0.35239851502E+02 -0.11646905248E+02  0.16281997184E+02  0.40541348868E+02  0.10000000000E+01 0.  0.
    9000005    1    3    3    0    0 -0.10505269317E+03 -0.89330700306E+02  0.44787679754E+02  0.14499302955E+03  0.10000000000E+01 0.  0.
         21    1    1    2  502  501  0.69812841671E+02  0.10097760555E+03  0.26864785998E+03  0.29536753775E+03  0.00000000000E+00 0. -1.
<mgrwt>
<rscale>  1 0.17519561E+03</rscale>
<asrwt>0</asrwt>
<pdfrwt beam="2">  1        4 0.11629568E-01 0.17519561E+03</pdfrwt>
<pdfrwt beam="1">  1       -4 0.62355341E-01 0.17519561E+03</pdfrwt>
<totfact> 0.24978019E+02</totfact>
</mgrwt>
</event>
<event>
 6    4  0.2103460E-003  0.1266349E+03  0.7818608E-02  0.1232536E+00
          4   -1    0    0  502    0  0.00000000000E+00  0.00000000000E+00  0.87575055886E+02  0.87584264075E+02  0.12700000000E+01 0. -1.
         -4   -1    0    0    0  501 -0.00000000000E+00 -0.00000000000E+00 -0.67967416527E+02  0.67979280735E+02  0.12700000000E+01 0. -1.
         25    2    1    2    0    0  0.18032622531E+02 -0.92678244174E+01  0.33493624687E+02  0.13098939918E+03  0.12500132703E+03 0.  0.
    9000005    1    3    3    0    0 -0.27712315058E+02 -0.29888821544E+02  0.61294382609E+02  0.73615999610E+02  0.10000000000E+01 0.  0.
    9000005    1    3    3    0    0  0.45744937589E+02  0.20620997126E+02 -0.27800757923E+02  0.57373399573E+02  0.10000000000E+01 0.  0.
         21    1    1    2  502  501 -0.18032622531E+02  0.92678244174E+01 -0.13885985327E+02  0.24574145627E+02  0.00000000000E+00 0.  1.
<mgrwt>
<rscale>  1 0.12663491E+03</rscale>
<asrwt>0</asrwt>
<pdfrwt beam="1">  1        4 0.13474707E-01 0.12663491E+03</pdfrwt>
<pdfrwt beam="2">  1       -4 0.10458147E-01 0.12663491E+03</pdfrwt>
<totfact> 0.51298360E+03</totfact>
</mgrwt>
</event>
<event>
 6    4  0.2103460E-003  0.1371551E+03  0.7818608E-02  0.1217209E+00
          4   -1    0    0  502    0  0.00000000000E+00  0.00000000000E+00  0.27722959234E+03  0.27723250129E+03  0.12700000000E+01 0. -1.
         -4   -1    0    0    0  501 -0.00000000000E+00 -0.00000000000E+00 -0.36185758451E+02  0.36208037984E+02  0.12700000000E+01 0. -1.
         25    2    1    2    0    0 -0.44190706389E+02  0.35175494746E+02  0.20426529862E+03  0.24604028246E+03  0.12498549680E+03 0.  0.
    9000005    1    3    3    0    0 -0.35805552669E+02  0.63527814836E+02  0.48719783092E+02  0.87706545504E+02  0.10000000000E+01 0.  0.
    9000005    1    3    3    0    0 -0.83851537201E+01 -0.28352320089E+02  0.15554551552E+03  0.15833373695E+03  0.10000000000E+01 0.  0.
         21    1    1    2  502  501  0.44190706389E+02 -0.35175494746E+02  0.36778535273E+02  0.67400256815E+02  0.00000000000E+00 0.  1.
<mgrwt>
<rscale>  1 0.13715505E+03</rscale>
<asrwt>0</asrwt>
<pdfrwt beam="1">  1        4 0.42652645E-01 0.13715505E+03</pdfrwt>
<pdfrwt beam="2">  1       -4 0.55689773E-02 0.13715505E+03</pdfrwt>
<totfact> 0.17703780E+03</totfact>
</mgrwt>
</event>
<event>
 6    4  0.2103460E-003  0.1277169E+03  0.7818608E-02  0.1230883E+00
          4   -1    0    0  502    0  0.00000000000E+00  0.00000000000E+00  0.16468367103E+02  0.16517264151E+02  0.12700000000E+01 0.  1.
         -4   -1    0    0    0  501 -0.00000000000E+00 -0.00000000000E+00 -0.35925939293E+03  0.35926163768E+03  0.12700000000E+01 0.  1.
         25    2    1    2    0    0 -0.10091720218E+02 -0.24171748878E+02 -0.28799935802E+03  0.31504799436E+03  0.12500196907E+03 0.  0.
    9000005    1    3    3    0    0  0.65793687036E+01  0.48713480713E+02 -0.78728268650E+02  0.92819349169E+02  0.10000000000E+01 0.  0.
    9000005    1    3    3    0    0 -0.16671088921E+02 -0.72885229591E+02 -0.20927108937E+03  0.22222864519E+03  0.10000000000E+01 0.  0.
         21    1    1    2  502  501  0.10091720218E+02  0.24171748878E+02 -0.54791667806E+02  0.60730907467E+02  0.00000000000E+00 0.  1.
<mgrwt>
<rscale>  1 0.12771691E+03</rscale>
<asrwt>0</asrwt>
<pdfrwt beam="1">  1        4 0.25375292E-02 0.12771691E+03</pdfrwt>
<pdfrwt beam="2">  1       -4 0.55274604E-01 0.12771691E+03</pdfrwt>
<totfact> 0.35751242E+03</totfact>
</mgrwt>
</event>
<event>
 6    4  0.2103460E-003  0.1269371E+03  0.7818608E-02  0.1232073E+00
          4   -1    0    0  502    0  0.00000000000E+00  0.00000000000E+00  0.19555514981E+03  0.19555927367E+03  0.12700000000E+01 0.  1.
         -4   -1    0    0    0  501 -0.00000000000E+00 -0.00000000000E+00 -0.47107721805E+02  0.47124837969E+02  0.12700000000E+01 0.  1.
         25    2    1    2    0    0 -0.25750928658E+01  0.21937510798E+02  0.16977323136E+03  0.21198109269E+03  0.12500059235E+03 0.  0.
    9000005    1    3    3    0    0 -0.69665142261E+01  0.70670262424E+02  0.13296700736E+03  0.15074496130E+03  0.10000000000E+01 0.  0.
    9000005    1    3    3    0    0  0.43914213603E+01 -0.48732751626E+02  0.36806224004E+02  0.61236131393E+02  0.10000000000E+01 0.  0.
         21    1    1    2  502  501  0.25750928658E+01 -0.21937510798E+02 -0.21325803358E+02  0.30703018942E+02  0.00000000000E+00 0.  1.
<mgrwt>
<rscale>  1 0.12693712E+03</rscale>
<asrwt>0</asrwt>
<pdfrwt beam="1">  1        4 0.30087042E-01 0.12693712E+03</pdfrwt>
<pdfrwt beam="2">  1       -4 0.72489756E-02 0.12693712E+03</pdfrwt>
<totfact> 0.22243242E+03</totfact>
</mgrwt>
</event>
<event>
 6    4  0.2103460E-003  0.1274740E+03  0.7818608E-02  0.1231253E+00
         -4   -1    0    0    0  501 -0.00000000000E+00  0.00000000000E+00  0.17704963971E+04  0.17704968526E+04  0.12700000000E+01 0.  1.
          4   -1    0    0  502    0  0.00000000000E+00 -0.00000000000E+00 -0.50118185792E+01  0.51702248955E+01  0.12700000000E+01 0.  1.
         25    2    1    2    0    0 -0.10531232648E+02 -0.22674307507E+02  0.81975175570E+03  0.82960386436E+03  0.12499839879E+03 0.  0.
    9000005    1    3    3    0    0  0.25123224749E+02 -0.37211987859E+02  0.73656211387E+03  0.73792998045E+03  0.10000000000E+01 0.  0.
    9000005    1    3    3    0    0 -0.35654457397E+02  0.14537680352E+02  0.83189641834E+02  0.91673883908E+02  0.10000000000E+01 0.  0.
         21    1    1    2  502  501  0.10531232648E+02  0.22674307507E+02  0.94573282283E+03  0.94606321314E+03  0.00000000000E+00 0.  1.
<mgrwt>
<rscale>  1 0.12747404E+03</rscale>
<asrwt>0</asrwt>
<pdfrwt beam="2">  1        4 0.78326907E-03 0.12747404E+03</pdfrwt>
<pdfrwt beam="1">  1       -4 0.27239631E+00 0.12747404E+03</pdfrwt>
<totfact> 0.38271816E+02</totfact>
</mgrwt>
</event>
<event>
 6    4  0.2103460E-003  0.1285932E+03  0.7818608E-02  0.1229558E+00
          4   -1    0    0  502    0  0.00000000000E+00  0.00000000000E+00  0.22393590493E+03  0.22393950615E+03  0.12700000000E+01 0. -1.
         -4   -1    0    0    0  501 -0.00000000000E+00 -0.00000000000E+00 -0.30499084268E+02  0.30525514593E+02  0.12700000000E+01 0. -1.
         25    2    1    2    0    0 -0.16135359670E+02 -0.25515133673E+02  0.18049669896E+03  0.22161964622E+03  0.12499934951E+03 0.  0.
    9000005    1    3    3    0    0 -0.98361008238E+01  0.23351461698E+02 -0.81550850880E+01  0.26637286942E+02  0.10000000000E+01 0.  0.
    9000005    1    3    3    0    0 -0.62992588465E+01 -0.48866595370E+02  0.18865178405E+03  0.19498235928E+03  0.10000000000E+01 0.  0.
         21    1    1    2  502  501  0.16135359670E+02  0.25515133673E+02  0.12940121698E+02  0.32845374523E+02  0.00000000000E+00 0. -1.
<mgrwt>
<rscale>  1 0.12859319E+03</rscale>
<asrwt>0</asrwt>
<pdfrwt beam="1">  1        4 0.34453988E-01 0.12859319E+03</pdfrwt>
<pdfrwt beam="2">  1       -4 0.46944769E-02 0.12859319E+03</pdfrwt>
<totfact> 0.34850602E+03</totfact>
</mgrwt>
</event>
<event>
 6    4  0.2103460E-003  0.1404658E+03  0.7818608E-02  0.1212704E+00
         -4   -1    0    0    0  501 -0.00000000000E+00  0.00000000000E+00  0.42143557924E+03  0.42143749281E+03  0.12700000000E+01 0. -1.
          4   -1    0    0  502    0  0.00000000000E+00 -0.00000000000E+00 -0.26470808498E+02  0.26501256622E+02  0.12700000000E+01 0. -1.
         25    2    1    2    0    0  0.63611357742E+02  0.76472035706E+01  0.21413751254E+03  0.25609667411E+03  0.12500299059E+03 0.  0.
    9000005    1    3    3    0    0 -0.94806394388E+01 -0.47040224876E+02  0.90084915790E+02  0.10207329393E+03  0.10000000000E+01 0.  0.
    9000005    1    3    3    0    0  0.73091997181E+02  0.54687428447E+02  0.12405259675E+03  0.15402338018E+03  0.10000000000E+01 0.  0.
         21    1    1    2  502  501 -0.63611357742E+02 -0.76472035706E+01  0.18082725820E+03  0.19184207532E+03  0.00000000000E+00 0. -1.
<mgrwt>
<rscale>  1 0.14046577E+03</rscale>
<asrwt>0</asrwt>
<pdfrwt beam="2">  1        4 0.40749216E-02 0.14046577E+03</pdfrwt>
<pdfrwt beam="1">  1       -4 0.64838730E-01 0.14046577E+03</pdfrwt>
<totfact> 0.12414371E+03</totfact>
</mgrwt>
</event>
<event>
 6    4  0.2103460E-003  0.1280071E+03  0.7818608E-02  0.1230443E+00
          4   -1    0    0  502    0  0.00000000000E+00  0.00000000000E+00  0.27931574868E+02  0.27960432303E+02  0.12700000000E+01 0.  1.
         -4   -1    0    0    0  501 -0.00000000000E+00 -0.00000000000E+00 -0.22694928522E+03  0.22695283863E+03  0.12700000000E+01 0.  1.
         25    2    1    2    0    0  0.26233439432E+02 -0.84224989061E+01 -0.13951786394E+03  0.18934373871E+03  0.12500674061E+03 0.  0.
    9000005    1    3    3    0    0  0.73234120436E+02  0.16039835250E+02 -0.83926600809E+02  0.11253971314E+03  0.10000000000E+01 0.  0.
    9000005    1    3    3    0    0 -0.47000681005E+02 -0.24462334156E+02 -0.55591263126E+02  0.76804025567E+02  0.10000000000E+01 0.  0.
         21    1    1    2  502  501 -0.26233439432E+02  0.84224989061E+01 -0.59499846414E+02  0.65569532220E+02  0.00000000000E+00 0.  1.
<mgrwt>
<rscale>  1 0.12800710E+03</rscale>
<asrwt>0</asrwt>
<pdfrwt beam="1">  1        4 0.42996587E-02 0.12800710E+03</pdfrwt>
<pdfrwt beam="2">  1       -4 0.34917767E-01 0.12800710E+03</pdfrwt>
<totfact> 0.39034678E+03</totfact>
</mgrwt>
</event>
<event>
 6    4  0.2103460E-003  0.1312413E+03  0.7818608E-02  0.1225625E+00
         -4   -1    0    0    0  501 -0.00000000000E+00  0.00000000000E+00  0.23759008008E+03  0.23759347435E+03  0.12700000000E+01 0.  1.
          4   -1    0    0  502    0  0.00000000000E+00 -0.00000000000E+00 -0.54450643541E+02  0.54465452187E+02  0.12700000000E+01 0.  1.
         25    2    1    2    0    0  0.86536818215E+01 -0.39172981695E+02  0.31181533747E+02  0.13489464012E+03  0.12495946215E+03 0.  0.
    9000005    1    3    3    0    0  0.50392993486E+02 -0.60208601017E+02  0.38705000464E+02  0.87542026992E+02  0.10000000000E+01 0.  0.
    9000005    1    3    3    0    0 -0.41739311664E+02  0.21035619322E+02 -0.75234667163E+01  0.47352613126E+02  0.10000000000E+01 0.  0.
         21    1    1    2  502  501 -0.86536818215E+01  0.39172981695E+02  0.15195790279E+03  0.15716428642E+03  0.00000000000E+00 0.  1.
<mgrwt>
<rscale>  1 0.13124129E+03</rscale>
<asrwt>0</asrwt>
<pdfrwt beam="2">  1        4 0.83784222E-02 0.13124129E+03</pdfrwt>
<pdfrwt beam="1">  1       -4 0.36553721E-01 0.13124129E+03</pdfrwt>
<totfact> 0.12156469E+03</totfact>
</mgrwt>
</event>
<event>
 6    4  0.2103460E-003  0.1320916E+03  0.7818608E-02  0.1224385E+00
          4   -1    0    0  502    0  0.00000000000E+00  0.00000000000E+00  0.53935169320E+03  0.53935318842E+03  0.12700000000E+01 0. -1.
         -4   -1    0    0    0  501 -0.00000000000E+00 -0.00000000000E+00 -0.18601121606E+02  0.18644426110E+02  0.12700000000E+01 0. -1.
         25    2    1    2    0    0  0.26673398720E+02  0.33370542950E+02  0.48381786637E+03  0.50152560331E+03  0.12499255826E+03 0.  0.
    9000005    1    3    3    0    0  0.71949963343E+02  0.40353235197E+02  0.36429963266E+03  0.37352430064E+03  0.10000000000E+01 0.  0.
    9000005    1    3    3    0    0 -0.45276564622E+02 -0.69826922472E+01  0.11951823371E+03  0.12800130267E+03  0.10000000000E+01 0.  0.
         21    1    1    2  502  501 -0.26673398720E+02 -0.33370542950E+02  0.36932705229E+02  0.56472011224E+02  0.00000000000E+00 0.  1.
<mgrwt>
<rscale>  1 0.13209165E+03</rscale>
<asrwt>0</asrwt>
<pdfrwt beam="1">  1        4 0.82980637E-01 0.13209165E+03</pdfrwt>
<pdfrwt beam="2">  1       -4 0.28651569E-02 0.13209165E+03</pdfrwt>
<totfact> 0.12480513E+03</totfact>
</mgrwt>
</event>
<event>
 6    4  0.2103460E-003  0.1270896E+03  0.7818608E-02  0.1231839E+00
          4   -1    0    0  502    0  0.00000000000E+00  0.00000000000E+00  0.81324630078E+02  0.81334545904E+02  0.12700000000E+01 0. -1.
         -4   -1    0    0    0  501 -0.00000000000E+00 -0.00000000000E+00 -0.75046578942E+02  0.75057324166E+02  0.12700000000E+01 0. -1.
         25    2    1    2    0    0  0.16909657113E+02 -0.15493624394E+02  0.21458594475E+02  0.12888845580E+03  0.12500309540E+03 0.  0.
    9000005    1    3    3    0    0  0.46836114953E+01  0.53524063558E+02  0.23748738756E+02  0.58751716476E+02  0.10000000000E+01 0.  0.
    9000005    1    3    3    0    0  0.12226045617E+02 -0.69017687953E+02 -0.22901442802E+01  0.70136739321E+02  0.10000000000E+01 0.  0.
         21    1    1    2  502  501 -0.16909657113E+02  0.15493624394E+02 -0.15180543339E+02  0.27503414272E+02  0.00000000000E+00 0.  1.
<mgrwt>
<rscale>  1 0.12708959E+03</rscale>
<asrwt>0</asrwt>
<pdfrwt beam="1">  1        4 0.12513071E-01 0.12708959E+03</pdfrwt>
<pdfrwt beam="2">  1       -4 0.11547217E-01 0.12708959E+03</pdfrwt>
<totfact> 0.49302442E+03</totfact>
</mgrwt>
</event>
<event>
 6    4  0.2103460E-003  0.1514716E+03  0.7818608E-02  0.1198676E+00
         -4   -1    0    0    0  501 -0.00000000000E+00  0.00000000000E+00  0.41673537173E+03  0.41673730688E+03  0.12700000000E+01 0. -1.
          4   -1    0    0  502    0  0.00000000000E+00 -0.00000000000E+00 -0.48403283781E+02  0.48419941974E+02  0.12700000000E+01 0. -1.
         25    2    1    2    0    0 -0.71256276816E+02 -0.47339583171E+02  0.95112202268E+02  0.17885740769E+03  0.12500059258E+03 0.  0.
    9000005    1    3    3    0    0 -0.43527548079E+02  0.13846688103E+02  0.10156163078E+03  0.11136490946E+03  0.10000000000E+01 0.  0.
    9000005    1    3    3    0    0 -0.27728728737E+02 -0.61186271275E+02 -0.64494285073E+01  0.67492498235E+02  0.10000000000E+01 0.  0.
         21    1    1    2  502  501  0.71256276816E+02  0.47339583171E+02  0.27321988568E+03  0.28629984116E+03  0.00000000000E+00 0. -1.
<mgrwt>
<rscale>  1 0.15147159E+03</rscale>
<asrwt>0</asrwt>
<pdfrwt beam="2">  1        4 0.74480897E-02 0.15147159E+03</pdfrwt>
<pdfrwt beam="1">  1       -4 0.64114561E-01 0.15147159E+03</pdfrwt>
<totfact> 0.48581851E+02</totfact>
</mgrwt>
</event>
<event>
 6    4  0.2103460E-003  0.1472293E+03  0.7818608E-02  0.1203919E+00
          4   -1    0    0  502    0  0.00000000000E+00  0.00000000000E+00  0.76678357477E+02  0.76688874065E+02  0.12700000000E+01 0. -1.
         -4   -1    0    0    0  501 -0.00000000000E+00 -0.00000000000E+00 -0.16982567818E+03  0.16983042681E+03  0.12700000000E+01 0. -1.
         25    2    1    2    0    0  0.67422308841E+02 -0.38799437038E+02 -0.40872946555E+02  0.15279750919E+03  0.12500126803E+03 0.  0.
    9000005    1    3    3    0    0  0.59112616636E+02 -0.98619783305E+01  0.36217573266E+02  0.70030512460E+02  0.10000000000E+01 0.  0.
    9000005    1    3    3    0    0  0.83096922056E+01 -0.28937458707E+02 -0.77090519822E+02  0.82766996728E+02  0.10000000000E+01 0.  0.
         21    1    1    2  502  501 -0.67422308841E+02  0.38799437038E+02 -0.52274374149E+02  0.93721791685E+02  0.00000000000E+00 0.  1.
<mgrwt>
<rscale>  1 0.14722935E+03</rscale>
<asrwt>0</asrwt>
<pdfrwt beam="1">  1        4 0.11797845E-01 0.14722935E+03</pdfrwt>
<pdfrwt beam="2">  1       -4 0.26128202E-01 0.14722935E+03</pdfrwt>
<totfact> 0.13235250E+03</totfact>
</mgrwt>
</event>
<event>
 6    4  0.2103460E-003  0.1281204E+03  0.7818608E-02  0.1230272E+00
          4   -1    0    0  502    0  0.00000000000E+00  0.00000000000E+00  0.93500537771E+01  0.94359104296E+01  0.12700000000E+01 0.  1.
         -4   -1    0    0    0  501 -0.00000000000E+00 -0.00000000000E+00 -0.65130535855E+03  0.65130659676E+03  0.12700000000E+01 0.  1.
         25    2    1    2    0    0  0.22478169951E+02  0.16874662027E+02 -0.51261025745E+03  0.52837875229E+03  0.12499922994E+03 0.  0.
    9000005    1    3    3    0    0 -0.36791905992E+01  0.41023581600E+02 -0.51765691570E+02  0.66160090043E+02  0.10000000000E+01 0.  0.
    9000005    1    3    3    0    0  0.26157360551E+02 -0.24148919573E+02 -0.46084456588E+03  0.46221866225E+03  0.10000000000E+01 0.  0.
         21    1    1    2  502  501 -0.22478169951E+02 -0.16874662027E+02 -0.12934504732E+03  0.13236375489E+03  0.00000000000E+00 0.  1.
<mgrwt>
<rscale>  1 0.12812037E+03</rscale>
<asrwt>0</asrwt>
<pdfrwt beam="1">  1        4 0.14451699E-02 0.12812037E+03</pdfrwt>
<pdfrwt beam="2">  1       -4 0.10020749E+00 0.12812037E+03</pdfrwt>
<totfact> 0.23209902E+03</totfact>
</mgrwt>
</event>
<event>
 6    4  0.2103460E-003  0.1282926E+03  0.7818608E-02  0.1230011E+00
          4   -1    0    0  502    0  0.00000000000E+00  0.00000000000E+00  0.76168239683E+02  0.76178826694E+02  0.12700000000E+01 0. -1.
         -4   -1    0    0    0  501 -0.00000000000E+00 -0.00000000000E+00 -0.88207034367E+02  0.88216176589E+02  0.12700000000E+01 0. -1.
         25    2    1    2    0    0  0.15493595951E+02 -0.24256341494E+02  0.92041111428E+01  0.12862235079E+03  0.12502228539E+03 0.  0.
    9000005    1    3    3    0    0  0.32236742142E+02 -0.32980260459E+01 -0.52289753549E+02  0.61524814879E+02  0.10000000000E+01 0.  0.
    9000005    1    3    3    0    0 -0.16743146191E+02 -0.20958315449E+02  0.61493864692E+02  0.67097535913E+02  0.10000000000E+01 0.  0.
         21    1    1    2  502  501 -0.15493595951E+02  0.24256341494E+02 -0.21242905827E+02  0.35772652490E+02  0.00000000000E+00 0. -1.
<mgrwt>
<rscale>  1 0.12829261E+03</rscale>
<asrwt>0</asrwt>
<pdfrwt beam="1">  1        4 0.11719708E-01 0.12829261E+03</pdfrwt>
<pdfrwt beam="2">  1       -4 0.13571831E-01 0.12829261E+03</pdfrwt>
<totfact> 0.41900112E+03</totfact>
</mgrwt>
</event>
<event>
 6    4  0.2103460E-003  0.1302164E+03  0.7818608E-02  0.1227135E+00
          4   -1    0    0  502    0  0.00000000000E+00  0.00000000000E+00  0.14897629700E+02  0.14951664478E+02  0.12700000000E+01 0.  1.
         -4   -1    0    0    0  501 -0.00000000000E+00 -0.00000000000E+00 -0.68467141311E+03  0.68467259097E+03  0.12700000000E+01 0.  1.
         25    2    1    2    0    0 -0.27738566808E+02 -0.23711283903E+02 -0.28752264932E+03  0.31563521578E+03  0.12499864998E+03 0.  0.
    9000005    1    3    3    0    0  0.30157409649E+02  0.29374284821E+02 -0.16342814008E+03  0.16876633235E+03  0.10000000000E+01 0.  0.
    9000005    1    3    3    0    0 -0.57895976457E+02 -0.53085568724E+02 -0.12409450924E+03  0.14686888343E+03  0.10000000000E+01 0.  0.
         21    1    1    2  502  501  0.27738566808E+02  0.23711283903E+02 -0.38225113409E+03  0.38398903967E+03  0.00000000000E+00 0.  1.
<mgrwt>
<rscale>  1 0.13021642E+03</rscale>
<asrwt>0</asrwt>
<pdfrwt beam="1">  1        4 0.22961907E-02 0.13021642E+03</pdfrwt>
<pdfrwt beam="2">  1       -4 0.10533829E+00 0.13021642E+03</pdfrwt>
<totfact> 0.10194054E+03</totfact>
</mgrwt>
</event>
<event>
 6    4  0.2103460E-003  0.1318232E+03  0.7818608E-02  0.1224775E+00
         -4   -1    0    0    0  501 -0.00000000000E+00  0.00000000000E+00  0.28477234670E+03  0.28477517859E+03  0.12700000000E+01 0.  1.
          4   -1    0    0  502    0  0.00000000000E+00 -0.00000000000E+00 -0.34856481261E+02  0.34879609888E+02  0.12700000000E+01 0.  1.
         25    2    1    2    0    0 -0.29535273771E+02 -0.29670213591E+02  0.10416635046E+03  0.16801186881E+03  0.12499882208E+03 0.  0.
    9000005    1    3    3    0    0 -0.47475650194E+02 -0.41479756947E+02  0.12377659606E+03  0.13891059473E+03  0.10000000000E+01 0.  0.
    9000005    1    3    3    0    0  0.17940376423E+02  0.11809543355E+02 -0.19610245597E+02  0.29101274076E+02  0.10000000000E+01 0.  0.
         21    1    1    2  502  501  0.29535273771E+02  0.29670213591E+02  0.14574951498E+03  0.15164291967E+03  0.00000000000E+00 0.  1.
<mgrwt>
<rscale>  1 0.13182321E+03</rscale>
<asrwt>0</asrwt>
<pdfrwt beam="2">  1        4 0.53645328E-02 0.13182321E+03</pdfrwt>
<pdfrwt beam="1">  1       -4 0.43813125E-01 0.13182321E+03</pdfrwt>
<totfact> 0.17673507E+03</totfact>
</mgrwt>
</event>
<event>
 6    4  0.2103460E-003  0.1335378E+03  0.7818608E-02  0.1222299E+00
         -4   -1    0    0    0  501 -0.00000000000E+00  0.00000000000E+00  0.14519301080E+03  0.14519856502E+03  0.12700000000E+01 0.  1.
          4   -1    0    0  502    0  0.00000000000E+00 -0.00000000000E+00 -0.82676999741E+02  0.82686753390E+02  0.12700000000E+01 0.  1.
         25    2    1    2    0    0 -0.11001985534E+02  0.45701772265E+02 -0.17905796818E+02  0.13473295475E+03  0.12499062310E+03 0.  0.
    9000005    1    3    3    0    0 -0.15744099174E+02  0.51859967325E+01  0.51560515959E+02  0.54168792002E+02  0.10000000000E+01 0.  0.
    9000005    1    3    3    0    0  0.47421136397E+01  0.40515775532E+02 -0.69466312777E+02  0.80564162750E+02  0.10000000000E+01 0.  0.
         21    1    1    2  502  501  0.11001985534E+02 -0.45701772265E+02  0.80421807876E+02  0.93152363663E+02  0.00000000000E+00 0.  1.
<mgrwt>
<rscale>  1 0.13353783E+03</rscale>
<asrwt>0</asrwt>
<pdfrwt beam="2">  1        4 0.12720716E-01 0.13353783E+03</pdfrwt>
<pdfrwt beam="1">  1       -4 0.22338564E-01 0.13353783E+03</pdfrwt>
<totfact> 0.15201102E+03</totfact>
</mgrwt>
</event>
<event>
 6    4  0.2103460E-003  0.1293393E+03  0.7818608E-02  0.1228439E+00
         -4   -1    0    0    0  501 -0.00000000000E+00  0.00000000000E+00  0.51052067027E+02  0.51067861202E+02  0.12700000000E+01 0. -1.
          4   -1    0    0  502    0  0.00000000000E+00 -0.00000000000E+00 -0.17611303567E+03  0.17611761478E+03  0.12700000000E+01 0. -1.
         25    2    1    2    0    0  0.33039266232E+02 -0.37312913351E+01 -0.14011651230E+03  0.19068636581E+03  0.12499254954E+03 0.  0.
    9000005    1    3    3    0    0  0.78629503298E+02 -0.19624575421E+02 -0.87653290730E+02  0.11938099566E+03  0.10000000000E+01 0.  0.
    9000005    1    3    3    0    0 -0.45590237066E+02  0.15893284086E+02 -0.52463221571E+02  0.71305370151E+02  0.10000000000E+01 0.  0.
         21    1    1    2  502  501 -0.33039266232E+02  0.37312913351E+01  0.15055543654E+02  0.36499110166E+02  0.00000000000E+00 0. -1.
<mgrwt>
<rscale>  1 0.12933929E+03</rscale>
<asrwt>0</asrwt>
<pdfrwt beam="2">  1        4 0.27095880E-01 0.12933929E+03</pdfrwt>
<pdfrwt beam="1">  1       -4 0.78557314E-02 0.12933929E+03</pdfrwt>
<totfact> 0.23816444E+03</totfact>
</mgrwt>
</event>
<event>
 6    4  0.2103460E-003  0.1327069E+03  0.7818608E-02  0.1223494E+00
         -4   -1    0    0    0  501 -0.00000000000E+00  0.00000000000E+00  0.27909202702E+03  0.27909491655E+03  0.12700000000E+01 0. -1.
          4   -1    0    0  502    0  0.00000000000E+00 -0.00000000000E+00 -0.28477600429E+02  0.28505905111E+02  0.12700000000E+01 0. -1.
         25    2    1    2    0    0 -0.42200908420E+02  0.14327343246E+02  0.17215156495E+03  0.21736440943E+03  0.12499974294E+03 0.  0.
    9000005    1    3    3    0    0 -0.54719931831E+02  0.18351199477E+02  0.14973740970E+02  0.59634305399E+02  0.10000000000E+01 0.  0.
    9000005    1    3    3    0    0  0.12519023411E+02 -0.40238562305E+01  0.15717782399E+03  0.15773010403E+03  0.10000000000E+01 0.  0.
         21    1    1    2  502  501  0.42200908420E+02 -0.14327343246E+02  0.78462861632E+02  0.90236412227E+02  0.00000000000E+00 0. -1.
<mgrwt>
<rscale>  1 0.13270691E+03</rscale>
<asrwt>0</asrwt>
<pdfrwt beam="2">  1        4 0.43835690E-02 0.13270691E+03</pdfrwt>
<pdfrwt beam="1">  1       -4 0.42939633E-01 0.13270691E+03</pdfrwt>
<totfact> 0.25473947E+03</totfact>
</mgrwt>
</event>
<event>
 6    4  0.2103460E-003  0.1452774E+03  0.7818608E-02  0.1206399E+00
          4   -1    0    0  502    0  0.00000000000E+00  0.00000000000E+00  0.72428800922E+02  0.72439934449E+02  0.12700000000E+01 0.  1.
         -4   -1    0    0    0  501 -0.00000000000E+00 -0.00000000000E+00 -0.17311590685E+03  0.17312056523E+03  0.12700000000E+01 0.  1.
         25    2    1    2    0    0  0.59000078592E+02  0.44715247850E+02 -0.89649962749E+02  0.17071211163E+03  0.12500018629E+03 0.  0.
    9000005    1    3    3    0    0  0.87352119001E+02  0.52118111180E+02 -0.33030997029E+02  0.10695203117E+03  0.10000000000E+01 0.  0.
    9000005    1    3    3    0    0 -0.28352040409E+02 -0.74028633301E+01 -0.56618965720E+02  0.63760080458E+02  0.10000000000E+01 0.  0.
         21    1    1    2  502  501 -0.59000078592E+02 -0.44715247850E+02 -0.11037143182E+02  0.74848388050E+02  0.00000000000E+00 0.  1.
<mgrwt>
<rscale>  1 0.14527735E+03</rscale>
<asrwt>0</asrwt>
<pdfrwt beam="1">  1        4 0.11144107E-01 0.14527735E+03</pdfrwt>
<pdfrwt beam="2">  1       -4 0.26634431E-01 0.14527735E+03</pdfrwt>
<totfact> 0.14036267E+03</totfact>
</mgrwt>
</event>
<event>
 6    4  0.2103460E-003  0.1271952E+03  0.7818608E-02  0.1231678E+00
         -4   -1    0    0    0  501 -0.00000000000E+00  0.00000000000E+00  0.82712797251E+02  0.82722546680E+02  0.12700000000E+01 0.  1.
          4   -1    0    0  502    0  0.00000000000E+00 -0.00000000000E+00 -0.12101053047E+03  0.12101719458E+03  0.12700000000E+01 0.  1.
         25    2    1    2    0    0  0.22784432759E+02 -0.58260055885E+01 -0.83939241426E+02  0.15239560830E+03  0.12500220983E+03 0.  0.
    9000005    1    3    3    0    0  0.33221507192E+02 -0.21919507387E+02 -0.11173080078E+03  0.11861241582E+03  0.10000000000E+01 0.  0.
    9000005    1    3    3    0    0 -0.10437074433E+02  0.16093501799E+02  0.27791559354E+02  0.33783192481E+02  0.10000000000E+01 0.  0.
         21    1    1    2  502  501 -0.22784432759E+02  0.58260055885E+01  0.45641508210E+02  0.51344132956E+02  0.00000000000E+00 0.  1.
<mgrwt>
<rscale>  1 0.12719522E+03</rscale>
<asrwt>0</asrwt>
<pdfrwt beam="2">  1        4 0.18618267E-01 0.12719522E+03</pdfrwt>
<pdfrwt beam="1">  1       -4 0.12726308E-01 0.12719522E+03</pdfrwt>
<totfact> 0.20857342E+03</totfact>
</mgrwt>
</event>
<event>
 6    4  0.2103460E-003  0.1296959E+03  0.7818608E-02  0.1227908E+00
          4   -1    0    0  502    0  0.00000000000E+00  0.00000000000E+00  0.14158893729E+02  0.14215736760E+02  0.12700000000E+01 0. -1.
         -4   -1    0    0    0  501 -0.00000000000E+00 -0.00000000000E+00 -0.51212031623E+03  0.51212189096E+03  0.12700000000E+01 0. -1.
         25    2    1    2    0    0  0.25369832735E+02 -0.23501295024E+02 -0.32442385473E+03  0.34938784188E+03  0.12500034901E+03 0.  0.
    9000005    1    3    3    0    0  0.64378268767E+02 -0.45003394040E+02 -0.14953240936E+03  0.16891065216E+03  0.10000000000E+01 0.  0.
    9000005    1    3    3    0    0 -0.39008436033E+02  0.21502099016E+02 -0.17489144537E+03  0.18047718972E+03  0.10000000000E+01 0.  0.
         21    1    1    2  502  501 -0.25369832735E+02  0.23501295024E+02 -0.17353756777E+03  0.17694978584E+03  0.00000000000E+00 0. -1.
<mgrwt>
<rscale>  1 0.12969590E+03</rscale>
<asrwt>0</asrwt>
<pdfrwt beam="1">  1        4 0.21827854E-02 0.12969590E+03</pdfrwt>
<pdfrwt beam="2">  1       -4 0.78792220E-01 0.12969590E+03</pdfrwt>
<totfact> 0.21266597E+03</totfact>
</mgrwt>
</event>
<event>
 6    4  0.2103460E-003  0.1280410E+03  0.7818608E-02  0.1230392E+00
         -4   -1    0    0    0  501 -0.00000000000E+00  0.00000000000E+00  0.48643729725E+02  0.48660305605E+02  0.12700000000E+01 0.  1.
          4   -1    0    0  502    0  0.00000000000E+00 -0.00000000000E+00 -0.12524768145E+03  0.12525412013E+03  0.12700000000E+01 0.  1.
         25    2    1    2    0    0  0.20168885710E+02  0.19044052452E+02 -0.58362292194E+02  0.14071475665E+03  0.12500010282E+03 0.  0.
    9000005    1    3    3    0    0 -0.71686911326E+01  0.69904810097E+02 -0.31094540023E+02  0.76850133549E+02  0.10000000000E+01 0.  0.
    9000005    1    3    3    0    0  0.27337576842E+02 -0.50860757644E+02 -0.27267752171E+02  0.63864623104E+02  0.10000000000E+01 0.  0.
         21    1    1    2  502  501 -0.20168885710E+02 -0.19044052452E+02 -0.18241659535E+02  0.33199669082E+02  0.00000000000E+00 0. -1.
<mgrwt>
<rscale>  1 0.12804095E+03</rscale>
<asrwt>0</asrwt>
<pdfrwt beam="2">  1        4 0.19270644E-01 0.12804095E+03</pdfrwt>
<pdfrwt beam="1">  1       -4 0.74854211E-02 0.12804095E+03</pdfrwt>
<totfact> 0.47920034E+03</totfact>
</mgrwt>
</event>
<event>
 6    4  0.2103460E-003  0.1299761E+03  0.7818608E-02  0.1227491E+00
         -4   -1    0    0    0  501 -0.00000000000E+00  0.00000000000E+00  0.49081266045E+02  0.49097694209E+02  0.12700000000E+01 0. -1.
          4   -1    0    0  502    0  0.00000000000E+00 -0.00000000000E+00 -0.14547095629E+03  0.14547649991E+03  0.12700000000E+01 0. -1.
         25    2    1    2    0    0 -0.12786024575E+01  0.35582951817E+02 -0.90754763930E+02  0.15852514865E+03  0.12500405711E+03 0.  0.
    9000005    1    3    3    0    0  0.27041862199E+02 -0.38126120667E+02 -0.53983519705E+02  0.71414870917E+02  0.10000000000E+01 0.  0.
    9000005    1    3    3    0    0 -0.28320464657E+02  0.73709072485E+02 -0.36771244225E+02  0.87110277733E+02  0.10000000000E+01 0.  0.
         21    1    1    2  502  501  0.12786024575E+01 -0.35582951817E+02 -0.56349263174E+01  0.36049045464E+02  0.00000000000E+00 0. -1.
<mgrwt>
<rscale>  1 0.12997613E+03</rscale>
<asrwt>0</asrwt>
<pdfrwt beam="2">  1        4 0.22381837E-01 0.12997613E+03</pdfrwt>
<pdfrwt beam="1">  1       -4 0.75526542E-02 0.12997613E+03</pdfrwt>
<totfact> 0.36176385E+03</totfact>
</mgrwt>
</event>
<event>
 6    4  0.2103460E-003  0.1280630E+03  0.7818608E-02  0.1230359E+00
         -4   -1    0    0    0  501 -0.00000000000E+00  0.00000000000E+00  0.13236133644E+03  0.13236742909E+03  0.12700000000E+01 0. -1.
          4   -1    0    0  502    0  0.00000000000E+00 -0.00000000000E+00 -0.68217248217E+02  0.68229068984E+02  0.12700000000E+01 0. -1.
         25    2    1    2    0    0 -0.27769452121E+02  0.19487425049E+01 -0.28016237443E+01  0.12809361248E+03  0.12500073758E+03 0.  0.
    9000005    1    3    3    0    0 -0.28229127002E+02  0.32317864448E+01 -0.62347366567E+02  0.68523880310E+02  0.10000000000E+01 0.  0.
    9000005    1    3    3    0    0  0.45967488117E+00 -0.12830439399E+01  0.59545742823E+02  0.59569732172E+02  0.10000000000E+01 0.  0.
         21    1    1    2  502  501  0.27769452121E+02 -0.19487425049E+01  0.66945711970E+02  0.72502885595E+02  0.00000000000E+00 0. -1.
<mgrwt>
<rscale>  1 0.12806297E+03</rscale>
<asrwt>0</asrwt>
<pdfrwt beam="2">  1        4 0.10496339E-01 0.12806297E+03</pdfrwt>
<pdfrwt beam="1">  1       -4 0.20364660E-01 0.12806297E+03</pdfrwt>
<totfact> 0.24698325E+03</totfact>
</mgrwt>
</event>
<event>
 6    4  0.2103460E-003  0.1279690E+03  0.7818608E-02  0.1230501E+00
          4   -1    0    0  502    0  0.00000000000E+00  0.00000000000E+00  0.19211871137E+02  0.19253802029E+02  0.12700000000E+01 0. -1.
         -4   -1    0    0    0  501 -0.00000000000E+00 -0.00000000000E+00 -0.38365204785E+03  0.38365414987E+03  0.12700000000E+01 0. -1.
         25    2    1    2    0    0  0.23130045279E+02 -0.14687096396E+02 -0.20895418246E+03  0.24502633739E+03  0.12500138339E+03 0.  0.
    9000005    1    3    3    0    0 -0.94151677332E+01 -0.13967122951E+02 -0.21167302207E+03  0.21234451766E+03  0.10000000000E+01 0.  0.
    9000005    1    3    3    0    0  0.32545213012E+02 -0.71997344466E+00  0.27188396123E+01  0.32681819726E+02  0.10000000000E+01 0.  0.
         21    1    1    2  502  501 -0.23130045279E+02  0.14687096396E+02 -0.15548599425E+03  0.15788161452E+03  0.00000000000E+00 0. -1.
<mgrwt>
<rscale>  1 0.12796896E+03</rscale>
<asrwt>0</asrwt>
<pdfrwt beam="1">  1        4 0.29590599E-02 0.12796896E+03</pdfrwt>
<pdfrwt beam="2">  1       -4 0.59026774E-01 0.12796896E+03</pdfrwt>
<totfact> 0.24557230E+03</totfact>
</mgrwt>
</event>
<event>
 6    4  0.2103460E-003  0.1274806E+03  0.7818608E-02  0.1231243E+00
         -4   -1    0    0    0  501 -0.00000000000E+00  0.00000000000E+00  0.13440637464E+02  0.13500505007E+02  0.12700000000E+01 0.  1.
          4   -1    0    0  502    0  0.00000000000E+00 -0.00000000000E+00 -0.47597150077E+03  0.47597319509E+03  0.12700000000E+01 0.  1.
         25    2    1    2    0    0 -0.24602466381E+02 -0.46225764214E+01 -0.42955624158E+03  0.44807351601E+03  0.12499864600E+03 0.  0.
    9000005    1    3    3    0    0 -0.35090910138E+02  0.14728760831E+01 -0.43377143458E+03  0.43519214008E+03  0.10000000000E+01 0.  0.
    9000005    1    3    3    0    0  0.10488443757E+02 -0.60954525045E+01  0.42151929949E+01  0.12881375922E+02  0.10000000000E+01 0.  0.
         21    1    1    2  502  501  0.24602466381E+02  0.46225764214E+01 -0.32974621729E+02  0.41400184093E+02  0.00000000000E+00 0.  1.
<mgrwt>
<rscale>  1 0.12748063E+03</rscale>
<asrwt>0</asrwt>
<pdfrwt beam="2">  1        4 0.73231107E-01 0.12748063E+03</pdfrwt>
<pdfrwt beam="1">  1       -4 0.20725263E-02 0.12748063E+03</pdfrwt>
<totfact> 0.26927202E+03</totfact>
</mgrwt>
</event>
<event>
 6    4  0.2103460E-003  0.1313069E+03  0.7818608E-02  0.1225529E+00
          4   -1    0    0  502    0  0.00000000000E+00  0.00000000000E+00  0.36545653073E+02  0.36567713335E+02  0.12700000000E+01 0. -1.
         -4   -1    0    0    0  501 -0.00000000000E+00 -0.00000000000E+00 -0.20205702830E+03  0.20206101946E+03  0.12700000000E+01 0. -1.
         25    2    1    2    0    0 -0.10566116959E+02 -0.38781059782E+02 -0.11963119024E+03  0.17763197223E+03  0.12500352977E+03 0.  0.
    9000005    1    3    3    0    0  0.20264206087E+02 -0.75172308645E+02 -0.98229202525E+02  0.12534548362E+03  0.10000000000E+01 0.  0.
    9000005    1    3    3    0    0 -0.30830323046E+02  0.36391248863E+02 -0.21401987720E+02  0.52286488611E+02  0.10000000000E+01 0.  0.
         21    1    1    2  502  501  0.10566116959E+02  0.38781059782E+02 -0.45880184985E+02  0.60996760567E+02  0.00000000000E+00 0.  1.
<mgrwt>
<rscale>  1 0.13130688E+03</rscale>
<asrwt>0</asrwt>
<pdfrwt beam="1">  1        4 0.56244122E-02 0.13130688E+03</pdfrwt>
<pdfrwt beam="2">  1       -4 0.31087700E-01 0.13130688E+03</pdfrwt>
<totfact> 0.31874433E+03</totfact>
</mgrwt>
</event>
<event>
 6    4  0.2103460E-003  0.1277545E+03  0.7818608E-02  0.1230826E+00
          4   -1    0    0  502    0  0.00000000000E+00  0.00000000000E+00  0.19611934513E+03  0.19612345712E+03  0.12700000000E+01 0. -1.
         -4   -1    0    0    0  501 -0.00000000000E+00 -0.00000000000E+00 -0.45799810520E+02  0.45817415288E+02  0.12700000000E+01 0. -1.
         25    2    1    2    0    0  0.25690092319E+02 -0.51905841559E+01  0.16745753345E+03  0.21062579598E+03  0.12503710416E+03 0.  0.
    9000005    1    3    3    0    0  0.46200539922E+02  0.22485884474E+02  0.16848443666E+03  0.17614797838E+03  0.10000000000E+01 0.  0.
    9000005    1    3    3    0    0 -0.20510447603E+02 -0.27676468630E+02 -0.10269032072E+01  0.34477817606E+02  0.10000000000E+01 0.  0.
         21    1    1    2  502  501 -0.25690092319E+02  0.51905841559E+01 -0.17137998845E+02  0.31315076427E+02  0.00000000000E+00 0. -1.
<mgrwt>
<rscale>  1 0.12775445E+03</rscale>
<asrwt>0</asrwt>
<pdfrwt beam="1">  1        4 0.30173877E-01 0.12775445E+03</pdfrwt>
<pdfrwt beam="2">  1       -4 0.70477953E-02 0.12775445E+03</pdfrwt>
<totfact> 0.23203694E+03</totfact>
</mgrwt>
</event>
<event>
 6    4  0.2103460E-003  0.1298674E+03  0.7818608E-02  0.1227653E+00
         -4   -1    0    0    0  501 -0.00000000000E+00  0.00000000000E+00  0.23423071386E+03  0.23423415681E+03  0.12700000000E+01 0.  1.
          4   -1    0    0  502    0  0.00000000000E+00 -0.00000000000E+00 -0.34212411325E+02  0.34235975066E+02  0.12700000000E+01 0.  1.
         25    2    1    2    0    0  0.21581708349E+02 -0.27744740515E+02  0.10450365080E+03  0.16669297600E+03  0.12501997623E+03 0.  0.
    9000005    1    3    3    0    0 -0.19371543104E+02 -0.13656084862E+02  0.11874526494E+03  0.12109163176E+03  0.10000000000E+01 0.  0.
    9000005    1    3    3    0    0  0.40953251453E+02 -0.14088655653E+02 -0.14241614147E+02  0.45601344237E+02  0.10000000000E+01 0.  0.
         21    1    1    2  502  501 -0.21581708349E+02  0.27744740515E+02  0.95514651740E+02  0.10177715588E+03  0.00000000000E+00 0.  1.
<mgrwt>
<rscale>  1 0.12986738E+03</rscale>
<asrwt>0</asrwt>
<pdfrwt beam="2">  1        4 0.52655252E-02 0.12986738E+03</pdfrwt>
<pdfrwt beam="1">  1       -4 0.36037573E-01 0.12986738E+03</pdfrwt>
<totfact> 0.26640086E+03</totfact>
</mgrwt>
</event>
<event>
 6    4  0.2103460E-003  0.1270050E+03  0.7818608E-02  0.1231969E+00
          4   -1    0    0  502    0  0.00000000000E+00  0.00000000000E+00  0.56749436584E+03  0.56749578691E+03  0.12700000000E+01 0. -1.
         -4   -1    0    0    0  501 -0.00000000000E+00 -0.00000000000E+00 -0.23684028069E+02  0.23718054000E+02  0.12700000000E+01 0. -1.
         25    2    1    2    0    0 -0.48113383404E+00  0.22464948122E+02  0.55265873240E+03  0.56706431769E+03  0.12500144206E+03 0.  0.
    9000005    1    3    3    0    0 -0.52943306226E+02  0.27505853625E+02  0.42160187138E+03  0.42580359746E+03  0.10000000000E+01 0.  0.
    9000005    1    3    3    0    0  0.52462172392E+02 -0.50409055030E+01  0.13105686102E+03  0.14126072023E+03  0.10000000000E+01 0.  0.
         21    1    1    2  502  501  0.48113383404E+00 -0.22464948122E+02 -0.88483946318E+01  0.24149523214E+02  0.00000000000E+00 0. -1.
<mgrwt>
<rscale>  1 0.12700498E+03</rscale>
<asrwt>0</asrwt>
<pdfrwt beam="1">  1        4 0.87309552E-01 0.12700498E+03</pdfrwt>
<pdfrwt beam="2">  1       -4 0.36464233E-02 0.12700498E+03</pdfrwt>
<totfact> 0.75646156E+02</totfact>
</mgrwt>
</event>
<event>
 6    4  0.2103460E-003  0.1313802E+03  0.7818608E-02  0.1225422E+00
          4   -1    0    0  502    0  0.00000000000E+00  0.00000000000E+00  0.46858559765E+03  0.46858731868E+03  0.12700000000E+01 0. -1.
         -4   -1    0    0    0  501 -0.00000000000E+00 -0.00000000000E+00 -0.23846848439E+02  0.23880642380E+02  0.12700000000E+01 0. -1.
         25    2    1    2    0    0  0.17879963845E+02 -0.36278366846E+02  0.42966927311E+03  0.44930661124E+03  0.12499973456E+03 0.  0.
    9000005    1    3    3    0    0 -0.48861461089E+02  0.80520610888E+01  0.13020997665E+03  0.13931229697E+03  0.10000000000E+01 0.  0.
    9000005    1    3    3    0    0  0.66741424934E+02 -0.44330427935E+02  0.29945929646E+03  0.30999431427E+03  0.10000000000E+01 0.  0.
         21    1    1    2  502  501 -0.17879963845E+02  0.36278366846E+02  0.15069476100E+02  0.43161349817E+02  0.00000000000E+00 0. -1.
<mgrwt>
<rscale>  1 0.13138016E+03</rscale>
<asrwt>0</asrwt>
<pdfrwt beam="1">  1        4 0.72092820E-01 0.13138016E+03</pdfrwt>
<pdfrwt beam="2">  1       -4 0.36714780E-02 0.13138016E+03</pdfrwt>
<totfact> 0.11498462E+03</totfact>
</mgrwt>
</event>
<event>
 6    4  0.2103460E-003  0.1268122E+03  0.7818608E-02  0.1232264E+00
          4   -1    0    0  502    0  0.00000000000E+00  0.00000000000E+00  0.11485789270E+03  0.11486491377E+03  0.12700000000E+01 0.  1.
         -4   -1    0    0    0  501 -0.00000000000E+00 -0.00000000000E+00 -0.49082938403E+02  0.49099366007E+02  0.12700000000E+01 0.  1.
         25    2    1    2    0    0 -0.11836841642E+02 -0.17781240839E+02  0.65209473329E+02  0.14259600623E+03  0.12500024894E+03 0.  0.
    9000005    1    3    3    0    0  0.41564811310E+02 -0.40680275730E+02  0.61065317338E+02  0.84335587710E+02  0.10000000000E+01 0.  0.
    9000005    1    3    3    0    0 -0.53401652952E+02  0.22899034891E+02  0.41441559912E+01  0.58260418518E+02  0.10000000000E+01 0.  0.
         21    1    1    2  502  501  0.11836841642E+02  0.17781240839E+02  0.56548096997E+00  0.21368273551E+02  0.00000000000E+00 0. -1.
<mgrwt>
<rscale>  1 0.12681225E+03</rscale>
<asrwt>0</asrwt>
<pdfrwt beam="1">  1        4 0.17672248E-01 0.12681225E+03</pdfrwt>
<pdfrwt beam="2">  1       -4 0.75530252E-02 0.12681225E+03</pdfrwt>
<totfact> 0.54952638E+03</totfact>
</mgrwt>
</event>
<event>
 6    4  0.2103460E-003  0.1310722E+03  0.7818608E-02  0.1225873E+00
          4   -1    0    0  502    0  0.00000000000E+00  0.00000000000E+00  0.56117396182E+03  0.56117539889E+03  0.12700000000E+01 0. -1.
         -4   -1    0    0    0  501 -0.00000000000E+00 -0.00000000000E+00 -0.14367426787E+02  0.14423448010E+02  0.12700000000E+01 0. -1.
         25    2    1    2    0    0 -0.22967049601E+02 -0.32046026180E+02  0.48407678116E+03  0.50150798929E+03  0.12500200039E+03 0.  0.
    9000005    1    3    3    0    0 -0.45326584610E+02 -0.55297963965E+02  0.15326656770E+03  0.16912718547E+03  0.10000000000E+01 0.  0.
    9000005    1    3    3    0    0  0.22359535008E+02  0.23251937785E+02  0.33081021346E+03  0.33238080382E+03  0.10000000000E+01 0.  0.
         21    1    1    2  502  501  0.22967049601E+02  0.32046026180E+02  0.62729753871E+02  0.74090857614E+02  0.00000000000E+00 0. -1.
<mgrwt>
<rscale>  1 0.13107224E+03</rscale>
<asrwt>0</asrwt>
<pdfrwt beam="1">  1        4 0.86338860E-01 0.13107224E+03</pdfrwt>
<pdfrwt beam="2">  1       -4 0.22147936E-02 0.13107224E+03</pdfrwt>
<totfact> 0.17012049E+03</totfact>
</mgrwt>
</event>
<event>
 6    4  0.2103460E-003  0.1305497E+03  0.7818608E-02  0.1226642E+00
         -4   -1    0    0    0  501 -0.00000000000E+00  0.00000000000E+00  0.15602838269E+03  0.15603355121E+03  0.12700000000E+01 0. -1.
          4   -1    0    0  502    0  0.00000000000E+00 -0.00000000000E+00 -0.46043137193E+02  0.46060648960E+02  0.12700000000E+01 0. -1.
         25    2    1    2    0    0 -0.36697760404E+02  0.84854437478E+01  0.74321373370E+02  0.15022281934E+03  0.12499800213E+03 0.  0.
    9000005    1    3    3    0    0  0.22039860752E+02  0.38316853789E+02 -0.78423050803E+01  0.44904771408E+02  0.10000000000E+01 0.  0.
    9000005    1    3    3    0    0 -0.58737621156E+02 -0.29831410041E+02  0.82163678451E+02  0.10531804793E+03  0.10000000000E+01 0.  0.
         21    1    1    2  502  501  0.36697760404E+02 -0.84854437478E+01  0.35663872122E+02  0.51871380828E+02  0.00000000000E+00 0. -1.
<mgrwt>
<rscale>  1 0.13054972E+03</rscale>
<asrwt>0</asrwt>
<pdfrwt beam="2">  1        4 0.70853042E-02 0.13054972E+03</pdfrwt>
<pdfrwt beam="1">  1       -4 0.24006111E-01 0.13054972E+03</pdfrwt>
<totfact> 0.35392328E+03</totfact>
</mgrwt>
</event>
<event>
 6    4  0.2103460E-003  0.1266165E+03  0.7818608E-02  0.1232564E+00
         -4   -1    0    0    0  501 -0.00000000000E+00  0.00000000000E+00  0.14064000841E+02  0.14121225856E+02  0.12700000000E+01 0. -1.
          4   -1    0    0  502    0  0.00000000000E+00 -0.00000000000E+00 -0.62923106050E+03  0.62923234215E+03  0.12700000000E+01 0. -1.
         25    2    1    2    0    0 -0.17064562622E+02  0.10781138635E+02 -0.60932341723E+03  0.62233975339E+03  0.12499723844E+03 0.  0.
    9000005    1    3    3    0    0 -0.18093454797E+02 -0.55574014407E+02 -0.23381610772E+03  0.24101206695E+03  0.10000000000E+01 0.  0.
    9000005    1    3    3    0    0  0.10288921741E+01  0.66355153042E+02 -0.37550730950E+03  0.38132768644E+03  0.10000000000E+01 0.  0.
         21    1    1    2  502  501  0.17064562622E+02 -0.10781138635E+02 -0.58436424368E+01  0.21013814616E+02  0.00000000000E+00 0.  1.
<mgrwt>
<rscale>  1 0.12661651E+03</rscale>
<asrwt>0</asrwt>
<pdfrwt beam="2">  1        4 0.96809257E-01 0.12661651E+03</pdfrwt>
<pdfrwt beam="1">  1       -4 0.21681934E-02 0.12661651E+03</pdfrwt>
<totfact> 0.13461446E+03</totfact>
</mgrwt>
</event>
<event>
 6    4  0.2103460E-003  0.1285360E+03  0.7818608E-02  0.1229644E+00
          4   -1    0    0  502    0  0.00000000000E+00  0.00000000000E+00  0.24476830119E+02  0.24509755459E+02  0.12700000000E+01 0. -1.
         -4   -1    0    0    0  501 -0.00000000000E+00 -0.00000000000E+00 -0.25890557366E+03  0.25890868848E+03  0.12700000000E+01 0. -1.
         25    2    1    2    0    0 -0.11716952735E+02  0.27546221386E+02 -0.17822451647E+03  0.21973959004E+03  0.12500171145E+03 0.  0.
    9000005    1    3    3    0    0  0.18327580055E+02  0.38373686657E+02 -0.18260048713E+03  0.18748967416E+03  0.10000000000E+01 0.  0.
    9000005    1    3    3    0    0 -0.30044532790E+02 -0.10827465271E+02  0.43759706559E+01  0.32249915875E+02  0.10000000000E+01 0.  0.
         21    1    1    2  502  501  0.11716952735E+02 -0.27546221386E+02 -0.56204227065E+02  0.63678853900E+02  0.00000000000E+00 0.  1.
<mgrwt>
<rscale>  1 0.12853602E+03</rscale>
<asrwt>0</asrwt>
<pdfrwt beam="1">  1        4 0.37684387E-02 0.12853602E+03</pdfrwt>
<pdfrwt beam="2">  1       -4 0.39834397E-01 0.12853602E+03</pdfrwt>
<totfact> 0.37280439E+03</totfact>
</mgrwt>
</event>
<event>
 6    4  0.2103460E-003  0.1363193E+03  0.7818608E-02  0.1218369E+00
         -4   -1    0    0    0  501 -0.00000000000E+00  0.00000000000E+00  0.83307046392E+02  0.83316726283E+02  0.12700000000E+01 0.  1.
          4   -1    0    0  502    0  0.00000000000E+00 -0.00000000000E+00 -0.10923731278E+03  0.10924469508E+03  0.12700000000E+01 0.  1.
         25    2    1    2    0    0 -0.35156505072E+02 -0.41493430914E+02 -0.15663523290E+02  0.13721622580E+03  0.12500104801E+03 0.  0.
    9000005    1    3    3    0    0 -0.68413445577E+02 -0.22529531983E+02 -0.48441343292E+02  0.86807505937E+02  0.10000000000E+01 0.  0.
    9000005    1    3    3    0    0  0.33256940505E+02 -0.18963898930E+02  0.32777820002E+02  0.50408719866E+02  0.10000000000E+01 0.  0.
         21    1    1    2  502  501  0.35156505072E+02  0.41493430914E+02 -0.10266743097E+02  0.55345195561E+02  0.00000000000E+00 0.  1.
<mgrwt>
<rscale>  1 0.13631928E+03</rscale>
<asrwt>0</asrwt>
<pdfrwt beam="2">  1        4 0.16807053E-01 0.13631928E+03</pdfrwt>
<pdfrwt beam="1">  1       -4 0.12817781E-01 0.13631928E+03</pdfrwt>
<totfact> 0.25100683E+03</totfact>
</mgrwt>
</event>
<event>
 6    4  0.2103460E-003  0.1274439E+03  0.7818608E-02  0.1231299E+00
         -4   -1    0    0    0  501 -0.00000000000E+00  0.00000000000E+00  0.93747861689E+03  0.93747947712E+03  0.12700000000E+01 0.  1.
          4   -1    0    0  502    0  0.00000000000E+00 -0.00000000000E+00 -0.11678242119E+02  0.11747094917E+02  0.12700000000E+01 0.  1.
         25    2    1    2    0    0  0.24751828133E+02  0.20351017164E+01  0.34322444579E+03  0.36612151489E+03  0.12500059539E+03 0.  0.
    9000005    1    3    3    0    0  0.44881663536E+02 -0.11496221569E+02  0.37989318164E+02  0.59922576102E+02  0.10000000000E+01 0.  0.
    9000005    1    3    3    0    0 -0.20129835403E+02  0.13531323286E+02  0.30523512762E+03  0.30619893879E+03  0.10000000000E+01 0.  0.
         21    1    1    2  502  501 -0.24751828133E+02 -0.20351017164E+01  0.58257592898E+03  0.58310505714E+03  0.00000000000E+00 0. -1.
<mgrwt>
<rscale>  1 0.12744388E+03</rscale>
<asrwt>0</asrwt>
<pdfrwt beam="2">  1        4 0.18020145E-02 0.12744388E+03</pdfrwt>
<pdfrwt beam="1">  1       -4 0.14423290E+00 0.12744388E+03</pdfrwt>
<totfact> 0.68957785E+02</totfact>
</mgrwt>
</event>
<event>
 6    4  0.2103460E-003  0.1295699E+03  0.7818608E-02  0.1228095E+00
          4   -1    0    0  502    0  0.00000000000E+00  0.00000000000E+00  0.78779676961E+02  0.78789913074E+02  0.12700000000E+01 0.  1.
         -4   -1    0    0    0  501 -0.00000000000E+00 -0.00000000000E+00 -0.89803396816E+02  0.89812376540E+02  0.12700000000E+01 0.  1.
         25    2    1    2    0    0 -0.34012970615E+02  0.24087062418E+01 -0.24629364500E+02  0.13188992655E+03  0.12500265234E+03 0.  0.
    9000005    1    3    3    0    0 -0.84492250562E+01  0.52763805176E+02 -0.46968924722E+02  0.71151166050E+02  0.10000000000E+01 0.  0.
    9000005    1    3    3    0    0 -0.25563745558E+02 -0.50355098935E+02  0.22339560222E+02  0.60738760496E+02  0.10000000000E+01 0.  0.
         21    1    1    2  502  501  0.34012970615E+02 -0.24087062418E+01  0.13605644645E+02  0.36712363068E+02  0.00000000000E+00 0.  1.
<mgrwt>
<rscale>  1 0.12956985E+03</rscale>
<asrwt>0</asrwt>
<pdfrwt beam="1">  1        4 0.12121428E-01 0.12956985E+03</pdfrwt>
<pdfrwt beam="2">  1       -4 0.13817385E-01 0.12956985E+03</pdfrwt>
<totfact> 0.38443109E+03</totfact>
</mgrwt>
</event>
<event>
 6    4  0.2103460E-003  0.1317340E+03  0.7818608E-02  0.1224905E+00
         -4   -1    0    0    0  501 -0.00000000000E+00  0.00000000000E+00  0.56907166935E+02  0.56921336497E+02  0.12700000000E+01 0.  1.
          4   -1    0    0  502    0  0.00000000000E+00 -0.00000000000E+00 -0.13270590014E+03  0.13271197697E+03  0.12700000000E+01 0.  1.
         25    2    1    2    0    0 -0.16606196579E+02  0.38079007804E+02 -0.63939484363E+02  0.14643124890E+03  0.12501230497E+03 0.  0.
    9000005    1    3    3    0    0  0.44683604935E+02 -0.18326725370E+02 -0.20388567420E+02  0.52432691083E+02  0.10000000000E+01 0.  0.
    9000005    1    3    3    0    0 -0.61289801514E+02  0.56405733174E+02 -0.43550916943E+02  0.93998557814E+02  0.10000000000E+01 0.  0.
         21    1    1    2  502  501  0.16606196579E+02 -0.38079007804E+02 -0.11859248841E+02  0.43202064571E+02  0.00000000000E+00 0.  1.
<mgrwt>
<rscale>  1 0.13173402E+03</rscale>
<asrwt>0</asrwt>
<pdfrwt beam="2">  1        4 0.20417850E-01 0.13173402E+03</pdfrwt>
<pdfrwt beam="1">  1       -4 0.87565062E-02 0.13173402E+03</pdfrwt>
<totfact> 0.33545414E+03</totfact>
</mgrwt>
</event>
<event>
 6    4  0.2103460E-003  0.1331072E+03  0.7818608E-02  0.1222917E+00
         -4   -1    0    0    0  501 -0.00000000000E+00  0.00000000000E+00  0.12957210998E+02  0.13019301704E+02  0.12700000000E+01 0.  1.
          4   -1    0    0  502    0  0.00000000000E+00 -0.00000000000E+00 -0.66720356425E+03  0.66720477295E+03  0.12700000000E+01 0.  1.
         25    2    1    2    0    0 -0.28567534686E+02  0.35726358543E+02 -0.55805781516E+03  0.57371251851E+03  0.12500020839E+03 0.  0.
    9000005    1    3    3    0    0 -0.75139244936E+02  0.36371536537E+02 -0.29609415859E+03  0.30763866069E+03  0.10000000000E+01 0.  0.
    9000005    1    3    3    0    0  0.46571710250E+02 -0.64517799390E+00 -0.26196365657E+03  0.26607385782E+03  0.10000000000E+01 0.  0.
         21    1    1    2  502  501  0.28567534686E+02 -0.35726358543E+02 -0.96188538089E+02  0.10651155615E+03  0.00000000000E+00 0.  1.
<mgrwt>
<rscale>  1 0.13310721E+03</rscale>
<asrwt>0</asrwt>
<pdfrwt beam="2">  1        4 0.10265154E+00 0.13310721E+03</pdfrwt>
<pdfrwt beam="1">  1       -4 0.19982868E-02 0.13310721E+03</pdfrwt>
<totfact> 0.13481654E+03</totfact>
</mgrwt>
</event>
<event>
 6    4  0.2103460E-003  0.1271520E+03  0.7818608E-02  0.1231744E+00
         -4   -1    0    0    0  501 -0.00000000000E+00  0.00000000000E+00  0.44892234386E+02  0.44910194924E+02  0.12700000000E+01 0.  1.
          4   -1    0    0  502    0  0.00000000000E+00 -0.00000000000E+00 -0.13405898562E+03  0.13406500112E+03  0.12700000000E+01 0.  1.
         25    2    1    2    0    0 -0.43516419080E+01 -0.22869766441E+02 -0.89835141542E+02  0.15568550412E+03  0.12500264210E+03 0.  0.
    9000005    1    3    3    0    0 -0.61935062831E+02 -0.24715629768E+02 -0.31736208198E+02  0.73857980432E+02  0.10000000000E+01 0.  0.
    9000005    1    3    3    0    0  0.57583420923E+02  0.18458633270E+01 -0.58098933343E+02  0.81827523684E+02  0.10000000000E+01 0.  0.
         21    1    1    2  502  501  0.43516419080E+01  0.22869766441E+02  0.66839031104E+00  0.23289691925E+02  0.00000000000E+00 0.  1.
<mgrwt>
<rscale>  1 0.12715197E+03</rscale>
<asrwt>0</asrwt>
<pdfrwt beam="2">  1        4 0.20626303E-01 0.12715197E+03</pdfrwt>
<pdfrwt beam="1">  1       -4 0.69083420E-02 0.12715197E+03</pdfrwt>
<totfact> 0.48300474E+03</totfact>
</mgrwt>
</event>
<event>
 6    4  0.2103460E-003  0.1321472E+03  0.7818608E-02  0.1224304E+00
          4   -1    0    0  502    0  0.00000000000E+00  0.00000000000E+00  0.19807475116E+02  0.19848147784E+02  0.12700000000E+01 0. -1.
         -4   -1    0    0    0  501 -0.00000000000E+00 -0.00000000000E+00 -0.40888743898E+03  0.40888941127E+03  0.12700000000E+01 0. -1.
         25    2    1    2    0    0 -0.13713375145E+02 -0.40621669391E+02 -0.24439795715E+03  0.27783673154E+03  0.12499884499E+03 0.  0.
    9000005    1    3    3    0    0 -0.46110009265E+02 -0.41719623638E+02 -0.23638752544E+03  0.24443142624E+03  0.10000000000E+01 0.  0.
    9000005    1    3    3    0    0  0.32396634119E+02  0.10979542477E+01 -0.80104317158E+01  0.33405305298E+02  0.10000000000E+01 0.  0.
         21    1    1    2  502  501  0.13713375145E+02  0.40621669391E+02 -0.14468200671E+03  0.15090082752E+03  0.00000000000E+00 0. -1.
<mgrwt>
<rscale>  1 0.13214722E+03</rscale>
<asrwt>0</asrwt>
<pdfrwt beam="1">  1        4 0.30505846E-02 0.13214722E+03</pdfrwt>
<pdfrwt beam="2">  1       -4 0.62909034E-01 0.13214722E+03</pdfrwt>
<totfact> 0.20632083E+03</totfact>
</mgrwt>
</event>
<event>
 6    4  0.2103460E-003  0.1266068E+03  0.7818608E-02  0.1232579E+00
         -4   -1    0    0    0  501 -0.00000000000E+00  0.00000000000E+00  0.27684679557E+03  0.27684970853E+03  0.12700000000E+01 0. -1.
          4   -1    0    0  502    0  0.00000000000E+00 -0.00000000000E+00 -0.21918217798E+02  0.21954980562E+02  0.12700000000E+01 0. -1.
         25    2    1    2    0    0 -0.39567362125E+01 -0.19728904943E+02  0.17262015095E+03  0.21407238960E+03  0.12499754408E+03 0.  0.
    9000005    1    3    3    0    0 -0.29451842746E+02  0.17126376745E+02  0.16514797100E+03  0.16862851522E+03  0.10000000000E+01 0.  0.
    9000005    1    3    3    0    0  0.25495106534E+02 -0.36855281688E+02  0.74721799504E+01  0.45443874380E+02  0.10000000000E+01 0.  0.
         21    1    1    2  502  501  0.39567362125E+01  0.19728904943E+02  0.82308426820E+02  0.84732299493E+02  0.00000000000E+00 0. -1.
<mgrwt>
<rscale>  1 0.12660676E+03</rscale>
<asrwt>0</asrwt>
<pdfrwt beam="2">  1        4 0.33750856E-02 0.12660676E+03</pdfrwt>
<pdfrwt beam="1">  1       -4 0.42594865E-01 0.12660676E+03</pdfrwt>
<totfact> 0.38720031E+03</totfact>
</mgrwt>
</event>
<event>
 6    4  0.2103460E-003  0.1453890E+03  0.7818608E-02  0.1206256E+00
          4   -1    0    0  502    0  0.00000000000E+00  0.00000000000E+00  0.53311078639E+03  0.53311229911E+03  0.12700000000E+01 0.  1.
         -4   -1    0    0    0  501 -0.00000000000E+00 -0.00000000000E+00 -0.32294315108E+02  0.32319277347E+02  0.12700000000E+01 0.  1.
         25    2    1    2    0    0 -0.62146269963E+02 -0.40622001042E+02  0.45621098566E+03  0.47881774854E+03  0.12500266815E+03 0.  0.
    9000005    1    3    3    0    0 -0.52829992069E+02 -0.77391997527E+01  0.43566906729E+03  0.43892987990E+03  0.10000000000E+01 0.  0.
    9000005    1    3    3    0    0 -0.93162778942E+01 -0.32882801289E+02  0.20541918362E+02  0.39887868637E+02  0.10000000000E+01 0.  0.
         21    1    1    2  502  501  0.62146269963E+02  0.40622001042E+02  0.44605485626E+02  0.86613827920E+02  0.00000000000E+00 0.  1.
<mgrwt>
<rscale>  1 0.14538904E+03</rscale>
<asrwt>0</asrwt>
<pdfrwt beam="1">  1        4 0.82019067E-01 0.14538904E+03</pdfrwt>
<pdfrwt beam="2">  1       -4 0.49703935E-02 0.14538904E+03</pdfrwt>
<totfact> 0.54536652E+02</totfact>
</mgrwt>
</event>
<event>
 6    4  0.2103460E-003  0.1273925E+03  0.7818608E-02  0.1231377E+00
          4   -1    0    0  502    0  0.00000000000E+00  0.00000000000E+00  0.82144147589E+03  0.82144245764E+03  0.12700000000E+01 0. -1.
         -4   -1    0    0    0  501 -0.00000000000E+00 -0.00000000000E+00 -0.74529904398E+01  0.75604210528E+01  0.12700000000E+01 0. -1.
         25    2    1    2    0    0 -0.24568455488E+02 -0.90032175580E+00  0.74386376174E+03  0.75469341456E+03  0.12499773744E+03 0.  0.
    9000005    1    3    3    0    0  0.44905531829E+02 -0.94860322253E+01  0.15421232792E+03  0.16090038433E+03  0.10000000000E+01 0.  0.
    9000005    1    3    3    0    0 -0.69473987317E+02  0.85857104695E+01  0.58965143382E+03  0.59379303023E+03  0.10000000000E+01 0.  0.
         21    1    1    2  502  501  0.24568455488E+02  0.90032175580E+00  0.70124723712E+02  0.74309464135E+02  0.00000000000E+00 0. -1.
<mgrwt>
<rscale>  1 0.12739252E+03</rscale>
<asrwt>0</asrwt>
<pdfrwt beam="1">  1        4 0.12638385E+00 0.12739252E+03</pdfrwt>
<pdfrwt beam="2">  1       -4 0.11549542E-02 0.12739252E+03</pdfrwt>
<totfact> 0.18794744E+03</totfact>
</mgrwt>
</event>
<event>
 6    4  0.2103460E-003  0.1304484E+03  0.7818608E-02  0.1226792E+00
          4   -1    0    0  502    0  0.00000000000E+00  0.00000000000E+00  0.15527533024E+03  0.15528052383E+03  0.12700000000E+01 0.  1.
         -4   -1    0    0    0  501 -0.00000000000E+00 -0.00000000000E+00 -0.45618965467E+02  0.45636639998E+02  0.12700000000E+01 0.  1.
         25    2    1    2    0    0  0.20567061363E+01  0.37255906691E+02  0.92072842192E+02  0.15966897733E+03  0.12499816570E+03 0.  0.
    9000005    1    3    3    0    0  0.27240396039E+02  0.35651736464E+01 -0.23819912143E+02  0.36374961911E+02  0.10000000000E+01 0.  0.
    9000005    1    3    3    0    0 -0.25183689903E+02  0.33690733045E+02  0.11589275433E+03  0.12329401542E+03  0.10000000000E+01 0.  0.
         21    1    1    2  502  501 -0.20567061363E+01 -0.37255906691E+02  0.17583522585E+02  0.41248186506E+02  0.00000000000E+00 0. -1.
<mgrwt>
<rscale>  1 0.13044836E+03</rscale>
<asrwt>0</asrwt>
<pdfrwt beam="1">  1        4 0.23890272E-01 0.13044836E+03</pdfrwt>
<pdfrwt beam="2">  1       -4 0.70200614E-02 0.13044836E+03</pdfrwt>
<totfact> 0.36247217E+03</totfact>
</mgrwt>
</event>
<event>
 6    4  0.2103460E-003  0.1299666E+03  0.7818608E-02  0.1227505E+00
         -4   -1    0    0    0  501 -0.00000000000E+00  0.00000000000E+00  0.71888374176E+02  0.71899591387E+02  0.12700000000E+01 0.  1.
          4   -1    0    0  502    0  0.00000000000E+00 -0.00000000000E+00 -0.26715343932E+03  0.26715645798E+03  0.12700000000E+01 0.  1.
         25    2    1    2    0    0  0.23927713596E+00 -0.35582911539E+02 -0.24533251417E+03  0.27763170322E+03  0.12500047709E+03 0.  0.
    9000005    1    3    3    0    0  0.20506878682E+02 -0.77309114087E+02 -0.12224395616E+03  0.14608838425E+03  0.10000000000E+01 0.  0.
    9000005    1    3    3    0    0 -0.20267601546E+02  0.41726202548E+02 -0.12308855801E+03  0.13154331897E+03  0.10000000000E+01 0.  0.
         21    1    1    2  502  501 -0.23927713596E+00  0.35582911539E+02  0.50067449033E+02  0.61424346148E+02  0.00000000000E+00 0.  1.
<mgrwt>
<rscale>  1 0.12996661E+03</rscale>
<asrwt>0</asrwt>
<pdfrwt beam="2">  1        4 0.41101624E-01 0.12996661E+03</pdfrwt>
<pdfrwt beam="1">  1       -4 0.11060845E-01 0.12996661E+03</pdfrwt>
<totfact> 0.60497520E+02</totfact>
</mgrwt>
</event>
<event>
 6    4  0.2103460E-003  0.1267087E+03  0.7818608E-02  0.1232423E+00
          4   -1    0    0  502    0  0.00000000000E+00  0.00000000000E+00  0.11261844818E+03  0.11262560885E+03  0.12700000000E+01 0. -1.
         -4   -1    0    0    0  501 -0.00000000000E+00 -0.00000000000E+00 -0.48938095983E+02  0.48954572191E+02  0.12700000000E+01 0. -1.
         25    2    1    2    0    0  0.19212325989E+02  0.78208389357E+01  0.61120026991E+02  0.14067960075E+03  0.12499925350E+03 0.  0.
    9000005    1    3    3    0    0  0.58377010488E+02  0.44075982143E+02  0.31668757371E+02  0.79714978196E+02  0.10000000000E+01 0.  0.
    9000005    1    3    3    0    0 -0.39164684499E+02 -0.36255143208E+02  0.29451269620E+02  0.60964622554E+02  0.10000000000E+01 0.  0.
         21    1    1    2  502  501 -0.19212325989E+02 -0.78208389357E+01  0.25603252034E+01  0.20900580296E+02  0.00000000000E+00 0. -1.
<mgrwt>
<rscale>  1 0.12670869E+03</rscale>
<asrwt>0</asrwt>
<pdfrwt beam="1">  1        4 0.17327733E-01 0.12670869E+03</pdfrwt>
<pdfrwt beam="2">  1       -4 0.75307561E-02 0.12670869E+03</pdfrwt>
<totfact> 0.57167328E+03</totfact>
</mgrwt>
</event>
<event>
 6    4  0.2103460E-003  0.1266154E+03  0.7818608E-02  0.1232566E+00
         -4   -1    0    0    0  501 -0.00000000000E+00  0.00000000000E+00  0.35428187782E+03  0.35428415411E+03  0.12700000000E+01 0.  1.
          4   -1    0    0  502    0  0.00000000000E+00 -0.00000000000E+00 -0.15697887477E+02  0.15749176844E+02  0.12700000000E+01 0.  1.
         25    2    1    2    0    0  0.19840892214E+02 -0.37138726845E+01  0.26441735551E+03  0.29316888158E+03  0.12499600545E+03 0.  0.
    9000005    1    3    3    0    0 -0.35530806328E+02 -0.43069489087E+02  0.15054885929E+03  0.16057203406E+03  0.10000000000E+01 0.  0.
    9000005    1    3    3    0    0  0.55371698542E+02  0.39355616402E+02  0.11386849622E+03  0.13259684752E+03  0.10000000000E+01 0.  0.
         21    1    1    2  502  501 -0.19840892214E+02  0.37138726845E+01  0.74166634839E+02  0.76864449374E+02  0.00000000000E+00 0.  1.
<mgrwt>
<rscale>  1 0.12661538E+03</rscale>
<asrwt>0</asrwt>
<pdfrwt beam="2">  1        4 0.24191800E-02 0.12661538E+03</pdfrwt>
<pdfrwt beam="1">  1       -4 0.54509026E-01 0.12661538E+03</pdfrwt>
<totfact> 0.39542053E+03</totfact>
</mgrwt>
</event>
<event>
 6    4  0.2103460E-003  0.1355612E+03  0.7818608E-02  0.1219430E+00
         -4   -1    0    0    0  501 -0.00000000000E+00  0.00000000000E+00  0.20794924193E+02  0.20833669196E+02  0.12700000000E+01 0.  1.
          4   -1    0    0  502    0  0.00000000000E+00 -0.00000000000E+00 -0.43077126551E+03  0.43077313761E+03  0.12700000000E+01 0.  1.
         25    2    1    2    0    0 -0.52340139856E+02  0.25292447391E+01 -0.26946828074E+03  0.30164547044E+03  0.12502379050E+03 0.  0.
    9000005    1    3    3    0    0 -0.62221764559E+02  0.20860350200E+01 -0.28018921410E+03  0.28702420668E+03  0.10000000000E+01 0.  0.
    9000005    1    3    3    0    0  0.98816247033E+01  0.44320971910E+00  0.10720933358E+02  0.14621263752E+02  0.10000000000E+01 0.  0.
         21    1    1    2  502  501  0.52340139856E+02 -0.25292447391E+01 -0.14050806058E+03  0.14996133637E+03  0.00000000000E+00 0. -1.
<mgrwt>
<rscale>  1 0.13556119E+03</rscale>
<asrwt>0</asrwt>
<pdfrwt beam="2">  1        4 0.66275620E-01 0.13556119E+03</pdfrwt>
<pdfrwt beam="1">  1       -4 0.32023438E-02 0.13556119E+03</pdfrwt>
<totfact> 0.17209373E+03</totfact>
</mgrwt>
</event>
<event>
 6    4  0.2103460E-003  0.1287679E+03  0.7818608E-02  0.1229296E+00
          4   -1    0    0  502    0  0.00000000000E+00  0.00000000000E+00  0.80015832188E+02  0.80025910184E+02  0.12700000000E+01 0. -1.
         -4   -1    0    0    0  501 -0.00000000000E+00 -0.00000000000E+00 -0.15200876768E+03  0.15201407287E+03  0.12700000000E+01 0. -1.
         25    2    1    2    0    0 -0.30281346807E+02 -0.63156211613E+01  0.24176807859E+02  0.13101787374E+03  0.12499727263E+03 0.  0.
    9000005    1    3    3    0    0 -0.79146219779E+01  0.32387778281E+02  0.63335424956E+02  0.71582019232E+02  0.10000000000E+01 0.  0.
    9000005    1    3    3    0    0 -0.22366724829E+02 -0.38703399442E+02 -0.39158617097E+02  0.59435854506E+02  0.10000000000E+01 0.  0.
         21    1    1    2  502  501  0.30281346807E+02  0.63156211613E+01 -0.96169743348E+02  0.10102210932E+03  0.00000000000E+00 0. -1.
<mgrwt>
<rscale>  1 0.12876787E+03</rscale>
<asrwt>0</asrwt>
<pdfrwt beam="1">  1        4 0.12311311E-01 0.12876787E+03</pdfrwt>
<pdfrwt beam="2">  1       -4 0.23387148E-01 0.12876787E+03</pdfrwt>
<totfact> 0.14667464E+03</totfact>
</mgrwt>
</event>
<event>
 6    4  0.2103460E-003  0.1359302E+03  0.7818608E-02  0.1218912E+00
         -4   -1    0    0    0  501 -0.00000000000E+00  0.00000000000E+00  0.61756685213E+03  0.61756815798E+03  0.12700000000E+01 0.  1.
          4   -1    0    0  502    0  0.00000000000E+00 -0.00000000000E+00 -0.14482611904E+02  0.14538189280E+02  0.12700000000E+01 0.  1.
         25    2    1    2    0    0  0.38619015200E+02 -0.36887231436E+02  0.43293137158E+03  0.45376932114E+03  0.12499971251E+03 0.  0.
    9000005    1    3    3    0    0  0.56463281340E+02 -0.72211197712E+02  0.24208793221E+03  0.25886314171E+03  0.10000000000E+01 0.  0.
    9000005    1    3    3    0    0 -0.17844266140E+02  0.35323966276E+02  0.19084343937E+03  0.19490617942E+03  0.10000000000E+01 0.  0.
         21    1    1    2  502  501 -0.38619015200E+02  0.36887231436E+02  0.17015286865E+03  0.17833702612E+03  0.00000000000E+00 0.  1.
<mgrwt>
<rscale>  1 0.13593022E+03</rscale>
<asrwt>0</asrwt>
<pdfrwt beam="2">  1        4 0.22324694E-02 0.13593022E+03</pdfrwt>
<pdfrwt beam="1">  1       -4 0.95014678E-01 0.13593022E+03</pdfrwt>
<totfact> 0.13639129E+03</totfact>
</mgrwt>
</event>
<event>
 6    4  0.2103460E-003  0.1285116E+03  0.7818608E-02  0.1229681E+00
         -4   -1    0    0    0  501 -0.00000000000E+00  0.00000000000E+00  0.50223922644E+01  0.51804752733E+01  0.12700000000E+01 0. -1.
          4   -1    0    0  502    0  0.00000000000E+00 -0.00000000000E+00 -0.12876488822E+04  0.12876495085E+04  0.12700000000E+01 0. -1.
         25    2    1    2    0    0 -0.24490072400E+01 -0.29707545712E+02 -0.11328619988E+04  0.11401278596E+04  0.12500676819E+03 0.  0.
    9000005    1    3    3    0    0 -0.43904497019E+02  0.31746887101E+02 -0.50892570687E+03  0.51180254475E+03  0.10000000000E+01 0.  0.
    9000005    1    3    3    0    0  0.41455489779E+02 -0.61454432813E+02 -0.62393629191E+03  0.62832531487E+03  0.10000000000E+01 0.  0.
         21    1    1    2  502  501  0.24490072400E+01  0.29707545712E+02 -0.14976449118E+03  0.15270212418E+03  0.00000000000E+00 0.  1.
<mgrwt>
<rscale>  1 0.12851159E+03</rscale>
<asrwt>0</asrwt>
<pdfrwt beam="2">  1        4 0.19811178E+00 0.12851159E+03</pdfrwt>
<pdfrwt beam="1">  1       -4 0.78488517E-03 0.12851159E+03</pdfrwt>
<totfact> 0.10439017E+03</totfact>
</mgrwt>
</event>
<event>
 6    4  0.2103460E-003  0.1269241E+03  0.7818608E-02  0.1232093E+00
         -4   -1    0    0    0  501 -0.00000000000E+00  0.00000000000E+00  0.11200181753E+03  0.11200901763E+03  0.12700000000E+01 0. -1.
          4   -1    0    0  502    0  0.00000000000E+00 -0.00000000000E+00 -0.57933062361E+02  0.57946981065E+02  0.12700000000E+01 0. -1.
         25    2    1    2    0    0 -0.95447021090E+01 -0.19851786216E+02  0.18707548477E+02  0.12829534948E+03  0.12499811828E+03 0.  0.
    9000005    1    3    3    0    0 -0.63960319086E+02  0.55165690165E+01  0.22739366723E+02  0.68113388921E+02  0.10000000000E+01 0.  0.
    9000005    1    3    3    0    0  0.54415616977E+02 -0.25368355233E+02 -0.40318182458E+01  0.60181960558E+02  0.10000000000E+01 0.  0.
         21    1    1    2  502  501  0.95447021090E+01  0.19851786216E+02  0.35361206694E+02  0.41660649217E+02  0.00000000000E+00 0.  1.
<mgrwt>
<rscale>  1 0.12692409E+03</rscale>
<asrwt>0</asrwt>
<pdfrwt beam="2">  1        4 0.89144035E-02 0.12692409E+03</pdfrwt>
<pdfrwt beam="1">  1       -4 0.17232673E-01 0.12692409E+03</pdfrwt>
<totfact> 0.43668454E+03</totfact>
</mgrwt>
</event>
<event>
 6    4  0.2103460E-003  0.1270328E+03  0.7818608E-02  0.1231926E+00
          4   -1    0    0  502    0  0.00000000000E+00  0.00000000000E+00  0.63444770700E+02  0.63457480483E+02  0.12700000000E+01 0. -1.
         -4   -1    0    0    0  501 -0.00000000000E+00 -0.00000000000E+00 -0.14855352902E+03  0.14855895760E+03  0.12700000000E+01 0. -1.
         25    2    1    2    0    0  0.20501362785E+02 -0.96441291688E+01 -0.32438231001E+01  0.12707420641E+03  0.12499606571E+03 0.  0.
    9000005    1    3    3    0    0  0.37169365468E+02  0.51571390885E+02 -0.12102168795E+01  0.63589580216E+02  0.10000000000E+01 0.  0.
    9000005    1    3    3    0    0 -0.16668002684E+02 -0.61215520053E+02 -0.20336062206E+01  0.63484626195E+02  0.10000000000E+01 0.  0.
         21    1    1    2  502  501 -0.20501362785E+02  0.96441291688E+01 -0.81864935216E+02  0.84942231671E+02  0.00000000000E+00 0. -1.
<mgrwt>
<rscale>  1 0.12703280E+03</rscale>
<asrwt>0</asrwt>
<pdfrwt beam="1">  1        4 0.97621292E-02 0.12703280E+03</pdfrwt>
<pdfrwt beam="2">  1       -4 0.22855784E-01 0.12703280E+03</pdfrwt>
<totfact> 0.22597820E+03</totfact>
</mgrwt>
</event>
<event>
 6    4  0.2103460E-003  0.1274894E+03  0.7818608E-02  0.1231229E+00
          4   -1    0    0  502    0  0.00000000000E+00  0.00000000000E+00  0.10300903480E+02  0.10378897461E+02  0.12700000000E+01 0.  1.
         -4   -1    0    0    0  501 -0.00000000000E+00 -0.00000000000E+00 -0.57951830795E+03  0.57951969954E+03  0.12700000000E+01 0.  1.
         25    2    1    2    0    0  0.25081306525E+02  0.14400207311E+00 -0.43247342671E+03  0.45087339019E+03  0.12499782597E+03 0.  0.
    9000005    1    3    3    0    0  0.61465564788E+02 -0.11951245113E+02 -0.11374250547E+03  0.12984300314E+03  0.10000000000E+01 0.  0.
    9000005    1    3    3    0    0 -0.36384258263E+02  0.12095247186E+02 -0.31873092124E+03  0.32103038705E+03  0.10000000000E+01 0.  0.
         21    1    1    2  502  501 -0.25081306525E+02 -0.14400207311E+00 -0.13674397776E+03  0.13902520680E+03  0.00000000000E+00 0.  1.
<mgrwt>
<rscale>  1 0.12748941E+03</rscale>
<asrwt>0</asrwt>
<pdfrwt beam="1">  1        4 0.15908614E-02 0.12748941E+03</pdfrwt>
<pdfrwt beam="2">  1       -4 0.89162744E-01 0.12748941E+03</pdfrwt>
<totfact> 0.26134499E+03</totfact>
</mgrwt>
</event>
<event>
 6    4  0.2103460E-003  0.1267839E+03  0.7818608E-02  0.1232307E+00
         -4   -1    0    0    0  501 -0.00000000000E+00  0.00000000000E+00  0.35227368244E+03  0.35227597170E+03  0.12700000000E+01 0. -1.
          4   -1    0    0  502    0  0.00000000000E+00 -0.00000000000E+00 -0.15592748897E+02  0.15644382959E+02  0.12700000000E+01 0. -1.
         25    2    1    2    0    0  0.14579657747E+02  0.15403184588E+02  0.27872122372E+03  0.30620202287E+03  0.12499733496E+03 0.  0.
    9000005    1    3    3    0    0  0.55428084502E+02 -0.17907634631E+01  0.24305857851E+03  0.24930694329E+03  0.10000000000E+01 0.  0.
    9000005    1    3    3    0    0 -0.40848426755E+02  0.17193948051E+02  0.35662645209E+02  0.56895079588E+02  0.10000000000E+01 0.  0.
         21    1    1    2  502  501 -0.14579657747E+02 -0.15403184588E+02  0.57959709826E+02  0.61718331788E+02  0.00000000000E+00 0.  1.
<mgrwt>
<rscale>  1 0.12678390E+03</rscale>
<asrwt>0</asrwt>
<pdfrwt beam="2">  1        4 0.24030326E-02 0.12678390E+03</pdfrwt>
<pdfrwt beam="1">  1       -4 0.54200096E-01 0.12678390E+03</pdfrwt>
<totfact> 0.40438857E+03</totfact>
</mgrwt>
</event>
<event>
 6    4  0.2103460E-003  0.1419597E+03  0.7818608E-02  0.1210716E+00
          4   -1    0    0  502    0  0.00000000000E+00  0.00000000000E+00  0.81578865730E+03  0.81578964585E+03  0.12700000000E+01 0. -1.
         -4   -1    0    0    0  501 -0.00000000000E+00 -0.00000000000E+00 -0.80262759443E+02  0.80272806438E+02  0.12700000000E+01 0. -1.
         25    2    1    2    0    0  0.63430186045E+02 -0.22451594606E+02  0.79419962966E+03  0.80678720709E+03  0.12500033265E+03 0.  0.
    9000005    1    3    3    0    0  0.31429108129E+02  0.47403996196E+02  0.21048841308E+03  0.21803967468E+03  0.10000000000E+01 0.  0.
    9000005    1    3    3    0    0  0.32001077917E+02 -0.69855590802E+02  0.58371121658E+03  0.58874753240E+03  0.10000000000E+01 0.  0.
         21    1    1    2  502  501 -0.63430186045E+02  0.22451594606E+02 -0.58673731805E+02  0.89275245203E+02  0.00000000000E+00 0. -1.
<mgrwt>
<rscale>  1 0.14195966E+03</rscale>
<asrwt>0</asrwt>
<pdfrwt beam="1">  1        4 0.12550680E+00 0.14195966E+03</pdfrwt>
<pdfrwt beam="2">  1       -4 0.12348965E-01 0.14195966E+03</pdfrwt>
<totfact> 0.44704340E+01</totfact>
</mgrwt>
</event>
<event>
 6    4  0.2103460E-003  0.1616895E+03  0.7818608E-02  0.1186802E+00
          4   -1    0    0  502    0  0.00000000000E+00  0.00000000000E+00  0.49834247182E+02  0.49850427202E+02  0.12700000000E+01 0. -1.
         -4   -1    0    0    0  501 -0.00000000000E+00 -0.00000000000E+00 -0.38211296365E+03  0.38211507414E+03  0.12700000000E+01 0. -1.
         25    2    1    2    0    0  0.10923983874E+02 -0.10199906284E+03 -0.13931665879E+03  0.21343061180E+03  0.12498140819E+03 0.  0.
    9000005    1    3    3    0    0  0.15554030067E+02 -0.46210871332E+01 -0.11061105817E+03  0.11179932239E+03  0.10000000000E+01 0.  0.
    9000005    1    3    3    0    0 -0.46300461929E+01 -0.97377975708E+02 -0.28705600618E+02  0.10163128941E+03  0.10000000000E+01 0.  0.
         21    1    1    2  502  501 -0.10923983874E+02  0.10199906284E+03 -0.19296205768E+03  0.21853488954E+03  0.00000000000E+00 0. -1.
<mgrwt>
<rscale>  1 0.16168950E+03</rscale>
<asrwt>0</asrwt>
<pdfrwt beam="1">  1        4 0.76682145E-02 0.16168950E+03</pdfrwt>
<pdfrwt beam="2">  1       -4 0.58788015E-01 0.16168950E+03</pdfrwt>
<totfact> 0.56297640E+02</totfact>
</mgrwt>
</event>
<event>
 6    4  0.2103460E-003  0.1266677E+03  0.7818608E-02  0.1232486E+00
          4   -1    0    0  502    0  0.00000000000E+00  0.00000000000E+00  0.81266670669E+02  0.81276593566E+02  0.12700000000E+01 0. -1.
         -4   -1    0    0    0  501 -0.00000000000E+00 -0.00000000000E+00 -0.10764130458E+03  0.10764879633E+03  0.12700000000E+01 0. -1.
         25    2    1    2    0    0 -0.88049121928E+01  0.18511007498E+02  0.28942683859E+02  0.12993225875E+03  0.12499811614E+03 0.  0.
    9000005    1    3    3    0    0 -0.31504132749E+02  0.41691533308E+02  0.63685104445E+02  0.82386205508E+02  0.10000000000E+01 0.  0.
    9000005    1    3    3    0    0  0.22699220557E+02 -0.23180525810E+02 -0.34742420586E+02  0.47546053242E+02  0.10000000000E+01 0.  0.
         21    1    1    2  502  501  0.88049121928E+01 -0.18511007498E+02 -0.55317317767E+02  0.58993131145E+02  0.00000000000E+00 0.  1.
<mgrwt>
<rscale>  1 0.12666773E+03</rscale>
<asrwt>0</asrwt>
<pdfrwt beam="1">  1        4 0.12503904E-01 0.12666773E+03</pdfrwt>
<pdfrwt beam="2">  1       -4 0.16561540E-01 0.12666773E+03</pdfrwt>
<totfact> 0.26424738E+03</totfact>
</mgrwt>
</event>
<event>
 6    4  0.2103460E-003  0.1289209E+03  0.7818608E-02  0.1229066E+00
         -4   -1    0    0    0  501 -0.00000000000E+00  0.00000000000E+00  0.15717066145E+02  0.15768293130E+02  0.12700000000E+01 0.  1.
          4   -1    0    0  502    0  0.00000000000E+00 -0.00000000000E+00 -0.44368943138E+03  0.44369124897E+03  0.12700000000E+01 0.  1.
         25    2    1    2    0    0 -0.28906943535E+02 -0.12642744386E+02 -0.38593936806E+03  0.40690268507E+03  0.12500059571E+03 0.  0.
    9000005    1    3    3    0    0 -0.61713534615E+02 -0.45644831238E+02 -0.17852603182E+03  0.19433104490E+03  0.10000000000E+01 0.  0.
    9000005    1    3    3    0    0  0.32806591080E+02  0.33002086852E+02 -0.20741333624E+03  0.21257164017E+03  0.10000000000E+01 0.  0.
         21    1    1    2  502  501  0.28906943535E+02  0.12642744386E+02 -0.42032997171E+02  0.52556857034E+02  0.00000000000E+00 0.  1.
<mgrwt>
<rscale>  1 0.12892090E+03</rscale>
<asrwt>0</asrwt>
<pdfrwt beam="2">  1        4 0.68263983E-01 0.12892090E+03</pdfrwt>
<pdfrwt beam="1">  1       -4 0.24220909E-02 0.12892090E+03</pdfrwt>
<totfact> 0.24693572E+03</totfact>
</mgrwt>
</event>
<event>
 6    4  0.2103460E-003  0.1558501E+03  0.7818608E-02  0.1193463E+00
         -4   -1    0    0    0  501 -0.00000000000E+00  0.00000000000E+00  0.43404775773E+02  0.43423351551E+02  0.12700000000E+01 0.  1.
          4   -1    0    0  502    0  0.00000000000E+00 -0.00000000000E+00 -0.37700240404E+03  0.37700454315E+03  0.12700000000E+01 0.  1.
         25    2    1    2    0    0 -0.15644338558E+02  0.91734386474E+02 -0.25384536031E+03  0.29787028687E+03  0.12501719026E+03 0.  0.
    9000005    1    3    3    0    0  0.44978343906E+02  0.22974904315E+00 -0.58535710241E+02  0.73827729063E+02  0.10000000000E+01 0.  0.
    9000005    1    3    3    0    0 -0.60622682465E+02  0.91504637431E+02 -0.19530965007E+03  0.22404255781E+03  0.10000000000E+01 0.  0.
         21    1    1    2  502  501  0.15644338558E+02 -0.91734386474E+02 -0.79752267958E+02  0.12255760782E+03  0.00000000000E+00 0.  1.
<mgrwt>
<rscale>  1 0.15585006E+03</rscale>
<asrwt>0</asrwt>
<pdfrwt beam="2">  1        4 0.58001961E-01 0.15585006E+03</pdfrwt>
<pdfrwt beam="1">  1       -4 0.66792515E-02 0.15585006E+03</pdfrwt>
<totfact> 0.72216118E+02</totfact>
</mgrwt>
</event>
<event>
 6    4  0.2103460E-003  0.1275805E+03  0.7818608E-02  0.1231091E+00
         -4   -1    0    0    0  501 -0.00000000000E+00  0.00000000000E+00  0.11474124295E+03  0.11474827116E+03  0.12700000000E+01 0. -1.
          4   -1    0    0  502    0  0.00000000000E+00 -0.00000000000E+00 -0.60065048798E+02  0.60078473575E+02  0.12700000000E+01 0. -1.
         25    2    1    2    0    0  0.17773970709E+02 -0.18194351088E+02  0.16061178472E+02  0.12858749861E+03  0.12501933810E+03 0.  0.
    9000005    1    3    3    0    0  0.16060827213E+02  0.45024191978E+02  0.38591824616E+02  0.61444747222E+02  0.10000000000E+01 0.  0.
    9000005    1    3    3    0    0  0.17131434966E+01 -0.63218543066E+02 -0.22530646145E+02  0.67142751386E+02  0.10000000000E+01 0.  0.
         21    1    1    2  502  501 -0.17773970709E+02  0.18194351088E+02  0.38615015685E+02  0.46239246129E+02  0.00000000000E+00 0. -1.
<mgrwt>
<rscale>  1 0.12758050E+03</rscale>
<asrwt>0</asrwt>
<pdfrwt beam="2">  1        4 0.92423501E-02 0.12758050E+03</pdfrwt>
<pdfrwt beam="1">  1       -4 0.17654072E-01 0.12758050E+03</pdfrwt>
<totfact> 0.39441081E+03</totfact>
</mgrwt>
</event>
<event>
 6    4  0.2103460E-003  0.1388198E+03  0.7818608E-02  0.1214926E+00
          4   -1    0    0  502    0  0.00000000000E+00  0.00000000000E+00  0.31986802268E+03  0.31987054386E+03  0.12700000000E+01 0. -1.
         -4   -1    0    0    0  501 -0.00000000000E+00 -0.00000000000E+00 -0.32448374820E+02  0.32473218635E+02  0.12700000000E+01 0. -1.
         25    2    1    2    0    0 -0.53608250519E+02 -0.27790116321E+02  0.23212508604E+03  0.27046810278E+03  0.12499921583E+03 0.  0.
    9000005    1    3    3    0    0 -0.53751716882E+01  0.38547116117E+02  0.14775191988E+03  0.15279529594E+03  0.10000000000E+01 0.  0.
    9000005    1    3    3    0    0 -0.48233078831E+02 -0.66337232438E+02  0.84373166163E+02  0.11767280684E+03  0.10000000000E+01 0.  0.
         21    1    1    2  502  501  0.53608250519E+02  0.27790116321E+02  0.55294561811E+02  0.81875659721E+02  0.00000000000E+00 0. -1.
<mgrwt>
<rscale>  1 0.13881981E+03</rscale>
<asrwt>0</asrwt>
<pdfrwt beam="1">  1        4 0.49212568E-01 0.13881981E+03</pdfrwt>
<pdfrwt beam="2">  1       -4 0.49941629E-02 0.13881981E+03</pdfrwt>
<totfact> 0.15872825E+03</totfact>
</mgrwt>
</event>
<event>
 6    4  0.2103460E-003  0.1404062E+03  0.7818608E-02  0.1212783E+00
         -4   -1    0    0    0  501 -0.00000000000E+00  0.00000000000E+00  0.91752183663E+02  0.91760972678E+02  0.12700000000E+01 0. -1.
          4   -1    0    0  502    0  0.00000000000E+00 -0.00000000000E+00 -0.12034998738E+03  0.12035668807E+03  0.12700000000E+01 0. -1.
         25    2    1    2    0    0  0.61606721896E+00 -0.63935391368E+02 -0.42475856972E+02  0.14669049383E+03  0.12500315495E+03 0.  0.
    9000005    1    3    3    0    0  0.44532796317E+01 -0.97467560386E+02 -0.53362656501E+02  0.11121299446E+03  0.10000000000E+01 0.  0.
    9000005    1    3    3    0    0 -0.38372124127E+01  0.33532169017E+02  0.10886799528E+02  0.35477499378E+02  0.10000000000E+01 0.  0.
         21    1    1    2  502  501 -0.61606721896E+00  0.63935391368E+02  0.13878053253E+02  0.65427166913E+02  0.00000000000E+00 0. -1.
<mgrwt>
<rscale>  1 0.14040621E+03</rscale>
<asrwt>0</asrwt>
<pdfrwt beam="2">  1        4 0.18516574E-01 0.14040621E+03</pdfrwt>
<pdfrwt beam="1">  1       -4 0.14116912E-01 0.14040621E+03</pdfrwt>
<totfact> 0.18002927E+03</totfact>
</mgrwt>
</event>
<event>
 6    4  0.2103460E-003  0.1271286E+03  0.7818608E-02  0.1231780E+00
          4   -1    0    0  502    0  0.00000000000E+00  0.00000000000E+00  0.33166885266E+02  0.33191191275E+02  0.12700000000E+01 0.  1.
         -4   -1    0    0    0  501 -0.00000000000E+00 -0.00000000000E+00 -0.17191704916E+03  0.17192174002E+03  0.12700000000E+01 0.  1.
         25    2    1    2    0    0 -0.19429086053E+02  0.12652527712E+02 -0.12426949765E+03  0.17777677324E+03  0.12499638881E+03 0.  0.
    9000005    1    3    3    0    0 -0.44608938648E+01  0.68040801765E+02 -0.81144094593E+02  0.10599440724E+03  0.10000000000E+01 0.  0.
    9000005    1    3    3    0    0 -0.14968192188E+02 -0.55388274052E+02 -0.43125403061E+02  0.71782366004E+02  0.10000000000E+01 0.  0.
         21    1    1    2  502  501  0.19429086053E+02 -0.12652527712E+02 -0.14480666240E+02  0.27336158053E+02  0.00000000000E+00 0. -1.
<mgrwt>
<rscale>  1 0.12712857E+03</rscale>
<asrwt>0</asrwt>
<pdfrwt beam="1">  1        4 0.51048284E-02 0.12712857E+03</pdfrwt>
<pdfrwt beam="2">  1       -4 0.26451007E-01 0.12712857E+03</pdfrwt>
<totfact> 0.50061848E+03</totfact>
</mgrwt>
</event>
<event>
 6    4  0.2103460E-003  0.1452855E+03  0.7818608E-02  0.1206389E+00
          4   -1    0    0  502    0  0.00000000000E+00  0.00000000000E+00  0.17370848716E+03  0.17371312964E+03  0.12700000000E+01 0. -1.
         -4   -1    0    0    0  501 -0.00000000000E+00 -0.00000000000E+00 -0.70539638182E+02  0.70551069835E+02  0.12700000000E+01 0. -1.
         25    2    1    2    0    0  0.62339033247E+02 -0.39953845068E+02  0.83833200831E+02  0.16773752380E+03  0.12500162610E+03 0.  0.
    9000005    1    3    3    0    0 -0.13509870027E+02  0.30271869775E+02 -0.22146987081E+01  0.33238645854E+02  0.10000000000E+01 0.  0.
    9000005    1    3    3    0    0  0.75848903274E+02 -0.70225714843E+02  0.86047899539E+02  0.13449887794E+03  0.10000000000E+01 0.  0.
         21    1    1    2  502  501 -0.62339033247E+02  0.39953845068E+02  0.19335648145E+02  0.76526675682E+02  0.00000000000E+00 0. -1.
<mgrwt>
<rscale>  1 0.14528548E+03</rscale>
<asrwt>0</asrwt>
<pdfrwt beam="1">  1        4 0.26725619E-01 0.14528548E+03</pdfrwt>
<pdfrwt beam="2">  1       -4 0.10853489E-01 0.14528548E+03</pdfrwt>
<totfact> 0.14588260E+03</totfact>
</mgrwt>
</event>
<event>
 6    4  0.2103460E-003  0.1295067E+03  0.7818608E-02  0.1228190E+00
          4   -1    0    0  502    0  0.00000000000E+00  0.00000000000E+00  0.41839824195E+03  0.41840016942E+03  0.12700000000E+01 0. -1.
         -4   -1    0    0    0  501 -0.00000000000E+00 -0.00000000000E+00 -0.16498558379E+02  0.16547366213E+02  0.12700000000E+01 0. -1.
         25    2    1    2    0    0  0.27322360382E+02  0.20008619787E+02  0.34772607827E+03  0.37105985486E+03  0.12500053655E+03 0.  0.
    9000005    1    3    3    0    0  0.71424761012E+02 -0.15037223429E+02  0.18679873872E+03  0.20055518782E+03  0.10000000000E+01 0.  0.
    9000005    1    3    3    0    0 -0.44102400630E+02  0.35045843216E+02  0.16092733956E+03  0.17050466705E+03  0.10000000000E+01 0.  0.
         21    1    1    2  502  501 -0.27322360382E+02 -0.20008619787E+02  0.54173605304E+02  0.63887680771E+02  0.00000000000E+00 0.  1.
<mgrwt>
<rscale>  1 0.12950672E+03</rscale>
<asrwt>0</asrwt>
<pdfrwt beam="1">  1        4 0.64372862E-01 0.12950672E+03</pdfrwt>
<pdfrwt beam="2">  1       -4 0.25421425E-02 0.12950672E+03</pdfrwt>
<totfact> 0.25992423E+03</totfact>
</mgrwt>
</event>
<event>
 6    4  0.2103460E-003  0.1269900E+03  0.7818608E-02  0.1231992E+00
          4   -1    0    0  502    0  0.00000000000E+00  0.00000000000E+00  0.48647405166E+02  0.48663979794E+02  0.12700000000E+01 0.  1.
         -4   -1    0    0    0  501 -0.00000000000E+00 -0.00000000000E+00 -0.19092403804E+03  0.19092826192E+03  0.12700000000E+01 0.  1.
         25    2    1    2    0    0  0.59797478501E+01 -0.21532414678E+02 -0.37431260097E+02  0.13239170786E+03  0.12500825098E+03 0.  0.
    9000005    1    3    3    0    0  0.71822328321E+01  0.49873465358E+02  0.26929934337E+01  0.50469785307E+02  0.10000000000E+01 0.  0.
    9000005    1    3    3    0    0 -0.12024849820E+01 -0.71405880036E+02 -0.40124253531E+02  0.81921922556E+02  0.10000000000E+01 0.  0.
         21    1    1    2  502  501 -0.59797478501E+01  0.21532414678E+02 -0.10484537278E+03  0.10720053386E+03  0.00000000000E+00 0.  1.
<mgrwt>
<rscale>  1 0.12699002E+03</rscale>
<asrwt>0</asrwt>
<pdfrwt beam="1">  1        4 0.74858161E-02 0.12699002E+03</pdfrwt>
<pdfrwt beam="2">  1       -4 0.29374528E-01 0.12699002E+03</pdfrwt>
<totfact> 0.22074663E+03</totfact>
</mgrwt>
</event>
<event>
 6    4  0.2103460E-003  0.1346415E+03  0.7818608E-02  0.1220727E+00
         -4   -1    0    0    0  501 -0.00000000000E+00  0.00000000000E+00  0.10608188185E+02  0.10683939188E+02  0.12700000000E+01 0. -1.
          4   -1    0    0  502    0  0.00000000000E+00 -0.00000000000E+00 -0.99799403374E+03  0.99799484181E+03  0.12700000000E+01 0. -1.
         25    2    1    2    0    0  0.41778923863E+02  0.27506000957E+02 -0.47072600365E+03  0.48960320769E+03  0.12500508750E+03 0.  0.
    9000005    1    3    3    0    0  0.19859809451E+02  0.41360029683E+02 -0.49205879514E+02  0.67285085015E+02  0.10000000000E+01 0.  0.
    9000005    1    3    3    0    0  0.21919114412E+02 -0.13854028726E+02 -0.42152012414E+03  0.42231812268E+03  0.10000000000E+01 0.  0.
         21    1    1    2  502  501 -0.41778923863E+02 -0.27506000957E+02 -0.51665984190E+03  0.51907557330E+03  0.00000000000E+00 0. -1.
<mgrwt>
<rscale>  1 0.13464149E+03</rscale>
<asrwt>0</asrwt>
<pdfrwt beam="2">  1        4 0.15354336E+00 0.13464149E+03</pdfrwt>
<pdfrwt beam="1">  1       -4 0.16379189E-02 0.13464149E+03</pdfrwt>
<totfact> 0.68837857E+02</totfact>
</mgrwt>
</event>
<event>
 6    4  0.2103460E-003  0.1392831E+03  0.7818608E-02  0.1214297E+00
          4   -1    0    0  502    0  0.00000000000E+00  0.00000000000E+00  0.38419301182E+03  0.38419511089E+03  0.12700000000E+01 0. -1.
         -4   -1    0    0    0  501 -0.00000000000E+00 -0.00000000000E+00 -0.82174676040E+02  0.82184489305E+02  0.12700000000E+01 0. -1.
         25    2    1    2    0    0 -0.60763675649E+02  0.90835519158E+01  0.35745172035E+03  0.38362940189E+03  0.12500020170E+03 0.  0.
    9000005    1    3    3    0    0  0.10530420418E+02  0.43914485928E+02  0.56206923509E+02  0.72108183162E+02  0.10000000000E+01 0.  0.
    9000005    1    3    3    0    0 -0.71294096067E+02 -0.34830934012E+02  0.30124479684E+03  0.31152121873E+03  0.10000000000E+01 0.  0.
         21    1    1    2  502  501  0.60763675649E+02 -0.90835519158E+01 -0.55433384569E+02  0.82750198299E+02  0.00000000000E+00 0. -1.
<mgrwt>
<rscale>  1 0.13928311E+03</rscale>
<asrwt>0</asrwt>
<pdfrwt beam="1">  1        4 0.59107535E-01 0.13928311E+03</pdfrwt>
<pdfrwt beam="2">  1       -4 0.12643174E-01 0.13928311E+03</pdfrwt>
<totfact> 0.23305338E+02</totfact>
</mgrwt>
</event>
<event>
 6    4  0.2103460E-003  0.1323263E+03  0.7818608E-02  0.1224044E+00
          4   -1    0    0  502    0  0.00000000000E+00  0.00000000000E+00  0.11753137482E+03  0.11753823619E+03  0.12700000000E+01 0. -1.
         -4   -1    0    0    0  501 -0.00000000000E+00 -0.00000000000E+00 -0.81769748158E+02  0.81779610013E+02  0.12700000000E+01 0. -1.
         25    2    1    2    0    0  0.42485979431E+02 -0.89625016667E+01  0.64539215641E+02  0.14722624888E+03  0.12499949247E+03 0.  0.
    9000005    1    3    3    0    0  0.84134235131E+02 -0.12804893342E+02  0.62028035213E+02  0.10531387357E+03  0.10000000000E+01 0.  0.
    9000005    1    3    3    0    0 -0.41648255700E+02  0.38423916754E+01  0.25111804279E+01  0.41912375305E+02  0.10000000000E+01 0.  0.
         21    1    1    2  502  501 -0.42485979431E+02  0.89625016667E+01 -0.28777588981E+02  0.52091597325E+02  0.00000000000E+00 0. -1.
<mgrwt>
<rscale>  1 0.13232633E+03</rscale>
<asrwt>0</asrwt>
<pdfrwt beam="1">  1        4 0.18083036E-01 0.13232633E+03</pdfrwt>
<pdfrwt beam="2">  1       -4 0.12581248E-01 0.13232633E+03</pdfrwt>
<totfact> 0.22613770E+03</totfact>
</mgrwt>
</event>
<event>
 6    4  0.2103460E-003  0.1379496E+03  0.7818608E-02  0.1216115E+00
          4   -1    0    0  502    0  0.00000000000E+00  0.00000000000E+00  0.80071185198E+03  0.80071285915E+03  0.12700000000E+01 0.  1.
         -4   -1    0    0    0  501 -0.00000000000E+00 -0.00000000000E+00 -0.13756203653E+02  0.13814703723E+02  0.12700000000E+01 0.  1.
         25    2    1    2    0    0 -0.10121303767E+02 -0.57473150992E+02  0.66717151959E+03  0.68128402129E+03  0.12499790894E+03 0.  0.
    9000005    1    3    3    0    0  0.37159629760E+02 -0.27720974217E+02  0.54469618754E+03  0.54666646799E+03  0.10000000000E+01 0.  0.
    9000005    1    3    3    0    0 -0.47280933527E+02 -0.29752176775E+02  0.12247533205E+03  0.13461755331E+03  0.10000000000E+01 0.  0.
         21    1    1    2  502  501  0.10121303767E+02  0.57473150992E+02  0.11978412874E+03  0.13324354158E+03  0.00000000000E+00 0. -1.
<mgrwt>
<rscale>  1 0.13794956E+03</rscale>
<asrwt>0</asrwt>
<pdfrwt beam="1">  1        4 0.12319100E+00 0.13794956E+03</pdfrwt>
<pdfrwt beam="2">  1       -4 0.21209168E-02 0.13794956E+03</pdfrwt>
<totfact> 0.80416873E+02</totfact>
</mgrwt>
</event>
<event>
 6    4  0.2103460E-003  0.1273386E+03  0.7818608E-02  0.1231459E+00
          4   -1    0    0  502    0  0.00000000000E+00  0.00000000000E+00  0.60693377694E+02  0.60706663522E+02  0.12700000000E+01 0.  1.
         -4   -1    0    0    0  501 -0.00000000000E+00 -0.00000000000E+00 -0.97119484863E+02  0.97127788197E+02  0.12700000000E+01 0.  1.
         25    2    1    2    0    0 -0.61610122547E+01 -0.23487574420E+02 -0.20978615706E+02  0.12905513247E+03  0.12500200268E+03 0.  0.
    9000005    1    3    3    0    0  0.51438443197E+01 -0.19707516966E+02 -0.72938800407E+02  0.75735816917E+02  0.10000000000E+01 0.  0.
    9000005    1    3    3    0    0 -0.11304856574E+02 -0.37800574547E+01  0.51960184701E+02  0.53319315549E+02  0.10000000000E+01 0.  0.
         21    1    1    2  502  501  0.61610122547E+01  0.23487574420E+02 -0.15447491462E+02  0.28779319252E+02  0.00000000000E+00 0.  1.
<mgrwt>
<rscale>  1 0.12733862E+03</rscale>
<asrwt>0</asrwt>
<pdfrwt beam="1">  1        4 0.93391034E-02 0.12733862E+03</pdfrwt>
<pdfrwt beam="2">  1       -4 0.14943120E-01 0.12733862E+03</pdfrwt>
<totfact> 0.51930133E+03</totfact>
</mgrwt>
</event>
<event>
 6    4  0.2103460E-003  0.1269760E+03  0.7818608E-02  0.1232013E+00
          4   -1    0    0  502    0  0.00000000000E+00  0.00000000000E+00  0.25287101930E+02  0.25318973597E+02  0.12700000000E+01 0. -1.
         -4   -1    0    0    0  501 -0.00000000000E+00 -0.00000000000E+00 -0.26571065373E+03  0.26571368879E+03  0.12700000000E+01 0. -1.
         25    2    1    2    0    0  0.11880174607E+02 -0.18915850351E+02 -0.14369318380E+03  0.19175672352E+03  0.12499584793E+03 0.  0.
    9000005    1    3    3    0    0 -0.31377966622E+02 -0.59701542245E+02 -0.73391369826E+02  0.99680209173E+02  0.10000000000E+01 0.  0.
    9000005    1    3    3    0    0  0.43258141230E+02  0.40785691894E+02 -0.70301813972E+02  0.92076514344E+02  0.10000000000E+01 0.  0.
         21    1    1    2  502  501 -0.11880174607E+02  0.18915850351E+02 -0.96730368006E+02  0.99275938866E+02  0.00000000000E+00 0. -1.
<mgrwt>
<rscale>  1 0.12697602E+03</rscale>
<asrwt>0</asrwt>
<pdfrwt beam="1">  1        4 0.38930087E-02 0.12697602E+03</pdfrwt>
<pdfrwt beam="2">  1       -4 0.40881245E-01 0.12697602E+03</pdfrwt>
<totfact> 0.33547441E+03</totfact>
</mgrwt>
</event>
<event>
 6    4  0.2103460E-003  0.1317553E+03  0.7818608E-02  0.1224874E+00
          4   -1    0    0  502    0  0.00000000000E+00  0.00000000000E+00  0.27617676961E+02  0.27646862041E+02  0.12700000000E+01 0. -1.
         -4   -1    0    0    0  501 -0.00000000000E+00 -0.00000000000E+00 -0.28900884969E+03  0.28901164007E+03  0.12700000000E+01 0. -1.
         25    2    1    2    0    0  0.39246077802E+02  0.13807337385E+02 -0.16134552513E+03  0.20830708869E+03  0.12501426930E+03 0.  0.
    9000005    1    3    3    0    0 -0.41563797963E+02  0.10651179690E+02 -0.24694754597E+02  0.49515935157E+02  0.10000000000E+01 0.  0.
    9000005    1    3    3    0    0  0.80809875765E+02  0.31561576951E+01 -0.13665077053E+03  0.15879115353E+03  0.10000000000E+01 0.  0.
         21    1    1    2  502  501 -0.39246077802E+02 -0.13807337385E+02 -0.10004564759E+03  0.10835141342E+03  0.00000000000E+00 0. -1.
<mgrwt>
<rscale>  1 0.13175532E+03</rscale>
<asrwt>0</asrwt>
<pdfrwt beam="1">  1        4 0.42513332E-02 0.13175532E+03</pdfrwt>
<pdfrwt beam="2">  1       -4 0.44465357E-01 0.13175532E+03</pdfrwt>
<totfact> 0.24908259E+03</totfact>
</mgrwt>
</event>
<event>
 6    4  0.2103460E-003  0.1415446E+03  0.7818608E-02  0.1211266E+00
          4   -1    0    0  502    0  0.00000000000E+00  0.00000000000E+00  0.22568740027E+02  0.22604444838E+02  0.12700000000E+01 0.  1.
         -4   -1    0    0    0  501 -0.00000000000E+00 -0.00000000000E+00 -0.48008307776E+03  0.48008475757E+03  0.12700000000E+01 0.  1.
         25    2    1    2    0    0 -0.13552409652E+02  0.64995189613E+02 -0.29789957621E+03  0.32981666388E+03  0.12500732694E+03 0.  0.
    9000005    1    3    3    0    0 -0.49773032297E+02  0.67762378728E+02 -0.11011139831E+03  0.13854463090E+03  0.10000000000E+01 0.  0.
    9000005    1    3    3    0    0  0.36220622645E+02 -0.27671891148E+01 -0.18778817790E+03  0.19127203298E+03  0.10000000000E+01 0.  0.
         21    1    1    2  502  501  0.13552409652E+02 -0.64995189613E+02 -0.15961476153E+03  0.17287253853E+03  0.00000000000E+00 0.  1.
<mgrwt>
<rscale>  1 0.14154460E+03</rscale>
<asrwt>0</asrwt>
<pdfrwt beam="1">  1        4 0.34749900E-02 0.14154460E+03</pdfrwt>
<pdfrwt beam="2">  1       -4 0.73861803E-01 0.14154460E+03</pdfrwt>
<totfact> 0.12085787E+03</totfact>
</mgrwt>
</event>
<event>
 6    4  0.2103460E-003  0.1269898E+03  0.7818608E-02  0.1231992E+00
          4   -1    0    0  502    0  0.00000000000E+00  0.00000000000E+00  0.17307258817E+03  0.17307724771E+03  0.12700000000E+01 0. -1.
         -4   -1    0    0    0  501 -0.00000000000E+00 -0.00000000000E+00 -0.35638909459E+02  0.35661530638E+02  0.12700000000E+01 0. -1.
         25    2    1    2    0    0 -0.15467178374E+02 -0.16199095874E+02  0.13633273694E+03  0.18631431879E+03  0.12499906364E+03 0.  0.
    9000005    1    3    3    0    0  0.14385523425E+02 -0.25818340316E+02  0.14941718705E+03  0.15231554670E+03  0.10000000000E+01 0.  0.
    9000005    1    3    3    0    0 -0.29852701799E+02  0.96192444417E+01 -0.13084450116E+02  0.33998772083E+02  0.10000000000E+01 0.  0.
         21    1    1    2  502  501  0.15467178374E+02  0.16199095874E+02  0.11009417755E+01  0.22424459565E+02  0.00000000000E+00 0.  1.
<mgrwt>
<rscale>  1 0.12698980E+03</rscale>
<asrwt>0</asrwt>
<pdfrwt beam="1">  1        4 0.26628650E-01 0.12698980E+03</pdfrwt>
<pdfrwt beam="2">  1       -4 0.54850078E-02 0.12698980E+03</pdfrwt>
<totfact> 0.44029350E+03</totfact>
</mgrwt>
</event>
<event>
 6    4  0.2103460E-003  0.1277285E+03  0.7818608E-02  0.1230866E+00
         -4   -1    0    0    0  501 -0.00000000000E+00  0.00000000000E+00  0.47111007307E+02  0.47128122278E+02  0.12700000000E+01 0. -1.
          4   -1    0    0  502    0  0.00000000000E+00 -0.00000000000E+00 -0.17964808981E+03  0.17965257881E+03  0.12700000000E+01 0. -1.
         25    2    1    2    0    0  0.18160339802E+02 -0.18963383997E+02 -0.14863912171E+03  0.19597999426E+03  0.12500064709E+03 0.  0.
    9000005    1    3    3    0    0  0.71264063572E+02 -0.16481386949E+02 -0.71499402648E+02  0.10229060295E+03  0.10000000000E+01 0.  0.
    9000005    1    3    3    0    0 -0.53103723769E+02 -0.24819970475E+01 -0.77139719064E+02  0.93689391314E+02  0.10000000000E+01 0.  0.
         21    1    1    2  502  501 -0.18160339802E+02  0.18963383997E+02  0.16102039207E+02  0.30800706826E+02  0.00000000000E+00 0. -1.
<mgrwt>
<rscale>  1 0.12772850E+03</rscale>
<asrwt>0</asrwt>
<pdfrwt beam="2">  1        4 0.27639829E-01 0.12772850E+03</pdfrwt>
<pdfrwt beam="1">  1       -4 0.72495092E-02 0.12772850E+03</pdfrwt>
<totfact> 0.26119493E+03</totfact>
</mgrwt>
</event>
<event>
 6    4  0.2103460E-003  0.1269736E+03  0.7818608E-02  0.1232017E+00
         -4   -1    0    0    0  501 -0.00000000000E+00  0.00000000000E+00  0.48328358855E+02  0.48345042865E+02  0.12700000000E+01 0.  1.
          4   -1    0    0  502    0  0.00000000000E+00 -0.00000000000E+00 -0.11553351316E+03  0.11554049318E+03  0.12700000000E+01 0.  1.
         25    2    1    2    0    0  0.22224447752E+02  0.19400063813E+01 -0.54156624757E+02  0.13804073335E+03  0.12499845742E+03 0.  0.
    9000005    1    3    3    0    0 -0.68732785363E+01 -0.58767063552E+02 -0.31265897578E+02  0.66928066368E+02  0.10000000000E+01 0.  0.
    9000005    1    3    3    0    0  0.29097726288E+02  0.60707069933E+02 -0.22890727179E+02  0.71112666985E+02  0.10000000000E+01 0.  0.
         21    1    1    2  502  501 -0.22224447752E+02 -0.19400063813E+01 -0.13048529549E+02  0.25844802689E+02  0.00000000000E+00 0.  1.
<mgrwt>
<rscale>  1 0.12697364E+03</rscale>
<asrwt>0</asrwt>
<pdfrwt beam="2">  1        4 0.17776207E-01 0.12697364E+03</pdfrwt>
<pdfrwt beam="1">  1       -4 0.74369525E-02 0.12697364E+03</pdfrwt>
<totfact> 0.55807106E+03</totfact>
</mgrwt>
</event>
<event>
 6    4  0.2103460E-003  0.1273977E+03  0.7818608E-02  0.1231369E+00
         -4   -1    0    0    0  501 -0.00000000000E+00  0.00000000000E+00  0.19402855926E+02  0.19444374973E+02  0.12700000000E+01 0. -1.
          4   -1    0    0  502    0  0.00000000000E+00 -0.00000000000E+00 -0.29783478301E+03  0.29783749071E+03  0.12700000000E+01 0. -1.
         25    2    1    2    0    0 -0.12959313523E+02 -0.20991958379E+02 -0.23652571508E+03  0.26865330691E+03  0.12498631643E+03 0.  0.
    9000005    1    3    3    0    0 -0.36297819052E+02  0.38097017283E+02 -0.54089911926E+02  0.75469417422E+02  0.10000000000E+01 0.  0.
    9000005    1    3    3    0    0  0.23338505530E+02 -0.59088975661E+02 -0.18243580315E+03  0.19318388949E+03  0.10000000000E+01 0.  0.
         21    1    1    2  502  501  0.12959313523E+02  0.20991958379E+02 -0.41906212004E+02  0.48628558770E+02  0.00000000000E+00 0.  1.
<mgrwt>
<rscale>  1 0.12739774E+03</rscale>
<asrwt>0</asrwt>
<pdfrwt beam="2">  1        4 0.45824135E-01 0.12739774E+03</pdfrwt>
<pdfrwt beam="1">  1       -4 0.29884570E-02 0.12739774E+03</pdfrwt>
<totfact> 0.40566618E+03</totfact>
</mgrwt>
</event>
<event>
 6    4  0.2103460E-003  0.1286894E+03  0.7818608E-02  0.1229414E+00
          4   -1    0    0  502    0  0.00000000000E+00  0.00000000000E+00  0.56038821729E+03  0.56038965638E+03  0.12700000000E+01 0. -1.
         -4   -1    0    0    0  501 -0.00000000000E+00 -0.00000000000E+00 -0.13181347271E+02  0.13242387092E+02  0.12700000000E+01 0. -1.
         25    2    1    2    0    0 -0.13609457869E+02  0.27362840342E+02  0.50729752249E+03  0.52336576854E+03  0.12500803567E+03 0.  0.
    9000005    1    3    3    0    0  0.52920409481E+02 -0.63036389602E+01  0.24101065387E+03  0.24683484535E+03  0.10000000000E+01 0.  0.
    9000005    1    3    3    0    0 -0.66529867350E+02  0.33666479302E+02  0.26628686862E+03  0.27653092319E+03  0.10000000000E+01 0.  0.
         21    1    1    2  502  501  0.13609457869E+02 -0.27362840342E+02  0.39909347529E+02  0.50266274930E+02  0.00000000000E+00 0. -1.
<mgrwt>
<rscale>  1 0.12868936E+03</rscale>
<asrwt>0</asrwt>
<pdfrwt beam="1">  1        4 0.86218361E-01 0.12868936E+03</pdfrwt>
<pdfrwt beam="2">  1       -4 0.20327061E-02 0.12868936E+03</pdfrwt>
<totfact> 0.19398718E+03</totfact>
</mgrwt>
</event>
<event>
 6    4  0.2103460E-003  0.1278466E+03  0.7818608E-02  0.1230686E+00
          4   -1    0    0  502    0  0.00000000000E+00  0.00000000000E+00  0.81028870706E+03  0.81028970233E+03  0.12700000000E+01 0. -1.
         -4   -1    0    0    0  501 -0.00000000000E+00 -0.00000000000E+00 -0.89255585918E+01  0.90154587336E+01  0.12700000000E+01 0. -1.
         25    2    1    2    0    0 -0.43215523293E+00 -0.26827343735E+02  0.75491858903E+03  0.76566757879E+03  0.12499948806E+03 0.  0.
    9000005    1    3    3    0    0  0.59515482168E+02  0.34593664349E+01  0.30646066201E+03  0.31220697813E+03  0.10000000000E+01 0.  0.
    9000005    1    3    3    0    0 -0.59947637401E+02 -0.30286710170E+02  0.44845792701E+03  0.45346060065E+03  0.10000000000E+01 0.  0.
         21    1    1    2  502  501  0.43215523293E+00  0.26827343735E+02  0.46444559444E+02  0.53637582272E+02  0.00000000000E+00 0.  1.
<mgrwt>
<rscale>  1 0.12784665E+03</rscale>
<asrwt>0</asrwt>
<pdfrwt beam="1">  1        4 0.12466676E+00 0.12784665E+03</pdfrwt>
<pdfrwt beam="2">  1       -4 0.13801552E-02 0.12784665E+03</pdfrwt>
<totfact> 0.14847261E+03</totfact>
</mgrwt>
</event>
<event>
 6    4  0.2103460E-003  0.1328402E+03  0.7818608E-02  0.1223301E+00
          4   -1    0    0  502    0  0.00000000000E+00  0.00000000000E+00  0.36442905007E+02  0.36465027429E+02  0.12700000000E+01 0.  1.
         -4   -1    0    0    0  501 -0.00000000000E+00 -0.00000000000E+00 -0.39663133268E+03  0.39663336593E+03  0.12700000000E+01 0.  1.
         25    2    1    2    0    0  0.44894341549E+02  0.24511642712E+01 -0.93013294671E+02  0.16216655358E+03  0.12500003202E+03 0.  0.
    9000005    1    3    3    0    0 -0.36229951932E+02 -0.20125635272E+02 -0.57226523080E+02  0.70664882055E+02  0.10000000000E+01 0.  0.
    9000005    1    3    3    0    0  0.81124293481E+02  0.22576799544E+02 -0.35786771591E+02  0.91501671522E+02  0.10000000000E+01 0.  0.
         21    1    1    2  502  501 -0.44894341549E+02 -0.24511642712E+01 -0.26717513300E+03  0.27093183978E+03  0.00000000000E+00 0.  1.
<mgrwt>
<rscale>  1 0.13284020E+03</rscale>
<asrwt>0</asrwt>
<pdfrwt beam="1">  1        4 0.56084592E-02 0.13284020E+03</pdfrwt>
<pdfrwt beam="2">  1       -4 0.61022060E-01 0.13284020E+03</pdfrwt>
<totfact> 0.83599725E+02</totfact>
</mgrwt>
</event>
<event>
 6    4  0.2103460E-003  0.1310864E+03  0.7818608E-02  0.1225853E+00
         -4   -1    0    0    0  501 -0.00000000000E+00  0.00000000000E+00  0.16000743425E+03  0.16001247425E+03  0.12700000000E+01 0. -1.
          4   -1    0    0  502    0  0.00000000000E+00 -0.00000000000E+00 -0.47455719690E+02  0.47472710384E+02  0.12700000000E+01 0. -1.
         25    2    1    2    0    0  0.37236595145E+02  0.13106485151E+02  0.67026568462E+02  0.14722837673E+03  0.12500116025E+03 0.  0.
    9000005    1    3    3    0    0  0.65288356227E+02  0.27280031144E+02 -0.26179958162E+01  0.70814006101E+02  0.10000000000E+01 0.  0.
    9000005    1    3    3    0    0 -0.28051761081E+02 -0.14173545993E+02  0.69644564278E+02  0.76414370633E+02  0.10000000000E+01 0.  0.
         21    1    1    2  502  501 -0.37236595145E+02 -0.13106485151E+02  0.45525146104E+02  0.60256807904E+02  0.00000000000E+00 0. -1.
<mgrwt>
<rscale>  1 0.13108636E+03</rscale>
<asrwt>0</asrwt>
<pdfrwt beam="2">  1        4 0.73025747E-02 0.13108636E+03</pdfrwt>
<pdfrwt beam="1">  1       -4 0.24618223E-01 0.13108636E+03</pdfrwt>
<totfact> 0.32187176E+03</totfact>
</mgrwt>
</event>
<event>
 6    4  0.2103460E-003  0.1385682E+03  0.7818608E-02  0.1215269E+00
         -4   -1    0    0    0  501 -0.00000000000E+00  0.00000000000E+00  0.31086650453E+02  0.31112581641E+02  0.12700000000E+01 0. -1.
          4   -1    0    0  502    0  0.00000000000E+00 -0.00000000000E+00 -0.33568922431E+03  0.33569162667E+03  0.12700000000E+01 0. -1.
         25    2    1    2    0    0 -0.15807807101E+02  0.57682254609E+02 -0.24992552664E+03  0.28576897675E+03  0.12499603971E+03 0.  0.
    9000005    1    3    3    0    0 -0.12593521009E+02 -0.31433769578E+02 -0.20443532991E+02  0.39567874373E+02  0.10000000000E+01 0.  0.
    9000005    1    3    3    0    0 -0.32142860918E+01  0.89116024187E+02 -0.22948199365E+03  0.24620110238E+03  0.10000000000E+01 0.  0.
         21    1    1    2  502  501  0.15807807101E+02 -0.57682254609E+02 -0.54677047216E+02  0.81035231563E+02  0.00000000000E+00 0. -1.
<mgrwt>
<rscale>  1 0.13856818E+03</rscale>
<asrwt>0</asrwt>
<pdfrwt beam="2">  1        4 0.51646673E-01 0.13856818E+03</pdfrwt>
<pdfrwt beam="1">  1       -4 0.47847414E-02 0.13856818E+03</pdfrwt>
<totfact> 0.15402297E+03</totfact>
</mgrwt>
</event>
<event>
 6    4  0.2103460E-003  0.1427932E+03  0.7818608E-02  0.1209619E+00
         -4   -1    0    0    0  501 -0.00000000000E+00  0.00000000000E+00  0.16140718380E+02  0.16190604987E+02  0.12700000000E+01 0.  1.
          4   -1    0    0  502    0  0.00000000000E+00 -0.00000000000E+00 -0.69524748964E+03  0.69524864959E+03  0.12700000000E+01 0.  1.
         25    2    1    2    0    0  0.22120560056E+02  0.65398076489E+02 -0.47225288431E+03  0.49336871981E+03  0.12499471733E+03 0.  0.
    9000005    1    3    3    0    0  0.14248562481E+02  0.48987728883E+02 -0.47239197189E+03  0.47513997329E+03  0.10000000000E+01 0.  0.
    9000005    1    3    3    0    0  0.78719975749E+01  0.16410347606E+02  0.13908757569E+00  0.18228746521E+02  0.10000000000E+01 0.  0.
         21    1    1    2  502  501 -0.22120560056E+02 -0.65398076489E+02 -0.20685388695E+03  0.21807053476E+03  0.00000000000E+00 0.  1.
<mgrwt>
<rscale>  1 0.14279323E+03</rscale>
<asrwt>0</asrwt>
<pdfrwt beam="2">  1        4 0.10696506E+00 0.14279323E+03</pdfrwt>
<pdfrwt beam="1">  1       -4 0.24871146E-02 0.14279323E+03</pdfrwt>
<totfact> 0.88532150E+02</totfact>
</mgrwt>
</event>
<event>
 6    4  0.2103460E-003  0.1301493E+03  0.7818608E-02  0.1227234E+00
          4   -1    0    0  502    0  0.00000000000E+00  0.00000000000E+00  0.85070918735E+02  0.85080397945E+02  0.12700000000E+01 0. -1.
         -4   -1    0    0    0  501 -0.00000000000E+00 -0.00000000000E+00 -0.17003799348E+03  0.17004273618E+03  0.12700000000E+01 0. -1.
         25    2    1    2    0    0 -0.34135946726E+02  0.12148571420E+02  0.30862582354E+02  0.13375855894E+03  0.12500400975E+03 0.  0.
    9000005    1    3    3    0    0  0.41216527683E+02 -0.22623881702E+02  0.14004847103E+02  0.49069113706E+02  0.10000000000E+01 0.  0.
    9000005    1    3    3    0    0 -0.75352474408E+02  0.34772453122E+02  0.16857735251E+02  0.84689445230E+02  0.10000000000E+01 0.  0.
         21    1    1    2  502  501  0.34135946726E+02 -0.12148571420E+02 -0.11582965710E+03  0.12136457519E+03  0.00000000000E+00 0. -1.
<mgrwt>
<rscale>  1 0.13014935E+03</rscale>
<asrwt>0</asrwt>
<pdfrwt beam="1">  1        4 0.13088928E-01 0.13014935E+03</pdfrwt>
<pdfrwt beam="2">  1       -4 0.26160785E-01 0.13014935E+03</pdfrwt>
<totfact> 0.10765958E+03</totfact>
</mgrwt>
</event>
<event>
 6    4  0.2103460E-003  0.1457045E+03  0.7818608E-02  0.1205853E+00
          4   -1    0    0  502    0  0.00000000000E+00  0.00000000000E+00  0.98286795997E+02  0.98295000724E+02  0.12700000000E+01 0.  1.
         -4   -1    0    0    0  501 -0.00000000000E+00 -0.00000000000E+00 -0.18061701482E+03  0.18062147974E+03  0.12700000000E+01 0.  1.
         25    2    1    2    0    0 -0.70895435205E+02 -0.24073259038E+02  0.25220646687E+02  0.14787117072E+03  0.12499647026E+03 0.  0.
    9000005    1    3    3    0    0  0.28718429075E+02  0.21092651493E+02  0.12407080998E+02  0.37743658731E+02  0.10000000000E+01 0.  0.
    9000005    1    3    3    0    0 -0.99613864280E+02 -0.45165910531E+02  0.12813565689E+02  0.11012751199E+03  0.10000000000E+01 0.  0.
         21    1    1    2  502  501  0.70895435205E+02  0.24073259038E+02 -0.10755086551E+03  0.13104530974E+03  0.00000000000E+00 0.  1.
<mgrwt>
<rscale>  1 0.14570450E+03</rscale>
<asrwt>0</asrwt>
<pdfrwt beam="1">  1        4 0.15122020E-01 0.14570450E+03</pdfrwt>
<pdfrwt beam="2">  1       -4 0.27788208E-01 0.14570450E+03</pdfrwt>
<totfact> 0.76624905E+02</totfact>
</mgrwt>
</event>
<event>
 6    4  0.2103460E-003  0.1378770E+03  0.7818608E-02  0.1216214E+00
         -4   -1    0    0    0  501 -0.00000000000E+00  0.00000000000E+00  0.98519928960E+01  0.99335121696E+01  0.12700000000E+01 0. -1.
          4   -1    0    0  502    0  0.00000000000E+00 -0.00000000000E+00 -0.14875071291E+04  0.14875076712E+04  0.12700000000E+01 0. -1.
         25    2    1    2    0    0 -0.55397548305E+02  0.17750723670E+02 -0.13515605477E+04  0.13585749823E+04  0.12500436802E+03 0.  0.
    9000005    1    3    3    0    0  0.40242620877E+02  0.11373603194E+02 -0.37868660405E+03  0.38098998868E+03  0.10000000000E+01 0.  0.
    9000005    1    3    3    0    0 -0.95640169182E+02  0.63771204764E+01 -0.97287394362E+03  0.97758499365E+03  0.10000000000E+01 0.  0.
         21    1    1    2  502  501  0.55397548305E+02 -0.17750723670E+02 -0.12609458853E+03  0.13886620109E+03  0.00000000000E+00 0. -1.
<mgrwt>
<rscale>  1 0.13787701E+03</rscale>
<asrwt>0</asrwt>
<pdfrwt beam="2">  1        4 0.22885339E+00 0.13787701E+03</pdfrwt>
<pdfrwt beam="1">  1       -4 0.15220048E-02 0.13787701E+03</pdfrwt>
<totfact> 0.25369242E+02</totfact>
</mgrwt>
</event>
<event>
 6    4  0.2103460E-003  0.1318029E+03  0.7818608E-02  0.1224805E+00
         -4   -1    0    0    0  501 -0.00000000000E+00  0.00000000000E+00  0.40082688519E+02  0.40102803130E+02  0.12700000000E+01 0. -1.
          4   -1    0    0  502    0  0.00000000000E+00 -0.00000000000E+00 -0.18934166408E+03  0.18934592327E+03  0.12700000000E+01 0. -1.
         25    2    1    2    0    0  0.29187078363E+02  0.29924160198E+02 -0.10447546445E+03  0.16818777820E+03  0.12499866061E+03 0.  0.
    9000005    1    3    3    0    0 -0.42048138697E+02 -0.10894561884E+02 -0.62100251167E+02  0.75790359819E+02  0.10000000000E+01 0.  0.
    9000005    1    3    3    0    0  0.71235217060E+02  0.40818722082E+02 -0.42375213287E+02  0.92397418379E+02  0.10000000000E+01 0.  0.
         21    1    1    2  502  501 -0.29187078363E+02 -0.29924160198E+02 -0.44783511111E+02  0.61260948200E+02  0.00000000000E+00 0.  1.
<mgrwt>
<rscale>  1 0.13180291E+03</rscale>
<asrwt>0</asrwt>
<pdfrwt beam="2">  1        4 0.29131361E-01 0.13180291E+03</pdfrwt>
<pdfrwt beam="1">  1       -4 0.61684425E-02 0.13180291E+03</pdfrwt>
<totfact> 0.31054621E+03</totfact>
</mgrwt>
</event>
<event>
 6    4  0.2103460E-003  0.1629858E+03  0.7818608E-02  0.1185366E+00
         -4   -1    0    0    0  501 -0.00000000000E+00  0.00000000000E+00  0.71275859790E+02  0.71287173383E+02  0.12700000000E+01 0. -1.
          4   -1    0    0  502    0  0.00000000000E+00 -0.00000000000E+00 -0.29817355304E+03  0.29817625766E+03  0.12700000000E+01 0. -1.
         25    2    1    2    0    0 -0.92966096974E+02 -0.47927668338E+02 -0.20620984414E+03  0.26284380958E+03  0.12499844734E+03 0.  0.
    9000005    1    3    3    0    0 -0.87036181171E+02 -0.67309995936E+02 -0.82615676298E+02  0.13759463055E+03  0.10000000000E+01 0.  0.
    9000005    1    3    3    0    0 -0.59299158027E+01  0.19382327597E+02 -0.12359416784E+03  0.12524917904E+03  0.10000000000E+01 0.  0.
         21    1    1    2  502  501  0.92966096974E+02  0.47927668338E+02 -0.20687849108E+02  0.10661962146E+03  0.00000000000E+00 0. -1.
<mgrwt>
<rscale>  1 0.16298579E+03</rscale>
<asrwt>0</asrwt>
<pdfrwt beam="2">  1        4 0.45873932E-01 0.16298579E+03</pdfrwt>
<pdfrwt beam="1">  1       -4 0.10966595E-01 0.16298579E+03</pdfrwt>
<totfact> 0.51489674E+02</totfact>
</mgrwt>
</event>
<event>
 6    4  0.2103460E-003  0.1266464E+03  0.7818608E-02  0.1232518E+00
         -4   -1    0    0    0  501 -0.00000000000E+00  0.00000000000E+00  0.37471762219E+02  0.37493277581E+02  0.12700000000E+01 0. -1.
          4   -1    0    0  502    0  0.00000000000E+00 -0.00000000000E+00 -0.19274438118E+03  0.19274856518E+03  0.12700000000E+01 0. -1.
         25    2    1    2    0    0  0.13690276273E+02  0.15061954919E+02 -0.16473932900E+03  0.20779401994E+03  0.12500008820E+03 0.  0.
    9000005    1    3    3    0    0  0.50786931673E+02  0.31769829814E+02 -0.15467037290E+03  0.16586910130E+03  0.10000000000E+01 0.  0.
    9000005    1    3    3    0    0 -0.37096655400E+02 -0.16707874895E+02 -0.10068956108E+02  0.41924918634E+02  0.10000000000E+01 0.  0.
         21    1    1    2  502  501 -0.13690276273E+02 -0.15061954919E+02  0.94667100395E+01  0.22447822820E+02  0.00000000000E+00 0. -1.
<mgrwt>
<rscale>  1 0.12664639E+03</rscale>
<asrwt>0</asrwt>
<pdfrwt beam="2">  1        4 0.29654958E-01 0.12664639E+03</pdfrwt>
<pdfrwt beam="1">  1       -4 0.57668635E-02 0.12664639E+03</pdfrwt>
<totfact> 0.33174453E+03</totfact>
</mgrwt>
</event>
<event>
 6    4  0.2103460E-003  0.1275422E+03  0.7818608E-02  0.1231149E+00
          4   -1    0    0  502    0  0.00000000000E+00  0.00000000000E+00  0.29510594493E+03  0.29510867767E+03  0.12700000000E+01 0.  1.
         -4   -1    0    0    0  501 -0.00000000000E+00 -0.00000000000E+00 -0.19865932416E+02  0.19906485646E+02  0.12700000000E+01 0.  1.
         25    2    1    2    0    0  0.23843111422E+02 -0.86092535878E+01  0.23692416780E+03  0.26907262131E+03  0.12499760414E+03 0.  0.
    9000005    1    3    3    0    0  0.43703877886E+02  0.25371178804E+02  0.30729178266E+02  0.59152413755E+02  0.10000000000E+01 0.  0.
    9000005    1    3    3    0    0 -0.19860766463E+02 -0.33980432391E+02  0.20619498953E+03  0.20992020755E+03  0.10000000000E+01 0.  0.
         21    1    1    2  502  501 -0.23843111422E+02  0.86092535878E+01  0.38315844719E+02  0.45942542008E+02  0.00000000000E+00 0.  1.
<mgrwt>
<rscale>  1 0.12754221E+03</rscale>
<asrwt>0</asrwt>
<pdfrwt beam="1">  1        4 0.45404241E-01 0.12754221E+03</pdfrwt>
<pdfrwt beam="2">  1       -4 0.30596272E-02 0.12754221E+03</pdfrwt>
<totfact> 0.39838963E+03</totfact>
</mgrwt>
</event>
<event>
 6    4  0.2103460E-003  0.1291415E+03  0.7818608E-02  0.1228735E+00
          4   -1    0    0  502    0  0.00000000000E+00  0.00000000000E+00  0.32288539755E+02  0.32313506456E+02  0.12700000000E+01 0. -1.
         -4   -1    0    0    0  501 -0.00000000000E+00 -0.00000000000E+00 -0.56752154878E+03  0.56752296978E+03  0.12700000000E+01 0. -1.
         25    2    1    2    0    0 -0.18338037445E+02 -0.26677481926E+02 -0.99821864010E+02  0.16322356202E+03  0.12501821869E+03 0.  0.
    9000005    1    3    3    0    0 -0.21488992081E+02 -0.22361453865E+02  0.24033962359E+02  0.39248474446E+02  0.10000000000E+01 0.  0.
    9000005    1    3    3    0    0  0.31509546357E+01 -0.43160280601E+01 -0.12385582637E+03  0.12397508757E+03  0.10000000000E+01 0.  0.
         21    1    1    2  502  501  0.18338037445E+02  0.26677481926E+02 -0.43541114502E+03  0.43661291422E+03  0.00000000000E+00 0. -1.
<mgrwt>
<rscale>  1 0.12914150E+03</rscale>
<asrwt>0</asrwt>
<pdfrwt beam="1">  1        4 0.49694979E-02 0.12914150E+03</pdfrwt>
<pdfrwt beam="2">  1       -4 0.87313030E-01 0.12914150E+03</pdfrwt>
<totfact> 0.46369618E+02</totfact>
</mgrwt>
</event>
<event>
 6    4  0.2103460E-003  0.1266306E+03  0.7818608E-02  0.1232543E+00
         -4   -1    0    0    0  501 -0.00000000000E+00  0.00000000000E+00  0.25929882655E+03  0.25930193665E+03  0.12700000000E+01 0. -1.
          4   -1    0    0  502    0  0.00000000000E+00 -0.00000000000E+00 -0.58117544715E+02  0.58131419248E+02  0.12700000000E+01 0. -1.
         25    2    1    2    0    0  0.29584172755E+01 -0.19917462132E+02  0.12016080707E+02  0.12719947130E+03  0.12501944558E+03 0.  0.
    9000005    1    3    3    0    0  0.39535687823E+02  0.30619318698E+02  0.34630348384E+02  0.60834811731E+02  0.10000000000E+01 0.  0.
    9000005    1    3    3    0    0 -0.36577270548E+02 -0.50536780830E+02 -0.22614267677E+02  0.66364659571E+02  0.10000000000E+01 0.  0.
         21    1    1    2  502  501 -0.29584172755E+01  0.19917462132E+02  0.18916520113E+03  0.19023388460E+03  0.00000000000E+00 0. -1.
<mgrwt>
<rscale>  1 0.12663064E+03</rscale>
<asrwt>0</asrwt>
<pdfrwt beam="2">  1        4 0.89424673E-02 0.12663064E+03</pdfrwt>
<pdfrwt beam="1">  1       -4 0.39893433E-01 0.12663064E+03</pdfrwt>
<totfact> 0.91242455E+02</totfact>
</mgrwt>
</event>
<event>
 6    4  0.2103460E-003  0.1282696E+03  0.7818608E-02  0.1230046E+00
         -4   -1    0    0    0  501 -0.00000000000E+00  0.00000000000E+00  0.36303522746E+02  0.36325730052E+02  0.12700000000E+01 0.  1.
          4   -1    0    0  502    0  0.00000000000E+00 -0.00000000000E+00 -0.17477893346E+03  0.17478354752E+03  0.12700000000E+01 0.  1.
         25    2    1    2    0    0 -0.17229643295E+02  0.23056129625E+02 -0.12578757143E+03  0.17965411921E+03  0.12499857480E+03 0.  0.
    9000005    1    3    3    0    0  0.38801106306E+02 -0.31537649284E+02 -0.50670813889E+02  0.71194666606E+02  0.10000000000E+01 0.  0.
    9000005    1    3    3    0    0 -0.56030749601E+02  0.54593778909E+02 -0.75116757541E+02  0.10845945261E+03  0.10000000000E+01 0.  0.
         21    1    1    2  502  501  0.17229643295E+02 -0.23056129625E+02 -0.12687839287E+02  0.31455158355E+02  0.00000000000E+00 0.  1.
<mgrwt>
<rscale>  1 0.12826960E+03</rscale>
<asrwt>0</asrwt>
<pdfrwt beam="2">  1        4 0.26891129E-01 0.12826960E+03</pdfrwt>
<pdfrwt beam="1">  1       -4 0.55872206E-02 0.12826960E+03</pdfrwt>
<totfact> 0.42068367E+03</totfact>
</mgrwt>
</event>
<event>
 6    4  0.2103460E-003  0.1306866E+03  0.7818608E-02  0.1226441E+00
          4   -1    0    0  502    0  0.00000000000E+00  0.00000000000E+00  0.30473558169E+03  0.30473822807E+03  0.12700000000E+01 0. -1.
         -4   -1    0    0    0  501 -0.00000000000E+00 -0.00000000000E+00 -0.23474518223E+02  0.23508847394E+02  0.12700000000E+01 0. -1.
         25    2    1    2    0    0  0.37337798207E+02  0.76371437847E+01  0.22716822691E+03  0.26207705123E+03  0.12500616115E+03 0.  0.
    9000005    1    3    3    0    0  0.11078372222E+02  0.42292452006E+02  0.21130457139E+03  0.21578230631E+03  0.10000000000E+01 0.  0.
    9000005    1    3    3    0    0  0.26259425985E+02 -0.34655308222E+02  0.15863655524E+02  0.46294744924E+02  0.10000000000E+01 0.  0.
         21    1    1    2  502  501 -0.37337798207E+02 -0.76371437847E+01  0.54092836561E+02  0.66170024236E+02  0.00000000000E+00 0. -1.
<mgrwt>
<rscale>  1 0.13068656E+03</rscale>
<asrwt>0</asrwt>
<pdfrwt beam="1">  1        4 0.46885236E-01 0.13068656E+03</pdfrwt>
<pdfrwt beam="2">  1       -4 0.36143090E-02 0.13068656E+03</pdfrwt>
<totfact> 0.28913641E+03</totfact>
</mgrwt>
</event>
<event>
 6    4  0.2103460E-003  0.1269324E+03  0.7818608E-02  0.1232080E+00
         -4   -1    0    0    0  501 -0.00000000000E+00  0.00000000000E+00  0.61795170201E+02  0.61808219196E+02  0.12700000000E+01 0.  1.
          4   -1    0    0  502    0  0.00000000000E+00 -0.00000000000E+00 -0.15849116432E+03  0.15849625254E+03  0.12700000000E+01 0.  1.
         25    2    1    2    0    0  0.90776934086E+01  0.20119301216E+02 -0.12913145841E+03  0.18107119323E+03  0.12499861066E+03 0.  0.
    9000005    1    3    3    0    0 -0.30906743248E+02  0.49637322628E+02 -0.21135023890E+02  0.62183436788E+02  0.10000000000E+01 0.  0.
    9000005    1    3    3    0    0  0.39984436657E+02 -0.29518021412E+02 -0.10799643452E+03  0.11888775644E+03  0.10000000000E+01 0.  0.
         21    1    1    2  502  501 -0.90776934086E+01 -0.20119301216E+02  0.32435464285E+02  0.39233278507E+02  0.00000000000E+00 0.  1.
<mgrwt>
<rscale>  1 0.12693244E+03</rscale>
<asrwt>0</asrwt>
<pdfrwt beam="2">  1        4 0.24384651E-01 0.12693244E+03</pdfrwt>
<pdfrwt beam="1">  1       -4 0.95083444E-02 0.12693244E+03</pdfrwt>
<totfact> 0.20974534E+03</totfact>
</mgrwt>
</event>
<event>
 6    4  0.2103460E-003  0.1432154E+03  0.7818608E-02  0.1209067E+00
         -4   -1    0    0    0  501 -0.00000000000E+00  0.00000000000E+00  0.27888192663E+03  0.27888481834E+03  0.12700000000E+01 0.  1.
          4   -1    0    0  502    0  0.00000000000E+00 -0.00000000000E+00 -0.10043781050E+03  0.10044583953E+03  0.12700000000E+01 0.  1.
         25    2    1    2    0    0 -0.67220656320E+02  0.19161424589E+02 -0.41044510699E+02  0.14898084968E+03  0.12499945953E+03 0.  0.
    9000005    1    3    3    0    0 -0.88783022948E+02  0.47218834527E+01 -0.67708828939E+02  0.11175959405E+03  0.10000000000E+01 0.  0.
    9000005    1    3    3    0    0  0.21562366628E+02  0.14439541137E+02  0.26664318239E+02  0.37221255621E+02  0.10000000000E+01 0.  0.
         21    1    1    2  502  501  0.67220656320E+02 -0.19161424589E+02  0.21948862682E+03  0.23034980819E+03  0.00000000000E+00 0.  1.
<mgrwt>
<rscale>  1 0.14321537E+03</rscale>
<asrwt>0</asrwt>
<pdfrwt beam="2">  1        4 0.15452811E-01 0.14321537E+03</pdfrwt>
<pdfrwt beam="1">  1       -4 0.42905752E-01 0.14321537E+03</pdfrwt>
<totfact> 0.31796348E+02</totfact>
</mgrwt>
</event>
<event>
 6    4  0.2103460E-003  0.1312691E+03  0.7818608E-02  0.1225585E+00
         -4   -1    0    0    0  501 -0.00000000000E+00  0.00000000000E+00  0.16603841352E+03  0.16604327046E+03  0.12700000000E+01 0. -1.
          4   -1    0    0  502    0  0.00000000000E+00 -0.00000000000E+00 -0.11224509603E+03  0.11225228052E+03  0.12700000000E+01 0. -1.
         25    2    1    2    0    0  0.30242186901E+02 -0.26302947767E+02 -0.69583773978E+02  0.14857145287E+03  0.12500056031E+03 0.  0.
    9000005    1    3    3    0    0  0.34484703036E+02 -0.22421897775E+02  0.28667240190E+02  0.50147252202E+02  0.10000000000E+01 0.  0.
    9000005    1    3    3    0    0 -0.42425161350E+01 -0.38810499924E+01 -0.98251014168E+02  0.98424200668E+02  0.10000000000E+01 0.  0.
         21    1    1    2  502  501 -0.30242186901E+02  0.26302947767E+02  0.12337709147E+03  0.12972409811E+03  0.00000000000E+00 0. -1.
<mgrwt>
<rscale>  1 0.13126909E+03</rscale>
<asrwt>0</asrwt>
<pdfrwt beam="2">  1        4 0.17269403E-01 0.13126909E+03</pdfrwt>
<pdfrwt beam="1">  1       -4 0.25545297E-01 0.13126909E+03</pdfrwt>
<totfact> 0.69488003E+02</totfact>
</mgrwt>
</event>
<event>
 6    4  0.2103460E-003  0.1307462E+03  0.7818608E-02  0.1226353E+00
          4   -1    0    0  502    0  0.00000000000E+00  0.00000000000E+00  0.13417992654E+04  0.13417998664E+04  0.12700000000E+01 0.  1.
         -4   -1    0    0    0  501 -0.00000000000E+00 -0.00000000000E+00 -0.24261337412E+02  0.24294554802E+02  0.12700000000E+01 0.  1.
         25    2    1    2    0    0 -0.22249181469E+02  0.31224330414E+02  0.13211320456E+04  0.13275859473E+04  0.12499832287E+03 0.  0.
    9000005    1    3    3    0    0  0.19998931709E+01 -0.98451302396E+01  0.63244567927E+01  0.11913224410E+02  0.10000000000E+01 0.  0.
    9000005    1    3    3    0    0 -0.24249074640E+02  0.41069460653E+02  0.13148075888E+04  0.13156727229E+04  0.10000000000E+01 0.  0.
         21    1    1    2  502  501  0.22249181469E+02 -0.31224330414E+02 -0.35941175556E+01  0.38508473961E+02  0.00000000000E+00 0.  1.
<mgrwt>
<rscale>  1 0.13074619E+03</rscale>
<asrwt>0</asrwt>
<pdfrwt beam="1">  1        4 0.20643331E+00 0.13074619E+03</pdfrwt>
<pdfrwt beam="2">  1       -4 0.37351140E-02 0.13074619E+03</pdfrwt>
<totfact> 0.85153823E+01</totfact>
</mgrwt>
</event>
<event>
 6    4  0.2103460E-003  0.1341821E+03  0.7818608E-02  0.1221379E+00
         -4   -1    0    0    0  501 -0.00000000000E+00  0.00000000000E+00  0.11421168419E+03  0.11421874498E+03  0.12700000000E+01 0. -1.
          4   -1    0    0  502    0  0.00000000000E+00 -0.00000000000E+00 -0.73618258565E+02  0.73629212233E+02  0.12700000000E+01 0. -1.
         25    2    1    2    0    0  0.48496222008E+02 -0.53118324304E+01  0.23962889283E+02  0.13630502509E+03  0.12499896275E+03 0.  0.
    9000005    1    3    3    0    0 -0.20313382600E+02  0.40904475932E+02  0.27524120345E+02  0.53332793521E+02  0.10000000000E+01 0.  0.
    9000005    1    3    3    0    0  0.68809604608E+02 -0.46216308363E+02 -0.35612310624E+01  0.82972231570E+02  0.10000000000E+01 0.  0.
         21    1    1    2  502  501 -0.48496222008E+02  0.53118324304E+01  0.16630536339E+02  0.51542932122E+02  0.00000000000E+00 0. -1.
<mgrwt>
<rscale>  1 0.13418211E+03</rscale>
<asrwt>0</asrwt>
<pdfrwt beam="2">  1        4 0.11327272E-01 0.13418211E+03</pdfrwt>
<pdfrwt beam="1">  1       -4 0.17572414E-01 0.13418211E+03</pdfrwt>
<totfact> 0.28560445E+03</totfact>
</mgrwt>
</event>
<event>
 6    4  0.2103460E-003  0.1282738E+03  0.7818608E-02  0.1230040E+00
          4   -1    0    0  502    0  0.00000000000E+00  0.00000000000E+00  0.46301622655E+02  0.46319036696E+02  0.12700000000E+01 0.  1.
         -4   -1    0    0    0  501 -0.00000000000E+00 -0.00000000000E+00 -0.14007940289E+03  0.14008515986E+03  0.12700000000E+01 0.  1.
         25    2    1    2    0    0 -0.28425214783E+02 -0.47236182125E+01 -0.58863863691E+02  0.14113514562E+03  0.12499547782E+03 0.  0.
    9000005    1    3    3    0    0 -0.40105262159E+02 -0.45271487919E+02  0.90612211684E+01  0.61164085870E+02  0.10000000000E+01 0.  0.
    9000005    1    3    3    0    0  0.11680047375E+02  0.40547869706E+02 -0.67925084860E+02  0.79971059750E+02  0.10000000000E+01 0.  0.
         21    1    1    2  502  501  0.28425214783E+02  0.47236182125E+01 -0.34913916543E+02  0.45269050938E+02  0.00000000000E+00 0.  1.
<mgrwt>
<rscale>  1 0.12827383E+03</rscale>
<asrwt>0</asrwt>
<pdfrwt beam="1">  1        4 0.71251090E-02 0.12827383E+03</pdfrwt>
<pdfrwt beam="2">  1       -4 0.21552460E-01 0.12827383E+03</pdfrwt>
<totfact> 0.42503870E+03</totfact>
</mgrwt>
</event>
<event>
 6    4  0.2103460E-003  0.1285059E+03  0.7818608E-02  0.1229690E+00
         -4   -1    0    0    0  501 -0.00000000000E+00  0.00000000000E+00  0.25156820930E+03  0.25157141498E+03  0.12700000000E+01 0.  1.
          4   -1    0    0  502    0  0.00000000000E+00 -0.00000000000E+00 -0.30187922022E+02  0.30214624538E+02  0.12700000000E+01 0.  1.
         25    2    1    2    0    0 -0.15467607627E+02  0.25519033388E+02  0.11898765809E+03  0.17513371434E+03  0.12499314850E+03 0.  0.
    9000005    1    3    3    0    0 -0.62016309019E+02  0.19175428676E+02  0.10934423645E+03  0.12716478166E+03  0.10000000000E+01 0.  0.
    9000005    1    3    3    0    0  0.46548701392E+02  0.63436047117E+01  0.96434216373E+01  0.47968932685E+02  0.10000000000E+01 0.  0.
         21    1    1    2  502  501  0.15467607627E+02 -0.25519033388E+02  0.10239262920E+03  0.10665232517E+03  0.00000000000E+00 0. -1.
<mgrwt>
<rscale>  1 0.12850586E+03</rscale>
<asrwt>0</asrwt>
<pdfrwt beam="2">  1        4 0.46465964E-02 0.12850586E+03</pdfrwt>
<pdfrwt beam="1">  1       -4 0.38705102E-01 0.12850586E+03</pdfrwt>
<totfact> 0.28265775E+03</totfact>
</mgrwt>
</event>
<event>
 6    4  0.2103460E-003  0.1269373E+03  0.7818608E-02  0.1232072E+00
         -4   -1    0    0    0  501 -0.00000000000E+00  0.00000000000E+00  0.22071228879E+02  0.22107737203E+02  0.12700000000E+01 0. -1.
          4   -1    0    0  502    0  0.00000000000E+00 -0.00000000000E+00 -0.26351389143E+03  0.26351695178E+03  0.12700000000E+01 0. -1.
         25    2    1    2    0    0 -0.90100143908E+01  0.20197295509E+02 -0.22396578346E+03  0.25743688297E+03  0.12499586172E+03 0.  0.
    9000005    1    3    3    0    0 -0.40376728119E+02 -0.39847977318E+02 -0.12751601470E+03  0.13956889150E+03  0.10000000000E+01 0.  0.
    9000005    1    3    3    0    0  0.31366713728E+02  0.60045272828E+02 -0.96449768756E+02  0.11786799147E+03  0.10000000000E+01 0.  0.
         21    1    1    2  502  501  0.90100143908E+01 -0.20197295509E+02 -0.17476879092E+02  0.28187806016E+02  0.00000000000E+00 0. -1.
<mgrwt>
<rscale>  1 0.12693729E+03</rscale>
<asrwt>0</asrwt>
<pdfrwt beam="2">  1        4 0.40543640E-01 0.12693729E+03</pdfrwt>
<pdfrwt beam="1">  1       -4 0.33986176E-02 0.12693729E+03</pdfrwt>
<totfact> 0.42250250E+03</totfact>
</mgrwt>
</event>
<event>
 6    4  0.2103460E-003  0.1930661E+03  0.7818608E-02  0.1155725E+00
         -4   -1    0    0    0  501 -0.00000000000E+00  0.00000000000E+00  0.84908089173E+02  0.84917586559E+02  0.12700000000E+01 0.  1.
          4   -1    0    0  502    0  0.00000000000E+00 -0.00000000000E+00 -0.48050614774E+03  0.48050782607E+03  0.12700000000E+01 0.  1.
         25    2    1    2    0    0 -0.13374960865E+03 -0.61330817958E+02 -0.36821178510E+03  0.41575766387E+03  0.12499635728E+03 0.  0.
    9000005    1    3    3    0    0 -0.98776060101E+02 -0.26947679008E+02 -0.10008801029E+03  0.14318343918E+03  0.10000000000E+01 0.  0.
    9000005    1    3    3    0    0 -0.34973548546E+02 -0.34383138951E+02 -0.26812377482E+03  0.27257422469E+03  0.10000000000E+01 0.  0.
         21    1    1    2  502  501  0.13374960865E+03  0.61330817958E+02 -0.27386273463E+02  0.14966774876E+03  0.00000000000E+00 0.  1.
<mgrwt>
<rscale>  1 0.19306609E+03</rscale>
<asrwt>0</asrwt>
<pdfrwt beam="2">  1        4 0.73924881E-01 0.19306609E+03</pdfrwt>
<pdfrwt beam="1">  1       -4 0.13063643E-01 0.19306609E+03</pdfrwt>
<totfact> 0.14365280E+02</totfact>
</mgrwt>
</event>
<event>
 6    4  0.2103460E-003  0.1270446E+03  0.7818608E-02  0.1231908E+00
          4   -1    0    0  502    0  0.00000000000E+00  0.00000000000E+00  0.78608982179E+02  0.78619240515E+02  0.12700000000E+01 0.  1.
         -4   -1    0    0    0  501 -0.00000000000E+00 -0.00000000000E+00 -0.71319340219E+02  0.71330646915E+02  0.12700000000E+01 0.  1.
         25    2    1    2    0    0 -0.22556319308E+02  0.25528515385E+01  0.72181497575E+01  0.12724945345E+03  0.12500006850E+03 0.  0.
    9000005    1    3    3    0    0 -0.26571906719E+02  0.57898393881E+02 -0.18119781321E+02  0.66239087522E+02  0.10000000000E+01 0.  0.
    9000005    1    3    3    0    0  0.40155874111E+01 -0.55345542343E+02  0.25337931078E+02  0.61010365929E+02  0.10000000000E+01 0.  0.
         21    1    1    2  502  501  0.22556319308E+02 -0.25528515385E+01  0.71492202033E-01  0.22700433979E+02  0.00000000000E+00 0.  1.
<mgrwt>
<rscale>  1 0.12704457E+03</rscale>
<asrwt>0</asrwt>
<pdfrwt beam="1">  1        4 0.12095348E-01 0.12704457E+03</pdfrwt>
<pdfrwt beam="2">  1       -4 0.10973865E-01 0.12704457E+03</pdfrwt>
<totfact> 0.56969589E+03</totfact>
</mgrwt>
</event>
<event>
 6    4  0.2103460E-003  0.1270306E+03  0.7818608E-02  0.1231930E+00
          4   -1    0    0  502    0  0.00000000000E+00  0.00000000000E+00  0.15281763610E+02  0.15334444856E+02  0.12700000000E+01 0. -1.
         -4   -1    0    0    0  501 -0.00000000000E+00 -0.00000000000E+00 -0.82536617706E+03  0.82536715414E+03  0.12700000000E+01 0. -1.
         25    2    1    2    0    0  0.55568775439E+01  0.21953408217E+02 -0.25246243880E+03  0.28261997626E+03  0.12499574776E+03 0.  0.
    9000005    1    3    3    0    0  0.24478697903E+02 -0.14612934214E+02 -0.23687229026E+03  0.23858379323E+03  0.10000000000E+01 0.  0.
    9000005    1    3    3    0    0 -0.18921820359E+02  0.36566342431E+02 -0.15590148532E+02  0.44036183028E+02  0.10000000000E+01 0.  0.
         21    1    1    2  502  501 -0.55568775439E+01 -0.21953408217E+02 -0.55762197465E+03  0.55808162273E+03  0.00000000000E+00 0. -1.
<mgrwt>
<rscale>  1 0.12703058E+03</rscale>
<asrwt>0</asrwt>
<pdfrwt beam="1">  1        4 0.23551688E-02 0.12703058E+03</pdfrwt>
<pdfrwt beam="2">  1       -4 0.12698350E+00 0.12703058E+03</pdfrwt>
<totfact> 0.62498563E+02</totfact>
</mgrwt>
</event>
<event>
 6    4  0.2103460E-003  0.1295929E+03  0.7818608E-02  0.1228061E+00
          4   -1    0    0  502    0  0.00000000000E+00  0.00000000000E+00  0.13774708503E+04  0.13774714357E+04  0.12700000000E+01 0. -1.
         -4   -1    0    0    0  501 -0.00000000000E+00 -0.00000000000E+00 -0.49280050593E+01  0.50890209141E+01  0.12700000000E+01 0. -1.
         25    2    1    2    0    0 -0.80619704210E+01  0.33239220269E+02  0.98021569984E+03  0.98874523331E+03  0.12499790819E+03 0.  0.
    9000005    1    3    3    0    0  0.13993568085E+02  0.57803148596E+00  0.88879058764E+01  0.16617729659E+02  0.10000000000E+01 0.  0.
    9000005    1    3    3    0    0 -0.22055538506E+02  0.32661188783E+02  0.97132779397E+03  0.97212750366E+03  0.10000000000E+01 0.  0.
         21    1    1    2  502  501  0.80619704210E+01 -0.33239220269E+02  0.39232714537E+03  0.39381522333E+03  0.00000000000E+00 0. -1.
<mgrwt>
<rscale>  1 0.12959289E+03</rscale>
<asrwt>0</asrwt>
<pdfrwt beam="1">  1        4 0.21193106E+00 0.12959289E+03</pdfrwt>
<pdfrwt beam="2">  1       -4 0.77058536E-03 0.12959289E+03</pdfrwt>
<totfact> 0.88437566E+02</totfact>
</mgrwt>
</event>
<event>
 6    4  0.2103460E-003  0.1822083E+03  0.7818608E-02  0.1165683E+00
         -4   -1    0    0    0  501 -0.00000000000E+00  0.00000000000E+00  0.63375116214E+02  0.63387839963E+02  0.12700000000E+01 0. -1.
          4   -1    0    0  502    0  0.00000000000E+00 -0.00000000000E+00 -0.40351713263E+03  0.40351913117E+03  0.12700000000E+01 0. -1.
         25    2    1    2    0    0 -0.19966230716E+02 -0.13106064887E+03 -0.15513945976E+03  0.23930756424E+03  0.12499725707E+03 0.  0.
    9000005    1    3    3    0    0 -0.29848311661E+02 -0.56600813367E+02  0.31747825167E+01  0.64075369892E+02  0.10000000000E+01 0.  0.
    9000005    1    3    3    0    0  0.98820809456E+01 -0.74459835508E+02 -0.15831424228E+03  0.17523219435E+03  0.10000000000E+01 0.  0.
         21    1    1    2  502  501  0.19966230716E+02  0.13106064887E+03 -0.18500255665E+03  0.22759940690E+03  0.00000000000E+00 0. -1.
<mgrwt>
<rscale>  1 0.18220828E+03</rscale>
<asrwt>0</asrwt>
<pdfrwt beam="2">  1        4 0.62080690E-01 0.18220828E+03</pdfrwt>
<pdfrwt beam="1">  1       -4 0.97511506E-02 0.18220828E+03</pdfrwt>
<totfact> 0.34255932E+02</totfact>
</mgrwt>
</event>
<event>
 6    4  0.2103460E-003  0.1268377E+03  0.7818608E-02  0.1232225E+00
          4   -1    0    0  502    0  0.00000000000E+00  0.00000000000E+00  0.89954381736E+01  0.90846468250E+01  0.12700000000E+01 0. -1.
         -4   -1    0    0    0  501 -0.00000000000E+00 -0.00000000000E+00 -0.69583168183E+03  0.69583284080E+03  0.12700000000E+01 0. -1.
         25    2    1    2    0    0 -0.21300715824E+02 -0.29004220751E+01 -0.46325352037E+03  0.48030366994E+03  0.12500263310E+03 0.  0.
    9000005    1    3    3    0    0  0.18190583084E+02 -0.56546931621E+02 -0.24553033217E+03  0.25261551181E+03  0.10000000000E+01 0.  0.
    9000005    1    3    3    0    0 -0.39491298909E+02  0.53646509546E+02 -0.21772318820E+03  0.22768815813E+03  0.10000000000E+01 0.  0.
         21    1    1    2  502  501  0.21300715824E+02  0.29004220751E+01 -0.22358272328E+03  0.22461381768E+03  0.00000000000E+00 0. -1.
<mgrwt>
<rscale>  1 0.12683766E+03</rscale>
<asrwt>0</asrwt>
<pdfrwt beam="1">  1        4 0.13908655E-02 0.12683766E+03</pdfrwt>
<pdfrwt beam="2">  1       -4 0.10705794E+00 0.12683766E+03</pdfrwt>
<totfact> 0.21039642E+03</totfact>
</mgrwt>
</event>
<event>
 6    4  0.2103460E-003  0.1274046E+03  0.7818608E-02  0.1231358E+00
         -4   -1    0    0    0  501 -0.00000000000E+00  0.00000000000E+00  0.88532203975E+02  0.88541312621E+02  0.12700000000E+01 0. -1.
          4   -1    0    0  502    0  0.00000000000E+00 -0.00000000000E+00 -0.17364702963E+03  0.17365167376E+03  0.12700000000E+01 0. -1.
         25    2    1    2    0    0  0.17191069067E+02 -0.17651099454E+02 -0.14762613296E+03  0.19500103962E+03  0.12499934461E+03 0.  0.
    9000005    1    3    3    0    0  0.31582016783E+02  0.12704694871E+01  0.11841805172E+02  0.33767828277E+02  0.10000000000E+01 0.  0.
    9000005    1    3    3    0    0 -0.14390947716E+02 -0.18921568941E+02 -0.15946793813E+03  0.16123321134E+03  0.10000000000E+01 0.  0.
         21    1    1    2  502  501 -0.17191069067E+02  0.17651099454E+02  0.62511307309E+02  0.67191946757E+02  0.00000000000E+00 0. -1.
<mgrwt>
<rscale>  1 0.12740459E+03</rscale>
<asrwt>0</asrwt>
<pdfrwt beam="2">  1        4 0.26715985E-01 0.12740459E+03</pdfrwt>
<pdfrwt beam="1">  1       -4 0.13621397E-01 0.12740459E+03</pdfrwt>
<totfact> 0.96210598E+02</totfact>
</mgrwt>
</event>
<event>
 6    4  0.2103460E-003  0.1266494E+03  0.7818608E-02  0.1232514E+00
         -4   -1    0    0    0  501 -0.00000000000E+00  0.00000000000E+00  0.21005674512E+02  0.21044031499E+02  0.12700000000E+01 0.  1.
          4   -1    0    0  502    0  0.00000000000E+00 -0.00000000000E+00 -0.26414221366E+03  0.26414526673E+03  0.12700000000E+01 0.  1.
         25    2    1    2    0    0 -0.14761349529E+02  0.14048286305E+02 -0.22350204461E+03  0.25689150390E+03  0.12499931618E+03 0.  0.
    9000005    1    3    3    0    0 -0.27247794739E+02  0.42642080634E+02 -0.21968681930E+03  0.22544198352E+03  0.10000000000E+01 0.  0.
    9000005    1    3    3    0    0  0.12486445210E+02 -0.28593794329E+02 -0.38152253055E+01  0.31449520382E+02  0.10000000000E+01 0.  0.
         21    1    1    2  502  501  0.14761349529E+02 -0.14048286305E+02 -0.19634494543E+02  0.28297794331E+02  0.00000000000E+00 0.  1.
<mgrwt>
<rscale>  1 0.12664944E+03</rscale>
<asrwt>0</asrwt>
<pdfrwt beam="2">  1        4 0.40640447E-01 0.12664944E+03</pdfrwt>
<pdfrwt beam="1">  1       -4 0.32348278E-02 0.12664944E+03</pdfrwt>
<totfact> 0.45420828E+03</totfact>
</mgrwt>
</event>
<event>
 6    4  0.2103460E-003  0.1674315E+03  0.7818608E-02  0.1180553E+00
          4   -1    0    0  502    0  0.00000000000E+00  0.00000000000E+00  0.44968652740E+02  0.44986582769E+02  0.12700000000E+01 0.  1.
         -4   -1    0    0    0  501 -0.00000000000E+00 -0.00000000000E+00 -0.12267434164E+04  0.12267440738E+04  0.12700000000E+01 0.  1.
         25    2    1    2    0    0 -0.10744702459E+03  0.29524664017E+02 -0.12461773882E+03  0.20871723047E+03  0.12496692598E+03 0.  0.
    9000005    1    3    3    0    0 -0.34166776041E+02  0.48279873983E+02  0.42271610803E+01  0.59305848848E+02  0.10000000000E+01 0.  0.
    9000005    1    3    3    0    0 -0.73280248547E+02 -0.18755209966E+02 -0.12884489990E+03  0.14941138162E+03  0.10000000000E+01 0.  0.
         21    1    1    2  502  501  0.10744702459E+03 -0.29524664017E+02 -0.10571570249E+04  0.10630134261E+04  0.00000000000E+00 0.  1.
<mgrwt>
<rscale>  1 0.16743148E+03</rscale>
<asrwt>0</asrwt>
<pdfrwt beam="1">  1        4 0.69196850E-02 0.16743148E+03</pdfrwt>
<pdfrwt beam="2">  1       -4 0.18873116E+00 0.16743148E+03</pdfrwt>
<totfact> 0.41956981E+01</totfact>
</mgrwt>
</event>
<event>
 6    4  0.2103460E-003  0.1268339E+03  0.7818608E-02  0.1232231E+00
         -4   -1    0    0    0  501 -0.00000000000E+00  0.00000000000E+00  0.16270622300E+04  0.16270627256E+04  0.12700000000E+01 0.  1.
          4   -1    0    0  502    0  0.00000000000E+00 -0.00000000000E+00 -0.33645936393E+01  0.35963023173E+01  0.12700000000E+01 0.  1.
         25    2    1    2    0    0 -0.20827391008E+02 -0.52571321674E+01  0.12725811090E+04  0.12788860423E+04  0.12500165024E+03 0.  0.
    9000005    1    3    3    0    0  0.26995859291E+02  0.47632377410E+02  0.48434133361E+03  0.48742706863E+03  0.10000000000E+01 0.  0.
    9000005    1    3    3    0    0 -0.47823250299E+02 -0.52889509577E+02  0.78823977544E+03  0.79145897371E+03  0.10000000000E+01 0.  0.
         21    1    1    2  502  501  0.20827391008E+02  0.52571321674E+01  0.35111652729E+03  0.35177298559E+03  0.00000000000E+00 0. -1.
<mgrwt>
<rscale>  1 0.12683387E+03</rscale>
<asrwt>0</asrwt>
<pdfrwt beam="2">  1        4 0.53549284E-03 0.12683387E+03</pdfrwt>
<pdfrwt beam="1">  1       -4 0.25033458E+00 0.12683387E+03</pdfrwt>
<totfact> 0.90037514E+02</totfact>
</mgrwt>
</event>
<event>
 6    4  0.2103460E-003  0.1313527E+03  0.7818608E-02  0.1225462E+00
          4   -1    0    0  502    0  0.00000000000E+00  0.00000000000E+00  0.20239015293E+03  0.20239413752E+03  0.12700000000E+01 0.  1.
         -4   -1    0    0    0  501 -0.00000000000E+00 -0.00000000000E+00 -0.36829661982E+02  0.36851552230E+02  0.12700000000E+01 0.  1.
         25    2    1    2    0    0 -0.36575479255E+02 -0.17074200705E+02  0.13701934942E+03  0.18980996611E+03  0.12499690838E+03 0.  0.
    9000005    1    3    3    0    0 -0.92019910040E+01 -0.16350146436E+02  0.15558246340E+03  0.15671281647E+03  0.10000000000E+01 0.  0.
    9000005    1    3    3    0    0 -0.27373488251E+02 -0.72405426890E+00 -0.18563113980E+02  0.33097149640E+02  0.10000000000E+01 0.  0.
         21    1    1    2  502  501  0.36575479255E+02  0.17074200705E+02  0.28541141522E+02  0.49435723640E+02  0.00000000000E+00 0.  1.
<mgrwt>
<rscale>  1 0.13135266E+03</rscale>
<asrwt>0</asrwt>
<pdfrwt beam="1">  1        4 0.31138937E-01 0.13135266E+03</pdfrwt>
<pdfrwt beam="2">  1       -4 0.56680922E-02 0.13135266E+03</pdfrwt>
<totfact> 0.31382377E+03</totfact>
</mgrwt>
</event>
<event>
 6    4  0.2103460E-003  0.1278947E+03  0.7818608E-02  0.1230613E+00
         -4   -1    0    0    0  501 -0.00000000000E+00  0.00000000000E+00  0.21662163206E+03  0.21662535487E+03  0.12700000000E+01 0.  1.
          4   -1    0    0  502    0  0.00000000000E+00 -0.00000000000E+00 -0.29121751566E+02  0.29149430771E+02  0.12700000000E+01 0.  1.
         25    2    1    2    0    0  0.24493112722E+02  0.11473293078E+02  0.13070483580E+03  0.18286829849E+03  0.12500204585E+03 0.  0.
    9000005    1    3    3    0    0  0.54388258791E+02 -0.40570844245E+02  0.68440437768E+02  0.96380338342E+02  0.10000000000E+01 0.  0.
    9000005    1    3    3    0    0 -0.29895146069E+02  0.52044137323E+02  0.62264398031E+02  0.86487960147E+02  0.10000000000E+01 0.  0.
         21    1    1    2  502  501 -0.24493112722E+02 -0.11473293078E+02  0.56795044691E+02  0.62906487156E+02  0.00000000000E+00 0. -1.
<mgrwt>
<rscale>  1 0.12789472E+03</rscale>
<asrwt>0</asrwt>
<pdfrwt beam="2">  1        4 0.44826850E-02 0.12789472E+03</pdfrwt>
<pdfrwt beam="1">  1       -4 0.33328821E-01 0.12789472E+03</pdfrwt>
<totfact> 0.39933929E+03</totfact>
</mgrwt>
</event>
<event>
 6    4  0.2103460E-003  0.1402483E+03  0.7818608E-02  0.1212995E+00
          4   -1    0    0  502    0  0.00000000000E+00  0.00000000000E+00  0.20058141975E+02  0.20098307379E+02  0.12700000000E+01 0. -1.
         -4   -1    0    0    0  501 -0.00000000000E+00 -0.00000000000E+00 -0.61435811447E+03  0.61435942714E+03  0.12700000000E+01 0. -1.
         25    2    1    2    0    0 -0.32601445844E+02  0.54604100861E+02 -0.27292963569E+03  0.30685529943E+03  0.12500050658E+03 0.  0.
    9000005    1    3    3    0    0 -0.25634936379E+02  0.14815239043E+02  0.13109053713E+01  0.29654000472E+02  0.10000000000E+01 0.  0.
    9000005    1    3    3    0    0 -0.69665094648E+01  0.39788861818E+02 -0.27424054106E+03  0.27720129895E+03  0.10000000000E+01 0.  0.
         21    1    1    2  502  501  0.32601445844E+02 -0.54604100861E+02 -0.32137033681E+03  0.32760243510E+03  0.00000000000E+00 0. -1.
<mgrwt>
<rscale>  1 0.14024831E+03</rscale>
<asrwt>0</asrwt>
<pdfrwt beam="1">  1        4 0.30890591E-02 0.14024831E+03</pdfrwt>
<pdfrwt beam="2">  1       -4 0.94519809E-01 0.14024831E+03</pdfrwt>
<totfact> 0.83754506E+02</totfact>
</mgrwt>
</event>
<event>
 6    4  0.2103460E-003  0.1384674E+03  0.7818608E-02  0.1215406E+00
          4   -1    0    0  502    0  0.00000000000E+00  0.00000000000E+00  0.10074835640E+03  0.10075636068E+03  0.12700000000E+01 0.  1.
         -4   -1    0    0    0  501 -0.00000000000E+00 -0.00000000000E+00 -0.32782958987E+03  0.32783204983E+03  0.12700000000E+01 0.  1.
         25    2    1    2    0    0 -0.84745272533E+01  0.58961819008E+02  0.48444345065E+02  0.14669719366E+03  0.12499959338E+03 0.  0.
    9000005    1    3    3    0    0 -0.24995986418E+02 -0.13005068913E+02 -0.28472305132E+02  0.40069980209E+02  0.10000000000E+01 0.  0.
    9000005    1    3    3    0    0  0.16521459165E+02  0.71966887921E+02  0.76916650196E+02  0.10662721345E+03  0.10000000000E+01 0.  0.
         21    1    1    2  502  501  0.84745272533E+01 -0.58961819008E+02 -0.27552557854E+03  0.28189121686E+03  0.00000000000E+00 0.  1.
<mgrwt>
<rscale>  1 0.13846737E+03</rscale>
<asrwt>0</asrwt>
<pdfrwt beam="1">  1        4 0.15500552E-01 0.13846737E+03</pdfrwt>
<pdfrwt beam="2">  1       -4 0.50436126E-01 0.13846737E+03</pdfrwt>
<totfact> 0.22693245E+02</totfact>
</mgrwt>
</event>
<event>
 6    4  0.2103460E-003  0.1458885E+03  0.7818608E-02  0.1205618E+00
          4   -1    0    0  502    0  0.00000000000E+00  0.00000000000E+00  0.60872828712E+02  0.60886075382E+02  0.12700000000E+01 0. -1.
         -4   -1    0    0    0  501 -0.00000000000E+00 -0.00000000000E+00 -0.20295726577E+03  0.20296123922E+03  0.12700000000E+01 0. -1.
         25    2    1    2    0    0  0.45102430975E+02  0.60194137078E+02 -0.10657366563E+03  0.18066932289E+03  0.12500357839E+03 0.  0.
    9000005    1    3    3    0    0 -0.26013330239E+02  0.53697603269E+02 -0.88941479875E+02  0.10710608194E+03  0.10000000000E+01 0.  0.
    9000005    1    3    3    0    0  0.71115761213E+02  0.64965338092E+01 -0.17632185753E+02  0.73563240949E+02  0.10000000000E+01 0.  0.
         21    1    1    2  502  501 -0.45102430975E+02 -0.60194137078E+02 -0.35510771428E+02  0.83177991715E+02  0.00000000000E+00 0. -1.
<mgrwt>
<rscale>  1 0.14588851E+03</rscale>
<asrwt>0</asrwt>
<pdfrwt beam="1">  1        4 0.93663753E-02 0.14588851E+03</pdfrwt>
<pdfrwt beam="2">  1       -4 0.31225519E-01 0.14588851E+03</pdfrwt>
<totfact> 0.13969021E+03</totfact>
</mgrwt>
</event>
<event>
 6    4  0.2103460E-003  0.1283809E+03  0.7818608E-02  0.1229878E+00
          4   -1    0    0  502    0  0.00000000000E+00  0.00000000000E+00  0.23909803123E+04  0.23909806496E+04  0.12700000000E+01 0. -1.
         -4   -1    0    0    0  501 -0.00000000000E+00 -0.00000000000E+00 -0.24540780669E+01  0.27632226039E+01  0.12700000000E+01 0. -1.
         25    2    1    2    0    0 -0.11363674961E+02 -0.26994478404E+02  0.19987759918E+04  0.20028946858E+04  0.12499528917E+03 0.  0.
    9000005    1    3    3    0    0  0.94025108787E+01  0.24306280061E+02  0.16086413848E+04  0.16088527923E+04  0.10000000000E+01 0.  0.
    9000005    1    3    3    0    0 -0.20766185839E+02 -0.51300758466E+02  0.39013460698E+03  0.39404189353E+03  0.10000000000E+01 0.  0.
         21    1    1    2  502  501  0.11363674961E+02  0.26994478404E+02  0.38975024250E+03  0.39084918639E+03  0.00000000000E+00 0. -1.
<mgrwt>
<rscale>  1 0.12838091E+03</rscale>
<asrwt>0</asrwt>
<pdfrwt beam="1">  1        4 0.36786726E+00 0.12838091E+03</pdfrwt>
<pdfrwt beam="2">  1       -4 0.40135641E-03 0.12838091E+03</pdfrwt>
<totfact> 0.28185265E+02</totfact>
</mgrwt>
</event>
<event>
 6    4  0.2103460E-003  0.1283471E+03  0.7818608E-02  0.1229929E+00
          4   -1    0    0  502    0  0.00000000000E+00  0.00000000000E+00  0.14024248397E+02  0.14081634959E+02  0.12700000000E+01 0. -1.
         -4   -1    0    0    0  501 -0.00000000000E+00 -0.00000000000E+00 -0.45414138805E+03  0.45414316382E+03  0.12700000000E+01 0. -1.
         25    2    1    2    0    0  0.16626711295E+02  0.23902414839E+02 -0.38590132338E+03  0.40668515547E+03  0.12500084532E+03 0.  0.
    9000005    1    3    3    0    0 -0.12821674488E+02 -0.11836418865E+02 -0.34332869255E+03  0.34377330797E+03  0.10000000000E+01 0.  0.
    9000005    1    3    3    0    0  0.29448385783E+02  0.35738833704E+02 -0.42572630832E+02  0.62911847499E+02  0.10000000000E+01 0.  0.
         21    1    1    2  502  501 -0.16626711295E+02 -0.23902414839E+02 -0.54215816274E+02  0.61539643303E+02  0.00000000000E+00 0. -1.
<mgrwt>
<rscale>  1 0.12834712E+03</rscale>
<asrwt>0</asrwt>
<pdfrwt beam="1">  1        4 0.21621280E-02 0.12834712E+03</pdfrwt>
<pdfrwt beam="2">  1       -4 0.69872446E-01 0.12834712E+03</pdfrwt>
<totfact> 0.27967601E+03</totfact>
</mgrwt>
</event>
<event>
 6    4  0.2103460E-003  0.1278611E+03  0.7818608E-02  0.1230664E+00
         -4   -1    0    0    0  501 -0.00000000000E+00  0.00000000000E+00  0.79333831069E+02  0.79343995690E+02  0.12700000000E+01 0. -1.
          4   -1    0    0  502    0  0.00000000000E+00 -0.00000000000E+00 -0.80714551152E+02  0.80724541917E+02  0.12700000000E+01 0. -1.
         25    2    1    2    0    0 -0.15086577203E+02  0.22269481376E+02 -0.16964716221E+02  0.12898163445E+03  0.12499970326E+03 0.  0.
    9000005    1    3    3    0    0 -0.31342788809E+02  0.11598102636E+02  0.49494147126E+02  0.59729029750E+02  0.10000000000E+01 0.  0.
    9000005    1    3    3    0    0  0.16256211606E+02  0.10671378740E+02 -0.66458863347E+02  0.69252604697E+02  0.10000000000E+01 0.  0.
         21    1    1    2  502  501  0.15086577203E+02 -0.22269481376E+02  0.15583996138E+02  0.31086903160E+02  0.00000000000E+00 0. -1.
<mgrwt>
<rscale>  1 0.12786110E+03</rscale>
<asrwt>0</asrwt>
<pdfrwt beam="2">  1        4 0.12419174E-01 0.12786110E+03</pdfrwt>
<pdfrwt beam="1">  1       -4 0.12206755E-01 0.12786110E+03</pdfrwt>
<totfact> 0.45495361E+03</totfact>
</mgrwt>
</event>
<event>
 6    4  0.2103460E-003  0.1427074E+03  0.7818608E-02  0.1209732E+00
          4   -1    0    0  502    0  0.00000000000E+00  0.00000000000E+00  0.10811127778E+03  0.10811873697E+03  0.12700000000E+01 0. -1.
         -4   -1    0    0    0  501 -0.00000000000E+00 -0.00000000000E+00 -0.15517247969E+03  0.15517767672E+03  0.12700000000E+01 0. -1.
         25    2    1    2    0    0  0.42978663023E+02 -0.53788232181E+02  0.43816771699E+02  0.14928261854E+03  0.12500020528E+03 0.  0.
    9000005    1    3    3    0    0  0.41647442641E+02 -0.90344021837E+02  0.10934300580E+02  0.10008551688E+03  0.10000000000E+01 0.  0.
    9000005    1    3    3    0    0  0.13312203812E+01  0.36555789655E+02  0.32882471119E+02  0.49197101662E+02  0.10000000000E+01 0.  0.
         21    1    1    2  502  501 -0.42978663023E+02  0.53788232181E+02 -0.90877973609E+02  0.11401379515E+03  0.00000000000E+00 0.  1.
<mgrwt>
<rscale>  1 0.14270736E+03</rscale>
<asrwt>0</asrwt>
<pdfrwt beam="1">  1        4 0.16633478E-01 0.14270736E+03</pdfrwt>
<pdfrwt beam="2">  1       -4 0.23873663E-01 0.14270736E+03</pdfrwt>
<totfact> 0.85544791E+02</totfact>
</mgrwt>
</event>
<event>
 6    4  0.2103460E-003  0.1457491E+03  0.7818608E-02  0.1205796E+00
          4   -1    0    0  502    0  0.00000000000E+00  0.00000000000E+00  0.13821753326E+03  0.13822336778E+03  0.12700000000E+01 0.  1.
         -4   -1    0    0    0  501 -0.00000000000E+00 -0.00000000000E+00 -0.15754897040E+03  0.15755408905E+03  0.12700000000E+01 0.  1.
         25    2    1    2    0    0  0.31565573943E+02 -0.67966179464E+02  0.83931420814E+02  0.16818825335E+03  0.12500807236E+03 0.  0.
    9000005    1    3    3    0    0  0.46687665222E+02 -0.81170736250E+02  0.10388701067E+03  0.13986399641E+03  0.10000000000E+01 0.  0.
    9000005    1    3    3    0    0 -0.15122091279E+02  0.13204556786E+02 -0.19955589852E+02  0.28324256935E+02  0.10000000000E+01 0.  0.
         21    1    1    2  502  501 -0.31565573943E+02  0.67966179464E+02 -0.10326285796E+03  0.12758920348E+03  0.00000000000E+00 0.  1.
<mgrwt>
<rscale>  1 0.14574912E+03</rscale>
<asrwt>0</asrwt>
<pdfrwt beam="1">  1        4 0.21265078E-01 0.14574912E+03</pdfrwt>
<pdfrwt beam="2">  1       -4 0.24239146E-01 0.14574912E+03</pdfrwt>
<totfact> 0.53821008E+02</totfact>
</mgrwt>
</event>
<event>
 6    4  0.2103460E-003  0.1285433E+03  0.7818608E-02  0.1229633E+00
          4   -1    0    0  502    0  0.00000000000E+00  0.00000000000E+00  0.73364939533E+03  0.73365049456E+03  0.12700000000E+01 0.  1.
         -4   -1    0    0    0  501 -0.00000000000E+00 -0.00000000000E+00 -0.86081623261E+01  0.87013423466E+01  0.12700000000E+01 0.  1.
         25    2    1    2    0    0  0.13946531104E+02 -0.26535684465E+02  0.55529341342E+03  0.56997733028E+03  0.12499893508E+03 0.  0.
    9000005    1    3    3    0    0  0.16341121741E+02  0.24043748593E+02  0.46913487935E+03  0.47003581686E+03  0.10000000000E+01 0.  0.
    9000005    1    3    3    0    0 -0.23945906369E+01 -0.50579433058E+02  0.86158534067E+02  0.99941513424E+02  0.10000000000E+01 0.  0.
         21    1    1    2  502  501 -0.13946531104E+02  0.26535684465E+02  0.16974781959E+03  0.17237450663E+03  0.00000000000E+00 0.  1.
<mgrwt>
<rscale>  1 0.12854331E+03</rscale>
<asrwt>0</asrwt>
<pdfrwt beam="1">  1        4 0.11287642E+00 0.12854331E+03</pdfrwt>
<pdfrwt beam="2">  1       -4 0.13315846E-02 0.12854331E+03</pdfrwt>
<totfact> 0.19907261E+03</totfact>
</mgrwt>
</event>
<event>
 6    4  0.2103460E-003  0.1267542E+03  0.7818608E-02  0.1232353E+00
          4   -1    0    0  502    0  0.00000000000E+00  0.00000000000E+00  0.60582108888E+02  0.60595419112E+02  0.12700000000E+01 0. -1.
         -4   -1    0    0    0  501 -0.00000000000E+00 -0.00000000000E+00 -0.93977541403E+02  0.93986122317E+02  0.12700000000E+01 0. -1.
         25    2    1    2    0    0  0.12449358822E+02  0.16902475053E+02 -0.16884129208E+02  0.12787380220E+03  0.12500382103E+03 0.  0.
    9000005    1    3    3    0    0  0.42114963244E+01 -0.44771949981E+02  0.26320943479E+02  0.52115796761E+02  0.10000000000E+01 0.  0.
    9000005    1    3    3    0    0  0.82378624979E+01  0.61674425034E+02 -0.43205072687E+02  0.75758005436E+02  0.10000000000E+01 0.  0.
         21    1    1    2  502  501 -0.12449358822E+02 -0.16902475053E+02 -0.16511303307E+02  0.26707739232E+02  0.00000000000E+00 0. -1.
<mgrwt>
<rscale>  1 0.12675423E+03</rscale>
<asrwt>0</asrwt>
<pdfrwt beam="1">  1        4 0.93220084E-02 0.12675423E+03</pdfrwt>
<pdfrwt beam="2">  1       -4 0.14459767E-01 0.12675423E+03</pdfrwt>
<totfact> 0.55092749E+03</totfact>
</mgrwt>
</event>
<event>
 6    4  0.2103460E-003  0.1300045E+03  0.7818608E-02  0.1227449E+00
         -4   -1    0    0    0  501 -0.00000000000E+00  0.00000000000E+00  0.10302220479E+03  0.10303003242E+03  0.12700000000E+01 0.  1.
          4   -1    0    0  502    0  0.00000000000E+00 -0.00000000000E+00 -0.89451383196E+02  0.89460398254E+02  0.12700000000E+01 0.  1.
         25    2    1    2    0    0 -0.34127606420E+02 -0.10592590948E+02 -0.32674695235E+02  0.13404777220E+03  0.12499709204E+03 0.  0.
    9000005    1    3    3    0    0 -0.73437609830E+01  0.27014238152E+02  0.39462953807E+02  0.48394468811E+02  0.10000000000E+01 0.  0.
    9000005    1    3    3    0    0 -0.26783845437E+02 -0.37606829100E+02 -0.72137649042E+02  0.85653303385E+02  0.10000000000E+01 0.  0.
         21    1    1    2  502  501  0.34127606420E+02  0.10592590948E+02  0.46245516832E+02  0.58442658479E+02  0.00000000000E+00 0.  1.
<mgrwt>
<rscale>  1 0.13000450E+03</rscale>
<asrwt>0</asrwt>
<pdfrwt beam="2">  1        4 0.13763047E-01 0.13000450E+03</pdfrwt>
<pdfrwt beam="1">  1       -4 0.15850866E-01 0.13000450E+03</pdfrwt>
<totfact> 0.24344454E+03</totfact>
</mgrwt>
</event>
<event>
 6    4  0.2103460E-003  0.1270716E+03  0.7818608E-02  0.1231867E+00
          4   -1    0    0  502    0  0.00000000000E+00  0.00000000000E+00  0.28461811405E+04  0.28461814238E+04  0.12700000000E+01 0. -1.
         -4   -1    0    0    0  501 -0.00000000000E+00 -0.00000000000E+00 -0.18114121895E+01  0.22122644779E+01  0.12700000000E+01 0. -1.
         25    2    1    2    0    0  0.18752173323E+02  0.13033452433E+02  0.25345787695E+04  0.25377621493E+04  0.12500269051E+03 0.  0.
    9000005    1    3    3    0    0  0.72085284060E+01  0.59121389486E+02  0.68856250874E+03  0.69113430679E+03  0.10000000000E+01 0.  0.
    9000005    1    3    3    0    0  0.11543644917E+02 -0.46087937054E+02  0.18460162608E+04  0.18466278425E+04  0.10000000000E+01 0.  0.
         21    1    1    2  502  501 -0.18752173323E+02 -0.13033452433E+02  0.30979095874E+03  0.31063153897E+03  0.00000000000E+00 0. -1.
<mgrwt>
<rscale>  1 0.12707158E+03</rscale>
<asrwt>0</asrwt>
<pdfrwt beam="1">  1        4 0.43790502E+00 0.12707158E+03</pdfrwt>
<pdfrwt beam="2">  1       -4 0.30953529E-03 0.12707158E+03</pdfrwt>
<totfact> 0.14218344E+02</totfact>
</mgrwt>
</event>
<event>
 6    4  0.2103460E-003  0.1266754E+03  0.7818608E-02  0.1232474E+00
          4   -1    0    0  502    0  0.00000000000E+00  0.00000000000E+00  0.27131394669E+03  0.27131691906E+03  0.12700000000E+01 0.  1.
         -4   -1    0    0    0  501 -0.00000000000E+00 -0.00000000000E+00 -0.23007917535E+02  0.23042941854E+02  0.12700000000E+01 0.  1.
         25    2    1    2    0    0 -0.20043448873E+02 -0.44953746427E+01  0.24152392142E+03  0.27272781937E+03  0.12499884241E+03 0.  0.
    9000005    1    3    3    0    0 -0.11669288582E+01  0.26461477710E+02 -0.19398313722E+01  0.26576953763E+02  0.10000000000E+01 0.  0.
    9000005    1    3    3    0    0 -0.18876520015E+02 -0.30956852353E+02  0.24346375280E+03  0.24615086561E+03  0.10000000000E+01 0.  0.
         21    1    1    2  502  501  0.20043448873E+02  0.44953746427E+01  0.67821077288E+01  0.21632041539E+02  0.00000000000E+00 0. -1.
<mgrwt>
<rscale>  1 0.12667541E+03</rscale>
<asrwt>0</asrwt>
<pdfrwt beam="1">  1        4 0.41743529E-01 0.12667541E+03</pdfrwt>
<pdfrwt beam="2">  1       -4 0.35426026E-02 0.12667541E+03</pdfrwt>
<totfact> 0.37345081E+03</totfact>
</mgrwt>
</event>
<event>
 6    4  0.2103460E-003  0.1279906E+03  0.7818608E-02  0.1230468E+00
         -4   -1    0    0    0  501 -0.00000000000E+00  0.00000000000E+00  0.23542083940E+02  0.23576314729E+02  0.12700000000E+01 0. -1.
          4   -1    0    0  502    0  0.00000000000E+00 -0.00000000000E+00 -0.27507026076E+03  0.27507319254E+03  0.12700000000E+01 0. -1.
         25    2    1    2    0    0  0.49311470620E+01 -0.27093895245E+02 -0.23174892342E+03  0.26474354561E+03  0.12499274405E+03 0.  0.
    9000005    1    3    3    0    0  0.15086832674E+02  0.21613843097E+02  0.13300972085E+01  0.26410980522E+02  0.10000000000E+01 0.  0.
    9000005    1    3    3    0    0 -0.10155685612E+02 -0.48707738342E+02 -0.23307902063E+03  0.23833256509E+03  0.10000000000E+01 0.  0.
         21    1    1    2  502  501 -0.49311470620E+01  0.27093895245E+02 -0.19779253398E+02  0.33905961657E+02  0.00000000000E+00 0. -1.
<mgrwt>
<rscale>  1 0.12799055E+03</rscale>
<asrwt>0</asrwt>
<pdfrwt beam="2">  1        4 0.42321358E-01 0.12799055E+03</pdfrwt>
<pdfrwt beam="1">  1       -4 0.36247179E-02 0.12799055E+03</pdfrwt>
<totfact> 0.35141035E+03</totfact>
</mgrwt>
</event>
<event>
 6    4  0.2103460E-003  0.1294154E+03  0.7818608E-02  0.1228326E+00
          4   -1    0    0  502    0  0.00000000000E+00  0.00000000000E+00  0.37944617129E+02  0.37965864524E+02  0.12700000000E+01 0.  1.
         -4   -1    0    0    0  501 -0.00000000000E+00 -0.00000000000E+00 -0.17775433426E+03  0.17775887108E+03  0.12700000000E+01 0.  1.
         25    2    1    2    0    0  0.16664491598E+02  0.29071189596E+02 -0.12163377023E+03  0.17760381759E+03  0.12500201045E+03 0.  0.
    9000005    1    3    3    0    0 -0.37817164100E+02 -0.18965653522E+02 -0.85105507012E+01  0.43165534716E+02  0.10000000000E+01 0.  0.
    9000005    1    3    3    0    0  0.54481655698E+02  0.48036843117E+02 -0.11312321953E+03  0.13443828287E+03  0.10000000000E+01 0.  0.
         21    1    1    2  502  501 -0.16664491598E+02 -0.29071189596E+02 -0.18175946894E+02  0.38120918014E+02  0.00000000000E+00 0.  1.
<mgrwt>
<rscale>  1 0.12941539E+03</rscale>
<asrwt>0</asrwt>
<pdfrwt beam="1">  1        4 0.58396169E-02 0.12941539E+03</pdfrwt>
<pdfrwt beam="2">  1       -4 0.27348804E-01 0.12941539E+03</pdfrwt>
<totfact> 0.38036501E+03</totfact>
</mgrwt>
</event>
<event>
 6    4  0.2103460E-003  0.1319466E+03  0.7818608E-02  0.1224596E+00
          4   -1    0    0  502    0  0.00000000000E+00  0.00000000000E+00  0.60742171868E+02  0.60755447025E+02  0.12700000000E+01 0.  1.
         -4   -1    0    0    0  501 -0.00000000000E+00 -0.00000000000E+00 -0.28453593155E+03  0.28453876580E+03  0.12700000000E+01 0.  1.
         25    2    1    2    0    0  0.24491616307E+02 -0.34414145506E+02 -0.15607870833E+02  0.13286649101E+03  0.12500290445E+03 0.  0.
    9000005    1    3    3    0    0  0.30267291821E+02  0.44561438324E+01 -0.63747688967E+02  0.70715868238E+02  0.10000000000E+01 0.  0.
    9000005    1    3    3    0    0 -0.57756755137E+01 -0.38870289338E+02  0.48139818133E+02  0.62150622771E+02  0.10000000000E+01 0.  0.
         21    1    1    2  502  501 -0.24491616307E+02  0.34414145506E+02 -0.20818588885E+03  0.21242772181E+03  0.00000000000E+00 0.  1.
<mgrwt>
<rscale>  1 0.13194658E+03</rscale>
<asrwt>0</asrwt>
<pdfrwt beam="1">  1        4 0.93461888E-02 0.13194658E+03</pdfrwt>
<pdfrwt beam="2">  1       -4 0.43775997E-01 0.13194658E+03</pdfrwt>
<totfact> 0.71142581E+02</totfact>
</mgrwt>
</event>
<event>
 6    4  0.2103460E-003  0.1267696E+03  0.7818608E-02  0.1232329E+00
         -4   -1    0    0    0  501 -0.00000000000E+00  0.00000000000E+00  0.24320701719E+03  0.24321033307E+03  0.12700000000E+01 0.  1.
          4   -1    0    0  502    0  0.00000000000E+00 -0.00000000000E+00 -0.22705221583E+02  0.22740712107E+02  0.12700000000E+01 0.  1.
         25    2    1    2    0    0 -0.20971020634E+02  0.22626700791E+01  0.17831088193E+03  0.21878138777E+03  0.12500248653E+03 0.  0.
    9000005    1    3    3    0    0  0.20648865306E+02  0.31509203293E+02  0.48302183489E+01  0.37993901351E+02  0.10000000000E+01 0.  0.
    9000005    1    3    3    0    0 -0.41619885941E+02 -0.29246533214E+02  0.17348066358E+03  0.18078748642E+03  0.10000000000E+01 0.  0.
         21    1    1    2  502  501  0.20971020634E+02 -0.22626700791E+01  0.42190913679E+02  0.47169657402E+02  0.00000000000E+00 0.  1.
<mgrwt>
<rscale>  1 0.12676957E+03</rscale>
<asrwt>0</asrwt>
<pdfrwt beam="2">  1        4 0.34960961E-02 0.12676957E+03</pdfrwt>
<pdfrwt beam="1">  1       -4 0.37419449E-01 0.12676957E+03</pdfrwt>
<totfact> 0.47261778E+03</totfact>
</mgrwt>
</event>
<event>
 6    4  0.2103460E-003  0.1339082E+03  0.7818608E-02  0.1221769E+00
          4   -1    0    0  502    0  0.00000000000E+00  0.00000000000E+00  0.28529612758E+02  0.28557865888E+02  0.12700000000E+01 0.  1.
         -4   -1    0    0    0  501 -0.00000000000E+00 -0.00000000000E+00 -0.41089890652E+03  0.41090086916E+03  0.12700000000E+01 0.  1.
         25    2    1    2    0    0 -0.37304570859E+01 -0.47882437532E+02 -0.14538510007E+03  0.19765684880E+03  0.12499903368E+03 0.  0.
    9000005    1    3    3    0    0  0.47170156116E+02 -0.49711831094E+02 -0.36976570751E+02  0.77875262845E+02  0.10000000000E+01 0.  0.
    9000005    1    3    3    0    0 -0.50900613202E+02  0.18293935621E+01 -0.10840852931E+03  0.11978158595E+03  0.10000000000E+01 0.  0.
         21    1    1    2  502  501  0.37304570859E+01  0.47882437532E+02 -0.23698419369E+03  0.24180188625E+03  0.00000000000E+00 0.  1.
<mgrwt>
<rscale>  1 0.13390819E+03</rscale>
<asrwt>0</asrwt>
<pdfrwt beam="1">  1        4 0.43914958E-02 0.13390819E+03</pdfrwt>
<pdfrwt beam="2">  1       -4 0.63217537E-01 0.13390819E+03</pdfrwt>
<totfact> 0.11512516E+03</totfact>
</mgrwt>
</event>
<event>
 6    4  0.2103460E-003  0.1268191E+03  0.7818608E-02  0.1232253E+00
         -4   -1    0    0    0  501 -0.00000000000E+00  0.00000000000E+00  0.58540062079E+02  0.58553836494E+02  0.12700000000E+01 0.  1.
          4   -1    0    0  502    0  0.00000000000E+00 -0.00000000000E+00 -0.11664610061E+03  0.11665301405E+03  0.12700000000E+01 0.  1.
         25    2    1    2    0    0  0.14623143574E+02 -0.15666159247E+02 -0.75512338839E+02  0.14759808086E+03  0.12499526104E+03 0.  0.
    9000005    1    3    3    0    0 -0.26824410998E+02 -0.15294954550E+02 -0.96359242815E+02  0.10119085105E+03  0.10000000000E+01 0.  0.
    9000005    1    3    3    0    0  0.41447554572E+02 -0.37120469749E+00  0.20846903976E+02  0.46407229807E+02  0.10000000000E+01 0.  0.
         21    1    1    2  502  501 -0.14623143574E+02  0.15666159247E+02  0.17406300307E+02  0.27608769693E+02  0.00000000000E+00 0. -1.
<mgrwt>
<rscale>  1 0.12681908E+03</rscale>
<asrwt>0</asrwt>
<pdfrwt beam="2">  1        4 0.17947145E-01 0.12681908E+03</pdfrwt>
<pdfrwt beam="1">  1       -4 0.90077548E-02 0.12681908E+03</pdfrwt>
<totfact> 0.39928081E+03</totfact>
</mgrwt>
</event>
<event>
 6    4  0.2103460E-003  0.1266664E+03  0.7818608E-02  0.1232488E+00
          4   -1    0    0  502    0  0.00000000000E+00  0.00000000000E+00  0.90533865521E+02  0.90542772800E+02  0.12700000000E+01 0. -1.
         -4   -1    0    0    0  501 -0.00000000000E+00 -0.00000000000E+00 -0.65760342356E+02  0.65772604683E+02  0.12700000000E+01 0. -1.
         25    2    1    2    0    0  0.16444234361E+02 -0.12226571232E+02  0.37613932907E+02  0.13213319375E+03  0.12499788420E+03 0.  0.
    9000005    1    3    3    0    0 -0.52667026154E+02 -0.12915656622E+02  0.17591518482E+01  0.54265315304E+02  0.10000000000E+01 0.  0.
    9000005    1    3    3    0    0  0.69111260515E+02  0.68908538916E+00  0.35854781059E+02  0.77867878444E+02  0.10000000000E+01 0.  0.
         21    1    1    2  502  501 -0.16444234361E+02  0.12226571232E+02 -0.12840409742E+02  0.24182183734E+02  0.00000000000E+00 0. -1.
<mgrwt>
<rscale>  1 0.12666638E+03</rscale>
<asrwt>0</asrwt>
<pdfrwt beam="1">  1        4 0.13929915E-01 0.12666638E+03</pdfrwt>
<pdfrwt beam="2">  1       -4 0.10118604E-01 0.12666638E+03</pdfrwt>
<totfact> 0.51210389E+03</totfact>
</mgrwt>
</event>
<event>
 6    4  0.2103460E-003  0.1279974E+03  0.7818608E-02  0.1230458E+00
         -4   -1    0    0    0  501 -0.00000000000E+00  0.00000000000E+00  0.72502234265E+02  0.72513356518E+02  0.12700000000E+01 0. -1.
          4   -1    0    0  502    0  0.00000000000E+00 -0.00000000000E+00 -0.11543776001E+03  0.11544474581E+03  0.12700000000E+01 0. -1.
         25    2    1    2    0    0  0.74771835497E+01  0.26515287979E+02 -0.72861215541E+02  0.14728236411E+03  0.12499747708E+03 0.  0.
    9000005    1    3    3    0    0  0.30148120122E+02  0.17923550328E+02  0.27152689846E+02  0.44367007665E+02  0.10000000000E+01 0.  0.
    9000005    1    3    3    0    0 -0.22670936572E+02  0.85917376504E+01 -0.10001390539E+03  0.10291535644E+03  0.10000000000E+01 0.  0.
         21    1    1    2  502  501 -0.74771835497E+01 -0.26515287979E+02  0.29925689796E+02  0.40675738226E+02  0.00000000000E+00 0. -1.
<mgrwt>
<rscale>  1 0.12799741E+03</rscale>
<asrwt>0</asrwt>
<pdfrwt beam="2">  1        4 0.17761048E-01 0.12799741E+03</pdfrwt>
<pdfrwt beam="1">  1       -4 0.11155583E-01 0.12799741E+03</pdfrwt>
<totfact> 0.28442422E+03</totfact>
</mgrwt>
</event>
<event>
 6    4  0.2103460E-003  0.1282299E+03  0.7818608E-02  0.1230106E+00
          4   -1    0    0  502    0  0.00000000000E+00  0.00000000000E+00  0.28167881070E+02  0.28196496661E+02  0.12700000000E+01 0.  1.
         -4   -1    0    0    0  501 -0.00000000000E+00 -0.00000000000E+00 -0.27679371677E+03  0.27679663029E+03  0.12700000000E+01 0.  1.
         25    2    1    2    0    0  0.14798919196E+02 -0.24476266299E+02 -0.12860011524E+03  0.18160646158E+03  0.12499928650E+03 0.  0.
    9000005    1    3    3    0    0 -0.24291846132E+02 -0.21885383004E+02  0.12610778723E+02  0.35058458576E+02  0.10000000000E+01 0.  0.
    9000005    1    3    3    0    0  0.39090765327E+02 -0.25908832950E+01 -0.14121089396E+03  0.14654800300E+03  0.10000000000E+01 0.  0.
         21    1    1    2  502  501 -0.14798919196E+02  0.24476266299E+02 -0.12002572046E+03  0.12338666538E+03  0.00000000000E+00 0. -1.
<mgrwt>
<rscale>  1 0.12822994E+03</rscale>
<asrwt>0</asrwt>
<pdfrwt beam="1">  1        4 0.43359457E-02 0.12822994E+03</pdfrwt>
<pdfrwt beam="2">  1       -4 0.42586072E-01 0.12822994E+03</pdfrwt>
<totfact> 0.26137287E+03</totfact>
</mgrwt>
</event>
<event>
 6    4  0.2103460E-003  0.1275011E+03  0.7818608E-02  0.1231211E+00
         -4   -1    0    0    0  501 -0.00000000000E+00  0.00000000000E+00  0.15570900786E+01  0.20093355899E+01  0.12700000000E+01 0. -1.
          4   -1    0    0  502    0  0.00000000000E+00 -0.00000000000E+00 -0.32658285681E+04  0.32658288150E+04  0.12700000000E+01 0. -1.
         25    2    1    2    0    0  0.10659755533E+02 -0.22756005693E+02 -0.27378160301E+04  0.27407833102E+04  0.12500029019E+03 0.  0.
    9000005    1    3    3    0    0 -0.38776624868E+02 -0.53501764610E+02 -0.17552745914E+04  0.17565181344E+04  0.10000000000E+01 0.  0.
    9000005    1    3    3    0    0  0.49436380402E+02  0.30745758917E+02 -0.98254143875E+03  0.98426517578E+03  0.10000000000E+01 0.  0.
         21    1    1    2  502  501 -0.10659755533E+02  0.22756005693E+02 -0.52645544787E+03  0.52705484038E+03  0.00000000000E+00 0. -1.
<mgrwt>
<rscale>  1 0.12750113E+03</rscale>
<asrwt>0</asrwt>
<pdfrwt beam="2">  1        4 0.50246518E+00 0.12750113E+03</pdfrwt>
<pdfrwt beam="1">  1       -4 0.27436204E-03 0.12750113E+03</pdfrwt>
<totfact> 0.56616575E+01</totfact>
</mgrwt>
</event>
<event>
 6    4  0.2103460E-003  0.1277790E+03  0.7818608E-02  0.1230789E+00
         -4   -1    0    0    0  501 -0.00000000000E+00  0.00000000000E+00  0.78989425253E+02  0.78999634187E+02  0.12700000000E+01 0. -1.
          4   -1    0    0  502    0  0.00000000000E+00 -0.00000000000E+00 -0.83197574599E+02  0.83207267226E+02  0.12700000000E+01 0. -1.
         25    2    1    2    0    0  0.16152916547E+02  0.21049514040E+02 -0.22815042680E+02  0.12979987696E+03  0.12499393238E+03 0.  0.
    9000005    1    3    3    0    0 -0.41095228465E+02  0.33990015202E+02  0.20188274993E+02  0.57032494099E+02  0.10000000000E+01 0.  0.
    9000005    1    3    3    0    0  0.57248145012E+02 -0.12940501162E+02 -0.43003317673E+02  0.72767382862E+02  0.10000000000E+01 0.  0.
         21    1    1    2  502  501 -0.16152916547E+02 -0.21049514040E+02  0.18606893334E+02  0.32407024452E+02  0.00000000000E+00 0. -1.
<mgrwt>
<rscale>  1 0.12777904E+03</rscale>
<asrwt>0</asrwt>
<pdfrwt beam="2">  1        4 0.12801158E-01 0.12777904E+03</pdfrwt>
<pdfrwt beam="1">  1       -4 0.12153750E-01 0.12777904E+03</pdfrwt>
<totfact> 0.43506941E+03</totfact>
</mgrwt>
</event>
<event>
 6    4  0.2103460E-003  0.1292366E+03  0.7818608E-02  0.1228593E+00
         -4   -1    0    0    0  501 -0.00000000000E+00  0.00000000000E+00  0.72786851139E+03  0.72786961935E+03  0.12700000000E+01 0.  1.
          4   -1    0    0  502    0  0.00000000000E+00 -0.00000000000E+00 -0.13515997700E+02  0.13575532911E+02  0.12700000000E+01 0.  1.
         25    2    1    2    0    0 -0.11991145385E+02  0.30548470186E+02  0.31132331463E+03  0.33708203340E+03  0.12500037765E+03 0.  0.
    9000005    1    3    3    0    0 -0.51052185362E+02  0.30638032697E+02  0.28202695068E+03  0.28824506169E+03  0.10000000000E+01 0.  0.
    9000005    1    3    3    0    0  0.39061039977E+02 -0.89562511723E-01  0.29296363951E+02  0.48836971714E+02  0.10000000000E+01 0.  0.
         21    1    1    2  502  501  0.11991145385E+02 -0.30548470186E+02  0.40302919906E+03  0.40436311886E+03  0.00000000000E+00 0.  1.
<mgrwt>
<rscale>  1 0.12923657E+03</rscale>
<asrwt>0</asrwt>
<pdfrwt beam="2">  1        4 0.20840487E-02 0.12923657E+03</pdfrwt>
<pdfrwt beam="1">  1       -4 0.11198446E+00 0.12923657E+03</pdfrwt>
<totfact> 0.10238775E+03</totfact>
</mgrwt>
</event>
<event>
 6    4  0.2103460E-003  0.1326078E+03  0.7818608E-02  0.1223637E+00
         -4   -1    0    0    0  501 -0.00000000000E+00  0.00000000000E+00  0.72259544337E+03  0.72259655941E+03  0.12700000000E+01 0.  1.
          4   -1    0    0  502    0  0.00000000000E+00 -0.00000000000E+00 -0.11107881671E+02  0.11180247547E+02  0.12700000000E+01 0.  1.
         25    2    1    2    0    0 -0.22333991079E+02 -0.38233167649E+02  0.47416235929E+03  0.49235635637E+03  0.12499702566E+03 0.  0.
    9000005    1    3    3    0    0  0.35248787540E+02 -0.51879430482E+02  0.14609291527E+03  0.15899085578E+03  0.10000000000E+01 0.  0.
    9000005    1    3    3    0    0 -0.57582778618E+02  0.13646262833E+02  0.32806944402E+03  0.33336550059E+03  0.10000000000E+01 0.  0.
         21    1    1    2  502  501  0.22333991079E+02  0.38233167649E+02  0.23732520241E+03  0.24142045059E+03  0.00000000000E+00 0.  1.
<mgrwt>
<rscale>  1 0.13260784E+03</rscale>
<asrwt>0</asrwt>
<pdfrwt beam="2">  1        4 0.17145571E-02 0.13260784E+03</pdfrwt>
<pdfrwt beam="1">  1       -4 0.11117419E+00 0.13260784E+03</pdfrwt>
<totfact> 0.14135213E+03</totfact>
</mgrwt>
</event>
<event>
 6    4  0.2103460E-003  0.1280295E+03  0.7818608E-02  0.1230409E+00
          4   -1    0    0  502    0  0.00000000000E+00  0.00000000000E+00  0.98971535085E+03  0.98971616568E+03  0.12700000000E+01 0. -1.
         -4   -1    0    0    0  501 -0.00000000000E+00 -0.00000000000E+00 -0.60600194376E+01  0.61916666242E+01  0.12700000000E+01 0. -1.
         25    2    1    2    0    0  0.17254694753E+02 -0.21650240110E+02  0.81541061422E+03  0.82540052381E+03  0.12500039012E+03 0.  0.
    9000005    1    3    3    0    0 -0.23652600960E+02 -0.50685563776E+02  0.19226225114E+03  0.20023547418E+03  0.10000000000E+01 0.  0.
    9000005    1    3    3    0    0  0.40907295713E+02  0.29035323667E+02  0.62314836308E+03  0.62516504962E+03  0.10000000000E+01 0.  0.
         21    1    1    2  502  501 -0.17254694753E+02  0.21650240110E+02  0.16824471719E+03  0.17050730849E+03  0.00000000000E+00 0. -1.
<mgrwt>
<rscale>  1 0.12802951E+03</rscale>
<asrwt>0</asrwt>
<pdfrwt beam="1">  1        4 0.15227387E+00 0.12802951E+03</pdfrwt>
<pdfrwt beam="2">  1       -4 0.94250140E-03 0.12802951E+03</pdfrwt>
<totfact> 0.16073583E+03</totfact>
</mgrwt>
</event>
<event>
 6    4  0.2103460E-003  0.1548934E+03  0.7818608E-02  0.1194586E+00
          4   -1    0    0  502    0  0.00000000000E+00  0.00000000000E+00  0.72936644513E+02  0.72947700531E+02  0.12700000000E+01 0. -1.
         -4   -1    0    0    0  501 -0.00000000000E+00 -0.00000000000E+00 -0.61597736915E+03  0.61597867837E+03  0.12700000000E+01 0. -1.
         25    2    1    2    0    0  0.90443734520E+02  0.13669738490E+02 -0.17952235509E+02  0.15593026983E+03  0.12500014171E+03 0.  0.
    9000005    1    3    3    0    0  0.19791319315E+01  0.47641200970E+02  0.22689389390E+02  0.52814859499E+02  0.10000000000E+01 0.  0.
    9000005    1    3    3    0    0  0.88464602589E+02 -0.33971462480E+02 -0.40641624899E+02  0.10311541034E+03  0.10000000000E+01 0.  0.
         21    1    1    2  502  501 -0.90443734520E+02 -0.13669738490E+02 -0.52508848913E+03  0.53299610907E+03  0.00000000000E+00 0. -1.
<mgrwt>
<rscale>  1 0.15489340E+03</rscale>
<asrwt>0</asrwt>
<pdfrwt beam="1">  1        4 0.11221974E-01 0.15489340E+03</pdfrwt>
<pdfrwt beam="2">  1       -4 0.94766697E-01 0.15489340E+03</pdfrwt>
<totfact> 0.10348690E+02</totfact>
</mgrwt>
</event>
<event>
 6    4  0.2103460E-003  0.1309088E+03  0.7818608E-02  0.1226113E+00
         -4   -1    0    0    0  501 -0.00000000000E+00  0.00000000000E+00  0.21538050583E+03  0.21538425010E+03  0.12700000000E+01 0. -1.
          4   -1    0    0  502    0  0.00000000000E+00 -0.00000000000E+00 -0.43425480165E+02  0.43444047090E+02  0.12700000000E+01 0. -1.
         25    2    1    2    0    0  0.22820537254E+02 -0.31494013797E+02  0.67331368629E+02  0.14720948410E+03  0.12499787670E+03 0.  0.
    9000005    1    3    3    0    0 -0.27713685591E+02 -0.15612984652E+02 -0.25193519201E+02  0.40589740927E+02  0.10000000000E+01 0.  0.
    9000005    1    3    3    0    0  0.50534222845E+02 -0.15881029145E+02  0.92524887830E+02  0.10661974317E+03  0.10000000000E+01 0.  0.
         21    1    1    2  502  501 -0.22820537254E+02  0.31494013797E+02  0.10462365704E+03  0.11161881310E+03  0.00000000000E+00 0.  1.
<mgrwt>
<rscale>  1 0.13090882E+03</rscale>
<asrwt>0</asrwt>
<pdfrwt beam="2">  1        4 0.66825593E-02 0.13090882E+03</pdfrwt>
<pdfrwt beam="1">  1       -4 0.33137179E-01 0.13090882E+03</pdfrwt>
<totfact> 0.21307663E+03</totfact>
</mgrwt>
</event>
<event>
 6    4  0.2103460E-003  0.1428252E+03  0.7818608E-02  0.1209577E+00
         -4   -1    0    0    0  501 -0.00000000000E+00  0.00000000000E+00  0.17125505529E+02  0.17172531544E+02  0.12700000000E+01 0. -1.
          4   -1    0    0  502    0  0.00000000000E+00 -0.00000000000E+00 -0.90464890285E+03  0.90464979430E+03  0.12700000000E+01 0. -1.
         25    2    1    2    0    0  0.34411279534E+02  0.59917558627E+02 -0.78691845983E+03  0.79977478003E+03  0.12499914546E+03 0.  0.
    9000005    1    3    3    0    0  0.25840741683E+02 -0.36937668704E+02 -0.28129875679E+03  0.28488967315E+03  0.10000000000E+01 0.  0.
    9000005    1    3    3    0    0  0.85705378513E+01  0.96855227331E+02 -0.50561970304E+03  0.51488510688E+03  0.10000000000E+01 0.  0.
         21    1    1    2  502  501 -0.34411279534E+02 -0.59917558627E+02 -0.10060493749E+03  0.12204754581E+03  0.00000000000E+00 0. -1.
<mgrwt>
<rscale>  1 0.14282520E+03</rscale>
<asrwt>0</asrwt>
<pdfrwt beam="2">  1        4 0.13918040E+00 0.14282520E+03</pdfrwt>
<pdfrwt beam="1">  1       -4 0.26383798E-02 0.14282520E+03</pdfrwt>
<totfact> 0.42746967E+02</totfact>
</mgrwt>
</event>
<event>
 6    4  0.2103460E-003  0.1292787E+03  0.7818608E-02  0.1228530E+00
          4   -1    0    0  502    0  0.00000000000E+00  0.00000000000E+00  0.17677259385E+02  0.17722821428E+02  0.12700000000E+01 0. -1.
         -4   -1    0    0    0  501 -0.00000000000E+00 -0.00000000000E+00 -0.37767742952E+03  0.37767956480E+03  0.12700000000E+01 0. -1.
         25    2    1    2    0    0  0.32849156224E+02  0.30364435962E+01 -0.26533043904E+03  0.29514948083E+03  0.12499874840E+03 0.  0.
    9000005    1    3    3    0    0 -0.24920826636E+02 -0.13389709116E+01 -0.22044138333E+03  0.22185185131E+03  0.10000000000E+01 0.  0.
    9000005    1    3    3    0    0  0.57769982860E+02  0.43754145079E+01 -0.44889055702E+02  0.73297629523E+02  0.10000000000E+01 0.  0.
         21    1    1    2  502  501 -0.32849156224E+02 -0.30364435962E+01 -0.94669731097E+02  0.10025290540E+03  0.00000000000E+00 0. -1.
<mgrwt>
<rscale>  1 0.12927867E+03</rscale>
<asrwt>0</asrwt>
<pdfrwt beam="1">  1        4 0.27232477E-02 0.12927867E+03</pdfrwt>
<pdfrwt beam="2">  1       -4 0.58107883E-01 0.12927867E+03</pdfrwt>
<totfact> 0.28957201E+03</totfact>
</mgrwt>
</event>
<event>
 6    4  0.2103460E-003  0.1271042E+03  0.7818608E-02  0.1231817E+00
          4   -1    0    0  502    0  0.00000000000E+00  0.00000000000E+00  0.22417138374E+02  0.22453084263E+02  0.12700000000E+01 0.  1.
         -4   -1    0    0    0  501 -0.00000000000E+00 -0.00000000000E+00 -0.27716863519E+03  0.27717154477E+03  0.12700000000E+01 0.  1.
         25    2    1    2    0    0  0.47080630798E+01 -0.22548328340E+02 -0.17289158570E+03  0.21458559085E+03  0.12499952969E+03 0.  0.
    9000005    1    3    3    0    0 -0.46853786085E+02  0.28202619948E+02 -0.77503348738E+02  0.94860076471E+02  0.10000000000E+01 0.  0.
    9000005    1    3    3    0    0  0.51561849165E+02 -0.50750948289E+02 -0.95388236966E+02  0.11972551438E+03  0.10000000000E+01 0.  0.
         21    1    1    2  502  501 -0.47080630798E+01  0.22548328340E+02 -0.81859911111E+02  0.85039038188E+02  0.00000000000E+00 0.  1.
<mgrwt>
<rscale>  1 0.12710419E+03</rscale>
<asrwt>0</asrwt>
<pdfrwt beam="1">  1        4 0.34517796E-02 0.12710419E+03</pdfrwt>
<pdfrwt beam="2">  1       -4 0.42644315E-01 0.12710419E+03</pdfrwt>
<totfact> 0.37324945E+03</totfact>
</mgrwt>
</event>
<event>
 6    4  0.2103460E-003  0.1295989E+03  0.7818608E-02  0.1228052E+00
          4   -1    0    0  502    0  0.00000000000E+00  0.00000000000E+00  0.33720658198E+03  0.33720897353E+03  0.12700000000E+01 0.  1.
         -4   -1    0    0    0  501 -0.00000000000E+00 -0.00000000000E+00 -0.20354846533E+02  0.20394427607E+02  0.12700000000E+01 0.  1.
         25    2    1    2    0    0 -0.25523949732E+02 -0.22793702358E+02  0.27095222593E+03  0.30035141557E+03  0.12499935690E+03 0.  0.
    9000005    1    3    3    0    0 -0.45475312702E+02  0.23518314545E+02  0.22927355996E+03  0.23492228604E+03  0.10000000000E+01 0.  0.
    9000005    1    3    3    0    0  0.19951362971E+02 -0.46312016903E+02  0.41678665973E+02  0.65429129532E+02  0.10000000000E+01 0.  0.
         21    1    1    2  502  501  0.25523949732E+02  0.22793702358E+02  0.45899509515E+02  0.57251985562E+02  0.00000000000E+00 0. -1.
<mgrwt>
<rscale>  1 0.12959886E+03</rscale>
<asrwt>0</asrwt>
<pdfrwt beam="1">  1        4 0.51881166E-01 0.12959886E+03</pdfrwt>
<pdfrwt beam="2">  1       -4 0.31347434E-02 0.12959886E+03</pdfrwt>
<totfact> 0.29390860E+03</totfact>
</mgrwt>
</event>
<event>
 6    4  0.2103460E-003  0.1283956E+03  0.7818608E-02  0.1229856E+00
         -4   -1    0    0    0  501 -0.00000000000E+00  0.00000000000E+00  0.46910788871E+03  0.46910960782E+03  0.12700000000E+01 0. -1.
          4   -1    0    0  502    0  0.00000000000E+00 -0.00000000000E+00 -0.14403217297E+02  0.14459099851E+02  0.12700000000E+01 0. -1.
         25    2    1    2    0    0  0.63590774335E+00  0.29330007950E+02  0.30345550421E+03  0.32950065672E+03  0.12499914399E+03 0.  0.
    9000005    1    3    3    0    0 -0.61405588778E+02  0.19861015368E+02  0.17515536196E+03  0.18666951301E+03  0.10000000000E+01 0.  0.
    9000005    1    3    3    0    0  0.62041496522E+02  0.94689925827E+01  0.12830014225E+03  0.14283114371E+03  0.10000000000E+01 0.  0.
         21    1    1    2  502  501 -0.63590774335E+00 -0.29330007950E+02  0.15124916720E+03  0.15406805095E+03  0.00000000000E+00 0. -1.
<mgrwt>
<rscale>  1 0.12839564E+03</rscale>
<asrwt>0</asrwt>
<pdfrwt beam="2">  1        4 0.22203104E-02 0.12839564E+03</pdfrwt>
<pdfrwt beam="1">  1       -4 0.72174879E-01 0.12839564E+03</pdfrwt>
<totfact> 0.25030267E+03</totfact>
</mgrwt>
</event>
<event>
 6    4  0.2103460E-003  0.1299390E+03  0.7818608E-02  0.1227546E+00
         -4   -1    0    0    0  501 -0.00000000000E+00  0.00000000000E+00  0.87236308974E+02  0.87245552915E+02  0.12700000000E+01 0.  1.
          4   -1    0    0  502    0  0.00000000000E+00 -0.00000000000E+00 -0.78529465914E+02  0.78539734637E+02  0.12700000000E+01 0.  1.
         25    2    1    2    0    0 -0.14537410544E+02 -0.32368803480E+02  0.40960866124E+01  0.13000352098E+03  0.12500024719E+03 0.  0.
    9000005    1    3    3    0    0 -0.60633573558E+02 -0.99293072180E+01  0.34417998203E+02  0.70431668904E+02  0.10000000000E+01 0.  0.
    9000005    1    3    3    0    0  0.46096163015E+02 -0.22439496262E+02 -0.30321911591E+02  0.59571852075E+02  0.10000000000E+01 0.  0.
         21    1    1    2  502  501  0.14537410544E+02  0.32368803480E+02  0.46107564470E+01  0.35781766572E+02  0.00000000000E+00 0. -1.
<mgrwt>
<rscale>  1 0.12993898E+03</rscale>
<asrwt>0</asrwt>
<pdfrwt beam="2">  1        4 0.12082957E-01 0.12993898E+03</pdfrwt>
<pdfrwt beam="1">  1       -4 0.13422472E-01 0.12993898E+03</pdfrwt>
<totfact> 0.40668061E+03</totfact>
</mgrwt>
</event>
<event>
 6    4  0.2103460E-003  0.1290101E+03  0.7818608E-02  0.1228932E+00
         -4   -1    0    0    0  501 -0.00000000000E+00  0.00000000000E+00  0.86891679158E+02  0.86900959758E+02  0.12700000000E+01 0. -1.
          4   -1    0    0  502    0  0.00000000000E+00 -0.00000000000E+00 -0.17489942709E+03  0.17490403797E+03  0.12700000000E+01 0. -1.
         25    2    1    2    0    0  0.27049445040E+02 -0.16984814588E+02 -0.14647125705E+03  0.19518564392E+03  0.12499380003E+03 0.  0.
    9000005    1    3    3    0    0 -0.46145762002E+02  0.19278428205E+01 -0.88790251538E+02  0.10008924366E+03  0.10000000000E+01 0.  0.
    9000005    1    3    3    0    0  0.73195207042E+02 -0.18912657409E+02 -0.57681005517E+02  0.95096400256E+02  0.10000000000E+01 0.  0.
         21    1    1    2  502  501 -0.27049445040E+02  0.16984814588E+02  0.58463509118E+02  0.66619353810E+02  0.00000000000E+00 0. -1.
<mgrwt>
<rscale>  1 0.12901010E+03</rscale>
<asrwt>0</asrwt>
<pdfrwt beam="2">  1        4 0.26908673E-01 0.12901010E+03</pdfrwt>
<pdfrwt beam="1">  1       -4 0.13369019E-01 0.12901010E+03</pdfrwt>
<totfact> 0.98315879E+02</totfact>
</mgrwt>
</event>
<event>
 6    4  0.2103460E-003  0.1296260E+03  0.7818608E-02  0.1228012E+00
          4   -1    0    0  502    0  0.00000000000E+00  0.00000000000E+00  0.80606558492E+02  0.80616562640E+02  0.12700000000E+01 0.  1.
         -4   -1    0    0    0  501 -0.00000000000E+00 -0.00000000000E+00 -0.10341443662E+03  0.10342223456E+03  0.12700000000E+01 0.  1.
         25    2    1    2    0    0 -0.20586235415E+02 -0.27461884476E+02  0.17830358926E+02  0.13084655624E+03  0.12499980557E+03 0.  0.
    9000005    1    3    3    0    0 -0.33572615020E+02  0.39389539351E+02  0.32572857659E+02  0.61160831793E+02  0.10000000000E+01 0.  0.
    9000005    1    3    3    0    0  0.12986379604E+02 -0.66851423827E+02 -0.14742498733E+02  0.69685724448E+02  0.10000000000E+01 0.  0.
         21    1    1    2  502  501  0.20586235415E+02  0.27461884476E+02 -0.40638237056E+02  0.53192240962E+02  0.00000000000E+00 0. -1.
<mgrwt>
<rscale>  1 0.12962600E+03</rscale>
<asrwt>0</asrwt>
<pdfrwt beam="1">  1        4 0.12402378E-01 0.12962600E+03</pdfrwt>
<pdfrwt beam="2">  1       -4 0.15911283E-01 0.12962600E+03</pdfrwt>
<totfact> 0.28910166E+03</totfact>
</mgrwt>
</event>
<event>
 6    4  0.2103460E-003  0.1270529E+03  0.7818608E-02  0.1231895E+00
          4   -1    0    0  502    0  0.00000000000E+00  0.00000000000E+00  0.20389344251E+03  0.20389739773E+03  0.12700000000E+01 0.  1.
         -4   -1    0    0    0  501 -0.00000000000E+00 -0.00000000000E+00 -0.62986002113E+02  0.62998804451E+02  0.12700000000E+01 0.  1.
         25    2    1    2    0    0 -0.94136457416E+00 -0.22728171809E+02  0.18079774848E+03  0.22097569870E+03  0.12499991039E+03 0.  0.
    9000005    1    3    3    0    0  0.54533128942E+02  0.15057714139E+02  0.10818109935E+03  0.12208499975E+03  0.10000000000E+01 0.  0.
    9000005    1    3    3    0    0 -0.55474493516E+02 -0.37785885948E+02  0.72616649134E+02  0.98890698952E+02  0.10000000000E+01 0.  0.
         21    1    1    2  502  501  0.94136457416E+00  0.22728171809E+02 -0.39890308081E+02  0.45920503479E+02  0.00000000000E+00 0.  1.
<mgrwt>
<rscale>  1 0.12705288E+03</rscale>
<asrwt>0</asrwt>
<pdfrwt beam="1">  1        4 0.31369511E-01 0.12705288E+03</pdfrwt>
<pdfrwt beam="2">  1       -4 0.96914432E-02 0.12705288E+03</pdfrwt>
<totfact> 0.12694031E+03</totfact>
</mgrwt>
</event>
<event>
 6    4  0.2103460E-003  0.1316094E+03  0.7818608E-02  0.1225087E+00
          4   -1    0    0  502    0  0.00000000000E+00  0.00000000000E+00  0.71741059525E+02  0.71752299766E+02  0.12700000000E+01 0.  1.
         -4   -1    0    0    0  501 -0.00000000000E+00 -0.00000000000E+00 -0.10846411435E+03  0.10847154927E+03  0.12700000000E+01 0.  1.
         25    2    1    2    0    0 -0.14684164716E+02  0.38447832041E+02 -0.11865766048E+02  0.13214323665E+03  0.12500871212E+03 0.  0.
    9000005    1    3    3    0    0 -0.67598956761E+01 -0.45210291923E+02 -0.14782725933E+02  0.48054091099E+02  0.10000000000E+01 0.  0.
    9000005    1    3    3    0    0 -0.79242690401E+01  0.83658123964E+02  0.29169598849E+01  0.84089145554E+02  0.10000000000E+01 0.  0.
         21    1    1    2  502  501  0.14684164716E+02 -0.38447832041E+02 -0.24857288773E+02  0.48080612384E+02  0.00000000000E+00 0. -1.
<mgrwt>
<rscale>  1 0.13160942E+03</rscale>
<asrwt>0</asrwt>
<pdfrwt beam="1">  1        4 0.11038523E-01 0.13160942E+03</pdfrwt>
<pdfrwt beam="2">  1       -4 0.16688223E-01 0.13160942E+03</pdfrwt>
<totfact> 0.32546633E+03</totfact>
</mgrwt>
</event>
<event>
 6    4  0.2103460E-003  0.1611766E+03  0.7818608E-02  0.1187375E+00
         -4   -1    0    0    0  501 -0.00000000000E+00  0.00000000000E+00  0.30793758070E+03  0.30794019957E+03  0.12700000000E+01 0. -1.
          4   -1    0    0  502    0  0.00000000000E+00 -0.00000000000E+00 -0.76205053767E+02  0.76215635663E+02  0.12700000000E+01 0. -1.
         25    2    1    2    0    0  0.96691100202E+02 -0.31695918291E+02  0.38410475915E+02  0.16569024182E+03  0.12499636586E+03 0.  0.
    9000005    1    3    3    0    0  0.12171261252E+03 -0.18541920048E+02  0.52787599397E+02  0.13396004440E+03  0.10000000000E+01 0.  0.
    9000005    1    3    3    0    0 -0.25021512318E+02 -0.13153998243E+02 -0.14377123482E+02  0.31730197416E+02  0.10000000000E+01 0.  0.
         21    1    1    2  502  501 -0.96691100202E+02  0.31695918291E+02  0.19332205102E+03  0.21846559341E+03  0.00000000000E+00 0. -1.
<mgrwt>
<rscale>  1 0.16117659E+03</rscale>
<asrwt>0</asrwt>
<pdfrwt beam="2">  1        4 0.11724870E-01 0.16117659E+03</pdfrwt>
<pdfrwt beam="1">  1       -4 0.47376027E-01 0.16117659E+03</pdfrwt>
<totfact> 0.42950369E+02</totfact>
</mgrwt>
</event>
<event>
 6    4  0.2103460E-003  0.1283054E+03  0.7818608E-02  0.1229992E+00
         -4   -1    0    0    0  501 -0.00000000000E+00  0.00000000000E+00  0.10889517596E+03  0.10890258145E+03  0.12700000000E+01 0. -1.
          4   -1    0    0  502    0  0.00000000000E+00 -0.00000000000E+00 -0.60116176036E+02  0.60129589398E+02  0.12700000000E+01 0. -1.
         25    2    1    2    0    0 -0.27947938981E+02  0.74895512808E+01  0.23145134143E+02  0.13037630782E+03  0.12500041494E+03 0.  0.
    9000005    1    3    3    0    0  0.38326881630E+02  0.39049532618E+02  0.65890222110E+01  0.55120151187E+02  0.10000000000E+01 0.  0.
    9000005    1    3    3    0    0 -0.66274820611E+02 -0.31559981338E+02  0.16556111932E+02  0.75256156634E+02  0.10000000000E+01 0.  0.
         21    1    1    2  502  501  0.27947938981E+02 -0.74895512808E+01  0.25633865776E+02  0.38655863026E+02  0.00000000000E+00 0. -1.
<mgrwt>
<rscale>  1 0.12830543E+03</rscale>
<asrwt>0</asrwt>
<pdfrwt beam="2">  1        4 0.92502441E-02 0.12830543E+03</pdfrwt>
<pdfrwt beam="1">  1       -4 0.16754705E-01 0.12830543E+03</pdfrwt>
<totfact> 0.43259218E+03</totfact>
</mgrwt>
</event>
<event>
 6    4  0.2103460E-003  0.1313726E+03  0.7818608E-02  0.1225433E+00
         -4   -1    0    0    0  501 -0.00000000000E+00  0.00000000000E+00  0.35793135215E+03  0.35793360523E+03  0.12700000000E+01 0. -1.
          4   -1    0    0  502    0  0.00000000000E+00 -0.00000000000E+00 -0.20825117102E+02  0.20863806036E+02  0.12700000000E+01 0. -1.
         25    2    1    2    0    0 -0.12059475953E+02  0.38641312828E+02  0.24025069762E+03  0.27382323755E+03  0.12498074130E+03 0.  0.
    9000005    1    3    3    0    0 -0.59110919839E+02 -0.13856177718E+02  0.11764952946E+03  0.13239526535E+03  0.10000000000E+01 0.  0.
    9000005    1    3    3    0    0  0.47051443886E+02  0.52497490545E+02  0.12260116816E+03  0.14142797220E+03  0.10000000000E+01 0.  0.
         21    1    1    2  502  501  0.12059475953E+02 -0.38641312828E+02  0.96855537428E+02  0.10497417372E+03  0.00000000000E+00 0. -1.
<mgrwt>
<rscale>  1 0.13137263E+03</rscale>
<asrwt>0</asrwt>
<pdfrwt beam="2">  1        4 0.32070135E-02 0.13137263E+03</pdfrwt>
<pdfrwt beam="1">  1       -4 0.55069512E-01 0.13137263E+03</pdfrwt>
<totfact> 0.25164498E+03</totfact>
</mgrwt>
</event>
<event>
 6    4  0.2103460E-003  0.1270466E+03  0.7818608E-02  0.1231905E+00
          4   -1    0    0  502    0  0.00000000000E+00  0.00000000000E+00  0.12723957984E+02  0.12787181346E+02  0.12700000000E+01 0. -1.
         -4   -1    0    0    0  501 -0.00000000000E+00 -0.00000000000E+00 -0.49946450216E+03  0.49946611678E+03  0.12700000000E+01 0. -1.
         25    2    1    2    0    0 -0.20111834317E+02  0.10585018906E+02 -0.32543972901E+03  0.34935921758E+03  0.12499726872E+03 0.  0.
    9000005    1    3    3    0    0 -0.22171931333E+02  0.58827540883E+02 -0.26305116851E+03  0.27046107180E+03  0.10000000000E+01 0.  0.
    9000005    1    3    3    0    0  0.20600970160E+01 -0.48242521977E+02 -0.62388560493E+02  0.78898145775E+02  0.10000000000E+01 0.  0.
         21    1    1    2  502  501  0.20111834317E+02 -0.10585018906E+02 -0.16130081517E+03  0.16289408055E+03  0.00000000000E+00 0.  1.
<mgrwt>
<rscale>  1 0.12704663E+03</rscale>
<asrwt>0</asrwt>
<pdfrwt beam="1">  1        4 0.19625199E-02 0.12704663E+03</pdfrwt>
<pdfrwt beam="2">  1       -4 0.76845665E-01 0.12704663E+03</pdfrwt>
<totfact> 0.26341412E+03</totfact>
</mgrwt>
</event>
<event>
 6    4  0.2103460E-003  0.1267203E+03  0.7818608E-02  0.1232405E+00
         -4   -1    0    0    0  501 -0.00000000000E+00  0.00000000000E+00  0.27963560941E+02  0.27992385402E+02  0.12700000000E+01 0. -1.
          4   -1    0    0  502    0  0.00000000000E+00 -0.00000000000E+00 -0.25161718450E+03  0.25162038955E+03  0.12700000000E+01 0. -1.
         25    2    1    2    0    0  0.16043433175E+02  0.13236943424E+02 -0.22556796349E+03  0.25872562300E+03  0.12500173369E+03 0.  0.
    9000005    1    3    3    0    0 -0.44573068233E+02 -0.23970425603E+02 -0.13064022244E+03  0.14010427343E+03  0.10000000000E+01 0.  0.
    9000005    1    3    3    0    0  0.60616501407E+02  0.37207369028E+02 -0.94927741055E+02  0.11862134957E+03  0.10000000000E+01 0.  0.
         21    1    1    2  502  501 -0.16043433175E+02 -0.13236943424E+02  0.19143399275E+01  0.20887151951E+02  0.00000000000E+00 0. -1.
<mgrwt>
<rscale>  1 0.12672033E+03</rscale>
<asrwt>0</asrwt>
<pdfrwt beam="2">  1        4 0.38712798E-01 0.12672033E+03</pdfrwt>
<pdfrwt beam="1">  1       -4 0.43045503E-02 0.12672033E+03</pdfrwt>
<totfact> 0.31814010E+03</totfact>
</mgrwt>
</event>
<event>
 6    4  0.2103460E-003  0.1413791E+03  0.7818608E-02  0.1211485E+00
         -4   -1    0    0    0  501 -0.00000000000E+00  0.00000000000E+00  0.44426269519E+02  0.44444418361E+02  0.12700000000E+01 0.  1.
          4   -1    0    0  502    0  0.00000000000E+00 -0.00000000000E+00 -0.34784283585E+03  0.34784515427E+03  0.12700000000E+01 0.  1.
         25    2    1    2    0    0 -0.65921743283E+02 -0.42538484232E+01 -0.29311858188E+03  0.32543286057E+03  0.12499708890E+03 0.  0.
    9000005    1    3    3    0    0  0.23639888717E+02 -0.38548300114E+02 -0.10296357739E+03  0.11246027765E+03  0.10000000000E+01 0.  0.
    9000005    1    3    3    0    0 -0.89561632000E+02  0.34294451691E+02 -0.19015500449E+03  0.21297258292E+03  0.10000000000E+01 0.  0.
         21    1    1    2  502  501  0.65921743283E+02  0.42538484232E+01 -0.10297984448E+02  0.66856712061E+02  0.00000000000E+00 0.  1.
<mgrwt>
<rscale>  1 0.14137908E+03</rscale>
<asrwt>0</asrwt>
<pdfrwt beam="2">  1        4 0.53515855E-01 0.14137908E+03</pdfrwt>
<pdfrwt beam="1">  1       -4 0.68363853E-02 0.14137908E+03</pdfrwt>
<totfact> 0.80600081E+02</totfact>
</mgrwt>
</event>
<event>
 6    4  0.2103460E-003  0.1283976E+03  0.7818608E-02  0.1229853E+00
         -4   -1    0    0    0  501 -0.00000000000E+00  0.00000000000E+00  0.36547131384E+02  0.36569190754E+02  0.12700000000E+01 0.  1.
          4   -1    0    0  502    0  0.00000000000E+00 -0.00000000000E+00 -0.18123176374E+03  0.18123621351E+03  0.12700000000E+01 0.  1.
         25    2    1    2    0    0  0.29248625951E+02  0.24563615928E+01 -0.13635916340E+03  0.18729590959E+03  0.12499768187E+03 0.  0.
    9000005    1    3    3    0    0  0.72817839107E+02  0.13280014777E+02 -0.11687619320E+03  0.13834681428E+03  0.10000000000E+01 0.  0.
    9000005    1    3    3    0    0 -0.43569213156E+02 -0.10823653185E+02 -0.19482970192E+02  0.48949095301E+02  0.10000000000E+01 0.  0.
         21    1    1    2  502  501 -0.29248625951E+02 -0.24563615928E+01 -0.83254689579E+01  0.30509494680E+02  0.00000000000E+00 0. -1.
<mgrwt>
<rscale>  1 0.12839757E+03</rscale>
<asrwt>0</asrwt>
<pdfrwt beam="2">  1        4 0.27883849E-01 0.12839757E+03</pdfrwt>
<pdfrwt beam="1">  1       -4 0.56246748E-02 0.12839757E+03</pdfrwt>
<totfact> 0.38905029E+03</totfact>
</mgrwt>
</event>
<event>
 6    4  0.2103460E-003  0.1394321E+03  0.7818608E-02  0.1214095E+00
          4   -1    0    0  502    0  0.00000000000E+00  0.00000000000E+00  0.83335354240E+02  0.83345030843E+02  0.12700000000E+01 0.  1.
         -4   -1    0    0    0  501 -0.00000000000E+00 -0.00000000000E+00 -0.22578031044E+03  0.22578388225E+03  0.12700000000E+01 0.  1.
         25    2    1    2    0    0 -0.42629225248E+02 -0.44710832143E+02  0.14769987173E+02  0.14021222423E+03  0.12500002378E+03 0.  0.
    9000005    1    3    3    0    0  0.62877739074E+01  0.62631610005E+01  0.57135046441E+02  0.57828858006E+02  0.10000000000E+01 0.  0.
    9000005    1    3    3    0    0 -0.48916999156E+02 -0.50973993143E+02 -0.42365059268E+02  0.82383366222E+02  0.10000000000E+01 0.  0.
         21    1    1    2  502  501  0.42629225248E+02  0.44710832143E+02 -0.15721494338E+03  0.16891668887E+03  0.00000000000E+00 0.  1.
<mgrwt>
<rscale>  1 0.13943212E+03</rscale>
<asrwt>0</asrwt>
<pdfrwt beam="1">  1        4 0.12821843E-01 0.13943212E+03</pdfrwt>
<pdfrwt beam="2">  1       -4 0.34736451E-01 0.13943212E+03</pdfrwt>
<totfact> 0.66180951E+02</totfact>
</mgrwt>
</event>
<event>
 6    4  0.2103460E-003  0.1303877E+03  0.7818608E-02  0.1226882E+00
          4   -1    0    0  502    0  0.00000000000E+00  0.00000000000E+00  0.16218448015E+03  0.16218945250E+03  0.12700000000E+01 0. -1.
         -4   -1    0    0    0  501 -0.00000000000E+00 -0.00000000000E+00 -0.86327156639E+02  0.86336497921E+02  0.12700000000E+01 0. -1.
         25    2    1    2    0    0 -0.33529576226E+02  0.15862304039E+02  0.12919763394E+03  0.18355646614E+03  0.12500040990E+03 0.  0.
    9000005    1    3    3    0    0  0.21156492082E+02 -0.23285111281E+02 -0.64660426889E+01  0.32134144965E+02  0.10000000000E+01 0.  0.
    9000005    1    3    3    0    0 -0.54686068308E+02  0.39147415320E+02  0.13566367663E+03  0.15142232117E+03  0.10000000000E+01 0.  0.
         21    1    1    2  502  501  0.33529576226E+02 -0.15862304039E+02 -0.53340310427E+02  0.64969484281E+02  0.00000000000E+00 0. -1.
<mgrwt>
<rscale>  1 0.13038768E+03</rscale>
<asrwt>0</asrwt>
<pdfrwt beam="1">  1        4 0.24952559E-01 0.13038768E+03</pdfrwt>
<pdfrwt beam="2">  1       -4 0.13282202E-01 0.13038768E+03</pdfrwt>
<totfact> 0.11461293E+03</totfact>
</mgrwt>
</event>
<event>
 6    4  0.2103460E-003  0.1273565E+03  0.7818608E-02  0.1231432E+00
         -4   -1    0    0    0  501 -0.00000000000E+00  0.00000000000E+00  0.25919706850E+02  0.25950801591E+02  0.12700000000E+01 0.  1.
          4   -1    0    0  502    0  0.00000000000E+00 -0.00000000000E+00 -0.24381529382E+03  0.24381860143E+03  0.12700000000E+01 0.  1.
         25    2    1    2    0    0 -0.17088363108E+02 -0.17374212727E+02 -0.20707768845E+03  0.24310665091E+03  0.12500319692E+03 0.  0.
    9000005    1    3    3    0    0 -0.31485914482E+02  0.20558783279E+02 -0.19796922383E+03  0.20151138917E+03  0.10000000000E+01 0.  0.
    9000005    1    3    3    0    0  0.14397551373E+02 -0.37932996006E+02 -0.91084646206E+01  0.41595261740E+02  0.10000000000E+01 0.  0.
         21    1    1    2  502  501  0.17088363108E+02  0.17374212727E+02 -0.10817898521E+02  0.26662752109E+02  0.00000000000E+00 0.  1.
<mgrwt>
<rscale>  1 0.12735649E+03</rscale>
<asrwt>0</asrwt>
<pdfrwt beam="2">  1        4 0.37512690E-01 0.12735649E+03</pdfrwt>
<pdfrwt beam="1">  1       -4 0.39902937E-02 0.12735649E+03</pdfrwt>
<totfact> 0.38207179E+03</totfact>
</mgrwt>
</event>
<event>
 6    4  0.2103460E-003  0.1286763E+03  0.7818608E-02  0.1229433E+00
          4   -1    0    0  502    0  0.00000000000E+00  0.00000000000E+00  0.55025389678E+03  0.55025536237E+03  0.12700000000E+01 0.  1.
         -4   -1    0    0    0  501 -0.00000000000E+00 -0.00000000000E+00 -0.26135758497E+02  0.26166596497E+02  0.12700000000E+01 0.  1.
         25    2    1    2    0    0 -0.29825600799E+02 -0.65190090287E+01  0.52994316861E+03  0.54534150005E+03  0.12500210311E+03 0.  0.
    9000005    1    3    3    0    0 -0.15766105960E+02  0.44192266884E+02  0.42844643208E+03  0.43100913182E+03  0.10000000000E+01 0.  0.
    9000005    1    3    3    0    0 -0.14059494839E+02 -0.50711275913E+02  0.10149673653E+03  0.11433236823E+03  0.10000000000E+01 0.  0.
         21    1    1    2  502  501  0.29825600799E+02  0.65190090287E+01 -0.58250303310E+01  0.31080458814E+02  0.00000000000E+00 0.  1.
<mgrwt>
<rscale>  1 0.12867630E+03</rscale>
<asrwt>0</asrwt>
<pdfrwt beam="1">  1        4 0.84656931E-01 0.12867630E+03</pdfrwt>
<pdfrwt beam="2">  1       -4 0.40233708E-02 0.12867630E+03</pdfrwt>
<totfact> 0.69554690E+02</totfact>
</mgrwt>
</event>
<event>
 6    4  0.2103460E-003  0.1303424E+03  0.7818608E-02  0.1226949E+00
         -4   -1    0    0    0  501 -0.00000000000E+00  0.00000000000E+00  0.32505425960E+03  0.32505674056E+03  0.12700000000E+01 0. -1.
          4   -1    0    0  502    0  0.00000000000E+00 -0.00000000000E+00 -0.23597941619E+02  0.23632091500E+02  0.12700000000E+01 0. -1.
         25    2    1    2    0    0  0.18411817184E+02  0.32012164409E+02  0.18345732649E+03  0.22504605761E+03  0.12500145487E+03 0.  0.
    9000005    1    3    3    0    0  0.45168689762E+02  0.31695451078E+02  0.18968790629E+03  0.19755331925E+03  0.10000000000E+01 0.  0.
    9000005    1    3    3    0    0 -0.26756872578E+02  0.31671333075E+00 -0.62305798023E+01  0.27492738353E+02  0.10000000000E+01 0.  0.
         21    1    1    2  502  501 -0.18411817184E+02 -0.32012164409E+02  0.11799899149E+03  0.12364277445E+03  0.00000000000E+00 0. -1.
<mgrwt>
<rscale>  1 0.13034239E+03</rscale>
<asrwt>0</asrwt>
<pdfrwt beam="2">  1        4 0.36332705E-02 0.13034239E+03</pdfrwt>
<pdfrwt beam="1">  1       -4 0.50011163E-01 0.13034239E+03</pdfrwt>
<totfact> 0.25146726E+03</totfact>
</mgrwt>
</event>
<event>
 6    4  0.2103460E-003  0.1472471E+03  0.7818608E-02  0.1203897E+00
          4   -1    0    0  502    0  0.00000000000E+00  0.00000000000E+00  0.14505687185E+04  0.14505692745E+04  0.12700000000E+01 0.  1.
         -4   -1    0    0    0  501 -0.00000000000E+00 -0.00000000000E+00 -0.91945646328E+01  0.92818596621E+01  0.12700000000E+01 0.  1.
         25    2    1    2    0    0 -0.23540326654E+02  0.74180114822E+02  0.10940518620E+04  0.11039162934E+04  0.12499947862E+03 0.  0.
    9000005    1    3    3    0    0 -0.23396297381E+02  0.10925242630E+03  0.79511280620E+03  0.80292518578E+03  0.10000000000E+01 0.  0.
    9000005    1    3    3    0    0 -0.14402927290E+00 -0.35072311473E+02  0.29893905581E+03  0.30099110762E+03  0.10000000000E+01 0.  0.
         21    1    1    2  502  501  0.23540326654E+02 -0.74180114822E+02  0.34732229188E+03  0.35593484073E+03  0.00000000000E+00 0.  1.
<mgrwt>
<rscale>  1 0.14724709E+03</rscale>
<asrwt>0</asrwt>
<pdfrwt beam="1">  1        4 0.22317123E+00 0.14724709E+03</pdfrwt>
<pdfrwt beam="2">  1       -4 0.14213058E-02 0.14724709E+03</pdfrwt>
<totfact> 0.30732979E+02</totfact>
</mgrwt>
</event>
<event>
 6    4  0.2103460E-003  0.1282907E+03  0.7818608E-02  0.1230014E+00
          4   -1    0    0  502    0  0.00000000000E+00  0.00000000000E+00  0.19093340743E+03  0.19093763111E+03  0.12700000000E+01 0.  1.
         -4   -1    0    0    0  501 -0.00000000000E+00 -0.00000000000E+00 -0.36593789324E+02  0.36615820585E+02  0.12700000000E+01 0.  1.
         25    2    1    2    0    0 -0.20874075467E+02  0.19976727662E+02  0.15149999328E+03  0.19852139796E+03  0.12499480314E+03 0.  0.
    9000005    1    3    3    0    0  0.40797348343E+02 -0.27598800813E+02  0.46186469148E+02  0.67530047908E+02  0.10000000000E+01 0.  0.
    9000005    1    3    3    0    0 -0.61671423810E+02  0.47575528475E+02  0.10531352413E+03  0.13099135006E+03  0.10000000000E+01 0.  0.
         21    1    1    2  502  501  0.20874075467E+02 -0.19976727662E+02  0.28396248301E+01  0.29032053732E+02  0.00000000000E+00 0.  1.
<mgrwt>
<rscale>  1 0.12829068E+03</rscale>
<asrwt>0</asrwt>
<pdfrwt beam="1">  1        4 0.29376390E-01 0.12829068E+03</pdfrwt>
<pdfrwt beam="2">  1       -4 0.56318334E-02 0.12829068E+03</pdfrwt>
<totfact> 0.35199642E+03</totfact>
</mgrwt>
</event>
<event>
 6    4  0.2103460E-003  0.1269704E+03  0.7818608E-02  0.1232022E+00
         -4   -1    0    0    0  501 -0.00000000000E+00  0.00000000000E+00  0.11380785035E+02  0.11451426462E+02  0.12700000000E+01 0. -1.
          4   -1    0    0  502    0  0.00000000000E+00 -0.00000000000E+00 -0.48884887837E+03  0.48885052806E+03  0.12700000000E+01 0. -1.
         25    2    1    2    0    0 -0.96798461697E+01 -0.20046002094E+02 -0.39685937455E+03  0.41667595876E+03  0.12500379924E+03 0.  0.
    9000005    1    3    3    0    0 -0.14636056614E+02  0.52265378167E+02 -0.18151651881E+03  0.18946010268E+03  0.10000000000E+01 0.  0.
    9000005    1    3    3    0    0  0.49562104442E+01 -0.72311380261E+02 -0.21534285574E+03  0.22721585608E+03  0.10000000000E+01 0.  0.
         21    1    1    2  502  501  0.96798461697E+01  0.20046002094E+02 -0.80608718792E+02  0.83625995762E+02  0.00000000000E+00 0.  1.
<mgrwt>
<rscale>  1 0.12697044E+03</rscale>
<asrwt>0</asrwt>
<pdfrwt beam="2">  1        4 0.75213064E-01 0.12697044E+03</pdfrwt>
<pdfrwt beam="1">  1       -4 0.17564512E-02 0.12697044E+03</pdfrwt>
<totfact> 0.32724911E+03</totfact>
</mgrwt>
</event>
<event>
 6    4  0.2103460E-003  0.1346866E+03  0.7818608E-02  0.1220663E+00
         -4   -1    0    0    0  501 -0.00000000000E+00  0.00000000000E+00  0.43471759488E+03  0.43471944999E+03  0.12700000000E+01 0. -1.
          4   -1    0    0  502    0  0.00000000000E+00 -0.00000000000E+00 -0.22586435201E+02  0.22622112083E+02  0.12700000000E+01 0. -1.
         25    2    1    2    0    0 -0.46760031966E+02  0.18138041124E+02  0.21315686555E+03  0.25214346547E+03  0.12499995489E+03 0.  0.
    9000005    1    3    3    0    0 -0.47383240168E+02 -0.19530552463E+02  0.20785841704E+03  0.21408581331E+03  0.10000000000E+01 0.  0.
    9000005    1    3    3    0    0  0.62320820139E+00  0.37668593587E+02  0.52984485179E+01  0.38057652161E+02  0.10000000000E+01 0.  0.
         21    1    1    2  502  501  0.46760031966E+02 -0.18138041124E+02  0.19897429412E+03  0.20519809660E+03  0.00000000000E+00 0. -1.
<mgrwt>
<rscale>  1 0.13468659E+03</rscale>
<asrwt>0</asrwt>
<pdfrwt beam="2">  1        4 0.34777235E-02 0.13468659E+03</pdfrwt>
<pdfrwt beam="1">  1       -4 0.66882513E-01 0.13468659E+03</pdfrwt>
<totfact> 0.14801250E+03</totfact>
</mgrwt>
</event>
<event>
 6    4  0.2103460E-003  0.1757051E+03  0.7818608E-02  0.1172026E+00
          4   -1    0    0  502    0  0.00000000000E+00  0.00000000000E+00  0.38672993950E+03  0.38673202480E+03  0.12700000000E+01 0.  1.
         -4   -1    0    0    0  501 -0.00000000000E+00 -0.00000000000E+00 -0.63104027571E+02  0.63116805968E+02  0.12700000000E+01 0.  1.
         25    2    1    2    0    0  0.92223958630E+02 -0.82110767587E+02  0.25165691102E+03  0.30692586623E+03  0.12499939920E+03 0.  0.
    9000005    1    3    3    0    0  0.11637277473E+03 -0.45823478124E+02  0.21992003424E+03  0.25299848874E+03  0.10000000000E+01 0.  0.
    9000005    1    3    3    0    0 -0.24148816098E+02 -0.36287289462E+02  0.31736876774E+02  0.53927377489E+02  0.10000000000E+01 0.  0.
         21    1    1    2  502  501 -0.92223958630E+02  0.82110767587E+02  0.71969000911E+02  0.14292296453E+03  0.00000000000E+00 0.  1.
<mgrwt>
<rscale>  1 0.17570511E+03</rscale>
<asrwt>0</asrwt>
<pdfrwt beam="1">  1        4 0.59498058E-01 0.17570511E+03</pdfrwt>
<pdfrwt beam="2">  1       -4 0.97094552E-02 0.17570511E+03</pdfrwt>
<totfact> 0.37522248E+02</totfact>
</mgrwt>
</event>
<event>
 6    4  0.2103460E-003  0.1296239E+03  0.7818608E-02  0.1228015E+00
         -4   -1    0    0    0  501 -0.00000000000E+00  0.00000000000E+00  0.27942500533E+02  0.27971346697E+02  0.12700000000E+01 0. -1.
          4   -1    0    0  502    0  0.00000000000E+00 -0.00000000000E+00 -0.24040890112E+03  0.24041225559E+03  0.12700000000E+01 0. -1.
         25    2    1    2    0    0 -0.22485083615E+02  0.25912989307E+02 -0.17046029549E+03  0.21414731494E+03  0.12500119262E+03 0.  0.
    9000005    1    3    3    0    0 -0.40760657519E+02  0.50155214503E+02 -0.31497177497E+02  0.71903052324E+02  0.10000000000E+01 0.  0.
    9000005    1    3    3    0    0  0.18275573904E+02 -0.24242225196E+02 -0.13896311800E+03  0.14224426262E+03  0.10000000000E+01 0.  0.
         21    1    1    2  502  501  0.22485083615E+02 -0.25912989307E+02 -0.42006105089E+02  0.54236287343E+02  0.00000000000E+00 0. -1.
<mgrwt>
<rscale>  1 0.12962392E+03</rscale>
<asrwt>0</asrwt>
<pdfrwt beam="2">  1        4 0.36988460E-01 0.12962392E+03</pdfrwt>
<pdfrwt beam="1">  1       -4 0.43013234E-02 0.12962392E+03</pdfrwt>
<totfact> 0.35002900E+03</totfact>
</mgrwt>
</event>
<event>
 6    4  0.2103460E-003  0.1288750E+03  0.7818608E-02  0.1229135E+00
         -4   -1    0    0    0  501 -0.00000000000E+00  0.00000000000E+00  0.30679887366E+02  0.30706162065E+02  0.12700000000E+01 0. -1.
          4   -1    0    0  502    0  0.00000000000E+00 -0.00000000000E+00 -0.25162077076E+03  0.25162397576E+03  0.12700000000E+01 0. -1.
         25    2    1    2    0    0  0.13413750831E+02  0.28348815366E+02 -0.21461483556E+03  0.25033634272E+03  0.12500069120E+03 0.  0.
    9000005    1    3    3    0    0 -0.36174256289E+02  0.59408633654E+02 -0.13024524657E+03  0.14765766768E+03  0.10000000000E+01 0.  0.
    9000005    1    3    3    0    0  0.49588007120E+02 -0.31059818289E+02 -0.84369588995E+02  0.10267867505E+03  0.10000000000E+01 0.  0.
         21    1    1    2  502  501 -0.13413750831E+02 -0.28348815366E+02 -0.63260478361E+01  0.31993795105E+02  0.00000000000E+00 0. -1.
<mgrwt>
<rscale>  1 0.12887497E+03</rscale>
<asrwt>0</asrwt>
<pdfrwt beam="2">  1        4 0.38713154E-01 0.12887497E+03</pdfrwt>
<pdfrwt beam="1">  1       -4 0.47222505E-02 0.12887497E+03</pdfrwt>
<totfact> 0.27552386E+03</totfact>
</mgrwt>
</event>
<event>
 6    4  0.2103460E-003  0.1341688E+03  0.7818608E-02  0.1221398E+00
          4   -1    0    0  502    0  0.00000000000E+00  0.00000000000E+00  0.89816220809E+02  0.89825199251E+02  0.12700000000E+01 0.  1.
         -4   -1    0    0    0  501 -0.00000000000E+00 -0.00000000000E+00 -0.93098665924E+02  0.93107327836E+02  0.12700000000E+01 0.  1.
         25    2    1    2    0    0 -0.41041539304E+02 -0.26276039989E+02 -0.20294116497E+01  0.13418410846E+03  0.12500567277E+03 0.  0.
    9000005    1    3    3    0    0 -0.18799350535E+02 -0.76672051052E+02 -0.40347154705E+01  0.79052501048E+02  0.10000000000E+01 0.  0.
    9000005    1    3    3    0    0 -0.22242188768E+02  0.50396011063E+02  0.20053038208E+01  0.55131607410E+02  0.10000000000E+01 0.  0.
         21    1    1    2  502  501  0.41041539304E+02  0.26276039989E+02 -0.12530334647E+01  0.48748418628E+02  0.00000000000E+00 0.  1.
<mgrwt>
<rscale>  1 0.13416876E+03</rscale>
<asrwt>0</asrwt>
<pdfrwt beam="1">  1        4 0.13819237E-01 0.13416876E+03</pdfrwt>
<pdfrwt beam="2">  1       -4 0.14324229E-01 0.13416876E+03</pdfrwt>
<totfact> 0.29061609E+03</totfact>
</mgrwt>
</event>
<event>
 6    4  0.2103460E-003  0.1311870E+03  0.7818608E-02  0.1225705E+00
          4   -1    0    0  502    0  0.00000000000E+00  0.00000000000E+00  0.10473858580E+03  0.10474628516E+03  0.12700000000E+01 0. -1.
         -4   -1    0    0    0  501 -0.00000000000E+00 -0.00000000000E+00 -0.10017121327E+03  0.10017926367E+03  0.12700000000E+01 0. -1.
         25    2    1    2    0    0 -0.13748047116E+02  0.37377264880E+02  0.53636789557E+02  0.14172842534E+03  0.12499589044E+03 0.  0.
    9000005    1    3    3    0    0  0.28616713288E+01  0.17235584708E+02  0.92918392507E+02  0.94552007959E+02  0.10000000000E+01 0.  0.
    9000005    1    3    3    0    0 -0.16609718445E+02  0.20141680173E+02 -0.39281602950E+02  0.47176417385E+02  0.10000000000E+01 0.  0.
         21    1    1    2  502  501  0.13748047116E+02 -0.37377264880E+02 -0.49069417029E+02  0.63197123487E+02  0.00000000000E+00 0.  1.
<mgrwt>
<rscale>  1 0.13118705E+03</rscale>
<asrwt>0</asrwt>
<pdfrwt beam="1">  1        4 0.16114840E-01 0.13118705E+03</pdfrwt>
<pdfrwt beam="2">  1       -4 0.15412167E-01 0.13118705E+03</pdfrwt>
<totfact> 0.19463412E+03</totfact>
</mgrwt>
</event>
<event>
 6    4  0.2103460E-003  0.1325913E+03  0.7818608E-02  0.1223661E+00
         -4   -1    0    0    0  501 -0.00000000000E+00  0.00000000000E+00  0.46700247389E+03  0.46700420075E+03  0.12700000000E+01 0. -1.
          4   -1    0    0  502    0  0.00000000000E+00 -0.00000000000E+00 -0.26509056987E+02  0.26539461229E+02  0.12700000000E+01 0. -1.
         25    2    1    2    0    0 -0.10884052576E+02 -0.42857922490E+02  0.15209659570E+03  0.20177664774E+03  0.12500070811E+03 0.  0.
    9000005    1    3    3    0    0 -0.11917347416E+02 -0.99717040458E+01 -0.20683121627E+02  0.25889178651E+02  0.10000000000E+01 0.  0.
    9000005    1    3    3    0    0  0.10332948401E+01 -0.32886218445E+02  0.17277971733E+03  0.17588746909E+03  0.10000000000E+01 0.  0.
         21    1    1    2  502  501  0.10884052576E+02  0.42857922490E+02  0.28839682120E+03  0.29176701424E+03  0.00000000000E+00 0. -1.
<mgrwt>
<rscale>  1 0.13259126E+03</rscale>
<asrwt>0</asrwt>
<pdfrwt beam="2">  1        4 0.40807883E-02 0.13259126E+03</pdfrwt>
<pdfrwt beam="1">  1       -4 0.71849002E-01 0.13259126E+03</pdfrwt>
<totfact> 0.98164266E+02</totfact>
</mgrwt>
</event>
<event>
 6    4  0.2103460E-003  0.1277946E+03  0.7818608E-02  0.1230765E+00
          4   -1    0    0  502    0  0.00000000000E+00  0.00000000000E+00  0.12993491406E+03  0.12994112048E+03  0.12700000000E+01 0. -1.
         -4   -1    0    0    0  501 -0.00000000000E+00 -0.00000000000E+00 -0.56801587433E+02  0.56815783326E+02  0.12700000000E+01 0. -1.
         25    2    1    2    0    0  0.17092869119E+02 -0.20351976746E+02  0.89065803841E+02  0.15576960056E+03  0.12500032765E+03 0.  0.
    9000005    1    3    3    0    0  0.27666565505E+02 -0.40894348126E+02 -0.13040847917E+02  0.51076905445E+02  0.10000000000E+01 0.  0.
    9000005    1    3    3    0    0 -0.10573696386E+02  0.20542371379E+02  0.10210665176E+03  0.10469269511E+03  0.10000000000E+01 0.  0.
         21    1    1    2  502  501 -0.17092869119E+02  0.20351976746E+02 -0.15932477216E+02  0.30987303245E+02  0.00000000000E+00 0. -1.
<mgrwt>
<rscale>  1 0.12779457E+03</rscale>
<asrwt>0</asrwt>
<pdfrwt beam="1">  1        4 0.19991556E-01 0.12779457E+03</pdfrwt>
<pdfrwt beam="2">  1       -4 0.87402753E-02 0.12779457E+03</pdfrwt>
<totfact> 0.34693887E+03</totfact>
</mgrwt>
</event>
<event>
 6    4  0.2103460E-003  0.1269613E+03  0.7818608E-02  0.1232036E+00
          4   -1    0    0  502    0  0.00000000000E+00  0.00000000000E+00  0.56918015615E+03  0.56918157301E+03  0.12700000000E+01 0.  1.
         -4   -1    0    0    0  501 -0.00000000000E+00 -0.00000000000E+00 -0.10599712095E+02  0.10675523242E+02  0.12700000000E+01 0.  1.
         25    2    1    2    0    0 -0.15917960067E+02  0.15550845226E+02  0.52041277323E+03  0.53567586340E+03  0.12499586334E+03 0.  0.
    9000005    1    3    3    0    0 -0.60556944698E+02 -0.14785773276E+02  0.16882913980E+03  0.17997233423E+03  0.10000000000E+01 0.  0.
    9000005    1    3    3    0    0  0.44638984631E+02  0.30336618502E+02  0.35158363343E+03  0.35570352917E+03  0.10000000000E+01 0.  0.
         21    1    1    2  502  501  0.15917960067E+02 -0.15550845226E+02  0.38167670832E+02  0.44181232856E+02  0.00000000000E+00 0.  1.
<mgrwt>
<rscale>  1 0.12696132E+03</rscale>
<asrwt>0</asrwt>
<pdfrwt beam="1">  1        4 0.87572128E-01 0.12696132E+03</pdfrwt>
<pdfrwt beam="2">  1       -4 0.16366654E-02 0.12696132E+03</pdfrwt>
<totfact> 0.26034267E+03</totfact>
</mgrwt>
</event>
<event>
 6    4  0.2103460E-003  0.1271305E+03  0.7818608E-02  0.1231777E+00
          4   -1    0    0  502    0  0.00000000000E+00  0.00000000000E+00  0.16260191155E+03  0.16260687114E+03  0.12700000000E+01 0. -1.
         -4   -1    0    0    0  501 -0.00000000000E+00 -0.00000000000E+00 -0.38671613255E+02  0.38692461433E+02  0.12700000000E+01 0. -1.
         25    2    1    2    0    0 -0.20988955274E+02 -0.97390568790E+01  0.12479354883E+03  0.17814483681E+03  0.12500707012E+03 0.  0.
    9000005    1    3    3    0    0  0.49522650090E+02  0.21724394244E+01  0.25435029042E+02  0.55723900325E+02  0.10000000000E+01 0.  0.
    9000005    1    3    3    0    0 -0.70511605364E+02 -0.11911496303E+02  0.99358519792E+02  0.12242093649E+03  0.10000000000E+01 0.  0.
         21    1    1    2  502  501  0.20988955274E+02  0.97390568790E+01 -0.86325053477E+00  0.23154495759E+02  0.00000000000E+00 0. -1.
<mgrwt>
<rscale>  1 0.12713046E+03</rscale>
<asrwt>0</asrwt>
<pdfrwt beam="1">  1        4 0.25017664E-01 0.12713046E+03</pdfrwt>
<pdfrwt beam="2">  1       -4 0.59514642E-02 0.12713046E+03</pdfrwt>
<totfact> 0.43318292E+03</totfact>
</mgrwt>
</event>
<event>
 6    4  0.2103460E-003  0.1277677E+03  0.7818608E-02  0.1230806E+00
         -4   -1    0    0    0  501 -0.00000000000E+00  0.00000000000E+00  0.16048457261E+03  0.16048959762E+03  0.12700000000E+01 0. -1.
          4   -1    0    0  502    0  0.00000000000E+00 -0.00000000000E+00 -0.42993908937E+02  0.43012662155E+02  0.12700000000E+01 0. -1.
         25    2    1    2    0    0  0.16767181581E+02 -0.20467972242E+02  0.61978241687E+02  0.14200668871E+03  0.12499808371E+03 0.  0.
    9000005    1    3    3    0    0  0.36951318147E+02 -0.66787459869E+02  0.45428746186E+02  0.88829813061E+02  0.10000000000E+01 0.  0.
    9000005    1    3    3    0    0 -0.20184136565E+02  0.46319487627E+02  0.16549495502E+02  0.53176875654E+02  0.10000000000E+01 0.  0.
         21    1    1    2  502  501 -0.16767181581E+02  0.20467972242E+02  0.55512421983E+02  0.61495571062E+02  0.00000000000E+00 0. -1.
<mgrwt>
<rscale>  1 0.12776775E+03</rscale>
<asrwt>0</asrwt>
<pdfrwt beam="2">  1        4 0.66162768E-02 0.12776775E+03</pdfrwt>
<pdfrwt beam="1">  1       -4 0.24691763E-01 0.12776775E+03</pdfrwt>
<totfact> 0.37397347E+03</totfact>
</mgrwt>
</event>
<event>
 6    4  0.2103460E-003  0.1331997E+03  0.7818608E-02  0.1222784E+00
          4   -1    0    0  502    0  0.00000000000E+00  0.00000000000E+00  0.16944369520E+03  0.16944845453E+03  0.12700000000E+01 0. -1.
         -4   -1    0    0    0  501 -0.00000000000E+00 -0.00000000000E+00 -0.48980397877E+02  0.48996859860E+02  0.12700000000E+01 0. -1.
         25    2    1    2    0    0  0.17101414191E+02  0.42718428771E+02  0.10594306965E+03  0.17019430885E+03  0.12499938494E+03 0.  0.
    9000005    1    3    3    0    0  0.36839932579E+02  0.73610926562E+02  0.33265836962E+02  0.88788315957E+02  0.10000000000E+01 0.  0.
    9000005    1    3    3    0    0 -0.19738518387E+02 -0.30892497790E+02  0.72677232692E+02  0.81405992898E+02  0.10000000000E+01 0.  0.
         21    1    1    2  502  501 -0.17101414191E+02 -0.42718428771E+02  0.14520227672E+02  0.48251005541E+02  0.00000000000E+00 0. -1.
<mgrwt>
<rscale>  1 0.13319973E+03</rscale>
<asrwt>0</asrwt>
<pdfrwt beam="1">  1        4 0.26069893E-01 0.13319973E+03</pdfrwt>
<pdfrwt beam="2">  1       -4 0.75370783E-02 0.13319973E+03</pdfrwt>
<totfact> 0.27588866E+03</totfact>
</mgrwt>
</event>
<event>
 6    4  0.2103460E-003  0.1280025E+03  0.7818608E-02  0.1230450E+00
         -4   -1    0    0    0  501 -0.00000000000E+00  0.00000000000E+00  0.69030380213E+02  0.69042061762E+02  0.12700000000E+01 0.  1.
          4   -1    0    0  502    0  0.00000000000E+00 -0.00000000000E+00 -0.98415298519E+02  0.98423492534E+02  0.12700000000E+01 0.  1.
         25    2    1    2    0    0  0.15894256413E+02  0.22519800294E+02 -0.45125526791E+02  0.13572385384E+03  0.12499953016E+03 0.  0.
    9000005    1    3    3    0    0 -0.45818655672E+02  0.21896675303E+02  0.11369181004E+02  0.52048745168E+02  0.10000000000E+01 0.  0.
    9000005    1    3    3    0    0  0.61712912085E+02  0.62312499116E+00 -0.56494707795E+02  0.83675108674E+02  0.10000000000E+01 0.  0.
         21    1    1    2  502  501 -0.15894256413E+02 -0.22519800294E+02  0.15740608485E+02  0.31741700454E+02  0.00000000000E+00 0. -1.
<mgrwt>
<rscale>  1 0.12800254E+03</rscale>
<asrwt>0</asrwt>
<pdfrwt beam="2">  1        4 0.15142344E-01 0.12800254E+03</pdfrwt>
<pdfrwt beam="1">  1       -4 0.10621587E-01 0.12800254E+03</pdfrwt>
<totfact> 0.40920389E+03</totfact>
</mgrwt>
</event>
<event>
 6    4  0.2103460E-003  0.1283370E+03  0.7818608E-02  0.1229944E+00
          4   -1    0    0  502    0  0.00000000000E+00  0.00000000000E+00  0.23991108092E+02  0.24024699114E+02  0.12700000000E+01 0.  1.
         -4   -1    0    0    0  501 -0.00000000000E+00 -0.00000000000E+00 -0.27947744567E+03  0.27948033122E+03  0.12700000000E+01 0.  1.
         25    2    1    2    0    0  0.55175832817E+01 -0.28557167356E+02 -0.16865132391E+03  0.21192842234E+03  0.12499772641E+03 0.  0.
    9000005    1    3    3    0    0  0.11408918963E+02 -0.40299933240E+02 -0.18570815299E+03  0.19037532965E+03  0.10000000000E+01 0.  0.
    9000005    1    3    3    0    0 -0.58913356817E+01  0.11742765884E+02  0.17056829076E+02  0.21553092698E+02  0.10000000000E+01 0.  0.
         21    1    1    2  502  501 -0.55175832817E+01  0.28557167356E+02 -0.86835013662E+02  0.91576607987E+02  0.00000000000E+00 0.  1.
<mgrwt>
<rscale>  1 0.12833701E+03</rscale>
<asrwt>0</asrwt>
<pdfrwt beam="1">  1        4 0.36937458E-02 0.12833701E+03</pdfrwt>
<pdfrwt beam="2">  1       -4 0.42999334E-01 0.12833701E+03</pdfrwt>
<totfact> 0.33072298E+03</totfact>
</mgrwt>
</event>
<event>
 6    4  0.2103460E-003  0.1275673E+03  0.7818608E-02  0.1231111E+00
          4   -1    0    0  502    0  0.00000000000E+00  0.00000000000E+00  0.23938733768E+03  0.23939070647E+03  0.12700000000E+01 0.  1.
         -4   -1    0    0    0  501 -0.00000000000E+00 -0.00000000000E+00 -0.24437014177E+02  0.24469993092E+02  0.12700000000E+01 0.  1.
         25    2    1    2    0    0 -0.23923287095E+02 -0.87026932798E+01  0.17819547593E+03  0.21915075261E+03  0.12500145676E+03 0.  0.
    9000005    1    3    3    0    0 -0.34224309880E+02  0.46050521585E+02  0.14079542753E+03  0.15204047598E+03  0.10000000000E+01 0.  0.
    9000005    1    3    3    0    0  0.10301022785E+02 -0.54753214865E+02  0.37400048402E+02  0.67110276626E+02  0.10000000000E+01 0.  0.
         21    1    1    2  502  501  0.23923287095E+02  0.87026932798E+01  0.36754847578E+02  0.44709946950E+02  0.00000000000E+00 0. -1.
<mgrwt>
<rscale>  1 0.12756733E+03</rscale>
<asrwt>0</asrwt>
<pdfrwt beam="1">  1        4 0.36831618E-01 0.12756733E+03</pdfrwt>
<pdfrwt beam="2">  1       -4 0.37623366E-02 0.12756733E+03</pdfrwt>
<totfact> 0.43475825E+03</totfact>
</mgrwt>
</event>
<event>
 6    4  0.2103460E-003  0.1314274E+03  0.7818608E-02  0.1225353E+00
          4   -1    0    0  502    0  0.00000000000E+00  0.00000000000E+00  0.25200177873E+03  0.25200497888E+03  0.12700000000E+01 0.  1.
         -4   -1    0    0    0  501 -0.00000000000E+00 -0.00000000000E+00 -0.41313851289E+02  0.41333366768E+02  0.12700000000E+01 0.  1.
         25    2    1    2    0    0 -0.72344571402E+01 -0.39954023094E+02  0.21553636145E+03  0.25244618694E+03  0.12499797143E+03 0.  0.
    9000005    1    3    3    0    0  0.31062245735E+02 -0.50438967324E+02  0.37687394552E+02  0.70216039784E+02  0.10000000000E+01 0.  0.
    9000005    1    3    3    0    0 -0.38296702875E+02  0.10484944230E+02  0.17784896690E+03  0.18223014716E+03  0.10000000000E+01 0.  0.
         21    1    1    2  502  501  0.72344571402E+01  0.39954023094E+02 -0.48484340112E+01  0.40892158709E+02  0.00000000000E+00 0. -1.
<mgrwt>
<rscale>  1 0.13142737E+03</rscale>
<asrwt>0</asrwt>
<pdfrwt beam="1">  1        4 0.38771251E-01 0.13142737E+03</pdfrwt>
<pdfrwt beam="2">  1       -4 0.63577246E-02 0.13142737E+03</pdfrwt>
<totfact> 0.17072346E+03</totfact>
</mgrwt>
</event>
<event>
 6    4  0.2103460E-003  0.1308007E+03  0.7818608E-02  0.1226272E+00
         -4   -1    0    0    0  501 -0.00000000000E+00  0.00000000000E+00  0.47176550887E+02  0.47193642089E+02  0.12700000000E+01 0. -1.
          4   -1    0    0  502    0  0.00000000000E+00 -0.00000000000E+00 -0.30874533431E+03  0.30874794632E+03  0.12700000000E+01 0. -1.
         25    2    1    2    0    0  0.95282585282E+01  0.37271861512E+02 -0.28309941107E+03  0.31185590708E+03  0.12501540249E+03 0.  0.
    9000005    1    3    3    0    0 -0.34036138244E+02  0.17787747584E+02 -0.17877798010E+02  0.42373084999E+02  0.10000000000E+01 0.  0.
    9000005    1    3    3    0    0  0.43564396772E+02  0.19484113928E+02 -0.26522161306E+03  0.26948282208E+03  0.10000000000E+01 0.  0.
         21    1    1    2  502  501 -0.95282585282E+01 -0.37271861512E+02  0.21530627652E+02  0.44085681328E+02  0.00000000000E+00 0. -1.
<mgrwt>
<rscale>  1 0.13080073E+03</rscale>
<asrwt>0</asrwt>
<pdfrwt beam="2">  1        4 0.47500797E-01 0.13080073E+03</pdfrwt>
<pdfrwt beam="1">  1       -4 0.72594467E-02 0.13080073E+03</pdfrwt>
<totfact> 0.91673099E+02</totfact>
</mgrwt>
</event>
<event>
 6    4  0.2103460E-003  0.1281935E+03  0.7818608E-02  0.1230161E+00
         -4   -1    0    0    0  501 -0.00000000000E+00  0.00000000000E+00  0.20808648876E+02  0.20847368372E+02  0.12700000000E+01 0. -1.
          4   -1    0    0  502    0  0.00000000000E+00 -0.00000000000E+00 -0.29445631564E+03  0.29445905441E+03  0.12700000000E+01 0. -1.
         25    2    1    2    0    0 -0.22404072556E+02  0.17516213623E+02 -0.22488904454E+03  0.25886031177E+03  0.12499927379E+03 0.  0.
    9000005    1    3    3    0    0 -0.49630899331E+02  0.24226498344E+02 -0.31787217764E+02  0.63730499791E+02  0.10000000000E+01 0.  0.
    9000005    1    3    3    0    0  0.27226826775E+02 -0.67102847209E+01 -0.19310182678E+03  0.19512981198E+03  0.10000000000E+01 0.  0.
         21    1    1    2  502  501  0.22404072556E+02 -0.17516213623E+02 -0.48758622223E+02  0.56446111008E+02  0.00000000000E+00 0. -1.
<mgrwt>
<rscale>  1 0.12819352E+03</rscale>
<asrwt>0</asrwt>
<pdfrwt beam="2">  1        4 0.45304158E-01 0.12819352E+03</pdfrwt>
<pdfrwt beam="1">  1       -4 0.32045199E-02 0.12819352E+03</pdfrwt>
<totfact> 0.37262411E+03</totfact>
</mgrwt>
</event>
<event>
 6    4  0.2103460E-003  0.1312870E+03  0.7818608E-02  0.1225558E+00
          4   -1    0    0  502    0  0.00000000000E+00  0.00000000000E+00  0.20232946503E+04  0.20232950489E+04  0.12700000000E+01 0. -1.
         -4   -1    0    0    0  501 -0.00000000000E+00 -0.00000000000E+00 -0.45601275547E+01  0.47336733427E+01  0.12700000000E+01 0. -1.
         25    2    1    2    0    0 -0.34577664839E+02 -0.20359448535E+02  0.18473588782E+04  0.18520181157E+04  0.12500461645E+03 0.  0.
    9000005    1    3    3    0    0  0.41196857896E+02 -0.74313329938E+01  0.10815513068E+04  0.10823616008E+04  0.10000000000E+01 0.  0.
    9000005    1    3    3    0    0 -0.75774522735E+02 -0.12928115541E+02  0.76580757140E+03  0.76965651487E+03  0.10000000000E+01 0.  0.
         21    1    1    2  502  501  0.34577664839E+02  0.20359448535E+02  0.17137564458E+03  0.17601060652E+03  0.00000000000E+00 0. -1.
<mgrwt>
<rscale>  1 0.13128700E+03</rscale>
<asrwt>0</asrwt>
<pdfrwt beam="1">  1        4 0.31128924E+00 0.13128700E+03</pdfrwt>
<pdfrwt beam="2">  1       -4 0.71493898E-03 0.13128700E+03</pdfrwt>
<totfact> 0.26300396E+02</totfact>
</mgrwt>
</event>
<event>
 6    4  0.2103460E-003  0.1284806E+03  0.7818608E-02  0.1229728E+00
          4   -1    0    0  502    0  0.00000000000E+00  0.00000000000E+00  0.28255054920E+02  0.28283582315E+02  0.12700000000E+01 0.  1.
         -4   -1    0    0    0  501 -0.00000000000E+00 -0.00000000000E+00 -0.22282777685E+03  0.22283139599E+03  0.12700000000E+01 0.  1.
         25    2    1    2    0    0  0.12024692136E+02  0.27154988395E+02 -0.16590689050E+03  0.20983887738E+03  0.12500108611E+03 0.  0.
    9000005    1    3    3    0    0  0.38044077046E+02  0.15672183455E+02 -0.17514730919E+03  0.17991817321E+03  0.10000000000E+01 0.  0.
    9000005    1    3    3    0    0 -0.26019384910E+02  0.11482804940E+02  0.92404186939E+01  0.29920704170E+02  0.10000000000E+01 0.  0.
         21    1    1    2  502  501 -0.12024692136E+02 -0.27154988395E+02 -0.28665831431E+02  0.41276100922E+02  0.00000000000E+00 0.  1.
<mgrwt>
<rscale>  1 0.12848057E+03</rscale>
<asrwt>0</asrwt>
<pdfrwt beam="1">  1        4 0.43494045E-02 0.12848057E+03</pdfrwt>
<pdfrwt beam="2">  1       -4 0.34283668E-01 0.12848057E+03</pdfrwt>
<totfact> 0.39737967E+03</totfact>
</mgrwt>
</event>
<event>
 6    4  0.2103460E-003  0.1557831E+03  0.7818608E-02  0.1193542E+00
         -4   -1    0    0    0  501 -0.00000000000E+00  0.00000000000E+00  0.18745750420E+04  0.18745754722E+04  0.12700000000E+01 0. -1.
          4   -1    0    0  502    0  0.00000000000E+00 -0.00000000000E+00 -0.84921313127E+01  0.85865705746E+01  0.12700000000E+01 0. -1.
         25    2    1    2    0    0 -0.64417338171E+01 -0.92747132374E+02  0.99336706416E+03  0.10055080818E+04  0.12499940738E+03 0.  0.
    9000005    1    3    3    0    0  0.75309396627E+00 -0.57004244331E+02  0.13735541827E+03  0.14871974297E+03  0.10000000000E+01 0.  0.
    9000005    1    3    3    0    0 -0.71948277834E+01 -0.35742888043E+02  0.85601164590E+03  0.85678833880E+03  0.10000000000E+01 0.  0.
         21    1    1    2  502  501  0.64417338171E+01  0.92747132374E+02  0.87271584650E+03  0.87765396098E+03  0.00000000000E+00 0. -1.
<mgrwt>
<rscale>  1 0.15578311E+03</rscale>
<asrwt>0</asrwt>
<pdfrwt beam="2">  1        4 0.13137792E-02 0.15578311E+03</pdfrwt>
<pdfrwt beam="1">  1       -4 0.28840351E+00 0.15578311E+03</pdfrwt>
<totfact> 0.14584093E+02</totfact>
</mgrwt>
</event>
<event>
 6    4  0.2103460E-003  0.1322824E+03  0.7818608E-02  0.1224108E+00
         -4   -1    0    0    0  501 -0.00000000000E+00  0.00000000000E+00  0.11252828353E+03  0.11253544995E+03  0.12700000000E+01 0. -1.
          4   -1    0    0  502    0  0.00000000000E+00 -0.00000000000E+00 -0.18960118341E+03  0.18960543677E+03  0.12700000000E+01 0. -1.
         25    2    1    2    0    0 -0.16093014063E+02  0.40171652398E+02 -0.16060247239E+03  0.20806678697E+03  0.12500354773E+03 0.  0.
    9000005    1    3    3    0    0 -0.31513772177E+02  0.58459308451E+02 -0.16986980852E+03  0.18239342211E+03  0.10000000000E+01 0.  0.
    9000005    1    3    3    0    0  0.15420758114E+02 -0.18287656053E+02  0.92673361259E+01  0.25673364867E+02  0.10000000000E+01 0.  0.
         21    1    1    2  502  501  0.16093014063E+02 -0.40171652398E+02  0.83529572514E+02  0.94074099742E+02  0.00000000000E+00 0. -1.
<mgrwt>
<rscale>  1 0.13228240E+03</rscale>
<asrwt>0</asrwt>
<pdfrwt beam="2">  1        4 0.29170291E-01 0.13228240E+03</pdfrwt>
<pdfrwt beam="1">  1       -4 0.17312922E-01 0.13228240E+03</pdfrwt>
<totfact> 0.54094072E+02</totfact>
</mgrwt>
</event>
<event>
 6    4  0.2103460E-003  0.1273686E+03  0.7818608E-02  0.1231413E+00
         -4   -1    0    0    0  501 -0.00000000000E+00  0.00000000000E+00  0.38844441625E+02  0.38865197094E+02  0.12700000000E+01 0. -1.
          4   -1    0    0  502    0  0.00000000000E+00 -0.00000000000E+00 -0.32350865839E+03  0.32351115120E+03  0.12700000000E+01 0. -1.
         25    2    1    2    0    0 -0.14008267007E+02 -0.19914367282E+02 -0.30508098153E+03  0.33060123457E+03  0.12501982817E+03 0.  0.
    9000005    1    3    3    0    0 -0.50321985560E+02 -0.53474852720E+02 -0.13759189168E+03  0.15596278646E+03  0.10000000000E+01 0.  0.
    9000005    1    3    3    0    0  0.36313718553E+02  0.33560485439E+02 -0.16748908985E+03  0.17463844811E+03  0.10000000000E+01 0.  0.
         21    1    1    2  502  501  0.14008267007E+02  0.19914367282E+02  0.20416764770E+02  0.31775113728E+02  0.00000000000E+00 0. -1.
<mgrwt>
<rscale>  1 0.12736864E+03</rscale>
<asrwt>0</asrwt>
<pdfrwt beam="2">  1        4 0.49772349E-01 0.12736864E+03</pdfrwt>
<pdfrwt beam="1">  1       -4 0.59778565E-02 0.12736864E+03</pdfrwt>
<totfact> 0.11387164E+03</totfact>
</mgrwt>
</event>
<event>
 6    4  0.2103460E-003  0.1279307E+03  0.7818608E-02  0.1230559E+00
         -4   -1    0    0    0  501 -0.00000000000E+00  0.00000000000E+00  0.12117382150E+02  0.12183753533E+02  0.12700000000E+01 0. -1.
          4   -1    0    0  502    0  0.00000000000E+00 -0.00000000000E+00 -0.49829812130E+03  0.49829973970E+03  0.12700000000E+01 0. -1.
         25    2    1    2    0    0  0.17969939953E+02  0.20440495580E+02 -0.41527670548E+03  0.43453538864E+03  0.12500211704E+03 0.  0.
    9000005    1    3    3    0    0  0.43307443765E+02  0.23638123078E+02 -0.40330406575E+03  0.40631202911E+03  0.10000000000E+01 0.  0.
    9000005    1    3    3    0    0 -0.25337503812E+02 -0.31976274977E+01 -0.11972639728E+02  0.28223359529E+02  0.10000000000E+01 0.  0.
         21    1    1    2  502  501 -0.17969939953E+02 -0.20440495580E+02 -0.70904033667E+02  0.75948104596E+02  0.00000000000E+00 0. -1.
<mgrwt>
<rscale>  1 0.12793069E+03</rscale>
<asrwt>0</asrwt>
<pdfrwt beam="2">  1        4 0.76666464E-01 0.12793069E+03</pdfrwt>
<pdfrwt beam="1">  1       -4 0.18694430E-02 0.12793069E+03</pdfrwt>
<totfact> 0.28575065E+03</totfact>
</mgrwt>
</event>
<event>
 6    4  0.2103460E-003  0.1309868E+03  0.7818608E-02  0.1225999E+00
          4   -1    0    0  502    0  0.00000000000E+00  0.00000000000E+00  0.82906300305E+02  0.82916026981E+02  0.12700000000E+01 0.  1.
         -4   -1    0    0    0  501 -0.00000000000E+00 -0.00000000000E+00 -0.16289005846E+03  0.16289500927E+03  0.12700000000E+01 0.  1.
         25    2    1    2    0    0  0.38919461449E+02 -0.40487134526E+01  0.25373820444E+02  0.13342182000E+03  0.12500573879E+03 0.  0.
    9000005    1    3    3    0    0 -0.28419215504E+01  0.38395520174E+01  0.70937852919E+02  0.71105538846E+02  0.10000000000E+01 0.  0.
    9000005    1    3    3    0    0  0.41761383000E+02 -0.78882654699E+01 -0.45564032475E+02  0.62316281159E+02  0.10000000000E+01 0.  0.
         21    1    1    2  502  501 -0.38919461449E+02  0.40487134526E+01 -0.10535757860E+03  0.11238921625E+03  0.00000000000E+00 0.  1.
<mgrwt>
<rscale>  1 0.13098684E+03</rscale>
<asrwt>0</asrwt>
<pdfrwt beam="1">  1        4 0.12755944E-01 0.13098684E+03</pdfrwt>
<pdfrwt beam="2">  1       -4 0.25061138E-01 0.13098684E+03</pdfrwt>
<totfact> 0.12201759E+03</totfact>
</mgrwt>
</event>
